My System
19584
    1STR   BCK1    1   0.864  17.316   0.045
    1STR    O03    2   0.837  17.338  17.368
    1STR    N04    3   0.983  17.267   0.086
    1STR    C05    4   1.085  17.208   0.009
    1STR    C06    5   1.223  17.242   0.029
    1STR    C07    6   1.329  17.173  17.401
    1STR    N08    7   1.466  17.202  17.423
    1STR    C09    8   1.574  17.123  17.402
    1STR    O0A    9   1.567  17.007  17.363
    1STR    O0B   10   1.693  17.186  17.428
    1STR    C0C   11   1.819  17.120  17.396
    1STR    C0D   12   1.849  17.143  17.247
    1STR    C0E   13   1.937  17.168   0.044
    1STR    O0F   14   2.059  17.098   0.011
    1STR    C0G   15   2.175  17.126   0.093
    1STR    C0H   16   2.161  17.051   0.227
    1STR    C0I   17   2.306  17.083   0.021
    1STR    O0J   18   2.424  17.124   0.093
    1STR    C0K   19   2.552  17.086   0.038
    1STR    C0M   20   2.578  17.163  17.347
    1STR    C0N   21   2.667  17.116   0.139
    1STR    O0O   22   2.791  17.060   0.094
    1STR    C0P   23   2.910  17.125   0.111
    1STR    O0Q   24   2.923  17.237   0.159
    1STR    N0R   25   3.010  17.049   0.065
    1STR    C0S   26   3.147  17.070   0.045
    1STR    C0T   27   3.214  16.973  17.407
    1STR    C0U   28   3.348  16.990  17.370
    1STR    C0V   29   3.421  17.103  17.411
    1STR    C0W   30   3.557  17.125  17.347
    1STR    C0X   31   3.362  17.197   0.060
    1STR    N0Y   32   3.428  17.313   0.103
    1STR   BCK2   33   3.551  17.346   0.146
    1STR    O10   34   3.576   0.024   0.168
    1STR    C13   35   3.224  17.180   0.093
    1STR    C14   36   1.291  17.073  17.308
    1STR    C15   37   1.156  17.037  17.290
    1STR    C16   38   1.054  17.101  17.362
    1STR    C17   39   0.913  17.046  17.348
    1STR    H1B   40   0.994  17.264   0.186
    1STR    H1C   41   1.248  17.321   0.098
    1STR    H1D   42   1.489  17.292   0.022
    1STR    H1E   43   1.807  17.013  17.413
    1STR    H1F   44   1.862  17.248  17.224
    1STR    H1G   45   1.941  17.091  17.217
    1STR    H1H   46   1.769  17.104  17.184
    1STR    H1I   47   1.911  17.150   0.149
    1STR    H1J   48   1.952  17.275   0.033
    1STR    H1K   49   2.181  17.233   0.111
    1STR    H1M   50   2.147  16.944   0.211
    1STR    H1N   51   2.077  17.087   0.286
    1STR    H1O   52   2.250  17.064   0.288
    1STR    H1P   53   2.306  16.975   0.006
    1STR    H1Q   54   2.306  17.128  17.361
    1STR    H1R   55   2.551  16.979   0.018
    1STR    H1S   56   2.678  17.142  17.309
    1STR    H1T   57   2.571  17.270  17.363
    1STR    H1U   58   2.508  17.135  17.268
    1STR    H1V   59   2.644  17.071   0.236
    1STR    H1W   60   2.675  17.223   0.156
    1STR    H1X   61   2.973  16.961   0.033
    1STR    H1Y   62   3.162  16.886  17.370
    1STR    H1Z   63   3.394  16.918  17.305
    1STR    H20   64   3.583  17.230  17.342
    1STR    H21   65   3.635  17.071  17.401
    1STR    H22   66   3.557  17.088  17.244
    1STR    H23   67   3.369  17.395   0.105
    1STR    H27   68   3.175  17.254   0.155
    1STR    H28   69   1.364  17.020  17.249
    1STR    H29   70   1.132  16.957  17.221
    1STR    H2A   71   0.860  17.049   0.003
    1STR    H2B   72   0.914  16.942  17.315
    1STR    H2C   73   0.857  17.104  17.275
    1STR   BCK1   74   0.881   0.008   4.377
    1STR    O03   75   0.834   0.105   4.435
    1STR    N04   76   1.000   0.007   4.312
    1STR    C05   77   1.089   0.112   4.280
    1STR    C06   78   1.231   0.092   4.285
    1STR    C07   79   1.326   0.192   4.244
    1STR    N08   80   1.466   0.167   4.245
    1STR    C09   81   1.570   0.244   4.204
    1STR    O0A   82   1.558   0.358   4.158
    1STR    O0B   83   1.693   0.184   4.218
    1STR    C0C   84   1.815   0.257   4.188
    1STR    C0D   85   1.849   0.348   4.308
    1STR    C0E   86   1.937   0.166   4.152
    1STR    O0F   87   2.059   0.241   4.130
    1STR    C0G   88   2.176   0.166   4.089
    1STR    C0H   89   2.164   0.133   3.940
    1STR    C0I   90   2.308   0.246   4.117
    1STR    O0J   91   2.427   0.165   4.101
    1STR    C0K   92   2.555   0.229   4.123
    1STR    C0M   93   2.570   0.272   4.270
    1STR    C0N   94   2.674   0.134   4.086
    1STR    O0O   95   2.801   0.201   4.092
    1STR    C0P   96   2.913   0.145   4.149
    1STR    O0Q   97   2.916   0.039   4.211
    1STR    N0R   98   3.018   0.223   4.125
    1STR    C0S   99   3.155   0.224   4.159
    1STR    C0T  100   3.229   0.327   4.098
    1STR    C0U  101   3.364   0.349   4.131
    1STR    C0V  102   3.429   0.268   4.225
    1STR    C0W  103   3.569   0.310   4.267
    1STR    C0X  104   3.363   0.155   4.282
    1STR    N0Y  105   3.431   0.074   4.375
    1STR   BCK2  106   3.553   0.018   4.362
    1STR    O10  107   3.618   0.018   4.258
    1STR    C13  108   3.224   0.136   4.250
    1STR    C14  109   1.272   0.315   4.201
    1STR    C15  110   1.134   0.336   4.193
    1STR    C16  111   1.042   0.236   4.227
    1STR    C17  112   0.896   0.264   4.199
    1STR    H1B  113   1.027  17.355   4.282
    1STR    H1C  114   1.268  17.438   4.321
    1STR    H1D  115   1.498   0.079   4.280
    1STR    H1E  116   1.797   0.321   4.102
    1STR    H1F  117   1.869   0.289   4.398
    1STR    H1G  118   1.938   0.408   4.288
    1STR    H1H  119   1.767   0.417   4.330
    1STR    H1I  120   1.911   0.108   4.063
    1STR    H1J  121   1.954   0.094   4.233
    1STR    H1K  122   2.181   0.074   4.147
    1STR    H1M  123   2.152   0.224   3.880
    1STR    H1N  124   2.080   0.068   3.918
    1STR    H1O  125   2.254   0.083   3.904
    1STR    H1P  126   2.313   0.333   4.052
    1STR    H1Q  127   2.302   0.283   4.219
    1STR    H1R  128   2.561   0.317   4.058
    1STR    H1S  129   2.669   0.312   4.288
    1STR    H1T  130   2.557   0.186   4.336
    1STR    H1U  131   2.499   0.349   4.298
    1STR    H1V  132   2.662   0.099   3.983
    1STR    H1W  133   2.673   0.045   4.149
    1STR    H1X  134   2.988   0.300   4.068
    1STR    H1Y  135   3.184   0.393   4.027
    1STR    H1Z  136   3.416   0.431   4.085
    1STR    H20  137   3.588   0.286   4.372
    1STR    H21  138   3.644   0.261   4.205
    1STR    H22  139   3.582   0.418   4.257
    1STR    H23  140   3.384   0.056   4.463
    1STR    H27  141   3.168   0.055   4.295
    1STR    H28  142   1.334   0.398   4.171
    1STR    H29  143   1.098   0.431   4.155
    1STR    H2A  144   0.842   0.174   4.171
    1STR    H2B  145   0.884   0.335   4.117
    1STR    H2C  146   0.848   0.308   4.287
    1STR   BCK1  147   0.865  17.368   8.791
    1STR    O03  148   0.823  17.435   8.698
    1STR    N04  149   0.993  17.390   8.830
    1STR    C05  150   1.086  17.352   8.930
    1STR    C06  151   1.225  17.368   8.900
    1STR    C07  152   1.329  17.346   8.995
    1STR    N08  153   1.466  17.370   8.964
    1STR    C09  154   1.578  17.338   9.032
    1STR    O0A  155   1.579  17.271   9.135
    1STR    O0B  156   1.693  17.387   8.975
    1STR    C0C  157   1.822  17.355   9.033
    1STR    C0D  158   1.861  17.212   8.993
    1STR    C0E  159   1.934   0.015   8.995
    1STR    O0F  160   2.059  17.419   9.060
    1STR    C0G  161   2.172   0.065   9.037
    1STR    C0H  162   2.157   0.191   9.124
    1STR    C0I  163   2.304  17.430   9.072
    1STR    O0J  164   2.420   0.066   9.034
    1STR    C0K  165   2.548   0.011   9.069
    1STR    C0M  166   2.577  17.324   8.987
    1STR    C0N  167   2.661   0.115   9.046
    1STR    O0O  168   2.782   0.074   9.111
    1STR    C0P  169   2.901   0.063   9.047
    1STR    O0Q  170   2.922   0.086   8.929
    1STR    N0R  171   2.991   0.018   9.135
    1STR    C0S  172   3.122  17.411   9.125
    1STR    C0T  173   3.161  17.325   9.229
    1STR    C0U  174   3.286  17.263   9.226
    1STR    C0V  175   3.378  17.287   9.122
    1STR    C0W  176   3.498  17.195   9.125
    1STR    C0X  177   3.349  17.385   9.022
    1STR    N0Y  178   3.437  17.435   8.923
    1STR   BCK2  179   3.567  17.435   8.885
    1STR    O10  180   3.601   0.076   8.800
    1STR    C13  181   3.217   0.002   9.024
    1STR    C14  182   1.289  17.303   9.124
    1STR    C15  183   1.154  17.288   9.156
    1STR    C16  184   1.052  17.315   9.063
    1STR    C17  185   0.910  17.311   9.116
    1STR    H1B  186   1.031   0.015   8.764
    1STR    H1C  187   1.253  17.400   8.801
    1STR    H1D  188   1.486  17.419   8.879
    1STR    H1E  189   1.811  17.359   9.142
    1STR    H1F  190   1.873  17.202   8.885
    1STR    H1G  191   1.955  17.183   9.040
    1STR    H1H  192   1.786  17.139   9.025
    1STR    H1I  193   1.904   0.116   9.025
    1STR    H1J  194   1.948   0.017   8.887
    1STR    H1K  195   2.176   0.093   8.932
    1STR    H1M  196   2.146   0.166   9.229
    1STR    H1N  197   2.072   0.252   9.094
    1STR    H1O  198   2.246   0.254   9.115
    1STR    H1P  199   2.306  17.408   9.178
    1STR    H1Q  200   2.303  17.335   9.020
    1STR    H1R  201   2.547  17.426   9.175
    1STR    H1S  202   2.677  17.287   9.007
    1STR    H1T  203   2.571  17.345   8.880
    1STR    H1U  204   2.508  17.243   9.010
    1STR    H1V  205   2.633   0.211   9.089
    1STR    H1W  206   2.677   0.133   8.939
    1STR    H1X  207   2.947   0.010   9.225
    1STR    H1Y  208   3.095  17.302   9.311
    1STR    H1Z  209   3.311  17.193   9.305
    1STR    H20  210   3.520  17.159   9.025
    1STR    H21  211   3.583  17.246   9.170
    1STR    H22  212   3.480  17.106   9.185
    1STR    H23  213   3.391   0.059   8.860
    1STR    H27  214   3.187   0.071   8.947
    1STR    H28  215   1.360  17.285   9.203
    1STR    H29  216   1.128  17.258   9.257
    1STR    H2A  217   0.850  17.391   9.073
    1STR    H2B  218   0.908  17.326   9.224
    1STR    H2C  219   0.865  17.214   9.096
    1STR   BCK1  220   0.873  17.331  13.067
    1STR    O03  221   0.829  17.428  13.007
    1STR    N04  222   0.995  17.277  13.046
    1STR    C05  223   1.089  17.299  12.943
    1STR    C06  224   1.230  17.305  12.971
    1STR    C07  225   1.329  17.313  12.868
    1STR    N08  226   1.468  17.313  12.898
    1STR    C09  227   1.573  17.283  12.818
    1STR    O0A  228   1.562  17.247  12.701
    1STR    O0B  229   1.695  17.298  12.879
    1STR    C0C  230   1.818  17.282  12.804
    1STR    C0D  231   1.848  17.412  12.728
    1STR    C0E  232   1.939  17.240  12.893
    1STR    O0F  233   2.062  17.225  12.818
    1STR    C0G  234   2.177  17.177  12.890
    1STR    C0H  235   2.164  17.025  12.910
    1STR    C0I  236   2.310  17.210  12.815
    1STR    O0J  237   2.427  17.181  12.895
    1STR    C0K  238   2.557  17.202  12.835
    1STR    C0M  239   2.579  17.351  12.808
    1STR    C0N  240   2.671  17.148  12.928
    1STR    O0O  241   2.799  17.153  12.863
    1STR    C0P  242   2.915  17.182  12.930
    1STR    O0Q  243   2.923  17.213  13.048
    1STR    N0R  244   3.018  17.175  12.845
    1STR    C0S  245   3.155  17.207  12.851
    1STR    C0T  246   3.217  17.217  12.725
    1STR    C0U  247   3.350  17.261  12.714
    1STR    C0V  248   3.425  17.294  12.828
    1STR    C0W  249   3.559  17.361  12.803
    1STR    C0X  250   3.372  17.271  12.958
    1STR    N0Y  251   3.448  17.293  13.075
    1STR   BCK2  252   3.578  17.263  13.101
    1STR    O10  253   3.653  17.205  13.023
    1STR    C13  254   3.234  17.232  12.967
    1STR    C14  255   1.282  17.321  12.735
    1STR    C15  256   1.145  17.314  12.705
    1STR    C16  257   1.049  17.300  12.807
    1STR    C17  258   0.905  17.277  12.763
    1STR    H1B  259   1.018  17.205  13.112
    1STR    H1C  260   1.261  17.301  13.074
    1STR    H1D  261   1.496  17.336  12.991
    1STR    H1E  262   1.804  17.202  12.730
    1STR    H1F  263   1.863   0.056  12.797
    1STR    H1G  264   1.938  17.402  12.667
    1STR    H1H  265   1.766  17.439  12.661
    1STR    H1I  266   1.914  17.147  12.943
    1STR    H1J  267   1.954  17.315  12.971
    1STR    H1K  268   2.182  17.227  12.987
    1STR    H1M  269   2.151  16.974  12.815
    1STR    H1N  270   2.079  16.999  12.973
    1STR    H1O  271   2.253  16.985  12.958
    1STR    H1P  272   2.314  17.155  12.721
    1STR    H1Q  273   2.309  17.316  12.788
    1STR    H1R  274   2.561  17.146  12.741
    1STR    H1S  275   2.680  17.369  12.771
    1STR    H1T  276   2.568  17.410  12.899
    1STR    H1U  277   2.511  17.391  12.733
    1STR    H1V  278   2.651  17.044  12.955
    1STR    H1W  279   2.673  17.204  13.022
    1STR    H1X  280   2.983  17.144  12.755
    1STR    H1Y  281   3.163  17.196  12.634
    1STR    H1Z  282   3.393  17.274  12.616
    1STR    H20  283   3.587  17.427  12.885
    1STR    H21  284   3.638  17.287  12.788
    1STR    H22  285   3.555  17.423  12.713
    1STR    H23  286   3.399  17.332  13.154
    1STR    H27  287   3.187  17.221  13.064
    1STR    H28  288   1.350  17.331  12.652
    1STR    H29  289   1.115  17.316  12.602
    1STR    H2A  290   0.853  17.209  12.830
    1STR    H2B  291   0.900  17.234  12.663
    1STR    H2C  292   0.851  17.372  12.761
    1STR   BCK1  293   0.886   4.353   0.113
    1STR    O03  294   0.846   4.395   0.221
    1STR    N04  295   1.000   4.394   0.052
    1STR    C05  296   1.091   4.496   0.089
    1STR    C06  297   1.232   4.476   0.075
    1STR    C07  298   1.328   4.578   0.104
    1STR    N08  299   1.467   4.559   0.083
    1STR    C09  300   1.573   4.635   0.119
    1STR    O0A  301   1.564   4.737   0.187
    1STR    O0B  302   1.694   4.588   0.072
    1STR    C0C  303   1.818   4.655   0.109
    1STR    C0D  304   1.856   4.613   0.252
    1STR    C0E  305   1.936   4.628   0.010
    1STR    O0F  306   2.058   4.692   0.053
    1STR    C0G  307   2.174   4.678  17.409
    1STR    C0H  308   2.162   4.775  17.290
    1STR    C0I  309   2.306   4.705   0.048
    1STR    O0J  310   2.426   4.670  17.415
    1STR    C0K  311   2.553   4.693   0.041
    1STR    C0M  312   2.567   4.599   0.162
    1STR    C0N  313   2.674   4.670  17.386
    1STR    O0O  314   2.797   4.709   0.009
    1STR    C0P  315   2.913   4.638  17.438
    1STR    O0Q  316   2.927   4.530  17.380
    1STR    N0R  317   3.011   4.706   0.059
    1STR    C0S  318   3.149   4.687   0.083
    1STR    C0T  319   3.213   4.801   0.136
    1STR    C0U  320   3.350   4.799   0.167
    1STR    C0V  321   3.427   4.684   0.146
    1STR    C0W  322   3.576   4.695   0.175
    1STR    C0X  323   3.366   4.565   0.098
    1STR    N0Y  324   3.446   4.451   0.076
    1STR   BCK2  325   3.529   4.391   0.165
    1STR    O10  326   3.532   4.421   0.284
    1STR    C13  327   3.227   4.569   0.063
    1STR    C14  328   1.277   4.702   0.151
    1STR    C15  329   1.139   4.724   0.163
    1STR    C16  330   1.046   4.624   0.129
    1STR    C17  331   0.899   4.665   0.131
    1STR    H1B  332   1.022   4.341  17.409
    1STR    H1C  333   1.267   4.380   0.041
    1STR    H1D  334   1.496   4.476   0.034
    1STR    H1E  335   1.800   4.763   0.109
    1STR    H1F  336   1.874   4.506   0.258
    1STR    H1G  337   1.946   4.665   0.285
    1STR    H1H  338   1.777   4.637   0.323
    1STR    H1I  339   1.907   4.665  17.352
    1STR    H1J  340   1.952   4.521   0.000
    1STR    H1K  341   2.179   4.575  17.372
    1STR    H1M  342   2.149   4.878  17.325
    1STR    H1N  343   2.077   4.751  17.226
    1STR    H1O  344   2.251   4.772  17.228
    1STR    H1P  345   2.310   4.810   0.078
    1STR    H1Q  346   2.301   4.647   0.140
    1STR    H1R  347   2.556   4.797   0.074
    1STR    H1S  348   2.666   4.610   0.208
    1STR    H1T  349   2.556   4.495   0.132
    1STR    H1U  350   2.495   4.620   0.241
    1STR    H1V  351   2.663   4.730  17.295
    1STR    H1W  352   2.678   4.566  17.352
    1STR    H1X  353   2.972   4.791   0.094
    1STR    H1Y  354   3.159   4.892   0.153
    1STR    H1Z  355   3.396   4.889   0.205
    1STR    H20  356   3.597   4.660   0.276
    1STR    H21  357   3.634   4.635   0.105
    1STR    H22  358   3.611   4.797   0.167
    1STR    H23  359   3.446   4.410  17.424
    1STR    H27  360   3.178   4.481   0.024
    1STR    H28  361   1.340   4.785   0.176
    1STR    H29  362   1.104   4.821   0.196
    1STR    H2A  363   0.842   4.612   0.054
    1STR    H2B  364   0.887   4.771   0.111
    1STR    H2C  365   0.855   4.644   0.228
    1STR   BCK1  366   0.859   4.275   4.429
    1STR    O03  367   0.816   4.369   4.363
    1STR    N04  368   0.991   4.246   4.416
    1STR    C05  369   1.084   4.147   4.454
    1STR    C06  370   1.222   4.185   4.462
    1STR    C07  371   1.328   4.092   4.487
    1STR    N08  372   1.464   4.132   4.488
    1STR    C09  373   1.577   4.058   4.495
    1STR    O0A  374   1.579   3.935   4.500
    1STR    O0B  375   1.693   4.132   4.493
    1STR    C0C  376   1.821   4.064   4.494
    1STR    C0D  377   1.853   4.010   4.353
    1STR    C0E  378   1.937   4.154   4.546
    1STR    O0F  379   2.060   4.079   4.554
    1STR    C0G  380   2.175   4.147   4.608
    1STR    C0H  381   2.161   4.155   4.761
    1STR    C0I  382   2.306   4.071   4.570
    1STR    O0J  383   2.424   4.144   4.610
    1STR    C0K  384   2.551   4.081   4.585
    1STR    C0M  385   2.579   4.076   4.434
    1STR    C0N  386   2.666   4.158   4.656
    1STR    O0O  387   2.788   4.083   4.653
    1STR    C0P  388   2.908   4.140   4.626
    1STR    O0Q  389   2.926   4.258   4.598
    1STR    N0R  390   3.003   4.047   4.632
    1STR    C0S  391   3.140   4.046   4.599
    1STR    C0T  392   3.197   3.919   4.577
    1STR    C0U  393   3.328   3.906   4.530
    1STR    C0V  394   3.408   4.020   4.505
    1STR    C0W  395   3.539   3.997   4.431
    1STR    C0X  396   3.359   4.149   4.540
    1STR    N0Y  397   3.434   4.266   4.520
    1STR   BCK2  398   3.561   4.303   4.542
    1STR    O10  399   3.597   4.414   4.504
    1STR    C13  400   3.223   4.160   4.582
    1STR    C14  401   1.290   3.958   4.509
    1STR    C15  402   1.156   3.917   4.500
    1STR    C16  403   1.054   4.008   4.468
    1STR    C17  404   0.917   3.948   4.444
    1STR    H1B  405   1.031   4.321   4.362
    1STR    H1C  406   1.248   4.288   4.447
    1STR    H1D  407   1.485   4.230   4.481
    1STR    H1E  408   1.814   3.980   4.563
    1STR    H1F  409   1.862   4.090   4.280
    1STR    H1G  410   1.947   3.954   4.354
    1STR    H1H  411   1.776   3.941   4.319
    1STR    H1I  412   1.910   4.192   4.644
    1STR    H1J  413   1.951   4.240   4.480
    1STR    H1K  414   2.181   4.247   4.566
    1STR    H1M  415   2.147   4.056   4.805
    1STR    H1N  416   2.077   4.217   4.792
    1STR    H1O  417   2.250   4.198   4.806
    1STR    H1P  418   2.306   3.972   4.616
    1STR    H1Q  419   2.306   4.056   4.462
    1STR    H1R  420   2.548   3.980   4.626
    1STR    H1S  421   2.679   4.037   4.414
    1STR    H1T  422   2.574   4.175   4.389
    1STR    H1U  423   2.509   4.011   4.380
    1STR    H1V  424   2.640   4.175   4.761
    1STR    H1W  425   2.678   4.257   4.612
    1STR    H1X  426   2.963   3.959   4.659
    1STR    H1Y  427   3.139   3.829   4.591
    1STR    H1Z  428   3.367   3.808   4.508
    1STR    H20  429   3.571   4.086   4.378
    1STR    H21  430   3.617   3.966   4.500
    1STR    H22  431   3.527   3.919   4.356
    1STR    H23  432   3.382   4.343   4.483
    1STR    H27  433   3.181   4.258   4.601
    1STR    H28  434   1.361   3.880   4.532
    1STR    H29  435   1.133   3.813   4.513
    1STR    H2A  436   0.860   3.948   4.536
    1STR    H2B  437   0.926   3.844   4.411
    1STR    H2C  438   0.864   4.001   4.365
    1STR   BCK1  439   0.878   4.328   8.695
    1STR    O03  440   0.829   4.439   8.711
    1STR    N04  441   0.998   4.303   8.639
    1STR    C05  442   1.088   4.388   8.571
    1STR    C06  443   1.230   4.374   8.587
    1STR    C07  444   1.326   4.449   8.512
    1STR    N08  445   1.466   4.429   8.526
    1STR    C09  446   1.570   4.473   8.450
    1STR    O0A  447   1.557   4.541   8.349
    1STR    O0B  448   1.694   4.433   8.497
    1STR    C0C  449   1.816   4.481   8.434
    1STR    C0D  450   1.847   4.622   8.488
    1STR    C0E  451   1.938   4.386   8.454
    1STR    O0F  452   2.060   4.438   8.395
    1STR    C0G  453   2.177   4.353   8.400
    1STR    C0H  454   2.165   4.245   8.291
    1STR    C0I  455   2.310   4.434   8.382
    1STR    O0J  456   2.428   4.355   8.411
    1STR    C0K  457   2.557   4.417   8.394
    1STR    C0M  458   2.574   4.532   8.494
    1STR    C0N  459   2.673   4.314   8.414
    1STR    O0O  460   2.802   4.371   8.384
    1STR    C0P  461   2.915   4.343   8.458
    1STR    O0Q  462   2.919   4.276   8.560
    1STR    N0R  463   3.020   4.402   8.400
    1STR    C0S  464   3.157   4.418   8.430
    1STR    C0T  465   3.227   4.498   8.338
    1STR    C0U  466   3.360   4.535   8.361
    1STR    C0V  467   3.429   4.492   8.476
    1STR    C0W  468   3.565   4.555   8.501
    1STR    C0X  469   3.367   4.400   8.566
    1STR    N0Y  470   3.438   4.351   8.678
    1STR   BCK2  471   3.565   4.304   8.683
    1STR    O10  472   3.636   4.289   8.585
    1STR    C13  473   3.229   4.367   8.543
    1STR    C14  474   1.274   4.545   8.422
    1STR    C15  475   1.136   4.560   8.402
    1STR    C16  476   1.043   4.480   8.472
    1STR    C17  477   0.897   4.494   8.432
    1STR    H1B  478   1.026   4.207   8.646
    1STR    H1C  479   1.266   4.302   8.659
    1STR    H1D  480   1.498   4.373   8.603
    1STR    H1E  481   1.798   4.489   8.326
    1STR    H1F  482   1.865   4.621   8.595
    1STR    H1G  483   1.935   4.664   8.439
    1STR    H1H  484   1.764   4.691   8.468
    1STR    H1I  485   1.913   4.290   8.410
    1STR    H1J  486   1.954   4.370   8.560
    1STR    H1K  487   2.181   4.306   8.499
    1STR    H1M  488   2.152   4.290   8.193
    1STR    H1N  489   2.081   4.178   8.308
    1STR    H1O  490   2.255   4.183   8.288
    1STR    H1P  491   2.315   4.474   8.281
    1STR    H1Q  492   2.306   4.519   8.449
    1STR    H1R  493   2.564   4.456   8.292
    1STR    H1S  494   2.675   4.575   8.488
    1STR    H1T  495   2.560   4.497   8.597
    1STR    H1U  496   2.505   4.614   8.477
    1STR    H1V  497   2.659   4.229   8.347
    1STR    H1W  498   2.671   4.274   8.515
    1STR    H1X  499   2.989   4.446   8.315
    1STR    H1Y  500   3.179   4.536   8.249
    1STR    H1Z  501   3.409   4.601   8.291
    1STR    H20  502   3.588   4.560   8.607
    1STR    H21  503   3.643   4.498   8.450
    1STR    H22  504   3.568   4.657   8.463
    1STR    H23  505   3.388   4.347   8.765
    1STR    H27  506   3.177   4.303   8.613
    1STR    H28  507   1.338   4.609   8.363
    1STR    H29  508   1.101   4.631   8.329
    1STR    H2A  509   0.845   4.399   8.440
    1STR    H2B  510   0.888   4.527   8.328
    1STR    H2C  511   0.847   4.567   8.495
    1STR   BCK1  512   0.886   4.265  13.201
    1STR    O03  513   0.883   4.188  13.296
    1STR    N04  514   0.983   4.358  13.188
    1STR    C05  515   1.084   4.389  13.282
    1STR    C06  516   1.224   4.387  13.249
    1STR    C07  517   1.326   4.422  13.343
    1STR    N08  518   1.464   4.424  13.307
    1STR    C09  519   1.574   4.437  13.385
    1STR    O0A  520   1.571   4.439  13.508
    1STR    O0B  521   1.692   4.446  13.314
    1STR    C0C  522   1.818   4.454  13.385
    1STR    C0D  523   1.858   4.313  13.434
    1STR    C0E  524   1.933   4.517  13.301
    1STR    O0F  525   2.057   4.522  13.376
    1STR    C0G  526   2.171   4.582  13.312
    1STR    C0H  527   2.157   4.735  13.318
    1STR    C0I  528   2.302   4.536  13.382
    1STR    O0J  529   2.421   4.576  13.310
    1STR    C0K  530   2.548   4.542  13.370
    1STR    C0M  531   2.569   4.390  13.369
    1STR    C0N  532   2.667   4.610  13.296
    1STR    O0O  533   2.786   4.598  13.375
    1STR    C0P  534   2.905   4.556  13.324
    1STR    O0Q  535   2.927   4.522  13.208
    1STR    N0R  536   2.995   4.558  13.423
    1STR    C0S  537   3.130   4.523  13.437
    1STR    C0T  538   3.180   4.538  13.567
    1STR    C0U  539   3.314   4.510  13.596
    1STR    C0V  540   3.404   4.469  13.496
    1STR    C0W  541   3.548   4.454  13.540
    1STR    C0X  542   3.358   4.450  13.362
    1STR    N0Y  543   3.441   4.422  13.251
    1STR   BCK2  544   3.560   4.366  13.219
    1STR    O10  545   3.603   4.386  13.106
    1STR    C13  546   3.220   4.478  13.335
    1STR    C14  547   1.283   4.459  13.473
    1STR    C15  548   1.147   4.464  13.507
    1STR    C16  549   1.048   4.432  13.412
    1STR    C17  550   0.903   4.451  13.455
    1STR    H1B  551   0.978   4.415  13.105
    1STR    H1C  552   1.252   4.356  13.149
    1STR    H1D  553   1.487   4.416  13.210
    1STR    H1E  554   1.805   4.518  13.473
    1STR    H1F  555   1.874   4.245  13.350
    1STR    H1G  556   1.950   4.317  13.492
    1STR    H1H  557   1.781   4.270  13.498
    1STR    H1I  558   1.903   4.618  13.271
    1STR    H1J  559   1.949   4.460  13.210
    1STR    H1K  560   2.176   4.548  13.208
    1STR    H1M  561   2.146   4.770  13.420
    1STR    H1N  562   2.072   4.771  13.261
    1STR    H1O  563   2.246   4.783  13.277
    1STR    H1P  564   2.305   4.575  13.484
    1STR    H1Q  565   2.299   4.428  13.391
    1STR    H1R  566   2.548   4.579  13.473
    1STR    H1S  567   2.669   4.365  13.406
    1STR    H1T  568   2.561   4.350  13.268
    1STR    H1U  569   2.498   4.337  13.432
    1STR    H1V  570   2.646   4.717  13.283
    1STR    H1W  571   2.680   4.569  13.196
    1STR    H1X  572   2.949   4.592  13.505
    1STR    H1Y  573   3.117   4.572  13.647
    1STR    H1Z  574   3.349   4.524  13.697
    1STR    H20  575   3.569   4.348  13.558
    1STR    H21  576   3.616   4.495  13.466
    1STR    H22  577   3.567   4.506  13.634
    1STR    H23  578   3.402   4.456  13.165
    1STR    H27  579   3.181   4.468  13.235
    1STR    H28  580   1.352   4.488  13.550
    1STR    H29  581   1.120   4.494  13.606
    1STR    H2A  582   0.844   4.492  13.373
    1STR    H2B  583   0.895   4.520  13.538
    1STR    H2C  584   0.859   4.356  13.485
    1STR   BCK1  585   0.868   8.593   0.024
    1STR    O03  586   0.832   8.652  17.363
    1STR    N04  587   0.988   8.536   0.040
    1STR    C05  588   1.087   8.507  17.384
    1STR    C06  589   1.226   8.530  17.410
    1STR    C07  590   1.329   8.488  17.320
    1STR    N08  591   1.467   8.506  17.349
    1STR    C09  592   1.574   8.439  17.299
    1STR    O0A  593   1.565   8.345  17.221
    1STR    O0B  594   1.694   8.487  17.344
    1STR    C0C  595   1.819   8.436  17.290
    1STR    C0D  596   1.849   8.507  17.157
    1STR    C0E  597   1.939   8.449  17.389
    1STR    O0F  598   2.061   8.395  17.333
    1STR    C0G  599   2.176   8.393  17.419
    1STR    C0H  600   2.163   8.277   0.079
    1STR    C0I  601   2.308   8.378  17.337
    1STR    O0J  602   2.426   8.393  17.419
    1STR    C0K  603   2.554   8.378  17.354
    1STR    C0M  604   2.579   8.494  17.257
    1STR    C0N  605   2.670   8.374   0.019
    1STR    O0O  606   2.796   8.341  17.399
    1STR    C0P  607   2.913   8.397   0.001
    1STR    O0Q  608   2.923   8.485   0.086
    1STR    N0R  609   3.015   8.344  17.373
    1STR    C0S  610   3.154   8.371  17.366
    1STR    C0T  611   3.225   8.302  17.266
    1STR    C0U  612   3.360   8.330  17.242
    1STR    C0V  613   3.430   8.427  17.317
    1STR    C0W  614   3.568   8.467  17.267
    1STR    C0X  615   3.365   8.491  17.426
    1STR    N0Y  616   3.426   8.593   0.062
    1STR   BCK2  617   3.547   8.619   0.115
    1STR    O10  618   3.564   8.729   0.166
    1STR    C13  619   3.226   8.464   0.007
    1STR    C14  620   1.288   8.427  17.199
    1STR    C15  621   1.152   8.402  17.173
    1STR    C16  622   1.052   8.438  17.265
    1STR    C17  623   0.910   8.392  17.235
    1STR    H1B  624   1.005   8.502   0.133
    1STR    H1C  625   1.254   8.580   0.062
    1STR    H1D  626   1.493   8.576  17.416
    1STR    H1E  627   1.806   8.329  17.270
    1STR    H1F  628   1.863   8.614  17.171
    1STR    H1G  629   1.939   8.467  17.111
    1STR    H1H  630   1.768   8.493  17.085
    1STR    H1I  631   1.913   8.397   0.041
    1STR    H1J  632   1.954   8.554  17.414
    1STR    H1K  633   2.182   8.488   0.033
    1STR    H1M  634   2.149   8.182   0.027
    1STR    H1N  635   2.078   8.290   0.147
    1STR    H1O  636   2.252   8.268   0.141
    1STR    H1P  637   2.309   8.281  17.286
    1STR    H1Q  638   2.307   8.454  17.258
    1STR    H1R  639   2.555   8.283  17.300
    1STR    H1S  640   2.679   8.488  17.214
    1STR    H1T  641   2.570   8.590  17.307
    1STR    H1U  642   2.509   8.493  17.173
    1STR    H1V  643   2.649   8.298   0.095
    1STR    H1W  644   2.675   8.469   0.073
    1STR    H1X  645   2.981   8.272  17.311
    1STR    H1Y  646   3.176   8.229  17.203
    1STR    H1Z  647   3.410   8.280  17.160
    1STR    H20  648   3.590   8.571  17.290
    1STR    H21  649   3.644   8.403  17.312
    1STR    H22  650   3.575   8.457  17.159
    1STR    H23  651   3.363   8.668   0.085
    1STR    H27  652   3.173   8.516   0.086
    1STR    H28  653   1.359   8.396  17.124
    1STR    H29  654   1.125   8.351  17.082
    1STR    H2A  655   0.858   8.364  17.327
    1STR    H2B  656   0.909   8.305  17.170
    1STR    H2C  657   0.855   8.472  17.187
    1STR   BCK1  658   0.889   8.736   4.416
    1STR    O03  659   0.843   8.817   4.496
    1STR    N04  660   1.005   8.751   4.348
    1STR    C05  661   1.093   8.862   4.341
    1STR    C06  662   1.234   8.841   4.339
    1STR    C07  663   1.328   8.948   4.323
    1STR    N08  664   1.468   8.923   4.316
    1STR    C09  665   1.573   9.008   4.304
    1STR    O0A  666   1.562   9.131   4.304
    1STR    O0B  667   1.695   8.945   4.293
    1STR    C0C  668   1.817   9.023   4.290
    1STR    C0D  669   1.853   9.066   4.434
    1STR    C0E  670   1.937   8.949   4.224
    1STR    O0F  671   2.059   9.027   4.227
    1STR    C0G  672   2.176   8.970   4.164
    1STR    C0H  673   2.164   8.990   4.012
    1STR    C0I  674   2.307   9.036   4.217
    1STR    O0J  675   2.427   8.966   4.175
    1STR    C0K  676   2.554   9.020   4.218
    1STR    C0M  677   2.568   9.007   4.371
    1STR    C0N  678   2.674   8.946   4.150
    1STR    O0O  679   2.800   9.009   4.180
    1STR    C0P  680   2.911   8.940   4.217
    1STR    O0Q  681   2.916   8.821   4.245
    1STR    N0R  682   3.016   9.024   4.219
    1STR    C0S  683   3.153   9.015   4.251
    1STR    C0T  684   3.227   9.129   4.217
    1STR    C0U  685   3.362   9.142   4.253
    1STR    C0V  686   3.428   9.040   4.324
    1STR    C0W  687   3.569   9.069   4.374
    1STR    C0X  688   3.360   8.918   4.352
    1STR    N0Y  689   3.428   8.817   4.425
    1STR   BCK2  690   3.549   8.764   4.399
    1STR    O10  691   3.612   8.783   4.295
    1STR    C13  692   3.221   8.908   4.317
    1STR    C14  693   1.275   9.078   4.313
    1STR    C15  694   1.136   9.100   4.312
    1STR    C16  695   1.045   8.994   4.322
    1STR    C17  696   0.898   9.028   4.304
    1STR    H1B  697   1.030   8.670   4.296
    1STR    H1C  698   1.271   8.740   4.350
    1STR    H1D  699   1.499   8.827   4.318
    1STR    H1E  700   1.799   9.113   4.231
    1STR    H1F  701   1.872   8.980   4.497
    1STR    H1G  702   1.942   9.129   4.435
    1STR    H1H  703   1.772   9.124   4.479
    1STR    H1I  704   1.910   8.926   4.120
    1STR    H1J  705   1.954   8.853   4.274
    1STR    H1K  706   2.181   8.864   4.187
    1STR    H1M  707   2.151   9.095   3.986
    1STR    H1N  708   2.079   8.935   3.969
    1STR    H1O  709   2.254   8.954   3.961
    1STR    H1P  710   2.311   9.140   4.186
    1STR    H1Q  711   2.301   9.036   4.326
    1STR    H1R  712   2.559   9.125   4.189
    1STR    H1S  713   2.667   9.040   4.403
    1STR    H1T  714   2.556   8.904   4.402
    1STR    H1U  715   2.496   9.068   4.425
    1STR    H1V  716   2.661   8.948   4.042
    1STR    H1W  717   2.675   8.841   4.179
    1STR    H1X  718   2.984   9.114   4.188
    1STR    H1Y  719   3.182   9.212   4.165
    1STR    H1Z  720   3.415   9.233   4.229
    1STR    H20  721   3.587   9.023   4.471
    1STR    H21  722   3.642   9.032   4.303
    1STR    H22  723   3.585   9.176   4.386
    1STR    H23  724   3.383   8.783   4.508
    1STR    H27  725   3.166   8.818   4.342
    1STR    H28  726   1.337   9.165   4.302
    1STR    H29  727   1.100   9.201   4.300
    1STR    H2A  728   0.843   8.948   4.255
    1STR    H2B  729   0.885   9.117   4.241
    1STR    H2C  730   0.852   9.049   4.400
    1STR   BCK1  731   0.858   8.641   8.792
    1STR    O03  732   0.829   8.700   8.688
    1STR    N04  733   0.990   8.627   8.818
    1STR    C05  734   1.084   8.568   8.907
    1STR    C06  735   1.222   8.602   8.886
    1STR    C07  736   1.330   8.548   8.963
    1STR    N08  737   1.466   8.584   8.938
    1STR    C09  738   1.579   8.526   8.983
    1STR    O0A  739   1.582   8.423   9.051
    1STR    O0B  740   1.694   8.591   8.946
    1STR    C0C  741   1.823   8.538   8.986
    1STR    C0D  742   1.860   8.418   8.897
    1STR    C0E  743   1.938   8.644   8.984
    1STR    O0F  744   2.061   8.586   9.032
    1STR    C0G  745   2.175   8.674   9.042
    1STR    C0H  746   2.160   8.762   9.167
    1STR    C0I  747   2.306   8.590   9.050
    1STR    O0J  748   2.424   8.673   9.044
    1STR    C0K  749   2.551   8.607   9.058
    1STR    C0M  750   2.580   8.519   8.935
    1STR    C0N  751   2.666   8.710   9.077
    1STR    O0O  752   2.786   8.645   9.121
    1STR    C0P  753   2.907   8.668   9.062
    1STR    O0Q  754   2.928   8.742   8.967
    1STR    N0R  755   2.999   8.594   9.124
    1STR    C0S  756   3.134   8.565   9.096
    1STR    C0T  757   3.183   8.446   9.152
    1STR    C0U  758   3.311   8.399   9.119
    1STR    C0V  759   3.395   8.471   9.032
    1STR    C0W  760   3.519   8.399   8.981
    1STR    C0X  761   3.355   8.600   8.987
    1STR    N0Y  762   3.436   8.679   8.904
    1STR   BCK2  763   3.566   8.713   8.901
    1STR    O10  764   3.608   8.777   8.806
    1STR    C13  765   3.222   8.643   9.015
    1STR    C14  766   1.296   8.459   9.066
    1STR    C15  767   1.163   8.423   9.089
    1STR    C16  768   1.057   8.475   9.012
    1STR    C17  769   0.921   8.423   9.049
    1STR    H1B  770   1.035   8.678   8.744
    1STR    H1C  771   1.247   8.672   8.807
    1STR    H1D  772   1.484   8.663   8.878
    1STR    H1E  773   1.814   8.504   9.089
    1STR    H1F  774   1.871   8.446   8.793
    1STR    H1G  775   1.954   8.373   8.930
    1STR    H1H  776   1.784   8.340   8.903
    1STR    H1I  777   1.908   8.728   9.047
    1STR    H1J  778   1.952   8.683   8.883
    1STR    H1K  779   2.181   8.736   8.952
    1STR    H1M  780   2.147   8.702   9.257
    1STR    H1N  781   2.075   8.830   9.159
    1STR    H1O  782   2.249   8.824   9.181
    1STR    H1P  783   2.306   8.531   9.142
    1STR    H1Q  784   2.306   8.519   8.968
    1STR    H1R  785   2.548   8.544   9.148
    1STR    H1S  786   2.680   8.476   8.940
    1STR    H1T  787   2.575   8.579   8.843
    1STR    H1U  788   2.510   8.436   8.925
    1STR    H1V  789   2.638   8.782   9.153
    1STR    H1W  790   2.681   8.767   8.985
    1STR    H1X  791   2.958   8.544   9.200
    1STR    H1Y  792   3.122   8.385   9.216
    1STR    H1Z  793   3.343   8.303   9.157
    1STR    H20  794   3.554   8.441   8.887
    1STR    H21  795   3.599   8.403   9.055
    1STR    H22  796   3.497   8.294   8.962
    1STR    H23  797   3.387   8.726   8.829
    1STR    H27  798   3.186   8.736   8.975
    1STR    H28  799   1.369   8.415   9.131
    1STR    H29  800   1.143   8.353   9.169
    1STR    H2A  801   0.861   8.504   9.092
    1STR    H2B  802   0.925   8.345   9.124
    1STR    H2C  803   0.873   8.379   8.962
    1STR   BCK1  804   0.876   8.637  13.052
    1STR    O03  805   0.829   8.746  13.021
    1STR    N04  806   0.997   8.591  13.013
    1STR    C05  807   1.090   8.642  12.919
    1STR    C06  808   1.231   8.638  12.944
    1STR    C07  809   1.328   8.675  12.846
    1STR    N08  810   1.468   8.666  12.872
    1STR    C09  811   1.572   8.664  12.785
    1STR    O0A  812   1.560   8.668  12.663
    1STR    O0B  813   1.695   8.657  12.847
    1STR    C0C  814   1.817   8.666  12.769
    1STR    C0D  815   1.847   8.814  12.741
    1STR    C0E  816   1.939   8.597  12.838
    1STR    O0F  817   2.061   8.609  12.761
    1STR    C0G  818   2.177   8.540  12.812
    1STR    C0H  819   2.164   8.390  12.779
    1STR    C0I  820   2.310   8.597  12.753
    1STR    O0J  821   2.427   8.544  12.819
    1STR    C0K  822   2.557   8.586  12.771
    1STR    C0M  823   2.577   8.736  12.796
    1STR    C0N  824   2.671   8.506  12.841
    1STR    O0O  825   2.800   8.536  12.785
    1STR    C0P  826   2.913   8.544  12.861
    1STR    O0Q  827   2.919   8.535  12.983
    1STR    N0R  828   3.018   8.565  12.780
    1STR    C0S  829   3.155   8.593  12.799
    1STR    C0T  830   3.223   8.630  12.681
    1STR    C0U  831   3.357   8.672  12.685
    1STR    C0V  832   3.428   8.677  12.806
    1STR    C0W  833   3.565   8.743  12.802
    1STR    C0X  834   3.368   8.629  12.926
    1STR    N0Y  835   3.441   8.626  13.047
    1STR   BCK2  836   3.567   8.579  13.067
    1STR    O10  837   3.634   8.525  12.980
    1STR    C13  838   3.229   8.591  12.921
    1STR    C14  839   1.279   8.722  12.722
    1STR    C15  840   1.142   8.725  12.695
    1STR    C16  841   1.047   8.682  12.789
    1STR    C17  842   0.902   8.675  12.744
    1STR    H1B  843   1.023   8.505  13.058
    1STR    H1C  844   1.264   8.604  13.041
    1STR    H1D  845   1.498   8.657  12.967
    1STR    H1E  846   1.802   8.616  12.673
    1STR    H1F  847   1.863   8.870  12.833
    1STR    H1G  848   1.936   8.825  12.679
    1STR    H1H  849   1.765   8.862  12.688
    1STR    H1I  850   1.914   8.492  12.853
    1STR    H1J  851   1.954   8.641  12.937
    1STR    H1K  852   2.182   8.553  12.920
    1STR    H1M  853   2.152   8.375  12.672
    1STR    H1N  854   2.080   8.344  12.829
    1STR    H1O  855   2.254   8.336  12.809
    1STR    H1P  856   2.314   8.577  12.646
    1STR    H1Q  857   2.307   8.706  12.764
    1STR    H1R  858   2.562   8.565  12.664
    1STR    H1S  859   2.678   8.767  12.767
    1STR    H1T  860   2.564   8.760  12.902
    1STR    H1U  861   2.508   8.798  12.739
    1STR    H1V  862   2.654   8.399  12.829
    1STR    H1W  863   2.670   8.525  12.948
    1STR    H1X  864   2.986   8.565  12.685
    1STR    H1Y  865   3.174   8.629  12.585
    1STR    H1Z  866   3.405   8.704  12.594
    1STR    H20  867   3.590   8.789  12.897
    1STR    H21  868   3.641   8.669  12.777
    1STR    H22  869   3.568   8.821  12.727
    1STR    H23  870   3.394   8.658  13.130
    1STR    H27  871   3.179   8.560  13.011
    1STR    H28  872   1.345   8.756  12.644
    1STR    H29  873   1.109   8.758  12.597
    1STR    H2A  874   0.850   8.591  12.790
    1STR    H2B  875   0.895   8.661  12.636
    1STR    H2C  876   0.850   8.767  12.770
    1STR   BCK1  877   0.889  13.039   0.131
    1STR    O03  878   0.870  13.030   0.252
    1STR    N04  879   0.993  13.105   0.076
    1STR    C05  880   1.088  13.187   0.141
    1STR    C06  881   1.229  13.173   0.116
    1STR    C07  882   1.327  13.258   0.178
    1STR    N08  883   1.465  13.246   0.149
    1STR    C09  884   1.573  13.303   0.209
    1STR    O0A  885   1.566  13.373   0.309
    1STR    O0B  886   1.693  13.274   0.147
    1STR    C0C  887   1.817  13.322   0.204
    1STR    C0D  888   1.855  13.231   0.323
    1STR    C0E  889   1.935  13.330   0.102
    1STR    O0F  890   2.058  13.375   0.164
    1STR    C0G  891   2.173  13.390   0.079
    1STR    C0H  892   2.161  13.522   0.001
    1STR    C0I  893   2.304  13.389   0.164
    1STR    O0J  894   2.425  13.383   0.084
    1STR    C0K  895   2.551  13.382   0.156
    1STR    C0M  896   2.567  13.252   0.235
    1STR    C0N  897   2.673  13.398   0.061
    1STR    O0O  898   2.794  13.420   0.137
    1STR    C0P  899   2.911  13.355   0.111
    1STR    O0Q  900   2.928  13.268   0.026
    1STR    N0R  901   3.005  13.404   0.192
    1STR    C0S  902   3.142  13.379   0.213
    1STR    C0T  903   3.205  13.469   0.301
    1STR    C0U  904   3.342  13.457   0.331
    1STR    C0V  905   3.421  13.356   0.273
    1STR    C0W  906   3.569  13.362   0.303
    1STR    C0X  907   3.362  13.261   0.185
    1STR    N0Y  908   3.434  13.165   0.111
    1STR   BCK2  909   3.549  13.093   0.112
    1STR    O10  910   3.580  13.039   0.007
    1STR    C13  911   3.222  13.275   0.156
    1STR    C14  912   1.278  13.357   0.266
    1STR    C15  913   1.141  13.374   0.289
    1STR    C16  914   1.046  13.293   0.225
    1STR    C17  915   0.899  13.328   0.245
    1STR    H1B  916   1.000  13.097  17.416
    1STR    H1C  917   1.262  13.095   0.049
    1STR    H1D  918   1.492  13.186   0.073
    1STR    H1E  919   1.801  13.423   0.242
    1STR    H1F  920   1.873  13.129   0.291
    1STR    H1G  921   1.946  13.267   0.371
    1STR    H1H  922   1.777  13.230   0.399
    1STR    H1I  923   1.906  13.399   0.022
    1STR    H1J  924   1.950  13.233   0.056
    1STR    H1K  925   2.179  13.306   0.010
    1STR    H1M  926   2.149  13.607   0.069
    1STR    H1N  927   2.076  13.521  17.373
    1STR    H1O  928   2.250  13.540  17.382
    1STR    H1P  929   2.307  13.477   0.229
    1STR    H1Q  930   2.299  13.303   0.230
    1STR    H1R  931   2.551  13.467   0.225
    1STR    H1S  932   2.665  13.247   0.282
    1STR    H1T  933   2.558  13.165   0.170
    1STR    H1U  934   2.493  13.242   0.315
    1STR    H1V  935   2.659  13.484  17.436
    1STR    H1W  936   2.682  13.312  17.435
    1STR    H1X  937   2.964  13.477   0.247
    1STR    H1Y  938   3.151  13.550   0.347
    1STR    H1Z  939   3.387  13.529   0.397
    1STR    H20  940   3.593  13.291   0.382
    1STR    H21  941   3.628  13.341   0.214
    1STR    H22  942   3.599  13.461   0.339
    1STR    H23  943   3.388  13.142   0.024
    1STR    H27  944   3.173  13.207   0.088
    1STR    H28  945   1.343  13.426   0.317
    1STR    H29  946   1.108  13.453   0.355
    1STR    H2A  947   0.841  13.310   0.155
    1STR    H2B  948   0.887  13.433   0.271
    1STR    H2C  949   0.856  13.269   0.326
    1STR   BCK1  950   0.863  12.960   4.416
    1STR    O03  951   0.841  12.958   4.295
    1STR    N04  952   0.980  12.923   4.471
    1STR    C05  953   1.084  12.849   4.412
    1STR    C06  954   1.222  12.887   4.425
    1STR    C07  955   1.328  12.805   4.376
    1STR    N08  956   1.465  12.840   4.393
    1STR    C09  957   1.574  12.760   4.390
    1STR    O0A  958   1.569  12.638   4.379
    1STR    O0B  959   1.693  12.828   4.402
    1STR    C0C  960   1.819  12.758   4.385
    1STR    C0D  961   1.850  12.748   4.235
    1STR    C0E  962   1.937  12.823   4.462
    1STR    O0F  963   2.059  12.748   4.445
    1STR    C0G  964   2.175  12.793   4.519
    1STR    C0H  965   2.160  12.749   4.665
    1STR    C0I  966   2.306  12.736   4.457
    1STR    O0J  967   2.424  12.791   4.519
    1STR    C0K  968   2.551  12.742   4.474
    1STR    C0M  969   2.578  12.788   4.330
    1STR    C0N  970   2.666  12.791   4.567
    1STR    O0O  971   2.790  12.725   4.536
    1STR    C0P  972   2.909  12.791   4.536
    1STR    O0Q  973   2.925  12.911   4.557
    1STR    N0R  974   3.007  12.704   4.508
    1STR    C0S  975   3.145  12.718   4.482
    1STR    C0T  976   3.208  12.606   4.424
    1STR    C0U  977   3.341  12.613   4.381
    1STR    C0V  978   3.417  12.731   4.397
    1STR    C0W  979   3.551  12.736   4.325
    1STR    C0X  980   3.362  12.841   4.467
    1STR    N0Y  981   3.431  12.962   4.486
    1STR   BCK2  982   3.557  12.998   4.520
    1STR    O10  983   3.585  13.117   4.519
    1STR    C13  984   3.224  12.834   4.506
    1STR    C14  985   1.292  12.687   4.308
    1STR    C15  986   1.158  12.646   4.297
    1STR    C16  987   1.055  12.724   4.351
    1STR    C17  988   0.914  12.666   4.348
    1STR    H1B  989   0.986  12.940   4.570
    1STR    H1C  990   1.245  12.980   4.474
    1STR    H1D  991   1.487  12.937   4.410
    1STR    H1E  992   1.808  12.657   4.425
    1STR    H1F  993   1.862  12.846   4.190
    1STR    H1G  994   1.941  12.691   4.218
    1STR    H1H  995   1.770  12.697   4.181
    1STR    H1I  996   1.910  12.829   4.567
    1STR    H1J  997   1.952  12.926   4.428
    1STR    H1K  998   2.181  12.902   4.513
    1STR    H1M  999   2.147  12.641   4.673
    1STR    H1N 1000   2.076  12.797   4.715
    1STR    H1O 1001   2.250  12.775   4.722
    1STR    H1P 1002   2.306  12.627   4.467
    1STR    H1Q 1003   2.306  12.758   4.351
    1STR    H1R 1004   2.550  12.633   4.478
    1STR    H1S 1005   2.678  12.759   4.298
    1STR    H1T 1006   2.572  12.897   4.322
    1STR    H1U 1007   2.509  12.745   4.258
    1STR    H1V 1008   2.642  12.769   4.671
    1STR    H1W 1009   2.676  12.900   4.560
    1STR    H1X 1010   2.969  12.612   4.498
    1STR    H1Y 1011   3.153  12.515   4.406
    1STR    H1Z 1012   3.385  12.528   4.330
    1STR    H20 1013   3.579  12.839   4.301
    1STR    H21 1014   3.629  12.691   4.386
    1STR    H22 1015   3.547  12.682   4.231
    1STR    H23 1016   3.375  13.044   4.474
    1STR    H27 1017   3.178  12.920   4.553
    1STR    H28 1018   1.366  12.622   4.265
    1STR    H29 1019   1.136  12.553   4.249
    1STR    H2A 1020   0.860  12.689   4.440
    1STR    H2B 1021   0.915  12.558   4.336
    1STR    H2C 1022   0.858  12.708   4.264
    1STR   BCK1 1023   0.879  13.075   8.717
    1STR    O03 1024   0.831  13.179   8.759
    1STR    N04 1025   0.999  13.065   8.654
    1STR    C05 1026   1.089  13.165   8.608
    1STR    C06 1027   1.231  13.146   8.617
    1STR    C07 1028   1.326  13.239   8.562
    1STR    N08 1029   1.466  13.215   8.568
    1STR    C09 1030   1.570  13.281   8.512
    1STR    O0A 1031   1.557  13.381   8.441
    1STR    O0B 1032   1.693  13.227   8.540
    1STR    C0C 1033   1.815  13.293   8.496
    1STR    C0D 1034   1.848  13.407   8.594
    1STR    C0E 1035   1.937  13.197   8.481
    1STR    O0F 1036   2.059  13.265   8.443
    1STR    C0G 1037   2.176  13.184   8.419
    1STR    C0H 1038   2.164  13.120   8.280
    1STR    C0I 1039   2.308  13.267   8.430
    1STR    O0J 1040   2.427  13.184   8.431
    1STR    C0K 1041   2.556  13.250   8.438
    1STR    C0M 1042   2.571  13.324   8.572
    1STR    C0N 1043   2.674  13.149   8.422
    1STR    O0O 1044   2.802  13.214   8.415
    1STR    C0P 1045   2.913  13.168   8.479
    1STR    O0Q 1046   2.917  13.075   8.559
    1STR    N0R 1047   3.019  13.241   8.442
    1STR    C0S 1048   3.156  13.247   8.476
    1STR    C0T 1049   3.229  13.341   8.401
    1STR    C0U 1050   3.363  13.368   8.430
    1STR    C0V 1051   3.429  13.302   8.535
    1STR    C0W 1052   3.569  13.352   8.571
    1STR    C0X 1053   3.364  13.198   8.606
    1STR    N0Y 1054   3.433  13.129   8.709
    1STR   BCK2 1055   3.556  13.074   8.704
    1STR    O10 1056   3.622  13.064   8.601
    1STR    C13 1057   3.225  13.174   8.578
    1STR    C14 1058   1.272  13.354   8.500
    1STR    C15 1059   1.134  13.373   8.487
    1STR    C16 1060   1.042  13.279   8.536
    1STR    C17 1061   0.896  13.302   8.503
    1STR    H1B 1062   1.027  12.970   8.638
    1STR    H1C 1063   1.267  13.058   8.668
    1STR    H1D 1064   1.497  13.136   8.622
    1STR    H1E 1065   1.797  13.337   8.397
    1STR    H1F 1066   1.867  13.370   8.694
    1STR    H1G 1067   1.936  13.462   8.561
    1STR    H1H 1068   1.765  13.479   8.599
    1STR    H1I 1069   1.912  13.121   8.407
    1STR    H1J 1070   1.954  13.144   8.575
    1STR    H1K 1071   2.181  13.106   8.496
    1STR    H1M 1072   2.152  13.195   8.203
    1STR    H1N 1073   2.080  13.051   8.273
    1STR    H1O 1074   2.254  13.063   8.256
    1STR    H1P 1075   2.313  13.339   8.348
    1STR    H1Q 1076   2.303  13.325   8.522
    1STR    H1R 1077   2.562  13.322   8.356
    1STR    H1S 1078   2.671  13.367   8.581
    1STR    H1T 1079   2.558  13.255   8.655
    1STR    H1U 1080   2.500  13.406   8.583
    1STR    H1V 1081   2.661  13.092   8.330
    1STR    H1W 1082   2.672  13.075   8.503
    1STR    H1X 1083   2.989  13.307   8.373
    1STR    H1Y 1084   3.183  13.396   8.320
    1STR    H1Z 1085   3.415  13.444   8.373
    1STR    H20 1086   3.589  13.341   8.677
    1STR    H21 1087   3.644  13.297   8.515
    1STR    H22 1088   3.579  13.458   8.547
    1STR    H23 1089   3.386  13.121   8.798
    1STR    H27 1090   3.170  13.099   8.634
    1STR    H28 1091   1.335  13.431   8.459
    1STR    H29 1092   1.099  13.461   8.436
    1STR    H2A 1093   0.842  13.209   8.488
    1STR    H2B 1094   0.885  13.360   8.411
    1STR    H2C 1095   0.847  13.358   8.583
    1STR   BCK1 1096   0.861  12.954  13.192
    1STR    O03 1097   0.828  12.866  13.271
    1STR    N04 1098   0.976  13.025  13.198
    1STR    C05 1099   1.077  13.026  13.297
    1STR    C06 1100   1.216  13.035  13.261
    1STR    C07 1101   1.321  13.041  13.358
    1STR    N08 1102   1.458  13.057  13.321
    1STR    C09 1103   1.570  13.044  13.397
    1STR    O0A 1104   1.570  13.004  13.513
    1STR    O0B 1105   1.686  13.078  13.331
    1STR    C0C 1106   1.814  13.063  13.399
    1STR    C0D 1107   1.855  12.914  13.395
    1STR    C0E 1108   1.929  13.152  13.341
    1STR    O0F 1109   2.053  13.131  13.413
    1STR    C0G 1110   2.167  13.209  13.373
    1STR    C0H 1111   2.153  13.351  13.431
    1STR    C0I 1112   2.299  13.143  13.423
    1STR    O0J 1113   2.417  13.208  13.370
    1STR    C0K 1114   2.544  13.160  13.416
    1STR    C0M 1115   2.571  13.018  13.364
    1STR    C0N 1116   2.660  13.253  13.370
    1STR    O0O 1117   2.781  13.222  13.442
    1STR    C0P 1118   2.900  13.198  13.381
    1STR    O0Q 1119   2.922  13.201  13.260
    1STR    N0R 1120   2.989  13.169  13.475
    1STR    C0S 1121   3.122  13.125  13.477
    1STR    C0T 1122   3.164  13.075  13.601
    1STR    C0U 1123   3.294  13.026  13.618
    1STR    C0V 1124   3.388  13.028  13.513
    1STR    C0W 1125   3.523  12.972  13.549
    1STR    C0X 1126   3.352  13.083  13.386
    1STR    N0Y 1127   3.440  13.109  13.278
    1STR   BCK2 1128   3.563  13.082  13.230
    1STR    O10 1129   3.606  13.154  13.141
    1STR    C13 1130   3.217  13.129  13.371
    1STR    C14 1131   1.282  13.036  13.493
    1STR    C15 1132   1.147  13.031  13.531
    1STR    C16 1133   1.044  13.030  13.435
    1STR    C17 1134   0.902  13.043  13.487
    1STR    H1B 1135   0.988  13.088  13.120
    1STR    H1C 1136   1.241  13.037  13.156
    1STR    H1D 1137   1.479  13.082  13.226
    1STR    H1E 1138   1.801  13.092  13.503
    1STR    H1F 1139   1.870  12.879  13.293
    1STR    H1G 1140   1.948  12.898  13.450
    1STR    H1H 1141   1.779  12.851  13.442
    1STR    H1I 1142   1.899  13.256  13.348
    1STR    H1J 1143   1.944  13.130  13.236
    1STR    H1K 1144   2.172  13.214  13.264
    1STR    H1M 1145   2.142  13.348  13.540
    1STR    H1N 1146   2.067  13.404  13.390
    1STR    H1O 1147   2.242  13.411  13.409
    1STR    H1P 1148   2.302  13.144  13.532
    1STR    H1Q 1149   2.298  13.039  13.393
    1STR    H1R 1150   2.544  13.159  13.525
    1STR    H1S 1151   2.671  12.984  13.391
    1STR    H1T 1152   2.564  13.014  13.255
    1STR    H1U 1153   2.501  12.945  13.404
    1STR    H1V 1154   2.636  13.357  13.393
    1STR    H1W 1155   2.675  13.248  13.262
    1STR    H1X 1156   2.944  13.177  13.565
    1STR    H1Y 1157   3.098  13.072  13.686
    1STR    H1Z 1158   3.322  12.986  13.715
    1STR    H20 1159   3.539  12.880  13.493
    1STR    H21 1160   3.601  13.045  13.528
    1STR    H22 1161   3.532  12.946  13.654
    1STR    H23 1162   3.400  13.175  13.213
    1STR    H27 1163   3.184  13.170  13.276
    1STR    H28 1164   1.353  13.040  13.574
    1STR    H29 1165   1.122  13.030  13.636
    1STR    H2A 1166   0.839  13.099  13.418
    1STR    H2B 1167   0.900  13.095  13.582
    1STR    H2C 1168   0.859  12.944  13.503
    1STR   BCK1 1169   5.234  17.321   0.002
    1STR    O03 1170   5.190  17.406  17.365
    1STR    N04 1171   5.355  17.263  17.433
    1STR    C05 1172   5.450  17.267  17.329
    1STR    C06 1173   5.590  17.279  17.357
    1STR    C07 1174   5.690  17.268  17.255
    1STR    N08 1175   5.828  17.274  17.285
    1STR    C09 1176   5.934  17.228  17.213
    1STR    O0A 1177   5.923  17.167  17.107
    1STR    O0B 1178   6.055  17.256  17.271
    1STR    C0C 1179   6.178  17.225  17.202
    1STR    C0D 1180   6.209  17.337  17.101
    1STR    C0E 1181   6.298  17.204  17.299
    1STR    O0F 1182   6.420  17.172  17.229
    1STR    C0G 1183   6.535  17.141  17.310
    1STR    C0H 1184   6.522  16.997  17.363
    1STR    C0I 1185   6.667  17.156  17.229
    1STR    O0J 1186   6.784  17.145  17.313
    1STR    C0K 1187   6.913  17.153  17.249
    1STR    C0M 1188   6.936  17.294  17.193
    1STR    C0N 1189   7.028  17.117  17.349
    1STR    O0O 1190   7.154  17.112  17.281
    1STR    C0P 1191   7.271  17.150  17.341
    1STR    O0Q 1192   7.282  17.192   0.016
    1STR    N0R 1193   7.371  17.136  17.254
    1STR    C0S 1194   7.508  17.168  17.254
    1STR    C0T 1195   7.569  17.164  17.127
    1STR    C0U 1196   7.705  17.193  17.112
    1STR    C0V 1197   7.786  17.225  17.223
    1STR    C0W 1198   7.933  17.250  17.194
    1STR    C0X 1199   7.729  17.228  17.354
    1STR    N0Y 1200   7.811  17.238   0.028
    1STR   BCK2 1201   7.915  17.318   0.057
    1STR    O10 1202   7.947  17.418  17.434
    1STR    C13 1203   7.589  17.200  17.367
    1STR    C14 1204   5.645  17.250  17.122
    1STR    C15 1205   5.508  17.236  17.093
    1STR    C16 1206   5.411  17.241  17.195
    1STR    C17 1207   5.267  17.210  17.155
    1STR    H1B 1208   5.377  17.205   0.071
    1STR    H1C 1209   5.621  17.295   0.019
    1STR    H1D 1210   5.856  17.316  17.372
    1STR    H1E 1211   6.165  17.132  17.147
    1STR    H1F 1212   6.224  17.433  17.150
    1STR    H1G 1213   6.299  17.315  17.044
    1STR    H1H 1214   6.127  17.349  17.029
    1STR    H1I 1215   6.272  17.124  17.368
    1STR    H1J 1216   6.313  17.293  17.359
    1STR    H1K 1217   6.540  17.211  17.393
    1STR    H1M 1218   6.509  16.926  17.281
    1STR    H1N 1219   6.437  16.986  17.430
    1STR    H1O 1220   6.611  16.968  17.418
    1STR    H1P 1221   6.671  17.082  17.149
    1STR    H1Q 1222   6.666  17.254  17.180
    1STR    H1R 1223   6.916  17.080  17.167
    1STR    H1S 1224   7.037  17.304  17.152
    1STR    H1T 1225   6.926  17.369  17.271
    1STR    H1U 1226   6.867  17.319  17.113
    1STR    H1V 1227   7.010  17.020  17.394
    1STR    H1W 1228   7.030  17.189  17.431
    1STR    H1X 1229   7.334  17.098  17.169
    1STR    H1Y 1230   7.512  17.138  17.039
    1STR    H1Z 1231   7.748  17.189  17.013
    1STR    H20 1232   7.953  17.357  17.192
    1STR    H21 1233   7.997  17.203  17.270
    1STR    H22 1234   7.964  17.209  17.098
    1STR    H23 1235   7.792  17.170   0.100
    1STR    H27 1236   7.543  17.201   0.025
    1STR    H28 1237   5.713  17.245  17.039
    1STR    H29 1238   5.478  17.219  16.991
    1STR    H2A 1239   5.216  17.155  17.234
    1STR    H2B 1240   5.264  17.148  17.065
    1STR    H2C 1241   5.213  17.302  17.135
    1STR   BCK1 1242   5.234   0.008   4.454
    1STR    O03 1243   5.192   0.068   4.552
    1STR    N04 1244   5.351   0.035   4.391
    1STR    C05 1245   5.443   0.142   4.410
    1STR    C06 1246   5.585   0.120   4.400
    1STR    C07 1247   5.681   0.226   4.412
    1STR    N08 1248   5.821   0.203   4.395
    1STR    C09 1249   5.927   0.287   4.414
    1STR    O0A 1250   5.918   0.401   4.459
    1STR    O0B 1251   6.049   0.232   4.379
    1STR    C0C 1252   6.173   0.307   4.401
    1STR    C0D 1253   6.210   0.299   4.550
    1STR    C0E 1254   6.293   0.261   4.311
    1STR    O0F 1255   6.415   0.333   4.341
    1STR    C0G 1256   6.532   0.302   4.262
    1STR    C0H 1257   6.520   0.372   4.126
    1STR    C0I 1258   6.664   0.347   4.335
    1STR    O0J 1259   6.785   0.299   4.271
    1STR    C0K 1260   6.911   0.336   4.331
    1STR    C0M 1261   6.926   0.270   4.468
    1STR    C0N 1262   7.033   0.296   4.242
    1STR    O0O 1263   7.156   0.351   4.294
    1STR    C0P 1264   7.271   0.277   4.307
    1STR    O0Q 1265   7.282   0.157   4.286
    1STR    N0R 1266   7.371   0.358   4.345
    1STR    C0S 1267   7.508   0.341   4.376
    1STR    C0T 1268   7.581   0.459   4.393
    1STR    C0U 1269   7.717   0.456   4.427
    1STR    C0V 1270   7.786   0.334   4.444
    1STR    C0W 1271   7.933   0.344   4.476
    1STR    C0X 1272   7.717   0.210   4.427
    1STR    N0Y 1273   7.776   0.082   4.428
    1STR   BCK2 1274   7.885   0.010   4.463
    1STR    O10 1275   7.889  17.335   4.421
    1STR    C13 1276   7.577   0.217   4.393
    1STR    C14 1277   5.630   0.355   4.435
    1STR    C15 1278   5.492   0.379   4.442
    1STR    C16 1279   5.399   0.276   4.426
    1STR    C17 1280   5.253   0.317   4.418
    1STR    H1B 1281   5.374  17.408   4.320
    1STR    H1C 1282   5.620   0.019   4.384
    1STR    H1D 1283   5.851   0.112   4.364
    1STR    H1E 1284   6.153   0.412   4.376
    1STR    H1F 1285   6.231   0.196   4.580
    1STR    H1G 1286   6.299   0.358   4.571
    1STR    H1H 1287   6.130   0.338   4.613
    1STR    H1I 1288   6.265   0.276   4.207
    1STR    H1J 1289   6.310   0.155   4.325
    1STR    H1K 1290   6.538   0.194   4.248
    1STR    H1M 1291   6.507   0.480   4.138
    1STR    H1N 1292   6.436   0.335   4.068
    1STR    H1O 1293   6.610   0.356   4.066
    1STR    H1P 1294   6.666   0.456   4.342
    1STR    H1Q 1295   6.659   0.309   4.437
    1STR    H1R 1296   6.913   0.445   4.342
    1STR    H1S 1297   7.025   0.290   4.510
    1STR    H1T 1298   6.916   0.162   4.460
    1STR    H1U 1299   6.854   0.306   4.541
    1STR    H1V 1300   7.020   0.335   4.141
    1STR    H1W 1301   7.040   0.188   4.232
    1STR    H1X 1302   7.336   0.452   4.350
    1STR    H1Y 1303   7.535   0.556   4.380
    1STR    H1Z 1304   7.770   0.549   4.439
    1STR    H20 1305   7.949   0.314   4.580
    1STR    H21 1306   7.991   0.282   4.408
    1STR    H22 1307   7.970   0.446   4.467
    1STR    H23 1308   7.715   0.014   4.385
    1STR    H27 1309   7.521   0.126   4.378
    1STR    H28 1310   5.694   0.442   4.445
    1STR    H29 1311   5.458   0.481   4.457
    1STR    H2A 1312   5.196   0.253   4.352
    1STR    H2B 1313   5.243   0.419   4.380
    1STR    H2C 1314   5.208   0.315   4.518
    1STR   BCK1 1315   5.226  17.363   8.787
    1STR    O03 1316   5.187  17.439   8.699
    1STR    N04 1317   5.357  17.332   8.787
    1STR    C05 1318   5.449  17.245   8.851
    1STR    C06 1319   5.587  17.284   8.850
    1STR    C07 1320   5.692  17.201   8.900
    1STR    N08 1321   5.828  17.241   8.891
    1STR    C09 1322   5.941  17.170   8.913
    1STR    O0A 1323   5.942  17.051   8.943
    1STR    O0B 1324   6.056  17.243   8.896
    1STR    C0C 1325   6.184  17.178   8.913
    1STR    C0D 1326   6.217  17.096   8.787
    1STR    C0E 1327   6.299  17.277   8.945
    1STR    O0F 1328   6.422  17.207   8.970
    1STR    C0G 1329   6.536  17.285   9.008
    1STR    C0H 1330   6.521  17.326   9.156
    1STR    C0I 1331   6.667  17.204   8.987
    1STR    O0J 1332   6.785  17.284   9.010
    1STR    C0K 1333   6.912  17.217   9.000
    1STR    C0M 1334   6.940  17.178   8.854
    1STR    C0N 1335   7.026  17.307   9.053
    1STR    O0O 1336   7.147  17.232   9.069
    1STR    C0P 1337   7.268  17.279   9.028
    1STR    O0Q 1338   7.287  17.386   8.971
    1STR    N0R 1339   7.361  17.188   9.055
    1STR    C0S 1340   7.497  17.176   9.021
    1STR    C0T 1341   7.550  17.045   9.026
    1STR    C0U 1342   7.680  17.019   8.980
    1STR    C0V 1343   7.762  17.122   8.931
    1STR    C0W 1344   7.890  17.080   8.861
    1STR    C0X 1345   7.718  17.257   8.939
    1STR    N0Y 1346   7.796  17.365   8.895
    1STR   BCK2 1347   7.924  17.402   8.908
    1STR    O10 1348   7.963   0.062   8.848
    1STR    C13 1349   7.583  17.281   8.979
    1STR    C14 1350   5.654  17.078   8.956
    1STR    C15 1351   5.520  17.036   8.957
    1STR    C16 1352   5.418  17.116   8.902
    1STR    C17 1353   5.281  17.051   8.896
    1STR    H1B 1354   5.400  17.392   8.719
    1STR    H1C 1355   5.613  17.380   8.808
    1STR    H1D 1356   5.848  17.335   8.863
    1STR    H1E 1357   6.177  17.110   8.998
    1STR    H1F 1358   6.227  17.158   8.698
    1STR    H1G 1359   6.311  17.042   8.800
    1STR    H1H 1360   6.141  17.021   8.767
    1STR    H1I 1361   6.271  17.336   9.032
    1STR    H1J 1362   6.312  17.348   8.862
    1STR    H1K 1363   6.542  17.374   8.945
    1STR    H1M 1364   6.508  17.238   9.219
    1STR    H1N 1365   6.437  17.393   9.172
    1STR    H1O 1366   6.611  17.378   9.190
    1STR    H1P 1367   6.667  17.117   9.053
    1STR    H1Q 1368   6.667  17.166   8.885
    1STR    H1R 1369   6.909  17.127   9.062
    1STR    H1S 1370   7.040  17.136   8.843
    1STR    H1T 1371   6.935  17.266   8.789
    1STR    H1U 1372   6.870  17.104   8.816
    1STR    H1V 1373   6.999  17.348   9.151
    1STR    H1W 1374   7.040  17.394   8.988
    1STR    H1X 1375   7.320  17.110   9.104
    1STR    H1Y 1376   7.490  16.962   9.060
    1STR    H1Z 1377   7.715  16.917   8.978
    1STR    H20 1378   7.924  17.156   8.791
    1STR    H21 1379   7.969  17.060   8.933
    1STR    H22 1380   7.874  16.990   8.803
    1STR    H23 1381   7.745  17.435   8.843
    1STR    H27 1382   7.544  17.382   8.978
    1STR    H28 1383   5.725  17.009   8.999
    1STR    H29 1384   5.497  16.939   8.998
    1STR    H2A 1385   5.223  17.081   8.984
    1STR    H2B 1386   5.289  16.943   8.898
    1STR    H2C 1387   5.230  17.078   8.804
    1STR   BCK1 1388   5.235  17.387  13.049
    1STR    O03 1389   5.187   0.060  13.048
    1STR    N04 1390   5.356  17.354  12.998
    1STR    C05 1391   5.447  17.428  12.919
    1STR    C06 1392   5.589  17.417  12.940
    1STR    C07 1393   5.685   0.039  12.854
    1STR    N08 1394   5.825   0.022  12.873
    1STR    C09 1395   5.929   0.050  12.790
    1STR    O0A 1396   5.916   0.095  12.677
    1STR    O0B 1397   6.053   0.021  12.844
    1STR    C0C 1398   6.175   0.056  12.773
    1STR    C0D 1399   6.205   0.205  12.796
    1STR    C0E 1400   6.297  17.408  12.813
    1STR    O0F 1401   6.419   0.006  12.745
    1STR    C0G 1402   6.536  17.364  12.769
    1STR    C0H 1403   6.524  17.235  12.686
    1STR    C0I 1404   6.668  17.439  12.733
    1STR    O0J 1405   6.786  17.367  12.778
    1STR    C0K 1406   6.916  17.424  12.748
    1STR    C0M 1407   6.934   0.118  12.821
    1STR    C0N 1408   7.032  17.327  12.788
    1STR    O0O 1409   7.161  17.376  12.747
    1STR    C0P 1410   7.273  17.362  12.824
    1STR    O0Q 1411   7.277  17.316  12.937
    1STR    N0R 1412   7.379  17.408  12.756
    1STR    C0S 1413   7.515  17.428  12.783
    1STR    C0T 1414   7.586   0.050  12.678
    1STR    C0U 1415   7.720   0.088  12.694
    1STR    C0V 1416   7.788   0.065  12.814
    1STR    C0W 1417   7.926   0.128  12.827
    1STR    C0X 1418   7.726  17.432  12.919
    1STR    N0Y 1419   7.797  17.403  13.038
    1STR   BCK2 1420   7.921  17.351  13.048
    1STR    O10 1421   7.987  17.312  12.952
    1STR    C13 1422   7.587  17.398  12.903
    1STR    C14 1423   5.635   0.119  12.749
    1STR    C15 1424   5.497   0.130  12.726
    1STR    C16 1425   5.403   0.063  12.806
    1STR    C17 1426   5.258   0.069  12.763
    1STR    H1B 1427   5.383  17.260  13.019
    1STR    H1C 1428   5.624  17.357  13.022
    1STR    H1D 1429   5.856  17.423  12.960
    1STR    H1E 1430   6.158   0.041  12.666
    1STR    H1F 1431   6.223   0.227  12.901
    1STR    H1G 1432   6.294   0.236  12.740
    1STR    H1H 1433   6.123   0.268  12.762
    1STR    H1I 1434   6.273  17.304  12.791
    1STR    H1J 1435   6.313  17.415  12.921
    1STR    H1K 1436   6.541  17.339  12.875
    1STR    H1M 1437   6.511  17.258  12.580
    1STR    H1N 1438   6.440  17.174  12.717
    1STR    H1O 1439   6.614  17.174  12.696
    1STR    H1P 1440   6.673   0.016  12.625
    1STR    H1Q 1441   6.665   0.097  12.780
    1STR    H1R 1442   6.922   0.001  12.640
    1STR    H1S 1443   7.034   0.157  12.806
    1STR    H1T 1444   6.921   0.105  12.929
    1STR    H1U 1445   6.865   0.194  12.788
    1STR    H1V 1446   7.017  17.230  12.740
    1STR    H1W 1447   7.029  17.308  12.895
    1STR    H1X 1448   7.348  17.436  12.664
    1STR    H1Y 1449   7.539   0.072  12.584
    1STR    H1Z 1450   7.770   0.139  12.613
    1STR    H20 1451   7.949   0.153  12.931
    1STR    H21 1452   8.003   0.060  12.790
    1STR    H22 1453   7.933   0.221  12.771
    1STR    H23 1454   7.750  17.420  13.125
    1STR    H27 1455   7.534  17.348  12.983
    1STR    H28 1456   5.699   0.173  12.682
    1STR    H29 1457   5.463   0.189  12.642
    1STR    H2A 1458   5.205  17.416  12.785
    1STR    H2B 1459   5.249   0.086  12.655
    1STR    H2C 1460   5.207   0.151  12.813
    1STR   BCK1 1461   5.244   4.280   0.137
    1STR    O03 1462   5.234   4.231   0.249
    1STR    N04 1463   5.345   4.363   0.100
    1STR    C05 1464   5.444   4.419   0.184
    1STR    C06 1465   5.583   4.412   0.152
    1STR    C07 1466   5.684   4.471   0.236
    1STR    N08 1467   5.822   4.468   0.202
    1STR    C09 1468   5.931   4.498   0.277
    1STR    O0A 1469   5.927   4.528   0.396
    1STR    O0B 1470   6.050   4.493   0.207
    1STR    C0C 1471   6.176   4.517   0.276
    1STR    C0D 1472   6.215   4.391   0.355
    1STR    C0E 1473   6.292   4.561   0.182
    1STR    O0F 1474   6.416   4.581   0.255
    1STR    C0G 1475   6.531   4.625   0.180
    1STR    C0H 1476   6.518   4.776   0.152
    1STR    C0I 1477   6.662   4.595   0.258
    1STR    O0J 1478   6.782   4.618   0.180
    1STR    C0K 1479   6.908   4.596   0.247
    1STR    C0M 1480   6.927   4.446   0.278
    1STR    C0N 1481   7.029   4.644   0.162
    1STR    O0O 1482   7.149   4.644   0.241
    1STR    C0P 1483   7.268   4.593   0.198
    1STR    O0Q 1484   7.288   4.538   0.091
    1STR    N0R 1485   7.359   4.614   0.293
    1STR    C0S 1486   7.496   4.585   0.311
    1STR    C0T 1487   7.551   4.635   0.430
    1STR    C0U 1488   7.687   4.615   0.460
    1STR    C0V 1489   7.772   4.547   0.372
    1STR    C0W 1490   7.918   4.545   0.411
    1STR    C0X 1491   7.721   4.492   0.251
    1STR    N0Y 1492   7.800   4.433   0.149
    1STR   BCK2 1493   7.917   4.368   0.130
    1STR    O10 1494   7.956   4.357   0.014
    1STR    C13 1495   7.582   4.513   0.222
    1STR    C14 1496   5.639   4.537   0.353
    1STR    C15 1497   5.503   4.547   0.383
    1STR    C16 1498   5.405   4.492   0.299
    1STR    C17 1499   5.259   4.520   0.333
    1STR    H1B 1500   5.344   4.391   0.003
    1STR    H1C 1501   5.613   4.360   0.063
    1STR    H1D 1502   5.847   4.438   0.110
    1STR    H1E 1503   6.161   4.598   0.347
    1STR    H1F 1504   6.232   4.306   0.289
    1STR    H1G 1505   6.307   4.407   0.412
    1STR    H1H 1506   6.138   4.363   0.427
    1STR    H1I 1507   6.263   4.652   0.131
    1STR    H1J 1508   6.308   4.485   0.105
    1STR    H1K 1509   6.536   4.570   0.086
    1STR    H1M 1510   6.506   4.832   0.245
    1STR    H1N 1511   6.433   4.799   0.088
    1STR    H1O 1512   6.607   4.814   0.102
    1STR    H1P 1513   6.665   4.656   0.349
    1STR    H1Q 1514   6.659   4.491   0.290
    1STR    H1R 1515   6.909   4.653   0.340
    1STR    H1S 1516   7.026   4.428   0.320
    1STR    H1T 1517   6.919   4.386   0.187
    1STR    H1U 1518   6.855   4.409   0.350
    1STR    H1V 1519   7.012   4.747   0.128
    1STR    H1W 1520   7.041   4.584   0.072
    1STR    H1X 1521   7.315   4.664   0.368
    1STR    H1Y 1522   7.492   4.690   0.500
    1STR    H1Z 1523   7.726   4.657   0.551
    1STR    H20 1524   7.942   4.449   0.458
    1STR    H21 1525   7.982   4.562   0.324
    1STR    H22 1526   7.942   4.623   0.483
    1STR    H23 1527   7.759   4.443   0.058
    1STR    H27 1528   7.539   4.475   0.130
    1STR    H28 1529   5.707   4.584   0.422
    1STR    H29 1530   5.473   4.600   0.473
    1STR    H2A 1531   5.200   4.536   0.243
    1STR    H2B 1532   5.249   4.609   0.394
    1STR    H2C 1533   5.216   4.437   0.388
    1STR   BCK1 1534   5.234   4.240   4.398
    1STR    O03 1535   5.203   4.276   4.285
    1STR    N04 1536   5.352   4.184   4.429
    1STR    C05 1537   5.452   4.134   4.343
    1STR    C06 1538   5.590   4.163   4.365
    1STR    C07 1539   5.693   4.102   4.287
    1STR    N08 1540   5.830   4.127   4.312
    1STR    C09 1541   5.938   4.052   4.279
    1STR    O0A 1542   5.930   3.942   4.224
    1STR    O0B 1543   6.057   4.109   4.314
    1STR    C0C 1544   6.182   4.048   4.272
    1STR    C0D 1545   6.212   4.090   4.128
    1STR    C0E 1546   6.300   4.083   4.367
    1STR    O0F 1547   6.422   4.019   4.325
    1STR    C0G 1548   6.537   4.036   4.410
    1STR    C0H 1549   6.523   3.944   4.533
    1STR    C0I 1550   6.668   4.003   4.333
    1STR    O0J 1551   6.786   4.035   4.410
    1STR    C0K 1552   6.914   4.005   4.351
    1STR    C0M 1553   6.940   4.098   4.231
    1STR    C0N 1554   7.029   4.022   4.455
    1STR    O0O 1555   7.154   3.975   4.403
    1STR    C0P 1556   7.272   4.038   4.429
    1STR    O0Q 1557   7.284   4.142   4.492
    1STR    N0R 1558   7.373   3.969   4.374
    1STR    C0S 1559   7.511   3.993   4.359
    1STR    C0T 1560   7.579   3.906   4.272
    1STR    C0U 1561   7.714   3.928   4.239
    1STR    C0V 1562   7.785   4.036   4.293
    1STR    C0W 1563   7.922   4.065   4.233
    1STR    C0X 1564   7.724   4.119   4.391
    1STR    N0Y 1565   7.788   4.231   4.447
    1STR   BCK2 1566   7.911   4.262   4.493
    1STR    O10 1567   7.932   4.379   4.526
    1STR    C13 1568   7.586   4.098   4.420
    1STR    C14 1569   5.652   4.016   4.182
    1STR    C15 1570   5.517   3.985   4.162
    1STR    C16 1571   5.417   4.040   4.243
    1STR    C17 1572   5.275   3.990   4.224
    1STR    H1B 1573   5.365   4.169   4.528
    1STR    H1C 1574   5.617   4.232   4.443
    1STR    H1D 1575   5.855   4.211   4.362
    1STR    H1E 1576   6.170   3.940   4.275
    1STR    H1F 1577   6.225   4.198   4.119
    1STR    H1G 1578   6.304   4.043   4.092
    1STR    H1H 1579   6.132   4.061   4.060
    1STR    H1I 1580   6.273   4.052   4.468
    1STR    H1J 1581   6.315   4.191   4.370
    1STR    H1K 1582   6.543   4.140   4.442
    1STR    H1M 1583   6.509   3.840   4.503
    1STR    H1N 1584   6.439   3.971   4.596
    1STR    H1O 1585   6.612   3.949   4.595
    1STR    H1P 1586   6.669   3.898   4.305
    1STR    H1Q 1587   6.668   4.060   4.240
    1STR    H1R 1588   6.914   3.901   4.317
    1STR    H1S 1589   7.040   4.083   4.190
    1STR    H1T 1590   6.932   4.203   4.260
    1STR    H1U 1591   6.870   4.081   4.149
    1STR    H1V 1592   7.007   3.965   4.545
    1STR    H1W 1593   7.036   4.126   4.486
    1STR    H1X 1594   7.337   3.886   4.331
    1STR    H1Y 1595   7.528   3.824   4.224
    1STR    H1Z 1596   7.761   3.864   4.166
    1STR    H20 1597   7.947   4.171   4.239
    1STR    H21 1598   7.999   4.008   4.284
    1STR    H22 1599   7.925   4.038   4.128
    1STR    H23 1600   7.728   4.311   4.459
    1STR    H27 1601   7.535   4.164   4.489
    1STR    H28 1602   5.724   3.970   4.116
    1STR    H29 1603   5.491   3.915   4.084
    1STR    H2A 1604   5.222   3.982   4.319
    1STR    H2B 1605   5.274   3.891   4.178
    1STR    H2C 1606   5.219   4.057   4.158
    1STR   BCK1 1607   5.234   4.373   8.751
    1STR    O03 1608   5.188   4.465   8.817
    1STR    N04 1609   5.353   4.376   8.686
    1STR    C05 1610   5.444   4.483   8.663
    1STR    C06 1611   5.586   4.462   8.666
    1STR    C07 1612   5.682   4.565   8.635
    1STR    N08 1613   5.822   4.540   8.632
    1STR    C09 1614   5.927   4.621   8.602
    1STR    O0A 1615   5.915   4.740   8.573
    1STR    O0B 1616   6.050   4.559   8.606
    1STR    C0C 1617   6.172   4.636   8.586
    1STR    C0D 1618   6.207   4.710   8.716
    1STR    C0E 1619   6.294   4.551   8.538
    1STR    O0F 1620   6.416   4.629   8.525
    1STR    C0G 1621   6.534   4.561   8.475
    1STR    C0H 1622   6.522   4.548   8.322
    1STR    C0I 1623   6.665   4.636   8.514
    1STR    O0J 1624   6.785   4.559   8.487
    1STR    C0K 1625   6.913   4.620   8.517
    1STR    C0M 1626   6.928   4.642   8.668
    1STR    C0N 1627   7.033   4.532   8.467
    1STR    O0O 1628   7.160   4.599   8.483
    1STR    C0P 1629   7.272   4.536   8.532
    1STR    O0Q 1630   7.276   4.424   8.581
    1STR    N0R 1631   7.377   4.618   8.518
    1STR    C0S 1632   7.514   4.614   8.551
    1STR    C0T 1633   7.588   4.722   8.500
    1STR    C0U 1634   7.723   4.741   8.534
    1STR    C0V 1635   7.788   4.651   8.620
    1STR    C0W 1636   7.928   4.689   8.666
    1STR    C0X 1637   7.721   4.535   8.667
    1STR    N0Y 1638   7.789   4.445   8.753
    1STR   BCK2 1639   7.912   4.390   8.736
    1STR    O10 1640   7.976   4.398   8.632
    1STR    C13 1641   7.582   4.519   8.634
    1STR    C14 1642   5.629   4.692   8.604
    1STR    C15 1643   5.490   4.715   8.598
    1STR    C16 1644   5.398   4.612   8.623
    1STR    C17 1645   5.252   4.645   8.598
    1STR    H1B 1646   5.379   4.287   8.648
    1STR    H1C 1647   5.622   4.364   8.693
    1STR    H1D 1648   5.853   4.447   8.655
    1STR    H1E 1649   6.153   4.711   8.508
    1STR    H1F 1650   6.227   4.641   8.798
    1STR    H1G 1651   6.295   4.773   8.703
    1STR    H1H 1652   6.125   4.776   8.747
    1STR    H1I 1653   6.269   4.506   8.442
    1STR    H1J 1654   6.311   4.469   8.607
    1STR    H1K 1655   6.539   4.462   8.520
    1STR    H1M 1656   6.510   4.646   8.276
    1STR    H1N 1657   6.438   4.486   8.292
    1STR    H1O 1658   6.612   4.503   8.280
    1STR    H1P 1659   6.670   4.732   8.461
    1STR    H1Q 1660   6.660   4.660   8.620
    1STR    H1R 1661   6.919   4.716   8.465
    1STR    H1S 1662   7.027   4.681   8.692
    1STR    H1T 1663   6.915   4.548   8.722
    1STR    H1U 1664   6.856   4.714   8.707
    1STR    H1V 1665   7.021   4.510   8.361
    1STR    H1W 1666   7.033   4.435   8.518
    1STR    H1X 1667   7.346   4.701   8.471
    1STR    H1Y 1668   7.543   4.795   8.435
    1STR    H1Z 1669   7.775   4.827   8.496
    1STR    H20 1670   7.947   4.657   8.768
    1STR    H21 1671   8.003   4.645   8.600
    1STR    H22 1672   7.943   4.797   8.664
    1STR    H23 1673   7.743   4.421   8.839
    1STR    H27 1674   7.527   4.434   8.671
    1STR    H28 1675   5.691   4.777   8.581
    1STR    H29 1676   5.455   4.813   8.570
    1STR    H2A 1677   5.197   4.558   8.561
    1STR    H2B 1678   5.241   4.723   8.523
    1STR    H2C 1679   5.204   4.680   8.689
    1STR   BCK1 1680   5.224   4.284  13.154
    1STR    O03 1681   5.181   4.363  13.071
    1STR    N04 1682   5.352   4.299  13.193
    1STR    C05 1683   5.447   4.248  13.285
    1STR    C06 1684   5.586   4.269  13.255
    1STR    C07 1685   5.692   4.232  13.344
    1STR    N08 1686   5.827   4.261  13.315
    1STR    C09 1687   5.940   4.219  13.376
    1STR    O0A 1688   5.942   4.137  13.467
    1STR    O0B 1689   6.055   4.276  13.326
    1STR    C0C 1690   6.184   4.235  13.379
    1STR    C0D 1691   6.223   4.099  13.319
    1STR    C0E 1692   6.297   4.340  13.355
    1STR    O0F 1693   6.421   4.295  13.414
    1STR    C0G 1694   6.535   4.383  13.404
    1STR    C0H 1695   6.520   4.496  13.506
    1STR    C0I 1696   6.666   4.303  13.430
    1STR    O0J 1697   6.784   4.383  13.405
    1STR    C0K 1698   6.911   4.321  13.433
    1STR    C0M 1699   6.940   4.209  13.332
    1STR    C0N 1700   7.026   4.426  13.428
    1STR    O0O 1701   7.147   4.374  13.487
    1STR    C0P 1702   7.267   4.380  13.424
    1STR    O0Q 1703   7.288   4.426  13.313
    1STR    N0R 1704   7.359   4.323  13.502
    1STR    C0S 1705   7.493   4.286  13.483
    1STR    C0T 1706   7.541   4.186  13.569
    1STR    C0U 1707   7.668   4.129  13.549
    1STR    C0V 1708   7.751   4.173  13.445
    1STR    C0W 1709   7.873   4.087  13.414
    1STR    C0X 1710   7.713   4.285  13.366
    1STR    N0Y 1711   7.793   4.337  13.263
    1STR   BCK2 1712   7.924   4.363  13.247
    1STR    O10 1713   7.964   4.397  13.135
    1STR    C13 1714   7.581   4.337  13.384
    1STR    C14 1715   5.653   4.171  13.465
    1STR    C15 1716   5.519   4.150  13.497
    1STR    C16 1717   5.415   4.191  13.411
    1STR    C17 1718   5.275   4.177  13.466
    1STR    H1B 1719   5.389   4.373  13.135
    1STR    H1C 1720   5.612   4.316  13.162
    1STR    H1D 1721   5.847   4.323  13.238
    1STR    H1E 1722   6.174   4.224  13.487
    1STR    H1F 1723   6.235   4.104  13.211
    1STR    H1G 1724   6.317   4.064  13.361
    1STR    H1H 1725   6.148   4.023  13.341
    1STR    H1I 1726   6.267   4.435  13.398
    1STR    H1J 1727   6.311   4.356  13.248
    1STR    H1K 1728   6.541   4.424  13.303
    1STR    H1M 1729   6.507   4.457  13.607
    1STR    H1N 1730   6.435   4.561  13.485
    1STR    H1O 1731   6.609   4.560  13.507
    1STR    H1P 1732   6.667   4.266  13.533
    1STR    H1Q 1733   6.667   4.216  13.365
    1STR    H1R 1734   6.909   4.280  13.534
    1STR    H1S 1735   7.040   4.168  13.346
    1STR    H1T 1736   6.934   4.247  13.230
    1STR    H1U 1737   6.870   4.126  13.341
    1STR    H1V 1738   6.998   4.514  13.486
    1STR    H1W 1739   7.042   4.461  13.326
    1STR    H1X 1740   7.317   4.295  13.589
    1STR    H1Y 1741   7.480   4.146  13.648
    1STR    H1Z 1742   7.699   4.047  13.611
    1STR    H20 1743   7.907   4.099  13.312
    1STR    H21 1744   7.954   4.109  13.483
    1STR    H22 1745   7.848   3.981  13.426
    1STR    H23 1746   7.743   4.366  13.181
    1STR    H27 1747   7.546   4.417  13.320
    1STR    H28 1748   5.725   4.141  13.540
    1STR    H29 1749   5.495   4.105  13.593
    1STR    H2A 1750   5.214   4.263  13.438
    1STR    H2B 1751   5.275   4.173  13.575
    1STR    H2C 1752   5.230   4.085  13.431
    1STR   BCK1 1753   5.237   8.619  17.420
    1STR    O03 1754   5.190   8.721  17.371
    1STR    N04 1755   5.359   8.569  17.392
    1STR    C05 1756   5.451   8.603  17.291
    1STR    C06 1757   5.592   8.605  17.318
    1STR    C07 1758   5.690   8.624  17.216
    1STR    N08 1759   5.829   8.620  17.244
    1STR    C09 1760   5.934   8.601  17.160
    1STR    O0A 1761   5.922   8.579  17.040
    1STR    O0B 1762   6.056   8.607  17.223
    1STR    C0C 1763   6.179   8.600  17.145
    1STR    C0D 1764   6.209   8.740  17.087
    1STR    C0E 1765   6.300   8.548  17.228
    1STR    O0F 1766   6.422   8.542  17.151
    1STR    C0G 1767   6.538   8.485  17.217
    1STR    C0H 1768   6.525   8.332  17.216
    1STR    C0I 1769   6.671   8.528  17.147
    1STR    O0J 1770   6.788   8.489  17.223
    1STR    C0K 1771   6.918   8.518  17.167
    1STR    C0M 1772   6.940   8.670  17.159
    1STR    C0N 1773   7.032   8.454  17.252
    1STR    O0O 1774   7.161   8.468  17.189
    1STR    C0P 1775   7.275   8.490  17.260
    1STR    O0Q 1776   7.283   8.506  17.382
    1STR    N0R 1777   7.379   8.493  17.176
    1STR    C0S 1778   7.516   8.525  17.186
    1STR    C0T 1779   7.580   8.546  17.063
    1STR    C0U 1780   7.713   8.590  17.057
    1STR    C0V 1781   7.787   8.613  17.174
    1STR    C0W 1782   7.921   8.682  17.156
    1STR    C0X 1783   7.732   8.578  17.301
    1STR    N0Y 1784   7.807   8.590  17.421
    1STR   BCK2 1785   7.937   8.558   0.005
    1STR    O10 1786   8.013   8.508  17.363
    1STR    C13 1787   7.594   8.539  17.305
    1STR    C14 1788   5.642   8.647  17.085
    1STR    C15 1789   5.505   8.644  17.056
    1STR    C16 1790   5.410   8.619  17.156
    1STR    C17 1791   5.265   8.602  17.111
    1STR    H1B 1792   5.384   8.492   0.011
    1STR    H1C 1793   5.625   8.589  17.420
    1STR    H1D 1794   5.858   8.631  17.339
    1STR    H1E 1795   6.164   8.531  17.062
    1STR    H1F 1796   6.224   8.813  17.166
    1STR    H1G 1797   6.298   8.737  17.025
    1STR    H1H 1798   6.127   8.774  17.024
    1STR    H1I 1799   6.275   8.448  17.266
    1STR    H1J 1800   6.315   8.611  17.316
    1STR    H1K 1801   6.542   8.522  17.319
    1STR    H1M 1802   6.512   8.294  17.115
    1STR    H1N 1803   6.440   8.298  17.275
    1STR    H1O 1804   6.614   8.286  17.258
    1STR    H1P 1805   6.676   8.485  17.046
    1STR    H1Q 1806   6.669   8.636  17.134
    1STR    H1R 1807   6.923   8.475  17.066
    1STR    H1S 1808   7.041   8.693  17.124
    1STR    H1T 1809   6.927   8.717  17.257
    1STR    H1U 1810   6.871   8.719  17.089
    1STR    H1V 1811   7.013   8.348  17.265
    1STR    H1W 1812   7.033   8.497  17.353
    1STR    H1X 1813   7.346   8.473  17.083
    1STR    H1Y 1814   7.527   8.532  16.970
    1STR    H1Z 1815   7.757   8.611  16.961
    1STR    H20 1816   7.949   8.739  17.244
    1STR    H21 1817   7.999   8.608  17.135
    1STR    H22 1818   7.918   8.751  17.072
    1STR    H23 1819   7.757   8.622   0.062
    1STR    H27 1820   7.546   8.519  17.400
    1STR    H28 1821   5.709   8.666  17.003
    1STR    H29 1822   5.473   8.658  16.953
    1STR    H2A 1823   5.214   8.527  17.171
    1STR    H2B 1824   5.259   8.569  17.008
    1STR    H2C 1825   5.212   8.696  17.120
    1STR   BCK1 1826   5.241   8.700   4.478
    1STR    O03 1827   5.217   8.713   4.598
    1STR    N04 1828   5.349   8.754   4.416
    1STR    C05 1829   5.444   8.846   4.467
    1STR    C06 1830   5.585   8.829   4.446
    1STR    C07 1831   5.682   8.924   4.491
    1STR    N08 1832   5.821   8.907   4.466
    1STR    C09 1833   5.928   8.977   4.513
    1STR    O0A 1834   5.921   9.068   4.595
    1STR    O0B 1835   6.049   8.937   4.459
    1STR    C0C 1836   6.173   8.998   4.506
    1STR    C0D 1837   6.212   8.936   4.641
    1STR    C0E 1838   6.292   8.985   4.405
    1STR    O0F 1839   6.415   9.042   4.457
    1STR    C0G 1840   6.531   9.039   4.372
    1STR    C0H 1841   6.519   9.151   4.267
    1STR    C0I 1842   6.662   9.056   4.455
    1STR    O0J 1843   6.783   9.032   4.379
    1STR    C0K 1844   6.909   9.047   4.447
    1STR    C0M 1845   6.926   8.937   4.554
    1STR    C0N 1846   7.030   9.040   4.349
    1STR    O0O 1847   7.153   9.076   4.415
    1STR    C0P 1848   7.268   9.002   4.404
    1STR    O0Q 1849   7.278   8.892   4.351
    1STR    N0R 1850   7.368   9.070   4.460
    1STR    C0S 1851   7.505   9.048   4.483
    1STR    C0T 1852   7.576   9.162   4.528
    1STR    C0U 1853   7.711   9.154   4.564
    1STR    C0V 1854   7.781   9.032   4.557
    1STR    C0W 1855   7.922   9.030   4.613
    1STR    C0X 1856   7.716   8.916   4.506
    1STR    N0Y 1857   7.785   8.793   4.510
    1STR   BCK2 1858   7.909   8.765   4.464
    1STR    O10 1859   7.970   8.836   4.385
    1STR    C13 1860   7.577   8.925   4.470
    1STR    C14 1861   5.633   9.038   4.559
    1STR    C15 1862   5.495   9.058   4.577
    1STR    C16 1863   5.400   8.966   4.529
    1STR    C17 1864   5.254   9.005   4.542
    1STR    H1B 1865   5.359   8.726   4.320
    1STR    H1C 1866   5.618   8.740   4.395
    1STR    H1D 1867   5.849   8.833   4.405
    1STR    H1E 1868   6.156   9.105   4.520
    1STR    H1F 1869   6.231   8.829   4.633
    1STR    H1G 1870   6.302   8.983   4.681
    1STR    H1H 1871   6.133   8.951   4.715
    1STR    H1I 1872   6.264   9.035   4.312
    1STR    H1J 1873   6.309   8.880   4.381
    1STR    H1K 1874   6.537   8.942   4.322
    1STR    H1M 1875   6.507   9.248   4.315
    1STR    H1N 1876   6.435   9.136   4.200
    1STR    H1O 1877   6.609   9.156   4.206
    1STR    H1P 1878   6.665   9.156   4.499
    1STR    H1Q 1879   6.658   8.986   4.539
    1STR    H1R 1880   6.911   9.145   4.495
    1STR    H1S 1881   7.024   8.942   4.600
    1STR    H1T 1882   6.916   8.838   4.509
    1STR    H1U 1883   6.853   8.945   4.634
    1STR    H1V 1884   7.015   9.110   4.267
    1STR    H1W 1885   7.037   8.941   4.303
    1STR    H1X 1886   7.332   9.159   4.492
    1STR    H1Y 1887   7.526   9.257   4.539
    1STR    H1Z 1888   7.760   9.242   4.602
    1STR    H20 1889   7.938   8.942   4.674
    1STR    H21 1890   7.995   9.030   4.532
    1STR    H22 1891   7.943   9.117   4.675
    1STR    H23 1892   7.740   8.718   4.560
    1STR    H27 1893   7.525   8.838   4.435
    1STR    H28 1894   5.697   9.115   4.597
    1STR    H29 1895   5.462   9.148   4.627
    1STR    H2A 1896   5.196   8.970   4.456
    1STR    H2B 1897   5.242   9.113   4.547
    1STR    H2C 1898   5.211   8.962   4.632
    1STR   BCK1 1899   5.226   8.635   8.787
    1STR    O03 1900   5.180   8.735   8.735
    1STR    N04 1901   5.356   8.607   8.765
    1STR    C05 1902   5.448   8.502   8.787
    1STR    C06 1903   5.587   8.537   8.801
    1STR    C07 1904   5.691   8.439   8.812
    1STR    N08 1905   5.827   8.477   8.819
    1STR    C09 1906   5.939   8.401   8.816
    1STR    O0A 1907   5.940   8.279   8.807
    1STR    O0B 1908   6.055   8.475   8.822
    1STR    C0C 1909   6.183   8.408   8.814
    1STR    C0D 1910   6.214   8.372   8.668
    1STR    C0E 1911   6.299   8.490   8.877
    1STR    O0F 1912   6.422   8.414   8.875
    1STR    C0G 1913   6.537   8.475   8.938
    1STR    C0H 1914   6.522   8.463   9.091
    1STR    C0I 1915   6.667   8.405   8.890
    1STR    O0J 1916   6.785   8.473   8.939
    1STR    C0K 1917   6.912   8.414   8.905
    1STR    C0M 1918   6.940   8.429   8.755
    1STR    C0N 1919   7.027   8.481   8.986
    1STR    O0O 1920   7.149   8.408   8.972
    1STR    C0P 1921   7.269   8.470   8.955
    1STR    O0Q 1922   7.286   8.591   8.945
    1STR    N0R 1923   7.365   8.377   8.947
    1STR    C0S 1924   7.502   8.382   8.916
    1STR    C0T 1925   7.562   8.260   8.879
    1STR    C0U 1926   7.694   8.255   8.832
    1STR    C0V 1927   7.772   8.372   8.824
    1STR    C0W 1928   7.904   8.361   8.749
    1STR    C0X 1929   7.721   8.495   8.873
    1STR    N0Y 1930   7.793   8.615   8.868
    1STR   BCK2 1931   7.920   8.653   8.895
    1STR    O10 1932   7.953   8.768   8.871
    1STR    C13 1933   7.584   8.499   8.915
    1STR    C14 1934   5.650   8.304   8.813
    1STR    C15 1935   5.516   8.268   8.797
    1STR    C16 1936   5.415   8.364   8.780
    1STR    C17 1937   5.278   8.311   8.746
    1STR    H1B 1938   5.396   8.687   8.717
    1STR    H1C 1939   5.614   8.641   8.802
    1STR    H1D 1940   5.849   8.575   8.824
    1STR    H1E 1941   6.176   8.315   8.871
    1STR    H1F 1942   6.223   8.462   8.606
    1STR    H1G 1943   6.308   8.317   8.660
    1STR    H1H 1944   6.136   8.309   8.625
    1STR    H1I 1945   6.272   8.515   8.979
    1STR    H1J 1946   6.312   8.584   8.823
    1STR    H1K 1947   6.543   8.580   8.909
    1STR    H1M 1948   6.509   8.359   9.121
    1STR    H1N 1949   6.438   8.520   9.129
    1STR    H1O 1950   6.612   8.500   9.141
    1STR    H1P 1951   6.667   8.301   8.922
    1STR    H1Q 1952   6.667   8.404   8.781
    1STR    H1R 1953   6.910   8.308   8.932
    1STR    H1S 1954   7.040   8.393   8.730
    1STR    H1T 1955   6.934   8.533   8.724
    1STR    H1U 1956   6.870   8.372   8.694
    1STR    H1V 1957   7.001   8.483   9.092
    1STR    H1W 1958   7.038   8.585   8.956
    1STR    H1X 1959   7.326   8.286   8.961
    1STR    H1Y 1960   7.505   8.169   8.881
    1STR    H1Z 1961   7.734   8.161   8.798
    1STR    H20 1962   7.935   8.456   8.707
    1STR    H21 1963   7.982   8.324   8.815
    1STR    H22 1964   7.895   8.292   8.666
    1STR    H23 1965   7.739   8.696   8.841
    1STR    H27 1966   7.540   8.593   8.945
    1STR    H28 1967   5.720   8.223   8.823
    1STR    H29 1968   5.491   8.163   8.794
    1STR    H2A 1969   5.221   8.294   8.837
    1STR    H2B 1970   5.285   8.215   8.694
    1STR    H2C 1971   5.224   8.379   8.680
    1STR   BCK1 1972   5.234   8.699  13.062
    1STR    O03 1973   5.186   8.808  13.088
    1STR    N04 1974   5.355   8.679  13.003
    1STR    C05 1975   5.446   8.770  12.943
    1STR    C06 1976   5.587   8.754  12.957
    1STR    C07 1977   5.684   8.836  12.889
    1STR    N08 1978   5.824   8.814  12.901
    1STR    C09 1979   5.928   8.867  12.831
    1STR    O0A 1980   5.915   8.948  12.740
    1STR    O0B 1981   6.052   8.822  12.871
    1STR    C0C 1982   6.173   8.878  12.815
    1STR    C0D 1983   6.205   9.011  12.886
    1STR    C0E 1984   6.296   8.781  12.821
    1STR    O0F 1985   6.418   8.841  12.769
    1STR    C0G 1986   6.535   8.756  12.764
    1STR    C0H 1987   6.524   8.664  12.641
    1STR    C0I 1988   6.668   8.839  12.756
    1STR    O0J 1989   6.786   8.758  12.774
    1STR    C0K 1990   6.915   8.823  12.766
    1STR    C0M 1991   6.932   8.924  12.881
    1STR    C0N 1992   7.032   8.719  12.773
    1STR    O0O 1993   7.161   8.781  12.752
    1STR    C0P 1994   7.273   8.746  12.823
    1STR    O0Q 1995   7.276   8.669  12.918
    1STR    N0R 1996   7.379   8.810  12.772
    1STR    C0S 1997   7.516   8.822  12.805
    1STR    C0T 1998   7.588   8.905  12.717
    1STR    C0U 1999   7.722   8.938  12.742
    1STR    C0V 2000   7.789   8.887  12.855
    1STR    C0W 2001   7.927   8.944  12.883
    1STR    C0X 2002   7.724   8.793  12.940
    1STR    N0Y 2003   7.794   8.739  13.050
    1STR   BCK2 2004   7.919   8.685  13.051
    1STR    O10 2005   7.985   8.665  12.950
    1STR    C13 2006   7.586   8.764  12.915
    1STR    C14 2007   5.631   8.941  12.810
    1STR    C15 2008   5.493   8.958  12.793
    1STR    C16 2009   5.400   8.872  12.854
    1STR    C17 2010   5.254   8.890  12.816
    1STR    H1B 2011   5.382   8.583  13.001
    1STR    H1C 2012   5.623   8.675  13.021
    1STR    H1D 2013   5.855   8.749  12.970
    1STR    H1E 2014   6.156   8.899  12.709
    1STR    H1F 2015   6.224   8.996  12.992
    1STR    H1G 2016   6.293   9.058  12.842
    1STR    H1H 2017   6.122   9.081  12.876
    1STR    H1I 2018   6.272   8.691  12.765
    1STR    H1J 2019   6.313   8.750  12.924
    1STR    H1K 2020   6.540   8.696  12.855
    1STR    H1M 2021   6.511   8.722  12.549
    1STR    H1N 2022   6.440   8.595  12.649
    1STR    H1O 2023   6.614   8.603  12.629
    1STR    H1P 2024   6.673   8.892  12.661
    1STR    H1Q 2025   6.663   8.916  12.834
    1STR    H1R 2026   6.922   8.875  12.671
    1STR    H1S 2027   7.032   8.967  12.881
    1STR    H1T 2028   6.918   8.875  12.978
    1STR    H1U 2029   6.862   9.006  12.875
    1STR    H1V 2030   7.019   8.644  12.695
    1STR    H1W 2031   7.030   8.665  12.867
    1STR    H1X 2032   7.348   8.863  12.692
    1STR    H1Y 2033   7.542   8.948  12.630
    1STR    H1Z 2034   7.773   9.005  12.675
    1STR    H20 2035   7.948   8.946  12.990
    1STR    H21 2036   8.004   8.885  12.833
    1STR    H22 2037   7.936   9.047  12.847
    1STR    H23 2038   7.747   8.739  13.139
    1STR    H27 2039   7.532   8.698  12.981
    1STR    H28 2040   5.695   9.011  12.758
    1STR    H29 2041   5.459   9.037  12.727
    1STR    H2A 2042   5.201   8.795  12.814
    1STR    H2B 2043   5.245   8.933  12.716
    1STR    H2C 2044   5.205   8.957  12.886
    1STR   BCK1 2045   5.224  12.969   0.125
    1STR    O03 2046   5.191  12.902   0.222
    1STR    N04 2047   5.338  13.041   0.116
    1STR    C05 2048   5.438  13.066   0.213
    1STR    C06 2049   5.577  13.068   0.178
    1STR    C07 2050   5.681  13.098   0.273
    1STR    N08 2051   5.818  13.106   0.236
    1STR    C09 2052   5.929  13.111   0.314
    1STR    O0A 2053   5.927  13.098   0.436
    1STR    O0B 2054   6.047  13.131   0.244
    1STR    C0C 2055   6.174  13.131   0.315
    1STR    C0D 2056   6.215  12.986   0.344
    1STR    C0E 2057   6.289  13.206   0.240
    1STR    O0F 2058   6.413  13.200   0.315
    1STR    C0G 2059   6.527  13.268   0.259
    1STR    C0H 2060   6.514  13.419   0.285
    1STR    C0I 2061   6.659  13.214   0.322
    1STR    O0J 2062   6.778  13.264   0.256
    1STR    C0K 2063   6.905  13.225   0.311
    1STR    C0M 2064   6.928  13.074   0.290
    1STR    C0N 2065   7.023  13.303   0.247
    1STR    O0O 2066   7.143  13.283   0.323
    1STR    C0P 2067   7.262  13.248   0.268
    1STR    O0Q 2068   7.284  13.228   0.149
    1STR    N0R 2069   7.351  13.238   0.366
    1STR    C0S 2070   7.486  13.200   0.377
    1STR    C0T 2071   7.533  13.191   0.509
    1STR    C0U 2072   7.666  13.156   0.536
    1STR    C0V 2073   7.758  13.131   0.432
    1STR    C0W 2074   7.899  13.103   0.477
    1STR    C0X 2075   7.715  13.139   0.296
    1STR    N0Y 2076   7.801  13.132   0.183
    1STR   BCK2 2077   7.921  13.084   0.143
    1STR    O10 2078   7.965  13.125   0.037
    1STR    C13 2079   7.578  13.173   0.271
    1STR    C14 2080   5.640  13.126   0.405
    1STR    C15 2081   5.504  13.128   0.441
    1STR    C16 2082   5.403  13.103   0.346
    1STR    C17 2083   5.260  13.126   0.392
    1STR    H1B 2084   5.351  13.084   0.026
    1STR    H1C 2085   5.605  13.045   0.077
    1STR    H1D 2086   5.840  13.109   0.138
    1STR    H1E 2087   6.160  13.183   0.410
    1STR    H1F 2088   6.231  12.929   0.253
    1STR    H1G 2089   6.307  12.982   0.402
    1STR    H1H 2090   6.138  12.934   0.403
    1STR    H1I 2091   6.259  13.309   0.224
    1STR    H1J 2092   6.304  13.162   0.141
    1STR    H1K 2093   6.532  13.249   0.152
    1STR    H1M 2094   6.503  13.440   0.392
    1STR    H1N 2095   6.428  13.462   0.234
    1STR    H1O 2096   6.603  13.472   0.251
    1STR    H1P 2097   6.662  13.239   0.428
    1STR    H1Q 2098   6.657  13.105   0.315
    1STR    H1R 2099   6.905  13.247   0.418
    1STR    H1S 2100   7.028  13.045   0.324
    1STR    H1T 2101   6.921  13.048   0.185
    1STR    H1U 2102   6.858  13.013   0.346
    1STR    H1V 2103   7.001  13.410   0.247
    1STR    H1W 2104   7.037  13.276   0.142
    1STR    H1X 2105   7.306  13.262   0.452
    1STR    H1Y 2106   7.468  13.211   0.593
    1STR    H1Z 2107   7.698  13.150   0.638
    1STR    H20 2108   7.919  12.996   0.470
    1STR    H21 2109   7.970  13.160   0.418
    1STR    H22 2110   7.916  13.131   0.581
    1STR    H23 2111   7.762  13.179   0.103
    1STR    H27 2112   7.542  13.182   0.170
    1STR    H28 2113   5.710  13.150   0.483
    1STR    H29 2114   5.478  13.153   0.542
    1STR    H2A 2115   5.198  13.163   0.311
    1STR    H2B 2116   5.256  13.200   0.472
    1STR    H2C 2117   5.217  13.033   0.430
    1STR   BCK1 2118   5.237  12.960   4.376
    1STR    O03 2119   5.198  13.028   4.282
    1STR    N04 2120   5.357  12.900   4.382
    1STR    C05 2121   5.453  12.881   4.281
    1STR    C06 2122   5.592  12.900   4.307
    1STR    C07 2123   5.693  12.868   4.211
    1STR    N08 2124   5.831  12.881   4.241
    1STR    C09 2125   5.937  12.821   4.181
    1STR    O0A 2126   5.928  12.739   4.091
    1STR    O0B 2127   6.058  12.862   4.233
    1STR    C0C 2128   6.182  12.818   4.172
    1STR    C0D 2129   6.212  12.906   4.050
    1STR    C0E 2130   6.301  12.818   4.272
    1STR    O0F 2131   6.423  12.772   4.210
    1STR    C0G 2132   6.538  12.759   4.296
    1STR    C0H 2133   6.524  12.630   4.379
    1STR    C0I 2134   6.670  12.755   4.212
    1STR    O0J 2135   6.788  12.760   4.296
    1STR    C0K 2136   6.916  12.753   4.230
    1STR    C0M 2137   6.940  12.881   4.148
    1STR    C0N 2138   7.031  12.736   4.334
    1STR    O0O 2139   7.158  12.713   4.270
    1STR    C0P 2140   7.274  12.765   4.319
    1STR    O0Q 2141   7.283  12.841   4.415
    1STR    N0R 2142   7.378  12.721   4.246
    1STR    C0S 2143   7.516  12.749   4.245
    1STR    C0T 2144   7.589  12.691   4.139
    1STR    C0U 2145   7.724  12.722   4.119
    1STR    C0V 2146   7.792  12.811   4.205
    1STR    C0W 2147   7.931  12.856   4.162
    1STR    C0X 2148   7.726  12.863   4.319
    1STR    N0Y 2149   7.785  12.957   4.405
    1STR   BCK2 2150   7.905  12.981   4.462
    1STR    O10 2151   7.919  13.086   4.523
    1STR    C13 2152   7.587  12.833   4.336
    1STR    C14 2153   5.649  12.822   4.085
    1STR    C15 2154   5.513  12.802   4.058
    1STR    C16 2155   5.415  12.827   4.155
    1STR    C17 2156   5.272  12.788   4.122
    1STR    H1B 2157   5.376  12.856   4.470
    1STR    H1C 2158   5.622  12.938   4.404
    1STR    H1D 2159   5.858  12.942   4.316
    1STR    H1E 2160   6.169  12.715   4.138
    1STR    H1F 2161   6.226  13.011   4.078
    1STR    H1G 2162   6.302  12.873   3.999
    1STR    H1H 2163   6.131  12.902   3.977
    1STR    H1I 2164   6.275  12.755   4.356
    1STR    H1J 2165   6.316  12.919   4.312
    1STR    H1K 2166   6.544  12.845   4.362
    1STR    H1M 2167   6.511  12.543   4.315
    1STR    H1N 2168   6.440  12.635   4.448
    1STR    H1O 2169   6.614  12.613   4.439
    1STR    H1P 2170   6.671  12.665   4.150
    1STR    H1Q 2171   6.669  12.840   4.144
    1STR    H1R 2172   6.917  12.666   4.164
    1STR    H1S 2173   7.040  12.881   4.105
    1STR    H1T 2174   6.931  12.970   4.210
    1STR    H1U 2175   6.870  12.891   4.065
    1STR    H1V 2176   7.011  12.651   4.399
    1STR    H1W 2177   7.036  12.824   4.399
    1STR    H1X 2178   7.344  12.657   4.177
    1STR    H1Y 2179   7.541  12.625   4.068
    1STR    H1Z 2180   7.776  12.681   4.034
    1STR    H20 2181   7.952  12.958   4.195
    1STR    H21 2182   8.007  12.789   4.202
    1STR    H22 2183   7.940  12.855   4.054
    1STR    H23 2184   7.721  13.029   4.436
    1STR    H27 2185   7.532  12.876   4.418
    1STR    H28 2186   5.719  12.800   4.005
    1STR    H29 2187   5.485  12.762   3.961
    1STR    H2A 2188   5.220  12.750   4.210
    1STR    H2B 2189   5.269  12.709   4.047
    1STR    H2C 2190   5.217  12.873   4.083
    1STR   BCK1 2191   5.234  13.095   8.791
    1STR    O03 2192   5.191  13.169   8.878
    1STR    N04 2193   5.352  13.113   8.726
    1STR    C05 2194   5.443  13.222   8.728
    1STR    C06 2195   5.585  13.200   8.724
    1STR    C07 2196   5.682  13.306   8.718
    1STR    N08 2197   5.822  13.282   8.706
    1STR    C09 2198   5.927  13.368   8.707
    1STR    O0A 2199   5.917  13.489   8.724
    1STR    O0B 2200   6.050  13.308   8.686
    1STR    C0C 2201   6.173  13.387   8.692
    1STR    C0D 2202   6.209  13.411   8.839
    1STR    C0E 2203   6.294  13.323   8.615
    1STR    O0F 2204   6.416  13.401   8.630
    1STR    C0G 2205   6.533  13.354   8.559
    1STR    C0H 2206   6.521  13.393   8.411
    1STR    C0I 2207   6.664  13.413   8.621
    1STR    O0J 2208   6.785  13.352   8.570
    1STR    C0K 2209   6.911  13.401   8.621
    1STR    C0M 2210   6.925  13.366   8.770
    1STR    C0N 2211   7.034  13.343   8.544
    1STR    O0O 2212   7.157  13.404   8.587
    1STR    C0P 2213   7.272  13.333   8.610
    1STR    O0Q 2214   7.282  13.211   8.606
    1STR    N0R 2215   7.372  13.418   8.637
    1STR    C0S 2216   7.508  13.404   8.670
    1STR    C0T 2217   7.582  13.524   8.674
    1STR    C0U 2218   7.719  13.523   8.705
    1STR    C0V 2219   7.788  13.404   8.733
    1STR    C0W 2220   7.937  13.416   8.756
    1STR    C0X 2221   7.718  13.280   8.732
    1STR    N0Y 2222   7.778  13.153   8.744
    1STR   BCK2 2223   7.887  13.088   8.790
    1STR    O10 2224   7.899  12.971   8.754
    1STR    C13 2225   7.578  13.283   8.700
    1STR    C14 2226   5.629  13.438   8.720
    1STR    C15 2227   5.491  13.462   8.721
    1STR    C16 2228   5.398  13.357   8.722
    1STR    C17 2229   5.252  13.396   8.707
    1STR    H1B 2230   5.377  13.036   8.667
    1STR    H1C 2231   5.621  13.098   8.724
    1STR    H1D 2232   5.852  13.187   8.696
    1STR    H1E 2233   6.153  13.484   8.645
    1STR    H1F 2234   6.230  13.318   8.891
    1STR    H1G 2235   6.298  13.474   8.847
    1STR    H1H 2236   6.129  13.463   8.892
    1STR    H1I 2237   6.267  13.315   8.510
    1STR    H1J 2238   6.311  13.222   8.652
    1STR    H1K 2239   6.539  13.245   8.568
    1STR    H1M 2240   6.508  13.501   8.400
    1STR    H1N 2241   6.437  13.345   8.362
    1STR    H1O 2242   6.611  13.365   8.356
    1STR    H1P 2243   6.667  13.521   8.605
    1STR    H1Q 2244   6.659  13.398   8.729
    1STR    H1R 2245   6.914  13.510   8.609
    1STR    H1S 2246   7.024  13.394   8.807
    1STR    H1T 2247   6.915  13.258   8.785
    1STR    H1U 2248   6.852  13.416   8.833
    1STR    H1V 2249   7.023  13.361   8.437
    1STR    H1W 2250   7.038  13.234   8.556
    1STR    H1X 2251   7.338  13.512   8.629
    1STR    H1Y 2252   7.536  13.618   8.651
    1STR    H1Z 2253   7.772  13.617   8.705
    1STR    H20 2254   7.958  13.408   8.863
    1STR    H21 2255   7.991  13.340   8.700
    1STR    H22 2256   7.975  13.513   8.723
    1STR    H23 2257   7.721  13.081   8.701
    1STR    H27 2258   7.521  13.191   8.696
    1STR    H28 2259   5.692  13.525   8.717
    1STR    H29 2260   5.457  13.564   8.719
    1STR    H2A 2261   5.196  13.321   8.651
    1STR    H2B 2262   5.242  13.490   8.653
    1STR    H2C 2263   5.206  13.408   8.805
    1STR   BCK1 2264   5.223  13.004  13.148
    1STR    O03 2265   5.191  13.064  13.046
    1STR    N04 2266   5.355  12.979  13.165
    1STR    C05 2267   5.447  12.910  13.247
    1STR    C06 2268   5.585  12.948  13.234
    1STR    C07 2269   5.692  12.881  13.303
    1STR    N08 2270   5.827  12.919  13.284
    1STR    C09 2271   5.941  12.855  13.321
    1STR    O0A 2272   5.943  12.744  13.375
    1STR    O0B 2273   6.055  12.923  13.291
    1STR    C0C 2274   6.184  12.865  13.322
    1STR    C0D 2275   6.219  12.757  13.217
    1STR    C0E 2276   6.299  12.969  13.333
    1STR    O0F 2277   6.422  12.906  13.373
    1STR    C0G 2278   6.536  12.991  13.394
    1STR    C0H 2279   6.521  13.063  13.529
    1STR    C0I 2280   6.667  12.907  13.391
    1STR    O0J 2281   6.784  12.990  13.396
    1STR    C0K 2282   6.911  12.922  13.401
    1STR    C0M 2283   6.940  12.853  13.267
    1STR    C0N 2284   7.026  13.022  13.434
    1STR    O0O 2285   7.147  12.952  13.467
    1STR    C0P 2286   7.267  12.985  13.414
    1STR    O0Q 2287   7.287  13.073  13.332
    1STR    N0R 2288   7.360  12.903  13.464
    1STR    C0S 2289   7.495  12.881  13.432
    1STR    C0T 2290   7.546  12.755  13.470
    1STR    C0U 2291   7.675  12.715  13.431
    1STR    C0V 2292   7.758  12.801  13.356
    1STR    C0W 2293   7.884  12.741  13.297
    1STR    C0X 2294   7.716  12.935  13.331
    1STR    N0Y 2295   7.795  13.027  13.261
    1STR   BCK2 2296   7.925  13.063  13.264
    1STR    O10 2297   7.967  13.141  13.179
    1STR    C13 2298   7.582  12.971  13.365
    1STR    C14 2299   5.655  12.777  13.390
    1STR    C15 2300   5.522  12.737  13.404
    1STR    C16 2301   5.418  12.800  13.333
    1STR    C17 2302   5.282  12.738  13.350
    1STR    H1B 2303   5.400  13.029  13.090
    1STR    H1C 2304   5.611  13.029  13.168
    1STR    H1D 2305   5.847  13.005  13.236
    1STR    H1E 2306   6.176  12.817  13.419
    1STR    H1F 2307   6.229  12.800  13.117
    1STR    H1G 2308   6.313  12.708  13.242
    1STR    H1H 2309   6.143  12.679  13.213
    1STR    H1I 2310   6.270  13.045  13.406
    1STR    H1J 2311   6.312  13.021  13.238
    1STR    H1K 2312   6.542  13.064  13.313
    1STR    H1M 2313   6.507  12.991  13.610
    1STR    H1N 2314   6.437  13.131  13.531
    1STR    H1O 2315   6.610  13.121  13.552
    1STR    H1P 2316   6.667  12.836  13.474
    1STR    H1Q 2317   6.667  12.847  13.300
    1STR    H1R 2318   6.908  12.848  13.481
    1STR    H1S 2319   7.040  12.809  13.266
    1STR    H1T 2320   6.935  12.924  13.184
    1STR    H1U 2321   6.871  12.772  13.246
    1STR    H1V 2322   6.998  13.083  13.520
    1STR    H1W 2323   7.041  13.092  13.351
    1STR    H1X 2324   7.319  12.841  13.531
    1STR    H1Y 2325   7.486  12.684  13.524
    1STR    H1Z 2326   7.709  12.616  13.454
    1STR    H20 2327   7.919  12.797  13.210
    1STR    H21 2328   7.964  12.736  13.371
    1STR    H22 2329   7.865  12.639  13.262
    1STR    H23 2330   7.746  13.083  13.193
    1STR    H27 2331   7.545  13.069  13.339
    1STR    H28 2332   5.728  12.722  13.448
    1STR    H29 2333   5.500  12.654  13.470
    1STR    H2A 2334   5.223  12.799  13.419
    1STR    H2B 2335   5.288  12.638  13.394
    1STR    H2C 2336   5.232  12.727  13.254
    1STR   BCK1 2337   9.595  17.367  17.408
    1STR    O03 2338   9.547   0.038  17.388
    1STR    N04 2339   9.717  17.327  17.365
    1STR    C05 2340   9.809  17.387  17.276
    1STR    C06 2341   9.950  17.380  17.300
    1STR    C07 2342  10.047  17.428  17.206
    1STR    N08 2343  10.187  17.415  17.229
    1STR    C09 2344  10.291  17.425  17.142
    1STR    O0A 2345  10.278   0.006  17.022
    1STR    O0B 2346  10.414  17.409  17.202
    1STR    C0C 2347  10.536  17.429  17.126
    1STR    C0D 2348  10.566   0.139  17.118
    1STR    C0E 2349  10.658  17.351  17.185
    1STR    O0F 2350  10.780  17.373  17.110
    1STR    C0G 2351  10.897  17.298  17.151
    1STR    C0H 2352  10.884  17.154  17.098
    1STR    C0I 2353  11.029  17.363  17.100
    1STR    O0J 2354  11.147  17.302  17.159
    1STR    C0K 2355  11.277  17.350  17.117
    1STR    C0M 2356  11.296   0.056  17.161
    1STR    C0N 2357  11.392  17.262  17.177
    1STR    O0O 2358  11.521  17.300  17.125
    1STR    C0P 2359  11.634  17.300  17.203
    1STR    O0Q 2360  11.638  17.277  17.323
    1STR    N0R 2361  11.739  17.331  17.126
    1STR    C0S 2362  11.876  17.356  17.148
    1STR    C0T 2363  11.945  17.402  17.035
    1STR    C0U 2364  12.078   0.004  17.043
    1STR    C0V 2365  12.148  17.439  17.165
    1STR    C0W 2366  12.285   0.064  17.168
    1STR    C0X 2367  12.087  17.380  17.280
    1STR    N0Y 2368  12.160  17.367  17.401
    1STR   BCK2 2369  12.285  17.319  17.418
    1STR    O10 2370  12.353  17.272  17.327
    1STR    C13 2371  11.949  17.343  17.271
    1STR    C14 2372   9.997   0.048  17.088
    1STR    C15 2373   9.860   0.054  17.062
    1STR    C16 2374   9.765   0.002  17.152
    1STR    C17 2375   9.620  17.439  17.106
    1STR    H1B 2376   9.743  17.237  17.401
    1STR    H1C 2377   9.984  17.336  17.392
    1STR    H1D 2378  10.217  17.394  17.322
    1STR    H1E 2379  10.520  17.391  17.025
    1STR    H1F 2380  10.583   0.182  17.216
    1STR    H1G 2381  10.655   0.158  17.057
    1STR    H1H 2382  10.484   0.193  17.071
    1STR    H1I 2383  10.634  17.245  17.186
    1STR    H1J 2384  10.674  17.381  17.289
    1STR    H1K 2385  10.901  17.297  17.260
    1STR    H1M 2386  10.872  17.154  16.989
    1STR    H1N 2387  10.800  17.101  17.141
    1STR    H1O 2388  10.974  17.097  17.121
    1STR    H1P 2389  11.034  17.357  16.991
    1STR    H1Q 2390  11.026   0.029  17.126
    1STR    H1R 2391  11.282  17.344  17.008
    1STR    H1S 2392  11.397   0.090  17.137
    1STR    H1T 2393  11.283   0.066  17.269
    1STR    H1U 2394  11.227   0.124  17.112
    1STR    H1V 2395  11.375  17.158  17.151
    1STR    H1W 2396  11.390  17.267  17.286
    1STR    H1X 2397  11.708  17.341  17.031
    1STR    H1Y 2398  11.896  17.410  16.939
    1STR    H1Z 2399  12.127   0.043  16.956
    1STR    H20 2400  12.310   0.102  17.267
    1STR    H21 2401  12.362  17.433  17.137
    1STR    H22 2402  12.289   0.149  17.100
    1STR    H23 2403  12.112  17.392   0.046
    1STR    H27 2404  11.897  17.304  17.357
    1STR    H28 2405  10.063   0.091  17.014
    1STR    H29 2406   9.827   0.098  16.968
    1STR    H2A 2407   9.569  17.351  17.143
    1STR    H2B 2408   9.613  17.437  16.998
    1STR    H2C 2409   9.568   0.088  17.142
    1STR   BCK1 2410   9.603  17.384   4.498
    1STR    O03 2411   9.587  17.360   4.617
    1STR    N04 2412   9.707   0.015   4.448
    1STR    C05 2413   9.804   0.088   4.520
    1STR    C06 2414   9.944   0.076   4.492
    1STR    C07 2415  10.043   0.153   4.562
    1STR    N08 2416  10.182   0.144   4.531
    1STR    C09 2417  10.290   0.192   4.598
    1STR    O0A 2418  10.284   0.248   4.707
    1STR    O0B 2419  10.410   0.172   4.532
    1STR    C0C 2420  10.535   0.212   4.594
    1STR    C0D 2421  10.574   0.106   4.700
    1STR    C0E 2422  10.652   0.234   4.494
    1STR    O0F 2423  10.775   0.270   4.561
    1STR    C0G 2424  10.891   0.297   4.480
    1STR    C0H 2425  10.879   0.438   4.420
    1STR    C0I 2426  11.023   0.284   4.563
    1STR    O0J 2427  11.143   0.289   4.483
    1STR    C0K 2428  11.269   0.280   4.554
    1STR    C0M 2429  11.286   0.140   4.616
    1STR    C0N 2430  11.391   0.308   4.461
    1STR    O0O 2431  11.511   0.322   4.540
    1STR    C0P 2432  11.629   0.262   4.507
    1STR    O0Q 2433  11.648   0.187   4.412
    1STR    N0R 2434  11.723   0.301   4.594
    1STR    C0S 2435  11.860   0.275   4.614
    1STR    C0T 2436  11.920   0.352   4.715
    1STR    C0U 2437  12.057   0.338   4.744
    1STR    C0V 2438  12.138   0.248   4.673
    1STR    C0W 2439  12.286   0.252   4.706
    1STR    C0X 2440  12.082   0.165   4.572
    1STR    N0Y 2441  12.157   0.082   4.486
    1STR   BCK2 2442  12.272   0.012   4.479
    1STR    O10 2443  12.306  17.412   4.368
    1STR    C13 2444  11.942   0.182   4.543
    1STR    C14 2445   9.996   0.242   4.662
    1STR    C15 2446   9.859   0.257   4.688
    1STR    C16 2447   9.763   0.184   4.616
    1STR    C17 2448   9.617   0.218   4.642
    1STR    H1B 2449   9.711   0.019   4.348
    1STR    H1C 2450   9.976   0.007   4.416
    1STR    H1D 2451  10.208   0.095   4.447
    1STR    H1E 2452  10.519   0.307   4.646
    1STR    H1F 2453  10.591   0.009   4.654
    1STR    H1G 2454  10.665   0.136   4.752
    1STR    H1H 2455  10.496   0.095   4.775
    1STR    H1I 2456  10.624   0.313   4.424
    1STR    H1J 2457  10.668   0.144   4.435
    1STR    H1K 2458  10.897   0.223   4.400
    1STR    H1M 2459  10.867   0.513   4.498
    1STR    H1N 2460  10.794   0.446   4.352
    1STR    H1O 2461  10.968   0.464   4.363
    1STR    H1P 2462  11.025   0.363   4.639
    1STR    H1Q 2463  11.018   0.190   4.617
    1STR    H1R 2464  11.269   0.356   4.633
    1STR    H1S 2465  11.384   0.130   4.661
    1STR    H1T 2466  11.277   0.063   4.539
    1STR    H1U 2467  11.213   0.120   4.694
    1STR    H1V 2468  11.376   0.402   4.408
    1STR    H1W 2469  11.402   0.231   4.385
    1STR    H1X 2470  11.681   0.366   4.658
    1STR    H1Y 2471  11.864   0.424   4.771
    1STR    H1Z 2472  12.100   0.400   4.821
    1STR    H20 2473  12.310   0.170   4.775
    1STR    H21 2474  12.346   0.245   4.616
    1STR    H22 2475  12.314   0.344   4.756
    1STR    H23 2476  12.112   0.070   4.396
    1STR    H27 2477  11.895   0.123   4.465
    1STR    H28 2478  10.063   0.303   4.720
    1STR    H29 2479   9.829   0.328   4.763
    1STR    H2A 2480   9.558   0.212   4.550
    1STR    H2B 2481   9.606   0.319   4.681
    1STR    H2C 2482   9.574   0.149   4.715
    1STR   BCK1 2483   9.591  17.322   8.768
    1STR    O03 2484   9.565  17.333   8.648
    1STR    N04 2485   9.708  17.275   8.815
    1STR    C05 2486   9.810  17.209   8.745
    1STR    C06 2487   9.947  17.243   8.761
    1STR    C07 2488  10.052  17.168   8.700
    1STR    N08 2489  10.189  17.199   8.721
    1STR    C09 2490  10.297  17.119   8.707
    1STR    O0A 2491  10.291  17.000   8.678
    1STR    O0B 2492  10.416  17.184   8.728
    1STR    C0C 2493  10.541  17.117   8.701
    1STR    C0D 2494  10.572  17.127   8.551
    1STR    C0E 2495  10.659  17.172   8.786
    1STR    O0F 2496  10.781  17.099   8.760
    1STR    C0G 2497  10.896  17.134   8.839
    1STR    C0H 2498  10.882  17.071   8.978
    1STR    C0I 2499  11.027  17.085   8.771
    1STR    O0J 2500  11.145  17.133   8.839
    1STR    C0K 2501  11.273  17.090   8.787
    1STR    C0M 2502  11.299  17.155   8.651
    1STR    C0N 2503  11.387  17.127   8.886
    1STR    O0O 2504  11.512  17.067   8.846
    1STR    C0P 2505  11.630  17.133   8.856
    1STR    O0Q 2506  11.645  17.249   8.894
    1STR    N0R 2507  11.729  17.052   8.817
    1STR    C0S 2508  11.867  17.071   8.794
    1STR    C0T 2509  11.932  16.968   8.723
    1STR    C0U 2510  12.066  16.982   8.683
    1STR    C0V 2511  12.140  17.097   8.715
    1STR    C0W 2512  12.275  17.113   8.647
    1STR    C0X 2513  12.082  17.197   8.798
    1STR    N0Y 2514  12.149  17.315   8.833
    1STR   BCK2 2515  12.274  17.350   8.872
    1STR    O10 2516  12.299   0.029   8.886
    1STR    C13 2517  11.944  17.184   8.833
    1STR    C14 2518  10.014  17.060   8.617
    1STR    C15 2519   9.879  17.023   8.603
    1STR    C16 2520   9.777  17.094   8.668
    1STR    C17 2521   9.636  17.039   8.659
    1STR    H1B 2522   9.717  17.281   8.915
    1STR    H1C 2523   9.972  17.328   8.823
    1STR    H1D 2524  10.212  17.292   8.751
    1STR    H1E 2525  10.531  17.011   8.727
    1STR    H1F 2526  10.585  17.230   8.519
    1STR    H1G 2527  10.664  17.073   8.526
    1STR    H1H 2528  10.492  17.083   8.491
    1STR    H1I 2529  10.632  17.163   8.891
    1STR    H1J 2530  10.674  17.278   8.765
    1STR    H1K 2531  10.902  17.243   8.848
    1STR    H1M 2532  10.868  16.963   8.971
    1STR    H1N 2533  10.797  17.112   9.034
    1STR    H1O 2534  10.971  17.089   9.038
    1STR    H1P 2535  11.028  16.976   8.765
    1STR    H1Q 2536  11.027  17.121   8.668
    1STR    H1R 2537  11.272  16.981   8.777
    1STR    H1S 2538  11.399  17.131   8.615
    1STR    H1T 2539  11.292  17.264   8.658
    1STR    H1U 2540  11.229  17.122   8.574
    1STR    H1V 2541  11.364  17.091   8.986
    1STR    H1W 2542  11.396  17.236   8.894
    1STR    H1X 2543  11.692  16.962   8.793
    1STR    H1Y 2544  11.879  16.879   8.693
    1STR    H1Z 2545  12.111  16.904   8.623
    1STR    H20 2546  12.302  17.218   8.636
    1STR    H21 2547  12.353  17.062   8.704
    1STR    H22 2548  12.273  17.070   8.547
    1STR    H23 2549  12.092  17.398   8.830
    1STR    H27 2550  11.896  17.262   8.890
    1STR    H28 2551  10.087  17.001   8.564
    1STR    H29 2552   9.855  16.937   8.542
    1STR    H2A 2553   9.583  17.051   8.754
    1STR    H2B 2554   9.636  16.932   8.636
    1STR    H2C 2555   9.580  17.090   8.581
    1STR   BCK1 2556   9.594   0.004  13.089
    1STR    O03 2557   9.547   0.104  13.141
    1STR    N04 2558   9.714  17.438  13.025
    1STR    C05 2559   9.804   0.101  12.988
    1STR    C06 2560   9.946   0.081  12.995
    1STR    C07 2561  10.042   0.178  12.949
    1STR    N08 2562  10.183   0.153  12.952
    1STR    C09 2563  10.287   0.226  12.904
    1STR    O0A 2564  10.275   0.335  12.849
    1STR    O0B 2565  10.411   0.168  12.924
    1STR    C0C 2566  10.533   0.239  12.888
    1STR    C0D 2567  10.566   0.340  13.000
    1STR    C0E 2568  10.655   0.146  12.860
    1STR    O0F 2569  10.777   0.220  12.831
    1STR    C0G 2570  10.895   0.143  12.797
    1STR    C0H 2571  10.883   0.098  12.650
    1STR    C0I 2572  11.027   0.224  12.818
    1STR    O0J 2573  11.146   0.142  12.808
    1STR    C0K 2574  11.274   0.208  12.824
    1STR    C0M 2575  11.289   0.262  12.967
    1STR    C0N 2576  11.393   0.110  12.795
    1STR    O0O 2577  11.521   0.177  12.797
    1STR    C0P 2578  11.632   0.123  12.856
    1STR    O0Q 2579  11.636   0.022  12.925
    1STR    N0R 2580  11.738   0.200  12.827
    1STR    C0S 2581  11.875   0.203  12.861
    1STR    C0T 2582  11.949   0.302  12.795
    1STR    C0U 2583  12.083   0.327  12.826
    1STR    C0V 2584  12.149   0.251  12.925
    1STR    C0W 2585  12.289   0.297  12.964
    1STR    C0X 2586  12.083   0.142  12.987
    1STR    N0Y 2587  12.151   0.065  13.084
    1STR   BCK2 2588  12.274   0.009  13.075
    1STR    O10 2589  12.339   0.006  12.971
    1STR    C13 2590  11.944   0.121  12.957
    1STR    C14 2591   9.989   0.299  12.899
    1STR    C15 2592   9.851   0.320  12.888
    1STR    C16 2593   9.758   0.222  12.928
    1STR    C17 2594   9.612   0.249  12.897
    1STR    H1B 2595   9.740  17.345  13.001
    1STR    H1C 2596   9.983  17.428  13.037
    1STR    H1D 2597  10.214   0.068  12.994
    1STR    H1E 2598  10.514   0.296  12.796
    1STR    H1F 2599  10.586   0.290  13.094
    1STR    H1G 2600  10.654   0.399  12.974
    1STR    H1H 2601  10.484   0.410  13.015
    1STR    H1I 2602  10.630   0.082  12.776
    1STR    H1J 2603  10.672   0.081  12.946
    1STR    H1K 2604  10.900   0.055  12.862
    1STR    H1M 2605  10.870   0.184  12.584
    1STR    H1N 2606  10.799   0.031  12.634
    1STR    H1O 2607  10.973   0.045  12.619
    1STR    H1P 2608  11.031   0.307  12.747
    1STR    H1Q 2609  11.021   0.270  12.917
    1STR    H1R 2610  11.280   0.290  12.753
    1STR    H1S 2611  11.389   0.305  12.982
    1STR    H1T 2612  11.276   0.183  13.041
    1STR    H1U 2613  11.218   0.342  12.989
    1STR    H1V 2614  11.381   0.066  12.696
    1STR    H1W 2615  11.392   0.026  12.865
    1STR    H1X 2616  11.708   0.274  12.766
    1STR    H1Y 2617  11.903   0.365  12.720
    1STR    H1Z 2618  12.135   0.407  12.776
    1STR    H20 2619  12.308   0.278  13.070
    1STR    H21 2620  12.364   0.246  12.905
    1STR    H22 2621  12.301   0.404  12.949
    1STR    H23 2622  12.105   0.051  13.173
    1STR    H27 2623  11.889   0.042  13.006
    1STR    H28 2624  10.052   0.379  12.864
    1STR    H29 2625   9.816   0.412  12.845
    1STR    H2A 2626   9.558   0.158  12.873
    1STR    H2B 2627   9.602   0.316  12.811
    1STR    H2C 2628   9.564   0.298  12.982
    1STR   BCK1 2629   9.576   4.259   0.102
    1STR    O03 2630   9.568   4.137   0.104
    1STR    N04 2631   9.686   4.330   0.136
    1STR    C05 2632   9.794   4.291   0.218
    1STR    C06 2633   9.932   4.309   0.182
    1STR    C07 2634  10.040   4.285   0.274
    1STR    N08 2635  10.176   4.308   0.240
    1STR    C09 2636  10.290   4.286   0.311
    1STR    O0A 2637  10.292   4.232   0.421
    1STR    O0B 2638  10.406   4.327   0.249
    1STR    C0C 2639  10.535   4.302   0.313
    1STR    C0D 2640  10.575   4.155   0.290
    1STR    C0E 2641  10.650   4.398   0.268
    1STR    O0F 2642  10.773   4.367   0.336
    1STR    C0G 2643  10.888   4.450   0.308
    1STR    C0H 2644  10.874   4.582   0.385
    1STR    C0I 2645  11.020   4.378   0.349
    1STR    O0J 2646  11.137   4.450   0.306
    1STR    C0K 2647  11.265   4.397   0.345
    1STR    C0M 2648  11.293   4.264   0.275
    1STR    C0N 2649  11.380   4.498   0.313
    1STR    O0O 2650  11.501   4.460   0.381
    1STR    C0P 2651  11.619   4.444   0.318
    1STR    O0Q 2652  11.641   4.459   0.198
    1STR    N0R 2653  11.709   4.405   0.408
    1STR    C0S 2654  11.841   4.359   0.403
    1STR    C0T 2655  11.882   4.286   0.516
    1STR    C0U 2656  12.009   4.229   0.522
    1STR    C0V 2657  12.102   4.245   0.418
    1STR    C0W 2658  12.230   4.168   0.437
    1STR    C0X 2659  12.070   4.327   0.305
    1STR    N0Y 2660  12.158   4.370   0.203
    1STR   BCK2 2661  12.285   4.359   0.156
    1STR    O10 2662  12.322   4.443   0.075
    1STR    C13 2663  11.936   4.379   0.299
    1STR    C14 2664  10.003   4.241   0.403
    1STR    C15 2665   9.869   4.224   0.441
    1STR    C16 2666   9.765   4.251   0.351
    1STR    C17 2667   9.622   4.245   0.404
    1STR    H1B 2668   9.680   4.428   0.115
    1STR    H1C 2669   9.954   4.343   0.082
    1STR    H1D 2670  10.196   4.347   0.149
    1STR    H1E 2671  10.523   4.318   0.420
    1STR    H1F 2672  10.590   4.134   0.184
    1STR    H1G 2673  10.668   4.132   0.342
    1STR    H1H 2674  10.499   4.087   0.328
    1STR    H1I 2675  10.620   4.500   0.288
    1STR    H1J 2676  10.665   4.390   0.160
    1STR    H1K 2677  10.893   4.469   0.201
    1STR    H1M 2678  10.862   4.565   0.492
    1STR    H1N 2679  10.788   4.641   0.351
    1STR    H1O 2680  10.962   4.645   0.371
    1STR    H1P 2681  11.022   4.364   0.457
    1STR    H1Q 2682  11.020   4.279   0.305
    1STR    H1R 2683  11.264   4.382   0.454
    1STR    H1S 2684  11.394   4.228   0.298
    1STR    H1T 2685  11.288   4.275   0.166
    1STR    H1U 2686  11.224   4.185   0.304
    1STR    H1V 2687  11.353   4.597   0.349
    1STR    H1W 2688  11.395   4.507   0.206
    1STR    H1X 2689  11.665   4.404   0.498
    1STR    H1Y 2690  11.815   4.270   0.599
    1STR    H1Z 2691  12.034   4.170   0.609
    1STR    H20 2692  12.246   4.103   0.352
    1STR    H21 2693  12.314   4.237   0.452
    1STR    H22 2694  12.228   4.103   0.524
    1STR    H23 2695  12.115   4.439   0.143
    1STR    H27 2696  11.905   4.439   0.214
    1STR    H28 2697  10.075   4.220   0.480
    1STR    H29 2698   9.847   4.193   0.542
    1STR    H2A 2699   9.566   4.332   0.373
    1STR    H2B 2700   9.620   4.241   0.513
    1STR    H2C 2701   9.572   4.156   0.366
    1STR   BCK1 2702   9.598   4.249   4.353
    1STR    O03 2703   9.553   4.341   4.286
    1STR    N04 2704   9.719   4.193   4.336
    1STR    C05 2705   9.813   4.208   4.232
    1STR    C06 2706   9.953   4.216   4.259
    1STR    C07 2707  10.052   4.215   4.156
    1STR    N08 2708  10.190   4.218   4.186
    1STR    C09 2709  10.295   4.182   4.108
    1STR    O0A 2710  10.284   4.135   3.995
    1STR    O0B 2711  10.417   4.201   4.169
    1STR    C0C 2712  10.540   4.179   4.096
    1STR    C0D 2713  10.570   4.304   4.010
    1STR    C0E 2714  10.660   4.145   4.189
    1STR    O0F 2715  10.782   4.123   4.115
    1STR    C0G 2716  10.897   4.081   4.192
    1STR    C0H 2717  10.883   3.932   4.225
    1STR    C0I 2718  11.029   4.108   4.115
    1STR    O0J 2719  11.146   4.086   4.198
    1STR    C0K 2720  11.275   4.102   4.136
    1STR    C0M 2721  11.298   4.249   4.097
    1STR    C0N 2722  11.389   4.056   4.232
    1STR    O0O 2723  11.517   4.057   4.166
    1STR    C0P 2724  11.632   4.090   4.230
    1STR    O0Q 2725  11.643   4.123   4.347
    1STR    N0R 2726  11.733   4.084   4.142
    1STR    C0S 2727  11.869   4.117   4.143
    1STR    C0T 2728  11.929   4.125   4.016
    1STR    C0U 2729  12.064   4.159   4.001
    1STR    C0V 2730  12.146   4.183   4.113
    1STR    C0W 2731  12.292   4.214   4.084
    1STR    C0X 2732  12.092   4.171   4.245
    1STR    N0Y 2733  12.175   4.171   4.359
    1STR   BCK2 2734  12.282   4.246   4.394
    1STR    O10 2735  12.316   4.351   4.341
    1STR    C13 2736  11.952   4.140   4.258
    1STR    C14 2737  10.005   4.213   4.023
    1STR    C15 2738   9.868   4.204   3.993
    1STR    C16 2739   9.772   4.197   4.096
    1STR    C17 2740   9.628   4.172   4.055
    1STR    H1B 2741   9.742   4.126   4.407
    1STR    H1C 2742   9.985   4.220   4.362
    1STR    H1D 2743  10.219   4.249   4.277
    1STR    H1E 2744  10.526   4.094   4.029
    1STR    H1F 2745  10.585   4.392   4.072
    1STR    H1G 2746  10.660   4.289   3.950
    1STR    H1H 2747  10.488   4.324   3.941
    1STR    H1I 2748  10.634   4.057   4.247
    1STR    H1J 2749  10.675   4.226   4.261
    1STR    H1K 2750  10.901   4.139   4.284
    1STR    H1M 2751  10.871   3.873   4.134
    1STR    H1N 2752  10.798   3.911   4.289
    1STR    H1O 2753  10.972   3.895   4.276
    1STR    H1P 2754  11.034   4.045   4.026
    1STR    H1Q 2755  11.028   4.211   4.080
    1STR    H1R 2756  11.280   4.039   4.047
    1STR    H1S 2757  11.399   4.263   4.058
    1STR    H1T 2758  11.287   4.314   4.183
    1STR    H1U 2759  11.230   4.283   4.019
    1STR    H1V 2760  11.370   3.954   4.267
    1STR    H1W 2761  11.391   4.118   4.322
    1STR    H1X 2762  11.696   4.052   4.054
    1STR    H1Y 2763  11.871   4.105   3.927
    1STR    H1Z 2764  12.105   4.164   3.902
    1STR    H20 2765  12.308   4.321   4.095
    1STR    H21 2766  12.358   4.161   4.152
    1STR    H22 2767  12.320   4.187   3.983
    1STR    H23 2768  12.155   4.099   4.426
    1STR    H27 2769  11.908   4.132   4.356
    1STR    H28 2770  10.073   4.217   3.939
    1STR    H29 2771   9.837   4.198   3.890
    1STR    H2A 2772   9.576   4.108   4.127
    1STR    H2B 2773   9.623   4.120   3.959
    1STR    H2C 2774   9.574   4.266   4.045
    1STR   BCK1 2775   9.595   4.360   8.827
    1STR    O03 2776   9.555   4.410   8.931
    1STR    N04 2777   9.711   4.394   8.766
    1STR    C05 2778   9.804   4.497   8.795
    1STR    C06 2779   9.946   4.476   8.782
    1STR    C07 2780  10.043   4.580   8.804
    1STR    N08 2781  10.182   4.559   8.784
    1STR    C09 2782  10.288   4.639   8.814
    1STR    O0A 2783  10.279   4.746   8.874
    1STR    O0B 2784  10.410   4.589   8.771
    1STR    C0C 2785  10.534   4.660   8.802
    1STR    C0D 2786  10.572   4.631   8.949
    1STR    C0E 2787  10.653   4.627   8.707
    1STR    O0F 2788  10.776   4.693   8.746
    1STR    C0G 2789  10.893   4.673   8.663
    1STR    C0H 2790  10.880   4.761   8.538
    1STR    C0I 2791  11.024   4.707   8.741
    1STR    O0J 2792  11.145   4.667   8.670
    1STR    C0K 2793  11.272   4.695   8.734
    1STR    C0M 2794  11.287   4.612   8.863
    1STR    C0N 2795  11.393   4.664   8.641
    1STR    O0O 2796  11.517   4.708   8.700
    1STR    C0P 2797  11.632   4.634   8.697
    1STR    O0Q 2798  11.644   4.521   8.651
    1STR    N0R 2799  11.731   4.707   8.750
    1STR    C0S 2800  11.869   4.688   8.776
    1STR    C0T 2801  11.935   4.805   8.817
    1STR    C0U 2802  12.072   4.804   8.848
    1STR    C0V 2803  12.147   4.686   8.839
    1STR    C0W 2804  12.297   4.697   8.867
    1STR    C0X 2805  12.085   4.564   8.801
    1STR    N0Y 2806  12.164   4.448   8.788
    1STR   BCK2 2807  12.247   4.395   8.880
    1STR    O10 2808  12.251   4.432   8.997
    1STR    C13 2809  11.945   4.567   8.767
    1STR    C14 2810   9.992   4.707   8.841
    1STR    C15 2811   9.854   4.730   8.852
    1STR    C16 2812   9.760   4.629   8.825
    1STR    C17 2813   9.614   4.672   8.823
    1STR    H1B 2814   9.734   4.335   8.688
    1STR    H1C 2815   9.980   4.378   8.755
    1STR    H1D 2816  10.211   4.473   8.742
    1STR    H1E 2817  10.515   4.767   8.793
    1STR    H1F 2818  10.592   4.525   8.965
    1STR    H1G 2819  10.661   4.687   8.977
    1STR    H1H 2820  10.492   4.661   9.017
    1STR    H1I 2821  10.626   4.655   8.606
    1STR    H1J 2822  10.670   4.519   8.706
    1STR    H1K 2823  10.898   4.568   8.635
    1STR    H1M 2824  10.868   4.866   8.564
    1STR    H1N 2825  10.796   4.732   8.475
    1STR    H1O 2826  10.970   4.753   8.476
    1STR    H1P 2827  11.028   4.814   8.762
    1STR    H1Q 2828  11.020   4.656   8.837
    1STR    H1R 2829  11.275   4.801   8.759
    1STR    H1S 2830  11.385   4.626   8.907
    1STR    H1T 2831  11.276   4.506   8.841
    1STR    H1U 2832  11.214   4.639   8.939
    1STR    H1V 2833  11.382   4.718   8.546
    1STR    H1W 2834  11.397   4.558   8.616
    1STR    H1X 2835  11.695   4.797   8.775
    1STR    H1Y 2836  11.883   4.899   8.825
    1STR    H1Z 2837  12.120   4.896   8.878
    1STR    H20 2838  12.317   4.668   8.970
    1STR    H21 2839  12.354   4.633   8.801
    1STR    H22 2840  12.333   4.799   8.855
    1STR    H23 2841  12.162   4.401   8.699
    1STR    H27 2842  11.895   4.477   8.735
    1STR    H28 2843  10.056   4.791   8.860
    1STR    H29 2844   9.821   4.830   8.877
    1STR    H2A 2845   9.557   4.615   8.750
    1STR    H2B 2846   9.604   4.777   8.796
    1STR    H2C 2847   9.570   4.659   8.922
    1STR   BCK1 2848   9.585   4.280  13.148
    1STR    O03 2849   9.542   4.367  13.073
    1STR    N04 2850   9.716   4.249  13.139
    1STR    C05 2851   9.808   4.154  13.188
    1STR    C06 2852   9.946   4.192  13.193
    1STR    C07 2853  10.051   4.102  13.228
    1STR    N08 2854  10.187   4.142  13.226
    1STR    C09 2855  10.300   4.068  13.238
    1STR    O0A 2856  10.301   3.946  13.253
    1STR    O0B 2857  10.415   4.142  13.230
    1STR    C0C 2858  10.543   4.075  13.237
    1STR    C0D 2859  10.576   4.010  13.102
    1STR    C0E 2860  10.659   4.169  13.282
    1STR    O0F 2861  10.782   4.095  13.297
    1STR    C0G 2862  10.896   4.168  13.345
    1STR    C0H 2863  10.882   4.188  13.497
    1STR    C0I 2864  11.027   4.090  13.313
    1STR    O0J 2865  11.144   4.166  13.347
    1STR    C0K 2866  11.271   4.101  13.327
    1STR    C0M 2867  11.300   4.083  13.177
    1STR    C0N 2868  11.386   4.184  13.392
    1STR    O0O 2869  11.508   4.108  13.396
    1STR    C0P 2870  11.628   4.162  13.364
    1STR    O0Q 2871  11.647   4.276  13.324
    1STR    N0R 2872  11.723   4.068  13.377
    1STR    C0S 2873  11.859   4.063  13.343
    1STR    C0T 2874  11.914   3.935  13.332
    1STR    C0U 2875  12.045   3.917  13.285
    1STR    C0V 2876  12.126   4.027  13.251
    1STR    C0W 2877  12.256   3.997  13.177
    1STR    C0X 2878  12.079   4.159  13.275
    1STR    N0Y 2879  12.155   4.273  13.246
    1STR   BCK2 2880  12.283   4.310  13.265
    1STR    O10 2881  12.320   4.418  13.218
    1STR    C13 2882  11.943   4.175  13.317
    1STR    C14 2883  10.012   3.971  13.264
    1STR    C15 2884   9.878   3.930  13.258
    1STR    C16 2885   9.777   4.018  13.216
    1STR    C17 2886   9.640   3.955  13.198
    1STR    H1B 2887   9.757   4.317  13.078
    1STR    H1C 2888   9.972   4.293  13.167
    1STR    H1D 2889  10.207   4.239  13.210
    1STR    H1E 2890  10.536   3.996  13.313
    1STR    H1F 2891  10.585   4.084  13.022
    1STR    H1G 2892  10.669   3.954  13.107
    1STR    H1H 2893  10.498   3.938  13.072
    1STR    H1I 2894  10.631   4.216  13.376
    1STR    H1J 2895  10.672   4.249  13.209
    1STR    H1K 2896  10.902   4.264  13.295
    1STR    H1M 2897  10.868   4.093  13.548
    1STR    H1N 2898  10.797   4.252  13.522
    1STR    H1O 2899  10.971   4.236  13.538
    1STR    H1P 2900  11.027   3.995  13.367
    1STR    H1Q 2901  11.027   4.066  13.207
    1STR    H1R 2902  11.269   4.004  13.376
    1STR    H1S 2903  11.400   4.043  13.161
    1STR    H1T 2904  11.294   4.179  13.125
    1STR    H1U 2905  11.230   4.015  13.129
    1STR    H1V 2906  11.360   4.210  13.495
    1STR    H1W 2907  11.399   4.279  13.340
    1STR    H1X 2908  11.682   3.984  13.413
    1STR    H1Y 2909  11.856   3.847  13.353
    1STR    H1Z 2910  12.083   3.816  13.270
    1STR    H20 2911  12.289   4.082  13.117
    1STR    H21 2912  12.334   3.970  13.247
    1STR    H22 2913  12.242   3.914  13.108
    1STR    H23 2914  12.103   4.348  13.203
    1STR    H27 2915  11.902   4.274  13.329
    1STR    H28 2916  10.083   3.896  13.295
    1STR    H29 2917   9.855   3.827  13.282
    1STR    H2A 2918   9.582   3.965  13.289
    1STR    H2B 2919   9.648   3.849  13.177
    1STR    H2C 2920   9.587   4.000  13.114
    1STR   BCK1 2921   9.595   8.680  17.412
    1STR    O03 2922   9.546   8.792  17.421
    1STR    N04 2923   9.716   8.652  17.357
    1STR    C05 2924   9.807   8.733  17.285
    1STR    C06 2925   9.949   8.719  17.304
    1STR    C07 2926  10.045   8.790  17.224
    1STR    N08 2927  10.185   8.771  17.241
    1STR    C09 2928  10.289   8.809  17.162
    1STR    O0A 2929  10.276   8.868  17.055
    1STR    O0B 2930  10.412   8.773  17.211
    1STR    C0C 2931  10.534   8.816  17.145
    1STR    C0D 2932  10.565   8.961  17.187
    1STR    C0E 2933  10.657   8.724  17.173
    1STR    O0F 2934  10.779   8.770  17.110
    1STR    C0G 2935  10.896   8.686  17.122
    1STR    C0H 2936  10.884   8.570  17.022
    1STR    C0I 2937  11.029   8.765  17.097
    1STR    O0J 2938  11.147   8.689  17.132
    1STR    C0K 2939  11.276   8.750  17.110
    1STR    C0M 2940  11.294   8.872  17.201
    1STR    C0N 2941  11.392   8.648  17.138
    1STR    O0O 2942  11.521   8.703  17.104
    1STR    C0P 2943  11.633   8.681  17.179
    1STR    O0Q 2944  11.637   8.623  17.287
    1STR    N0R 2945  11.739   8.733  17.117
    1STR    C0S 2946  11.876   8.752  17.146
    1STR    C0T 2947  11.947   8.824  17.048
    1STR    C0U 2948  12.080   8.862  17.068
    1STR    C0V 2949  12.148   8.827  17.186
    1STR    C0W 2950  12.285   8.890  17.205
    1STR    C0X 2951  12.086   8.743  17.283
    1STR    N0Y 2952  12.157   8.702  17.398
    1STR   BCK2 2953  12.283   8.652  17.405
    1STR    O10 2954  12.351   8.626  17.306
    1STR    C13 2955  11.947   8.710  17.263
    1STR    C14 2956   9.993   8.880  17.129
    1STR    C15 2957   9.855   8.894  17.107
    1STR    C16 2958   9.762   8.819  17.181
    1STR    C17 2959   9.616   8.830  17.139
    1STR    H1B 2960   9.743   8.556  17.370
    1STR    H1C 2961   9.984   8.651  17.380
    1STR    H1D 2962  10.216   8.721  17.322
    1STR    H1E 2963  10.517   8.815  17.037
    1STR    H1F 2964  10.583   8.969  17.294
    1STR    H1G 2965  10.653   8.999  17.135
    1STR    H1H 2966  10.482   9.028  17.162
    1STR    H1I 2967  10.633   8.624  17.137
    1STR    H1J 2968  10.673   8.716  17.280
    1STR    H1K 2969  10.901   8.647  17.224
    1STR    H1M 2970  10.872   8.607  16.920
    1STR    H1N 2971  10.800   8.505  17.045
    1STR    H1O 2972  10.974   8.508  17.024
    1STR    H1P 2973  11.034   8.797  16.993
    1STR    H1Q 2974  11.025   8.856  17.157
    1STR    H1R 2975  11.283   8.780  17.005
    1STR    H1S 2976  11.394   8.914  17.191
    1STR    H1T 2977  11.280   8.845  17.305
    1STR    H1U 2978  11.224   8.953  17.177
    1STR    H1V 2979  11.378   8.558  17.078
    1STR    H1W 2980  11.390   8.616  17.242
    1STR    H1X 2981  11.709   8.770  17.028
    1STR    H1Y 2982  11.899   8.855  16.956
    1STR    H1Z 2983  12.130   8.921  16.993
    1STR    H20 2984  12.308   8.903  17.311
    1STR    H21 2985  12.363   8.828  17.160
    1STR    H22 2986  12.290   8.989  17.159
    1STR    H23 2987  12.109   8.707   0.046
    1STR    H27 2988  11.895   8.651  17.337
    1STR    H28 2989  10.058   8.941  17.067
    1STR    H29 2990   9.821   8.961  17.030
    1STR    H2A 2991   9.564   8.735  17.152
    1STR    H2B 2992   9.608   8.857  17.034
    1STR    H2C 2993   9.566   8.907  17.197
    1STR   BCK1 2994   9.603   8.627   4.492
    1STR    O03 2995   9.598   8.562   4.596
    1STR    N04 2996   9.702   8.716   4.466
    1STR    C05 2997   9.802   8.759   4.555
    1STR    C06 2998   9.942   8.756   4.522
    1STR    C07 2999  10.044   8.801   4.613
    1STR    N08 3000  10.182   8.801   4.578
    1STR    C09 3001  10.292   8.821   4.655
    1STR    O0A 3002  10.288   8.834   4.777
    1STR    O0B 3003  10.410   8.824   4.584
    1STR    C0C 3004  10.536   8.838   4.655
    1STR    C0D 3005  10.576   8.703   4.716
    1STR    C0E 3006  10.652   8.895   4.567
    1STR    O0F 3007  10.775   8.906   4.642
    1STR    C0G 3008  10.890   8.959   4.573
    1STR    C0H 3009  10.877   9.112   4.566
    1STR    C0I 3010  11.022   8.920   4.647
    1STR    O0J 3011  11.141   8.953   4.572
    1STR    C0K 3012  11.267   8.923   4.635
    1STR    C0M 3013  11.288   8.771   4.646
    1STR    C0N 3014  11.387   8.984   4.556
    1STR    O0O 3015  11.507   8.977   4.635
    1STR    C0P 3016  11.626   8.931   4.587
    1STR    O0Q 3017  11.647   8.889   4.474
    1STR    N0R 3018  11.716   8.940   4.685
    1STR    C0S 3019  11.852   8.908   4.701
    1STR    C0T 3020  11.904   8.937   4.828
    1STR    C0U 3021  12.039   8.913   4.858
    1STR    C0V 3022  12.127   8.861   4.761
    1STR    C0W 3023  12.272   8.852   4.803
    1STR    C0X 3024  12.079   8.827   4.631
    1STR    N0Y 3025  12.160   8.787   4.523
    1STR   BCK2 3026  12.278   8.727   4.496
    1STR    O10 3027  12.320   8.735   4.381
    1STR    C13 3028  11.940   8.853   4.603
    1STR    C14 3029  10.000   8.850   4.738
    1STR    C15 3030   9.864   8.857   4.770
    1STR    C16 3031   9.765   8.815   4.680
    1STR    C17 3032   9.620   8.838   4.719
    1STR    H1B 3033   9.698   8.759   4.375
    1STR    H1C 3034   9.971   8.717   4.426
    1STR    H1D 3035  10.206   8.784   4.482
    1STR    H1E 3036  10.521   8.910   4.737
    1STR    H1F 3037  10.592   8.627   4.639
    1STR    H1G 3038  10.668   8.712   4.774
    1STR    H1H 3039  10.499   8.666   4.784
    1STR    H1I 3040  10.623   8.992   4.529
    1STR    H1J 3041  10.667   8.830   4.481
    1STR    H1K 3042  10.895   8.918   4.473
    1STR    H1M 3043  10.865   9.156   4.665
    1STR    H1N 3044  10.792   9.144   4.506
    1STR    H1O 3045  10.966   9.157   4.521
    1STR    H1P 3046  11.025   8.967   4.745
    1STR    H1Q 3047  11.018   8.812   4.665
    1STR    H1R 3048  11.267   8.968   4.734
    1STR    H1S 3049  11.387   8.749   4.685
    1STR    H1T 3050  11.280   8.724   4.548
    1STR    H1U 3051  11.216   8.724   4.713
    1STR    H1V 3052  11.368   9.090   4.535
    1STR    H1W 3053  11.400   8.936   4.459
    1STR    H1X 3054  11.671   8.981   4.765
    1STR    H1Y 3055  11.842   8.980   4.905
    1STR    H1Z 3056  12.075   8.938   4.956
    1STR    H20 3057  12.294   8.749   4.833
    1STR    H21 3058  12.338   8.884   4.723
    1STR    H22 3059  12.293   8.915   4.889
    1STR    H23 3060  12.121   8.812   4.434
    1STR    H27 3061  11.900   8.831   4.505
    1STR    H28 3062  10.068   8.886   4.812
    1STR    H29 3063   9.835   8.897   4.867
    1STR    H2A 3064   9.560   8.869   4.633
    1STR    H2B 3065   9.611   8.917   4.794
    1STR    H2C 3066   9.577   8.747   4.760
    1STR   BCK1 3067   9.595   8.599   8.750
    1STR    O03 3068   9.561   8.648   8.643
    1STR    N04 3069   9.714   8.540   8.772
    1STR    C05 3070   9.812   8.502   8.678
    1STR    C06 3071   9.951   8.527   8.702
    1STR    C07 3072  10.053   8.477   8.616
    1STR    N08 3073  10.191   8.497   8.643
    1STR    C09 3074  10.298   8.427   8.600
    1STR    O0A 3075  10.289   8.326   8.530
    1STR    O0B 3076  10.417   8.479   8.641
    1STR    C0C 3077  10.542   8.423   8.592
    1STR    C0D 3078  10.572   8.484   8.454
    1STR    C0E 3079  10.661   8.445   8.690
    1STR    O0F 3080  10.783   8.386   8.640
    1STR    C0G 3081  10.898   8.392   8.727
    1STR    C0H 3082  10.883   8.285   8.836
    1STR    C0I 3083  11.029   8.370   8.646
    1STR    O0J 3084  11.147   8.392   8.726
    1STR    C0K 3085  11.275   8.371   8.663
    1STR    C0M 3086  11.300   8.479   8.556
    1STR    C0N 3087  11.390   8.375   8.769
    1STR    O0O 3088  11.516   8.336   8.711
    1STR    C0P 3089  11.633   8.396   8.747
    1STR    O0Q 3090  11.644   8.491   8.823
    1STR    N0R 3091  11.735   8.336   8.684
    1STR    C0S 3092  11.873   8.362   8.674
    1STR    C0T 3093  11.943   8.286   8.578
    1STR    C0U 3094  12.078   8.312   8.550
    1STR    C0V 3095  12.148   8.414   8.617
    1STR    C0W 3096  12.286   8.450   8.564
    1STR    C0X 3097  12.085   8.485   8.723
    1STR    N0Y 3098  12.147   8.592   8.791
    1STR   BCK2 3099  12.269   8.620   8.841
    1STR    O10 3100  12.287   8.733   8.886
    1STR    C13 3101  11.946   8.460   8.747
    1STR    C14 3102  10.011   8.405   8.501
    1STR    C15 3103   9.876   8.378   8.477
    1STR    C16 3104   9.776   8.422   8.566
    1STR    C17 3105   9.634   8.375   8.541
    1STR    H1B 3106   9.730   8.514   8.867
    1STR    H1C 3107   9.979   8.585   8.789
    1STR    H1D 3108  10.216   8.573   8.704
    1STR    H1E 3109  10.530   8.315   8.581
    1STR    H1F 3110  10.585   8.592   8.459
    1STR    H1G 3111  10.663   8.441   8.412
    1STR    H1H 3112  10.491   8.463   8.383
    1STR    H1I 3113  10.634   8.401   8.786
    1STR    H1J 3114  10.675   8.552   8.707
    1STR    H1K 3115  10.904   8.491   8.772
    1STR    H1M 3116  10.870   8.186   8.792
    1STR    H1N 3117  10.799   8.304   8.902
    1STR    H1O 3118  10.973   8.281   8.898
    1STR    H1P 3119  11.030   8.269   8.604
    1STR    H1Q 3120  11.028   8.439   8.561
    1STR    H1R 3121  11.275   8.272   8.617
    1STR    H1S 3122  11.400   8.469   8.515
    1STR    H1T 3123  11.291   8.579   8.599
    1STR    H1U 3124  11.230   8.472   8.473
    1STR    H1V 3125  11.368   8.306   8.850
    1STR    H1W 3126  11.396   8.474   8.814
    1STR    H1X 3127  11.700   8.259   8.630
    1STR    H1Y 3128  11.893   8.209   8.521
    1STR    H1Z 3129  12.127   8.256   8.472
    1STR    H20 3130  12.309   8.555   8.580
    1STR    H21 3131  12.363   8.389   8.610
    1STR    H22 3132  12.291   8.433   8.456
    1STR    H23 3133  12.085   8.669   8.810
    1STR    H27 3134  11.894   8.518   8.822
    1STR    H28 3135  10.082   8.368   8.429
    1STR    H29 3136   9.849   8.319   8.391
    1STR    H2A 3137   9.581   8.356   8.635
    1STR    H2B 3138   9.632   8.283   8.484
    1STR    H2C 3139   9.579   8.451   8.486
    1STR   BCK1 3140   9.594   8.736  13.126
    1STR    O03 3141   9.549   8.822  13.201
    1STR    N04 3142   9.713   8.745  13.061
    1STR    C05 3143   9.804   8.853  13.048
    1STR    C06 3144   9.946   8.831  13.048
    1STR    C07 3145  10.042   8.936  13.026
    1STR    N08 3146  10.182   8.911  13.020
    1STR    C09 3147  10.287   8.996  13.001
    1STR    O0A 3148  10.276   9.118  12.990
    1STR    O0B 3149  10.410   8.933  12.995
    1STR    C0C 3150  10.532   9.012  12.985
    1STR    C0D 3151  10.567   9.068  13.124
    1STR    C0E 3152  10.654   8.934  12.925
    1STR    O0F 3153  10.776   9.013  12.923
    1STR    C0G 3154  10.894   8.952  12.864
    1STR    C0H 3155  10.882   8.960  12.711
    1STR    C0I 3156  11.025   9.022  12.912
    1STR    O0J 3157  11.145   8.949  12.876
    1STR    C0K 3158  11.273   9.006  12.914
    1STR    C0M 3159  11.287   9.007  13.067
    1STR    C0N 3160  11.393   8.926  12.853
    1STR    O0O 3161  11.519   8.991  12.877
    1STR    C0P 3162  11.631   8.924  12.919
    1STR    O0Q 3163  11.636   8.807  12.955
    1STR    N0R 3164  11.736   9.007  12.915
    1STR    C0S 3165  11.873   9.000  12.947
    1STR    C0T 3166  11.947   9.113  12.907
    1STR    C0U 3167  12.082   9.128  12.942
    1STR    C0V 3168  12.148   9.031  13.019
    1STR    C0W 3169  12.288   9.064  13.067
    1STR    C0X 3170  12.081   8.910  13.054
    1STR    N0Y 3171  12.149   8.814  13.132
    1STR   BCK2 3172  12.271   8.760  13.110
    1STR    O10 3173  12.334   8.776  13.006
    1STR    C13 3174  11.942   8.898  13.020
    1STR    C14 3175   9.989   9.066  13.007
    1STR    C15 3176   9.850   9.089  13.004
    1STR    C16 3177   9.758   8.985  13.020
    1STR    C17 3178   9.612   9.020  12.998
    1STR    H1B 3179   9.738   8.659  13.015
    1STR    H1C 3180   9.982   8.731  13.065
    1STR    H1D 3181  10.213   8.816  13.030
    1STR    H1E 3182  10.513   9.097  12.918
    1STR    H1F 3183  10.588   8.988  13.195
    1STR    H1G 3184  10.656   9.132  13.119
    1STR    H1H 3185  10.486   9.129  13.164
    1STR    H1I 3186  10.628   8.903  12.824
    1STR    H1J 3187  10.671   8.843  12.983
    1STR    H1K 3188  10.899   8.848  12.896
    1STR    H1M 3189  10.869   9.063  12.678
    1STR    H1N 3190  10.798   8.902  12.673
    1STR    H1O 3191  10.972   8.921  12.664
    1STR    H1P 3192  11.030   9.124  12.873
    1STR    H1Q 3193  11.020   9.031  13.021
    1STR    H1R 3194  11.278   9.108  12.876
    1STR    H1S 3195  11.386   9.042  13.096
    1STR    H1T 3196  11.275   8.907  13.108
    1STR    H1U 3197  11.215   9.073  13.115
    1STR    H1V 3198  11.381   8.918  12.745
    1STR    H1W 3199  11.394   8.823  12.890
    1STR    H1X 3200  11.705   9.095  12.877
    1STR    H1Y 3201  11.902   9.192  12.849
    1STR    H1Z 3202  12.135   9.217  12.912
    1STR    H20 3203  12.307   9.023  13.166
    1STR    H21 3204  12.363   9.024  12.998
    1STR    H22 3205  12.303   9.172  13.074
    1STR    H23 3206  12.103   8.783  13.217
    1STR    H27 3207  11.887   8.810  13.050
    1STR    H28 3208  10.051   9.152  12.991
    1STR    H29 3209   9.815   9.190  12.985
    1STR    H2A 3210   9.556   8.937  12.954
    1STR    H2B 3211   9.601   9.105  12.931
    1STR    H2C 3212   9.565   9.047  13.093
    1STR   BCK1 3213   9.583  13.004   0.073
    1STR    O03 3214   9.554  13.063  17.409
    1STR    N04 3215   9.715  12.997   0.104
    1STR    C05 3216   9.808  12.943   0.197
    1STR    C06 3217   9.946  12.973   0.172
    1STR    C07 3218  10.054  12.927   0.253
    1STR    N08 3219  10.189  12.960   0.226
    1STR    C09 3220  10.303  12.906   0.276
    1STR    O0A 3221  10.305  12.809   0.352
    1STR    O0B 3222  10.417  12.968   0.234
    1STR    C0C 3223  10.546  12.919   0.280
    1STR    C0D 3224  10.583  12.792   0.201
    1STR    C0E 3225  10.659  13.025   0.270
    1STR    O0F 3226  10.783  12.972   0.323
    1STR    C0G 3227  10.896  13.060   0.325
    1STR    C0H 3228  10.881  13.159   0.442
    1STR    C0I 3229  11.027  12.978   0.340
    1STR    O0J 3230  11.145  13.060   0.327
    1STR    C0K 3231  11.272  12.995   0.346
    1STR    C0M 3232  11.301  12.898   0.230
    1STR    C0N 3233  11.387  13.100   0.355
    1STR    O0O 3234  11.507  13.040   0.405
    1STR    C0P 3235  11.628  13.055   0.344
    1STR    O0Q 3236  11.648  13.118   0.241
    1STR    N0R 3237  11.720  12.988   0.413
    1STR    C0S 3238  11.854  12.954   0.388
    1STR    C0T 3239  11.902  12.841   0.455
    1STR    C0U 3240  12.029  12.789   0.427
    1STR    C0V 3241  12.113  12.851   0.332
    1STR    C0W 3242  12.236  12.773   0.289
    1STR    C0X 3243  12.075  12.975   0.275
    1STR    N0Y 3244  12.156  13.045   0.184
    1STR   BCK2 3245  12.287  13.077   0.177
    1STR    O10 3246  12.328  13.133   0.076
    1STR    C13 3247  11.942  13.022   0.299
    1STR    C14 3248  10.019  12.848   0.365
    1STR    C15 3249   9.885  12.817   0.393
    1STR    C16 3250   9.780  12.863   0.312
    1STR    C17 3251   9.643  12.821   0.359
    1STR    H1B 3252   9.759  13.050   0.032
    1STR    H1C 3253   9.971  13.034   0.086
    1STR    H1D 3254  10.208  13.033   0.160
    1STR    H1E 3255  10.536  12.893   0.385
    1STR    H1F 3256  10.594  12.812   0.095
    1STR    H1G 3257  10.677  12.751   0.238
    1STR    H1H 3258  10.507  12.714   0.213
    1STR    H1I 3259  10.629  13.114   0.325
    1STR    H1J 3260  10.673  13.055   0.166
    1STR    H1K 3261  10.902  13.114   0.230
    1STR    H1M 3262  10.868  13.106   0.536
    1STR    H1N 3263  10.796  13.226   0.429
    1STR    H1O 3264  10.970  13.221   0.451
    1STR    H1P 3265  11.028  12.927   0.437
    1STR    H1Q 3266  11.028  12.900   0.264
    1STR    H1R 3267  11.269  12.940   0.440
    1STR    H1S 3268  11.401  12.855   0.239
    1STR    H1T 3269  11.295  12.949   0.134
    1STR    H1U 3270  11.231  12.814   0.228
    1STR    H1V 3271  11.359  13.179   0.425
    1STR    H1W 3272  11.403  13.149   0.259
    1STR    H1X 3273  11.678  12.947   0.495
    1STR    H1Y 3274  11.841  12.788   0.526
    1STR    H1Z 3275  12.061  12.697   0.474
    1STR    H20 3276  12.272  12.805   0.191
    1STR    H21 3277  12.317  12.783   0.361
    1STR    H22 3278  12.213  12.667   0.280
    1STR    H23 3279  12.107  13.086   0.106
    1STR    H27 3280  11.907  13.112   0.250
    1STR    H28 3281  10.092  12.810   0.434
    1STR    H29 3282   9.865  12.756   0.480
    1STR    H2A 3283   9.583  12.910   0.380
    1STR    H2B 3284   9.646  12.763   0.451
    1STR    H2C 3285   9.596  12.757   0.284
    1STR   BCK1 3286   9.598  12.990   4.335
    1STR    O03 3287   9.550  13.097   4.296
    1STR    N04 3288   9.719  12.943   4.299
    1STR    C05 3289   9.811  12.987   4.202
    1STR    C06 3290   9.952  12.986   4.228
    1STR    C07 3291  10.050  13.016   4.128
    1STR    N08 3292  10.189  13.008   4.154
    1STR    C09 3293  10.293  13.000   4.068
    1STR    O0A 3294  10.281  12.994   3.946
    1STR    O0B 3295  10.416  12.998   4.131
    1STR    C0C 3296  10.538  13.001   4.053
    1STR    C0D 3297  10.568  13.147   4.013
    1STR    C0E 3298  10.660  12.938   4.128
    1STR    O0F 3299  10.782  12.943   4.050
    1STR    C0G 3300  10.897  12.878   4.107
    1STR    C0H 3301  10.885  12.726   4.087
    1STR    C0I 3302  11.030  12.930   4.044
    1STR    O0J 3303  11.147  12.882   4.114
    1STR    C0K 3304  11.277  12.919   4.062
    1STR    C0M 3305  11.298  13.071   4.075
    1STR    C0N 3306  11.391  12.845   4.139
    1STR    O0O 3307  11.520  12.869   4.079
    1STR    C0P 3308  11.634  12.883   4.154
    1STR    O0Q 3309  11.639  12.884   4.277
    1STR    N0R 3310  11.738  12.898   4.072
    1STR    C0S 3311  11.875  12.928   4.088
    1STR    C0T 3312  11.943  12.957   3.968
    1STR    C0U 3313  12.076  12.999   3.969
    1STR    C0V 3314  12.147  13.012   4.090
    1STR    C0W 3315  12.285  13.077   4.081
    1STR    C0X 3316  12.088  12.970   4.213
    1STR    N0Y 3317  12.162  12.974   4.333
    1STR   BCK2 3318  12.287  12.929   4.356
    1STR    O10 3319  12.355  12.870   4.272
    1STR    C13 3320  11.949  12.933   4.210
    1STR    C14 3321  10.001  13.054   4.001
    1STR    C15 3322   9.863  13.055   3.973
    1STR    C16 3323   9.769  13.018   4.070
    1STR    C17 3324   9.624  13.008   4.025
    1STR    H1B 3325   9.745  12.860   4.350
    1STR    H1C 3326   9.986  12.959   4.327
    1STR    H1D 3327  10.219  13.008   4.250
    1STR    H1E 3328  10.523  12.943   3.962
    1STR    H1F 3329  10.584  13.210   4.101
    1STR    H1G 3330  10.658  13.153   3.951
    1STR    H1H 3331  10.486  13.190   3.956
    1STR    H1I 3332  10.634  12.835   4.152
    1STR    H1J 3333  10.675  12.989   4.223
    1STR    H1K 3334  10.902  12.901   4.214
    1STR    H1M 3335  10.872  12.702   3.981
    1STR    H1N 3336  10.800  12.684   4.141
    1STR    H1O 3337  10.974  12.675   4.122
    1STR    H1P 3338  11.035  12.901   3.938
    1STR    H1Q 3339  11.028  13.039   4.046
    1STR    H1R 3340  11.282  12.891   3.957
    1STR    H1S 3341  11.398  13.099   4.044
    1STR    H1T 3342  11.285  13.103   4.179
    1STR    H1U 3343  11.229  13.128   4.013
    1STR    H1V 3344  11.374  12.737   4.136
    1STR    H1W 3345  11.391  12.873   4.244
    1STR    H1X 3346  11.706  12.890   3.977
    1STR    H1Y 3347  11.892  12.951   3.873
    1STR    H1Z 3348  12.124  13.026   3.876
    1STR    H20 3349  12.310  13.128   4.174
    1STR    H21 3350  12.361  13.002   4.060
    1STR    H22 3351  12.287  13.152   4.002
    1STR    H23 3352  12.115  13.011   4.414
    1STR    H27 3353  11.899  12.907   4.303
    1STR    H28 3354  10.067  13.083   3.921
    1STR    H29 3355   9.831  13.081   3.873
    1STR    H2A 3356   9.572  12.926   4.076
    1STR    H2B 3357   9.617  12.987   3.918
    1STR    H2C 3358   9.571  13.101   4.045
    1STR   BCK1 3359   9.603  13.048   8.848
    1STR    O03 3360   9.582  13.048   8.969
    1STR    N04 3361   9.709  13.108   8.790
    1STR    C05 3362   9.804  13.194   8.849
    1STR    C06 3363   9.945  13.178   8.826
    1STR    C07 3364  10.043  13.268   8.881
    1STR    N08 3365  10.182  13.254   8.853
    1STR    C09 3366  10.290  13.316   8.908
    1STR    O0A 3367  10.283  13.394   9.002
    1STR    O0B 3368  10.410  13.283   8.849
    1STR    C0C 3369  10.534  13.336   8.902
    1STR    C0D 3370  10.573  13.256   9.028
    1STR    C0E 3371  10.652  13.337   8.800
    1STR    O0F 3372  10.775  13.386   8.859
    1STR    C0G 3373  10.892  13.395   8.773
    1STR    C0H 3374  10.879  13.520   8.685
    1STR    C0I 3375  11.023  13.400   8.858
    1STR    O0J 3376  11.143  13.388   8.778
    1STR    C0K 3377  11.269  13.394   8.848
    1STR    C0M 3378  11.287  13.272   8.939
    1STR    C0N 3379  11.391  13.402   8.750
    1STR    O0O 3380  11.512  13.433   8.821
    1STR    C0P 3381  11.629  13.365   8.804
    1STR    O0Q 3382  11.644  13.265   8.735
    1STR    N0R 3383  11.725  13.425   8.875
    1STR    C0S 3384  11.862  13.401   8.900
    1STR    C0T 3385  11.927  13.503   8.972
    1STR    C0U 3386  12.062  13.491   9.006
    1STR    C0V 3387  12.138  13.378   8.970
    1STR    C0W 3388  12.283  13.381   9.011
    1STR    C0X 3389  12.077  13.272   8.897
    1STR    N0Y 3390  12.144  13.159   8.844
    1STR   BCK2 3391  12.258  13.085   8.850
    1STR    O10 3392  12.271  12.999   8.763
    1STR    C13 3393  11.938  13.287   8.863
    1STR    C14 3394   9.995  13.374   8.961
    1STR    C15 3395   9.857  13.392   8.982
    1STR    C16 3396   9.762  13.307   8.925
    1STR    C17 3397   9.615  13.344   8.942
    1STR    H1B 3398   9.717  13.091   8.691
    1STR    H1C 3399   9.978  13.096   8.765
    1STR    H1D 3400  10.209  13.188   8.782
    1STR    H1E 3401  10.517  13.440   8.932
    1STR    H1F 3402  10.591  13.152   9.005
    1STR    H1G 3403  10.663  13.297   9.074
    1STR    H1H 3404  10.494  13.261   9.104
    1STR    H1I 3405  10.624  13.399   8.715
    1STR    H1J 3406  10.668  13.236   8.762
    1STR    H1K 3407  10.897  13.306   8.711
    1STR    H1M 3408  10.867  13.610   8.745
    1STR    H1N 3409  10.794  13.514   8.617
    1STR    H1O 3410  10.968  13.533   8.624
    1STR    H1P 3411  11.026  13.493   8.915
    1STR    H1Q 3412  11.019  13.319   8.930
    1STR    H1R 3413  11.270  13.485   8.908
    1STR    H1S 3414  11.386  13.271   8.985
    1STR    H1T 3415  11.278  13.179   8.882
    1STR    H1U 3416  11.214  13.269   9.020
    1STR    H1V 3417  11.375  13.481   8.677
    1STR    H1W 3418  11.401  13.309   8.693
    1STR    H1X 3419  11.686  13.506   8.919
    1STR    H1Y 3420  11.875  13.593   9.001
    1STR    H1Z 3421  12.108  13.572   9.061
    1STR    H20 3422  12.300  13.309   9.091
    1STR    H21 3423  12.347  13.359   8.925
    1STR    H22 3424  12.314  13.478   9.049
    1STR    H23 3425  12.089  13.114   8.772
    1STR    H27 3426  11.888  13.209   8.807
    1STR    H28 3427  10.060  13.446   9.007
    1STR    H29 3428   9.825  13.476   9.042
    1STR    H2A 3429   9.558  13.319   8.853
    1STR    H2B 3430   9.604  13.451   8.959
    1STR    H2C 3431   9.573  13.291   9.028
    1STR   BCK1 3432   9.587  12.991  13.147
    1STR    O03 3433   9.540  13.097  13.109
    1STR    N04 3434   9.717  12.967  13.118
    1STR    C05 3435   9.809  12.859  13.124
    1STR    C06 3436   9.947  12.891  13.141
    1STR    C07 3437  10.051  12.793  13.133
    1STR    N08 3438  10.188  12.829  13.145
    1STR    C09 3439  10.300  12.753  13.137
    1STR    O0A 3440  10.300  12.631  13.119
    1STR    O0B 3441  10.416  12.825  13.149
    1STR    C0C 3442  10.543  12.758  13.133
    1STR    C0D 3443  10.574  12.741  12.983
    1STR    C0E 3444  10.660  12.831  13.205
    1STR    O0F 3445  10.783  12.756  13.193
    1STR    C0G 3446  10.897  12.807  13.263
    1STR    C0H 3447  10.883  12.775  13.413
    1STR    C0I 3448  11.028  12.745  13.207
    1STR    O0J 3449  11.146  12.805  13.264
    1STR    C0K 3450  11.273  12.752  13.223
    1STR    C0M 3451  11.300  12.787  13.075
    1STR    C0N 3452  11.387  12.809  13.311
    1STR    O0O 3453  11.511  12.739  13.287
    1STR    C0P 3454  11.630  12.804  13.280
    1STR    O0Q 3455  11.646  12.925  13.288
    1STR    N0R 3456  11.727  12.715  13.259
    1STR    C0S 3457  11.864  12.725  13.231
    1STR    C0T 3458  11.926  12.609  13.180
    1STR    C0U 3459  12.059  12.612  13.135
    1STR    C0V 3460  12.136  12.730  13.142
    1STR    C0W 3461  12.269  12.729  13.069
    1STR    C0X 3462  12.082  12.845  13.205
    1STR    N0Y 3463  12.152  12.966  13.215
    1STR   BCK2 3464  12.278  13.003  13.246
    1STR    O10 3465  12.308  13.121  13.237
    1STR    C13 3466  11.945  12.842  13.245
    1STR    C14 3467  10.010  12.659  13.110
    1STR    C15 3468   9.875  12.626  13.092
    1STR    C16 3469   9.775  12.724  13.095
    1STR    C17 3470   9.636  12.677  13.058
    1STR    H1B 3471   9.756  13.052  13.082
    1STR    H1C 3472   9.975  12.993  13.159
    1STR    H1D 3473  10.210  12.926  13.159
    1STR    H1E 3474  10.536  12.659  13.178
    1STR    H1F 3475  10.583  12.837  12.932
    1STR    H1G 3476  10.667  12.686  12.968
    1STR    H1H 3477  10.495  12.684  12.933
    1STR    H1I 3478  10.633  12.844  13.309
    1STR    H1J 3479  10.673  12.931  13.163
    1STR    H1K 3480  10.903  12.915  13.249
    1STR    H1M 3481  10.869  12.668  13.429
    1STR    H1N 3482  10.799  12.827  13.459
    1STR    H1O 3483  10.972  12.805  13.468
    1STR    H1P 3484  11.028  12.637  13.225
    1STR    H1Q 3485  11.028  12.758  13.098
    1STR    H1R 3486  11.271  12.644  13.235
    1STR    H1S 3487  11.400  12.755  13.046
    1STR    H1T 3488  11.294  12.894  13.059
    1STR    H1U 3489  11.230  12.738  13.007
    1STR    H1V 3490  11.363  12.796  13.417
    1STR    H1W 3491  11.398  12.916  13.296
    1STR    H1X 3492  11.688  12.622  13.259
    1STR    H1Y 3493  11.871  12.517  13.170
    1STR    H1Z 3494  12.101  12.523  13.091
    1STR    H20 3495  12.298  12.829  13.037
    1STR    H21 3496  12.347  12.687  13.131
    1STR    H22 3497  12.263  12.669  12.978
    1STR    H23 3498  12.097  13.048  13.197
    1STR    H27 3499  11.899  12.931  13.286
    1STR    H28 3500  10.080  12.578  13.103
    1STR    H29 3501   9.850  12.523  13.072
    1STR    H2A 3502   9.582  12.648  13.148
    1STR    H2B 3503   9.640  12.589  12.994
    1STR    H2C 3504   9.581  12.754  13.004
    1STR   BCK1 3505  13.954  17.429  17.431
    1STR    O03 3506  13.906   0.096   0.027
    1STR    N04 3507  14.074  17.415  17.370
    1STR    C05 3508  14.165   0.071  17.318
    1STR    C06 3509  14.307   0.053  17.330
    1STR    C07 3510  14.403   0.142  17.270
    1STR    N08 3511  14.543   0.119  17.278
    1STR    C09 3512  14.647   0.181  17.216
    1STR    O0A 3513  14.634   0.274  17.138
    1STR    O0B 3514  14.771   0.129  17.249
    1STR    C0C 3515  14.893   0.192  17.199
    1STR    C0D 3516  14.925   0.314  17.287
    1STR    C0E 3517  15.015   0.095  17.193
    1STR    O0F 3518  15.137   0.161  17.149
    1STR    C0G 3519  15.254   0.078  17.132
    1STR    C0H 3520  15.243   0.003  16.998
    1STR    C0I 3521  15.386   0.162  17.135
    1STR    O0J 3522  15.505   0.079  17.143
    1STR    C0K 3523  15.634   0.146  17.144
    1STR    C0M 3524  15.650   0.230  17.271
    1STR    C0N 3525  15.751   0.043  17.135
    1STR    O0O 3526  15.879   0.107  17.121
    1STR    C0P 3527  15.991   0.066  17.190
    1STR    O0Q 3528  15.994  17.421  17.277
    1STR    N0R 3529  16.097   0.135  17.146
    1STR    C0S 3530  16.233   0.144  17.180
    1STR    C0T 3531  16.307   0.234  17.100
    1STR    C0U 3532  16.441   0.264  17.129
    1STR    C0V 3533  16.506   0.203  17.237
    1STR    C0W 3534  16.645   0.256  17.271
    1STR    C0X 3535  16.440   0.103  17.314
    1STR    N0Y 3536  16.509   0.039  17.420
    1STR   BCK2 3537  16.632  17.423  17.417
    1STR    O10 3538  16.698  17.410  17.315
    1STR    C13 3539  16.302   0.077  17.286
    1STR    C14 3540  14.350   0.254  17.201
    1STR    C15 3541  14.212   0.272  17.186
    1STR    C16 3542  14.119   0.181  17.240
    1STR    C17 3543  13.973   0.203  17.204
    1STR    H1B 3544  14.101  17.319  17.359
    1STR    H1C 3545  14.343  17.408  17.385
    1STR    H1D 3546  14.575   0.044  17.338
    1STR    H1E 3547  14.874   0.227  17.098
    1STR    H1F 3548  14.944   0.285  17.390
    1STR    H1G 3549  15.013   0.367  17.250
    1STR    H1H 3550  14.842   0.386  17.287
    1STR    H1I 3551  14.991   0.014  17.125
    1STR    H1J 3552  15.032   0.051  17.291
    1STR    H1K 3553  15.259   0.007  17.214
    1STR    H1M 3554  15.230   0.072  16.915
    1STR    H1N 3555  15.159  17.374  16.997
    1STR    H1O 3556  15.333  17.385  16.979
    1STR    H1P 3557  15.391   0.227  17.048
    1STR    H1Q 3558  15.382   0.228  17.222
    1STR    H1R 3559  15.640   0.211  17.056
    1STR    H1S 3560  15.750   0.273  17.276
    1STR    H1T 3561  15.638   0.168  17.360
    1STR    H1U 3562  15.580   0.312  17.276
    1STR    H1V 3563  15.738  17.419  17.048
    1STR    H1W 3564  15.750  17.416  17.222
    1STR    H1X 3565  16.066   0.195  17.071
    1STR    H1Y 3566  16.261   0.285  17.017
    1STR    H1Z 3567  16.492   0.337  17.069
    1STR    H20 3568  16.665   0.249  17.378
    1STR    H21 3569  16.721   0.199  17.218
    1STR    H22 3570  16.656   0.360  17.244
    1STR    H23 3571  16.461   0.033   0.068
    1STR    H27 3572  16.247   0.005  17.345
    1STR    H28 3573  14.413   0.328  17.156
    1STR    H29 3574  14.177   0.357  17.129
    1STR    H2A 3575  13.920   0.109  17.194
    1STR    H2B 3576  13.964   0.256  17.109
    1STR    H2C 3577  13.924   0.264  17.280
    1STR   BCK1 3578  13.943  17.318   4.477
    1STR    O03 3579  13.911  17.238   4.564
    1STR    N04 3580  14.057  17.391   4.478
    1STR    C05 3581  14.158  17.401   4.576
    1STR    C06 3582  14.297  17.407   4.540
    1STR    C07 3583  14.402  17.423   4.637
    1STR    N08 3584  14.539  17.436   4.600
    1STR    C09 3585  14.650  17.429   4.677
    1STR    O0A 3586  14.650  17.398   4.796
    1STR    O0B 3587  14.767   0.018   4.610
    1STR    C0C 3588  14.895   0.009   4.679
    1STR    C0D 3589  14.936  17.301   4.688
    1STR    C0E 3590  15.010   0.093   4.615
    1STR    O0F 3591  15.134   0.078   4.688
    1STR    C0G 3592  15.248   0.153   4.642
    1STR    C0H 3593  15.234   0.299   4.688
    1STR    C0I 3594  15.381   0.091   4.697
    1STR    O0J 3595  15.499   0.151   4.638
    1STR    C0K 3596  15.626   0.105   4.687
    1STR    C0M 3597  15.651  17.399   4.648
    1STR    C0N 3598  15.744   0.192   4.633
    1STR    O0O 3599  15.864   0.165   4.707
    1STR    C0P 3600  15.983   0.137   4.648
    1STR    O0Q 3601  16.005   0.129   4.527
    1STR    N0R 3602  16.073   0.116   4.744
    1STR    C0S 3603  16.207   0.074   4.751
    1STR    C0T 3604  16.250   0.040   4.880
    1STR    C0U 3605  16.380  17.436   4.903
    1STR    C0V 3606  16.474  17.426   4.798
    1STR    C0W 3607  16.611  17.379   4.841
    1STR    C0X 3608  16.437   0.023   4.665
    1STR    N0Y 3609  16.526   0.035   4.555
    1STR   BCK2 3610  16.650   0.003   4.511
    1STR    O10 3611  16.690   0.061   4.411
    1STR    C13 3612  16.301   0.065   4.644
    1STR    C14 3613  14.362  17.432   4.773
    1STR    C15 3614  14.227  17.430   4.809
    1STR    C16 3615  14.125  17.419   4.713
    1STR    C17 3616  13.982  17.436   4.763
    1STR    H1B 3617  14.070   0.006   4.395
    1STR    H1C 3618  14.324  17.399   4.436
    1STR    H1D 3619  14.560   0.013   4.504
    1STR    H1E 3620  14.881   0.047   4.781
    1STR    H1F 3621  14.951  17.257   4.589
    1STR    H1G 3622  15.028  17.289   4.744
    1STR    H1H 3623  14.860  17.242   4.739
    1STR    H1I 3624  14.980   0.198   4.614
    1STR    H1J 3625  15.024   0.063   4.511
    1STR    H1K 3626  15.253   0.148   4.533
    1STR    H1M 3627  15.223   0.305   4.796
    1STR    H1N 3628  15.149   0.348   4.642
    1STR    H1O 3629  15.323   0.356   4.661
    1STR    H1P 3630  15.384   0.101   4.805
    1STR    H1Q 3631  15.379  17.424   4.676
    1STR    H1R 3632  15.626   0.114   4.796
    1STR    H1S 3633  15.751  17.367   4.677
    1STR    H1T 3634  15.644  17.386   4.539
    1STR    H1U 3635  15.581  17.330   4.695
    1STR    H1V 3636  15.720   0.298   4.647
    1STR    H1W 3637  15.757   0.178   4.526
    1STR    H1X 3638  16.028   0.131   4.832
    1STR    H1Y 3639  16.183   0.047   4.964
    1STR    H1Z 3640  16.408  17.410   5.003
    1STR    H20 3641  16.628  17.280   4.799
    1STR    H21 3642  16.687   0.010   4.809
    1STR    H22 3643  16.620  17.368   4.949
    1STR    H23 3644  16.485   0.090   4.481
    1STR    H27 3645  16.268   0.094   4.545
    1STR    H28 3646  14.433   0.004   4.853
    1STR    H29 3647  14.201   0.000   4.914
    1STR    H2A 3648  13.919   0.045   4.689
    1STR    H2B 3649  13.979   0.057   4.853
    1STR    H2C 3650  13.939  17.339   4.788
    1STR   BCK1 3651  13.956  17.321   8.728
    1STR    O03 3652  13.914  17.400   8.644
    1STR    N04 3653  14.077  17.261   8.724
    1STR    C05 3654  14.172  17.257   8.620
    1STR    C06 3655  14.312  17.271   8.648
    1STR    C07 3656  14.412  17.252   8.547
    1STR    N08 3657  14.550  17.261   8.577
    1STR    C09 3658  14.656  17.210   8.510
    1STR    O0A 3659  14.646  17.140   8.409
    1STR    O0B 3660  14.777  17.242   8.566
    1STR    C0C 3661  14.900  17.206   8.500
    1STR    C0D 3662  14.930  17.309   8.390
    1STR    C0E 3663  15.020  17.193   8.598
    1STR    O0F 3664  15.142  17.155   8.531
    1STR    C0G 3665  15.257  17.131   8.614
    1STR    C0H 3666  15.244  16.992   8.679
    1STR    C0I 3667  15.389  17.139   8.531
    1STR    O0J 3668  15.507  17.133   8.615
    1STR    C0K 3669  15.635  17.135   8.549
    1STR    C0M 3670  15.659  17.272   8.484
    1STR    C0N 3671  15.750  17.106   8.651
    1STR    O0O 3672  15.877  17.092   8.585
    1STR    C0P 3673  15.993  17.137   8.641
    1STR    O0Q 3674  16.002  17.201   8.745
    1STR    N0R 3675  16.097  17.103   8.563
    1STR    C0S 3676  16.235  17.131   8.565
    1STR    C0T 3677  16.309  17.084   8.455
    1STR    C0U 3678  16.445  17.116   8.440
    1STR    C0V 3679  16.512  17.196   8.534
    1STR    C0W 3680  16.652  17.243   8.498
    1STR    C0X 3681  16.444  17.239   8.652
    1STR    N0Y 3682  16.501  17.328   8.744
    1STR   BCK2 3683  16.620  17.349   8.804
    1STR    O10 3684  16.634   0.012   8.868
    1STR    C13 3685  16.305  17.207   8.664
    1STR    C14 3686  14.367  17.224   8.416
    1STR    C15 3687  14.230  17.207   8.388
    1STR    C16 3688  14.133  17.220   8.488
    1STR    C17 3689  13.990  17.186   8.451
    1STR    H1B 3690  14.097  17.207   8.806
    1STR    H1C 3691  14.342  17.295   8.748
    1STR    H1D 3692  14.577  17.310   8.660
    1STR    H1E 3693  14.887  17.108   8.452
    1STR    H1F 3694  14.945  17.409   8.431
    1STR    H1G 3695  15.021  17.283   8.335
    1STR    H1H 3696  14.849  17.315   8.317
    1STR    H1I 3697  14.994  17.118   8.673
    1STR    H1J 3698  15.035  17.287   8.651
    1STR    H1K 3699  15.263  17.208   8.691
    1STR    H1M 3700  15.230  16.914   8.604
    1STR    H1N 3701  15.159  16.987   8.748
    1STR    H1O 3702  15.333  16.968   8.737
    1STR    H1P 3703  15.391  17.058   8.457
    1STR    H1Q 3704  15.388  17.232   8.475
    1STR    H1R 3705  15.637  17.057   8.473
    1STR    H1S 3706  15.759  17.279   8.442
    1STR    H1T 3707  15.649  17.352   8.557
    1STR    H1U 3708  15.590  17.292   8.402
    1STR    H1V 3709  15.730  17.013   8.704
    1STR    H1W 3710  15.754  17.184   8.727
    1STR    H1X 3711  16.064  17.049   8.485
    1STR    H1Y 3712  16.262  17.025   8.378
    1STR    H1Z 3713  16.498  17.082   8.352
    1STR    H20 3714  16.671  17.344   8.535
    1STR    H21 3715  16.727  17.175   8.539
    1STR    H22 3716  16.666  17.246   8.390
    1STR    H23 3717  16.437  17.399   8.776
    1STR    H27 3718  16.249  17.244   8.749
    1STR    H28 3719  14.436  17.212   8.334
    1STR    H29 3720  14.201  17.182   8.287
    1STR    H2A 3721  13.938  17.137   8.534
    1STR    H2B 3722  13.986  17.118   8.367
    1STR    H2C 3723  13.935  17.276   8.425
    1STR   BCK1 3724  13.954   0.011  13.165
    1STR    O03 3725  13.911   0.077  13.259
    1STR    N04 3726  14.071   0.035  13.102
    1STR    C05 3727  14.163   0.143  13.114
    1STR    C06 3728  14.305   0.121  13.106
    1STR    C07 3729  14.402   0.227  13.111
    1STR    N08 3730  14.542   0.204  13.096
    1STR    C09 3731  14.647   0.289  13.108
    1STR    O0A 3732  14.637   0.406  13.142
    1STR    O0B 3733  14.770   0.232  13.078
    1STR    C0C 3734  14.893   0.309  13.094
    1STR    C0D 3735  14.930   0.313  13.243
    1STR    C0E 3736  15.013   0.256  13.009
    1STR    O0F 3737  15.135   0.330  13.033
    1STR    C0G 3738  15.253   0.293  12.957
    1STR    C0H 3739  15.241   0.352  12.816
    1STR    C0I 3740  15.384   0.343  13.026
    1STR    O0J 3741  15.505   0.290  12.967
    1STR    C0K 3742  15.631   0.332  13.024
    1STR    C0M 3743  15.646   0.277  13.167
    1STR    C0N 3744  15.754   0.285  12.941
    1STR    O0O 3745  15.877   0.343  12.990
    1STR    C0P 3746  15.992   0.270  13.005
    1STR    O0Q 3747  16.003   0.149  12.988
    1STR    N0R 3748  16.091   0.352  13.041
    1STR    C0S 3749  16.228   0.337  13.072
    1STR    C0T 3750  16.301   0.456  13.086
    1STR    C0U 3751  16.438   0.453  13.118
    1STR    C0V 3752  16.507   0.332  13.136
    1STR    C0W 3753  16.655   0.343  13.164
    1STR    C0X 3754  16.438   0.208  13.124
    1STR    N0Y 3755  16.497   0.080  13.127
    1STR   BCK2 3756  16.607   0.010  13.164
    1STR    O10 3757  16.615  17.335  13.122
    1STR    C13 3758  16.298   0.214  13.091
    1STR    C14 3759  14.350   0.358  13.126
    1STR    C15 3760  14.212   0.382  13.131
    1STR    C16 3761  14.119   0.278  13.121
    1STR    C17 3762  13.972   0.318  13.111
    1STR    H1B 3763  14.095  17.404  13.035
    1STR    H1C 3764  14.341   0.019  13.097
    1STR    H1D 3765  14.571   0.111  13.073
    1STR    H1E 3766  14.873   0.411  13.061
    1STR    H1F 3767  14.950   0.213  13.282
    1STR    H1G 3768  15.019   0.374  13.260
    1STR    H1H 3769  14.850   0.357  13.303
    1STR    H1I 3770  14.986   0.261  12.904
    1STR    H1J 3771  15.030   0.151  13.032
    1STR    H1K 3772  15.259   0.184  12.952
    1STR    H1M 3773  15.228   0.460  12.819
    1STR    H1N 3774  15.157   0.310  12.761
    1STR    H1O 3775  15.331   0.331  12.758
    1STR    H1P 3776  15.386   0.452  13.025
    1STR    H1Q 3777  15.379   0.314  13.131
    1STR    H1R 3778  15.633   0.442  13.027
    1STR    H1S 3779  15.744   0.300  13.208
    1STR    H1T 3780  15.635   0.168  13.168
    1STR    H1U 3781  15.573   0.319  13.236
    1STR    H1V 3782  15.742   0.316  12.837
    1STR    H1W 3783  15.760   0.176  12.938
    1STR    H1X 3784  16.056   0.446  13.044
    1STR    H1Y 3785  16.254   0.552  13.071
    1STR    H1Z 3786  16.490   0.547  13.127
    1STR    H20 3787  16.675   0.320  13.269
    1STR    H21 3788  16.711   0.276  13.099
    1STR    H22 3789  16.693   0.444  13.146
    1STR    H23 3790  16.438   0.011  13.083
    1STR    H27 3791  16.242   0.122  13.079
    1STR    H28 3792  14.413   0.445  13.131
    1STR    H29 3793  14.178   0.484  13.139
    1STR    H2A 3794  13.916   0.250  13.048
    1STR    H2B 3795  13.962   0.417  13.066
    1STR    H2C 3796  13.927   0.322  13.210
    1STR   BCK1 3797  13.945   4.283   0.067
    1STR    O03 3798  13.908   4.352  17.413
    1STR    N04 3799  14.076   4.253   0.074
    1STR    C05 3800  14.168   4.173   0.146
    1STR    C06 3801  14.306   4.213   0.140
    1STR    C07 3802  14.412   4.136   0.197
    1STR    N08 3803  14.548   4.175   0.185
    1STR    C09 3804  14.661   4.105   0.212
    1STR    O0A 3805  14.662   3.989   0.251
    1STR    O0B 3806  14.775   4.177   0.191
    1STR    C0C 3807  14.904   4.115   0.213
    1STR    C0D 3808  14.938   4.022   0.094
    1STR    C0E 3809  15.019   4.217   0.237
    1STR    O0F 3810  15.142   4.148   0.267
    1STR    C0G 3811  15.256   4.230   0.300
    1STR    C0H 3812  15.241   4.282   0.443
    1STR    C0I 3813  15.387   4.147   0.285
    1STR    O0J 3814  15.505   4.229   0.301
    1STR    C0K 3815  15.632   4.161   0.297
    1STR    C0M 3816  15.660   4.110   0.155
    1STR    C0N 3817  15.747   4.256   0.342
    1STR    O0O 3818  15.868   4.183   0.366
    1STR    C0P 3819  15.988   4.224   0.319
    1STR    O0Q 3820  16.008   4.323   0.250
    1STR    N0R 3821  16.082   4.136   0.356
    1STR    C0S 3822  16.217   4.119   0.322
    1STR    C0T 3823  16.268   3.989   0.338
    1STR    C0U 3824  16.398   3.956   0.295
    1STR    C0V 3825  16.481   4.053   0.237
    1STR    C0W 3826  16.608   4.004   0.169
    1STR    C0X 3827  16.439   4.189   0.233
    1STR    N0Y 3828  16.519   4.292   0.180
    1STR   BCK2 3829  16.648   4.328   0.189
    1STR    O10 3830  16.687   4.424   0.123
    1STR    C13 3831  16.305   4.219   0.271
    1STR    C14 3832  14.375   4.019   0.266
    1STR    C15 3833  14.241   3.977   0.272
    1STR    C16 3834  14.138   4.051   0.210
    1STR    C17 3835  14.002   3.985   0.213
    1STR    H1B 3836  14.120   4.309   0.002
    1STR    H1C 3837  14.332   4.304   0.088
    1STR    H1D 3838  14.567   4.267   0.149
    1STR    H1E 3839  14.897   4.053   0.303
    1STR    H1F 3840  14.947   4.078   0.001
    1STR    H1G 3841  15.032   3.970   0.111
    1STR    H1H 3842  14.862   3.946   0.080
    1STR    H1I 3843  14.990   4.282   0.320
    1STR    H1J 3844  15.032   4.280   0.149
    1STR    H1K 3845  15.262   4.313   0.230
    1STR    H1M 3846  15.228   4.200   0.514
    1STR    H1N 3847  15.157   4.350   0.454
    1STR    H1O 3848  15.331   4.337   0.474
    1STR    H1P 3849  15.387   4.066   0.358
    1STR    H1Q 3850  15.387   4.101   0.187
    1STR    H1R 3851  15.629   4.077   0.366
    1STR    H1S 3852  15.761   4.068   0.148
    1STR    H1T 3853  15.655   4.192   0.082
    1STR    H1U 3854  15.591   4.033   0.123
    1STR    H1V 3855  15.719   4.305   0.436
    1STR    H1W 3856  15.761   4.336   0.269
    1STR    H1X 3857  16.040   4.065   0.413
    1STR    H1Y 3858  16.207   3.910   0.379
    1STR    H1Z 3859  16.431   3.854   0.302
    1STR    H20 3860  16.643   4.073   0.093
    1STR    H21 3861  16.687   3.988   0.243
    1STR    H22 3862  16.590   3.909   0.119
    1STR    H23 3863  16.469   4.360   0.124
    1STR    H27 3864  16.267   4.320   0.261
    1STR    H28 3865  14.446   3.955   0.316
    1STR    H29 3866  14.218   3.885   0.323
    1STR    H2A 3867  13.943   4.027   0.295
    1STR    H2B 3868  14.009   3.878   0.231
    1STR    H2C 3869  13.950   3.999   0.118
    1STR   BCK1 3870  13.957   4.300   4.328
    1STR    O03 3871  13.908   4.413   4.320
    1STR    N04 3872  14.078   4.264   4.280
    1STR    C05 3873  14.169   4.333   4.196
    1STR    C06 3874  14.310   4.323   4.218
    1STR    C07 3875  14.407   4.380   4.129
    1STR    N08 3876  14.547   4.365   4.150
    1STR    C09 3877  14.650   4.385   4.065
    1STR    O0A 3878  14.638   4.421   3.948
    1STR    O0B 3879  14.774   4.362   4.122
    1STR    C0C 3880  14.896   4.391   4.048
    1STR    C0D 3881  14.926   4.541   4.059
    1STR    C0E 3882  15.018   4.306   4.096
    1STR    O0F 3883  15.139   4.338   4.024
    1STR    C0G 3884  15.256   4.258   4.055
    1STR    C0H 3885  15.244   4.123   3.983
    1STR    C0I 3886  15.388   4.330   4.014
    1STR    O0J 3887  15.506   4.262   4.064
    1STR    C0K 3888  15.635   4.315   4.029
    1STR    C0M 3889  15.655   4.454   4.092
    1STR    C0N 3890  15.750   4.221   4.076
    1STR    O0O 3891  15.879   4.265   4.030
    1STR    C0P 3892  15.992   4.258   4.107
    1STR    O0Q 3893  15.996   4.223   4.224
    1STR    N0R 3894  16.097   4.297   4.034
    1STR    C0S 3895  16.233   4.321   4.060
    1STR    C0T 3896  16.304   4.377   3.952
    1STR    C0U 3897  16.437   4.418   3.966
    1STR    C0V 3898  16.505   4.402   4.088
    1STR    C0W 3899  16.642   4.467   4.098
    1STR    C0X 3900  16.443   4.333   4.196
    1STR    N0Y 3901  16.513   4.309   4.317
    1STR   BCK2 3902  16.639   4.261   4.332
    1STR    O10 3903  16.709   4.223   4.239
    1STR    C13 3904  16.305   4.297   4.182
    1STR    C14 3905  14.356   4.453   4.019
    1STR    C15 3906  14.218   4.462   3.994
    1STR    C16 3907  14.125   4.400   4.079
    1STR    C17 3908  13.979   4.403   4.035
    1STR    H1B 3909  14.104   4.171   4.307
    1STR    H1C 3910  14.345   4.270   4.305
    1STR    H1D 3911  14.577   4.333   4.240
    1STR    H1E 3912  14.879   4.367   3.943
    1STR    H1F 3913  14.943   4.571   4.163
    1STR    H1G 3914  15.015   4.567   4.001
    1STR    H1H 3915  14.843   4.601   4.020
    1STR    H1I 3916  14.993   4.201   4.083
    1STR    H1J 3917  15.034   4.322   4.203
    1STR    H1K 3918  15.261   4.242   4.163
    1STR    H1M 3919  15.231   4.136   3.876
    1STR    H1N 3920  15.159   4.064   4.019
    1STR    H1O 3921  15.333   4.063   3.999
    1STR    H1P 3922  15.393   4.338   3.905
    1STR    H1Q 3923  15.385   4.431   4.052
    1STR    H1R 3924  15.641   4.323   3.920
    1STR    H1S 3925  15.755   4.492   4.072
    1STR    H1T 3926  15.642   4.449   4.200
    1STR    H1U 3927  15.586   4.528   4.052
    1STR    H1V 3928  15.734   4.120   4.037
    1STR    H1W 3929  15.749   4.211   4.185
    1STR    H1X 3930  16.066   4.316   3.941
    1STR    H1Y 3931  16.256   4.394   3.857
    1STR    H1Z 3932  16.487   4.466   3.883
    1STR    H20 3933  16.665   4.496   4.201
    1STR    H21 3934  16.720   4.399   4.063
    1STR    H22 3935  16.647   4.558   4.038
    1STR    H23 3936  16.464   4.326   4.403
    1STR    H27 3937  16.253   4.250   4.264
    1STR    H28 3938  14.421   4.503   3.949
    1STR    H29 3939  14.185   4.515   3.907
    1STR    H2A 3940  13.927   4.312   4.063
    1STR    H2B 3941  13.971   4.413   3.927
    1STR    H2C 3942  13.928   4.488   4.080
    1STR   BCK1 3943  13.961   4.288   8.860
    1STR    O03 3944  13.949   4.250   8.976
    1STR    N04 3945  14.063   4.366   8.817
    1STR    C05 3946  14.162   4.429   8.896
    1STR    C06 3947  14.302   4.420   8.866
    1STR    C07 3948  14.403   4.487   8.944
    1STR    N08 3949  14.541   4.481   8.911
    1STR    C09 3950  14.650   4.519   8.983
    1STR    O0A 3951  14.645   4.558   9.099
    1STR    O0B 3952  14.769   4.508   8.914
    1STR    C0C 3953  14.895   4.539   8.981
    1STR    C0D 3954  14.934   4.420   9.071
    1STR    C0E 3955  15.012   4.575   8.884
    1STR    O0F 3956  15.135   4.601   8.955
    1STR    C0G 3957  15.251   4.638   8.878
    1STR    C0H 3958  15.238   4.786   8.838
    1STR    C0I 3959  15.383   4.615   8.959
    1STR    O0J 3960  15.503   4.631   8.879
    1STR    C0K 3961  15.629   4.613   8.948
    1STR    C0M 3962  15.647   4.467   8.991
    1STR    C0N 3963  15.751   4.654   8.860
    1STR    O0O 3964  15.871   4.658   8.939
    1STR    C0P 3965  15.990   4.604   8.899
    1STR    O0Q 3966  16.009   4.542   8.796
    1STR    N0R 3967  16.082   4.632   8.992
    1STR    C0S 3968  16.219   4.605   9.010
    1STR    C0T 3969  16.276   4.666   9.123
    1STR    C0U 3970  16.412   4.650   9.153
    1STR    C0V 3971  16.496   4.572   9.071
    1STR    C0W 3972  16.643   4.573   9.109
    1STR    C0X 3973  16.443   4.506   8.957
    1STR    N0Y 3974  16.521   4.437   8.861
    1STR   BCK2 3975  16.638   4.371   8.846
    1STR    O10 3976  16.673   4.347   8.731
    1STR    C13 3977  16.304   4.524   8.928
    1STR    C14 3978  14.357   4.562   9.054
    1STR    C15 3979  14.220   4.575   9.084
    1STR    C16 3980  14.123   4.513   9.004
    1STR    C17 3981  13.977   4.544   9.035
    1STR    H1B 3982  14.064   4.384   8.718
    1STR    H1C 3983  14.332   4.361   8.781
    1STR    H1D 3984  14.566   4.444   8.821
    1STR    H1E 3985  14.879   4.626   9.045
    1STR    H1F 3986  14.951   4.329   9.012
    1STR    H1G 3987  15.025   4.442   9.126
    1STR    H1H 3988  14.856   4.398   9.144
    1STR    H1I 3989  14.983   4.662   8.826
    1STR    H1J 3990  15.028   4.493   8.813
    1STR    H1K 3991  15.256   4.576   8.788
    1STR    H1M 3992  15.226   4.850   8.925
    1STR    H1N 3993  15.153   4.804   8.772
    1STR    H1O 3994  15.328   4.820   8.785
    1STR    H1P 3995  15.385   4.683   9.044
    1STR    H1Q 3996  15.378   4.514   8.999
    1STR    H1R 3997  15.629   4.678   9.036
    1STR    H1S 3998  15.745   4.451   9.035
    1STR    H1T 3999  15.638   4.400   8.905
    1STR    H1U 4000  15.574   4.436   9.066
    1STR    H1V 4001  15.735   4.754   8.818
    1STR    H1W 4002  15.762   4.587   8.774
    1STR    H1X 4003  16.039   4.688   9.063
    1STR    H1Y 4004  16.217   4.729   9.188
    1STR    H1Z 4005  16.452   4.700   9.239
    1STR    H20 4006  16.667   4.482   9.163
    1STR    H21 4007  16.705   4.582   9.020
    1STR    H22 4008  16.668   4.657   9.174
    1STR    H23 4009  16.477   4.436   8.771
    1STR    H27 4010  16.260   4.478   8.841
    1STR    H28 4011  14.424   4.616   9.119
    1STR    H29 4012  14.191   4.636   9.168
    1STR    H2A 4013  13.918   4.551   8.944
    1STR    H2B 4014  13.967   4.638   9.088
    1STR    H2C 4015  13.934   4.466   9.099
    1STR   BCK1 4016  13.953   4.241  13.122
    1STR    O03 4017  13.924   4.268  13.006
    1STR    N04 4018  14.071   4.188  13.160
    1STR    C05 4019  14.171   4.131  13.079
    1STR    C06 4020  14.309   4.162  13.099
    1STR    C07 4021  14.413   4.095  13.027
    1STR    N08 4022  14.550   4.123  13.050
    1STR    C09 4023  14.657   4.045  13.024
    1STR    O0A 4024  14.650   3.931  12.979
    1STR    O0B 4025  14.777   4.106  13.054
    1STR    C0C 4026  14.901   4.042  13.018
    1STR    C0D 4027  14.932   4.072  12.870
    1STR    C0E 4028  15.020   4.085  13.110
    1STR    O0F 4029  15.142   4.017  13.074
    1STR    C0G 4030  15.256   4.041  13.157
    1STR    C0H 4031  15.242   3.960  13.287
    1STR    C0I 4032  15.387   4.002  13.083
    1STR    O0J 4033  15.505   4.040  13.157
    1STR    C0K 4034  15.633   4.005  13.100
    1STR    C0M 4035  15.659   4.088  12.973
    1STR    C0N 4036  15.747   4.029  13.202
    1STR    O0O 4037  15.872   3.976  13.154
    1STR    C0P 4038  15.990   4.041  13.175
    1STR    O0Q 4039  16.003   4.150  13.229
    1STR    N0R 4040  16.090   3.967  13.125
    1STR    C0S 4041  16.228   3.990  13.107
    1STR    C0T 4042  16.296   3.897  13.026
    1STR    C0U 4043  16.430   3.916  12.990
    1STR    C0V 4044  16.502   4.028  13.036
    1STR    C0W 4045  16.639   4.052  12.974
    1STR    C0X 4046  16.441   4.117  13.128
    1STR    N0Y 4047  16.506   4.232  13.176
    1STR   BCK2 4048  16.629   4.264  13.221
    1STR    O10 4049  16.652   4.382  13.246
    1STR    C13 4050  16.303   4.098  13.160
    1STR    C14 4051  14.373   4.000  12.930
    1STR    C15 4052  14.238   3.967  12.911
    1STR    C16 4053  14.137   4.029  12.987
    1STR    C17 4054  13.995   3.976  12.971
    1STR    H1B 4055  14.082   4.180  13.259
    1STR    H1C 4056  14.335   4.238  13.171
    1STR    H1D 4057  14.574   4.210  13.093
    1STR    H1E 4058  14.890   3.934  13.030
    1STR    H1F 4059  14.945   4.179  12.853
    1STR    H1G 4060  15.024   4.022  12.839
    1STR    H1H 4061  14.852   4.037  12.805
    1STR    H1I 4062  14.993   4.063  13.213
    1STR    H1J 4063  15.034   4.193  13.103
    1STR    H1K 4064  15.262   4.147  13.180
    1STR    H1M 4065  15.229   3.854  13.265
    1STR    H1N 4066  15.158   3.992  13.347
    1STR    H1O 4067  15.331   3.970  13.348
    1STR    H1P 4068  15.388   3.894  13.063
    1STR    H1Q 4069  15.387   4.051  12.985
    1STR    H1R 4070  15.632   3.898  13.075
    1STR    H1S 4071  15.759   4.069  12.934
    1STR    H1T 4072  15.652   4.195  12.995
    1STR    H1U 4073  15.589   4.065  12.893
    1STR    H1V 4074  15.725   3.979  13.297
    1STR    H1W 4075  15.755   4.135  13.225
    1STR    H1X 4076  16.054   3.881  13.088
    1STR    H1Y 4077  16.244   3.811  12.985
    1STR    H1Z 4078  16.477   3.846  12.923
    1STR    H20 4079  16.664   4.158  12.973
    1STR    H21 4080  16.716   3.998  13.028
    1STR    H22 4081  16.640   4.019  12.870
    1STR    H23 4082  16.447   4.314  13.180
    1STR    H27 4083  16.253   4.169  13.224
    1STR    H28 4084  14.445   3.949  12.868
    1STR    H29 4085  14.212   3.891  12.840
    1STR    H2A 4086  13.942   3.976  13.067
    1STR    H2B 4087  13.994   3.874  12.934
    1STR    H2C 4088  13.940   4.038  12.901
    1STR   BCK1 4089  13.954   8.730   0.022
    1STR    O03 4090  13.907   8.825   0.083
    1STR    N04 4091  14.073   8.730  17.398
    1STR    C05 4092  14.164   8.836  17.369
    1STR    C06 4093  14.306   8.815  17.374
    1STR    C07 4094  14.401   8.915  17.336
    1STR    N08 4095  14.542   8.890  17.336
    1STR    C09 4096  14.646   8.969  17.299
    1STR    O0A 4097  14.635   9.085  17.260
    1STR    O0B 4098  14.770   8.908  17.309
    1STR    C0C 4099  14.892   8.984  17.283
    1STR    C0D 4100  14.926   9.068  17.407
    1STR    C0E 4101  15.014   8.895  17.242
    1STR    O0F 4102  15.136   8.972  17.223
    1STR    C0G 4103  15.254   8.900  17.179
    1STR    C0H 4104  15.242   8.875  17.028
    1STR    C0I 4105  15.385   8.978  17.211
    1STR    O0J 4106  15.505   8.898  17.190
    1STR    C0K 4107  15.633   8.961  17.215
    1STR    C0M 4108  15.648   8.996  17.364
    1STR    C0N 4109  15.752   8.869  17.173
    1STR    O0O 4110  15.879   8.937  17.182
    1STR    C0P 4111  15.991   8.878  17.236
    1STR    O0Q 4112  15.994   8.770  17.294
    1STR    N0R 4113  16.096   8.958  17.216
    1STR    C0S 4114  16.233   8.957  17.250
    1STR    C0T 4115  16.307   9.062  17.193
    1STR    C0U 4116  16.442   9.083  17.227
    1STR    C0V 4117  16.507   8.998  17.318
    1STR    C0W 4118  16.647   9.039  17.362
    1STR    C0X 4119  16.440   8.884  17.370
    1STR    N0Y 4120  16.508   8.799   0.021
    1STR   BCK2 4121  16.630   8.743   0.006
    1STR    O10 4122  16.694   8.746  17.341
    1STR    C13 4123  16.301   8.866  17.338
    1STR    C14 4124  14.348   9.041  17.298
    1STR    C15 4125  14.210   9.063  17.290
    1STR    C16 4126  14.118   8.961  17.321
    1STR    C17 4127  13.971   8.992  17.293
    1STR    H1B 4128  14.100   8.639  17.365
    1STR    H1C 4129  14.342   8.719  17.406
    1STR    H1D 4130  14.573   8.800  17.366
    1STR    H1E 4131  14.873   9.052  17.199
    1STR    H1F 4132  14.946   9.006   0.054
    1STR    H1G 4133  15.014   9.130  17.388
    1STR    H1H 4134  14.844   9.136  17.432
    1STR    H1I 4135  14.989   8.842  17.150
    1STR    H1J 4136  15.031   8.819  17.318
    1STR    H1K 4137  15.259   8.805  17.232
    1STR    H1M 4138  15.230   8.969  16.973
    1STR    H1N 4139  15.158   8.810  17.002
    1STR    H1O 4140  15.332   8.827  16.989
    1STR    H1P 4141  15.390   9.069  17.151
    1STR    H1Q 4142  15.380   9.010  17.315
    1STR    H1R 4143  15.639   9.053  17.155
    1STR    H1S 4144  15.747   9.036  17.384
    1STR    H1T 4145  15.636   8.907  17.426
    1STR    H1U 4146  15.577   9.071  17.397
    1STR    H1V 4147  15.739   8.839  17.069
    1STR    H1W 4148  15.752   8.777  17.231
    1STR    H1X 4149  16.066   9.037  17.162
    1STR    H1Y 4150  16.262   9.132  17.124
    1STR    H1Z 4151  16.495   9.167  17.185
    1STR    H20 4152  16.666   9.011   0.025
    1STR    H21 4153  16.722   8.991  17.298
    1STR    H22 4154  16.661   9.146  17.355
    1STR    H23 4155  16.461   8.778   0.108
    1STR    H27 4156  16.246   8.784  17.380
    1STR    H28 4157  14.411   9.124  17.270
    1STR    H29 4158  14.175   9.159  17.256
    1STR    H2A 4159  13.917   8.903  17.261
    1STR    H2B 4160  13.961   9.066  17.214
    1STR    H2C 4161  13.924   9.033  17.383
    1STR   BCK1 4162  13.944   8.647   4.433
    1STR    O03 4163  13.898   8.723   4.348
    1STR    N04 4164  14.071   8.669   4.472
    1STR    C05 4165  14.165   8.624   4.567
    1STR    C06 4166  14.304   8.641   4.537
    1STR    C07 4167  14.409   8.611   4.630
    1STR    N08 4168  14.545   8.638   4.600
    1STR    C09 4169  14.658   8.602   4.666
    1STR    O0A 4170  14.660   8.530   4.765
    1STR    O0B 4171  14.773   8.654   4.611
    1STR    C0C 4172  14.902   8.619   4.668
    1STR    C0D 4173  14.942   8.478   4.621
    1STR    C0E 4174  15.015   8.721   4.636
    1STR    O0F 4175  15.140   8.682   4.698
    1STR    C0G 4176  15.253   8.769   4.680
    1STR    C0H 4177  15.238   8.891   4.773
    1STR    C0I 4178  15.385   8.693   4.711
    1STR    O0J 4179  15.502   8.771   4.678
    1STR    C0K 4180  15.631   8.713   4.710
    1STR    C0M 4181  15.659   8.591   4.621
    1STR    C0N 4182  15.745   8.818   4.693
    1STR    O0O 4183  15.865   8.774   4.758
    1STR    C0P 4184  15.985   8.767   4.694
    1STR    O0Q 4185  16.006   8.795   4.577
    1STR    N0R 4186  16.076   8.720   4.780
    1STR    C0S 4187  16.208   8.675   4.767
    1STR    C0T 4188  16.249   8.581   4.863
    1STR    C0U 4189  16.373   8.517   4.852
    1STR    C0V 4190  16.463   8.549   4.748
    1STR    C0W 4191  16.580   8.455   4.730
    1STR    C0X 4192  16.433   8.657   4.660
    1STR    N0Y 4193  16.521   8.702   4.560
    1STR   BCK2 4194  16.654   8.719   4.543
    1STR    O10 4195  16.692   8.766   4.436
    1STR    C13 4196  16.302   8.715   4.668
    1STR    C14 4197  14.370   8.561   4.756
    1STR    C15 4198  14.234   8.544   4.788
    1STR    C16 4199  14.132   8.579   4.698
    1STR    C17 4200  13.991   8.574   4.753
    1STR    H1B 4201  14.107   8.741   4.412
    1STR    H1C 4202  14.332   8.679   4.440
    1STR    H1D 4203  14.566   8.691   4.517
    1STR    H1E 4204  14.892   8.618   4.777
    1STR    H1F 4205  14.954   8.474   4.513
    1STR    H1G 4206  15.036   8.447   4.666
    1STR    H1H 4207  14.867   8.404   4.649
    1STR    H1I 4208  14.985   8.820   4.671
    1STR    H1J 4209  15.029   8.729   4.528
    1STR    H1K 4210  15.258   8.802   4.576
    1STR    H1M 4211  15.226   8.859   4.877
    1STR    H1N 4212  15.153   8.953   4.747
    1STR    H1O 4213  15.327   8.954   4.768
    1STR    H1P 4214  15.388   8.665   4.816
    1STR    H1Q 4215  15.385   8.600   4.654
    1STR    H1R 4216  15.629   8.683   4.815
    1STR    H1S 4217  15.759   8.553   4.639
    1STR    H1T 4218  15.653   8.617   4.516
    1STR    H1U 4219  15.590   8.509   4.640
    1STR    H1V 4220  15.716   8.912   4.740
    1STR    H1W 4221  15.761   8.841   4.588
    1STR    H1X 4222  16.033   8.708   4.870
    1STR    H1Y 4223  16.183   8.551   4.942
    1STR    H1Z 4224  16.398   8.439   4.922
    1STR    H20 4225  16.616   8.455   4.627
    1STR    H21 4226  16.662   8.481   4.797
    1STR    H22 4227  16.551   8.353   4.753
    1STR    H23 4228  16.474   8.739   4.478
    1STR    H27 4229  16.273   8.791   4.596
    1STR    H28 4230  14.441   8.536   4.833
    1STR    H29 4231  14.209   8.509   4.887
    1STR    H2A 4232  13.930   8.655   4.712
    1STR    H2B 4233  13.990   8.586   4.861
    1STR    H2C 4234  13.945   8.478   4.730
    1STR   BCK1 4235  13.958   8.615   8.705
    1STR    O03 4236  13.912   8.714   8.649
    1STR    N04 4237  14.079   8.562   8.680
    1STR    C05 4238  14.172   8.589   8.578
    1STR    C06 4239  14.313   8.593   8.605
    1STR    C07 4240  14.411   8.605   8.502
    1STR    N08 4241  14.550   8.603   8.531
    1STR    C09 4242  14.655   8.577   8.449
    1STR    O0A 4243  14.643   8.546   8.331
    1STR    O0B 4244  14.776   8.589   8.511
    1STR    C0C 4245  14.899   8.576   8.435
    1STR    C0D 4246  14.929   8.710   8.366
    1STR    C0E 4247  15.020   8.530   8.523
    1STR    O0F 4248  15.142   8.518   8.446
    1STR    C0G 4249  15.257   8.467   8.516
    1STR    C0H 4250  15.244   8.314   8.529
    1STR    C0I 4251  15.390   8.504   8.443
    1STR    O0J 4252  15.507   8.471   8.523
    1STR    C0K 4253  15.637   8.495   8.464
    1STR    C0M 4254  15.659   8.646   8.444
    1STR    C0N 4255  15.750   8.437   8.554
    1STR    O0O 4256  15.879   8.444   8.489
    1STR    C0P 4257  15.994   8.471   8.557
    1STR    O0Q 4258  16.002   8.498   8.676
    1STR    N0R 4259  16.096   8.467   8.471
    1STR    C0S 4260  16.233   8.500   8.478
    1STR    C0T 4261  16.296   8.513   8.353
    1STR    C0U 4262  16.429   8.558   8.344
    1STR    C0V 4263  16.504   8.588   8.459
    1STR    C0W 4264  16.637   8.656   8.435
    1STR    C0X 4265  16.450   8.561   8.588
    1STR    N0Y 4266  16.525   8.581   8.707
    1STR   BCK2 4267  16.655   8.554   8.734
    1STR    O10 4268  16.734   8.504   8.655
    1STR    C13 4269  16.312   8.522   8.596
    1STR    C14 4270  14.363   8.619   8.370
    1STR    C15 4271  14.226   8.613   8.340
    1STR    C16 4272  14.131   8.595   8.442
    1STR    C17 4273  13.986   8.575   8.398
    1STR    H1B 4274  14.104   8.488   8.744
    1STR    H1C 4275  14.345   8.585   8.708
    1STR    H1D 4276  14.579   8.622   8.625
    1STR    H1E 4277  14.885   8.500   8.358
    1STR    H1F 4278  14.945   8.790   8.439
    1STR    H1G 4279  15.019   8.703   8.305
    1STR    H1H 4280  14.847   8.740   8.300
    1STR    H1I 4281  14.994   8.435   8.568
    1STR    H1J 4282  15.035   8.601   8.604
    1STR    H1K 4283  15.262   8.512   8.616
    1STR    H1M 4284  15.232   8.268   8.431
    1STR    H1N 4285  15.159   8.285   8.591
    1STR    H1O 4286  15.333   8.271   8.574
    1STR    H1P 4287  15.395   8.453   8.347
    1STR    H1Q 4288  15.389   8.611   8.422
    1STR    H1R 4289  15.641   8.444   8.367
    1STR    H1S 4290  15.760   8.665   8.408
    1STR    H1T 4291  15.647   8.700   8.538
    1STR    H1U 4292  15.591   8.689   8.371
    1STR    H1V 4293  15.730   8.332   8.576
    1STR    H1W 4294  15.752   8.488   8.650
    1STR    H1X 4295  16.062   8.440   8.381
    1STR    H1Y 4296  16.243   8.494   8.262
    1STR    H1Z 4297  16.472   8.573   8.246
    1STR    H20 4298  16.664   8.721   8.519
    1STR    H21 4299  16.716   8.582   8.420
    1STR    H22 4300  16.633   8.720   8.346
    1STR    H23 4301  16.474   8.613   8.787
    1STR    H27 4302  16.265   8.508   8.692
    1STR    H28 4303  14.431   8.632   8.286
    1STR    H29 4304  14.195   8.620   8.237
    1STR    H2A 4305  13.935   8.504   8.463
    1STR    H2B 4306  13.981   8.536   8.297
    1STR    H2C 4307  13.933   8.670   8.401
    1STR   BCK1 4308  13.954   8.710  13.198
    1STR    O03 4309  13.915   8.749  13.307
    1STR    N04 4310  14.070   8.749  13.140
    1STR    C05 4311  14.163   8.849  13.179
    1STR    C06 4312  14.305   8.829  13.163
    1STR    C07 4313  14.402   8.929  13.196
    1STR    N08 4314  14.542   8.911  13.173
    1STR    C09 4315  14.648   8.985  13.213
    1STR    O0A 4316  14.640   9.083  13.287
    1STR    O0B 4317  14.770   8.942  13.163
    1STR    C0C 4318  14.893   9.007  13.203
    1STR    C0D 4319  14.932   8.958  13.344
    1STR    C0E 4320  15.012   8.987  13.104
    1STR    O0F 4321  15.135   9.048  13.151
    1STR    C0G 4322  15.252   9.038  13.066
    1STR    C0H 4323  15.240   9.141  12.953
    1STR    C0I 4324  15.383   9.062  13.147
    1STR    O0J 4325  15.504   9.031  13.073
    1STR    C0K 4326  15.631   9.051  13.140
    1STR    C0M 4327  15.646   8.951  13.256
    1STR    C0N 4328  15.752   9.034  13.044
    1STR    O0O 4329  15.876   9.074  13.106
    1STR    C0P 4330  15.990   8.999  13.100
    1STR    O0Q 4331  16.000   8.885  13.055
    1STR    N0R 4332  16.091   9.070  13.151
    1STR    C0S 4333  16.229   9.050  13.174
    1STR    C0T 4334  16.299   9.167  13.207
    1STR    C0U 4335  16.434   9.163  13.245
    1STR    C0V 4336  16.504   9.041  13.251
    1STR    C0W 4337  16.645   9.044  13.308
    1STR    C0X 4338  16.440   8.921  13.211
    1STR    N0Y 4339  16.510   8.799  13.223
    1STR   BCK2 4340  16.633   8.770  13.175
    1STR    O10 4341  16.692   8.839  13.092
    1STR    C13 4342  16.301   8.926  13.174
    1STR    C14 4343  14.352   9.051  13.248
    1STR    C15 4344  14.215   9.074  13.261
    1STR    C16 4345  14.120   8.977  13.224
    1STR    C17 4346  13.974   9.020  13.228
    1STR    H1B 4347  14.092   8.699  13.056
    1STR    H1C 4348  14.339   8.734  13.125
    1STR    H1D 4349  14.570   8.831  13.120
    1STR    H1E 4350  14.875   9.115  13.208
    1STR    H1F 4351  14.952   8.851  13.345
    1STR    H1G 4352  15.022   9.010  13.379
    1STR    H1H 4353  14.853   8.979  13.416
    1STR    H1I 4354  14.984   9.029  13.007
    1STR    H1J 4355  15.029   8.880  13.088
    1STR    H1K 4356  15.257   8.938  13.024
    1STR    H1M 4357  15.227   9.242  12.992
    1STR    H1N 4358  15.155   9.121  12.887
    1STR    H1O 4359  15.329   9.141  12.891
    1STR    H1P 4360  15.386   9.165  13.183
    1STR    H1Q 4361  15.378   8.999  13.236
    1STR    H1R 4362  15.633   9.153  13.179
    1STR    H1S 4363  15.744   8.960  13.302
    1STR    H1T 4364  15.636   8.849  13.220
    1STR    H1U 4365  15.573   8.967  13.335
    1STR    H1V 4366  15.738   9.098  12.956
    1STR    H1W 4367  15.758   8.932  13.006
    1STR    H1X 4368  16.056   9.161  13.176
    1STR    H1Y 4369  16.250   9.263  13.207
    1STR    H1Z 4370  16.484   9.255  13.273
    1STR    H20 4371  16.663   8.958  13.371
    1STR    H21 4372  16.718   9.045  13.228
    1STR    H22 4373  16.661   9.133  13.369
    1STR    H23 4374  16.469   8.728  13.280
    1STR    H27 4375  16.248   8.836  13.147
    1STR    H28 4376  14.417   9.133  13.275
    1STR    H29 4377  14.182   9.170  13.298
    1STR    H2A 4378  13.916   8.971  13.150
    1STR    H2B 4379  13.965   9.127  13.213
    1STR    H2C 4380  13.931   8.997  13.325
    1STR   BCK1 4381  13.946  12.997   0.068
    1STR    O03 4382  13.900  13.093   0.006
    1STR    N04 4383  14.076  12.967   0.050
    1STR    C05 4384  14.168  12.866   0.083
    1STR    C06 4385  14.306  12.902   0.094
    1STR    C07 4386  14.411  12.806   0.114
    1STR    N08 4387  14.547  12.846   0.118
    1STR    C09 4388  14.659  12.770   0.120
    1STR    O0A 4389  14.660  12.647   0.120
    1STR    O0B 4390  14.775  12.844   0.122
    1STR    C0C 4391  14.903  12.777   0.119
    1STR    C0D 4392  14.935  12.730  17.416
    1STR    C0E 4393  15.019  12.864   0.175
    1STR    O0F 4394  15.142  12.788   0.180
    1STR    C0G 4395  15.256  12.854   0.238
    1STR    C0H 4396  15.242  12.854   0.391
    1STR    C0I 4397  15.387  12.781   0.195
    1STR    O0J 4398  15.505  12.852   0.238
    1STR    C0K 4399  15.632  12.790   0.210
    1STR    C0M 4400  15.660  12.792   0.059
    1STR    C0N 4401  15.747  12.864   0.285
    1STR    O0O 4402  15.869  12.789   0.278
    1STR    C0P 4403  15.989  12.849   0.255
    1STR    O0Q 4404  16.007  12.968   0.232
    1STR    N0R 4405  16.085  12.755   0.255
    1STR    C0S 4406  16.221  12.756   0.222
    1STR    C0T 4407  16.279  12.631   0.195
    1STR    C0U 4408  16.411  12.621   0.148
    1STR    C0V 4409  16.490  12.736   0.129
    1STR    C0W 4410  16.621  12.718   0.055
    1STR    C0X 4411  16.440  12.863   0.170
    1STR    N0Y 4412  16.514  12.981   0.156
    1STR   BCK2 4413  16.641  13.019   0.180
    1STR    O10 4414  16.676  13.132   0.148
    1STR    C13 4415  16.304  12.872   0.212
    1STR    C14 4416  14.371  12.672   0.128
    1STR    C15 4417  14.237  12.633   0.116
    1STR    C16 4418  14.136  12.727   0.090
    1STR    C17 4419  13.999  12.670   0.061
    1STR    H1B 4420  14.116  13.043  17.437
    1STR    H1C 4421  14.333  13.006   0.085
    1STR    H1D 4422  14.568  12.944   0.115
    1STR    H1E 4423  14.896  12.688   0.183
    1STR    H1F 4424  14.944  12.814  17.347
    1STR    H1G 4425  15.028  12.674  17.413
    1STR    H1H 4426  14.857  12.663  17.378
    1STR    H1I 4427  14.991  12.897   0.275
    1STR    H1J 4428  15.032  12.953   0.114
    1STR    H1K 4429  15.262  12.956   0.200
    1STR    H1M 4430  15.229  12.753   0.429
    1STR    H1N 4431  15.158  12.914   0.424
    1STR    H1O 4432  15.332  12.895   0.438
    1STR    H1P 4433  15.387  12.679   0.236
    1STR    H1Q 4434  15.387  12.771   0.087
    1STR    H1R 4435  15.630  12.687   0.246
    1STR    H1S 4436  15.760  12.755   0.037
    1STR    H1T 4437  15.654  12.894   0.020
    1STR    H1U 4438  15.590  12.731   0.003
    1STR    H1V 4439  15.721  12.875   0.391
    1STR    H1W 4440  15.759  12.965   0.246
    1STR    H1X 4441  16.044  12.666   0.278
    1STR    H1Y 4442  16.221  12.540   0.204
    1STR    H1Z 4443  16.450  12.524   0.120
    1STR    H20 4444  16.653  12.810   0.006
    1STR    H21 4445  16.700  12.685   0.123
    1STR    H22 4446  16.611  12.643  17.417
    1STR    H23 4447  16.462  13.060   0.122
    1STR    H27 4448  16.262  12.968   0.236
    1STR    H28 4449  14.441  12.592   0.147
    1STR    H29 4450  14.213  12.528   0.123
    1STR    H2A 4451  13.942  12.663   0.153
    1STR    H2B 4452  14.006  12.569   0.020
    1STR    H2C 4453  13.945  12.730  17.427
    1STR   BCK1 4454  13.954  13.052   4.337
    1STR    O03 4455  13.906  13.163   4.357
    1STR    N04 4456  14.075  13.029   4.280
    1STR    C05 4457  14.166  13.117   4.215
    1STR    C06 4458  14.308  13.101   4.231
    1STR    C07 4459  14.404  13.179   4.159
    1STR    N08 4460  14.544  13.158   4.172
    1STR    C09 4461  14.648  13.206   4.098
    1STR    O0A 4462  14.635  13.279   4.001
    1STR    O0B 4463  14.772  13.164   4.142
    1STR    C0C 4464  14.893  13.215   4.081
    1STR    C0D 4465  14.925  13.353   4.142
    1STR    C0E 4466  15.016  13.120   4.096
    1STR    O0F 4467  15.138  13.174   4.040
    1STR    C0G 4468  15.255  13.089   4.041
    1STR    C0H 4469  15.243  12.987   3.927
    1STR    C0I 4470  15.387  13.172   4.027
    1STR    O0J 4471  15.505  13.092   4.051
    1STR    C0K 4472  15.634  13.155   4.037
    1STR    C0M 4473  15.652  13.265   4.144
    1STR    C0N 4474  15.751  13.052   4.051
    1STR    O0O 4475  15.879  13.111   4.024
    1STR    C0P 4476  15.991  13.083   4.098
    1STR    O0Q 4477  15.994  13.015   4.200
    1STR    N0R 4478  16.097  13.142   4.042
    1STR    C0S 4479  16.233  13.157   4.074
    1STR    C0T 4480  16.306  13.236   3.982
    1STR    C0U 4481  16.439  13.271   4.006
    1STR    C0V 4482  16.506  13.226   4.121
    1STR    C0W 4483  16.644  13.285   4.147
    1STR    C0X 4484  16.442  13.136   4.211
    1STR    N0Y 4485  16.511  13.087   4.324
    1STR   BCK2 4486  16.635  13.034   4.329
    1STR    O10 4487  16.704  13.012   4.230
    1STR    C13 4488  16.303  13.105   4.187
    1STR    C14 4489  14.352  13.279   4.073
    1STR    C15 4490  14.214  13.294   4.054
    1STR    C16 4491  14.121  13.213   4.120
    1STR    C17 4492  13.975  13.228   4.080
    1STR    H1B 4493  14.102  12.933   4.284
    1STR    H1C 4494  14.343  13.026   4.300
    1STR    H1D 4495  14.575  13.098   4.246
    1STR    H1E 4496  14.876  13.228   3.974
    1STR    H1F 4497  14.943  13.347   4.249
    1STR    H1G 4498  15.013  13.397   4.095
    1STR    H1H 4499  14.842  13.423   4.126
    1STR    H1I 4500  14.991  13.025   4.048
    1STR    H1J 4501  15.032  13.097   4.202
    1STR    H1K 4502  15.260  13.037   4.137
    1STR    H1M 4503  15.231  13.037   3.831
    1STR    H1N 4504  15.159  12.920   3.940
    1STR    H1O 4505  15.333  12.926   3.920
    1STR    H1P 4506  15.392  13.217   3.927
    1STR    H1Q 4507  15.383  13.254   4.098
    1STR    H1R 4508  15.641  13.200   3.938
    1STR    H1S 4509  15.752  13.308   4.139
    1STR    H1T 4510  15.639  13.224   4.244
    1STR    H1U 4511  15.582  13.347   4.131
    1STR    H1V 4512  15.736  12.971   3.980
    1STR    H1W 4513  15.749  13.006   4.150
    1STR    H1X 4514  16.067  13.187   3.957
    1STR    H1Y 4515  16.259  13.274   3.893
    1STR    H1Z 4516  16.490  13.335   3.936
    1STR    H20 4517  16.665  13.292   4.254
    1STR    H21 4518  16.721  13.224   4.100
    1STR    H22 4519  16.652  13.386   4.108
    1STR    H23 4520  16.462  13.089   4.412
    1STR    H27 4521  16.250  13.042   4.256
    1STR    H28 4522  14.416  13.345   4.017
    1STR    H29 4523  14.179  13.369   3.983
    1STR    H2A 4524  13.922  13.133   4.084
    1STR    H2B 4525  13.966  13.265   3.978
    1STR    H2C 4526  13.925  13.299   4.146
    1STR   BCK1 4527  13.944  12.976   8.849
    1STR    O03 4528  13.910  12.918   8.952
    1STR    N04 4529  14.059  13.047   8.835
    1STR    C05 4530  14.158  13.081   8.931
    1STR    C06 4531  14.297  13.081   8.896
    1STR    C07 4532  14.401  13.119   8.988
    1STR    N08 4533  14.538  13.125   8.951
    1STR    C09 4534  14.649  13.136   9.029
    1STR    O0A 4535  14.647  13.133   9.151
    1STR    O0B 4536  14.767  13.151   8.958
    1STR    C0C 4537  14.894  13.157   9.029
    1STR    C0D 4538  14.935  13.014   9.071
    1STR    C0E 4539  15.010  13.225   8.949
    1STR    O0F 4540  15.134  13.226   9.024
    1STR    C0G 4541  15.249  13.289   8.963
    1STR    C0H 4542  15.235  13.441   8.976
    1STR    C0I 4543  15.381  13.240   9.030
    1STR    O0J 4544  15.500  13.284   8.960
    1STR    C0K 4545  15.627  13.247   9.018
    1STR    C0M 4546  15.648  13.095   9.010
    1STR    C0N 4547  15.747  13.319   8.948
    1STR    O0O 4548  15.867  13.302   9.025
    1STR    C0P 4549  15.986  13.264   8.972
    1STR    O0Q 4550  16.008  13.236   8.855
    1STR    N0R 4551  16.076  13.261   9.070
    1STR    C0S 4552  16.212  13.226   9.084
    1STR    C0T 4553  16.260  13.233   9.215
    1STR    C0U 4554  16.393  13.202   9.245
    1STR    C0V 4555  16.484  13.166   9.144
    1STR    C0W 4556  16.626  13.145   9.190
    1STR    C0X 4557  16.441  13.157   9.008
    1STR    N0Y 4558  16.526  13.136   8.897
    1STR   BCK2 4559  16.647  13.086   8.862
    1STR    O10 4560  16.687  13.113   8.749
    1STR    C13 4561  16.303  13.188   8.981
    1STR    C14 4562  14.359  13.158   9.117
    1STR    C15 4563  14.223  13.162   9.152
    1STR    C16 4564  14.123  13.129   9.060
    1STR    C17 4565  13.979  13.155   9.103
    1STR    H1B 4566  14.073  13.082   8.742
    1STR    H1C 4567  14.326  13.050   8.797
    1STR    H1D 4568  14.561  13.120   8.853
    1STR    H1E 4569  14.879  13.216   9.119
    1STR    H1F 4570  14.951  12.950   8.984
    1STR    H1G 4571  15.027  13.016   9.129
    1STR    H1H 4572  14.858  12.968   9.134
    1STR    H1I 4573  14.980  13.327   8.925
    1STR    H1J 4574  15.025  13.173   8.854
    1STR    H1K 4575  15.253  13.261   8.857
    1STR    H1M 4576  15.224  13.471   9.080
    1STR    H1N 4577  15.150  13.480   8.921
    1STR    H1O 4578  15.324  13.491   8.937
    1STR    H1P 4579  15.384  13.273   9.134
    1STR    H1Q 4580  15.378  13.131   9.033
    1STR    H1R 4581  15.627  13.279   9.123
    1STR    H1S 4582  15.748  13.068   9.046
    1STR    H1T 4583  15.641  13.061   8.907
    1STR    H1U 4584  15.577  13.039   9.070
    1STR    H1V 4585  15.727  13.426   8.940
    1STR    H1W 4586  15.760  13.283   8.846
    1STR    H1X 4587  16.031  13.291   9.154
    1STR    H1Y 4588  16.196  13.262   9.297
    1STR    H1Z 4589  16.426  13.209   9.347
    1STR    H20 4590  16.647  13.038   9.195
    1STR    H21 4591  16.696  13.196   9.124
    1STR    H22 4592  16.644  13.185   9.290
    1STR    H23 4593  16.486  13.172   8.812
    1STR    H27 4594  16.266  13.184   8.880
    1STR    H28 4595  14.428  13.189   9.193
    1STR    H29 4596  14.196  13.196   9.251
    1STR    H2A 4597  13.917  13.185   9.019
    1STR    H2B 4598  13.974  13.234   9.178
    1STR    H2C 4599  13.937  13.065   9.148
    1STR   BCK1 4600  13.956  12.959  13.102
    1STR    O03 4601  13.919  13.021  13.002
    1STR    N04 4602  14.076  12.899  13.113
    1STR    C05 4603  14.173  12.873  13.015
    1STR    C06 4604  14.312  12.894  13.040
    1STR    C07 4605  14.413  12.855  12.947
    1STR    N08 4606  14.551  12.871  12.976
    1STR    C09 4607  14.657  12.807  12.923
    1STR    O0A 4608  14.648  12.717  12.840
    1STR    O0B 4609  14.778  12.852  12.971
    1STR    C0C 4610  14.902  12.803  12.914
    1STR    C0D 4611  14.932  12.881  12.785
    1STR    C0E 4612  15.021  12.812  13.014
    1STR    O0F 4613  15.143  12.760  12.956
    1STR    C0G 4614  15.258  12.754  13.043
    1STR    C0H 4615  15.244  12.633  13.136
    1STR    C0I 4616  15.389  12.743  12.959
    1STR    O0J 4617  15.507  12.754  13.042
    1STR    C0K 4618  15.635  12.742  12.977
    1STR    C0M 4619  15.659  12.863  12.885
    1STR    C0N 4620  15.750  12.733  13.082
    1STR    O0O 4621  15.877  12.704  13.020
    1STR    C0P 4622  15.993  12.759  13.064
    1STR    O0Q 4623  16.003  12.843  13.153
    1STR    N0R 4624  16.096  12.709  12.994
    1STR    C0S 4625  16.234  12.737  12.989
    1STR    C0T 4626  16.307  12.672  12.887
    1STR    C0U 4627  16.442  12.702  12.865
    1STR    C0V 4628  16.510  12.796  12.944
    1STR    C0W 4629  16.649  12.838  12.897
    1STR    C0X 4630  16.445  12.855  13.055
    1STR    N0Y 4631  16.504  12.955  13.134
    1STR   BCK2 4632  16.625  12.980  13.189
    1STR    O10 4633  16.641  13.088  13.243
    1STR    C13 4634  16.306  12.827  13.074
    1STR    C14 4635  14.370  12.799  12.825
    1STR    C15 4636  14.234  12.776  12.799
    1STR    C16 4637  14.136  12.809  12.894
    1STR    C17 4638  13.993  12.766  12.864
    1STR    H1B 4639  14.094  12.862  13.205
    1STR    H1C 4640  14.341  12.940  13.133
    1STR    H1D 4641  14.577  12.938  13.046
    1STR    H1E 4642  14.889  12.698  12.889
    1STR    H1F 4643  14.946  12.987  12.805
    1STR    H1G 4644  15.023  12.844  12.738
    1STR    H1H 4645  14.851  12.871  12.713
    1STR    H1I 4646  14.994  12.755  13.103
    1STR    H1J 4647  15.036  12.915  13.045
    1STR    H1K 4648  15.264  12.846  13.101
    1STR    H1M 4649  15.230  12.541  13.080
    1STR    H1N 4650  15.160  12.643  13.205
    1STR    H1O 4651  15.333  12.621  13.198
    1STR    H1P 4652  15.391  12.649  12.904
    1STR    H1Q 4653  15.388  12.823  12.885
    1STR    H1R 4654  15.636  12.651  12.918
    1STR    H1S 4655  15.760  12.860  12.842
    1STR    H1T 4656  15.651  12.957  12.941
    1STR    H1U 4657  15.590  12.867  12.802
    1STR    H1V 4658  15.729  12.653  13.153
    1STR    H1W 4659  15.755  12.825  13.140
    1STR    H1X 4660  16.062  12.640  12.930
    1STR    H1Y 4661  16.259  12.601  12.821
    1STR    H1Z 4662  16.493  12.655  12.782
    1STR    H20 4663  16.670  12.941  12.924
    1STR    H21 4664  16.725  12.773  12.941
    1STR    H22 4665  16.658  12.831  12.789
    1STR    H23 4666  16.441  13.030  13.158
    1STR    H27 4667  16.252  12.876  13.154
    1STR    H28 4668  14.440  12.771  12.748
    1STR    H29 4669  14.206  12.729  12.706
    1STR    H2A 4670  13.941  12.735  12.954
    1STR    H2B 4671  13.990  12.682  12.795
    1STR    H2C 4672  13.938  12.849  12.818
    1STR   BCK1 4673  17.331   0.854  17.327
    1STR    O03 4674  17.426   0.796  17.379
    1STR    N04 4675  17.311   0.983  17.362
    1STR    C05 4676  17.210   1.081  17.351
    1STR    C06 4677  17.247   1.220  17.343
    1STR    C07 4678  17.152   1.327  17.346
    1STR    N08 4679  17.192   1.463  17.342
    1STR    C09 4680  17.117   1.577  17.348
    1STR    O0A 4681  16.995   1.579  17.359
    1STR    O0B 4682  17.192   1.693  17.341
    1STR    C0C 4683  17.126   1.823  17.351
    1STR    C0D 4684  17.095   1.853   0.059
    1STR    C0E 4685  17.206   1.941  17.288
    1STR    O0F 4686  17.131   2.065  17.293
    1STR    C0G 4687  17.189   2.180  17.228
    1STR    C0H 4688  17.174   2.165  17.076
    1STR    C0I 4689  17.121   2.312  17.276
    1STR    O0J 4690  17.184   2.432  17.223
    1STR    C0K 4691  17.124   2.559  17.256
    1STR    C0M 4692  17.142   2.588  17.406
    1STR    C0N 4693  17.184   2.676  17.173
    1STR    O0O 4694  17.104   2.795  17.184
    1STR    C0P 4695  17.158   2.921  17.189
    1STR    O0Q 4696  17.278   2.947  17.189
    1STR    N0R 4697  17.060   3.011  17.201
    1STR    C0S 4698  17.057   3.148  17.231
    1STR    C0T 4699  16.949   3.189  17.311
    1STR    C0U 4700  16.939   3.321  17.357
    1STR    C0V 4701  17.034   3.418  17.321
    1STR    C0W 4702  17.031   3.551  17.394
    1STR    C0X 4703  17.137   3.384  17.229
    1STR    N0Y 4704  17.233   3.480  17.194
    1STR   BCK2 4705  17.225   3.606  17.145
    1STR    O10 4706  17.324   3.679  17.152
    1STR    C13 4707  17.151   3.247  17.189
    1STR    C14 4708  17.016   1.289  17.357
    1STR    C15 4709  16.978   1.154  17.369
    1STR    C16 4710  17.073   1.051  17.370
    1STR    C17 4711  17.021   0.911  17.401
    1STR    H1B 4712  17.391   1.012  17.416
    1STR    H1C 4713  17.352   1.244  17.335
    1STR    H1D 4714  17.290   1.483  17.334
    1STR    H1E 4715  17.031   1.816  17.297
    1STR    H1F 4716  17.185   1.861   0.119
    1STR    H1G 4717  17.040   1.946   0.069
    1STR    H1H 4718  17.033   1.775   0.104
    1STR    H1I 4719  17.228   1.914  17.184
    1STR    H1J 4720  17.301   1.953  17.339
    1STR    H1K 4721  17.295   2.187  17.254
    1STR    H1M 4722  17.069   2.151  17.048
    1STR    H1N 4723  17.231   2.081  17.036
    1STR    H1O 4724  17.209   2.255  17.024
    1STR    H1P 4725  17.015   2.311  17.248
    1STR    H1Q 4726  17.124   2.314  17.385
    1STR    H1R 4727  17.017   2.553  17.233
    1STR    H1S 4728  17.106   2.688  17.431
    1STR    H1T 4729  17.247   2.583  17.434
    1STR    H1U 4730  17.087   2.518   0.029
    1STR    H1V 4731  17.189   2.649  17.068
    1STR    H1W 4732  17.287   2.696  17.203
    1STR    H1X 4733  16.971   2.964  17.196
    1STR    H1Y 4734  16.874   3.118  17.343
    1STR    H1Z 4735  16.859   3.347  17.425
    1STR    H20 4736  17.132   3.578  17.427
    1STR    H21 4737  16.993   3.631  17.331
    1STR    H22 4738  16.968   3.547   0.043
    1STR    H23 4739  17.329   3.454  17.211
    1STR    H27 4740  17.234   3.217  17.127
    1STR    H28 4741  16.936   1.361  17.360
    1STR    H29 4742  16.873   1.131  17.381
    1STR    H2A 4743  16.997   0.859  17.308
    1STR    H2B 4744  16.931   0.915   0.021
    1STR    H2C 4745  17.094   0.853   0.017
    1STR   BCK1 4746  17.425   0.876   4.328
    1STR    O03 4747   0.091   0.815   4.333
    1STR    N04 4748  17.405   1.000   4.381
    1STR    C05 4749   0.047   1.087   4.460
    1STR    C06 4750   0.032   1.230   4.450
    1STR    C07 4751   0.107   1.324   4.529
    1STR    N08 4752   0.087   1.466   4.521
    1STR    C09 4753   0.143   1.569   4.591
    1STR    O0A 4754   0.229   1.554   4.677
    1STR    O0B 4755   0.096   1.695   4.556
    1STR    C0C 4756   0.155   1.816   4.615
    1STR    C0D 4757   0.288   1.846   4.544
    1STR    C0E 4758   0.061   1.942   4.611
    1STR    O0F 4759   0.123   2.066   4.658
    1STR    C0G 4760   0.039   2.184   4.667
    1STR    C0H 4761  17.394   2.173   4.795
    1STR    C0I 4762   0.119   2.319   4.668
    1STR    O0J 4763   0.034   2.437   4.648
    1STR    C0K 4764   0.094   2.569   4.653
    1STR    C0M 4765   0.202   2.583   4.544
    1STR    C0N 4766  17.428   2.684   4.635
    1STR    O0O 4767   0.044   2.817   4.643
    1STR    C0P 4768  17.429   2.925   4.576
    1STR    O0Q 4769  17.335   2.918   4.497
    1STR    N0R 4770   0.052   3.038   4.611
    1STR    C0S 4771   0.045   3.175   4.574
    1STR    C0T 4772   0.129   3.259   4.650
    1STR    C0U 4773   0.144   3.394   4.619
    1STR    C0V 4774   0.075   3.452   4.511
    1STR    C0W 4775   0.113   3.595   4.474
    1STR    C0X 4776  17.421   3.375   4.437
    1STR    N0Y 4777  17.352   3.434   4.327
    1STR   BCK2 4778  17.288   3.553   4.318
    1STR    O10 4779  17.264   3.627   4.412
    1STR    C13 4780  17.409   3.235   4.468
    1STR    C14 4781   0.202   1.269   4.617
    1STR    C15 4782   0.216   1.130   4.632
    1STR    C16 4783   0.138   1.039   4.559
    1STR    C17 4784   0.152   0.893   4.598
    1STR    H1B 4785  17.314   1.036   4.356
    1STR    H1C 4786  17.401   1.269   4.379
    1STR    H1D 4787   0.020   1.499   4.454
    1STR    H1E 4788   0.177   1.796   4.720
    1STR    H1F 4789   0.274   1.867   4.438
    1STR    H1G 4790   0.337   1.933   4.588
    1STR    H1H 4791   0.358   1.762   4.553
    1STR    H1I 4792  17.413   1.920   4.670
    1STR    H1J 4793   0.027   1.958   4.508
    1STR    H1K 4794  17.413   2.186   4.580
    1STR    H1M 4795   0.017   2.162   4.883
    1STR    H1N 4796  17.325   2.088   4.792
    1STR    H1O 4797  17.333   2.262   4.809
    1STR    H1P 4798   0.174   2.329   4.761
    1STR    H1Q 4799   0.193   2.315   4.588
    1STR    H1R 4800   0.142   2.582   4.751
    1STR    H1S 4801   0.242   2.684   4.542
    1STR    H1T 4802   0.159   2.563   4.446
    1STR    H1U 4803   0.286   2.516   4.559
    1STR    H1V 4804  17.353   2.676   4.714
    1STR    H1W 4805  17.375   2.671   4.541
    1STR    H1X 4806   0.120   3.015   4.680
    1STR    H1Y 4807   0.186   3.220   4.733
    1STR    H1Z 4808   0.212   3.454   4.677
    1STR    H20 4809   0.108   3.610   4.366
    1STR    H21 4810   0.046   3.666   4.522
    1STR    H22 4811   0.215   3.618   4.504
    1STR    H23 4812  17.351   3.380   4.242
    1STR    H27 4813  17.343   3.172   4.411
    1STR    H28 4814   0.267   1.329   4.679
    1STR    H29 4815   0.288   1.093   4.704
    1STR    H2A 4816   0.058   0.840   4.589
    1STR    H2B 4817   0.184   0.883   4.702
    1STR    H2C 4818   0.227   0.845   4.536
    1STR   BCK1 4819  17.316   0.870   8.558
    1STR    O03 4820  17.212   0.884   8.495
    1STR    N04 4821  17.409   0.968   8.570
    1STR    C05 4822  17.425   1.079   8.484
    1STR    C06 4823  17.428   1.216   8.528
    1STR    C07 4824   0.014   1.326   8.438
    1STR    N08 4825   0.023   1.462   8.480
    1STR    C09 4826   0.022   1.576   8.406
    1STR    O0A 4827   0.001   1.577   8.285
    1STR    O0B 4828   0.046   1.693   8.476
    1STR    C0C 4829   0.043   1.821   8.407
    1STR    C0D 4830  17.337   1.862   8.381
    1STR    C0E 4831   0.119   1.938   8.479
    1STR    O0F 4832   0.109   2.062   8.404
    1STR    C0G 4833   0.175   2.180   8.456
    1STR    C0H 4834   0.326   2.170   8.429
    1STR    C0I 4835   0.115   2.309   8.391
    1STR    O0J 4836   0.157   2.435   8.452
    1STR    C0K 4837   0.099   2.556   8.397
    1STR    C0M 4838  17.389   2.562   8.428
    1STR    C0N 4839   0.165   2.688   8.449
    1STR    O0O 4840   0.118   2.801   8.372
    1STR    C0P 4841   0.099   2.926   8.425
    1STR    O0Q 4842   0.107   2.954   8.544
    1STR    N0R 4843   0.076   3.013   8.326
    1STR    C0S 4844   0.065   3.154   8.322
    1STR    C0T 4845   0.145   3.217   8.225
    1STR    C0U 4846   0.140   3.357   8.209
    1STR    C0V 4847   0.055   3.437   8.286
    1STR    C0W 4848   0.071   3.587   8.270
    1STR    C0X 4849  17.406   3.377   8.380
    1STR    N0Y 4850  17.318   3.451   8.463
    1STR   BCK2 4851  17.242   3.563   8.458
    1STR    O10 4852  17.188   3.600   8.561
    1STR    C13 4853  17.416   3.235   8.399
    1STR    C14 4854   0.039   1.291   8.303
    1STR    C15 4855   0.038   1.158   8.259
    1STR    C16 4856   0.015   1.052   8.348
    1STR    C17 4857   0.028   0.910   8.296
    1STR    H1B 4858   0.045   0.948   8.633
    1STR    H1C 4859  17.410   1.237   8.633
    1STR    H1D 4860   0.030   1.480   8.579
    1STR    H1E 4861   0.092   1.808   8.310
    1STR    H1F 4862  17.282   1.877   8.474
    1STR    H1G 4863  17.331   1.954   8.323
    1STR    H1H 4864  17.284   1.786   8.324
    1STR    H1I 4865   0.223   1.910   8.491
    1STR    H1J 4866   0.078   1.953   8.579
    1STR    H1K 4867   0.157   2.186   8.564
    1STR    H1M 4868   0.345   2.157   8.322
    1STR    H1N 4869   0.372   2.086   8.481
    1STR    H1O 4870   0.378   2.260   8.461
    1STR    H1P 4871   0.140   2.311   8.285
    1STR    H1Q 4872   0.007   2.300   8.397
    1STR    H1R 4873   0.114   2.554   8.288
    1STR    H1S 4874  17.347   2.657   8.397
    1STR    H1T 4875  17.372   2.552   8.535
    1STR    H1U 4876  17.332   2.484   8.377
    1STR    H1V 4877   0.273   2.683   8.439
    1STR    H1W 4878   0.145   2.702   8.555
    1STR    H1X 4879   0.079   2.966   8.237
    1STR    H1Y 4880   0.213   3.160   8.164
    1STR    H1Z 4881   0.206   3.403   8.136
    1STR    H20 4882   0.008   3.623   8.190
    1STR    H21 4883   0.048   3.640   8.362
    1STR    H22 4884   0.174   3.613   8.245
    1STR    H23 4885  17.306   3.410   8.554
    1STR    H27 4886  17.354   3.186   8.472
    1STR    H28 4887   0.061   1.365   8.228
    1STR    H29 4888   0.059   1.137   8.156
    1STR    H2A 4889   0.088   0.850   8.364
    1STR    H2B 4890   0.076   0.907   8.199
    1STR    H2C 4891  17.370   0.864   8.287
    1STR   BCK1 4892  17.291   0.866  13.025
    1STR    O03 4893  17.349   0.807  13.116
    1STR    N04 4894  17.245   0.993  13.032
    1STR    C05 4895  17.234   1.085  13.139
    1STR    C06 4896  17.249   1.226  13.115
    1STR    C07 4897  17.225   1.326  13.215
    1STR    N08 4898  17.236   1.464  13.188
    1STR    C09 4899  17.182   1.570  13.254
    1STR    O0A 4900  17.106   1.559  13.350
    1STR    O0B 4901  17.219   1.693  13.203
    1STR    C0C 4902  17.179   1.816  13.268
    1STR    C0D 4903  17.271   1.843  13.388
    1STR    C0E 4904  17.177   1.938  13.171
    1STR    O0F 4905  17.134   2.061  13.235
    1STR    C0G 4906  17.119   2.178  13.150
    1STR    C0H 4907  16.989   2.164  13.070
    1STR    C0I 4908  17.118   2.311  13.232
    1STR    O0J 4909  17.119   2.427  13.147
    1STR    C0K 4910  17.110   2.557  13.209
    1STR    C0M 4911  17.237   2.585  13.291
    1STR    C0N 4912  17.091   2.670  13.103
    1STR    O0O 4913  17.068   2.798  13.166
    1STR    C0P 4914  17.100   2.915  13.104
    1STR    O0Q 4915  17.154   2.925  12.994
    1STR    N0R 4916  17.067   3.018  13.183
    1STR    C0S 4917  17.087   3.157  13.176
    1STR    C0T 4918  17.071   3.225  13.299
    1STR    C0U 4919  17.094   3.363  13.309
    1STR    C0V 4920  17.132   3.438  13.196
    1STR    C0W 4921  17.169   3.584  13.214
    1STR    C0X 4922  17.141   3.375  13.069
    1STR    N0Y 4923  17.178   3.455  12.960
    1STR   BCK2 4924  17.102   3.549  12.901
    1STR    O10 4925  16.982   3.564  12.924
    1STR    C13 4926  17.122   3.234  13.061
    1STR    C14 4927  17.189   1.279  13.344
    1STR    C15 4928  17.173   1.142  13.370
    1STR    C16 4929  17.191   1.045  13.269
    1STR    C17 4930  17.157   0.902  13.307
    1STR    H1B 4931  17.213   1.026  12.943
    1STR    H1C 4932  17.279   1.258  13.017
    1STR    H1D 4933  17.291   1.493  13.109
    1STR    H1E 4934  17.077   1.803  13.305
    1STR    H1F 4935  17.375   1.856  13.357
    1STR    H1G 4936  17.241   1.933  13.441
    1STR    H1H 4937  17.268   1.760  13.459
    1STR    H1I 4938  17.110   1.914  13.088
    1STR    H1J 4939  17.276   1.953  13.128
    1STR    H1K 4940  17.204   2.183  13.082
    1STR    H1M 4941  16.903   2.151  13.137
    1STR    H1N 4942  16.990   2.080  13.001
    1STR    H1O 4943  16.970   2.254  13.011
    1STR    H1P 4944  17.031   2.313  13.298
    1STR    H1Q 4945  17.206   2.312  13.297
    1STR    H1R 4946  17.023   2.558  13.276
    1STR    H1S 4947  17.236   2.686  13.332
    1STR    H1T 4948  17.326   2.576  13.229
    1STR    H1U 4949  17.248   2.517  13.376
    1STR    H1V 4950  17.005   2.649  13.039
    1STR    H1W 4951  17.177   2.676  13.037
    1STR    H1X 4952  17.023   2.983  13.266
    1STR    H1Y 4953  17.043   3.172  13.388
    1STR    H1Z 4954  17.085   3.412  13.405
    1STR    H20 4955  17.273   3.600  13.185
    1STR    H21 4956  17.106   3.648  13.152
    1STR    H22 4957  17.158   3.617  13.317
    1STR    H23 4958  17.274   3.451  12.931
    1STR    H27 4959  17.133   3.184  12.966
    1STR    H28 4960  17.172   1.347  13.426
    1STR    H29 4961  17.142   1.112  13.469
    1STR    H2A 4962  17.113   0.849  13.223
    1STR    H2B 4963  17.084   0.899  13.388
    1STR    H2C 4964  17.246   0.850  13.340
    1STR   BCK1 4965   0.011   5.244  17.302
    1STR    O03 4966   0.103   5.189  17.243
    1STR    N04 4967   0.021   5.363  17.368
    1STR    C05 4968   0.131   5.451  17.391
    1STR    C06 4969   0.110   5.594  17.398
    1STR    C07 4970   0.216   5.688  17.423
    1STR    N08 4971   0.192   5.829  17.437
    1STR    C09 4972   0.280   5.933  -0.000
    1STR    O0A 4973   0.401   5.921  17.421
    1STR    O0B 4974   0.222   6.057   0.024
    1STR    C0C 4975   0.302   6.180   0.019
    1STR    C0D 4976   0.327   6.216  17.311
    1STR    C0E 4977   0.240   6.303   0.095
    1STR    O0F 4978   0.314   6.427   0.076
    1STR    C0G 4979   0.268   6.546   0.146
    1STR    C0H 4980   0.315   6.537   0.292
    1STR    C0I 4981   0.321   6.679   0.080
    1STR    O0J 4982   0.254   6.800   0.127
    1STR    C0K 4983   0.296   6.928   0.071
    1STR    C0M 4984   0.272   6.931  17.359
    1STR    C0N 4985   0.222   7.051   0.135
    1STR    O0O 4986   0.269   7.178   0.085
    1STR    C0P 4987   0.185   7.287   0.066
    1STR    O0Q 4988   0.063   7.285   0.075
    1STR    N0R 4989   0.259   7.396   0.039
    1STR    C0S 4990   0.233   7.533   0.014
    1STR    C0T 4991   0.340   7.619   0.045
    1STR    C0U 4992   0.336   7.755   0.012
    1STR    C0V 4993   0.226   7.811  17.385
    1STR    C0W 4994   0.240   7.954  17.337
    1STR    C0X 4995   0.110   7.731  17.359
    1STR    N0Y 4996   0.002   7.786  17.286
    1STR   BCK2 4997  17.377   7.905  17.300
    1STR    O10 4998  17.391   7.981  17.395
    1STR    C13 4999   0.116   7.591  17.393
    1STR    C14 5000   0.345   5.634  17.439
    1STR    C15 5001   0.368   5.496  17.436
    1STR    C16 5002   0.263   5.404  17.417
    1STR    C17 5003   0.299   5.258  17.435
    1STR    H1B 5004  17.372   5.393  17.403
    1STR    H1C 5005   0.010   5.631  17.384
    1STR    H1D 5006   0.097   5.860   0.006
    1STR    H1E 5007   0.398   6.159   0.065
    1STR    H1F 5008   0.234   6.237  17.259
    1STR    H1G 5009   0.391   6.303  17.303
    1STR    H1H 5010   0.377   6.134  17.259
    1STR    H1I 5011   0.236   6.279   0.201
    1STR    H1J 5012   0.138   6.318   0.062
    1STR    H1K 5013   0.159   6.549   0.142
    1STR    H1M 5014   0.423   6.526   0.299
    1STR    H1N 5015   0.270   6.453   0.345
    1STR    H1O 5016   0.288   6.627   0.347
    1STR    H1P 5017   0.428   6.688   0.096
    1STR    H1Q 5018   0.307   6.669  17.413
    1STR    H1R 5019   0.403   6.940   0.091
    1STR    H1S 5020   0.296   7.029  17.318
    1STR    H1T 5021   0.167   6.910  17.337
    1STR    H1U 5022   0.334   6.859  17.306
    1STR    H1V 5023   0.238   7.051   0.243
    1STR    H1W 5024   0.114   7.042   0.121
    1STR    H1X 5025   0.356   7.371   0.044
    1STR    H1Y 5026   0.429   7.581   0.093
    1STR    H1Z 5027   0.422   7.817   0.034
    1STR    H20 5028   0.191   7.969  17.241
    1STR    H21 5029   0.197   8.024  17.409
    1STR    H22 5030   0.345   7.981  17.323
    1STR    H23 5031  17.408   7.731  17.210
    1STR    H27 5032   0.033   7.527  17.370
    1STR    H28 5033   0.432   5.696   0.017
    1STR    H29 5034   0.468   5.460   0.012
    1STR    H2A 5035   0.216   5.201   0.038
    1STR    H2B 5036   0.383   5.246   0.064
    1STR    H2C 5037   0.328   5.214  17.340
    1STR   BCK1 5038  17.316   5.217   4.243
    1STR    O03 5039  17.219   5.204   4.318
    1STR    N04 5040  17.349   5.334   4.184
    1STR    C05 5041  17.266   5.446   4.163
    1STR    C06 5042  17.307   5.581   4.189
    1STR    C07 5043  17.225   5.694   4.156
    1STR    N08 5044  17.268   5.829   4.174
    1STR    C09 5045  17.219   5.942   4.118
    1STR    O0A 5046  17.129   5.944   4.035
    1STR    O0B 5047  17.279   6.059   4.162
    1STR    C0C 5048  17.222   6.188   4.127
    1STR    C0D 5049  17.111   6.221   4.228
    1STR    C0E 5050  17.324   6.305   4.116
    1STR    O0F 5051  17.259   6.429   4.077
    1STR    C0G 5052  17.343   6.544   4.052
    1STR    C0H 5053  17.410   6.528   3.915
    1STR    C0I 5054  17.259   6.676   4.055
    1STR    O0J 5055  17.340   6.796   4.045
    1STR    C0K 5056  17.271   6.923   4.039
    1STR    C0M 5057  17.203   6.952   4.174
    1STR    C0N 5058  17.367   7.041   4.004
    1STR    O0O 5059  17.297   7.158   3.957
    1STR    C0P 5060  17.310   7.281   4.015
    1STR    O0Q 5061  17.377   7.306   4.115
    1STR    N0R 5062  17.234   7.370   3.951
    1STR    C0S 5063  17.188   7.498   3.988
    1STR    C0T 5064  17.049   7.514   3.987
    1STR    C0U 5065  16.990   7.634   4.031
    1STR    C0V 5066  17.069   7.742   4.073
    1STR    C0W 5067  16.999   7.857   4.145
    1STR    C0X 5068  17.210   7.735   4.061
    1STR    N0Y 5069  17.289   7.844   4.101
    1STR   BCK2 5070  17.286   7.977   4.076
    1STR    O10 5071  17.352   8.052   4.146
    1STR    C13 5072  17.269   7.610   4.024
    1STR    C14 5073  17.098   5.666   4.102
    1STR    C15 5074  17.057   5.535   4.072
    1STR    C16 5075  17.141   5.426   4.098
    1STR    C17 5076  17.097   5.289   4.047
    1STR    H1B 5077  17.437   5.333   4.136
    1STR    H1C 5078  17.404   5.597   4.234
    1STR    H1D 5079  17.345   5.846   4.236
    1STR    H1E 5080  17.176   6.180   4.028
    1STR    H1F 5081  17.151   6.232   4.329
    1STR    H1G 5082  17.061   6.314   4.202
    1STR    H1H 5083  17.035   6.143   4.231
    1STR    H1I 5084  17.400   6.278   4.043
    1STR    H1J 5085  17.375   6.319   4.211
    1STR    H1K 5086  17.419   6.551   4.130
    1STR    H1M 5087  17.336   6.513   3.836
    1STR    H1N 5088   0.039   6.443   3.912
    1STR    H1O 5089   0.028   6.616   3.889
    1STR    H1P 5090  17.185   6.675   3.975
    1STR    H1Q 5091  17.203   6.678   4.148
    1STR    H1R 5092  17.195   6.918   3.960
    1STR    H1S 5093  17.159   7.052   4.175
    1STR    H1T 5094  17.275   6.947   4.256
    1STR    H1U 5095  17.122   6.882   4.196
    1STR    H1V 5096  17.433   7.010   3.923
    1STR    H1W 5097  17.433   7.064   4.088
    1STR    H1X 5098  17.190   7.328   3.871
    1STR    H1Y 5099  16.984   7.433   3.958
    1STR    H1Z 5100  16.882   7.640   4.036
    1STR    H20 5101  17.055   7.884   4.234
    1STR    H21 5102  16.989   7.944   4.082
    1STR    H22 5103  16.899   7.828   4.177
    1STR    H23 5104  17.363   7.823   4.167
    1STR    H27 5105  17.376   7.600   4.023
    1STR    H28 5106  17.027   5.743   4.079
    1STR    H29 5107  16.961   5.519   4.025
    1STR    H2A 5108  17.181   5.234   4.005
    1STR    H2B 5109  17.022   5.298   3.969
    1STR    H2C 5110  17.054   5.230   4.128
    1STR   BCK1 5111  17.362   5.231   8.715
    1STR    O03 5112   0.021   5.170   8.754
    1STR    N04 5113  17.328   5.357   8.755
    1STR    C05 5114  17.381   5.445   8.853
    1STR    C06 5115  17.375   5.588   8.834
    1STR    C07 5116  17.420   5.684   8.932
    1STR    N08 5117  17.408   5.825   8.914
    1STR    C09 5118  17.423   5.928   9.002
    1STR    O0A 5119   0.008   5.913   9.121
    1STR    O0B 5120  17.406   6.054   8.946
    1STR    C0C 5121  17.429   6.175   9.025
    1STR    C0D 5122   0.140   6.202   9.033
    1STR    C0E 5123  17.353   6.301   8.970
    1STR    O0F 5124  17.379   6.424   9.044
    1STR    C0G 5125  17.303   6.542   9.007
    1STR    C0H 5126  17.162   6.530   9.067
    1STR    C0I 5127  17.369   6.677   9.052
    1STR    O0J 5128  17.304   6.793   8.994
    1STR    C0K 5129  17.349   6.926   9.033
    1STR    C0M 5130   0.056   6.946   8.993
    1STR    C0N 5131  17.261   7.038   8.968
    1STR    O0O 5132  17.299   7.171   9.008
    1STR    C0P 5133  17.276   7.280   8.927
    1STR    O0Q 5134  17.232   7.276   8.813
    1STR    N0R 5135  17.311   7.393   8.992
    1STR    C0S 5136  17.316   7.530   8.958
    1STR    C0T 5137  17.362   7.614   9.062
    1STR    C0U 5138  17.381   7.752   9.041
    1STR    C0V 5139  17.353   7.811   8.916
    1STR    C0W 5140  17.390   7.957   8.896
    1STR    C0X 5141  17.300   7.732   8.811
    1STR    N0Y 5142  17.278   7.794   8.686
    1STR   BCK2 5143  17.197   7.898   8.657
    1STR    O10 5144  17.113   7.943   8.735
    1STR    C13 5145  17.284   7.591   8.832
    1STR    C14 5146   0.037   5.630   9.050
    1STR    C15 5147   0.042   5.492   9.073
    1STR    C16 5148  17.431   5.400   8.979
    1STR    C17 5149  17.428   5.255   9.024
    1STR    H1B 5150  17.250   5.393   8.702
    1STR    H1C 5151  17.334   5.626   8.742
    1STR    H1D 5152  17.385   5.858   8.822
    1STR    H1E 5153  17.392   6.157   9.126
    1STR    H1F 5154   0.183   6.221   8.935
    1STR    H1G 5155   0.160   6.290   9.095
    1STR    H1H 5156   0.193   6.118   9.078
    1STR    H1I 5157  17.246   6.279   8.972
    1STR    H1J 5158  17.380   6.317   8.866
    1STR    H1K 5159  17.297   6.545   8.898
    1STR    H1M 5160  17.167   6.518   9.175
    1STR    H1N 5161  17.107   6.445   9.026
    1STR    H1O 5162  17.104   6.619   9.046
    1STR    H1P 5163  17.367   6.684   9.161
    1STR    H1Q 5164   0.034   6.675   9.023
    1STR    H1R 5165  17.340   6.935   9.142
    1STR    H1S 5166   0.088   7.048   9.015
    1STR    H1T 5167   0.069   6.930   8.886
    1STR    H1U 5168   0.123   6.880   9.046
    1STR    H1V 5169  17.156   7.024   8.995
    1STR    H1W 5170  17.264   7.029   8.859
    1STR    H1X 5171  17.340   7.370   9.085
    1STR    H1Y 5172  17.386   7.575   9.159
    1STR    H1Z 5173  17.419   7.813   9.121
    1STR    H20 5174   0.007   7.970   8.804
    1STR    H21 5175  17.300   8.019   8.888
    1STR    H22 5176   0.010   7.996   8.978
    1STR    H23 5177  17.335   7.762   8.609
    1STR    H27 5178  17.247   7.529   8.752
    1STR    H28 5179   0.077   5.693   9.128
    1STR    H29 5180   0.083   5.457   9.166
    1STR    H2A 5181  17.341   5.203   8.984
    1STR    H2B 5182  17.422   5.248   9.133
    1STR    H2C 5183   0.079   5.204   8.993
    1STR   BCK1 5184  17.373   5.241  12.909
    1STR    O03 5185  17.314   5.253  12.802
    1STR    N04 5186   0.012   5.338  12.961
    1STR    C05 5187   0.077   5.444  12.893
    1STR    C06 5188   0.064   5.583  12.928
    1STR    C07 5189   0.141   5.687  12.864
    1STR    N08 5190   0.132   5.825  12.900
    1STR    C09 5191   0.180   5.935  12.836
    1STR    O0A 5192   0.234   5.932  12.726
    1STR    O0B 5193   0.163   6.055  12.904
    1STR    C0C 5194   0.202   6.182  12.842
    1STR    C0D 5195   0.096   6.221  12.737
    1STR    C0E 5196   0.227   6.302  12.940
    1STR    O0F 5197   0.258   6.426  12.870
    1STR    C0G 5198   0.285   6.545  12.949
    1STR    C0H 5199   0.427   6.536  13.006
    1STR    C0I 5200   0.268   6.675  12.862
    1STR    O0J 5201   0.267   6.801  12.936
    1STR    C0K 5202   0.246   6.923  12.861
    1STR    C0M 5203   0.104   6.925  12.803
    1STR    C0N 5204   0.266   7.055  12.943
    1STR    O0O 5205   0.261   7.172  12.859
    1STR    C0P 5206   0.201   7.290  12.897
    1STR    O0Q 5207   0.134   7.306  12.998
    1STR    N0R 5208   0.230   7.386  12.808
    1STR    C0S 5209   0.203   7.525  12.800
    1STR    C0T 5210   0.307   7.603  12.745
    1STR    C0U 5211   0.293   7.741  12.729
    1STR    C0V 5212   0.174   7.808  12.766
    1STR    C0W 5213   0.177   7.959  12.756
    1STR    C0X 5214   0.063   7.734  12.815
    1STR    N0Y 5215  17.383   7.793  12.860
    1STR   BCK2 5216  17.302   7.900  12.835
    1STR    O10 5217  17.209   7.919  12.912
    1STR    C13 5218   0.082   7.592  12.835
    1STR    C14 5219   0.233   5.644  12.765
    1STR    C15 5220   0.248   5.508  12.731
    1STR    C16 5221   0.173   5.408  12.795
    1STR    C17 5222   0.204   5.263  12.762
    1STR    H1B 5223   0.043   5.319  13.055
    1STR    H1C 5224  17.433   5.609  13.005
    1STR    H1D 5225   0.083   5.848  12.985
    1STR    H1E 5226   0.297   6.165  12.790
    1STR    H1F 5227  17.439   6.239  12.784
    1STR    H1G 5228   0.125   6.311  12.684
    1STR    H1H 5229   0.083   6.142  12.662
    1STR    H1I 5230   0.308   6.276  13.008
    1STR    H1J 5231   0.138   6.317  13.002
    1STR    H1K 5232   0.212   6.551  13.030
    1STR    H1M 5233   0.501   6.523  12.926
    1STR    H1N 5234   0.438   6.453  13.075
    1STR    H1O 5235   0.453   6.627  13.060
    1STR    H1P 5236   0.347   6.679  12.786
    1STR    H1Q 5237   0.175   6.665  12.808
    1STR    H1R 5238   0.319   6.925  12.779
    1STR    H1S 5239   0.083   7.020  12.754
    1STR    H1T 5240   0.030   6.912  12.882
    1STR    H1U 5241   0.088   6.847  12.728
    1STR    H1V 5242   0.363   7.054  12.993
    1STR    H1W 5243   0.192   7.061  13.024
    1STR    H1X 5244   0.291   7.349  12.737
    1STR    H1Y 5245   0.401   7.557  12.717
    1STR    H1Z 5246   0.376   7.798  12.691
    1STR    H20 5247   0.139   7.991  12.659
    1STR    H21 5248   0.118   8.005  12.836
    1STR    H22 5249   0.278   7.998  12.766
    1STR    H23 5250  17.340   7.742  12.935
    1STR    H27 5251   0.002   7.533  12.877
    1STR    H28 5252   0.297   5.713  12.713
    1STR    H29 5253   0.321   5.482  12.657
    1STR    H2A 5254   0.216   5.205  12.853
    1STR    H2B 5255   0.295   5.253  12.704
    1STR    H2C 5256   0.122   5.220  12.705
    1STR   BCK1 5257  17.322   9.577  17.336
    1STR    O03 5258  17.431   9.523  17.351
    1STR    N04 5259  17.310   9.704  17.381
    1STR    C05 5260  17.209   9.798  17.410
    1STR    C06 5261  17.236   9.938  17.394
    1STR    C07 5262  17.147  10.041  17.438
    1STR    N08 5263  17.179  10.179  17.423
    1STR    C09 5264  17.109  10.291   0.016
    1STR    O0A 5265  16.997  10.289   0.067
    1STR    O0B 5266  17.174  10.409  17.428
    1STR    C0C 5267  17.113  10.537   0.022
    1STR    C0D 5268  17.134  10.565   0.172
    1STR    C0E 5269  17.166  10.656  17.376
    1STR    O0F 5270  17.097  10.780  17.407
    1STR    C0G 5271  17.130  10.895  17.327
    1STR    C0H 5272  17.064  10.881  17.189
    1STR    C0I 5273  17.084  11.027  17.396
    1STR    O0J 5274  17.127  11.145  17.323
    1STR    C0K 5275  17.083  11.273  17.373
    1STR    C0M 5276  17.151  11.303   0.068
    1STR    C0N 5277  17.115  11.388  17.273
    1STR    O0O 5278  17.051  11.510  17.313
    1STR    C0P 5279  17.104  11.632  17.287
    1STR    O0Q 5280  17.208  11.654  17.226
    1STR    N0R 5281  17.027  11.726  17.343
    1STR    C0S 5282  17.043  11.863  17.367
    1STR    C0T 5283  16.989  11.908   0.048
    1STR    C0U 5284  16.996  12.043   0.084
    1STR    C0V 5285  17.052  12.139  17.438
    1STR    C0W 5286  17.052  12.282   0.051
    1STR    C0X 5287  17.102  12.100  17.310
    1STR    N0Y 5288  17.136  12.191  17.207
    1STR   BCK2 5289  17.176  12.320  17.201
    1STR    O10 5290  17.216  12.389  17.294
    1STR    C13 5291  17.100  11.960  17.278
    1STR    C14 5292  17.028   9.998   0.060
    1STR    C15 5293  17.000   9.862   0.079
    1STR    C16 5294  17.090   9.762   0.038
    1STR    C17 5295  17.058   9.619   0.077
    1STR    H1B 5296  17.402   9.735  17.406
    1STR    H1C 5297  17.329   9.967  17.347
    1STR    H1D 5298  17.268  10.203  17.383
    1STR    H1E 5299  17.006  10.529   0.003
    1STR    H1F 5300  17.239  10.575   0.198
    1STR    H1G 5301  17.084  10.658   0.201
    1STR    H1H 5302  17.091  10.486   0.234
    1STR    H1I 5303  17.152  10.630  17.271
    1STR    H1J 5304  17.273  10.669  17.392
    1STR    H1K 5305  17.239  10.901  17.316
    1STR    H1M 5306  16.956  10.868  17.199
    1STR    H1N 5307  17.103  10.798  17.132
    1STR    H1O 5308  17.080  10.971  17.129
    1STR    H1P 5309  16.975  11.027  17.405
    1STR    H1Q 5310  17.124  11.029   0.057
    1STR    H1R 5311  16.975  11.270  17.387
    1STR    H1S 5312  17.126  11.404   0.103
    1STR    H1T 5313  17.259  11.298   0.059
    1STR    H1U 5314  17.120  11.234   0.147
    1STR    H1V 5315  17.078  11.363  17.173
    1STR    H1W 5316  17.223  11.402  17.263
    1STR    H1X 5317  16.948  11.682  17.386
    1STR    H1Y 5318  16.942  11.840   0.117
    1STR    H1Z 5319  16.955  12.073   0.180
    1STR    H20 5320  17.154  12.313   0.073
    1STR    H21 5321  17.006  12.350  17.420
    1STR    H22 5322  16.996  12.291   0.144
    1STR    H23 5323  17.126  12.154  17.114
    1STR    H27 5324  17.139  11.925  17.184
    1STR    H28 5325  16.954  10.067   0.098
    1STR    H29 5326  16.909   9.835   0.130
    1STR    H2A 5327  17.008   9.567  17.436
    1STR    H2B 5328  16.992   9.616   0.164
    1STR    H2C 5329  17.148   9.564   0.105
    1STR   BCK1 5330   0.011   9.602   4.292
    1STR    O03 5331   0.116   9.541   4.274
    1STR    N04 5332   0.001   9.724   4.351
    1STR    C05 5333   0.096   9.810   4.413
    1STR    C06 5334   0.079   9.953   4.409
    1STR    C07 5335   0.169  10.047   4.471
    1STR    N08 5336   0.146  10.188   4.471
    1STR    C09 5337   0.221  10.292   4.518
    1STR    O0A 5338   0.333  10.278   4.568
    1STR    O0B 5339   0.163  10.417   4.505
    1STR    C0C 5340   0.236  10.538   4.542
    1STR    C0D 5341   0.337  10.571   4.430
    1STR    C0E 5342   0.145  10.664   4.571
    1STR    O0F 5343   0.219  10.787   4.594
    1STR    C0G 5344   0.143  10.905   4.631
    1STR    C0H 5345   0.106  10.895   4.780
    1STR    C0I 5346   0.219  11.040   4.603
    1STR    O0J 5347   0.135  11.159   4.610
    1STR    C0K 5348   0.195  11.290   4.591
    1STR    C0M 5349   0.259  11.299   4.452
    1STR    C0N 5350   0.091  11.407   4.607
    1STR    O0O 5351   0.150  11.539   4.591
    1STR    C0P 5352   0.079  11.646   4.540
    1STR    O0Q 5353  17.407  11.640   4.491
    1STR    N0R 5354   0.151  11.758   4.552
    1STR    C0S 5355   0.136  11.895   4.517
    1STR    C0T 5356   0.231  11.980   4.577
    1STR    C0U 5357   0.239  12.116   4.542
    1STR    C0V 5358   0.151  12.172   4.448
    1STR    C0W 5359   0.181  12.315   4.404
    1STR    C0X 5360   0.047  12.093   4.391
    1STR    N0Y 5361  17.401  12.149   4.293
    1STR   BCK2 5362  17.336  12.268   4.291
    1STR    O10 5363  17.326  12.344   4.387
    1STR    C13 5364   0.042  11.953   4.426
    1STR    C14 5365   0.281   9.991   4.536
    1STR    C15 5366   0.299   9.852   4.545
    1STR    C16 5367   0.207   9.762   4.489
    1STR    C17 5368   0.230   9.615   4.522
    1STR    H1B 5369  17.347   9.760   4.347
    1STR    H1C 5370  17.434   9.993   4.356
    1STR    H1D 5371   0.060  10.221   4.430
    1STR    H1E 5372   0.292  10.517   4.633
    1STR    H1F 5373   0.287  10.592   4.336
    1STR    H1G 5374   0.398  10.658   4.457
    1STR    H1H 5375   0.406  10.488   4.414
    1STR    H1I 5376   0.084  10.641   4.658
    1STR    H1J 5377   0.077  10.679   4.487
    1STR    H1K 5378   0.052  10.908   4.571
    1STR    H1M 5379   0.196  10.884   4.842
    1STR    H1N 5380   0.041  10.811   4.801
    1STR    H1O 5381   0.054  10.985   4.813
    1STR    H1P 5382   0.303  11.050   4.673
    1STR    H1Q 5383   0.263  11.033   4.504
    1STR    H1R 5384   0.273  11.303   4.667
    1STR    H1S 5385   0.298  11.399   4.434
    1STR    H1T 5386   0.186  11.278   4.374
    1STR    H1U 5387   0.343  11.230   4.440
    1STR    H1V 5388   0.046  11.403   4.706
    1STR    H1W 5389   0.009  11.394   4.536
    1STR    H1X 5390   0.237  11.736   4.600
    1STR    H1Y 5391   0.302  11.943   4.648
    1STR    H1Z 5392   0.315  12.177   4.587
    1STR    H20 5393   0.158  12.329   4.298
    1STR    H21 5394   0.122  12.385   4.462
    1STR    H22 5395   0.286  12.340   4.417
    1STR    H23 5396  17.387  12.094   4.210
    1STR    H27 5397  17.408  11.889   4.381
    1STR    H28 5398   0.356  10.051   4.585
    1STR    H29 5399   0.384   9.815   4.599
    1STR    H2A 5400   0.136   9.561   4.532
    1STR    H2B 5401   0.283   9.604   4.617
    1STR    H2C 5402   0.291   9.568   4.445
    1STR   BCK1 5403  17.302   9.589   8.589
    1STR    O03 5404  17.181   9.600   8.575
    1STR    N04 5405  17.388   9.690   8.564
    1STR    C05 5406  17.363   9.803   8.483
    1STR    C06 5407  17.380   9.939   8.526
    1STR    C07 5408  17.362  10.050   8.436
    1STR    N08 5409  17.384  10.185   8.476
    1STR    C09 5410  17.355  10.300   8.410
    1STR    O0A 5411  17.292  10.305   8.305
    1STR    O0B 5412  17.402  10.415   8.471
    1STR    C0C 5413  17.374  10.545   8.410
    1STR    C0D 5414  17.228  10.585   8.439
    1STR    C0E 5415   0.031  10.660   8.453
    1STR    O0F 5416  17.437  10.784   8.386
    1STR    C0G 5417   0.079  10.900   8.413
    1STR    C0H 5418   0.210  10.888   8.334
    1STR    C0I 5419   0.002  11.030   8.375
    1STR    O0J 5420   0.065  11.152   8.420
    1STR    C0K 5421  17.438  11.276   8.385
    1STR    C0M 5422  17.304  11.286   8.460
    1STR    C0N 5423   0.082  11.404   8.417
    1STR    O0O 5424   0.022  11.518   8.353
    1STR    C0P 5425   0.025  11.644   8.405
    1STR    O0Q 5426   0.063  11.675   8.517
    1STR    N0R 5427  17.423  11.728   8.310
    1STR    C0S 5428  17.410  11.867   8.297
    1STR    C0T 5429  17.438  11.915   8.168
    1STR    C0U 5430  17.410  12.047   8.133
    1STR    C0V 5431  17.349  12.136   8.223
    1STR    C0W 5432  17.305  12.267   8.163
    1STR    C0X 5433  17.325  12.096   8.358
    1STR    N0Y 5434  17.255  12.173   8.455
    1STR   BCK2 5435  17.219  12.301   8.485
    1STR    O10 5436  17.136  12.316   8.573
    1STR    C13 5437  17.357  11.960   8.392
    1STR    C14 5438  17.326  10.018   8.303
    1STR    C15 5439  17.311   9.886   8.259
    1STR    C16 5440  17.332   9.778   8.347
    1STR    C17 5441  17.327   9.637   8.289
    1STR    H1B 5442   0.044   9.672   8.588
    1STR    H1C 5443  17.407   9.957   8.629
    1STR    H1D 5444  17.427  10.202   8.565
    1STR    H1E 5445  17.386  10.534   8.302
    1STR    H1F 5446  17.210  10.598   8.545
    1STR    H1G 5447  17.203  10.678   8.388
    1STR    H1H 5448  17.158  10.510   8.402
    1STR    H1I 5449   0.133  10.630   8.429
    1STR    H1J 5450   0.027  10.673   8.561
    1STR    H1K 5451   0.101  10.905   8.520
    1STR    H1M 5452   0.190  10.876   8.227
    1STR    H1N 5453   0.270  10.803   8.366
    1STR    H1O 5454   0.271  10.978   8.346
    1STR    H1P 5455  17.428  11.033   8.266
    1STR    H1Q 5456  17.343  11.022   8.418
    1STR    H1R 5457  17.419  11.275   8.278
    1STR    H1S 5458  17.258  11.383   8.443
    1STR    H1T 5459  17.319  11.275   8.568
    1STR    H1U 5460  17.232  11.211   8.428
    1STR    H1V 5461   0.183  11.393   8.378
    1STR    H1W 5462   0.092  11.419   8.524
    1STR    H1X 5463  17.403  11.675   8.227
    1STR    H1Y 5464   0.040  11.850   8.093
    1STR    H1Z 5465  17.431  12.079   8.032
    1STR    H20 5466  17.205  12.294   8.198
    1STR    H21 5467  17.377  12.345   8.187
    1STR    H22 5468  17.298  12.262   8.054
    1STR    H23 5469  17.217  12.117   8.529
    1STR    H27 5470  17.336  11.922   8.491
    1STR    H28 5471  17.311  10.093   8.228
    1STR    H29 5472  17.285   9.867   8.156
    1STR    H2A 5473  17.412   9.579   8.324
    1STR    H2B 5474  17.330   9.638   8.181
    1STR    H2C 5475  17.235   9.587   8.320
    1STR   BCK1 5476  17.305   9.584  13.053
    1STR    O03 5477  17.382   9.523  13.127
    1STR    N04 5478  17.263   9.711  13.074
    1STR    C05 5479  17.279   9.802  13.183
    1STR    C06 5480  17.285   9.944  13.158
    1STR    C07 5481  17.290  10.042  13.264
    1STR    N08 5482  17.291  10.182  13.238
    1STR    C09 5483  17.261  10.287  13.320
    1STR    O0A 5484  17.222  10.274  13.435
    1STR    O0B 5485  17.279  10.411  13.262
    1STR    C0C 5486  17.261  10.533  13.339
    1STR    C0D 5487  17.387  10.560  13.423
    1STR    C0E 5488  17.226  10.658  13.251
    1STR    O0F 5489  17.209  10.781  13.327
    1STR    C0G 5490  17.165  10.898  13.253
    1STR    C0H 5491  17.014  10.885  13.225
    1STR    C0I 5492  17.193  11.032  13.329
    1STR    O0J 5493  17.166  11.148  13.247
    1STR    C0K 5494  17.179  11.280  13.306
    1STR    C0M 5495  17.326  11.306  13.344
    1STR    C0N 5496  17.130  11.392  13.208
    1STR    O0O 5497  17.133  11.523  13.269
    1STR    C0P 5498  17.146  11.637  13.194
    1STR    O0Q 5499  17.162  11.640  13.072
    1STR    N0R 5500  17.141  11.744  13.274
    1STR    C0S 5501  17.159  11.883  13.255
    1STR    C0T 5502  17.169  11.958  13.374
    1STR    C0U 5503  17.194  12.096  13.372
    1STR    C0V 5504  17.209  12.164  13.250
    1STR    C0W 5505  17.249  12.311  13.253
    1STR    C0X 5506  17.191  12.095  13.127
    1STR    N0Y 5507  17.207  12.166  13.007
    1STR   BCK2 5508  17.128  12.265  12.960
    1STR    O10 5509  17.020  12.296  13.011
    1STR    C13 5510  17.169  11.953  13.131
    1STR    C14 5511  17.294   9.993  13.396
    1STR    C15 5512  17.286   9.855  13.422
    1STR    C16 5513  17.275   9.761  13.319
    1STR    C17 5514  17.252   9.617  13.363
    1STR    H1B 5515  17.210   9.746  12.996
    1STR    H1C 5516  17.286   9.979  13.056
    1STR    H1D 5517  17.317  10.213  13.146
    1STR    H1E 5518  17.177  10.518  13.408
    1STR    H1F 5519   0.035  10.575  13.360
    1STR    H1G 5520  17.374  10.648  13.485
    1STR    H1H 5521  17.408  10.476  13.490
    1STR    H1I 5522  17.135  10.635  13.196
    1STR    H1J 5523  17.305  10.673  13.177
    1STR    H1K 5524  17.220  10.902  13.159
    1STR    H1M 5525  16.958  10.872  13.318
    1STR    H1N 5526  16.991  10.801  13.160
    1STR    H1O 5527  16.976  10.975  13.176
    1STR    H1P 5528  17.134  11.036  13.420
    1STR    H1Q 5529  17.298  11.033  13.360
    1STR    H1R 5530  17.117  11.284  13.396
    1STR    H1S 5531  17.339  11.408  13.381
    1STR    H1T 5532  17.391  11.294  13.257
    1STR    H1U 5533  17.361  11.239  13.422
    1STR    H1V 5534  17.028  11.372  13.177
    1STR    H1W 5535  17.190  11.392  13.117
    1STR    H1X 5536  17.123  11.714  13.368
    1STR    H1Y 5537  17.160  11.910  13.470
    1STR    H1Z 5538  17.206  12.149  13.465
    1STR    H20 5539  17.343  12.324  13.200
    1STR    H21 5540  17.174  12.373  13.205
    1STR    H22 5541  17.262  12.348  13.354
    1STR    H23 5542  17.291  12.149  12.954
    1STR    H27 5543  17.160  11.898  13.038
    1STR    H28 5544  17.301  10.059  13.481
    1STR    H29 5545  17.285   9.823  13.525
    1STR    H2A 5546  17.187   9.564  13.294
    1STR    H2B 5547  17.205   9.613  13.461
    1STR    H2C 5548  17.347   9.564  13.370
    1STR   BCK1 5549  17.430  13.963  17.264
    1STR    O03 5550   0.065  13.910  17.184
    1STR    N04 5551   0.013  14.081  17.328
    1STR    C05 5552   0.123  14.171  17.325
    1STR    C06 5553   0.102  14.313  17.339
    1STR    C07 5554   0.209  14.410  17.338
    1STR    N08 5555   0.188  14.549  17.360
    1STR    C09 5556   0.270  14.655  17.335
    1STR    O0A 5557   0.378  14.645  17.277
    1STR    O0B 5558   0.222  14.778  17.379
    1STR    C0C 5559   0.294  14.902  17.349
    1STR    C0D 5560   0.265  14.939  17.202
    1STR    C0E 5561   0.262  15.024   0.003
    1STR    O0F 5562   0.325  15.148  17.401
    1STR    C0G 5563   0.306  15.267   0.042
    1STR    C0H 5564   0.397  15.258   0.165
    1STR    C0I 5565   0.335  15.398  17.401
    1STR    O0J 5566   0.291  15.522   0.025
    1STR    C0K 5567   0.313  15.647  17.394
    1STR    C0M 5568   0.231  15.648  17.264
    1STR    C0N 5569   0.274  15.774   0.037
    1STR    O0O 5570   0.306  15.897  17.407
    1STR    C0P 5571   0.226  16.009  17.411
    1STR    O0Q 5572   0.115  16.015   0.022
    1STR    N0R 5573   0.288  16.113  17.352
    1STR    C0S 5574   0.257  16.249  17.329
    1STR    C0T 5575   0.368  16.333  17.308
    1STR    C0U 5576   0.351  16.470  17.281
    1STR    C0V 5577   0.223  16.528  17.275
    1STR    C0W 5578   0.219  16.678  17.255
    1STR    C0X 5579   0.107  16.448  17.293
    1STR    N0Y 5580  17.414  16.498  17.299
    1STR   BCK2 5581  17.336  16.601  17.256
    1STR    O10 5582  17.223  16.607  17.303
    1STR    C13 5583   0.127  16.308  17.322
    1STR    C14 5584   0.339  14.358  17.320
    1STR    C15 5585   0.363  14.221  17.310
    1STR    C16 5586   0.258  14.127  17.317
    1STR    C17 5587   0.300  13.981  17.324
    1STR    H1B 5588  17.375  14.109  17.384
    1STR    H1C 5589   0.001  14.349  17.351
    1STR    H1D 5590   0.101  14.578  17.400
    1STR    H1E 5591   0.401  14.882  17.358
    1STR    H1F 5592   0.159  14.960  17.187
    1STR    H1G 5593   0.321  15.028  17.173
    1STR    H1H 5594   0.294  14.859  17.134
    1STR    H1I 5595   0.294  14.998   0.104
    1STR    H1J 5596   0.154  15.039   0.008
    1STR    H1K 5597   0.202  15.271   0.073
    1STR    H1M 5598   0.502  15.246   0.136
    1STR    H1N 5599   0.371  15.174   0.230
    1STR    H1O 5600   0.390  15.348   0.225
    1STR    H1P 5601   0.442  15.405  17.379
    1STR    H1Q 5602   0.285  15.388  17.305
    1STR    H1R 5603   0.419  15.654  17.370
    1STR    H1S 5604   0.239  15.745  17.214
    1STR    H1T 5605   0.125  15.631  17.285
    1STR    H1U 5606   0.264  15.574  17.192
    1STR    H1V 5607   0.329  15.775   0.131
    1STR    H1W 5608   0.168  15.772   0.063
    1STR    H1X 5609   0.380  16.084  17.324
    1STR    H1Y 5610   0.468  16.295  17.313
    1STR    H1Z 5611   0.438  16.531  17.268
    1STR    H20 5612   0.200  16.701  17.150
    1STR    H21 5613   0.142  16.724  17.317
    1STR    H22 5614   0.313  16.726  17.281
    1STR    H23 5615  17.354  16.441  17.356
    1STR    H27 5616   0.042  16.244  17.340
    1STR    H28 5617   0.426  14.422  17.317
    1STR    H29 5618   0.465  14.187  17.300
    1STR    H2A 5619   0.231  13.923  17.385
    1STR    H2B 5620   0.398  13.971  17.370
    1STR    H2C 5621   0.306  13.938  17.224
    1STR   BCK1 5622  17.335  13.929   4.243
    1STR    O03 5623  17.414  13.871   4.317
    1STR    N04 5624  17.312  14.060   4.269
    1STR    C05 5625  17.220  14.160   4.233
    1STR    C06 5626  17.262  14.298   4.233
    1STR    C07 5627  17.172  14.407   4.211
    1STR    N08 5628  17.215  14.544   4.215
    1STR    C09 5629  17.144  14.659   4.203
    1STR    O0A 5630  17.023  14.663   4.185
    1STR    O0B 5631  17.219  14.774   4.213
    1STR    C0C 5632  17.154  14.904   4.208
    1STR    C0D 5633  17.091  14.935   4.345
    1STR    C0E 5634  17.246  15.022   4.163
    1STR    O0F 5635  17.172  15.146   4.151
    1STR    C0G 5636  17.242  15.261   4.100
    1STR    C0H 5637  17.259  15.246   3.948
    1STR    C0I 5638  17.164  15.393   4.133
    1STR    O0J 5639  17.237  15.512   4.095
    1STR    C0K 5640  17.170  15.639   4.114
    1STR    C0M 5641  17.155  15.668   4.264
    1STR    C0N 5642  17.246  15.757   4.045
    1STR    O0O 5643  17.163  15.874   4.035
    1STR    C0P 5644  17.208  16.000   4.062
    1STR    O0Q 5645  17.321  16.028   4.101
    1STR    N0R 5646  17.108  16.087   4.046
    1STR    C0S 5647  17.093  16.222   4.084
    1STR    C0T 5648  16.968  16.254   4.140
    1STR    C0U 5649  16.942  16.382   4.191
    1STR    C0V 5650  17.039  16.484   4.181
    1STR    C0W 5651  17.014  16.613   4.258
    1STR    C0X 5652  17.160  16.460   4.111
    1STR    N0Y 5653  17.256  16.562   4.100
    1STR   BCK2 5654  17.251  16.690   4.059
    1STR    O10 5655  17.345  16.765   4.085
    1STR    C13 5656  17.188  16.327   4.068
    1STR    C14 5657  17.037  14.373   4.186
    1STR    C15 5658  16.993  14.240   4.189
    1STR    C16 5659  17.081  14.134   4.215
    1STR    C17 5660  17.019  13.997   4.233
    1STR    H1B 5661  17.379  14.089   4.338
    1STR    H1C 5662  17.365  14.320   4.252
    1STR    H1D 5663  17.312  14.561   4.232
    1STR    H1E 5664  17.074  14.898   4.135
    1STR    H1F 5665  17.166  14.944   4.424
    1STR    H1G 5666  17.035  15.029   4.342
    1STR    H1H 5667  17.020  14.857   4.375
    1STR    H1I 5668  17.291  14.995   4.067
    1STR    H1J 5669  17.328  15.034   4.234
    1STR    H1K 5670  17.340  15.268   4.148
    1STR    H1M 5671  17.163  15.231   3.899
    1STR    H1N 5672  17.323  15.162   3.922
    1STR    H1O 5673  17.304  15.335   3.905
    1STR    H1P 5674  17.067  15.391   4.083
    1STR    H1Q 5675  17.144  15.394   4.240
    1STR    H1R 5676  17.071  15.633   4.068
    1STR    H1S 5677  17.114  15.768   4.280
    1STR    H1T 5678  17.252  15.665   4.314
    1STR    H1U 5679  17.088  15.598   4.314
    1STR    H1V 5680  17.275  15.728   3.944
    1STR    H1W 5681  17.339  15.779   4.098
    1STR    H1X 5682  17.026  16.040   4.012
    1STR    H1Y 5683  16.892  16.178   4.152
    1STR    H1Z 5684  16.849  16.401   4.241
    1STR    H20 5685  17.106  16.648   4.305
    1STR    H21 5686  16.974  16.691   4.194
    1STR    H22 5687  16.941  16.597   4.338
    1STR    H23 5688  17.349  16.538   4.133
    1STR    H27 5689  17.284  16.304   4.023
    1STR    H28 5690  16.960  14.447   4.168
    1STR    H29 5691  16.888  14.220   4.174
    1STR    H2A 5692  17.016  13.945   4.138
    1STR    H2B 5693  16.916  14.005   4.269
    1STR    H2C 5694  17.073  13.938   4.307
    1STR   BCK1 5695  17.403  13.956   8.704
    1STR    O03 5696   0.067  13.895   8.721
    1STR    N04 5697  17.377  14.081   8.753
    1STR    C05 5698   0.009  14.168   8.840
    1STR    C06 5699  17.438  14.311   8.827
    1STR    C07 5700   0.062  14.405   8.915
    1STR    N08 5701   0.045  14.546   8.902
    1STR    C09 5702   0.086  14.649   8.982
    1STR    O0A 5703   0.151  14.634   9.085
    1STR    O0B 5704   0.049  14.775   8.937
    1STR    C0C 5705   0.095  14.896   9.005
    1STR    C0D 5706   0.241  14.925   8.963
    1STR    C0E 5707   0.005  15.022   8.981
    1STR    O0F 5708   0.055  15.146   9.040
    1STR    C0G 5709  17.410  15.263   9.031
    1STR    C0H 5710  17.300  15.252   9.137
    1STR    C0I 5711   0.048  15.399   9.050
    1STR    O0J 5712  17.408  15.516   9.014
    1STR    C0K 5713   0.024  15.648   9.033
    1STR    C0M 5714   0.151  15.665   8.948
    1STR    C0N 5715  17.362  15.762   8.996
    1STR    O0O 5716  17.413  15.896   9.016
    1STR    C0P 5717  17.368  16.004   8.943
    1STR    O0Q 5718  17.290  15.998   8.849
    1STR    N0R 5719  17.423  16.117   8.990
    1STR    C0S 5720  17.422  16.254   8.954
    1STR    C0T 5721   0.057  16.337   9.040
    1STR    C0U 5722   0.076  16.473   9.011
    1STR    C0V 5723   0.020  16.532   8.897
    1STR    C0W 5724   0.063  16.674   8.865
    1STR    C0X 5725  17.374  16.456   8.812
    1STR    N0Y 5726  17.318  16.516   8.697
    1STR   BCK2 5727  17.255  16.635   8.683
    1STR    O10 5728  17.220  16.707   8.776
    1STR    C13 5729  17.359  16.316   8.841
    1STR    C14 5730   0.144  14.350   9.015
    1STR    C15 5731   0.155  14.211   9.033
    1STR    C16 5732   0.086  14.120   8.951
    1STR    C17 5733   0.093  13.974   8.993
    1STR    H1B 5734  17.290  14.117   8.717
    1STR    H1C 5735  17.377  14.349   8.747
    1STR    H1D 5736  17.433  14.580   8.823
    1STR    H1E 5737   0.095  14.877   9.113
    1STR    H1F 5738   0.249  14.944   8.856
    1STR    H1G 5739   0.280  15.012   9.016
    1STR    H1H 5740   0.306  14.841   8.987
    1STR    H1I 5741  17.346  15.000   9.020
    1STR    H1J 5742  17.434  15.038   8.873
    1STR    H1K 5743  17.366  15.266   8.932
    1STR    H1M 5744  17.342  15.240   9.237
    1STR    H1N 5745  17.234  15.167   9.120
    1STR    H1O 5746  17.237  15.341   9.138
    1STR    H1P 5747   0.083  15.408   9.153
    1STR    H1Q 5748   0.137  15.396   8.987
    1STR    H1R 5749   0.050  15.660   9.139
    1STR    H1S 5750   0.190  15.767   8.956
    1STR    H1T 5751   0.130  15.646   8.843
    1STR    H1U 5752   0.231  15.599   8.980
    1STR    H1V 5753  17.271  15.752   9.056
    1STR    H1W 5754  17.330  15.750   8.892
    1STR    H1X 5755   0.039  16.094   9.070
    1STR    H1Y 5756   0.105  16.297   9.128
    1STR    H1Z 5757   0.139  16.531   9.077
    1STR    H20 5758   0.070  16.691   8.758
    1STR    H21 5759  17.432  16.746   8.907
    1STR    H22 5760   0.161  16.697   8.907
    1STR    H23 5761  17.326  16.464   8.611
    1STR    H27 5762  17.299  16.254   8.775
    1STR    H28 5763   0.200  14.411   9.084
    1STR    H29 5764   0.216  14.174   9.115
    1STR    H2A 5765   0.001  13.922   8.971
    1STR    H2B 5766   0.111  13.965   9.100
    1STR    H2C 5767   0.176  13.924   8.942
    1STR   BCK1 5768  17.337  13.956  12.910
    1STR    O03 5769  17.249  13.969  12.825
    1STR    N04 5770  17.427  14.053  12.940
    1STR    C05 5771   0.024  14.162  12.858
    1STR    C06 5772   0.020  14.300  12.899
    1STR    C07 5773   0.068  14.407  12.815
    1STR    N08 5774   0.069  14.544  12.856
    1STR    C09 5775   0.088  14.656  12.781
    1STR    O0A 5776   0.096  14.656  12.659
    1STR    O0B 5777   0.095  14.775  12.854
    1STR    C0C 5778   0.109  14.902  12.784
    1STR    C0D 5779  17.412  14.942  12.726
    1STR    C0E 5780   0.167  15.020  12.869
    1STR    O0F 5781   0.174  15.144  12.794
    1STR    C0G 5782   0.226  15.263  12.859
    1STR    C0H 5783   0.379  15.252  12.864
    1STR    C0I 5784   0.181  15.392  12.782
    1STR    O0J 5785   0.208  15.517  12.851
    1STR    C0K 5786   0.163  15.638  12.785
    1STR    C0M 5787   0.009  15.643  12.783
    1STR    C0N 5788   0.214  15.770  12.852
    1STR    O0O 5789   0.184  15.885  12.768
    1STR    C0P 5790   0.146  16.006  12.818
    1STR    O0Q 5791   0.121  16.030  12.936
    1STR    N0R 5792   0.147  16.098  12.721
    1STR    C0S 5793   0.129  16.238  12.717
    1STR    C0T 5794   0.221  16.309  12.639
    1STR    C0U 5795   0.213  16.448  12.626
    1STR    C0V 5796   0.110  16.521  12.688
    1STR    C0W 5797   0.121  16.672  12.679
    1STR    C0X 5798   0.009  16.454  12.762
    1STR    N0Y 5799  17.345  16.520  12.830
    1STR   BCK2 5800  17.265  16.629  12.815
    1STR    O10 5801  17.191  16.659  12.909
    1STR    C13 5802   0.023  16.312  12.779
    1STR    C14 5803   0.122  14.369  12.690
    1STR    C15 5804   0.129  14.235  12.649
    1STR    C16 5805   0.083  14.132  12.733
    1STR    C17 5806   0.104  13.988  12.687
    1STR    H1B 5807   0.045  14.034  13.019
    1STR    H1C 5808  17.418  14.323  12.996
    1STR    H1D 5809   0.054  14.564  12.953
    1STR    H1E 5810   0.178  14.887  12.701
    1STR    H1F 5811  17.338  14.959  12.804
    1STR    H1G 5812  17.420  15.034  12.667
    1STR    H1H 5813  17.373  14.865  12.659
    1STR    H1I 5814   0.267  14.993  12.904
    1STR    H1J 5815   0.105  15.035  12.958
    1STR    H1K 5816   0.185  15.269  12.960
    1STR    H1M 5817   0.421  15.239  12.764
    1STR    H1N 5818   0.413  15.169  12.925
    1STR    H1O 5819   0.422  15.343  12.906
    1STR    H1P 5820   0.229  15.394  12.684
    1STR    H1Q 5821   0.075  15.382  12.764
    1STR    H1R 5822   0.201  15.638  12.683
    1STR    H1S 5823  17.414  15.738  12.744
    1STR    H1T 5824  17.409  15.633  12.884
    1STR    H1U 5825  17.405  15.565  12.721
    1STR    H1V 5826   0.322  15.766  12.865
    1STR    H1W 5827   0.172  15.783  12.952
    1STR    H1X 5828   0.176  16.055  12.635
    1STR    H1Y 5829   0.303  16.257  12.590
    1STR    H1Z 5830   0.288  16.500  12.568
    1STR    H20 5831   0.070  16.708  12.589
    1STR    H21 5832   0.079  16.721  12.767
    1STR    H22 5833   0.225  16.704  12.672
    1STR    H23 5834  17.318  16.475  12.916
    1STR    H27 5835  17.391  16.257  12.838
    1STR    H28 5836   0.163  14.441  12.621
    1STR    H29 5837   0.173  14.212  12.554
    1STR    H2A 5838   0.147  13.928  12.768
    1STR    H2B 5839   0.173  13.982  12.603
    1STR    H2C 5840   0.010  13.944  12.657
    1STR   BCK1 5841   4.202   0.863  17.369
    1STR    O03 5842   4.250   0.810   0.028
    1STR    N04 5843   4.157   0.990  17.364
    1STR    C05 5844   4.131   1.085   0.025
    1STR    C06 5845   4.155   1.225   0.003
    1STR    C07 5846   4.113   1.327   0.095
    1STR    N08 5847   4.133   1.466   0.069
    1STR    C09 5848   4.068   1.573   0.121
    1STR    O0A 5849   3.974   1.565   0.199
    1STR    O0B 5850   4.117   1.695   0.077
    1STR    C0C 5851   4.064   1.819   0.130
    1STR    C0D 5852   4.130   1.848   0.267
    1STR    C0E 5853   4.083   1.941   0.034
    1STR    O0F 5854   4.028   2.064   0.087
    1STR    C0G 5855   4.031   2.180   0.000
    1STR    C0H 5856   3.921   2.166  17.334
    1STR    C0I 5857   4.011   2.313   0.080
    1STR    O0J 5858   4.028   2.430  17.437
    1STR    C0K 5859   4.006   2.559   0.057
    1STR    C0M 5860   4.114   2.587   0.163
    1STR    C0N 5861   4.006   2.674  17.391
    1STR    O0O 5862   3.967   2.800   0.009
    1STR    C0P 5863   4.011   2.919  17.400
    1STR    O0Q 5864   4.088   2.933  17.306
    1STR    N0R 5865   3.959   3.019   0.033
    1STR    C0S 5866   3.980   3.158   0.036
    1STR    C0T 5867   3.941   3.221   0.156
    1STR    C0U 5868   3.962   3.359   0.176
    1STR    C0V 5869   4.018   3.438   0.074
    1STR    C0W 5870   4.050   3.583   0.105
    1STR    C0X 5871   4.050   3.380  17.389
    1STR    N0Y 5872   4.099   3.461  17.285
    1STR   BCK2 5873   4.025   3.557  17.226
    1STR    O10 5874   3.961   3.527  17.126
    1STR    C13 5875   4.034   3.239  17.372
    1STR    C14 5876   4.052   1.284   0.214
    1STR    C15 5877   4.028   1.148   0.239
    1STR    C16 5878   4.064   1.049   0.145
    1STR    C17 5879   4.020   0.907   0.177
    1STR    H1B 5880   4.135   1.019  17.270
    1STR    H1C 5881   4.204   1.255  17.351
    1STR    H1D 5882   4.203   1.492   0.002
    1STR    H1E 5883   3.957   1.807   0.146
    1STR    H1F 5884   4.238   1.861   0.257
    1STR    H1G 5885   4.089   1.939   0.311
    1STR    H1H 5886   4.112   1.767   0.337
    1STR    H1I 5887   4.035   1.916  17.379
    1STR    H1J 5888   4.189   1.955   0.013
    1STR    H1K 5889   4.128   2.185  17.392
    1STR    H1M 5890   3.823   2.152  17.380
    1STR    H1N 5891   3.938   2.081  17.267
    1STR    H1O 5892   3.915   2.255  17.272
    1STR    H1P 5893   3.912   2.314   0.125
    1STR    H1Q 5894   4.083   2.314   0.162
    1STR    H1R 5895   3.907   2.559   0.105
    1STR    H1S 5896   4.104   2.688   0.203
    1STR    H1T 5897   4.214   2.580   0.120
    1STR    H1U 5898   4.108   2.519   0.248
    1STR    H1V 5899   3.937   2.651  17.310
    1STR    H1W 5900   4.105   2.683  17.345
    1STR    H1X 5901   3.898   2.981   0.102
    1STR    H1Y 5902   3.898   3.164   0.237
    1STR    H1Z 5903   3.936   3.403   0.271
    1STR    H20 5904   4.154   3.604   0.082
    1STR    H21 5905   3.987   3.650   0.047
    1STR    H22 5906   4.034   3.607   0.211
    1STR    H23 5907   4.157   3.412  17.219
    1STR    H27 5908   4.061   3.192  17.279
    1STR    H28 5909   4.021   1.354   0.290
    1STR    H29 5910   3.977   1.120   0.330
    1STR    H2A 5911   3.990   0.853   0.087
    1STR    H2B 5912   3.935   0.906   0.245
    1STR    H2C 5913   4.102   0.853   0.225
    1STR   BCK1 5914   4.374   0.882   4.251
    1STR    O03 5915   4.473   0.825   4.206
    1STR    N04 5916   4.376   1.003   4.314
    1STR    C05 5917   4.483   1.090   4.352
    1STR    C06 5918   4.463   1.233   4.355
    1STR    C07 5919   4.565   1.327   4.395
    1STR    N08 5920   4.541   1.468   4.403
    1STR    C09 5921   4.627   1.571   4.424
    1STR    O0A 5922   4.749   1.558   4.433
    1STR    O0B 5923   4.567   1.696   4.434
    1STR    C0C 5924   4.647   1.818   4.446
    1STR    C0D 5925   4.704   1.853   4.307
    1STR    C0E 5926   4.572   1.943   4.506
    1STR    O0F 5927   4.649   2.067   4.502
    1STR    C0G 5928   4.589   2.185   4.562
    1STR    C0H 5929   4.604   2.176   4.714
    1STR    C0I 5930   4.653   2.319   4.509
    1STR    O0J 5931   4.577   2.439   4.541
    1STR    C0K 5932   4.629   2.568   4.498
    1STR    C0M 5933   4.640   2.573   4.345
    1STR    C0N 5934   4.540   2.689   4.546
    1STR    O0O 5935   4.593   2.818   4.507
    1STR    C0P 5936   4.513   2.926   4.476
    1STR    O0Q 5937   4.391   2.923   4.462
    1STR    N0R 5938   4.588   3.037   4.464
    1STR    C0S 5939   4.565   3.174   4.434
    1STR    C0T 5940   4.668   3.260   4.477
    1STR    C0U 5941   4.668   3.396   4.443
    1STR    C0V 5942   4.566   3.451   4.364
    1STR    C0W 5943   4.586   3.594   4.316
    1STR    C0X 5944   4.454   3.372   4.325
    1STR    N0Y 5945   4.355   3.427   4.241
    1STR   BCK2 5946   4.289   3.545   4.248
    1STR    O10 5947   4.291   3.621   4.345
    1STR    C13 5948   4.457   3.232   4.360
    1STR    C14 5949   4.690   1.271   4.429
    1STR    C15 5950   4.712   1.133   4.430
    1STR    C16 5951   4.610   1.042   4.397
    1STR    C17 5952   4.642   0.896   4.421
    1STR    H1B 5953   4.284   1.035   4.335
    1STR    H1C 5954   4.367   1.271   4.326
    1STR    H1D 5955   4.447   1.500   4.393
    1STR    H1E 5956   4.731   1.797   4.512
    1STR    H1F 5957   4.625   1.874   4.235
    1STR    H1G 5958   4.769   1.940   4.312
    1STR    H1H 5959   4.764   1.771   4.267
    1STR    H1I 5960   4.544   1.919   4.608
    1STR    H1J 5961   4.479   1.958   4.451
    1STR    H1K 5962   4.483   2.188   4.535
    1STR    H1M 5963   4.709   2.165   4.743
    1STR    H1N 5964   4.550   2.092   4.757
    1STR    H1O 5965   4.567   2.266   4.763
    1STR    H1P 5966   4.755   2.329   4.547
    1STR    H1Q 5967   4.661   2.310   4.401
    1STR    H1R 5968   4.728   2.581   4.542
    1STR    H1S 5969   4.671   2.672   4.312
    1STR    H1T 5970   4.543   2.552   4.299
    1STR    H1U 5971   4.713   2.503   4.306
    1STR    H1V 5972   4.531   2.688   4.655
    1STR    H1W 5973   4.438   2.678   4.508
    1STR    H1X 5974   4.683   3.013   4.485
    1STR    H1Y 5975   4.751   3.222   4.535
    1STR    H1Z 5976   4.751   3.457   4.474
    1STR    H20 5977   4.548   3.608   4.215
    1STR    H21 5978   4.536   3.664   4.383
    1STR    H22 5979   4.692   3.621   4.314
    1STR    H23 5980   4.329   3.372   4.161
    1STR    H27 5981   4.376   3.167   4.328
    1STR    H28 5982   4.774   1.332   4.458
    1STR    H29 5983   4.809   1.096   4.460
    1STR    H2A 5984   4.554   0.840   4.452
    1STR    H2B 5985   4.716   0.884   4.499
    1STR    H2C 5986   4.683   0.851   4.330
    1STR   BCK1 5987   4.231   0.860   8.603
    1STR    O03 5988   4.116   0.858   8.647
    1STR    N04 5989   4.288   0.971   8.551
    1STR    C05 5990   4.220   1.084   8.500
    1STR    C06 5991   4.253   1.219   8.535
    1STR    C07 5992   4.189   1.332   8.473
    1STR    N08 5993   4.226   1.467   8.502
    1STR    C09 5994   4.186   1.583   8.443
    1STR    O0A 5995   4.106   1.589   8.351
    1STR    O0B 5996   4.243   1.698   8.495
    1STR    C0C 5997   4.196   1.829   8.449
    1STR    C0D 5998   4.067   1.864   8.525
    1STR    C0E 5999   4.299   1.945   8.460
    1STR    O0F 6000   4.245   2.070   8.409
    1STR    C0G 6001   4.332   2.185   8.403
    1STR    C0H 6002   4.427   2.169   8.282
    1STR    C0I 6003   4.251   2.318   8.390
    1STR    O0J 6004   4.332   2.437   8.402
    1STR    C0K 6005   4.267   2.565   8.383
    1STR    C0M 6006   4.165   2.590   8.495
    1STR    C0N 6007   4.369   2.683   8.378
    1STR    O0O 6008   4.315   2.801   8.315
    1STR    C0P 6009   4.304   2.922   8.377
    1STR    O0Q 6010   4.333   2.946   8.493
    1STR    N0R 6011   4.250   3.010   8.291
    1STR    C0S 6012   4.191   3.137   8.306
    1STR    C0T 6013   4.074   3.155   8.230
    1STR    C0U 6014   3.996   3.271   8.244
    1STR    C0V 6015   4.035   3.374   8.331
    1STR    C0W 6016   3.931   3.481   8.360
    1STR    C0X 6017   4.161   3.368   8.396
    1STR    N0Y 6018   4.205   3.474   8.478
    1STR   BCK2 6019   4.203   3.609   8.469
    1STR    O10 6020   4.230   3.676   8.568
    1STR    C13 6021   4.235   3.245   8.388
    1STR    C14 6022   4.088   1.303   8.379
    1STR    C15 6023   4.057   1.172   8.342
    1STR    C16 6024   4.125   1.063   8.398
    1STR    C17 6025   4.096   0.925   8.340
    1STR    H1B 6026   4.386   0.962   8.529
    1STR    H1C 6027   4.329   1.236   8.610
    1STR    H1D 6028   4.292   1.483   8.576
    1STR    H1E 6029   4.171   1.821   8.343
    1STR    H1F 6030   4.085   1.876   8.632
    1STR    H1G 6031   4.024   1.957   8.488
    1STR    H1H 6032   3.991   1.787   8.512
    1STR    H1I 6033   4.388   1.917   8.403
    1STR    H1J 6034   4.330   1.958   8.563
    1STR    H1K 6035   4.390   2.190   8.495
    1STR    H1M 6036   4.370   2.155   8.190
    1STR    H1N 6037   4.494   2.083   8.293
    1STR    H1O 6038   4.489   2.257   8.270
    1STR    H1P 6039   4.197   2.318   8.295
    1STR    H1Q 6040   4.175   2.317   8.468
    1STR    H1R 6041   4.215   2.562   8.287
    1STR    H1S 6042   4.123   2.690   8.488
    1STR    H1T 6043   4.213   2.582   8.593
    1STR    H1U 6044   4.081   2.520   8.493
    1STR    H1V 6045   4.455   2.653   8.318
    1STR    H1W 6046   4.408   2.706   8.477
    1STR    H1X 6047   4.239   2.966   8.201
    1STR    H1Y 6048   4.038   3.077   8.164
    1STR    H1Z 6049   3.903   3.278   8.190
    1STR    H20 6050   3.949   3.531   8.455
    1STR    H21 6051   3.927   3.554   8.280
    1STR    H22 6052   3.832   3.436   8.368
    1STR    H23 6053   4.248   3.446   8.565
    1STR    H27 6054   4.327   3.234   8.443
    1STR    H28 6055   4.030   1.379   8.330
    1STR    H29 6056   3.982   1.155   8.266
    1STR    H2A 6057   4.189   0.869   8.327
    1STR    H2B 6058   4.048   0.931   8.243
    1STR    H2C 6059   4.031   0.868   8.407
    1STR   BCK1 6060   4.260   0.875  13.073
    1STR    O03 6061   4.353   0.815  13.125
    1STR    N04 6062   4.220   1.000  13.108
    1STR    C05 6063   4.260   1.089  13.212
    1STR    C06 6064   4.259   1.231  13.191
    1STR    C07 6065   4.290   1.327  13.293
    1STR    N08 6066   4.283   1.468  13.271
    1STR    C09 6067   4.280   1.571  13.360
    1STR    O0A 6068   4.281   1.557  13.482
    1STR    O0B 6069   4.276   1.696  13.301
    1STR    C0C 6070   4.283   1.817  13.381
    1STR    C0D 6071   4.430   1.845  13.419
    1STR    C0E 6072   4.220   1.942  13.311
    1STR    O0F 6073   4.230   2.065  13.388
    1STR    C0G 6074   4.163   2.182  13.334
    1STR    C0H 6075   4.012   2.169  13.361
    1STR    C0I 6076   4.216   2.317  13.393
    1STR    O0J 6077   4.164   2.433  13.323
    1STR    C0K 6078   4.198   2.565  13.372
    1STR    C0M 6079   4.349   2.588  13.361
    1STR    C0N 6080   4.123   2.676  13.291
    1STR    O0O 6081   4.148   2.809  13.341
    1STR    C0P 6082   4.141   2.920  13.260
    1STR    O0Q 6083   4.120   2.918  13.140
    1STR    N0R 6084   4.161   3.031  13.333
    1STR    C0S 6085   4.172   3.169  13.304
    1STR    C0T 6086   4.205   3.249  13.415
    1STR    C0U 6087   4.228   3.387  13.401
    1STR    C0V 6088   4.217   3.450  13.276
    1STR    C0W 6089   4.257   3.596  13.264
    1STR    C0X 6090   4.177   3.374  13.162
    1STR    N0Y 6091   4.170   3.440  13.038
    1STR   BCK2 6092   4.090   3.543  13.002
    1STR    O10 6093   3.998   3.585  13.071
    1STR    C13 6094   4.157   3.233  13.177
    1STR    C14 6095   4.328   1.275  13.419
    1STR    C15 6096   4.327   1.137  13.443
    1STR    C16 6097   4.291   1.044  13.344
    1STR    C17 6098   4.279   0.899  13.388
    1STR    H1B 6099   4.150   1.036  13.046
    1STR    H1C 6100   4.233   1.268  13.093
    1STR    H1D 6101   4.278   1.500  13.176
    1STR    H1E 6102   4.227   1.801  13.473
    1STR    H1F 6103   4.492   1.862  13.331
    1STR    H1G 6104   4.438   1.933  13.483
    1STR    H1H 6105   4.473   1.761  13.474
    1STR    H1I 6106   4.116   1.919  13.290
    1STR    H1J 6107   4.269   1.958  13.214
    1STR    H1K 6108   4.181   2.186  13.226
    1STR    H1M 6109   3.992   2.157  13.468
    1STR    H1N 6110   3.967   2.085  13.309
    1STR    H1O 6111   3.959   2.259  13.328
    1STR    H1P 6112   4.191   2.323  13.499
    1STR    H1Q 6113   4.325   2.316  13.387
    1STR    H1R 6114   4.167   2.572  13.476
    1STR    H1S 6115   4.375   2.690  13.390
    1STR    H1T 6116   4.384   2.573  13.259
    1STR    H1U 6117   4.406   2.522  13.426
    1STR    H1V 6118   4.015   2.660  13.296
    1STR    H1W 6119   4.149   2.671  13.186
    1STR    H1X 6120   4.171   3.005  13.429
    1STR    H1Y 6121   4.215   3.207  13.514
    1STR    H1Z 6122   4.256   3.445  13.488
    1STR    H20 6123   4.331   3.609  13.185
    1STR    H21 6124   4.171   3.658  13.240
    1STR    H22 6125   4.300   3.634  13.357
    1STR    H23 6126   4.236   3.411  12.968
    1STR    H27 6127   4.131   3.173  13.091
    1STR    H28 6128   4.357   1.338  13.501
    1STR    H29 6129   4.353   1.102  13.542
    1STR    H2A 6130   4.199   0.847  13.335
    1STR    H2B 6131   4.257   0.892  13.495
    1STR    H2C 6132   4.373   0.847  13.371
    1STR   BCK1 6133   4.315   5.243  17.276
    1STR    O03 6134   4.272   5.256  17.162
    1STR    N04 6135   4.387   5.339  17.340
    1STR    C05 6136   4.463   5.444  17.284
    1STR    C06 6137   4.446   5.584  17.314
    1STR    C07 6138   4.535   5.686  17.265
    1STR    N08 6139   4.522   5.825  17.298
    1STR    C09 6140   4.584   5.934  17.245
    1STR    O0A 6141   4.661   5.929  17.150
    1STR    O0B 6142   4.553   6.055  17.307
    1STR    C0C 6143   4.607   6.181  17.253
    1STR    C0D 6144   4.527   6.219  17.127
    1STR    C0E 6145   4.610   6.303  17.353
    1STR    O0F 6146   4.655   6.426  17.291
    1STR    C0G 6147   4.664   6.546  17.373
    1STR    C0H 6148   4.791   6.537   0.019
    1STR    C0I 6149   4.666   6.677  17.286
    1STR    O0J 6150   4.647   6.801  17.359
    1STR    C0K 6151   4.643   6.925  17.282
    1STR    C0M 6152   4.518   6.926  17.192
    1STR    C0N 6153   4.641   7.055  17.369
    1STR    O0O 6154   4.651   7.175  17.288
    1STR    C0P 6155   4.580   7.290  17.314
    1STR    O0Q 6156   4.492   7.302  17.398
    1STR    N0R 6157   4.624   7.390  17.235
    1STR    C0S 6158   4.594   7.527  17.222
    1STR    C0T 6159   4.701   7.609  17.180
    1STR    C0U 6160   4.683   7.747  17.161
    1STR    C0V 6161   4.558   7.809  17.180
    1STR    C0W 6162   4.555   7.960  17.166
    1STR    C0X 6163   4.445   7.731  17.218
    1STR    N0Y 6164   4.318   7.785  17.248
    1STR   BCK2 6165   4.236   7.889  17.218
    1STR    O10 6166   4.133   7.900  17.284
    1STR    C13 6167   4.467   7.590  17.241
    1STR    C14 6168   4.643   5.641  17.185
    1STR    C15 6169   4.663   5.505  17.156
    1STR    C16 6170   4.576   5.407  17.206
    1STR    C17 6171   4.609   5.261  17.180
    1STR    H1B 6172   4.404   5.320  17.437
    1STR    H1C 6173   4.363   5.612  17.376
    1STR    H1D 6174   4.456   5.849  17.370
    1STR    H1E 6175   4.710   6.163  17.223
    1STR    H1F 6176   4.422   6.239  17.151
    1STR    H1G 6177   4.568   6.309  17.081
    1STR    H1H 6178   4.530   6.140  17.052
    1STR    H1I 6179   4.675   6.277  17.437
    1STR    H1J 6180   4.510   6.318  17.395
    1STR    H1K 6181   4.576   6.551  17.438
    1STR    H1M 6182   4.880   6.525  17.396
    1STR    H1N 6183   4.788   6.454   0.089
    1STR    H1O 6184   4.806   6.628   0.077
    1STR    H1P 6185   4.759   6.681  17.229
    1STR    H1Q 6186   4.586   6.666  17.212
    1STR    H1R 6187   4.733   6.929  17.219
    1STR    H1S 6188   4.508   7.022  17.141
    1STR    H1T 6189   4.428   6.911  17.252
    1STR    H1U 6190   4.521   6.849  17.115
    1STR    H1V 6191   4.725   7.055  17.438
    1STR    H1W 6192   4.551   7.058  17.431
    1STR    H1X 6193   4.701   7.357  17.180
    1STR    H1Y 6194   4.799   7.568  17.166
    1STR    H1Z 6195   4.769   7.806  17.132
    1STR    H20 6196   4.522   7.986  17.065
    1STR    H21 6197   4.490   8.005  17.240
    1STR    H22 6198   4.654   8.003  17.180
    1STR    H23 6199   4.268   7.729  17.315
    1STR    H27 6200   4.385   7.528  17.273
    1STR    H28 6201   4.717   5.708  17.146
    1STR    H29 6202   4.748   5.476  17.097
    1STR    H2A 6203   4.606   5.203  17.272
    1STR    H2B 6204   4.709   5.249  17.138
    1STR    H2C 6205   4.538   5.218  17.109
    1STR   BCK1 6206   4.246   5.213   4.248
    1STR    O03 6207   4.349   5.157   4.286
    1STR    N04 6208   4.229   5.342   4.287
    1STR    C05 6209   4.127   5.439   4.293
    1STR    C06 6210   4.161   5.578   4.280
    1STR    C07 6211   4.066   5.684   4.301
    1STR    N08 6212   4.104   5.822   4.292
    1STR    C09 6213   4.030   5.935   4.307
    1STR    O0A 6214   3.910   5.935   4.332
    1STR    O0B 6215   4.102   6.052   4.292
    1STR    C0C 6216   4.037   6.181   4.312
    1STR    C0D 6217   4.025   6.210   4.463
    1STR    C0E 6218   4.107   6.300   4.239
    1STR    O0F 6219   4.034   6.424   4.255
    1STR    C0G 6220   4.082   6.540   4.183
    1STR    C0H 6221   4.047   6.526   4.035
    1STR    C0I 6222   4.021   6.672   4.240
    1STR    O0J 6223   4.076   6.792   4.179
    1STR    C0K 6224   4.021   6.919   4.221
    1STR    C0M 6225   4.060   6.947   4.367
    1STR    C0N 6226   4.069   7.037   4.131
    1STR    O0O 6227   3.992   7.156   4.156
    1STR    C0P 6228   4.046   7.281   4.147
    1STR    O0Q 6229   4.162   7.307   4.119
    1STR    N0R 6230   3.953   7.372   4.180
    1STR    C0S 6231   3.960   7.510   4.208
    1STR    C0T 6232   3.876   7.555   4.311
    1STR    C0U 6233   3.883   7.688   4.356
    1STR    C0V 6234   3.970   7.781   4.296
    1STR    C0W 6235   3.990   7.913   4.369
    1STR    C0X 6236   4.043   7.744   4.180
    1STR    N0Y 6237   4.123   7.834   4.107
    1STR   BCK2 6238   4.110   7.961   4.062
    1STR    O10 6239   4.194   8.004   3.985
    1STR    C13 6240   4.042   7.606   4.142
    1STR    C14 6241   3.935   5.645   4.334
    1STR    C15 6242   3.900   5.510   4.349
    1STR    C16 6243   3.994   5.407   4.332
    1STR    C17 6244   3.950   5.266   4.367
    1STR    H1B 6245   4.316   5.372   4.328
    1STR    H1C 6246   4.263   5.604   4.256
    1STR    H1D 6247   4.200   5.842   4.272
    1STR    H1E 6248   3.936   6.174   4.271
    1STR    H1F 6249   4.123   6.219   4.510
    1STR    H1G 6250   3.971   6.303   4.480
    1STR    H1H 6251   3.970   6.131   4.514
    1STR    H1I 6252   4.116   6.274   4.134
    1STR    H1J 6253   4.208   6.313   4.277
    1STR    H1K 6254   4.191   6.547   4.195
    1STR    H1M 6255   3.940   6.511   4.021
    1STR    H1N 6256   4.098   6.442   3.988
    1STR    H1O 6257   4.075   6.615   3.979
    1STR    H1P 6258   3.912   6.670   4.227
    1STR    H1Q 6259   4.039   6.674   4.348
    1STR    H1R 6260   3.912   6.913   4.213
    1STR    H1S 6261   4.028   7.047   4.397
    1STR    H1T 6262   4.168   6.943   4.380
    1STR    H1U 6263   4.015   6.877   4.437
    1STR    H1V 6264   4.057   7.011   4.025
    1STR    H1W 6265   4.175   7.055   4.145
    1STR    H1X 6266   3.865   7.327   4.197
    1STR    H1Y 6267   3.809   7.487   4.362
    1STR    H1Z 6268   3.823   7.717   4.441
    1STR    H20 6269   4.087   7.956   4.347
    1STR    H21 6270   3.912   7.984   4.342
    1STR    H22 6271   3.985   7.898   4.477
    1STR    H23 6272   4.209   7.795   4.071
    1STR    H27 6273   4.104   7.572   4.060
    1STR    H28 6274   3.856   5.716   4.352
    1STR    H29 6275   3.799   5.485   4.378
    1STR    H2A 6276   3.915   5.214   4.278
    1STR    H2B 6277   3.869   5.268   4.439
    1STR    H2C 6278   4.031   5.209   4.413
    1STR   BCK1 6279   4.357   5.239   8.676
    1STR    O03 6280   4.463   5.178   8.672
    1STR    N04 6281   4.340   5.362   8.731
    1STR    C05 6282   4.428   5.449   8.804
    1STR    C06 6283   4.412   5.592   8.796
    1STR    C07 6284   4.493   5.686   8.870
    1STR    N08 6285   4.472   5.827   8.865
    1STR    C09 6286   4.537   5.930   8.926
    1STR    O0A 6287   4.634   5.916   9.000
    1STR    O0B 6288   4.484   6.056   8.900
    1STR    C0C 6289   4.549   6.177   8.950
    1STR    C0D 6290   4.672   6.208   8.863
    1STR    C0E 6291   4.455   6.303   8.959
    1STR    O0F 6292   4.522   6.427   8.998
    1STR    C0G 6293   4.440   6.545   9.018
    1STR    C0H 6294   4.372   6.534   9.156
    1STR    C0I 6295   4.520   6.680   9.008
    1STR    O0J 6296   4.434   6.797   8.998
    1STR    C0K 6297   4.496   6.929   8.994
    1STR    C0M 6298   4.588   6.941   8.872
    1STR    C0N 6299   4.389   7.045   8.989
    1STR    O0O 6300   4.447   7.178   8.987
    1STR    C0P 6301   4.385   7.285   8.926
    1STR    O0Q 6302   4.283   7.279   8.859
    1STR    N0R 6303   4.453   7.398   8.953
    1STR    C0S 6304   4.443   7.534   8.916
    1STR    C0T 6305   4.530   7.619   8.986
    1STR    C0U 6306   4.542   7.755   8.954
    1STR    C0V 6307   4.466   7.811   8.850
    1STR    C0W 6308   4.500   7.954   8.810
    1STR    C0X 6309   4.368   7.733   8.782
    1STR    N0Y 6310   4.294   7.790   8.676
    1STR   BCK2 6311   4.228   7.909   8.668
    1STR    O10 6312   4.208   7.983   8.764
    1STR    C13 6313   4.360   7.593   8.815
    1STR    C14 6314   4.596   5.630   8.949
    1STR    C15 6315   4.611   5.491   8.962
    1STR    C16 6316   4.527   5.401   8.895
    1STR    C17 6317   4.545   5.254   8.932
    1STR    H1B 6318   4.248   5.399   8.714
    1STR    H1C 6319   4.335   5.631   8.732
    1STR    H1D 6320   4.396   5.861   8.808
    1STR    H1E 6321   4.585   6.157   9.052
    1STR    H1F 6322   4.643   6.229   8.760
    1STR    H1G 6323   4.726   6.295   8.901
    1STR    H1H 6324   4.742   6.125   8.862
    1STR    H1I 6325   4.376   6.280   9.031
    1STR    H1J 6326   4.407   6.319   8.863
    1STR    H1K 6327   4.364   6.547   8.940
    1STR    H1M 6328   4.447   6.523   9.235
    1STR    H1N 6329   4.304   6.449   9.162
    1STR    H1O 6330   4.314   6.624   9.178
    1STR    H1P 6331   4.587   6.689   9.093
    1STR    H1Q 6332   4.583   6.674   8.919
    1STR    H1R 6333   4.555   6.942   9.085
    1STR    H1S 6334   4.628   7.042   8.863
    1STR    H1T 6335   4.533   6.921   8.780
    1STR    H1U 6336   4.673   6.874   8.876
    1STR    H1V 6337   4.324   7.039   9.076
    1STR    H1W 6338   4.324   7.032   8.902
    1STR    H1X 6339   4.529   7.375   9.014
    1STR    H1Y 6340   4.593   7.581   9.066
    1STR    H1Z 6341   4.614   7.816   9.007
    1STR    H20 6342   4.490   7.969   8.702
    1STR    H21 6343   4.436   8.025   8.862
    1STR    H22 6344   4.603   7.979   8.835
    1STR    H23 6345   4.289   7.736   8.591
    1STR    H27 6346   4.291   7.530   8.762
    1STR    H28 6347   4.664   5.690   9.007
    1STR    H29 6348   4.689   5.454   9.027
    1STR    H2A 6349   4.450   5.201   8.930
    1STR    H2B 6350   4.585   5.244   9.032
    1STR    H2C 6351   4.615   5.206   8.864
    1STR   BCK1 6352   4.228   5.234  12.933
    1STR    O03 6353   4.115   5.248  12.887
    1STR    N04 6354   4.322   5.331  12.929
    1STR    C05 6355   4.323   5.442  12.842
    1STR    C06 6356   4.331   5.579  12.886
    1STR    C07 6357   4.341   5.689  12.793
    1STR    N08 6358   4.354   5.824  12.835
    1STR    C09 6359   4.341   5.939  12.762
    1STR    O0A 6360   4.302   5.941  12.646
    1STR    O0B 6361   4.374   6.055  12.830
    1STR    C0C 6362   4.361   6.183  12.763
    1STR    C0D 6363   4.213   6.224  12.759
    1STR    C0E 6364   4.447   6.299  12.825
    1STR    O0F 6365   4.428   6.423  12.752
    1STR    C0G 6366   4.501   6.540  12.796
    1STR    C0H 6367   4.646   6.529  12.747
    1STR    C0I 6368   4.433   6.669  12.740
    1STR    O0J 6369   4.483   6.793  12.795
    1STR    C0K 6370   4.420   6.915  12.748
    1STR    C0M 6371   4.274   6.921  12.798
    1STR    C0N 6372   4.492   7.046  12.792
    1STR    O0O 6373   4.436   7.158  12.720
    1STR    C0P 6374   4.429   7.284  12.772
    1STR    O0Q 6375   4.457   7.316  12.887
    1STR    N0R 6376   4.391   7.369  12.675
    1STR    C0S 6377   4.384   7.509  12.667
    1STR    C0T 6378   4.452   7.567  12.558
    1STR    C0U 6379   4.448   7.705  12.536
    1STR    C0V 6380   4.374   7.791  12.619
    1STR    C0W 6381   4.390   7.939  12.592
    1STR    C0X 6382   4.297   7.737  12.727
    1STR    N0Y 6383   4.222   7.816  12.817
    1STR   BCK2 6384   4.149   7.931  12.820
    1STR    O10 6385   4.106   7.969  12.928
    1STR    C13 6386   4.308   7.596  12.751
    1STR    C14 6387   4.343   5.655  12.656
    1STR    C15 6388   4.337   5.522  12.612
    1STR    C16 6389   4.330   5.416  12.704
    1STR    C17 6390   4.336   5.274  12.649
    1STR    H1B 6391   4.407   5.310  12.978
    1STR    H1C 6392   4.329   5.599  12.992
    1STR    H1D 6393   4.376   5.842  12.931
    1STR    H1E 6394   4.396   6.171  12.660
    1STR    H1F 6395   4.172   6.239  12.859
    1STR    H1G 6396   4.199   6.317  12.703
    1STR    H1H 6397   4.152   6.148  12.709
    1STR    H1I 6398   4.552   6.270  12.823
    1STR    H1J 6399   4.419   6.313  12.929
    1STR    H1K 6400   4.498   6.545  12.905
    1STR    H1M 6401   4.651   6.516  12.639
    1STR    H1N 6402   4.698   6.445  12.792
    1STR    H1O 6403   4.702   6.619  12.772
    1STR    H1P 6404   4.443   6.671  12.631
    1STR    H1Q 6405   4.326   6.660  12.760
    1STR    H1R 6406   4.421   6.913  12.639
    1STR    H1S 6407   4.229   7.017  12.772
    1STR    H1T 6408   4.270   6.912  12.906
    1STR    H1U 6409   4.211   6.844  12.754
    1STR    H1V 6410   4.598   7.041  12.769
    1STR    H1W 6411   4.485   7.061  12.900
    1STR    H1X 6412   4.379   7.319  12.589
    1STR    H1Y 6413   4.511   7.505  12.492
    1STR    H1Z 6414   4.504   7.746  12.453
    1STR    H20 6415   4.314   7.972  12.521
    1STR    H21 6416   4.383   7.997  12.684
    1STR    H22 6417   4.487   7.961  12.548
    1STR    H23 6418   4.217   7.777  12.909
    1STR    H27 6419   4.255   7.551  12.834
    1STR    H28 6420   4.351   5.729  12.579
    1STR    H29 6421   4.340   5.502  12.506
    1STR    H2A 6422   4.407   5.214  12.707
    1STR    H2B 6423   4.368   5.272  12.545
    1STR    H2C 6424   4.238   5.227  12.656
    1STR   BCK1 6425   4.212   9.582  17.396
    1STR    O03 6426   4.279   9.523   0.040
    1STR    N04 6427   4.168   9.710  17.408
    1STR    C05 6428   4.168   9.802   0.076
    1STR    C06 6429   4.180   9.943   0.052
    1STR    C07 6430   4.167  10.042   0.155
    1STR    N08 6431   4.175  10.182   0.128
    1STR    C09 6432   4.130  10.287   0.202
    1STR    O0A 6433   4.069  10.275   0.307
    1STR    O0B 6434   4.160  10.411   0.147
    1STR    C0C 6435   4.127  10.534   0.218
    1STR    C0D 6436   4.234  10.560   0.325
    1STR    C0E 6437   4.112  10.657   0.123
    1STR    O0F 6438   4.079  10.780   0.193
    1STR    C0G 6439   4.053  10.897   0.112
    1STR    C0H 6440   3.912  10.884   0.051
    1STR    C0I 6441   4.063  11.031   0.192
    1STR    O0J 6442   4.053  11.147   0.107
    1STR    C0K 6443   4.052  11.278   0.169
    1STR    C0M 6444   4.189  11.305   0.235
    1STR    C0N 6445   4.021  11.391   0.066
    1STR    O0O 6446   4.008  11.520   0.128
    1STR    C0P 6447   4.034  11.635   0.060
    1STR    O0Q 6448   4.075  11.643  17.385
    1STR    N0R 6449   4.011  11.740   0.140
    1STR    C0S 6450   4.031  11.879   0.129
    1STR    C0T 6451   4.025  11.950   0.251
    1STR    C0U 6452   4.050  12.088   0.256
    1STR    C0V 6453   4.079  12.160   0.139
    1STR    C0W 6454   4.118  12.307   0.152
    1STR    C0X 6455   4.078  12.095   0.014
    1STR    N0Y 6456   4.108  12.172  17.340
    1STR   BCK2 6457   4.031  12.268  17.285
    1STR    O10 6458   3.915  12.291  17.319
    1STR    C13 6459   4.057  11.953   0.010
    1STR    C14 6460   4.148   9.995   0.286
    1STR    C15 6461   4.135   9.858   0.313
    1STR    C16 6462   4.141   9.762   0.210
    1STR    C17 6463   4.111   9.619   0.251
    1STR    H1B 6464   4.126   9.744  17.323
    1STR    H1C 6465   4.197   9.976  17.391
    1STR    H1D 6466   4.218  10.211   0.042
    1STR    H1E 6467   4.031  10.520   0.268
    1STR    H1F 6468   4.333  10.574   0.281
    1STR    H1G 6469   4.210  10.650   0.383
    1STR    H1H 6470   4.241  10.477   0.396
    1STR    H1I 6471   4.035  10.634   0.050
    1STR    H1J 6472   4.205  10.672   0.067
    1STR    H1K 6473   4.127  10.902   0.032
    1STR    H1M 6474   3.837  10.871   0.128
    1STR    H1N 6475   3.904  10.800  17.422
    1STR    H1O 6476   3.886  10.974  17.435
    1STR    H1P 6477   3.985  11.033   0.269
    1STR    H1Q 6478   4.158  11.031   0.245
    1STR    H1R 6479   3.974  11.280   0.246
    1STR    H1S 6480   4.193  11.406   0.275
    1STR    H1T 6481   4.270  11.295   0.163
    1STR    H1U 6482   4.210  11.238   0.318
    1STR    H1V 6483   3.928  11.369   0.013
    1STR    H1W 6484   4.099  11.394  17.429
    1STR    H1X 6485   3.976  11.708   0.229
    1STR    H1Y 6486   4.004  11.899   0.344
    1STR    H1Z 6487   4.049  12.139   0.352
    1STR    H20 6488   4.219  12.322   0.113
    1STR    H21 6489   4.050  12.370   0.094
    1STR    H22 6490   4.116  12.342   0.255
    1STR    H23 6491   4.200  12.163  17.302
    1STR    H27 6492   4.060  11.902  17.355
    1STR    H28 6493   4.142  10.062   0.370
    1STR    H29 6494   4.117   9.827   0.415
    1STR    H2A 6495   4.058   9.565   0.173
    1STR    H2B 6496   4.049   9.615   0.340
    1STR    H2C 6497   4.204   9.566   0.274
    1STR   BCK1 6498   4.364   9.605   4.208
    1STR    O03 6499   4.450   9.550   4.141
    1STR    N04 6500   4.379   9.724   4.273
    1STR    C05 6501   4.490   9.812   4.286
    1STR    C06 6502   4.469   9.955   4.296
    1STR    C07 6503   4.576  10.050   4.311
    1STR    N08 6504   4.554  10.190   4.327
    1STR    C09 6505   4.641  10.295   4.320
    1STR    O0A 6506   4.758  10.284   4.287
    1STR    O0B 6507   4.585  10.419   4.352
    1STR    C0C 6508   4.663  10.542   4.337
    1STR    C0D 6509   4.668  10.578   4.187
    1STR    C0E 6510   4.612  10.665   4.421
    1STR    O0F 6511   4.684  10.789   4.392
    1STR    C0G 6512   4.648  10.908   4.468
    1STR    C0H 6513   4.712  10.899   4.607
    1STR    C0I 6514   4.692  11.040   4.395
    1STR    O0J 6515   4.634  11.163   4.449
    1STR    C0K 6516   4.670  11.289   4.386
    1STR    C0M 6517   4.621  11.291   4.241
    1STR    C0N 6518   4.611  11.415   4.459
    1STR    O0O 6519   4.653  11.540   4.399
    1STR    C0P 6520   4.571  11.651   4.391
    1STR    O0Q 6521   4.453  11.654   4.423
    1STR    N0R 6522   4.640  11.756   4.344
    1STR    C0S 6523   4.610  11.892   4.316
    1STR    C0T 6524   4.721  11.977   4.306
    1STR    C0U 6525   4.706  12.113   4.276
    1STR    C0V 6526   4.580  12.170   4.254
    1STR    C0W 6527   4.577  12.320   4.229
    1STR    C0X 6528   4.463  12.089   4.260
    1STR    N0Y 6529   4.330  12.138   4.252
    1STR   BCK2 6530   4.254  12.240   4.203
    1STR    O10 6531   4.137  12.242   4.238
    1STR    C13 6532   4.481  11.950   4.293
    1STR    C14 6533   4.707   9.997   4.314
    1STR    C15 6534   4.730   9.859   4.309
    1STR    C16 6535   4.624   9.766   4.300
    1STR    C17 6536   4.663   9.620   4.314
    1STR    H1B 6537   4.293   9.754   4.315
    1STR    H1C 6538   4.368   9.992   4.291
    1STR    H1D 6539   4.461  10.221   4.349
    1STR    H1E 6540   4.765  10.521   4.370
    1STR    H1F 6541   4.569  10.599   4.149
    1STR    H1G 6542   4.730  10.666   4.171
    1STR    H1H 6543   4.711  10.497   4.128
    1STR    H1I 6544   4.622  10.640   4.527
    1STR    H1J 6545   4.506  10.680   4.402
    1STR    H1K 6546   4.539  10.912   4.477
    1STR    H1M 6547   4.820  10.887   4.600
    1STR    H1N 6548   4.673  10.815   4.665
    1STR    H1O 6549   4.692  10.989   4.665
    1STR    H1P 6550   4.801  11.047   4.397
    1STR    H1Q 6551   4.664  11.030   4.291
    1STR    H1R 6552   4.779  11.298   4.388
    1STR    H1S 6553   4.640  11.388   4.195
    1STR    H1T 6554   4.514  11.272   4.236
    1STR    H1U 6555   4.672  11.218   4.178
    1STR    H1V 6556   4.643  11.416   4.563
    1STR    H1W 6557   4.502  11.409   4.462
    1STR    H1X 6558   4.736  11.729   4.331
    1STR    H1Y 6559   4.821  11.940   4.324
    1STR    H1Z 6560   4.795  12.175   4.272
    1STR    H20 6561   4.565  12.339   4.123
    1STR    H21 6562   4.496  12.367   4.285
    1STR    H22 6563   4.670  12.368   4.260
    1STR    H23 6564   4.265  12.078   4.299
    1STR    H27 6565   4.395  11.885   4.302
    1STR    H28 6566   4.794  10.059   4.324
    1STR    H29 6567   4.832   9.823   4.315
    1STR    H2A 6568   4.584   9.563   4.364
    1STR    H2B 6569   4.753   9.609   4.374
    1STR    H2C 6570   4.683   9.576   4.216
    1STR   BCK1 6571   4.237   9.576   8.602
    1STR    O03 6572   4.156   9.558   8.692
    1STR    N04 6573   4.255   9.696   8.542
    1STR    C05 6574   4.167   9.806   8.541
    1STR    C06 6575   4.212   9.941   8.560
    1STR    C07 6576   4.124  10.054   8.545
    1STR    N08 6577   4.169  10.188   8.557
    1STR    C09 6578   4.111  10.301   8.508
    1STR    O0A 6579   4.010  10.301   8.438
    1STR    O0B 6580   4.175  10.418   8.544
    1STR    C0C 6581   4.113  10.547   8.516
    1STR    C0D 6582   4.017  10.579   8.632
    1STR    C0E 6583   4.212  10.664   8.492
    1STR    O0F 6584   4.143  10.788   8.462
    1STR    C0G 6585   4.222  10.903   8.426
    1STR    C0H 6586   4.271  10.886   8.282
    1STR    C0I 6587   4.139  11.035   8.441
    1STR    O0J 6588   4.218  11.154   8.419
    1STR    C0K 6589   4.149  11.281   8.423
    1STR    C0M 6590   4.101  11.310   8.566
    1STR    C0N 6591   4.238  11.399   8.374
    1STR    O0O 6592   4.161  11.516   8.340
    1STR    C0P 6593   4.189  11.640   8.388
    1STR    O0Q 6594   4.280  11.668   8.466
    1STR    N0R 6595   4.099  11.728   8.342
    1STR    C0S 6596   4.066  11.858   8.382
    1STR    C0T 6597   3.929  11.881   8.406
    1STR    C0U 6598   3.884  12.004   8.454
    1STR    C0V 6599   3.973  12.111   8.476
    1STR    C0W 6600   3.922  12.232   8.552
    1STR    C0X 6601   4.109  12.097   8.439
    1STR    N0Y 6602   4.199  12.203   8.459
    1STR   BCK2 6603   4.196  12.335   8.428
    1STR    O10 6604   4.277  12.410   8.480
    1STR    C13 6605   4.156  11.968   8.397
    1STR    C14 6606   3.988  10.025   8.517
    1STR    C15 6607   3.944   9.894   8.495
    1STR    C16 6608   4.032   9.785   8.502
    1STR    C17 6609   3.979   9.649   8.460
    1STR    H1B 6610   4.333   9.700   8.479
    1STR    H1C 6611   4.315   9.958   8.586
    1STR    H1D 6612   4.254  10.206   8.607
    1STR    H1E 6613   4.054  10.538   8.425
    1STR    H1F 6614   4.070  10.591   8.726
    1STR    H1G 6615   3.963  10.672   8.613
    1STR    H1H 6616   3.942  10.501   8.645
    1STR    H1I 6617   4.278  10.637   8.410
    1STR    H1J 6618   4.276  10.678   8.580
    1STR    H1K 6619   4.308  10.910   8.494
    1STR    H1M 6620   4.187  10.872   8.213
    1STR    H1N 6621   4.339  10.802   8.270
    1STR    H1O 6622   4.325  10.975   8.249
    1STR    H1P 6623   4.055  11.033   8.371
    1STR    H1Q 6624   4.096  11.037   8.541
    1STR    H1R 6625   4.063  11.275   8.356
    1STR    H1S 6626   4.057  11.410   8.573
    1STR    H1T 6627   4.184  11.306   8.637
    1STR    H1U 6628   4.024  11.241   8.600
    1STR    H1V 6629   4.291  11.369   8.283
    1STR    H1W 6630   4.316  11.422   8.447
    1STR    H1X 6631   4.036  11.683   8.278
    1STR    H1Y 6632   3.858  11.801   8.393
    1STR    H1Z 6633   3.780  12.016   8.480
    1STR    H20 6634   3.997  12.268   8.622
    1STR    H21 6635   3.895  12.313   8.485
    1STR    H22 6636   3.833  12.207   8.610
    1STR    H23 6637   4.282  12.181   8.511
    1STR    H27 6638   4.261  11.953   8.377
    1STR    H28 6639   3.914  10.103   8.509
    1STR    H29 6640   3.841   9.878   8.468
    1STR    H2A 6641   4.054   9.595   8.402
    1STR    H2B 6642   3.891   9.659   8.396
    1STR    H2C 6643   3.952   9.590   8.547
    1STR   BCK1 6644   4.298   9.594  13.072
    1STR    O03 6645   4.399   9.532  13.103
    1STR    N04 6646   4.267   9.718  13.116
    1STR    C05 6647   4.328   9.806  13.211
    1STR    C06 6648   4.320   9.949  13.194
    1STR    C07 6649   4.372  10.044  13.289
    1STR    N08 6650   4.358  10.185  13.273
    1STR    C09 6651   4.383  10.288  13.359
    1STR    O0A 6652   4.424  10.273  13.473
    1STR    O0B 6653   4.358  10.414  13.306
    1STR    C0C 6654   4.390  10.535  13.382
    1STR    C0D 6655   4.541  10.563  13.371
    1STR    C0E 6656   4.308  10.661  13.338
    1STR    O0F 6657   4.344  10.784  13.408
    1STR    C0G 6658   4.263  10.902  13.381
    1STR    C0H 6659   4.132  10.890  13.460
    1STR    C0I 6660   4.333  11.037  13.416
    1STR    O0J 6661   4.262  11.154  13.366
    1STR    C0K 6662   4.311  11.287  13.398
    1STR    C0M 6663   4.452  11.306  13.340
    1STR    C0N 6664   4.216  11.399  13.343
    1STR    O0O 6665   4.260  11.533  13.376
    1STR    C0P 6666   4.228  11.642  13.298
    1STR    O0Q 6667   4.168  11.638  13.191
    1STR    N0R 6668   4.272  11.755  13.357
    1STR    C0S 6669   4.277  11.891  13.322
    1STR    C0T 6670   4.342  11.973  13.417
    1STR    C0U 6671   4.365  12.109  13.393
    1STR    C0V 6672   4.323  12.170  13.274
    1STR    C0W 6673   4.369  12.313  13.249
    1STR    C0X 6674   4.247  12.096  13.179
    1STR    N0Y 6675   4.204  12.157  13.059
    1STR   BCK2 6676   4.141  12.276  13.041
    1STR    O10 6677   4.096  12.346  13.132
    1STR    C13 6678   4.228  11.955  13.204
    1STR    C14 6679   4.439   9.990  13.401
    1STR    C15 6680   4.446   9.851  13.422
    1STR    C16 6681   4.389   9.760  13.331
    1STR    C17 6682   4.390   9.614  13.375
    1STR    H1B 6683   4.186   9.755  13.070
    1STR    H1C 6684   4.271   9.987  13.106
    1STR    H1D 6685   4.323  10.219  13.185
    1STR    H1E 6686   4.367  10.516  13.487
    1STR    H1F 6687   4.571  10.582  13.268
    1STR    H1G 6688   4.569  10.650  13.430
    1STR    H1H 6689   4.600  10.479  13.408
    1STR    H1I 6690   4.203  10.639  13.355
    1STR    H1J 6691   4.320  10.677  13.231
    1STR    H1K 6692   4.241  10.905  13.274
    1STR    H1M 6693   4.151  10.878  13.566
    1STR    H1N 6694   4.071  10.805  13.428
    1STR    H1O 6695   4.070  10.979  13.447
    1STR    H1P 6696   4.346  11.045  13.525
    1STR    H1Q 6697   4.434  11.035  13.374
    1STR    H1R 6698   4.316  11.297  13.507
    1STR    H1S 6699   4.487  11.408  13.357
    1STR    H1T 6700   4.453  11.289  13.232
    1STR    H1U 6701   4.526  11.240  13.385
    1STR    H1V 6702   4.116  11.386  13.383
    1STR    H1W 6703   4.206  11.389  13.235
    1STR    H1X 6704   4.313  11.730  13.445
    1STR    H1Y 6705   4.379  11.932  13.510
    1STR    H1Z 6706   4.420  12.167  13.466
    1STR    H20 6707   4.389  12.330  13.143
    1STR    H21 6708   4.294  12.384  13.282
    1STR    H22 6709   4.462  12.334  13.302
    1STR    H23 6710   4.222  12.107  12.974
    1STR    H27 6711   4.176  11.895  13.131
    1STR    H28 6712   4.486  10.051  13.476
    1STR    H29 6713   4.495   9.815  13.511
    1STR    H2A 6714   4.300   9.562  13.342
    1STR    H2B 6715   4.393   9.606  13.484
    1STR    H2C 6716   4.478   9.563  13.336
    1STR   BCK1 6717   4.279  13.960  17.268
    1STR    O03 6718   4.208  13.972  17.169
    1STR    N04 6719   4.364  14.056  17.312
    1STR    C05 6720   4.419  14.163  17.238
    1STR    C06 6721   4.409  14.302  17.275
    1STR    C07 6722   4.476  14.407  17.203
    1STR    N08 6723   4.470  14.544  17.241
    1STR    C09 6724   4.507  14.656  17.171
    1STR    O0A 6725   4.544  14.653  17.054
    1STR    O0B 6726   4.499  14.775  17.242
    1STR    C0C 6727   4.529  14.902  17.176
    1STR    C0D 6728   4.409  14.941  17.088
    1STR    C0E 6729   4.567  15.021  17.270
    1STR    O0F 6730   4.589  15.145  17.197
    1STR    C0G 6731   4.626  15.264  17.272
    1STR    C0H 6732   4.775  15.254  17.310
    1STR    C0I 6733   4.598  15.394  17.188
    1STR    O0J 6734   4.608  15.519  17.261
    1STR    C0K 6735   4.578  15.641  17.188
    1STR    C0M 6736   4.429  15.644  17.152
    1STR    C0N 6737   4.611  15.772  17.266
    1STR    O0O 6738   4.598  15.889  17.182
    1STR    C0P 6739   4.544  16.007  17.224
    1STR    O0Q 6740   4.488  16.025  17.332
    1STR    N0R 6741   4.565  16.102  17.132
    1STR    C0S 6742   4.539  16.241  17.126
    1STR    C0T 6743   4.638  16.318  17.062
    1STR    C0U 6744   4.624  16.457  17.048
    1STR    C0V 6745   4.509  16.524  17.096
    1STR    C0W 6746   4.512  16.676  17.088
    1STR    C0X 6747   4.403  16.450  17.155
    1STR    N0Y 6748   4.288  16.511  17.211
    1STR   BCK2 6749   4.205  16.616  17.191
    1STR    O10 6750   4.119  16.638  17.276
    1STR    C13 6751   4.422  16.309  17.173
    1STR    C14 6752   4.554  14.366  17.092
    1STR    C15 6753   4.567  14.231  17.056
    1STR    C16 6754   4.502  14.130  17.128
    1STR    C17 6755   4.529  13.985  17.090
    1STR    H1B 6756   4.406  14.037  17.401
    1STR    H1C 6757   4.348  14.327  17.361
    1STR    H1D 6758   4.434  14.566  17.332
    1STR    H1E 6759   4.615  14.886  17.110
    1STR    H1F 6760   4.320  14.959  17.147
    1STR    H1G 6761   4.430  15.032  17.031
    1STR    H1H 6762   4.386  14.864  17.015
    1STR    H1I 6763   4.657  14.994  17.326
    1STR    H1J 6764   4.488  15.036  17.344
    1STR    H1K 6765   4.565  15.270  17.362
    1STR    H1M 6766   4.837  15.242  17.221
    1STR    H1N 6767   4.795  15.171  17.377
    1STR    H1O 6768   4.808  15.345  17.360
    1STR    H1P 6769   4.666  15.396  17.102
    1STR    H1Q 6770   4.498  15.383  17.147
    1STR    H1R 6771   4.638  15.641  17.097
    1STR    H1S 6772   4.402  15.739  17.106
    1STR    H1T 6773   4.367  15.633  17.241
    1STR    H1U 6774   4.401  15.567  17.080
    1STR    H1V 6775   4.714  15.769  17.303
    1STR    H1W 6776   4.549  15.781  17.355
    1STR    H1X 6777   4.618  16.064  17.056
    1STR    H1Y 6778   4.728  16.272  17.026
    1STR    H1Z 6779   4.704  16.513  17.003
    1STR    H20 6780   4.468  16.709  16.994
    1STR    H21 6781   4.459  16.721  17.171
    1STR    H22 6782   4.614  16.714  17.091
    1STR    H23 6783   4.253  16.461  17.291
    1STR    H27 6784   4.346  16.250  17.222
    1STR    H28 6785   4.610  14.436  17.033
    1STR    H29 6786   4.630  14.205  16.972
    1STR    H2A 6787   4.554  13.926  17.178
    1STR    H2B 6788   4.613  13.977  17.021
    1STR    H2C 6789   4.441  13.941  17.042
    1STR   BCK1 6790   4.240  13.938   4.262
    1STR    O03 6791   4.351  13.886   4.265
    1STR    N04 6792   4.231  14.064   4.309
    1STR    C05 6793   4.134  14.157   4.351
    1STR    C06 6794   4.157  14.298   4.333
    1STR    C07 6795   4.075  14.400   4.391
    1STR    N08 6796   4.103  14.538   4.374
    1STR    C09 6797   4.036  14.649   4.417
    1STR    O0A 6798   3.932  14.645   4.481
    1STR    O0B 6799   4.096  14.768   4.381
    1STR    C0C 6800   4.040  14.895   4.424
    1STR    C0D 6801   4.079  14.923   4.570
    1STR    C0E 6802   4.079  15.015   4.333
    1STR    O0F 6803   4.015  15.139   4.373
    1STR    C0G 6804   4.038  15.255   4.290
    1STR    C0H 6805   3.954  15.241   4.162
    1STR    C0I 6806   4.001  15.387   4.363
    1STR    O0J 6807   4.035  15.505   4.286
    1STR    C0K 6808   3.999  15.634   4.341
    1STR    C0M 6809   4.083  15.663   4.466
    1STR    C0N 6810   4.018  15.748   4.236
    1STR    O0O 6811   3.964  15.872   4.285
    1STR    C0P 6812   4.013  15.993   4.247
    1STR    O0Q 6813   4.104  16.012   4.168
    1STR    N0R 6814   3.948  16.089   4.314
    1STR    C0S 6815   3.966  16.227   4.330
    1STR    C0T 6816   3.927  16.276   4.456
    1STR    C0U 6817   3.939  16.412   4.487
    1STR    C0V 6818   3.986  16.505   4.392
    1STR    C0W 6819   3.991  16.649   4.439
    1STR    C0X 6820   4.021  16.462   4.260
    1STR    N0Y 6821   4.045  16.550   4.151
    1STR   BCK2 6822   4.088  16.677   4.138
    1STR    O10 6823   4.140  16.746   4.225
    1STR    C13 6824   4.014  16.321   4.233
    1STR    C14 6825   3.966  14.354   4.469
    1STR    C15 6826   3.941  14.217   4.489
    1STR    C16 6827   4.025  14.119   4.433
    1STR    C17 6828   3.999  13.975   4.473
    1STR    H1B 6829   4.326  14.097   4.323
    1STR    H1C 6830   4.243  14.328   4.275
    1STR    H1D 6831   4.186  14.563   4.323
    1STR    H1E 6832   3.931  14.887   4.419
    1STR    H1F 6833   4.187  14.933   4.582
    1STR    H1G 6834   4.033  15.015   4.606
    1STR    H1H 6835   4.045  14.843   4.637
    1STR    H1I 6836   4.052  14.990   4.231
    1STR    H1J 6837   4.188  15.028   4.334
    1STR    H1K 6838   4.144  15.261   4.264
    1STR    H1M 6839   3.848  15.228   4.185
    1STR    H1N 6840   3.985  15.157   4.100
    1STR    H1O 6841   3.962  15.331   4.100
    1STR    H1P 6842   3.894  15.388   4.387
    1STR    H1Q 6843   4.054  15.389   4.459
    1STR    H1R 6844   3.893  15.632   4.368
    1STR    H1S 6845   4.064  15.764   4.503
    1STR    H1T 6846   4.190  15.657   4.443
    1STR    H1U 6847   4.062  15.595   4.548
    1STR    H1V 6848   3.968  15.724   4.143
    1STR    H1W 6849   4.124  15.760   4.212
    1STR    H1X 6850   3.876  16.047   4.371
    1STR    H1Y 6851   3.888  16.210   4.531
    1STR    H1Z 6852   3.909  16.446   4.585
    1STR    H20 6853   4.095  16.679   4.451
    1STR    H21 6854   3.941  16.716   4.370
    1STR    H22 6855   3.944  16.662   4.537
    1STR    H23 6856   4.023  16.511   4.061
    1STR    H27 6857   4.042  16.282   4.136
    1STR    H28 6858   3.898  14.422   4.518
    1STR    H29 6859   3.859  14.189   4.552
    1STR    H2A 6860   3.944  13.923   4.395
    1STR    H2B 6861   3.940  13.969   4.565
    1STR    H2C 6862   4.093  13.922   4.493
    1STR   BCK1 6863   4.375  13.960   8.637
    1STR    O03 6864   4.479  13.900   8.611
    1STR    N04 6865   4.370  14.083   8.697
    1STR    C05 6866   4.470  14.170   8.750
    1STR    C06 6867   4.451  14.312   8.748
    1STR    C07 6868   4.546  14.407   8.803
    1STR    N08 6869   4.522  14.548   8.806
    1STR    C09 6870   4.603  14.651   8.843
    1STR    O0A 6871   4.720  14.638   8.878
    1STR    O0B 6872   4.542  14.777   8.839
    1STR    C0C 6873   4.619  14.898   8.867
    1STR    C0D 6874   4.705  14.931   8.743
    1STR    C0E 6875   4.533  15.023   8.909
    1STR    O0F 6876   4.609  15.147   8.922
    1STR    C0G 6877   4.538  15.265   8.968
    1STR    C0H 6878   4.522  15.256   9.120
    1STR    C0I 6879   4.611  15.400   8.930
    1STR    O0J 6880   4.528  15.519   8.947
    1STR    C0K 6881   4.587  15.649   8.919
    1STR    C0M 6882   4.632  15.657   8.772
    1STR    C0N 6883   4.487  15.768   8.947
    1STR    O0O 6884   4.544  15.899   8.922
    1STR    C0P 6885   4.470  16.006   8.878
    1STR    O0Q 6886   4.353  16.001   8.842
    1STR    N0R 6887   4.544  16.118   8.881
    1STR    C0S 6888   4.525  16.254   8.848
    1STR    C0T 6889   4.624  16.340   8.901
    1STR    C0U 6890   4.629  16.476   8.866
    1STR    C0V 6891   4.535  16.532   8.778
    1STR    C0W 6892   4.561  16.675   8.732
    1STR    C0X 6893   4.428  16.453   8.728
    1STR    N0Y 6894   4.336  16.508   8.635
    1STR   BCK2 6895   4.271  16.627   8.636
    1STR    O10 6896   4.266  16.703   8.732
    1STR    C13 6897   4.426  16.313   8.763
    1STR    C14 6898   4.663  14.351   8.858
    1STR    C15 6899   4.683  14.213   8.865
    1STR    C16 6900   4.587  14.122   8.817
    1STR    C17 6901   4.614  13.975   8.847
    1STR    H1B 6902   4.275  14.118   8.700
    1STR    H1C 6903   4.361  14.351   8.703
    1STR    H1D 6904   4.432  14.580   8.777
    1STR    H1E 6905   4.687  14.877   8.950
    1STR    H1F 6906   4.643  14.953   8.656
    1STR    H1G 6907   4.768  15.018   8.762
    1STR    H1H 6908   4.772  14.849   8.718
    1STR    H1I 6909   4.484  15.000   9.003
    1STR    H1J 6910   4.454  15.039   8.835
    1STR    H1K 6911   4.440  15.268   8.920
    1STR    H1M 6912   4.618  15.245   9.170
    1STR    H1N 6913   4.460  15.171   9.150
    1STR    H1O 6914   4.474  15.346   9.160
    1STR    H1P 6915   4.703  15.410   8.988
    1STR    H1Q 6916   4.642  15.392   8.826
    1STR    H1R 6917   4.674  15.663   8.984
    1STR    H1S 6918   4.669  15.756   8.748
    1STR    H1T 6919   4.549  15.635   8.705
    1STR    H1U 6920   4.713  15.588   8.750
    1STR    H1V 6921   4.455  15.765   9.051
    1STR    H1W 6922   4.396  15.755   8.888
    1STR    H1X 6923   4.633  16.095   8.920
    1STR    H1Y 6924   4.700  16.303   8.968
    1STR    H1Z 6925   4.708  16.537   8.906
    1STR    H20 6926   4.532  16.689   8.628
    1STR    H21 6927   4.505  16.745   8.794
    1STR    H22 6928   4.667  16.700   8.739
    1STR    H23 6929   4.318  16.453   8.553
    1STR    H27 6930   4.349  16.248   8.723
    1STR    H28 6931   4.741  14.412   8.901
    1STR    H29 6932   4.773  14.176   8.911
    1STR    H2A 6933   4.521  13.921   8.865
    1STR    H2B 6934   4.675  13.964   8.937
    1STR    H2C 6935   4.668  13.929   8.765
    1STR   BCK1 6936   4.223  13.946  12.959
    1STR    O03 6937   4.101  13.954  12.967
    1STR    N04 6938   4.301  14.050  12.921
    1STR    C05 6939   4.259  14.162  12.848
    1STR    C06 6940   4.282  14.298  12.888
    1STR    C07 6941   4.245  14.410  12.806
    1STR    N08 6942   4.273  14.545  12.842
    1STR    C09 6943   4.237  14.661  12.781
    1STR    O0A 6944   4.164  14.667  12.683
    1STR    O0B 6945   4.290  14.776  12.837
    1STR    C0C 6946   4.255  14.906  12.782
    1STR    C0D 6947   4.114  14.945  12.830
    1STR    C0E 6948   4.356  15.021  12.812
    1STR    O0F 6949   4.314  15.145  12.752
    1STR    C0G 6950   4.400  15.261  12.767
    1STR    C0H 6951   4.518  15.248  12.669
    1STR    C0I 6952   4.320  15.392  12.739
    1STR    O0J 6953   4.391  15.513  12.775
    1STR    C0K 6954   4.324  15.638  12.748
    1STR    C0M 6955   4.199  15.652  12.836
    1STR    C0N 6956   4.415  15.763  12.770
    1STR    O0O 6957   4.358  15.878  12.705
    1STR    C0P 6958   4.356  16.004  12.759
    1STR    O0Q 6959   4.389  16.034  12.873
    1STR    N0R 6960   4.314  16.088  12.664
    1STR    C0S 6961   4.284  16.225  12.651
    1STR    C0T 6962   4.269  16.266  12.518
    1STR    C0U 6963   4.218  16.392  12.487
    1STR    C0V 6964   4.180  16.482  12.588
    1STR    C0W 6965   4.099  16.601  12.541
    1STR    C0X 6966   4.207  16.452  12.725
    1STR    N0Y 6967   4.169  16.536  12.833
    1STR   BCK2 6968   4.150  16.667  12.859
    1STR    O10 6969   4.093  16.698  12.963
    1STR    C13 6970   4.257  16.320  12.754
    1STR    C14 6971   4.184  14.379  12.682
    1STR    C15 6972   4.163  14.247  12.640
    1STR    C16 6973   4.202  14.139  12.720
    1STR    C17 6974   4.189  13.999  12.662
    1STR    H1B 6975   4.400  14.034  12.927
    1STR    H1C 6976   4.328  14.316  12.984
    1STR    H1D 6977   4.327  14.561  12.925
    1STR    H1E 6978   4.252  14.896  12.673
    1STR    H1F 6979   4.110  14.957  12.938
    1STR    H1G 6980   4.082  15.038  12.784
    1STR    H1H 6981   4.040  14.869  12.802
    1STR    H1I 6982   4.454  14.992  12.775
    1STR    H1J 6983   4.366  15.034  12.920
    1STR    H1K 6984   4.436  15.265  12.870
    1STR    H1M 6985   4.483  15.236  12.567
    1STR    H1N 6986   4.581  15.163  12.692
    1STR    H1O 6987   4.580  15.337  12.672
    1STR    H1P 6988   4.290  15.395  12.634
    1STR    H1Q 6989   4.227  15.386  12.797
    1STR    H1R 6990   4.294  15.638  12.642
    1STR    H1S 6991   4.154  15.751  12.824
    1STR    H1T 6992   4.224  15.641  12.941
    1STR    H1U 6993   4.121  15.580  12.812
    1STR    H1V 6994   4.513  15.746  12.725
    1STR    H1W 6995   4.432  15.782  12.876
    1STR    H1X 6996   4.300  16.034  12.581
    1STR    H1Y 6997   4.292  16.199  12.436
    1STR    H1Z 6998   4.202  16.418  12.384
    1STR    H20 6999   4.027  16.632  12.617
    1STR    H21 7000   4.165  16.684  12.515
    1STR    H22 7001   4.041  16.577  12.453
    1STR    H23 7002   4.147  16.486  12.917
    1STR    H27 7003   4.272  16.289  12.857
    1STR    H28 7004   4.152  14.454  12.612
    1STR    H29 7005   4.118  14.230  12.544
    1STR    H2A 7006   4.280  13.942  12.679
    1STR    H2B 7007   4.172  14.002  12.554
    1STR    H2C 7008   4.105  13.947  12.708
    1STR   BCK1 7009   8.598   0.872  17.423
    1STR    O03 7010   8.683   0.813   0.047
    1STR    N04 7011   8.555   0.998   0.010
    1STR    C05 7012   8.581   1.088   0.118
    1STR    C06 7013   8.585   1.230   0.095
    1STR    C07 7014   8.600   1.326   0.200
    1STR    N08 7015   8.598   1.467   0.175
    1STR    C09 7016   8.579   1.571   0.261
    1STR    O0A 7017   8.555   1.557   0.381
    1STR    O0B 7018   8.588   1.695   0.201
    1STR    C0C 7019   8.579   1.817   0.281
    1STR    C0D 7020   8.715   1.844   0.348
    1STR    C0E 7021   8.532   1.941   0.198
    1STR    O0F 7022   8.525   2.064   0.275
    1STR    C0G 7023   8.471   2.181   0.208
    1STR    C0H 7024   8.318   2.167   0.200
    1STR    C0I 7025   8.509   2.315   0.278
    1STR    O0J 7026   8.472   2.431   0.199
    1STR    C0K 7027   8.494   2.563   0.255
    1STR    C0M 7028   8.644   2.588   0.275
    1STR    C0N 7029   8.434   2.674   0.163
    1STR    O0O 7030   8.446   2.806   0.220
    1STR    C0P 7031   8.451   2.919   0.143
    1STR    O0Q 7032   8.454   2.920   0.020
    1STR    N0R 7033   8.456   3.028   0.221
    1STR    C0S 7034   8.472   3.166   0.198
    1STR    C0T 7035   8.491   3.243   0.314
    1STR    C0U 7036   8.516   3.381   0.308
    1STR    C0V 7037   8.521   3.447   0.184
    1STR    C0W 7038   8.562   3.594   0.181
    1STR    C0X 7039   8.494   3.376   0.064
    1STR    N0Y 7040   8.502   3.445  17.382
    1STR   BCK2 7041   8.423   3.546  17.339
    1STR    O10 7042   8.322   3.583  17.398
    1STR    C13 7043   8.473   3.234   0.072
    1STR    C14 7044   8.617   1.275   0.330
    1STR    C15 7045   8.612   1.138   0.356
    1STR    C16 7046   8.590   1.044   0.253
    1STR    C17 7047   8.571   0.900   0.297
    1STR    H1B 7048   8.493   1.033  17.379
    1STR    H1C 7049   8.575   1.265  17.434
    1STR    H1D 7050   8.612   1.498   0.081
    1STR    H1E 7051   8.505   1.801   0.359
    1STR    H1F 7052   8.793   1.860   0.274
    1STR    H1G 7053   8.710   1.932   0.411
    1STR    H1H 7054   8.745   1.760   0.411
    1STR    H1I 7055   8.435   1.918   0.155
    1STR    H1J 7056   8.600   1.956   0.114
    1STR    H1K 7057   8.513   2.185   0.107
    1STR    H1M 7058   8.275   2.155   0.300
    1STR    H1N 7059   8.286   2.083   0.140
    1STR    H1O 7060   8.274   2.257   0.157
    1STR    H1P 7061   8.462   2.320   0.377
    1STR    H1Q 7062   8.617   2.315   0.295
    1STR    H1R 7063   8.443   2.568   0.352
    1STR    H1S 7064   8.662   2.690   0.309
    1STR    H1T 7065   8.698   2.575   0.181
    1STR    H1U 7066   8.688   2.522   0.349
    1STR    H1V 7067   8.328   2.656   0.145
    1STR    H1W 7068   8.482   2.672   0.065
    1STR    H1X 7069   8.449   2.999   0.317
    1STR    H1Y 7070   8.490   3.197   0.412
    1STR    H1Z 7071   8.535   3.436   0.399
    1STR    H20 7072   8.650   3.607   0.118
    1STR    H21 7073   8.482   3.656   0.142
    1STR    H22 7074   8.587   3.631   0.280
    1STR    H23 7075   8.579   3.422  17.321
    1STR    H27 7076   8.457   3.177  17.422
    1STR    H28 7077   8.633   1.340   0.415
    1STR    H29 7078   8.622   1.104   0.458
    1STR    H2A 7079   8.500   0.848   0.233
    1STR    H2B 7080   8.533   0.894   0.399
    1STR    H2C 7081   8.667   0.847   0.294
    1STR   BCK1 7082   8.690   0.884   4.210
    1STR    O03 7083   8.660   0.899   4.092
    1STR    N04 7084   8.755   0.978   4.283
    1STR    C05 7085   8.841   1.082   4.239
    1STR    C06 7086   8.820   1.222   4.265
    1STR    C07 7087   8.918   1.323   4.232
    1STR    N08 7088   8.901   1.463   4.260
    1STR    C09 7089   8.975   1.571   4.223
    1STR    O0A 7090   9.072   1.564   4.148
    1STR    O0B 7091   8.932   1.694   4.275
    1STR    C0C 7092   8.998   1.819   4.234
    1STR    C0D 7093   8.949   1.856   4.092
    1STR    C0E 7094   8.979   1.942   4.330
    1STR    O0F 7095   9.037   2.066   4.279
    1STR    C0G 7096   9.029   2.186   4.361
    1STR    C0H 7097   9.136   2.177   4.471
    1STR    C0I 7098   9.048   2.317   4.276
    1STR    O0J 7099   9.014   2.441   4.344
    1STR    C0K 7100   9.026   2.566   4.269
    1STR    C0M 7101   8.926   2.567   4.153
    1STR    C0N 7102   9.001   2.695   4.355
    1STR    O0O 7103   9.025   2.817   4.281
    1STR    C0P 7104   8.947   2.930   4.293
    1STR    O0Q 7105   8.844   2.938   4.358
    1STR    N0R 7106   9.003   3.032   4.226
    1STR    C0S 7107   8.972   3.169   4.207
    1STR    C0T 7108   9.082   3.252   4.179
    1STR    C0U 7109   9.065   3.389   4.155
    1STR    C0V 7110   8.938   3.449   4.157
    1STR    C0W 7111   8.934   3.600   4.140
    1STR    C0X 7112   8.822   3.370   4.182
    1STR    N0Y 7113   8.691   3.422   4.196
    1STR   BCK2 7114   8.611   3.526   4.157
    1STR    O10 7115   8.501   3.533   4.210
    1STR    C13 7116   8.843   3.230   4.209
    1STR    C14 7117   9.038   1.276   4.173
    1STR    C15 7118   9.060   1.140   4.149
    1STR    C16 7119   8.964   1.043   4.183
    1STR    C17 7120   9.000   0.896   4.163
    1STR    H1B 7121   8.761   0.956   4.381
    1STR    H1C 7122   8.727   1.252   4.312
    1STR    H1D 7123   8.821   1.489   4.316
    1STR    H1E 7124   9.105   1.800   4.228
    1STR    H1F 7125   8.843   1.877   4.091
    1STR    H1G 7126   9.001   1.945   4.056
    1STR    H1H 7127   8.970   1.776   4.021
    1STR    H1I 7128   9.025   1.917   4.426
    1STR    H1J 7129   8.873   1.957   4.349
    1STR    H1K 7130   8.930   2.191   4.406
    1STR    H1M 7131   9.235   2.165   4.428
    1STR    H1N 7132   9.119   2.094   4.539
    1STR    H1O 7133   9.137   2.268   4.531
    1STR    H1P 7134   9.151   2.322   4.240
    1STR    H1Q 7135   8.986   2.306   4.187
    1STR    H1R 7136   9.128   2.572   4.230
    1STR    H1S 7137   8.927   2.663   4.102
    1STR    H1T 7138   8.824   2.551   4.189
    1STR    H1U 7139   8.948   2.491   4.078
    1STR    H1V 7140   9.068   2.695   4.442
    1STR    H1W 7141   8.900   2.695   4.397
    1STR    H1X 7142   9.090   3.001   4.187
    1STR    H1Y 7143   9.183   3.213   4.178
    1STR    H1Z 7144   9.153   3.450   4.137
    1STR    H20 7145   8.911   3.624   4.036
    1STR    H21 7146   8.861   3.645   4.206
    1STR    H22 7147   9.030   3.645   4.162
    1STR    H23 7148   8.634   3.365   4.255
    1STR    H27 7149   8.758   3.166   4.231
    1STR    H28 7150   9.119   1.342   4.147
    1STR    H29 7151   9.155   1.110   4.106
    1STR    H2A 7152   8.981   0.840   4.255
    1STR    H2B 7153   9.105   0.883   4.138
    1STR    H2C 7154   8.940   0.853   4.083
    1STR   BCK1 7155   8.612   0.851   8.605
    1STR    O03 7156   8.703   0.794   8.665
    1STR    N04 7157   8.591   0.981   8.637
    1STR    C05 7158   8.493   1.080   8.617
    1STR    C06 7159   8.532   1.218   8.611
    1STR    C07 7160   8.438   1.326   8.605
    1STR    N08 7161   8.479   1.463   8.603
    1STR    C09 7162   8.406   1.577   8.601
    1STR    O0A 7163   8.283   1.580   8.600
    1STR    O0B 7164   8.481   1.693   8.602
    1STR    C0C 7165   8.415   1.823   8.606
    1STR    C0D 7166   8.371   1.853   8.751
    1STR    C0E 7167   8.500   1.941   8.550
    1STR    O0F 7168   8.425   2.065   8.548
    1STR    C0G 7169   8.488   2.180   8.488
    1STR    C0H 7170   8.485   2.165   8.335
    1STR    C0I 7171   8.416   2.312   8.530
    1STR    O0J 7172   8.483   2.432   8.483
    1STR    C0K 7173   8.420   2.559   8.511
    1STR    C0M 7174   8.425   2.588   8.662
    1STR    C0N 7175   8.486   2.676   8.433
    1STR    O0O 7176   8.404   2.795   8.437
    1STR    C0P 7177   8.456   2.920   8.449
    1STR    O0Q 7178   8.574   2.948   8.462
    1STR    N0R 7179   8.356   3.009   8.452
    1STR    C0S 7180   8.349   3.145   8.485
    1STR    C0T 7181   8.234   3.183   8.558
    1STR    C0U 7182   8.219   3.314   8.606
    1STR    C0V 7183   8.315   3.412   8.579
    1STR    C0W 7184   8.305   3.544   8.655
    1STR    C0X 7185   8.425   3.383   8.494
    1STR    N0Y 7186   8.521   3.481   8.467
    1STR   BCK2 7187   8.513   3.608   8.420
    1STR    O10 7188   8.610   3.682   8.432
    1STR    C13 7189   8.444   3.247   8.453
    1STR    C14 7190   8.301   1.290   8.603
    1STR    C15 7191   8.261   1.156   8.611
    1STR    C16 7192   8.354   1.051   8.622
    1STR    C17 7193   8.298   0.913   8.649
    1STR    H1B 7194   8.667   1.010   8.696
    1STR    H1C 7195   8.637   1.242   8.613
    1STR    H1D 7196   8.578   1.482   8.606
    1STR    H1E 7197   8.325   1.817   8.544
    1STR    H1F 7198   8.456   1.862   8.818
    1STR    H1G 7199   8.315   1.947   8.755
    1STR    H1H 7200   8.305   1.775   8.790
    1STR    H1I 7201   8.531   1.914   8.449
    1STR    H1J 7202   8.591   1.953   8.609
    1STR    H1K 7203   8.591   2.187   8.523
    1STR    H1M 7204   8.383   2.151   8.300
    1STR    H1N 7205   8.545   2.081   8.301
    1STR    H1O 7206   8.525   2.255   8.287
    1STR    H1P 7207   8.313   2.311   8.494
    1STR    H1Q 7208   8.410   2.314   8.639
    1STR    H1R 7209   8.315   2.553   8.479
    1STR    H1S 7210   8.387   2.688   8.684
    1STR    H1T 7211   8.528   2.584   8.699
    1STR    H1U 7212   8.366   2.518   8.721
    1STR    H1V 7213   8.500   2.649   8.329
    1STR    H1W 7214   8.586   2.697   8.473
    1STR    H1X 7215   8.268   2.962   8.438
    1STR    H1Y 7216   8.159   3.110   8.583
    1STR    H1Z 7217   8.133   3.337   8.668
    1STR    H20 7218   8.403   3.573   8.694
    1STR    H21 7219   8.266   3.624   8.592
    1STR    H22 7220   8.238   3.536   8.741
    1STR    H23 7221   8.616   3.457   8.489
    1STR    H27 7222   8.531   3.220   8.395
    1STR    H28 7223   8.222   1.362   8.598
    1STR    H29 7224   8.155   1.134   8.614
    1STR    H2A 7225   8.281   0.861   8.555
    1STR    H2B 7226   8.202   0.919   8.701
    1STR    H2C 7227   8.364   0.854   8.712
    1STR   BCK1 7228   8.697   0.876  13.054
    1STR    O03 7229   8.802   0.814  13.064
    1STR    N04 7230   8.674   1.000  13.106
    1STR    C05 7231   8.753   1.087  13.188
    1STR    C06 7232   8.739   1.230  13.177
    1STR    C07 7233   8.810   1.324  13.260
    1STR    N08 7234   8.791   1.466  13.250
    1STR    C09 7235   8.842   1.569  13.324
    1STR    O0A 7236   8.921   1.554  13.417
    1STR    O0B 7237   8.799   1.695  13.285
    1STR    C0C 7238   8.853   1.816  13.348
    1STR    C0D 7239   8.991   1.845  13.288
    1STR    C0E 7240   8.760   1.942  13.336
    1STR    O0F 7241   8.817   2.065  13.388
    1STR    C0G 7242   8.732   2.183  13.390
    1STR    C0H 7243   8.637   2.172  13.511
    1STR    C0I 7244   8.812   2.319  13.398
    1STR    O0J 7245   8.729   2.436  13.372
    1STR    C0K 7246   8.788   2.568  13.383
    1STR    C0M 7247   8.904   2.583  13.282
    1STR    C0N 7248   8.683   2.682  13.358
    1STR    O0O 7249   8.738   2.816  13.370
    1STR    C0P 7250   8.686   2.924  13.301
    1STR    O0Q 7251   8.598   2.918  13.216
    1STR    N0R 7252   8.747   3.037  13.341
    1STR    C0S 7253   8.742   3.173  13.304
    1STR    C0T 7254   8.822   3.257  13.384
    1STR    C0U 7255   8.839   3.393  13.353
    1STR    C0V 7256   8.775   3.451  13.242
    1STR    C0W 7257   8.814   3.594  13.207
    1STR    C0X 7258   8.684   3.374  13.164
    1STR    N0Y 7259   8.621   3.432  13.052
    1STR   BCK2 7260   8.557   3.551  13.040
    1STR    O10 7261   8.527   3.624  13.134
    1STR    C13 7262   8.671   3.234  13.195
    1STR    C14 7263   8.901   1.269  13.353
    1STR    C15 7264   8.913   1.130  13.369
    1STR    C16 7265   8.838   1.039  13.292
    1STR    C17 7266   8.850   0.893  13.332
    1STR    H1B 7267   8.586   1.037  13.077
    1STR    H1C 7268   8.672   1.269  13.102
    1STR    H1D 7269   8.729   1.499  13.178
    1STR    H1E 7270   8.866   1.796  13.454
    1STR    H1F 7271   8.985   1.866  13.181
    1STR    H1G 7272   9.037   1.932  13.336
    1STR    H1H 7273   9.060   1.761  13.302
    1STR    H1I 7274   8.667   1.920  13.388
    1STR    H1J 7275   8.734   1.958  13.231
    1STR    H1K 7276   8.675   2.186  13.298
    1STR    H1M 7277   8.693   2.161  13.604
    1STR    H1N 7278   8.569   2.087  13.502
    1STR    H1O 7279   8.576   2.262  13.520
    1STR    H1P 7280   8.860   2.328  13.496
    1STR    H1Q 7281   8.892   2.314  13.325
    1STR    H1R 7282   8.828   2.580  13.484
    1STR    H1S 7283   8.944   2.685  13.284
    1STR    H1T 7284   8.869   2.564  13.181
    1STR    H1U 7285   8.987   2.516  13.304
    1STR    H1V 7286   8.601   2.674  13.430
    1STR    H1W 7287   8.638   2.670  13.259
    1STR    H1X 7288   8.811   3.014  13.414
    1STR    H1Y 7289   8.876   3.219  13.469
    1STR    H1Z 7290   8.905   3.453  13.414
    1STR    H20 7291   8.814   3.609  13.099
    1STR    H21 7292   8.745   3.665  13.252
    1STR    H22 7293   8.914   3.617  13.242
    1STR    H23 7294   8.625   3.379  12.966
    1STR    H27 7295   8.608   3.171  13.134
    1STR    H28 7296   8.962   1.329  13.417
    1STR    H29 7297   8.981   1.093  13.444
    1STR    H2A 7298   8.756   0.840  13.318
    1STR    H2B 7299   8.877   0.884  13.437
    1STR    H2C 7300   8.929   0.844  13.274
    1STR   BCK1 7301   8.604   5.236  17.278
    1STR    O03 7302   8.505   5.250  17.207
    1STR    N04 7303   8.697   5.332  17.295
    1STR    C05 7304   8.721   5.442  17.210
    1STR    C06 7305   8.722   5.580  17.253
    1STR    C07 7306   8.756   5.688  17.164
    1STR    N08 7307   8.762   5.824  17.205
    1STR    C09 7308   8.768   5.937  17.129
    1STR    O0A 7309   8.758   5.938  17.007
    1STR    O0B 7310   8.785   6.055  17.201
    1STR    C0C 7311   8.789   6.183  17.131
    1STR    C0D 7312   8.645   6.223  17.093
    1STR    C0E 7313   8.858   6.300  17.209
    1STR    O0F 7314   8.855   6.424  17.133
    1STR    C0G 7315   8.916   6.542  17.191
    1STR    C0H 7316   9.068   6.532  17.175
    1STR    C0I 7317   8.862   6.671  17.121
    1STR    O0J 7318   8.898   6.797  17.185
    1STR    C0K 7319   8.844   6.918  17.125
    1STR    C0M 7320   8.692   6.923  17.144
    1STR    C0N 7321   8.904   7.050  17.183
    1STR    O0O 7322   8.863   7.163  17.103
    1STR    C0P 7323   8.837   7.287  17.156
    1STR    O0Q 7324   8.833   7.314  17.275
    1STR    N0R 7325   8.823   7.376  17.057
    1STR    C0S 7326   8.810   7.517  17.054
    1STR    C0T 7327   8.895   7.584  16.964
    1STR    C0U 7328   8.889   7.723  16.950
    1STR    C0V 7329   8.796   7.800  17.022
    1STR    C0W 7330   8.810   7.951  17.009
    1STR    C0X 7331   8.701   7.737  17.107
    1STR    N0Y 7332   8.607   7.807  17.185
    1STR   BCK2 7333   8.528   7.918  17.177
    1STR    O10 7334   8.466   7.951  17.278
    1STR    C13 7335   8.713   7.595  17.125
    1STR    C14 7336   8.792   5.651  17.032
    1STR    C15 7337   8.794   5.518  16.989
    1STR    C16 7338   8.762   5.413  17.077
    1STR    C17 7339   8.778   5.270  17.028
    1STR    H1B 7340   8.768   5.312  17.364
    1STR    H1C 7341   8.694   5.602  17.354
    1STR    H1D 7342   8.761   5.844  17.303
    1STR    H1E 7343   8.846   6.169  17.039
    1STR    H1F 7344   8.583   6.239  17.181
    1STR    H1G 7345   8.645   6.315  17.035
    1STR    H1H 7346   8.597   6.147  17.032
    1STR    H1I 7347   8.961   6.272  17.230
    1STR    H1J 7348   8.809   6.315  17.305
    1STR    H1K 7349   8.889   6.548  17.296
    1STR    H1M 7350   9.097   6.519  17.071
    1STR    H1N 7351   9.110   6.448  17.232
    1STR    H1O 7352   9.117   6.622  17.212
    1STR    H1P 7353   8.895   6.673  17.017
    1STR    H1Q 7354   8.753   6.662  17.117
    1STR    H1R 7355   8.868   6.916  17.018
    1STR    H1S 7356   8.652   7.018  17.110
    1STR    H1T 7357   8.666   6.913  17.250
    1STR    H1U 7358   8.640   6.845  17.089
    1STR    H1V 7359   9.013   7.046  17.182
    1STR    H1W 7360   8.876   7.064  17.288
    1STR    H1X 7361   8.836   7.331  16.968
    1STR    H1Y 7362   8.969   7.529  16.908
    1STR    H1Z 7363   8.959   7.772  16.884
    1STR    H20 7364   8.750   7.987  16.925
    1STR    H21 7365   8.779   8.002  17.101
    1STR    H22 7366   8.913   7.979  16.991
    1STR    H23 7367   8.588   7.764  17.274
    1STR    H27 7368   8.647   7.543  17.193
    1STR    H28 7369   8.821   5.724  16.958
    1STR    H29 7370   8.823   5.495  16.888
    1STR    H2A 7371   8.832   5.210  17.101
    1STR    H2B 7372   8.833   5.266  16.934
    1STR    H2C 7373   8.680   5.225  17.011
    1STR   BCK1 7374   8.559   5.222   4.300
    1STR    O03 7375   8.616   5.167   4.394
    1STR    N04 7376   8.514   5.350   4.302
    1STR    C05 7377   8.500   5.444   4.407
    1STR    C06 7378   8.520   5.584   4.382
    1STR    C07 7379   8.493   5.685   4.480
    1STR    N08 7380   8.508   5.824   4.453
    1STR    C09 7381   8.450   5.931   4.514
    1STR    O0A 7382   8.367   5.921   4.604
    1STR    O0B 7383   8.492   6.053   4.465
    1STR    C0C 7384   8.446   6.177   4.526
    1STR    C0D 7385   8.528   6.205   4.654
    1STR    C0E 7386   8.452   6.300   4.430
    1STR    O0F 7387   8.404   6.423   4.490
    1STR    C0G 7388   8.395   6.539   4.404
    1STR    C0H 7389   8.271   6.525   4.314
    1STR    C0I 7390   8.386   6.672   4.485
    1STR    O0J 7391   8.393   6.789   4.400
    1STR    C0K 7392   8.379   6.919   4.462
    1STR    C0M 7393   8.500   6.947   4.554
    1STR    C0N 7394   8.367   7.033   4.356
    1STR    O0O 7395   8.338   7.160   4.418
    1STR    C0P 7396   8.375   7.278   4.361
    1STR    O0Q 7397   8.439   7.289   4.257
    1STR    N0R 7398   8.335   7.379   4.438
    1STR    C0S 7399   8.356   7.518   4.436
    1STR    C0T 7400   8.331   7.585   4.558
    1STR    C0U 7401   8.354   7.723   4.571
    1STR    C0V 7402   8.399   7.799   4.462
    1STR    C0W 7403   8.435   7.945   4.485
    1STR    C0X 7404   8.417   7.737   4.335
    1STR    N0Y 7405   8.456   7.816   4.226
    1STR   BCK2 7406   8.381   7.915   4.175
    1STR    O10 7407   8.285   7.887   4.104
    1STR    C13 7408   8.400   7.596   4.325
    1STR    C14 7409   8.450   5.641   4.607
    1STR    C15 7410   8.428   5.505   4.633
    1STR    C16 7411   8.449   5.407   4.534
    1STR    C17 7412   8.408   5.265   4.570
    1STR    H1B 7413   8.482   5.380   4.211
    1STR    H1C 7414   8.556   5.615   4.285
    1STR    H1D 7415   8.569   5.852   4.378
    1STR    H1E 7416   8.341   6.164   4.555
    1STR    H1F 7417   8.634   6.219   4.631
    1STR    H1G 7418   8.492   6.295   4.704
    1STR    H1H 7419   8.519   6.123   4.725
    1STR    H1I 7420   8.392   6.275   4.342
    1STR    H1J 7421   8.554   6.314   4.395
    1STR    H1K 7422   8.485   6.544   4.342
    1STR    H1M 7423   8.181   6.511   4.373
    1STR    H1N 7424   8.279   6.441   4.245
    1STR    H1O 7425   8.257   6.614   4.253
    1STR    H1P 7426   8.294   6.674   4.544
    1STR    H1Q 7427   8.468   6.674   4.557
    1STR    H1R 7428   8.287   6.919   4.522
    1STR    H1S 7429   8.495   7.048   4.594
    1STR    H1T 7430   8.593   6.938   4.498
    1STR    H1U 7431   8.504   6.879   4.639
    1STR    H1V 7432   8.287   7.011   4.285
    1STR    H1W 7433   8.459   7.040   4.297
    1STR    H1X 7434   8.283   7.343   4.516
    1STR    H1Y 7435   8.297   7.531   4.644
    1STR    H1Z 7436   8.338   7.770   4.667
    1STR    H20 7437   8.538   7.964   4.455
    1STR    H21 7438   8.370   8.011   4.428
    1STR    H22 7439   8.425   7.973   4.590
    1STR    H23 7440   8.520   7.774   4.160
    1STR    H27 7441   8.417   7.547   4.230
    1STR    H28 7442   8.430   5.711   4.687
    1STR    H29 7443   8.391   5.477   4.731
    1STR    H2A 7444   8.367   5.212   4.484
    1STR    H2B 7445   8.331   5.265   4.647
    1STR    H2C 7446   8.494   5.210   4.609
    1STR   BCK1 7447   8.732   5.243   8.594
    1STR    O03 7448   8.827   5.186   8.540
    1STR    N04 7449   8.740   5.363   8.658
    1STR    C05 7450   8.848   5.451   8.687
    1STR    C06 7451   8.828   5.594   8.693
    1STR    C07 7452   8.933   5.688   8.723
    1STR    N08 7453   8.910   5.829   8.735
    1STR    C09 7454   8.997   5.933   8.745
    1STR    O0A 7455   9.119   5.920   8.737
    1STR    O0B 7456   8.937   6.057   8.764
    1STR    C0C 7457   9.018   6.179   8.765
    1STR    C0D 7458   9.055   6.215   8.620
    1STR    C0E 7459   8.951   6.303   8.835
    1STR    O0F 7460   9.026   6.427   8.822
    1STR    C0G 7461   8.975   6.546   8.888
    1STR    C0H 7462   9.010   6.537   9.038
    1STR    C0I 7463   9.032   6.679   8.827
    1STR    O0J 7464   8.961   6.800   8.868
    1STR    C0K 7465   9.007   6.928   8.817
    1STR    C0M 7466   8.997   6.932   8.664
    1STR    C0N 7467   8.927   7.050   8.875
    1STR    O0O 7468   8.976   7.179   8.829
    1STR    C0P 7469   8.894   7.287   8.805
    1STR    O0Q 7470   8.772   7.285   8.806
    1STR    N0R 7471   8.968   7.397   8.784
    1STR    C0S 7472   8.943   7.533   8.757
    1STR    C0T 7473   9.049   7.619   8.793
    1STR    C0U 7474   9.047   7.755   8.760
    1STR    C0V 7475   8.940   7.811   8.688
    1STR    C0W 7476   8.957   7.955   8.640
    1STR    C0X 7477   8.826   7.732   8.656
    1STR    N0Y 7478   8.721   7.787   8.579
    1STR   BCK2 7479   8.656   7.905   8.590
    1STR    O10 7480   8.664   7.981   8.686
    1STR    C13 7481   8.830   7.592   8.691
    1STR    C14 7482   9.061   5.633   8.746
    1STR    C15 7483   9.083   5.495   8.744
    1STR    C16 7484   8.979   5.404   8.720
    1STR    C17 7485   9.014   5.257   8.740
    1STR    H1B 7486   8.649   5.395   8.688
    1STR    H1C 7487   8.729   5.632   8.673
    1STR    H1D 7488   8.814   5.860   8.737
    1STR    H1E 7489   9.110   6.158   8.819
    1STR    H1F 7490   8.967   6.236   8.560
    1STR    H1G 7491   9.120   6.302   8.617
    1STR    H1H 7492   9.110   6.133   8.572
    1STR    H1I 7493   8.937   6.279   8.940
    1STR    H1J 7494   8.851   6.318   8.794
    1STR    H1K 7495   8.867   6.549   8.876
    1STR    H1M 7496   9.117   6.526   9.053
    1STR    H1N 7497   8.961   6.453   9.087
    1STR    H1O 7498   8.978   6.627   9.091
    1STR    H1P 7499   9.138   6.688   8.852
    1STR    H1Q 7500   9.026   6.669   8.719
    1STR    H1R 7501   9.112   6.941   8.847
    1STR    H1S 7502   9.024   7.030   8.626
    1STR    H1T 7503   8.895   6.911   8.632
    1STR    H1U 7504   9.063   6.860   8.616
    1STR    H1V 7505   8.934   7.050   8.984
    1STR    H1W 7506   8.821   7.040   8.852
    1STR    H1X 7507   9.065   7.372   8.795
    1STR    H1Y 7508   9.135   7.582   8.846
    1STR    H1Z 7509   9.132   7.817   8.786
    1STR    H20 7510   8.912   7.969   8.541
    1STR    H21 7511   8.910   8.024   8.710
    1STR    H22 7512   9.062   7.981   8.631
    1STR    H23 7513   8.691   7.732   8.500
    1STR    H27 7514   8.748   7.527   8.664
    1STR    H28 7515   9.147   5.695   8.768
    1STR    H29 7516   9.182   5.458   8.766
    1STR    H2A 7517   8.929   5.201   8.779
    1STR    H2B 7518   9.094   5.245   8.813
    1STR    H2C 7519   9.047   5.212   8.647
    1STR   BCK1 7520   8.595   5.219  12.965
    1STR    O03 7521   8.491   5.212  13.029
    1STR    N04 7522   8.637   5.333  12.906
    1STR    C05 7523   8.559   5.446  12.873
    1STR    C06 7524   8.597   5.581  12.903
    1STR    C07 7525   8.521   5.694  12.858
    1STR    N08 7526   8.562   5.829  12.881
    1STR    C09 7527   8.517   5.943  12.823
    1STR    O0A 7528   8.433   5.946  12.734
    1STR    O0B 7529   8.575   6.059  12.871
    1STR    C0C 7530   8.521   6.189  12.831
    1STR    C0D 7531   8.403   6.223  12.923
    1STR    C0E 7532   8.625   6.306  12.828
    1STR    O0F 7533   8.563   6.430  12.784
    1STR    C0G 7534   8.649   6.545  12.766
    1STR    C0H 7535   8.727   6.528  12.634
    1STR    C0I 7536   8.566   6.677  12.762
    1STR    O0J 7537   8.648   6.796  12.759
    1STR    C0K 7538   8.580   6.924  12.747
    1STR    C0M 7539   8.499   6.953  12.875
    1STR    C0N 7540   8.681   7.040  12.722
    1STR    O0O 7541   8.618   7.159  12.668
    1STR    C0P 7542   8.618   7.279  12.733
    1STR    O0Q 7543   8.665   7.300  12.844
    1STR    N0R 7544   8.553   7.370  12.659
    1STR    C0S 7545   8.499   7.495  12.694
    1STR    C0T 7546   8.360   7.507  12.679
    1STR    C0U 7547   8.293   7.624  12.717
    1STR    C0V 7548   8.364   7.735  12.767
    1STR    C0W 7549   8.282   7.848  12.827
    1STR    C0X 7550   8.506   7.733  12.770
    1STR    N0Y 7551   8.579   7.843  12.817
    1STR   BCK2 7552   8.573   7.977  12.796
    1STR    O10 7553   8.636   8.052  12.869
    1STR    C13 7554   8.572   7.610  12.739
    1STR    C14 7555   8.401   5.665  12.789
    1STR    C15 7556   8.364   5.534  12.755
    1STR    C16 7557   8.444   5.425  12.793
    1STR    C17 7558   8.405   5.288  12.739
    1STR    H1B 7559   8.730   5.329  12.867
    1STR    H1C 7560   8.688   5.597  12.960
    1STR    H1D 7561   8.634   5.846  12.949
    1STR    H1E 7562   8.483   6.181  12.728
    1STR    H1F 7563   8.435   6.234  13.026
    1STR    H1G 7564   8.355   6.316  12.892
    1STR    H1H 7565   8.327   6.145  12.919
    1STR    H1I 7566   8.706   6.278  12.761
    1STR    H1J 7567   8.668   6.320  12.927
    1STR    H1K 7568   8.718   6.552  12.850
    1STR    H1M 7569   8.659   6.514  12.550
    1STR    H1N 7570   8.795   6.443  12.637
    1STR    H1O 7571   8.787   6.617  12.614
    1STR    H1P 7572   8.499   6.676  12.676
    1STR    H1Q 7573   8.502   6.679  12.850
    1STR    H1R 7574   8.512   6.919  12.662
    1STR    H1S 7575   8.457   7.053  12.872
    1STR    H1T 7576   8.563   6.948  12.963
    1STR    H1U 7577   8.417   6.884  12.889
    1STR    H1V 7578   8.754   7.008  12.648
    1STR    H1W 7579   8.738   7.063  12.812
    1STR    H1X 7580   8.525   7.332  12.570
    1STR    H1Y 7581   8.302   7.424  12.642
    1STR    H1Z 7582   8.186   7.628  12.711
    1STR    H20 7583   8.338   7.905  12.901
    1STR    H21 7584   8.195   7.808  12.880
    1STR    H22 7585   8.246   7.916  12.750
    1STR    H23 7586   8.651   7.822  12.885
    1STR    H27 7587   8.680   7.602  12.748
    1STR    H28 7588   8.334   5.742  12.756
    1STR    H29 7589   8.275   5.518  12.697
    1STR    H2A 7590   8.494   5.233  12.707
    1STR    H2B 7591   8.340   5.296  12.653
    1STR    H2C 7592   8.354   5.230  12.816
    1STR   BCK1 7593   8.631   9.591  17.434
    1STR    O03 7594   8.729   9.530   0.037
    1STR    N04 7595   8.596   9.717   0.032
    1STR    C05 7596   8.645   9.805   0.133
    1STR    C06 7597   8.640   9.948   0.113
    1STR    C07 7598   8.680  10.044   0.213
    1STR    N08 7599   8.670  10.185   0.193
    1STR    C09 7600   8.679  10.288   0.281
    1STR    O0A 7601   8.696  10.273   0.402
    1STR    O0B 7602   8.667  10.414   0.224
    1STR    C0C 7603   8.683  10.535   0.304
    1STR    C0D 7604   8.834  10.562   0.324
    1STR    C0E 7605   8.612  10.661   0.244
    1STR    O0F 7606   8.632  10.784   0.319
    1STR    C0G 7607   8.559  10.901   0.275
    1STR    C0H 7608   8.414  10.889   0.323
    1STR    C0I 7609   8.621  11.036   0.327
    1STR    O0J 7610   8.560  11.152   0.264
    1STR    C0K 7611   8.601  11.285   0.307
    1STR    C0M 7612   8.750  11.306   0.278
    1STR    C0N 7613   8.518  11.397   0.235
    1STR    O0O 7614   8.551  11.530   0.279
    1STR    C0P 7615   8.534  11.640   0.199
    1STR    O0Q 7616   8.499  11.637   0.082
    1STR    N0R 7617   8.564  11.752   0.267
    1STR    C0S 7618   8.571  11.889   0.235
    1STR    C0T 7619   8.612  11.972   0.342
    1STR    C0U 7620   8.633  12.110   0.324
    1STR    C0V 7621   8.612  12.170   0.199
    1STR    C0W 7622   8.651  12.317   0.182
    1STR    C0X 7623   8.564  12.093   0.089
    1STR    N0Y 7624   8.548  12.156  17.404
    1STR   BCK2 7625   8.469  12.261  17.373
    1STR    O10 7626   8.383  12.307   0.007
    1STR    C13 7627   8.546  11.952   0.109
    1STR    C14 7628   8.730   9.990   0.334
    1STR    C15 7629   8.733   9.852   0.357
    1STR    C16 7630   8.688   9.760   0.261
    1STR    C17 7631   8.682   9.615   0.306
    1STR    H1B 7632   8.521   9.753  17.416
    1STR    H1C 7633   8.605   9.985   0.018
    1STR    H1D 7634   8.653  10.218   0.100
    1STR    H1E 7635   8.639  10.517   0.403
    1STR    H1F 7636   8.884  10.580   0.229
    1STR    H1G 7637   8.849  10.649   0.387
    1STR    H1H 7638   8.883  10.478   0.373
    1STR    H1I 7639   8.506  10.639   0.237
    1STR    H1J 7640   8.647  10.676   0.142
    1STR    H1K 7641   8.562  10.905   0.166
    1STR    H1M 7642   8.409  10.877   0.431
    1STR    H1N 7643   8.362  10.805   0.278
    1STR    H1O 7644   8.357  10.979   0.298
    1STR    H1P 7645   8.610  11.043   0.435
    1STR    H1Q 7646   8.728  11.035   0.306
    1STR    H1R 7647   8.584  11.293   0.414
    1STR    H1S 7648   8.780  11.408   0.303
    1STR    H1T 7649   8.772  11.291   0.172
    1STR    H1U 7650   8.814  11.240   0.336
    1STR    H1V 7651   8.411  11.382   0.254
    1STR    H1W 7652   8.530  11.389   0.127
    1STR    H1X 7653   8.586  11.727   0.361
    1STR    H1Y 7654   8.631  11.931   0.440
    1STR    H1Z 7655   8.668  12.169   0.407
    1STR    H20 7656   8.715  12.329   0.094
    1STR    H21 7657   8.562  12.379   0.169
    1STR    H22 7658   8.706  12.354   0.268
    1STR    H23 7659   8.608  12.124  17.330
    1STR    H27 7660   8.514  11.890   0.026
    1STR    H28 7661   8.767  10.053   0.413
    1STR    H29 7662   8.769   9.817   0.453
    1STR    H2A 7663   8.597   9.563   0.261
    1STR    H2B 7664   8.670   9.608   0.414
    1STR    H2C 7665   8.774   9.563   0.279
    1STR   BCK1 7666   8.660   9.602   4.191
    1STR    O03 7667   8.608   9.614   4.081
    1STR    N04 7668   8.738   9.698   4.248
    1STR    C05 7669   8.807   9.804   4.184
    1STR    C06 7670   8.793   9.943   4.218
    1STR    C07 7671   8.875  10.046   4.159
    1STR    N08 7672   8.864  10.185   4.194
    1STR    C09 7673   8.918  10.295   4.134
    1STR    O0A 7674   8.981  10.290   4.029
    1STR    O0B 7675   8.895  10.415   4.200
    1STR    C0C 7676   8.940  10.542   4.140
    1STR    C0D 7677   8.844  10.580   4.027
    1STR    C0E 7678   8.957  10.662   4.240
    1STR    O0F 7679   8.994  10.786   4.173
    1STR    C0G 7680   9.014  10.906   4.253
    1STR    C0H 7681   9.151  10.897   4.321
    1STR    C0I 7682   9.004  11.036   4.165
    1STR    O0J 7683   8.997  11.161   4.240
    1STR    C0K 7684   8.982  11.284   4.163
    1STR    C0M 7685   8.845  11.285   4.092
    1STR    C0N 7686   8.993  11.415   4.248
    1STR    O0O 7687   8.994  11.533   4.164
    1STR    C0P 7688   8.929  11.650   4.197
    1STR    O0Q 7689   8.853  11.665   4.292
    1STR    N0R 7690   8.965  11.748   4.113
    1STR    C0S 7691   8.937  11.886   4.103
    1STR    C0T 7692   9.042  11.965   4.053
    1STR    C0U 7693   9.027  12.104   4.036
    1STR    C0V 7694   8.906  12.169   4.066
    1STR    C0W 7695   8.906  12.320   4.055
    1STR    C0X 7696   8.794  12.093   4.110
    1STR    N0Y 7697   8.670  12.151   4.149
    1STR   BCK2 7698   8.589  12.257   4.122
    1STR    O10 7699   8.492  12.273   4.194
    1STR    C13 7700   8.813  11.952   4.131
    1STR    C14 7701   8.973  10.002   4.067
    1STR    C15 7702   8.990   9.867   4.035
    1STR    C16 7703   8.910   9.768   4.094
    1STR    C17 7704   8.942   9.622   4.063
    1STR    H1B 7705   8.763   9.679   4.344
    1STR    H1C 7706   8.717   9.970   4.289
    1STR    H1D 7707   8.809  10.208   4.274
    1STR    H1E 7708   9.039  10.524   4.096
    1STR    H1F 7709   8.743  10.599   4.065
    1STR    H1G 7710   8.878  10.670   3.976
    1STR    H1H 7711   8.837  10.502   3.952
    1STR    H1I 7712   9.033  10.636   4.314
    1STR    H1J 7713   8.864  10.678   4.294
    1STR    H1K 7714   8.935  10.911   4.328
    1STR    H1M 7715   9.231  10.884   4.248
    1STR    H1N 7716   9.157  10.813   4.391
    1STR    H1O 7717   9.173  10.987   4.378
    1STR    H1P 7718   9.089  11.040   4.097
    1STR    H1Q 7719   8.916  11.025   4.103
    1STR    H1R 7720   9.062  11.287   4.088
    1STR    H1S 7721   8.828  11.380   4.042
    1STR    H1T 7722   8.765  11.272   4.165
    1STR    H1U 7723   8.836  11.208   4.016
    1STR    H1V 7724   9.086  11.414   4.305
    1STR    H1W 7725   8.913  11.420   4.322
    1STR    H1X 7726   9.033  11.712   4.048
    1STR    H1Y 7727   9.138  11.921   4.030
    1STR    H1Z 7728   9.112  12.161   4.002
    1STR    H20 7729   8.871  12.350   3.956
    1STR    H21 7730   8.845  12.365   4.132
    1STR    H22 7731   9.007  12.360   4.067
    1STR    H23 7732   8.624  12.098   4.221
    1STR    H27 7733   8.732  11.892   4.169
    1STR    H28 7734   9.042  10.071   4.020
    1STR    H29 7735   9.069   9.839   3.966
    1STR    H2A 7736   8.948   9.564   4.155
    1STR    H2B 7737   9.037   9.611   4.011
    1STR    H2C 7738   8.864   9.579   4.001
    1STR   BCK1 7739   8.603   9.573   8.612
    1STR    O03 7740   8.711   9.519   8.636
    1STR    N04 7741   8.589   9.701   8.655
    1STR    C05 7742   8.487   9.797   8.675
    1STR    C06 7743   8.517   9.936   8.660
    1STR    C07 7744   8.426  10.041   8.696
    1STR    N08 7745   8.460  10.179   8.684
    1STR    C09 7746   8.387  10.291   8.709
    1STR    O0A 7747   8.272  10.290   8.750
    1STR    O0B 7748   8.456  10.408   8.687
    1STR    C0C 7749   8.393  10.536   8.715
    1STR    C0D 7750   8.401  10.565   8.866
    1STR    C0E 7751   8.452  10.655   8.634
    1STR    O0F 7752   8.381  10.779   8.659
    1STR    C0G 7753   8.421  10.895   8.582
    1STR    C0H 7754   8.366  10.881   8.439
    1STR    C0I 7755   8.368  11.027   8.646
    1STR    O0J 7756   8.417  11.145   8.578
    1STR    C0K 7757   8.369  11.273   8.625
    1STR    C0M 7758   8.426  11.303   8.764
    1STR    C0N 7759   8.408  11.388   8.527
    1STR    O0O 7760   8.339  11.509   8.562
    1STR    C0P 7761   8.394  11.632   8.543
    1STR    O0Q 7762   8.504  11.655   8.493
    1STR    N0R 7763   8.312  11.724   8.593
    1STR    C0S 7764   8.324  11.861   8.620
    1STR    C0T 7765   8.259  11.904   8.736
    1STR    C0U 7766   8.262  12.038   8.775
    1STR    C0V 7767   8.326  12.136   8.696
    1STR    C0W 7768   8.321  12.277   8.751
    1STR    C0X 7769   8.387  12.099   8.572
    1STR    N0Y 7770   8.427  12.192   8.473
    1STR   BCK2 7771   8.465  12.321   8.472
    1STR    O10 7772   8.500  12.388   8.568
    1STR    C13 7773   8.388  11.959   8.538
    1STR    C14 7774   8.301   9.999   8.748
    1STR    C15 7775   8.270   9.863   8.765
    1STR    C16 7776   8.363   9.762   8.733
    1STR    C17 7777   8.326   9.620   8.771
    1STR    H1B 7778   8.680   9.732   8.686
    1STR    H1C 7779   8.614   9.964   8.622
    1STR    H1D 7780   8.552  10.201   8.652
    1STR    H1E 7781   8.288  10.529   8.687
    1STR    H1F 7782   8.504  10.575   8.901
    1STR    H1G 7783   8.349  10.658   8.891
    1STR    H1H 7784   8.353  10.486   8.925
    1STR    H1I 7785   8.448  10.630   8.528
    1STR    H1J 7786   8.558  10.668   8.658
    1STR    H1K 7787   8.530  10.901   8.579
    1STR    H1M 7788   8.258  10.867   8.440
    1STR    H1N 7789   8.410  10.797   8.385
    1STR    H1O 7790   8.387  10.971   8.381
    1STR    H1P 7791   8.259  11.026   8.647
    1STR    H1Q 7792   8.400  11.029   8.751
    1STR    H1R 7793   8.260  11.269   8.630
    1STR    H1S 7794   8.398  11.403   8.797
    1STR    H1T 7795   8.535  11.298   8.764
    1STR    H1U 7796   8.389  11.234   8.840
    1STR    H1V 7797   8.379  11.362   8.425
    1STR    H1W 7798   8.516  11.403   8.526
    1STR    H1X 7799   8.228  11.680   8.627
    1STR    H1Y 7800   8.206  11.834   8.799
    1STR    H1Z 7801   8.213  12.067   8.867
    1STR    H20 7802   8.421  12.308   8.781
    1STR    H21 7803   8.281  12.347   8.678
    1STR    H22 7804   8.259  12.285   8.840
    1STR    H23 7805   8.422  12.156   8.379
    1STR    H27 7806   8.436  11.926   8.447
    1STR    H28 7807   8.225  10.069   8.778
    1STR    H29 7808   8.175   9.837   8.809
    1STR    H2A 7809   8.281   9.569   8.687
    1STR    H2B 7810   8.254   9.619   8.853
    1STR    H2C 7811   8.413   9.564   8.806
    1STR   BCK1 7812   8.726   9.599  13.022
    1STR    O03 7813   8.831   9.538  13.009
    1STR    N04 7814   8.713   9.722  13.079
    1STR    C05 7815   8.806   9.809  13.145
    1STR    C06 7816   8.789   9.952  13.139
    1STR    C07 7817   8.876  10.046  13.206
    1STR    N08 7818   8.853  10.187  13.204
    1STR    C09 7819   8.925  10.290  13.257
    1STR    O0A 7820   9.031  10.276  13.316
    1STR    O0B 7821   8.868  10.416  13.239
    1STR    C0C 7822   8.939  10.537  13.281
    1STR    C0D 7823   9.049  10.569  13.179
    1STR    C0E 7824   8.847  10.663  13.303
    1STR    O0F 7825   8.918  10.786  13.332
    1STR    C0G 7826   8.839  10.905  13.363
    1STR    C0H 7827   8.791  10.895  13.508
    1STR    C0I 7828   8.917  11.040  13.342
    1STR    O0J 7829   8.832  11.158  13.343
    1STR    C0K 7830   8.893  11.289  13.329
    1STR    C0M 7831   8.969  11.299  13.196
    1STR    C0N 7832   8.788  11.406  13.337
    1STR    O0O 7833   8.847  11.538  13.327
    1STR    C0P 7834   8.779  11.645  13.272
    1STR    O0Q 7835   8.671  11.639  13.215
    1STR    N0R 7836   8.850  11.758  13.289
    1STR    C0S 7837   8.837  11.894  13.254
    1STR    C0T 7838   8.929  11.980  13.317
    1STR    C0U 7839   8.938  12.115  13.283
    1STR    C0V 7840   8.855  12.171  13.185
    1STR    C0W 7841   8.886  12.314  13.142
    1STR    C0X 7842   8.753  12.093  13.124
    1STR    N0Y 7843   8.672  12.149  13.023
    1STR   BCK2 7844   8.606  12.268  13.018
    1STR    O10 7845   8.592  12.343  13.114
    1STR    C13 7846   8.747  11.953  13.158
    1STR    C14 7847   8.984   9.990  13.277
    1STR    C15 7848   9.001   9.851  13.287
    1STR    C16 7849   8.912   9.761  13.227
    1STR    C17 7850   8.934   9.614  13.262
    1STR    H1B 7851   8.620   9.758  13.070
    1STR    H1C 7852   8.706   9.991  13.082
    1STR    H1D 7853   8.771  10.220  13.157
    1STR    H1E 7854   8.987  10.516  13.377
    1STR    H1F 7855   9.007  10.590  13.080
    1STR    H1G 7856   9.107  10.656  13.210
    1STR    H1H 7857   9.119  10.486  13.168
    1STR    H1I 7858   8.778  10.640  13.384
    1STR    H1J 7859   8.786  10.678  13.214
    1STR    H1K 7860   8.754  10.907  13.296
    1STR    H1M 7861   8.875  10.884  13.577
    1STR    H1N 7862   8.724  10.810  13.524
    1STR    H1O 7863   8.736  10.984  13.538
    1STR    H1P 7864   8.995  11.049  13.418
    1STR    H1Q 7865   8.969  11.033  13.246
    1STR    H1R 7866   8.964  11.303  13.411
    1STR    H1S 7867   9.009  11.400  13.181
    1STR    H1T 7868   8.902  11.279  13.112
    1STR    H1U 7869   9.054  11.231  13.190
    1STR    H1V 7870   8.735  11.401  13.432
    1STR    H1W 7871   8.712  11.393  13.260
    1STR    H1X 7872   8.932  11.735  13.343
    1STR    H1Y 7873   8.997  11.942  13.392
    1STR    H1Z 7874   9.013  12.177  13.331
    1STR    H20 7875   8.868  12.329  13.036
    1STR    H21 7876   8.825  12.385  13.198
    1STR    H22 7877   8.991  12.339  13.160
    1STR    H23 7878   8.662  12.094  12.939
    1STR    H27 7879   8.675  11.889  13.110
    1STR    H28 7880   9.057  10.050  13.329
    1STR    H29 7881   9.084   9.814  13.346
    1STR    H2A 7882   8.839   9.560  13.267
    1STR    H2B 7883   8.982   9.604  13.359
    1STR    H2C 7884   8.999   9.567  13.188
    1STR   BCK1 7885   8.584  13.951  17.304
    1STR    O03 7886   8.465  13.964  17.278
    1STR    N04 7887   8.674  14.050  17.287
    1STR    C05 7888   8.658  14.162  17.202
    1STR    C06 7889   8.672  14.298  17.246
    1STR    C07 7890   8.664  14.409  17.154
    1STR    N08 7891   8.683  14.544  17.195
    1STR    C09 7892   8.659  14.659  17.126
    1STR    O0A 7893   8.604  14.663  17.016
    1STR    O0B 7894   8.701  14.775  17.189
    1STR    C0C 7895   8.679  14.904  17.126
    1STR    C0D 7896   8.532  14.944  17.142
    1STR    C0E 7897   8.773  15.019  17.176
    1STR    O0F 7898   8.745  15.142  17.107
    1STR    C0G 7899   8.823  15.259  17.140
    1STR    C0H 7900   8.960  15.248  17.072
    1STR    C0I 7901   8.749  15.388  17.094
    1STR    O0J 7902   8.807  15.511  17.144
    1STR    C0K 7903   8.741  15.634  17.105
    1STR    C0M 7904   8.602  15.643  17.171
    1STR    C0N 7905   8.821  15.763  17.142
    1STR    O0O 7906   8.762  15.876  17.076
    1STR    C0P 7907   8.763  16.002  17.128
    1STR    O0Q 7908   8.801  16.033  17.240
    1STR    N0R 7909   8.722  16.086  17.033
    1STR    C0S 7910   8.715  16.226  17.021
    1STR    C0T 7911   8.764  16.276  16.899
    1STR    C0U 7912   8.747  16.411  16.866
    1STR    C0V 7913   8.678  16.500  16.951
    1STR    C0W 7914   8.657  16.638  16.893
    1STR    C0X 7915   8.628  16.455  17.077
    1STR    N0Y 7916   8.548  16.529  17.168
    1STR   BCK2 7917   8.499  16.653  17.195
    1STR    O10 7918   8.412  16.661  17.281
    1STR    C13 7919   8.651  16.317  17.110
    1STR    C14 7920   8.644  14.376  17.018
    1STR    C15 7921   8.632  14.244  16.974
    1STR    C16 7922   8.642  14.137  17.064
    1STR    C17 7923   8.641  13.996  17.007
    1STR    H1B 7924   8.767  14.030  17.320
    1STR    H1C 7925   8.688  14.317  17.351
    1STR    H1D 7926   8.719  14.562  17.287
    1STR    H1E 7927   8.700  14.892  17.019
    1STR    H1F 7928   8.505  14.958  17.247
    1STR    H1G 7929   8.511  15.038  17.089
    1STR    H1H 7930   8.465  14.869  17.100
    1STR    H1I 7931   8.876  14.989  17.160
    1STR    H1J 7932   8.760  15.033  17.283
    1STR    H1K 7933   8.835  15.264  17.249
    1STR    H1M 7934   8.950  15.235  16.964
    1STR    H1N 7935   9.018  15.163  17.110
    1STR    H1O 7936   9.020  15.338  17.090
    1STR    H1P 7937   8.744  15.391  16.985
    1STR    H1Q 7938   8.646  15.380  17.129
    1STR    H1R 7939   8.730  15.633  16.996
    1STR    H1S 7940   8.556  15.740  17.151
    1STR    H1T 7941   8.611  15.633  17.279
    1STR    H1U 7942   8.533  15.567  17.135
    1STR    H1V 7943   8.925  15.754  17.108
    1STR    H1W 7944   8.826  15.778  17.250
    1STR    H1X 7945   8.703  16.035  16.949
    1STR    H1Y 7946   8.814  16.212  16.829
    1STR    H1Z 7947   8.785  16.445  16.771
    1STR    H20 7948   8.551  16.663  16.895
    1STR    H21 7949   8.717  16.710  16.949
    1STR    H22 7950   8.689  16.645  16.789
    1STR    H23 7951   8.509  16.471  17.240
    1STR    H27 7952   8.614  16.276  17.203
    1STR    H28 7953   8.638  14.451  16.941
    1STR    H29 7954   8.618  14.225  16.869
    1STR    H2A 7955   8.722  13.936  17.051
    1STR    H2B 7956   8.656  13.995  16.900
    1STR    H2C 7957   8.546  13.947  17.029
    1STR   BCK1 7958   8.580  13.944   4.327
    1STR    O03 7959   8.654  13.884   4.404
    1STR    N04 7960   8.537  14.072   4.345
    1STR    C05 7961   8.547  14.163   4.454
    1STR    C06 7962   8.555  14.304   4.429
    1STR    C07 7963   8.553  14.403   4.534
    1STR    N08 7964   8.557  14.543   4.508
    1STR    C09 7965   8.521  14.647   4.587
    1STR    O0A 7966   8.473  14.635   4.699
    1STR    O0B 7967   8.543  14.771   4.530
    1STR    C0C 7968   8.519  14.894   4.605
    1STR    C0D 7969   8.639  14.920   4.698
    1STR    C0E 7970   8.492  15.018   4.514
    1STR    O0F 7971   8.468  15.141   4.588
    1STR    C0G 7972   8.431  15.258   4.511
    1STR    C0H 7973   8.283  15.245   4.470
    1STR    C0I 7974   8.453  15.392   4.589
    1STR    O0J 7975   8.432  15.508   4.505
    1STR    C0K 7976   8.440  15.639   4.566
    1STR    C0M 7977   8.583  15.666   4.615
    1STR    C0N 7978   8.398  15.752   4.465
    1STR    O0O 7979   8.394  15.882   4.527
    1STR    C0P 7980   8.413  15.997   4.454
    1STR    O0Q 7981   8.439  16.001   4.335
    1STR    N0R 7982   8.400  16.103   4.534
    1STR    C0S 7983   8.419  16.242   4.518
    1STR    C0T 7984   8.423  16.316   4.638
    1STR    C0U 7985   8.449  16.454   4.639
    1STR    C0V 7986   8.468  16.524   4.519
    1STR    C0W 7987   8.508  16.670   4.525
    1STR    C0X 7988   8.456  16.456   4.395
    1STR    N0Y 7989   8.476  16.530   4.277
    1STR   BCK2 7990   8.397  16.628   4.228
    1STR    O10 7991   8.286  16.654   4.272
    1STR    C13 7992   8.434  16.314   4.395
    1STR    C14 7993   8.548  14.354   4.666
    1STR    C15 7994   8.539  14.217   4.693
    1STR    C16 7995   8.534  14.121   4.590
    1STR    C17 7996   8.509  13.978   4.632
    1STR    H1B 7997   8.488  14.106   4.264
    1STR    H1C 7998   8.562  14.338   4.327
    1STR    H1D 7999   8.589  14.573   4.418
    1STR    H1E 8000   8.430  14.879   4.667
    1STR    H1F 8001   8.731  14.935   4.642
    1STR    H1G 8002   8.622  15.009   4.759
    1STR    H1H 8003   8.655  14.837   4.767
    1STR    H1I 8004   8.406  14.995   4.452
    1STR    H1J 8005   8.576  15.033   4.446
    1STR    H1K 8006   8.494  15.263   4.421
    1STR    H1M 8007   8.219  15.232   4.557
    1STR    H1N 8008   8.266  15.161   4.403
    1STR    H1O 8009   8.250  15.335   4.418
    1STR    H1P 8010   8.386  15.396   4.675
    1STR    H1Q 8011   8.554  15.393   4.628
    1STR    H1R 8012   8.371  15.643   4.651
    1STR    H1S 8013   8.593  15.768   4.653
    1STR    H1T 8014   8.655  15.655   4.533
    1STR    H1U 8015   8.613  15.599   4.695
    1STR    H1V 8016   8.298  15.731   4.425
    1STR    H1W 8017   8.465  15.753   4.379
    1STR    H1X 8018   8.376  16.073   4.626
    1STR    H1Y 8019   8.411  16.267   4.734
    1STR    H1Z 8020   8.456  16.506   4.733
    1STR    H20 8021   8.604  16.685   4.476
    1STR    H21 8022   8.435  16.733   4.475
    1STR    H22 8023   8.517  16.706   4.628
    1STR    H23 8024   8.564  16.518   4.230
    1STR    H27 8025   8.429  16.260   4.302
    1STR    H28 8026   8.550  14.420   4.751
    1STR    H29 8027   8.531  14.185   4.796
    1STR    H2A 8028   8.448  13.925   4.559
    1STR    H2B 8029   8.455  13.974   4.727
    1STR    H2C 8030   8.603  13.925   4.645
    1STR   BCK1 8031   8.714  13.966   8.554
    1STR    O03 8032   8.794  13.911   8.479
    1STR    N04 8033   8.735  14.084   8.618
    1STR    C05 8034   8.846  14.173   8.621
    1STR    C06 8035   8.826  14.315   8.634
    1STR    C07 8036   8.933  14.411   8.638
    1STR    N08 8037   8.912  14.551   8.658
    1STR    C09 8038   8.996  14.656   8.640
    1STR    O0A 8039   9.108  14.645   8.591
    1STR    O0B 8040   8.945  14.779   8.679
    1STR    C0C 8041   9.019  14.902   8.655
    1STR    C0D 8042   9.003  14.939   8.506
    1STR    C0E 8043   8.980  15.024   8.746
    1STR    O0F 8044   9.047  15.148   8.708
    1STR    C0G 8045   9.021  15.267   8.787
    1STR    C0H 8046   9.102  15.258   8.918
    1STR    C0I 8047   9.056  15.399   8.710
    1STR    O0J 8048   9.006  15.522   8.770
    1STR    C0K 8049   9.034  15.648   8.702
    1STR    C0M 8050   8.964  15.649   8.565
    1STR    C0N 8051   8.987  15.774   8.781
    1STR    O0O 8052   9.023  15.898   8.715
    1STR    C0P 8053   8.942  16.010   8.715
    1STR    O0Q 8054   8.828  16.015   8.759
    1STR    N0R 8055   9.007  16.114   8.660
    1STR    C0S 8056   8.976  16.249   8.635
    1STR    C0T 8057   9.087  16.334   8.618
    1STR    C0U 8058   9.071  16.471   8.590
    1STR    C0V 8059   8.943  16.528   8.577
    1STR    C0W 8060   8.939  16.678   8.556
    1STR    C0X 8061   8.827  16.447   8.591
    1STR    N0Y 8062   8.694  16.497   8.592
    1STR   BCK2 8063   8.616  16.599   8.547
    1STR    O10 8064   8.501  16.604   8.590
    1STR    C13 8065   8.847  16.308   8.622
    1STR    C14 8066   9.064  14.358   8.628
    1STR    C15 8067   9.087  14.220   8.620
    1STR    C16 8068   8.981  14.127   8.621
    1STR    C17 8069   9.022  13.981   8.631
    1STR    H1B 8070   8.654  14.114   8.669
    1STR    H1C 8071   8.725  14.352   8.639
    1STR    H1D 8072   8.822  14.580   8.691
    1STR    H1E 8073   9.125  14.882   8.673
    1STR    H1F 8074   8.899  14.960   8.481
    1STR    H1G 8075   9.062  15.028   8.482
    1STR    H1H 8076   9.038  14.859   8.441
    1STR    H1I 8077   9.003  14.999   8.849
    1STR    H1J 8078   8.872  15.039   8.741
    1STR    H1K 8079   8.914  15.271   8.811
    1STR    H1M 8080   9.208  15.246   8.897
    1STR    H1N 8081   9.071  15.175   8.980
    1STR    H1O 8082   9.090  15.349   8.977
    1STR    H1P 8083   9.164  15.406   8.697
    1STR    H1Q 8084   9.014  15.389   8.610
    1STR    H1R 8085   9.142  15.656   8.687
    1STR    H1S 8086   8.976  15.746   8.516
    1STR    H1T 8087   8.857  15.631   8.576
    1STR    H1U 8088   9.005  15.575   8.496
    1STR    H1V 8089   9.033  15.775   8.880
    1STR    H1W 8090   8.879  15.771   8.799
    1STR    H1X 8091   9.101  16.085   8.638
    1STR    H1Y 8092   9.188  16.297   8.628
    1STR    H1Z 8093   9.159  16.533   8.580
    1STR    H20 8094   8.923  16.700   8.450
    1STR    H21 8095   8.861  16.724   8.616
    1STR    H22 8096   9.033  16.726   8.584
    1STR    H23 8097   8.632  16.438   8.646
    1STR    H27 8098   8.761  16.243   8.636
    1STR    H28 8099   9.151  14.421   8.630
    1STR    H29 8100   9.189  14.185   8.616
    1STR    H2A 8101   8.949  13.923   8.687
    1STR    H2B 8102   9.117  13.970   8.682
    1STR    H2C 8103   9.032  13.938   8.531
    1STR   BCK1 8104   8.597  13.935  12.961
    1STR    O03 8105   8.535  13.909  13.063
    1STR    N04 8106   8.600  14.058  12.904
    1STR    C05 8107   8.511  14.166  12.923
    1STR    C06 8108   8.557  14.301  12.934
    1STR    C07 8109   8.466  14.413  12.936
    1STR    N08 8110   8.511  14.548  12.940
    1STR    C09 8111   8.445  14.660  12.902
    1STR    O0A 8112   8.333  14.659  12.851
    1STR    O0B 8113   8.514  14.777  12.926
    1STR    C0C 8114   8.447  14.905  12.909
    1STR    C0D 8115   8.368  14.938  13.037
    1STR    C0E 8116   8.542  15.023  12.871
    1STR    O0F 8117   8.469  15.147  12.851
    1STR    C0G 8118   8.544  15.262  12.806
    1STR    C0H 8119   8.573  15.246  12.656
    1STR    C0I 8120   8.464  15.394  12.831
    1STR    O0J 8121   8.539  15.513  12.799
    1STR    C0K 8122   8.471  15.640  12.813
    1STR    C0M 8123   8.443  15.669  12.961
    1STR    C0N 8124   8.553  15.757  12.751
    1STR    O0O 8125   8.471  15.874  12.732
    1STR    C0P 8126   8.511  16.000  12.768
    1STR    O0Q 8127   8.617  16.028  12.823
    1STR    N0R 8128   8.413  16.087  12.740
    1STR    C0S 8129   8.391  16.220  12.779
    1STR    C0T 8130   8.261  16.248  12.824
    1STR    C0U 8131   8.228  16.375  12.875
    1STR    C0V 8132   8.323  16.479  12.877
    1STR    C0W 8133   8.287  16.605  12.954
    1STR    C0X 8134   8.451  16.459  12.819
    1STR    N0Y 8135   8.545  16.563  12.819
    1STR   BCK2 8136   8.541  16.692  12.782
    1STR    O10 8137   8.631  16.767  12.818
    1STR    C13 8138   8.486  16.327  12.776
    1STR    C14 8139   8.328  14.382  12.933
    1STR    C15 8140   8.282  14.251  12.920
    1STR    C16 8141   8.372  14.143  12.911
    1STR    C17 8142   8.313  14.006  12.882
    1STR    H1B 8143   8.667  14.067  12.829
    1STR    H1C 8144   8.663  14.320  12.939
    1STR    H1D 8145   8.604  14.566  12.974
    1STR    H1E 8146   8.376  14.897  12.826
    1STR    H1F 8147   8.434  14.949  13.123
    1STR    H1G 8148   8.312  15.030  13.026
    1STR    H1H 8149   8.296  14.859  13.060
    1STR    H1I 8150   8.596  14.996  12.781
    1STR    H1J 8151   8.617  15.037  12.950
    1STR    H1K 8152   8.637  15.269  12.862
    1STR    H1M 8153   8.481  15.231  12.599
    1STR    H1N 8154   8.639  15.161  12.635
    1STR    H1O 8155   8.622  15.335  12.617
    1STR    H1P 8156   8.371  15.391  12.773
    1STR    H1Q 8157   8.434  15.395  12.936
    1STR    H1R 8158   8.376  15.634  12.759
    1STR    H1S 8159   8.401  15.769  12.974
    1STR    H1T 8160   8.535  15.665  13.020
    1STR    H1U 8161   8.372  15.599  13.006
    1STR    H1V 8162   8.591  15.728  12.653
    1STR    H1W 8163   8.640  15.780  12.812
    1STR    H1X 8164   8.337  16.041  12.693
    1STR    H1Y 8165   8.186  16.171  12.827
    1STR    H1Z 8166   8.129  16.391  12.916
    1STR    H20 8167   8.374  16.643  13.008
    1STR    H21 8168   8.249  16.683  12.889
    1STR    H22 8169   8.211  16.585  13.029
    1STR    H23 8170   8.635  16.540  12.859
    1STR    H27 8171   8.585  16.307  12.739
    1STR    H28 8172   8.253  14.459  12.938
    1STR    H29 8173   8.176  14.233  12.913
    1STR    H2A 8174   8.375  13.951  12.811
    1STR    H2B 8175   8.214  14.013  12.838
    1STR    H2C 8176   8.304  13.948  12.974
    1STR   BCK1 8177  13.033   0.875  17.427
    1STR    O03 8178  13.137   0.814   0.009
    1STR    N04 8179  13.006   1.000   0.035
    1STR    C05 8180  13.074   1.087   0.125
    1STR    C06 8181  13.063   1.230   0.111
    1STR    C07 8182  13.123   1.324   0.201
    1STR    N08 8183  13.107   1.466   0.188
    1STR    C09 8184  13.143   1.569   0.270
    1STR    O0A 8185  13.199   1.553   0.378
    1STR    O0B 8186  13.110   1.695   0.222
    1STR    C0C 8187  13.151   1.816   0.293
    1STR    C0D 8188  13.299   1.844   0.263
    1STR    C0E 8189  13.063   1.942   0.261
    1STR    O0F 8190  13.108   2.065   0.325
    1STR    C0G 8191  13.024   2.183   0.309
    1STR    C0H 8192  12.905   2.171   0.405
    1STR    C0I 8193  13.100   2.318   0.334
    1STR    O0J 8194  13.023   2.434   0.293
    1STR    C0K 8195  13.077   2.567   0.317
    1STR    C0M 8196  13.209   2.585   0.242
    1STR    C0N 8197  12.977   2.680   0.273
    1STR    O0O 8198  13.025   2.814   0.299
    1STR    C0P 8199  12.985   2.923   0.224
    1STR    O0Q 8200  12.914   2.918   0.124
    1STR    N0R 8201  13.036   3.035   0.276
    1STR    C0S 8202  13.038   3.172   0.240
    1STR    C0T 8203  13.109   3.255   0.329
    1STR    C0U 8204  13.130   3.391   0.302
    1STR    C0V 8205  13.079   3.450   0.186
    1STR    C0W 8206  13.123   3.593   0.156
    1STR    C0X 8207  12.997   3.375   0.097
    1STR    N0Y 8208  12.946   3.435  17.420
    1STR   BCK2 8209  12.883   3.554  17.404
    1STR    O10 8210  12.845   3.626   0.056
    1STR    C13 8211  12.980   3.234   0.124
    1STR    C14 8212  13.200   1.269   0.306
    1STR    C15 8213  13.209   1.131   0.325
    1STR    C16 8214  13.144   1.040   0.239
    1STR    C17 8215  13.150   0.894   0.282
    1STR    H1B 8216  12.921   1.037  17.435
    1STR    H1C 8217  13.007   1.269   0.027
    1STR    H1D 8218  13.061   1.499   0.105
    1STR    H1E 8219  13.142   1.796   0.401
    1STR    H1F 8220  13.315   1.863   0.157
    1STR    H1G 8221  13.334   1.931   0.318
    1STR    H1H 8222  13.363   1.760   0.292
    1STR    H1I 8223  12.961   1.920   0.292
    1STR    H1J 8224  13.061   1.957   0.153
    1STR    H1K 8225  12.988   2.185   0.206
    1STR    H1M 8226  12.939   2.159   0.508
    1STR    H1N 8227  12.841   2.086   0.381
    1STR    H1O 8228  12.843   2.260   0.401
    1STR    H1P 8229  13.126   2.326   0.440
    1STR    H1Q 8230  13.194   2.315   0.279
    1STR    H1R 8231  13.094   2.578   0.425
    1STR    H1S 8232  13.247   2.687   0.254
    1STR    H1T 8233  13.196   2.567   0.135
    1STR    H1U 8234  13.288   2.519   0.279
    1STR    H1V 8235  12.882   2.669   0.326
    1STR    H1W 8236  12.953   2.670   0.167
    1STR    H1X 8237  13.086   3.012   0.359
    1STR    H1Y 8238  13.153   3.214   0.419
    1STR    H1Z 8239  13.190   3.449   0.371
    1STR    H20 8240  13.135   3.609   0.049
    1STR    H21 8241  13.051   3.664   0.195
    1STR    H22 8242  13.220   3.615   0.202
    1STR    H23 8243  12.958   3.384  17.334
    1STR    H27 8244  12.923   3.173   0.056
    1STR    H28 8245  13.253   1.331   0.378
    1STR    H29 8246  13.266   1.094   0.409
    1STR    H2A 8247  13.058   0.841   0.256
    1STR    H2B 8248  13.162   0.885   0.390
    1STR    H2C 8249  13.234   0.844   0.235
    1STR   BCK1 8250  12.984   0.872   4.185
    1STR    O03 8251  12.903   0.886   4.094
    1STR    N04 8252  13.072   0.970   4.221
    1STR    C05 8253  13.116   1.079   4.143
    1STR    C06 8254  13.109   1.217   4.183
    1STR    C07 8255  13.166   1.324   4.105
    1STR    N08 8256  13.164   1.461   4.145
    1STR    C09 8257  13.190   1.573   4.072
    1STR    O0A 8258  13.209   1.572   3.951
    1STR    O0B 8259  13.192   1.692   4.144
    1STR    C0C 8260  13.212   1.820   4.075
    1STR    C0D 8261  13.081   1.860   4.005
    1STR    C0E 8262  13.263   1.939   4.164
    1STR    O0F 8263  13.275   2.063   4.089
    1STR    C0G 8264  13.322   2.182   4.158
    1STR    C0H 8265  13.474   2.172   4.176
    1STR    C0I 8266  13.284   2.312   4.078
    1STR    O0J 8267  13.304   2.437   4.149
    1STR    C0K 8268  13.265   2.559   4.080
    1STR    C0M 8269  13.112   2.563   4.065
    1STR    C0N 8270  13.309   2.691   4.152
    1STR    O0O 8271  13.286   2.806   4.067
    1STR    C0P 8272  13.241   2.927   4.115
    1STR    O0Q 8273  13.202   2.948   4.230
    1STR    N0R 8274  13.250   3.020   4.019
    1STR    C0S 8275  13.229   3.160   4.016
    1STR    C0T 8276  13.325   3.233   3.944
    1STR    C0U 8277  13.314   3.373   3.931
    1STR    C0V 8278  13.206   3.444   3.986
    1STR    C0W 8279  13.213   3.595   3.977
    1STR    C0X 8280  13.101   3.373   4.052
    1STR    N0Y 8281  12.991   3.437   4.114
    1STR   BCK2 8282  12.911   3.546   4.098
    1STR    O10 8283  12.830   3.570   4.187
    1STR    C13 8284  13.117   3.231   4.070
    1STR    C14 8285  13.231   1.285   3.985
    1STR    C15 8286  13.240   1.151   3.945
    1STR    C16 8287  13.186   1.048   4.024
    1STR    C17 8288  13.211   0.905   3.980
    1STR    H1B 8289  13.124   0.950   4.305
    1STR    H1C 8290  13.060   1.240   4.276
    1STR    H1D 8291  13.140   1.482   4.240
    1STR    H1E 8292  13.288   1.804   3.999
    1STR    H1F 8293  13.001   1.877   4.077
    1STR    H1G 8294  13.095   1.951   3.947
    1STR    H1H 8295  13.048   1.783   3.935
    1STR    H1I 8296  13.359   1.912   4.207
    1STR    H1J 8297  13.194   1.954   4.248
    1STR    H1K 8298  13.273   2.188   4.256
    1STR    H1M 8299  13.524   2.159   4.080
    1STR    H1N 8300  13.503   2.089   4.240
    1STR    H1O 8301  13.514   2.263   4.221
    1STR    H1P 8302  13.339   2.314   3.984
    1STR    H1Q 8303  13.179   2.302   4.051
    1STR    H1R 8304  13.312   2.559   3.981
    1STR    H1S 8305  13.080   2.658   4.023
    1STR    H1T 8306  13.063   2.552   4.162
    1STR    H1U 8307  13.074   2.485   3.999
    1STR    H1V 8308  13.416   2.688   4.174
    1STR    H1W 8309  13.259   2.702   4.248
    1STR    H1X 8310  13.289   2.980   3.936
    1STR    H1Y 8311  13.411   3.184   3.902
    1STR    H1Z 8312  13.393   3.426   3.879
    1STR    H20 8313  13.165   3.629   3.886
    1STR    H21 8314  13.167   3.642   4.064
    1STR    H22 8315  13.317   3.629   3.974
    1STR    H23 8316  12.958   3.389   4.196
    1STR    H27 8317  13.043   3.175   4.124
    1STR    H28 8318  13.278   1.357   3.920
    1STR    H29 8319  13.292   1.128   3.854
    1STR    H2A 8320  13.246   0.845   4.064
    1STR    H2B 8321  13.286   0.899   3.901
    1STR    H2C 8322  13.118   0.860   3.942
    1STR   BCK1 8323  12.945   0.857   8.653
    1STR    O03 8324  13.055   0.805   8.669
    1STR    N04 8325  12.939   0.992   8.659
    1STR    C05 8326  12.856   1.083   8.730
    1STR    C06 8327  12.877   1.224   8.711
    1STR    C07 8328  12.809   1.324   8.788
    1STR    N08 8329  12.833   1.463   8.768
    1STR    C09 8330  12.770   1.572   8.818
    1STR    O0A 8331  12.673   1.566   8.893
    1STR    O0B 8332  12.824   1.691   8.777
    1STR    C0C 8333  12.772   1.817   8.827
    1STR    C0D 8334  12.829   1.845   8.967
    1STR    C0E 8335  12.799   1.937   8.731
    1STR    O0F 8336  12.740   2.061   8.779
    1STR    C0G 8337  12.751   2.176   8.693
    1STR    C0H 8338  12.650   2.162   8.577
    1STR    C0I 8339  12.724   2.309   8.771
    1STR    O0J 8340  12.749   2.426   8.689
    1STR    C0K 8341  12.721   2.555   8.748
    1STR    C0M 8342  12.821   2.584   8.861
    1STR    C0N 8343  12.728   2.669   8.641
    1STR    O0O 8344  12.683   2.794   8.696
    1STR    C0P 8345  12.727   2.914   8.649
    1STR    O0Q 8346  12.805   2.930   8.556
    1STR    N0R 8347  12.674   3.011   8.724
    1STR    C0S 8348  12.694   3.149   8.734
    1STR    C0T 8349  12.668   3.203   8.861
    1STR    C0U 8350  12.684   3.339   8.886
    1STR    C0V 8351  12.722   3.429   8.785
    1STR    C0W 8352  12.733   3.574   8.827
    1STR    C0X 8353  12.745   3.381   8.652
    1STR    N0Y 8354  12.760   3.465   8.539
    1STR   BCK2 8355  12.804   3.592   8.518
    1STR    O10 8356  12.864   3.662   8.598
    1STR    C13 8357  12.733   3.239   8.630
    1STR    C14 8358  12.721   1.277   8.888
    1STR    C15 8359  12.699   1.140   8.908
    1STR    C16 8360  12.765   1.043   8.831
    1STR    C17 8361  12.739   0.897   8.867
    1STR    H1B 8362  13.030   1.028   8.637
    1STR    H1C 8363  12.947   1.256   8.636
    1STR    H1D 8364  12.909   1.489   8.707
    1STR    H1E 8365  12.663   1.808   8.836
    1STR    H1F 8366  12.937   1.857   8.965
    1STR    H1G 8367  12.787   1.937   9.008
    1STR    H1H 8368  12.805   1.765   9.037
    1STR    H1I 8369  12.759   1.912   8.633
    1STR    H1J 8370  12.906   1.951   8.719
    1STR    H1K 8371  12.852   2.182   8.653
    1STR    H1M 8372  12.549   2.149   8.615
    1STR    H1N 8373  12.673   2.078   8.512
    1STR    H1O 8374  12.651   2.252   8.515
    1STR    H1P 8375  12.622   2.310   8.808
    1STR    H1Q 8376  12.789   2.311   8.858
    1STR    H1R 8377  12.619   2.554   8.788
    1STR    H1S 8378  12.807   2.685   8.900
    1STR    H1T 8379  12.924   2.578   8.825
    1STR    H1U 8380  12.810   2.516   8.945
    1STR    H1V 8381  12.664   2.645   8.555
    1STR    H1W 8382  12.829   2.678   8.602
    1STR    H1X 8383  12.612   2.970   8.791
    1STR    H1Y 8384  12.636   3.139   8.942
    1STR    H1Z 8385  12.664   3.376   8.986
    1STR    H20 8386  12.838   3.603   8.829
    1STR    H21 8387  12.677   3.639   8.760
    1STR    H22 8388  12.694   3.591   8.928
    1STR    H23 8389  12.730   3.424   8.452
    1STR    H27 8390  12.751   3.198   8.532
    1STR    H28 8391  12.668   1.345   8.953
    1STR    H29 8392  12.631   1.111   8.986
    1STR    H2A 8393  12.694   0.845   8.783
    1STR    H2B 8394  12.671   0.888   8.951
    1STR    H2C 8395  12.832   0.848   8.896
    1STR   BCK1 8396  13.093   0.882  12.981
    1STR    O03 8397  13.193   0.823  12.941
    1STR    N04 8398  13.093   1.002  13.044
    1STR    C05 8399  13.198   1.089  13.087
    1STR    C06 8400  13.178   1.232  13.089
    1STR    C07 8401  13.278   1.326  13.133
    1STR    N08 8402  13.255   1.467  13.141
    1STR    C09 8403  13.339   1.571  13.168
    1STR    O0A 8404  13.460   1.557  13.187
    1STR    O0B 8405  13.278   1.696  13.173
    1STR    C0C 8406  13.358   1.818  13.190
    1STR    C0D 8407  13.427   1.851  13.057
    1STR    C0E 8408  13.278   1.942  13.243
    1STR    O0F 8409  13.355   2.066  13.246
    1STR    C0G 8410  13.291   2.185  13.301
    1STR    C0H 8411  13.294   2.176  13.454
    1STR    C0I 8412  13.359   2.319  13.253
    1STR    O0J 8413  13.280   2.439  13.280
    1STR    C0K 8414  13.334   2.569  13.243
    1STR    C0M 8415  13.359   2.574  13.091
    1STR    C0N 8416  13.240   2.688  13.283
    1STR    O0O 8417  13.296   2.818  13.250
    1STR    C0P 8418  13.217   2.926  13.213
    1STR    O0Q 8419  13.097   2.922  13.190
    1STR    N0R 8420  13.292   3.037  13.207
    1STR    C0S 8421  13.271   3.174  13.176
    1STR    C0T 8422  13.372   3.260  13.222
    1STR    C0U 8423  13.374   3.396  13.188
    1STR    C0V 8424  13.275   3.451  13.105
    1STR    C0W 8425  13.298   3.594  13.058
    1STR    C0X 8426  13.165   3.372  13.062
    1STR    N0Y 8427  13.069   3.427  12.974
    1STR   BCK2 8428  13.003   3.545  12.979
    1STR    O10 8429  13.002   3.621  13.075
    1STR    C13 8430  13.166   3.232  13.097
    1STR    C14 8431  13.402   1.271  13.173
    1STR    C15 8432  13.423   1.132  13.176
    1STR    C16 8433  13.322   1.041  13.138
    1STR    C17 8434  13.353   0.895  13.163
    1STR    H1B 8435  13.000   1.036  13.060
    1STR    H1C 8436  13.084   1.271  13.056
    1STR    H1D 8437  13.161   1.500  13.124
    1STR    H1E 8438  13.436   1.796  13.263
    1STR    H1F 8439  13.354   1.873  12.979
    1STR    H1G 8440  13.491   1.939  13.067
    1STR    H1H 8441  13.489   1.769  13.022
    1STR    H1I 8442  13.242   1.919  13.344
    1STR    H1J 8443  13.190   1.958  13.181
    1STR    H1K 8444  13.188   2.188  13.266
    1STR    H1M 8445  13.396   2.165  13.491
    1STR    H1N 8446  13.236   2.091  13.492
    1STR    H1O 8447  13.252   2.266  13.499
    1STR    H1P 8448  13.457   2.329  13.299
    1STR    H1Q 8449  13.376   2.310  13.146
    1STR    H1R 8450  13.429   2.582  13.295
    1STR    H1S 8451  13.392   2.674  13.061
    1STR    H1T 8452  13.267   2.553  13.037
    1STR    H1U 8453  13.435   2.505  13.058
    1STR    H1V 8454  13.223   2.687  13.391
    1STR    H1W 8455  13.142   2.677  13.237
    1STR    H1X 8456  13.386   3.014  13.236
    1STR    H1Y 8457  13.453   3.223  13.284
    1STR    H1Z 8458  13.456   3.457  13.223
    1STR    H20 8459  13.263   3.608  12.956
    1STR    H21 8460  13.245   3.664  13.123
    1STR    H22 8461  13.403   3.620  13.059
    1STR    H23 8462  13.046   3.371  12.893
    1STR    H27 8463  13.087   3.167  13.062
    1STR    H28 8464  13.484   1.331  13.207
    1STR    H29 8465  13.518   1.095  13.211
    1STR    H2A 8466  13.263   0.839  13.190
    1STR    H2B 8467  13.424   0.883  13.245
    1STR    H2C 8468  13.398   0.850  13.075
    1STR   BCK1 8469  12.948   5.223  17.324
    1STR    O03 8470  12.829   5.225  17.355
    1STR    N04 8471  13.014   5.330  17.276
    1STR    C05 8472  12.955   5.443  17.215
    1STR    C06 8473  12.984   5.579  17.253
    1STR    C07 8474  12.930   5.692  17.181
    1STR    N08 8475  12.963   5.826  17.213
    1STR    C09 8476  12.923   5.943  17.155
    1STR    O0A 8477  12.842   5.949  17.063
    1STR    O0B 8478  12.980   6.057  17.207
    1STR    C0C 8479  12.938   6.188  17.158
    1STR    C0D 8480  12.804   6.225  17.224
    1STR    C0E 8481  13.041   6.303  17.176
    1STR    O0F 8482  12.991   6.428  17.121
    1STR    C0G 8483  13.079   6.543  17.124
    1STR    C0H 8484  13.182   6.528  17.011
    1STR    C0I 8485  12.998   6.675  17.107
    1STR    O0J 8486  13.076   6.795  17.130
    1STR    C0K 8487  13.010   6.922  17.108
    1STR    C0M 8488  12.897   6.942  17.211
    1STR    C0N 8489  13.108   7.044  17.116
    1STR    O0O 8490  13.052   7.160  17.051
    1STR    C0P 8491  13.047   7.285  17.108
    1STR    O0Q 8492  13.081   7.314  17.222
    1STR    N0R 8493  12.996   7.369  17.017
    1STR    C0S 8494  12.948   7.501  17.014
    1STR    C0T 8495  12.875   7.531  16.898
    1STR    C0U 8496  12.803   7.651  16.887
    1STR    C0V 8497  12.805   7.746  16.990
    1STR    C0W 8498  12.699   7.854  16.982
    1STR    C0X 8499  12.893   7.730  17.101
    1STR    N0Y 8500  12.902   7.826  17.203
    1STR   BCK2 8501  12.900   7.962  17.211
    1STR    O10 8502  12.888   8.014  17.321
    1STR    C13 8503  12.961   7.603  17.114
    1STR    C14 8504  12.843   5.661  17.073
    1STR    C15 8505  12.817   5.529  17.034
    1STR    C16 8506  12.874   5.421  17.101
    1STR    C17 8507  12.852   5.282  17.043
    1STR    H1B 8508  13.113   5.318  17.264
    1STR    H1C 8509  13.049   5.596  17.337
    1STR    H1D 8510  13.027   5.842  17.289
    1STR    H1E 8511  12.921   6.179  17.050
    1STR    H1F 8512  12.814   6.237  17.331
    1STR    H1G 8513  12.765   6.318  17.183
    1STR    H1H 8514  12.728   6.149  17.205
    1STR    H1I 8515  13.134   6.275  17.126
    1STR    H1J 8516  13.065   6.316  17.281
    1STR    H1K 8517  13.130   6.547  17.220
    1STR    H1M 8518  13.133   6.516  16.914
    1STR    H1N 8519  13.248   6.443  17.026
    1STR    H1O 8520  13.246   6.617  17.005
    1STR    H1P 8521  12.954   6.678  17.007
    1STR    H1Q 8522  12.915   6.672  17.177
    1STR    H1R 8523  12.968   6.921  17.007
    1STR    H1S 8524  12.854   7.042  17.202
    1STR    H1T 8525  12.935   6.932  17.312
    1STR    H1U 8526  12.815   6.871  17.198
    1STR    H1V 8527  13.200   7.020  17.064
    1STR    H1W 8528  13.136   7.065  17.219
    1STR    H1X 8529  12.983   7.317  16.933
    1STR    H1Y 8530  12.866   7.460  16.818
    1STR    H1Z 8531  12.741   7.667  16.801
    1STR    H20 8532  12.677   7.897  17.079
    1STR    H21 8533  12.730   7.933  16.913
    1STR    H22 8534  12.606   7.813  16.944
    1STR    H23 8535  12.914   7.789  17.296
    1STR    H27 8536  13.021   7.582  17.201
    1STR    H28 8537  12.795   5.736  17.013
    1STR    H29 8538  12.753   5.512  16.948
    1STR    H2A 8539  12.945   5.225  17.042
    1STR    H2B 8540  12.815   5.286  16.941
    1STR    H2C 8541  12.779   5.227  17.103
    1STR   BCK1 8542  12.968   5.228   4.349
    1STR    O03 8543  13.059   5.168   4.406
    1STR    N04 8544  12.928   5.355   4.380
    1STR    C05 8545  12.964   5.444   4.485
    1STR    C06 8546  12.964   5.587   4.463
    1STR    C07 8547  12.989   5.683   4.566
    1STR    N08 8548  12.984   5.824   4.543
    1STR    C09 8549  12.976   5.928   4.631
    1STR    O0A 8550  12.967   5.913   4.753
    1STR    O0B 8551  12.977   6.053   4.572
    1STR    C0C 8552  12.978   6.174   4.653
    1STR    C0D 8553  13.121   6.201   4.703
    1STR    C0E 8554  12.921   6.300   4.578
    1STR    O0F 8555  12.924   6.423   4.656
    1STR    C0G 8556  12.862   6.540   4.597
    1STR    C0H 8557  12.710   6.527   4.611
    1STR    C0I 8558  12.910   6.675   4.661
    1STR    O0J 8559  12.863   6.791   4.587
    1STR    C0K 8560  12.893   6.923   4.639
    1STR    C0M 8561  13.044   6.947   4.641
    1STR    C0N 8562  12.823   7.035   4.554
    1STR    O0O 8563  12.844   7.167   4.607
    1STR    C0P 8564  12.841   7.279   4.527
    1STR    O0Q 8565  12.829   7.278   4.405
    1STR    N0R 8566  12.855   7.389   4.602
    1STR    C0S 8567  12.868   7.527   4.575
    1STR    C0T 8568  12.896   7.607   4.689
    1STR    C0U 8569  12.920   7.745   4.677
    1STR    C0V 8570  12.915   7.808   4.552
    1STR    C0W 8571  12.956   7.955   4.544
    1STR    C0X 8572  12.880   7.734   4.436
    1STR    N0Y 8573  12.879   7.801   4.312
    1STR   BCK2 8574  12.799   7.904   4.274
    1STR    O10 8575  12.704   7.944   4.339
    1STR    C13 8576  12.860   7.593   4.448
    1STR    C14 8577  13.020   5.632   4.694
    1STR    C15 8578  13.018   5.494   4.719
    1STR    C16 8579  12.987   5.400   4.619
    1STR    C17 8580  12.972   5.256   4.664
    1STR    H1B 8581  12.861   5.390   4.314
    1STR    H1C 8582  12.944   5.623   4.363
    1STR    H1D 8583  12.987   5.856   4.448
    1STR    H1E 8584  12.914   6.158   4.740
    1STR    H1F 8585  13.190   6.218   4.620
    1STR    H1G 8586  13.123   6.289   4.767
    1STR    H1H 8587  13.159   6.117   4.761
    1STR    H1I 8588  12.819   6.277   4.549
    1STR    H1J 8589  12.977   6.315   4.486
    1STR    H1K 8590  12.889   6.544   4.491
    1STR    H1M 8591  12.681   6.515   4.716
    1STR    H1N 8592  12.669   6.443   4.556
    1STR    H1O 8593  12.660   6.617   4.574
    1STR    H1P 8594  12.877   6.680   4.765
    1STR    H1Q 8595  13.019   6.675   4.664
    1STR    H1R 8596  12.854   6.930   4.741
    1STR    H1S 8597  13.067   7.049   4.672
    1STR    H1T 8598  13.087   6.933   4.541
    1STR    H1U 8599  13.097   6.881   4.709
    1STR    H1V 8600  12.716   7.017   4.550
    1STR    H1W 8601  12.858   7.030   4.451
    1STR    H1X 8602  12.859   7.363   4.699
    1STR    H1Y 8603  12.902   7.563   4.787
    1STR    H1Z 8604  12.945   7.802   4.765
    1STR    H20 8605  13.035   7.968   4.470
    1STR    H21 8606  12.871   8.017   4.514
    1STR    H22 8607  12.993   7.993   4.639
    1STR    H23 8608  12.949   7.775   4.245
    1STR    H27 8609  12.837   7.534   4.361
    1STR    H28 8610  13.045   5.696   4.777
    1STR    H29 8611  13.038   5.460   4.820
    1STR    H2A 8612  12.895   5.204   4.608
    1STR    H2B 8613  12.944   5.250   4.769
    1STR    H2C 8614  13.067   5.203   4.652
    1STR   BCK1 8615  13.040   5.245   8.561
    1STR    O03 8616  13.002   5.259   8.445
    1STR    N04 8617  13.110   5.339   8.629
    1STR    C05 8618  13.191   5.444   8.577
    1STR    C06 8619  13.172   5.584   8.605
    1STR    C07 8620  13.265   5.685   8.562
    1STR    N08 8621  13.250   5.824   8.593
    1STR    C09 8622  13.318   5.933   8.547
    1STR    O0A 8623  13.403   5.927   8.459
    1STR    O0B 8624  13.282   6.055   8.604
    1STR    C0C 8625  13.340   6.180   8.556
    1STR    C0D 8626  13.272   6.218   8.423
    1STR    C0E 8627  13.335   6.302   8.655
    1STR    O0F 8628  13.385   6.426   8.597
    1STR    C0G 8629  13.388   6.546   8.679
    1STR    C0H 8630  13.508   6.537   8.774
    1STR    C0I 8631  13.396   6.677   8.592
    1STR    O0J 8632  13.371   6.802   8.664
    1STR    C0K 8633  13.374   6.925   8.587
    1STR    C0M 8634  13.258   6.926   8.486
    1STR    C0N 8635  13.362   7.056   8.674
    1STR    O0O 8636  13.378   7.176   8.595
    1STR    C0P 8637  13.304   7.290   8.616
    1STR    O0Q 8638  13.209   7.301   8.692
    1STR    N0R 8639  13.354   7.391   8.542
    1STR    C0S 8640  13.323   7.528   8.526
    1STR    C0T 8641  13.432   7.610   8.491
    1STR    C0U 8642  13.415   7.748   8.470
    1STR    C0V 8643  13.289   7.810   8.481
    1STR    C0W 8644  13.286   7.960   8.466
    1STR    C0X 8645  13.174   7.732   8.512
    1STR    N0Y 8646  13.045   7.786   8.535
    1STR   BCK2 8647  12.965   7.890   8.501
    1STR    O10 8648  12.858   7.900   8.560
    1STR    C13 8649  13.195   7.591   8.537
    1STR    C14 8650  13.378   5.639   8.491
    1STR    C15 8651  13.399   5.503   8.464
    1STR    C16 8652  13.308   5.405   8.507
    1STR    C17 8653  13.342   5.259   8.484
    1STR    H1B 8654  13.122   5.318   8.726
    1STR    H1C 8655  13.085   5.613   8.662
    1STR    H1D 8656  13.179   5.850   8.659
    1STR    H1E 8657  13.446   6.162   8.535
    1STR    H1F 8658  13.166   6.238   8.437
    1STR    H1G 8659  13.318   6.307   8.380
    1STR    H1H 8660  13.282   6.139   8.349
    1STR    H1I 8661  13.393   6.277   8.744
    1STR    H1J 8662  13.232   6.318   8.688
    1STR    H1K 8663  13.295   6.551   8.736
    1STR    H1M 8664  13.601   6.525   8.719
    1STR    H1N 8665  13.499   6.454   8.844
    1STR    H1O 8666  13.517   6.628   8.834
    1STR    H1P 8667  13.493   6.682   8.543
    1STR    H1Q 8668  13.323   6.666   8.512
    1STR    H1R 8669  13.469   6.930   8.533
    1STR    H1S 8670  13.252   7.022   8.434
    1STR    H1T 8671  13.162   6.911   8.537
    1STR    H1U 8672  13.268   6.850   8.409
    1STR    H1V 8673  13.440   7.056   8.750
    1STR    H1W 8674  13.267   7.057   8.728
    1STR    H1X 8675  13.435   7.359   8.493
    1STR    H1Y 8676  13.531   7.569   8.482
    1STR    H1Z 8677  13.502   7.808   8.446
    1STR    H20 8678  13.258   7.987   8.364
    1STR    H21 8679  13.217   8.006   8.537
    1STR    H22 8680  13.384   8.004   8.485
    1STR    H23 8681  12.991   7.729   8.598
    1STR    H27 8682  13.111   7.528   8.565
    1STR    H28 8683  13.455   5.706   8.456
    1STR    H29 8684  13.488   5.474   8.410
    1STR    H2A 8685  13.332   5.202   8.576
    1STR    H2B 8686  13.444   5.247   8.448
    1STR    H2C 8687  13.275   5.216   8.409
    1STR   BCK1 8688  12.968   5.212  12.966
    1STR    O03 8689  13.067   5.155  13.012
    1STR    N04 8690  12.949   5.341  13.002
    1STR    C05 8691  12.848   5.439  12.998
    1STR    C06 8692  12.884   5.578  12.988
    1STR    C07 8693  12.789   5.685  12.999
    1STR    N08 8694  12.828   5.822  12.993
    1STR    C09 8695  12.754   5.936  13.001
    1STR    O0A 8696  12.633   5.937  13.016
    1STR    O0B 8697  12.828   6.052  12.992
    1STR    C0C 8698  12.762   6.182  13.006
    1STR    C0D 8699  12.738   6.211  13.155
    1STR    C0E 8700  12.838   6.300  12.939
    1STR    O0F 8701  12.764   6.425  12.948
    1STR    C0G 8702  12.818   6.540  12.881
    1STR    C0H 8703  12.795   6.526  12.730
    1STR    C0I 8704  12.752   6.672  12.933
    1STR    O0J 8705  12.812   6.792  12.877
    1STR    C0K 8706  12.754   6.919  12.914
    1STR    C0M 8707  12.780   6.947  13.063
    1STR    C0N 8708  12.809   7.037  12.828
    1STR    O0O 8709  12.729   7.156  12.846
    1STR    C0P 8710  12.782   7.281  12.845
    1STR    O0Q 8711  12.901   7.308  12.830
    1STR    N0R 8712  12.686   7.371  12.869
    1STR    C0S 8713  12.689   7.508  12.901
    1STR    C0T 8714  12.595   7.550  12.996
    1STR    C0U 8715  12.596   7.681  13.045
    1STR    C0V 8716  12.686   7.777  12.995
    1STR    C0W 8717  12.695   7.907  13.072
    1STR    C0X 8718  12.770   7.744  12.884
    1STR    N0Y 8719  12.852   7.837  12.817
    1STR   BCK2 8720  12.842   7.965  12.776
    1STR    O10 8721  12.926   8.007  12.697
    1STR    C13 8722  12.775   7.607  12.844
    1STR    C14 8723  12.655   5.647  13.020
    1STR    C15 8724  12.617   5.512  13.032
    1STR    C16 8725  12.712   5.408  13.026
    1STR    C17 8726  12.664   5.269  13.059
    1STR    H1B 8727  13.033   5.371  13.050
    1STR    H1C 8728  12.988   5.603  12.973
    1STR    H1D 8729  12.926   5.842  12.981
    1STR    H1E 8730  12.665   6.175  12.957
    1STR    H1F 8731  12.831   6.220  13.211
    1STR    H1G 8732  12.683   6.304  13.168
    1STR    H1H 8733  12.678   6.133  13.202
    1STR    H1I 8734  12.856   6.275  12.835
    1STR    H1J 8735  12.936   6.313  12.985
    1STR    H1K 8736  12.925   6.547  12.902
    1STR    H1M 8737  12.689   6.511  12.708
    1STR    H1N 8738  12.850   6.442  12.687
    1STR    H1O 8739  12.828   6.616  12.677
    1STR    H1P 8740  12.645   6.671  12.910
    1STR    H1Q 8741  12.761   6.674  13.041
    1STR    H1R 8742  12.646   6.913  12.896
    1STR    H1S 8743  12.746   7.047  13.090
    1STR    H1T 8744  12.887   6.943  13.084
    1STR    H1U 8745  12.730   6.877  13.129
    1STR    H1V 8746  12.806   7.011  12.722
    1STR    H1W 8747  12.913   7.056  12.852
    1STR    H1X 8748  12.597   7.325  12.876
    1STR    H1Y 8749  12.525   7.479  13.039
    1STR    H1Z 8750  12.528   7.708  13.124
    1STR    H20 8751  12.792   7.956  13.057
    1STR    H21 8752  12.615   7.975  13.044
    1STR    H22 8753  12.686   7.889  13.179
    1STR    H23 8754  12.936   7.797  12.778
    1STR    H27 8755  12.844   7.576  12.767
    1STR    H28 8756  12.575   5.718  13.029
    1STR    H29 8757  12.514   5.489  13.052
    1STR    H2A 8758  12.635   5.217  12.967
    1STR    H2B 8759  12.576   5.272  13.124
    1STR    H2C 8760  12.740   5.211  13.111
    1STR   BCK1 8761  13.069   9.600  17.403
    1STR    O03 8762  13.176   9.539  17.404
    1STR    N04 8763  13.050   9.723   0.018
    1STR    C05 8764  13.135   9.809   0.095
    1STR    C06 8765  13.120   9.952   0.086
    1STR    C07 8766  13.198  10.046   0.163
    1STR    N08 8767  13.178  10.187   0.156
    1STR    C09 8768  13.238  10.290   0.222
    1STR    O0A 8769  13.329  10.276   0.303
    1STR    O0B 8770  13.188  10.416   0.191
    1STR    C0C 8771  13.249  10.537   0.246
    1STR    C0D 8772  13.379  10.568   0.169
    1STR    C0E 8773  13.155  10.663   0.247
    1STR    O0F 8774  13.219  10.787   0.291
    1STR    C0G 8775  13.135  10.905   0.305
    1STR    C0H 8776  13.056  10.894   0.436
    1STR    C0I 8777  13.215  11.040   0.301
    1STR    O0J 8778  13.130  11.157   0.285
    1STR    C0K 8779  13.191  11.289   0.287
    1STR    C0M 8780  13.292  11.303   0.172
    1STR    C0N 8781  13.084  11.404   0.274
    1STR    O0O 8782  13.141  11.537   0.278
    1STR    C0P 8783  13.083  11.645   0.213
    1STR    O0Q 8784  12.986  11.639   0.138
    1STR    N0R 8785  13.148  11.758   0.245
    1STR    C0S 8786  13.140  11.894   0.209
    1STR    C0T 8787  13.225  11.979   0.282
    1STR    C0U 8788  13.239  12.115   0.250
    1STR    C0V 8789  13.168  12.172   0.144
    1STR    C0W 8790  13.204  12.315   0.105
    1STR    C0X 8791  13.072  12.094   0.072
    1STR    N0Y 8792  13.001  12.152  17.404
    1STR   BCK2 8793  12.937  12.271  17.394
    1STR    O10 8794  12.914  12.345   0.049
    1STR    C13 8795  13.062  11.954   0.105
    1STR    C14 8796  13.296   9.990   0.248
    1STR    C15 8797  13.310   9.851   0.261
    1STR    C16 8798  13.229   9.761   0.190
    1STR    C17 8799  13.245   9.615   0.228
    1STR    H1B 8800  12.959   9.759  17.438
    1STR    H1C 8801  13.047   9.992   0.018
    1STR    H1D 8802  13.107  10.221   0.094
    1STR    H1E 8803  13.277  10.517   0.350
    1STR    H1F 8804  13.358  10.588   0.064
    1STR    H1G 8805  13.430  10.655   0.211
    1STR    H1H 8806  13.449  10.484   0.174
    1STR    H1I 8807  13.070  10.641   0.312
    1STR    H1J 8808  13.115  10.679   0.147
    1STR    H1K 8809  13.065  10.907   0.221
    1STR    H1M 8810  13.124  10.883   0.521
    1STR    H1N 8811  12.988  10.809   0.437
    1STR    H1O 8812  12.996  10.983   0.454
    1STR    H1P 8813  13.275  11.050   0.392
    1STR    H1Q 8814  13.285  11.035   0.218
    1STR    H1R 8815  13.243  11.302   0.382
    1STR    H1S 8816  13.333  11.404   0.168
    1STR    H1T 8817  13.245  11.282   0.076
    1STR    H1U 8818  13.377  11.235   0.184
    1STR    H1V 8819  13.012  11.397   0.356
    1STR    H1W 8820  13.026  11.391   0.182
    1STR    H1X 8821  13.219  11.735   0.312
    1STR    H1Y 8822  13.285  11.940   0.364
    1STR    H1Z 8823  13.309  12.175   0.306
    1STR    H20 8824  13.197  12.330  17.438
    1STR    H21 8825  13.138  12.386   0.155
    1STR    H22 8826  13.307  12.338   0.134
    1STR    H23 8827  12.998  12.098  17.319
    1STR    H27 8828  12.994  11.891   0.049
    1STR    H28 8829  13.362  10.050   0.308
    1STR    H29 8830  13.384   9.814   0.331
    1STR    H2A 8831  13.150   9.561   0.221
    1STR    H2B 8832  13.280   9.604   0.331
    1STR    H2C 8833  13.318   9.566   0.164
    1STR   BCK1 8834  12.953   9.595   4.206
    1STR    O03 8835  12.845   9.610   4.150
    1STR    N04 8836  13.047   9.692   4.211
    1STR    C05 8837  13.058   9.803   4.124
    1STR    C06 8838  13.063   9.940   4.168
    1STR    C07 8839  13.082  10.049   4.076
    1STR    N08 8840  13.093  10.185   4.117
    1STR    C09 8841  13.087  10.299   4.043
    1STR    O0A 8842  13.059  10.300   3.923
    1STR    O0B 8843  13.114  10.415   4.113
    1STR    C0C 8844  13.107  10.544   4.044
    1STR    C0D 8845  12.959  10.584   4.027
    1STR    C0E 8846  13.187  10.660   4.112
    1STR    O0F 8847  13.174  10.784   4.038
    1STR    C0G 8848  13.242  10.901   4.087
    1STR    C0H 8849  13.392  10.890   4.052
    1STR    C0I 8850  13.180  11.030   4.025
    1STR    O0J 8851  13.224  11.155   4.084
    1STR    C0K 8852  13.164  11.276   4.032
    1STR    C0M 8853  13.016  11.282   4.071
    1STR    C0N 8854  13.232  11.408   4.081
    1STR    O0O 8855  13.181  11.521   4.006
    1STR    C0P 8856  13.167  11.646   4.059
    1STR    O0Q 8857  13.183  11.676   4.176
    1STR    N0R 8858  13.138  11.733   3.961
    1STR    C0S 8859  13.129  11.873   3.955
    1STR    C0T 8860  13.204  11.935   3.854
    1STR    C0U 8861  13.201  12.074   3.836
    1STR    C0V 8862  13.119  12.156   3.917
    1STR    C0W 8863  13.136  12.305   3.898
    1STR    C0X 8864  13.034  12.098   4.015
    1STR    N0Y 8865  12.951  12.173   4.101
    1STR   BCK2 8866  12.876  12.286   4.099
    1STR    O10 8867  12.826  12.324   4.205
    1STR    C13 8868  13.044  11.956   4.035
    1STR    C14 8869  13.098  10.014   3.939
    1STR    C15 8870  13.095   9.881   3.896
    1STR    C16 8871  13.078   9.775   3.987
    1STR    C17 8872  13.088   9.633   3.934
    1STR    H1B 8873  13.127   9.671   4.269
    1STR    H1C 8874  13.051   9.961   4.273
    1STR    H1D 8875  13.106  10.203   4.215
    1STR    H1E 8876  13.151  10.531   3.945
    1STR    H1F 8877  12.910  10.599   4.123
    1STR    H1G 8878  12.951  10.677   3.970
    1STR    H1H 8879  12.904  10.508   3.972
    1STR    H1I 8880  13.292  10.631   4.119
    1STR    H1J 8881  13.151  10.674   4.214
    1STR    H1K 8882  13.230  10.907   4.196
    1STR    H1M 8883  13.406  10.877   3.944
    1STR    H1N 8884  13.440  10.806   4.102
    1STR    H1O 8885  13.445  10.980   4.081
    1STR    H1P 8886  13.199  11.032   3.918
    1STR    H1Q 8887  13.072  11.021   4.037
    1STR    H1R 8888  13.174  11.274   3.923
    1STR    H1S 8889  12.972  11.378   4.042
    1STR    H1T 8890  13.004  11.272   4.179
    1STR    H1U 8891  12.956  11.205   4.023
    1STR    H1V 8892  13.340  11.403   4.066
    1STR    H1W 8893  13.217  11.423   4.188
    1STR    H1X 8894  13.136  11.685   3.872
    1STR    H1Y 8895  13.269  11.876   3.790
    1STR    H1Z 8896  13.263  12.118   3.760
    1STR    H20 8897  13.069  12.341   3.820
    1STR    H21 8898  13.118  12.359   3.990
    1STR    H22 8899  13.238  12.330   3.866
    1STR    H23 8900  12.942  12.133   4.193
    1STR    H27 8901  12.986  11.908   4.112
    1STR    H28 8902  13.115  10.087   3.863
    1STR    H29 8903  13.109   9.860   3.791
    1STR    H2A 8904  13.153   9.573   3.999
    1STR    H2B 8905  13.130   9.630   3.834
    1STR    H2C 8906  12.990   9.586   3.932
    1STR   BCK1 8907  12.931   9.582   8.669
    1STR    O03 8908  12.992   9.524   8.758
    1STR    N04 8909  12.886   9.710   8.677
    1STR    C05 8910  12.879   9.802   8.785
    1STR    C06 8911  12.893   9.943   8.761
    1STR    C07 8912  12.873  10.043   8.862
    1STR    N08 8913  12.883  10.182   8.835
    1STR    C09 8914  12.833  10.288   8.904
    1STR    O0A 8915  12.763  10.277   9.004
    1STR    O0B 8916  12.867  10.411   8.851
    1STR    C0C 8917  12.829  10.534   8.919
    1STR    C0D 8918  12.927  10.561   9.034
    1STR    C0E 8919  12.822  10.657   8.823
    1STR    O0F 8920  12.783  10.780   8.890
    1STR    C0G 8921  12.764  10.897   8.806
    1STR    C0H 8922  12.629  10.884   8.734
    1STR    C0I 8923  12.767  11.030   8.888
    1STR    O0J 8924  12.763  11.147   8.802
    1STR    C0K 8925  12.758  11.277   8.865
    1STR    C0M 8926  12.889  11.305   8.941
    1STR    C0N 8927  12.734  11.390   8.760
    1STR    O0O 8928  12.715  11.518   8.823
    1STR    C0P 8929  12.746  11.635   8.759
    1STR    O0Q 8930  12.796  11.644   8.647
    1STR    N0R 8931  12.716  11.738   8.838
    1STR    C0S 8932  12.736  11.877   8.829
    1STR    C0T 8933  12.723  11.947   8.951
    1STR    C0U 8934  12.747  12.085   8.959
    1STR    C0V 8935  12.782  12.158   8.844
    1STR    C0W 8936  12.820  12.305   8.859
    1STR    C0X 8937  12.787  12.094   8.718
    1STR    N0Y 8938  12.822  12.172   8.606
    1STR   BCK2 8939  12.746  12.267   8.549
    1STR    O10 8940  12.625  12.280   8.570
    1STR    C13 8941  12.767  11.952   8.712
    1STR    C14 8942  12.844   9.996   8.992
    1STR    C15 8943  12.829   9.859   9.018
    1STR    C16 8944  12.842   9.763   8.917
    1STR    C17 8945  12.809   9.620   8.956
    1STR    H1B 8946  12.849   9.743   8.590
    1STR    H1C 8947  12.918   9.976   8.661
    1STR    H1D 8948  12.933  10.211   8.753
    1STR    H1E 8949  12.729  10.521   8.961
    1STR    H1F 8950  13.029  10.575   8.998
    1STR    H1G 8951  12.899  10.651   9.089
    1STR    H1H 8952  12.928  10.478   9.106
    1STR    H1I 8953  12.751  10.634   8.744
    1STR    H1J 8954  12.919  10.672   8.775
    1STR    H1K 8955  12.845  10.902   8.733
    1STR    H1M 8956  12.547  10.871   8.805
    1STR    H1N 8957  12.627  10.800   8.664
    1STR    H1O 8958  12.607  10.974   8.676
    1STR    H1P 8959  12.684  11.033   8.958
    1STR    H1Q 8960  12.858  11.031   8.948
    1STR    H1R 8961  12.674  11.279   8.935
    1STR    H1S 8962  12.890  11.406   8.981
    1STR    H1T 8963  12.975  11.296   8.875
    1STR    H1U 8964  12.904  11.238   9.025
    1STR    H1V 8965  12.646  11.369   8.700
    1STR    H1W 8966  12.818  11.395   8.690
    1STR    H1X 8967  12.675  11.705   8.923
    1STR    H1Y 8968  12.698  11.896   9.043
    1STR    H1Z 8969  12.741  12.135   9.055
    1STR    H20 8970  12.922  12.321   8.824
    1STR    H21 8971  12.753  12.369   8.801
    1STR    H22 8972  12.815  12.338   8.963
    1STR    H23 8973  12.917  12.166   8.574
    1STR    H27 8974  12.776  11.901   8.617
    1STR    H28 8975  12.831  10.064   9.075
    1STR    H29 8976  12.803   9.829   9.119
    1STR    H2A 8977  12.761   9.566   8.875
    1STR    H2B 8978  12.741   9.617   9.041
    1STR    H2C 8979  12.900   9.567   8.986
    1STR   BCK1 8980  13.089   9.604  12.938
    1STR    O03 8981  13.178   9.549  12.876
    1STR    N04 8982  13.101   9.723  13.002
    1STR    C05 8983  13.211   9.812  13.022
    1STR    C06 8984  13.190   9.954  13.030
    1STR    C07 8985  13.297  10.049  13.051
    1STR    N08 8986  13.274  10.189  13.066
    1STR    C09 8987  13.361  10.294  13.064
    1STR    O0A 8988  13.481  10.282  13.040
    1STR    O0B 8989  13.304  10.418  13.092
    1STR    C0C 8990  13.383  10.540  13.083
    1STR    C0D 8991  13.401  10.577  12.934
    1STR    C0E 8992  13.326  10.663  13.162
    1STR    O0F 8993  13.399  10.787  13.140
    1STR    C0G 8994  13.356  10.906  13.212
    1STR    C0H 8995  13.410  10.897  13.356
    1STR    C0I 8996  13.405  11.039  13.143
    1STR    O0J 8997  13.341  11.160  13.193
    1STR    C0K 8998  13.381  11.288  13.135
    1STR    C0M 8999  13.348  11.290  12.985
    1STR    C0N 9000  13.311  11.411  13.202
    1STR    O0O 9001  13.355  11.538  13.148
    1STR    C0P 9002  13.272  11.647  13.133
    1STR    O0Q 9003  13.150  11.646  13.148
    1STR    N0R 9004  13.344  11.756  13.102
    1STR    C0S 9005  13.317  11.893  13.078
    1STR    C0T 9006  13.425  11.979  13.107
    1STR    C0U 9007  13.421  12.115  13.075
    1STR    C0V 9008  13.309  12.171  13.011
    1STR    C0W 9009  13.323  12.315  12.963
    1STR    C0X 9010  13.193  12.092  12.986
    1STR    N0Y 9011  13.084  12.147  12.915
    1STR   BCK2 9012  13.020  12.266  12.930
    1STR    O10 9013  13.033  12.341  13.026
    1STR    C13 9014  13.200  11.952  13.020
    1STR    C14 9015  13.427   9.995  13.062
    1STR    C15 9016  13.449   9.857  13.059
    1STR    C16 9017  13.344   9.765  13.044
    1STR    C17 9018  13.381   9.619  13.061
    1STR    H1B 9019  13.013   9.754  13.040
    1STR    H1C 9020  13.090   9.992  13.019
    1STR    H1D 9021  13.179  10.220  13.079
    1STR    H1E 9022  13.482  10.519  13.124
    1STR    H1F 9023  13.305  10.598  12.887
    1STR    H1G 9024  13.464  10.664  12.923
    1STR    H1H 9025  13.448  10.496  12.879
    1STR    H1I 9026  13.326  10.639  13.268
    1STR    H1J 9027  13.221  10.679  13.134
    1STR    H1K 9028  13.247  10.909  13.213
    1STR    H1M 9029  13.518  10.886  13.357
    1STR    H1N 9030  13.368  10.813  13.410
    1STR    H1O 9031  13.386  10.988  13.412
    1STR    H1P 9032  13.514  11.048  13.154
    1STR    H1Q 9033  13.386  11.029  13.037
    1STR    H1R 9034  13.489  11.300  13.148
    1STR    H1S 9035  13.370  11.388  12.942
    1STR    H1T 9036  13.242  11.270  12.968
    1STR    H1U 9037  13.407  11.218  12.928
    1STR    H1V 9038  13.333  11.412  13.309
    1STR    H1W 9039  13.202  11.403  13.194
    1STR    H1X 9040  13.441  11.731  13.101
    1STR    H1Y 9041  13.515  11.941  13.153
    1STR    H1Z 9042  13.507  12.176  13.096
    1STR    H20 9043  13.273  12.330  12.867
    1STR    H21 9044  13.280  12.384  13.036
    1STR    H22 9045  13.427  12.342  12.948
    1STR    H23 9046  13.050  12.093  12.838
    1STR    H27 9047  13.116  11.887  12.998
    1STR    H28 9048  13.513  10.057  13.077
    1STR    H29 9049  13.550   9.821  13.071
    1STR    H2A 9050  13.299   9.562  13.106
    1STR    H2B 9051  13.467   9.607  13.126
    1STR    H2C 9052  13.406   9.575  12.964
    1STR   BCK1 9053  12.957  13.938  17.323
    1STR    O03 9054  12.866  13.923  17.405
    1STR    N04 9055  12.984  14.055  17.262
    1STR    C05 9056  12.898  14.166  17.249
    1STR    C06 9057  12.941  14.301  17.273
    1STR    C07 9058  12.856  14.414  17.246
    1STR    N08 9059  12.900  14.549  17.262
    1STR    C09 9060  12.847  14.663  17.210
    1STR    O0A 9061  12.751  14.664  17.134
    1STR    O0B 9062  12.909  14.779  17.250
    1STR    C0C 9063  12.850  14.908  17.218
    1STR    C0D 9064  12.745  14.941  17.325
    1STR    C0E 9065  12.952  15.025  17.201
    1STR    O0F 9066  12.885  15.149  17.166
    1STR    C0G 9067  12.967  15.264  17.137
    1STR    C0H 9068  13.027  15.247  16.996
    1STR    C0I 9069  12.883  15.396  17.144
    1STR    O0J 9070  12.964  15.516  17.129
    1STR    C0K 9071  12.894  15.643  17.127
    1STR    C0M 9072  12.834  15.672  17.266
    1STR    C0N 9073  12.988  15.760  17.086
    1STR    O0O 9074  12.916  15.877  17.043
    1STR    C0P 9075  12.933  16.000  17.100
    1STR    O0Q 9076  13.007  16.025  17.195
    1STR    N0R 9077  12.853  16.090  17.041
    1STR    C0S 9078  12.812  16.218  17.081
    1STR    C0T 9079  12.672  16.236  17.091
    1STR    C0U 9080  12.618  16.356  17.139
    1STR    C0V 9081  12.702  16.464  17.173
    1STR    C0W 9082  12.640  16.580  17.250
    1STR    C0X 9083  12.841  16.456  17.149
    1STR    N0Y 9084  12.925  16.564  17.182
    1STR   BCK2 9085  12.922  16.696  17.154
    1STR    O10 9086  12.994  16.772  17.217
    1STR    C13 9087  12.896  16.330  17.109
    1STR    C14 9088  12.725  14.385  17.202
    1STR    C15 9089  12.683  14.254  17.175
    1STR    C16 9090  12.769  14.146  17.194
    1STR    C17 9091  12.722  14.009  17.146
    1STR    H1B 9092  13.068  14.056  17.207
    1STR    H1C 9093  13.041  14.318  17.311
    1STR    H1D 9094  12.981  14.566  17.318
    1STR    H1E 9095  12.798  14.900  17.122
    1STR    H1F 9096  12.791  14.952  17.423
    1STR    H1G 9097  12.693  15.034  17.302
    1STR    H1H 9098  12.669  14.863  17.332
    1STR    H1I 9099  13.023  14.998  17.124
    1STR    H1J 9100  13.008  15.039  17.294
    1STR    H1K 9101  13.046  15.271  17.211
    1STR    H1M 9102  12.949  15.233  16.921
    1STR    H1N 9103  13.096  15.163  16.990
    1STR    H1O 9104  13.084  15.336  16.968
    1STR    H1P 9105  12.805  15.394  17.068
    1STR    H1Q 9106  12.832  15.398  17.240
    1STR    H1R 9107  12.814  15.637  17.053
    1STR    H1S 9108  12.790  15.772  17.269
    1STR    H1T 9109  12.910  15.668  17.343
    1STR    H1U 9110  12.755  15.602  17.293
    1STR    H1V 9111  13.049  15.729  17.001
    1STR    H1W 9112  13.059  15.783  17.165
    1STR    H1X 9113  12.804  16.048  16.964
    1STR    H1Y 9114  12.605  16.154  17.068
    1STR    H1Z 9115  12.512  16.363  17.153
    1STR    H20 9116  12.697  16.599  17.341
    1STR    H21 9117  12.636  16.671  17.192
    1STR    H22 9118  12.537  16.557  17.280
    1STR    H23 9119  13.002  16.542  17.243
    1STR    H27 9120  13.003  16.318  17.099
    1STR    H28 9121  12.652  14.463  17.184
    1STR    H29 9122  12.584  14.238  17.135
    1STR    H2A 9123  12.803  13.955  17.098
    1STR    H2B 9124  12.641  14.018  17.074
    1STR    H2C 9125  12.685  13.950  17.230
    1STR   BCK1 9126  13.007  13.952   4.354
    1STR    O03 9127  13.107  13.891   4.389
    1STR    N04 9128  12.975  14.077   4.396
    1STR    C05 9129  13.031  14.165   4.493
    1STR    C06 9130  13.025  14.308   4.475
    1STR    C07 9131  13.072  14.404   4.572
    1STR    N08 9132  13.060  14.545   4.554
    1STR    C09 9133  13.079  14.648   4.641
    1STR    O0A 9134  13.110  14.632   4.759
    1STR    O0B 9135  13.059  14.774   4.587
    1STR    C0C 9136  13.085  14.895   4.665
    1STR    C0D 9137  13.236  14.922   4.665
    1STR    C0E 9138  13.006  15.021   4.614
    1STR    O0F 9139  13.036  15.144   4.686
    1STR    C0G 9140  12.958  15.262   4.652
    1STR    C0H 9141  12.820  15.249   4.720
    1STR    C0I 9142  13.025  15.397   4.694
    1STR    O0J 9143  12.957  15.513   4.639
    1STR    C0K 9144  13.003  15.646   4.675
    1STR    C0M 9145  13.148  15.667   4.628
    1STR    C0N 9146  12.912  15.758   4.613
    1STR    O0O 9147  12.952  15.892   4.651
    1STR    C0P 9148  12.924  16.002   4.572
    1STR    O0Q 9149  12.873  15.998   4.461
    1STR    N0R 9150  12.964  16.114   4.634
    1STR    C0S 9151  12.971  16.252   4.601
    1STR    C0T 9152  13.032  16.332   4.699
    1STR    C0U 9153  13.058  16.468   4.677
    1STR    C0V 9154  13.021  16.530   4.556
    1STR    C0W 9155  13.068  16.672   4.534
    1STR    C0X 9156  12.948  16.457   4.458
    1STR    N0Y 9157  12.910  16.520   4.337
    1STR   BCK2 9158  12.848  16.639   4.318
    1STR    O10 9159  12.800  16.707   4.407
    1STR    C13 9160  12.927  16.316   4.480
    1STR    C14 9161  13.133  14.350   4.687
    1STR    C15 9162  13.139  14.211   4.709
    1STR    C16 9163  13.086  14.119   4.616
    1STR    C17 9164  13.084  13.974   4.661
    1STR    H1B 9165  12.896  14.114   4.345
    1STR    H1C 9166  12.981  14.346   4.384
    1STR    H1D 9167  13.032  14.578   4.464
    1STR    H1E 9168  13.054  14.876   4.768
    1STR    H1F 9169  13.274  14.941   4.565
    1STR    H1G 9170  13.260  15.009   4.726
    1STR    H1H 9171  13.292  14.838   4.707
    1STR    H1I 9172  12.900  14.999   4.622
    1STR    H1J 9173  13.027  15.037   4.509
    1STR    H1K 9174  12.945  15.265   4.544
    1STR    H1M 9175  12.831  15.237   4.828
    1STR    H1N 9176  12.763  15.165   4.683
    1STR    H1O 9177  12.760  15.339   4.703
    1STR    H1P 9178  13.029  15.405   4.803
    1STR    H1Q 9179  13.128  15.396   4.660
    1STR    H1R 9180  12.999  15.656   4.784
    1STR    H1S 9181  13.181  15.769   4.648
    1STR    H1T 9182  13.157  15.650   4.521
    1STR    H1U 9183  13.218  15.601   4.679
    1STR    H1V 9184  12.809  15.744   4.646
    1STR    H1W 9185  12.911  15.750   4.505
    1STR    H1X 9186  12.999  16.090   4.725
    1STR    H1Y 9187  13.065  16.290   4.793
    1STR    H1Z 9188  13.109  16.525   4.752
    1STR    H20 9189  13.092  16.690   4.429
    1STR    H21 9190  12.992  16.744   4.565
    1STR    H22 9191  13.159  16.693   4.591
    1STR    H23 9192  12.930  16.470   4.252
    1STR    H27 9193  12.878  16.256   4.405
    1STR    H28 9194  13.176  14.412   4.764
    1STR    H29 9195  13.183  14.175   4.801
    1STR    H2A 9196  12.996  13.922   4.623
    1STR    H2B 9197  13.081  13.966   4.770
    1STR    H2C 9198  13.174  13.923   4.627
    1STR   BCK1 9199  13.007  13.960   8.548
    1STR    O03 9200  12.944  13.972   8.444
    1STR    N04 9201  13.089  14.056   8.597
    1STR    C05 9202  13.150  14.163   8.527
    1STR    C06 9203  13.138  14.302   8.563
    1STR    C07 9204  13.211  14.406   8.496
    1STR    N08 9205  13.204  14.544   8.533
    1STR    C09 9206  13.248  14.655   8.466
    1STR    O0A 9207  13.295  14.652   8.353
    1STR    O0B 9208  13.234  14.775   8.536
    1STR    C0C 9209  13.270  14.901   8.471
    1STR    C0D 9210  13.158  14.941   8.373
    1STR    C0E 9211  13.300  15.021   8.568
    1STR    O0F 9212  13.328  15.145   8.497
    1STR    C0G 9213  13.358  15.264   8.574
    1STR    C0H 9214  13.503  15.255   8.624
    1STR    C0I 9215  13.337  15.394   8.488
    1STR    O0J 9216  13.341  15.519   8.563
    1STR    C0K 9217  13.316  15.641   8.488
    1STR    C0M 9218  13.171  15.644   8.438
    1STR    C0N 9219  13.341  15.773   8.569
    1STR    O0O 9220  13.334  15.890   8.484
    1STR    C0P 9221  13.275  16.008   8.523
    1STR    O0Q 9222  13.211  16.025   8.626
    1STR    N0R 9223  13.302  16.104   8.433
    1STR    C0S 9224  13.276  16.242   8.426
    1STR    C0T 9225  13.378  16.320   8.368
    1STR    C0U 9226  13.364  16.459   8.353
    1STR    C0V 9227  13.247  16.525   8.394
    1STR    C0W 9228  13.250  16.677   8.386
    1STR    C0X 9229  13.138  16.451   8.447
    1STR    N0Y 9230  13.019  16.511   8.496
    1STR   BCK2 9231  12.938  16.617   8.472
    1STR    O10 9232  12.847  16.638   8.552
    1STR    C13 9233  13.157  16.310   8.466
    1STR    C14 9234  13.298  14.364   8.392
    1STR    C15 9235  13.313  14.229   8.357
    1STR    C16 9236  13.241  14.129   8.424
    1STR    C17 9237  13.271  13.984   8.389
    1STR    H1B 9238  13.124  14.038   8.690
    1STR    H1C 9239  13.071  14.328   8.643
    1STR    H1D 9240  13.160  14.567   8.620
    1STR    H1E 9241  13.361  14.885   8.414
    1STR    H1F 9242  13.064  14.959   8.425
    1STR    H1G 9243  13.184  15.031   8.318
    1STR    H1H 9244  13.141  14.863   8.299
    1STR    H1I 9245  13.385  14.995   8.631
    1STR    H1J 9246  13.215  15.037   8.635
    1STR    H1K 9247  13.290  15.270   8.659
    1STR    H1M 9248  13.573  15.242   8.541
    1STR    H1N 9249  13.518  15.172   8.693
    1STR    H1O 9250  13.532  15.346   8.677
    1STR    H1P 9251  13.412  15.397   8.409
    1STR    H1Q 9252  13.241  15.384   8.439
    1STR    H1R 9253  13.384  15.643   8.402
    1STR    H1S 9254  13.148  15.739   8.390
    1STR    H1T 9255  13.102  15.632   8.521
    1STR    H1U 9256  13.150  15.567   8.364
    1STR    H1V 9257  13.441  15.771   8.614
    1STR    H1W 9258  13.272  15.781   8.653
    1STR    H1X 9259  13.361  16.066   8.361
    1STR    H1Y 9260  13.471  16.275   8.336
    1STR    H1Z 9261  13.446  16.515   8.312
    1STR    H20 9262  13.210  16.710   8.289
    1STR    H21 9263  13.192  16.722   8.466
    1STR    H22 9264  13.351  16.715   8.394
    1STR    H23 9265  12.980  16.461   8.574
    1STR    H27 9266  13.078  16.250   8.511
    1STR    H28 9267  13.360  14.433   8.337
    1STR    H29 9268  13.382  14.203   8.279
    1STR    H2A 9269  13.288  13.925   8.479
    1STR    H2B 9270  13.359  13.974   8.327
    1STR    H2C 9271  13.187  13.940   8.335
    1STR   BCK1 9272  12.961  13.936  12.978
    1STR    O03 9273  13.071  13.883  12.988
    1STR    N04 9274  12.950  14.063  13.023
    1STR    C05 9275  12.851  14.157  13.058
    1STR    C06 9276  12.877  14.297  13.041
    1STR    C07 9277  12.790  14.400  13.090
    1STR    N08 9278  12.820  14.538  13.075
    1STR    C09 9279  12.751  14.649  13.111
    1STR    O0A 9280  12.642  14.647  13.167
    1STR    O0B 9281  12.815  14.768  13.080
    1STR    C0C 9282  12.755  14.895  13.118
    1STR    C0D 9283  12.782  14.924  13.267
    1STR    C0E 9284  12.803  15.015  13.030
    1STR    O0F 9285  12.736  15.139  13.065
    1STR    C0G 9286  12.765  15.255  12.983
    1STR    C0H 9287  12.691  15.241  12.849
    1STR    C0I 9288  12.722  15.387  13.054
    1STR    O0J 9289  12.761  15.505  12.980
    1STR    C0K 9290  12.721  15.633  13.032
    1STR    C0M 9291  12.795  15.663  13.163
    1STR    C0N 9292  12.748  15.748  12.929
    1STR    O0O 9293  12.688  15.871  12.973
    1STR    C0P 9294  12.739  15.993  12.942
    1STR    O0Q 9295  12.838  16.014  12.873
    1STR    N0R 9296  12.667  16.087  13.003
    1STR    C0S 9297  12.684  16.225  13.023
    1STR    C0T 9298  12.635  16.272  13.146
    1STR    C0U 9299  12.644  16.407  13.180
    1STR    C0V 9300  12.697  16.502  13.091
    1STR    C0W 9301  12.698  16.645  13.142
    1STR    C0X 9302  12.741  16.461  12.961
    1STR    N0Y 9303  12.771  16.551  12.856
    1STR   BCK2 9304  12.813  16.679  12.847
    1STR    O10 9305  12.859  16.747  12.938
    1STR    C13 9306  12.737  16.321  12.931
    1STR    C14 9307  12.674  14.356  13.158
    1STR    C15 9308  12.647  14.219  13.178
    1STR    C16 9309  12.735  14.120  13.131
    1STR    C17 9310  12.706  13.976  13.171
    1STR    H1B 9311  13.044  14.094  13.044
    1STR    H1C 9312  12.967  14.326  12.990
    1STR    H1D 9313  12.907  14.562  13.031
    1STR    H1E 9314  12.647  14.887  13.104
    1STR    H1F 9315  12.889  14.934  13.287
    1STR    H1G 9316  12.734  15.016  13.298
    1STR    H1H 9317  12.743  14.844  13.330
    1STR    H1I 9318  12.784  14.990  12.926
    1STR    H1J 9319  12.910  15.028  13.040
    1STR    H1K 9320  12.872  15.260  12.966
    1STR    H1M 9321  12.584  15.228  12.864
    1STR    H1N 9322  12.728  15.157  12.790
    1STR    H1O 9323  12.705  15.331  12.788
    1STR    H1P 9324  12.614  15.387  13.069
    1STR    H1Q 9325  12.767  15.389  13.153
    1STR    H1R 9326  12.613  15.631  13.050
    1STR    H1S 9327  12.772  15.764  13.199
    1STR    H1T 9328  12.903  15.658  13.148
    1STR    H1U 9329  12.768  15.594  13.243
    1STR    H1V 9330  12.705  15.723  12.832
    1STR    H1W 9331  12.855  15.761  12.914
    1STR    H1X 9332  12.591  16.044  13.052
    1STR    H1Y 9333  12.591  16.204  13.218
    1STR    H1Z 9334  12.607  16.439  13.277
    1STR    H20 9335  12.801  16.676  13.160
    1STR    H21 9336  12.651  16.713  13.071
    1STR    H22 9337  12.646  16.656  13.236
    1STR    H23 9338  12.755  16.514  12.764
    1STR    H27 9339  12.772  16.285  12.836
    1STR    H28 9340  12.602  14.424  13.201
    1STR    H29 9341  12.559  14.191  13.234
    1STR    H2A 9342  12.653  13.925  13.091
    1STR    H2B 9343  12.642  13.973  13.260
    1STR    H2C 9344  12.797  13.923  13.195
    1STR   BCK1 9345   0.054  17.395   0.907
    1STR    O03 9346   0.122  17.297   0.876
    1STR    N04 9347  17.410  17.400   1.011
    1STR    C05 9348  17.371  17.296   1.096
    1STR    C06 9349  17.374  17.316   1.237
    1STR    C07 9350  17.328  17.216   1.328
    1STR    N08 9351  17.329  17.242   1.466
    1STR    C09 9352  17.295  17.163   1.570
    1STR    O0A 9353  17.259  17.046   1.560
    1STR    O0B 9354  17.305  17.229   1.688
    1STR    C0C 9355  17.280  17.158   1.811
    1STR    C0D 9356  17.405  17.079   1.851
    1STR    C0E 9357  17.235  17.255   1.923
    1STR    O0F 9358  17.208  17.179   2.041
    1STR    C0G 9359  17.165  17.255   2.155
    1STR    C0H 9360  17.015  17.288   2.141
    1STR    C0I 9361  17.191  17.172   2.282
    1STR    O0J 9362  17.162  17.251   2.397
    1STR    C0K 9363  17.176  17.186   2.524
    1STR    C0M 9364  17.325  17.172   2.560
    1STR    C0N 9365  17.102  17.272   2.628
    1STR    O0O 9366  17.094  17.207   2.754
    1STR    C0P 9367  17.171  17.246   2.858
    1STR    O0Q 9368  17.257  17.333   2.854
    1STR    N0R 9369  17.136  17.175   2.965
    1STR    C0S 9370  17.184  17.173   3.096
    1STR    C0T 9371  17.120  17.083   3.184
    1STR    C0U 9372  17.166  17.068   3.316
    1STR    C0V 9373  17.276  17.142   3.363
    1STR    C0W 9374  17.329  17.109   3.502
    1STR    C0X 9375  17.338  17.237   3.279
    1STR    N0Y 9376   0.010  17.309   3.320
    1STR   BCK2 9377   0.025  17.386   3.429
    1STR    O10 9378  17.377  17.410   3.511
    1STR    C13 9379  17.292  17.250   3.145
    1STR    C14 9380  17.280  17.095   1.273
    1STR    C15 9381  17.275  17.075   1.134
    1STR    C16 9382  17.317  17.175   1.045
    1STR    C17 9383  17.298  17.151   0.896
    1STR    H1B 9384  17.370   0.051   1.026
    1STR    H1C 9385  17.412  17.409   1.275
    1STR    H1D 9386  17.359  17.333   1.497
    1STR    H1E 9387  17.197  17.088   1.795
    1STR    H1F 9388   0.050  17.145   1.869
    1STR    H1G 9389  17.387  17.021   1.942
    1STR    H1H 9390  17.433  17.008   1.773
    1STR    H1I 9391  17.147  17.309   1.890
    1STR    H1J 9392  17.313  17.328   1.942
    1STR    H1K 9393  17.223  17.347   2.163
    1STR    H1M 9394  16.956  17.197   2.128
    1STR    H1N 9395  16.995  17.353   2.056
    1STR    H1O 9396  16.979  17.339   2.229
    1STR    H1P 9397  17.131  17.081   2.281
    1STR    H1Q 9398  17.296  17.141   2.283
    1STR    H1R 9399  17.129  17.087   2.521
    1STR    H1S 9400  17.337  17.126   2.658
    1STR    H1T 9401  17.374  17.269   2.563
    1STR    H1U 9402  17.380  17.109   2.489
    1STR    H1V 9403  17.000  17.288   2.594
    1STR    H1W 9404  17.147  17.371   2.636
    1STR    H1X 9405  17.062  17.111   2.942
    1STR    H1Y 9406  17.037  17.023   3.152
    1STR    H1Z 9407  17.117  16.997   3.381
    1STR    H20 9408  17.437  17.097   3.498
    1STR    H21 9409  17.304  17.187   3.573
    1STR    H22 9410  17.287  17.016   3.541
    1STR    H23 9411   0.090  17.308   3.259
    1STR    H27 9412  17.342  17.321   3.080
    1STR    H28 9413  17.244  17.014   1.334
    1STR    H29 9414  17.235  16.982   1.096
    1STR    H2A 9415  17.272  17.243   0.844
    1STR    H2B 9416  17.217  17.080   0.878
    1STR    H2C 9417  17.389  17.110   0.853
    1STR   BCK1 9418   0.086   0.062   5.264
    1STR    O03 9419   0.092   0.184   5.247
    1STR    N04 9420   0.143  17.439   5.366
    1STR    C05 9421   0.225   0.057   5.462
    1STR    C06 9422   0.194   0.044   5.600
    1STR    C07 9423   0.278   0.100   5.700
    1STR    N08 9424   0.247   0.079   5.836
    1STR    C09 9425   0.320   0.107   5.945
    1STR    O0A 9426   0.431   0.158   5.944
    1STR    O0B 9427   0.256   0.070   6.058
    1STR    C0C 9428   0.313   0.103   6.185
    1STR    C0D 9429   0.269   0.245   6.225
    1STR    C0E 9430   0.276  17.439   6.293
    1STR    O0F 9431   0.346   0.034   6.412
    1STR    C0G 9432   0.328  17.387   6.523
    1STR    C0H 9433   0.416  17.262   6.506
    1STR    C0I 9434   0.366   0.026   6.650
    1STR    O0J 9435   0.338  17.386   6.765
    1STR    C0K 9436   0.374   0.004   6.890
    1STR    C0M 9437   0.272   0.111   6.930
    1STR    C0N 9438   0.379  17.328   6.992
    1STR    O0O 9439   0.433  17.372   7.116
    1STR    C0P 9440   0.354  17.393   7.222
    1STR    O0Q 9441   0.232  17.378   7.224
    1STR    N0R 9442   0.428  17.434   7.324
    1STR    C0S 9443   0.393   0.033   7.453
    1STR    C0T 9444   0.488   0.110   7.525
    1STR    C0U 9445   0.458   0.158   7.654
    1STR    C0V 9446   0.335   0.129   7.715
    1STR    C0W 9447   0.305   0.187   7.852
    1STR    C0X 9448   0.241   0.047   7.647
    1STR    N0Y 9449   0.121   0.016   7.709
    1STR   BCK2 9450   0.100  17.367   7.806
    1STR    O10 9451   0.002  17.378   7.878
    1STR    C13 9452   0.270   0.001   7.516
    1STR    C14 9453   0.391   0.173   5.658
    1STR    C15 9454   0.424   0.184   5.522
    1STR    C16 9455   0.344   0.124   5.424
    1STR    C17 9456   0.390   0.130   5.279
    1STR    H1B 9457   0.133  17.339   5.367
    1STR    H1C 9458   0.105  17.430   5.628
    1STR    H1D 9459   0.159   0.037   5.858
    1STR    H1E 9460   0.422   0.100   6.177
    1STR    H1F 9461   0.161   0.251   6.236
    1STR    H1G 9462   0.315   0.275   6.319
    1STR    H1H 9463   0.300   0.317   6.149
    1STR    H1I 9464   0.305  17.340   6.258
    1STR    H1J 9465   0.168  17.438   6.310
    1STR    H1K 9466   0.223  17.358   6.532
    1STR    H1M 9467   0.521  17.290   6.493
    1STR    H1N 9468   0.386  17.202   6.421
    1STR    H1O 9469   0.410  17.198   6.594
    1STR    H1P 9470   0.472   0.053   6.646
    1STR    H1Q 9471   0.309   0.118   6.653
    1STR    H1R 9472   0.474   0.047   6.884
    1STR    H1S 9473   0.295   0.153   7.028
    1STR    H1T 9474   0.172   0.070   6.936
    1STR    H1U 9475   0.270   0.195   6.861
    1STR    H1V 9476   0.443  17.249   6.954
    1STR    H1W 9477   0.280  17.283   7.004
    1STR    H1X 9478   0.525   0.000   7.298
    1STR    H1Y 9479   0.583   0.135   7.481
    1STR    H1Z 9480   0.531   0.218   7.706
    1STR    H20 9481   0.198   0.203   7.866
    1STR    H21 9482   0.341   0.121   7.930
    1STR    H22 9483   0.354   0.284   7.864
    1STR    H23 9484   0.039   0.070   7.685
    1STR    H27 9485   0.197  17.380   7.465
    1STR    H28 9486   0.457   0.222   5.727
    1STR    H29 9487   0.513   0.239   5.493
    1STR    H2A 9488   0.364   0.039   5.225
    1STR    H2B 9489   0.498   0.141   5.273
    1STR    H2C 9490   0.345   0.215   5.228
    1STR   BCK1 9491   0.011   0.067   9.614
    1STR    O03 9492  17.399  17.403   9.574
    1STR    N04 9493  17.418   0.133   9.726
    1STR    C05 9494  17.309   0.114   9.812
    1STR    C06 9495  17.330   0.111   9.953
    1STR    C07 9496  17.222   0.106  10.045
    1STR    N08 9497  17.246   0.108  10.184
    1STR    C09 9498  17.163   0.136  10.286
    1STR    O0A 9499  17.045   0.168  10.273
    1STR    O0B 9500  17.225   0.126  10.407
    1STR    C0C 9501  17.149   0.143  10.529
    1STR    C0D 9502  17.080   0.010  10.564
    1STR    C0E 9503  17.238   0.192  10.645
    1STR    O0F 9504  17.160   0.209  10.764
    1STR    C0G 9505  17.230   0.259  10.879
    1STR    C0H 9506  17.250   0.410  10.865
    1STR    C0I 9507  17.150   0.225  11.007
    1STR    O0J 9508  17.224   0.263  11.123
    1STR    C0K 9509  17.161   0.241  11.250
    1STR    C0M 9510  17.163   0.091  11.284
    1STR    C0N 9511  17.238   0.322  11.356
    1STR    O0O 9512  17.174   0.318  11.483
    1STR    C0P 9513  17.231   0.253  11.587
    1STR    O0Q 9514  17.335   0.188  11.582
    1STR    N0R 9515  17.155   0.270  11.696
    1STR    C0S 9516  17.167   0.222  11.827
    1STR    C0T 9517  17.060   0.250  11.915
    1STR    C0U 9518  17.060   0.200  12.047
    1STR    C0V 9519  17.167   0.121  12.094
    1STR    C0W 9520  17.155   0.060  12.233
    1STR    C0X 9521  17.279   0.097  12.010
    1STR    N0Y 9522  17.386   0.017  12.050
    1STR   BCK2 9523   0.020   0.024  12.161
    1STR    O10 9524   0.009   0.111  12.247
    1STR    C13 9525  17.276   0.146  11.877
    1STR    C14 9526  17.091   0.100   9.992
    1STR    C15 9527  17.069   0.103   9.854
    1STR    C16 9528  17.176   0.112   9.763
    1STR    C17 9529  17.144   0.128   9.615
    1STR    H1B 9530   0.039   0.209   9.747
    1STR    H1C 9531  17.431   0.114   9.990
    1STR    H1D 9532  17.339   0.088  10.216
    1STR    H1E 9533  17.072   0.219  10.513
    1STR    H1F 9534  17.152  17.370  10.581
    1STR    H1G 9535  17.019   0.020  10.654
    1STR    H1H 9536  17.013  17.418  10.484
    1STR    H1I 9537  17.285   0.285  10.616
    1STR    H1J 9538  17.318   0.120  10.663
    1STR    H1K 9539  17.327   0.209  10.887
    1STR    H1M 9540  17.155   0.462  10.852
    1STR    H1N 9541  17.314   0.437  10.781
    1STR    H1O 9542  17.297   0.451  10.955
    1STR    H1P 9543  17.053   0.276  11.005
    1STR    H1Q 9544  17.129   0.118  11.008
    1STR    H1R 9545  17.058   0.277  11.247
    1STR    H1S 9546  17.120   0.074  11.383
    1STR    H1T 9547  17.265   0.052  11.286
    1STR    H1U 9548  17.105   0.031  11.214
    1STR    H1V 9549  17.242   0.427  11.325
    1STR    H1W 9550  17.342   0.290  11.361
    1STR    H1X 9551  17.076   0.328  11.675
    1STR    H1Y 9552  16.975   0.308  11.883
    1STR    H1Z 9553  16.976   0.220  12.111
    1STR    H20 9554  17.204  17.403  12.238
    1STR    H21 9555  17.202   0.125  12.307
    1STR    H22 9556  17.051   0.045  12.261
    1STR    H23 9557  17.417  17.388  11.984
    1STR    H27 9558  17.360   0.125  11.812
    1STR    H28 9559  17.004   0.094  10.056
    1STR    H29 9560  16.967   0.102   9.817
    1STR    H2A 9561  17.212   0.197   9.567
    1STR    H2B 9562  17.043   0.166   9.601
    1STR    H2C 9563  17.151   0.031   9.565
    1STR   BCK1 9564   0.130  17.437  13.993
    1STR    O03 9565   0.251  17.421  13.979
    1STR    N04 9566   0.057  17.376  14.088
    1STR    C05 9567   0.101  17.279  14.178
    1STR    C06 9568   0.085  17.299  14.317
    1STR    C07 9569   0.122  17.198  14.411
    1STR    N08 9570   0.102  17.220  14.548
    1STR    C09 9571   0.145  17.150  14.654
    1STR    O0A 9572   0.220  17.053  14.648
    1STR    O0B 9573   0.096  17.199  14.769
    1STR    C0C 9574   0.133  17.138  14.894
    1STR    C0D 9575   0.270  17.193  14.937
    1STR    C0E 9576   0.026  17.163  15.001
    1STR    O0F 9577   0.065  17.097  15.121
    1STR    C0G 9578  17.416  17.111  15.232
    1STR    C0H 9579  17.300  17.011  15.217
    1STR    C0I 9580   0.057  17.084  15.360
    1STR    O0J 9581  17.416  17.113  15.474
    1STR    C0K 9582   0.035  17.084  15.601
    1STR    C0M 9583   0.141  17.189  15.636
    1STR    C0N 9584  17.362  17.082  15.705
    1STR    O0O 9585  17.411  17.029  15.827
    1STR    C0P 9586  17.427  17.105  15.937
    1STR    O0Q 9587  17.400  17.224  15.947
    1STR    N0R 9588   0.038  17.027  16.032
    1STR    C0S 9589   0.073  17.049  16.165
    1STR    C0T 9590   0.127  16.938  16.233
    1STR    C0U 9591   0.158  16.945  16.369
    1STR    C0V 9592   0.137  17.064  16.441
    1STR    C0W 9593   0.160  17.056  16.591
    1STR    C0X 9594   0.087  17.180  16.375
    1STR    N0Y 9595   0.052  17.296  16.445
    1STR   BCK2 9596   0.110  17.369  16.542
    1STR    O10 9597   0.046   0.017  16.597
    1STR    C13 9598   0.055  17.170  16.237
    1STR    C14 9599   0.175  17.077  14.360
    1STR    C15 9600   0.189  17.056  14.222
    1STR    C16 9601   0.150  17.155  14.130
    1STR    C17 9602   0.159  17.124  13.982
    1STR    H1B 9603  17.399  17.399  14.087
    1STR    H1C 9604   0.045  17.393  14.352
    1STR    H1D 9605   0.047  17.300  14.576
    1STR    H1E 9606   0.141  17.030  14.880
    1STR    H1F 9607   0.267  17.300  14.953
    1STR    H1G 9608   0.303  17.146  15.030
    1STR    H1H 9609   0.346  17.172  14.862
    1STR    H1I 9610  17.370  17.125  14.966
    1STR    H1J 9611   0.013  17.270  15.018
    1STR    H1K 9612  17.378  17.213  15.237
    1STR    H1M 9613  17.336  16.909  15.207
    1STR    H1N 9614  17.238  17.033  15.130
    1STR    H1O 9615  17.235  17.015  15.305
    1STR    H1P 9616   0.091  16.980  15.362
    1STR    H1Q 9617   0.146  17.147  15.360
    1STR    H1R 9618   0.080  16.985  15.598
    1STR    H1S 9619   0.183  17.171  15.735
    1STR    H1T 9620   0.098  17.289  15.638
    1STR    H1U 9621   0.224  17.190  15.566
    1STR    H1V 9622  17.281  17.017  15.671
    1STR    H1W 9623  17.318  17.181  15.718
    1STR    H1X 9624   0.051  16.934  15.996
    1STR    H1Y 9625   0.142  16.844  16.182
    1STR    H1Z 9626   0.196  16.858  16.419
    1STR    H20 9627   0.265  17.078  16.611
    1STR    H21 9628   0.096  17.125  16.645
    1STR    H22 9629   0.139  16.957  16.629
    1STR    H23 9630  17.403  17.336  16.420
    1STR    H27 9631   0.014  17.256  16.186
    1STR    H28 9632   0.205  16.996  14.424
    1STR    H29 9633   0.229  16.962  14.187
    1STR    H2A 9634   0.074  17.165  13.928
    1STR    H2B 9635   0.160  17.016  13.964
    1STR    H2C 9636   0.250  17.166  13.940
    1STR   BCK1 9637   0.081   4.420   0.881
    1STR    O03 9638  17.433   4.487   0.828
    1STR    N04 9639   0.134   4.444   1.002
    1STR    C05 9640   0.109   4.548   1.092
    1STR    C06 9641   0.103   4.518   1.231
    1STR    C07 9642   0.090   4.620   1.330
    1STR    N08 9643   0.091   4.586   1.467
    1STR    C09 9644   0.114   4.665   1.573
    1STR    O0A 9645   0.141   4.785   1.566
    1STR    O0B 9646   0.105   4.597   1.690
    1STR    C0C 9647   0.114   4.668   1.814
    1STR    C0D 9648  17.415   4.721   1.851
    1STR    C0E 9649   0.172   4.579   1.926
    1STR    O0F 9650   0.185   4.657   2.045
    1STR    C0G 9651   0.241   4.591   2.158
    1STR    C0H 9652   0.394   4.584   2.143
    1STR    C0I 9653   0.202   4.671   2.284
    1STR    O0J 9654   0.250   4.604   2.400
    1STR    C0K 9655   0.224   4.669   2.525
    1STR    C0M 9656   0.077   4.646   2.566
    1STR    C0N 9657   0.322   4.608   2.627
    1STR    O0O 9658   0.316   4.676   2.753
    1STR    C0P 9659   0.255   4.619   2.858
    1STR    O0Q 9660   0.194   4.513   2.854
    1STR    N0R 9661   0.270   4.696   2.966
    1STR    C0S 9662   0.224   4.680   3.097
    1STR    C0T 9663   0.235   4.789   3.185
    1STR    C0U 9664   0.186   4.781   3.317
    1STR    C0V 9665   0.125   4.663   3.364
    1STR    C0W 9666   0.064   4.664   3.503
    1STR    C0X 9667   0.118   4.550   3.279
    1STR    N0Y 9668   0.054   4.432   3.317
    1STR   BCK2 9669   0.077   4.347   3.417
    1STR    O10 9670   0.010   4.245   3.425
    1STR    C13 9671   0.167   4.560   3.147
    1STR    C14 9672   0.076   4.753   1.285
    1STR    C15 9673   0.085   4.785   1.149
    1STR    C16 9674   0.105   4.684   1.052
    1STR    C17 9675   0.130   4.730   0.909
    1STR    H1B 9676   0.204   4.378   1.028
    1STR    H1C 9677   0.110   4.415   1.262
    1STR    H1D 9678   0.075   4.491   1.493
    1STR    H1E 9679   0.183   4.752   1.803
    1STR    H1F 9680  17.344   4.640   1.865
    1STR    H1G 9681  17.419   4.779   1.944
    1STR    H1H 9682  17.377   4.787   1.773
    1STR    H1I 9683   0.269   4.540   1.894
    1STR    H1J 9684   0.108   4.492   1.944
    1STR    H1K 9685   0.199   4.491   2.168
    1STR    H1M 9686   0.437   4.683   2.130
    1STR    H1N 9687   0.424   4.522   2.059
    1STR    H1O 9688   0.439   4.541   2.232
    1STR    H1P 9689   0.242   4.772   2.278
    1STR    H1Q 9690   0.093   4.681   2.287
    1STR    H1R 9691   0.245   4.776   2.517
    1STR    H1S 9692   0.057   4.690   2.664
    1STR    H1T 9693   0.054   4.540   2.574
    1STR    H1U 9694   0.007   4.691   2.496
    1STR    H1V 9695   0.424   4.618   2.590
    1STR    H1W 9696   0.305   4.501   2.638
    1STR    H1X 9697   0.322   4.779   2.944
    1STR    H1Y 9698   0.279   4.882   3.152
    1STR    H1Z 9699   0.193   4.868   3.381
    1STR    H20 9700  17.419   4.596   3.509
    1STR    H21 9701   0.137   4.634   3.577
    1STR    H22 9702   0.027   4.763   3.530
    1STR    H23 9703  17.423   4.397   3.254
    1STR    H27 9704   0.159   4.473   3.084
    1STR    H28 9705   0.062   4.835   1.354
    1STR    H29 9706   0.079   4.888   1.119
    1STR    H2A 9707   0.199   4.663   0.858
    1STR    H2B 9708   0.174   4.829   0.907
    1STR    H2C 9709   0.036   4.734   0.854
    1STR   BCK1 9710   0.011   4.345   5.266
    1STR    O03 9711   0.031   4.230   5.229
    1STR    N04 9712  17.378   4.380   5.372
    1STR    C05 9713  17.299   4.300   5.456
    1STR    C06 9714  17.311   4.313   5.597
    1STR    C07 9715  17.228   4.241   5.687
    1STR    N08 9716  17.241   4.261   5.826
    1STR    C09 9717  17.168   4.214   5.929
    1STR    O0A 9718  17.072   4.138   5.917
    1STR    O0B 9719  17.213   4.260   6.048
    1STR    C0C 9720  17.152   4.212   6.170
    1STR    C0D 9721  17.215   4.077   6.208
    1STR    C0E 9722  17.168   4.315   6.284
    1STR    O0F 9723  17.104   4.265   6.403
    1STR    C0G 9724  17.108   4.351   6.517
    1STR    C0H 9725  17.000   4.459   6.503
    1STR    C0I 9726  17.085   4.267   6.644
    1STR    O0J 9727  17.101   4.349   6.760
    1STR    C0K 9728  17.080   4.285   6.886
    1STR    C0M 9729  17.199   4.195   6.921
    1STR    C0N 9730  17.062   4.397   6.991
    1STR    O0O 9731  17.025   4.344   7.119
    1STR    C0P 9732  17.113   4.342   7.221
    1STR    O0Q 9733  17.231   4.375   7.214
    1STR    N0R 9734  17.051   4.297   7.330
    1STR    C0S 9735  17.096   4.273   7.461
    1STR    C0T 9736  17.003   4.218   7.551
    1STR    C0U 9737  17.041   4.185   7.682
    1STR    C0V 9738  17.173   4.206   7.727
    1STR    C0W 9739  17.210   4.154   7.865
    1STR    C0X 9740  17.266   4.269   7.640
    1STR    N0Y 9741  17.399   4.291   7.677
    1STR   BCK2 9742   0.007   4.351   7.787
    1STR    O10 9743  17.380   4.396   7.879
    1STR    C13 9744  17.227   4.299   7.507
    1STR    C14 9745  17.135   4.151   5.631
    1STR    C15 9746  17.121   4.138   5.492
    1STR    C16 9747  17.200   4.213   5.404
    1STR    C17 9748  17.171   4.202   5.255
    1STR    H1B 9749  17.381   4.479   5.393
    1STR    H1C 9750  17.385   4.381   5.636
    1STR    H1D 9751  17.315   4.321   5.858
    1STR    H1E 9752  17.045   4.198   6.154
    1STR    H1F 9753  17.322   4.086   6.226
    1STR    H1G 9754  17.169   4.037   6.298
    1STR    H1H 9755  17.201   4.004   6.129
    1STR    H1I 9756  17.122   4.409   6.253
    1STR    H1J 9757  17.273   4.335   6.303
    1STR    H1K 9758  17.207   4.398   6.525
    1STR    H1M 9759  16.901   4.415   6.490
    1STR    H1N 9760  17.018   4.526   6.418
    1STR    H1O 9761  16.996   4.522   6.592
    1STR    H1P 9762  16.986   4.222   6.642
    1STR    H1Q 9763  17.157   4.185   6.645
    1STR    H1R 9764  16.988   4.226   6.883
    1STR    H1S 9765  17.186   4.150   7.020
    1STR    H1T 9766  17.292   4.252   6.924
    1STR    H1U 9767  17.212   4.113   6.851
    1STR    H1V 9768  16.982   4.463   6.960
    1STR    H1W 9769  17.151   4.459   6.997
    1STR    H1X 9770  16.955   4.277   7.310
    1STR    H1Y 9771  16.901   4.199   7.521
    1STR    H1Z 9772  16.969   4.140   7.749
    1STR    H20 9773  17.311   4.113   7.864
    1STR    H21 9774  17.206   4.234   7.939
    1STR    H22 9775  17.143   4.075   7.898
    1STR    H23 9776   0.030   4.265   7.611
    1STR    H27 9777  17.300   4.344   7.441
    1STR    H28 9778  17.069   4.091   5.692
    1STR    H29 9779  17.046   4.070   5.454
    1STR    H2A 9780  17.186   4.297   5.205
    1STR    H2B 9781  17.069   4.171   5.237
    1STR    H2C 9782  17.237   4.128   5.210
    1STR   BCK1 9783   0.113   4.424   9.631
    1STR    O03 9784   0.198   4.512   9.618
    1STR    N04 9785   0.116   4.332   9.728
    1STR    C05 9786   0.217   4.315   9.822
    1STR    C06 9787   0.187   4.320   9.960
    1STR    C07 9788   0.287   4.298  10.058
    1STR    N08 9789   0.252   4.298  10.194
    1STR    C09 9790   0.330   4.293  10.303
    1STR    O0A 9791   0.452   4.295  10.302
    1STR    O0B 9792   0.256   4.286  10.416
    1STR    C0C 9793   0.322   4.282  10.543
    1STR    C0D 9794   0.359   4.425  10.585
    1STR    C0E 9795   0.235   4.212  10.648
    1STR    O0F 9796   0.312   4.203  10.769
    1STR    C0G 9797   0.248   4.139  10.878
    1STR    C0H 9798   0.255   3.986  10.861
    1STR    C0I 9799   0.321   4.184  11.006
    1STR    O0J 9800   0.253   4.131  11.120
    1STR    C0K 9801   0.314   4.156  11.246
    1STR    C0M 9802   0.289   4.301  11.289
    1STR    C0N 9803   0.252   4.055  11.345
    1STR    O0O 9804   0.323   4.056  11.469
    1STR    C0P 9805   0.274   4.120  11.575
    1STR    O0Q 9806   0.167   4.180  11.579
    1STR    N0R 9807   0.363   4.114  11.674
    1STR    C0S 9808   0.362   4.175  11.799
    1STR    C0T 9809   0.487   4.203  11.858
    1STR    C0U 9810   0.495   4.273  11.979
    1STR    C0V 9811   0.378   4.315  12.045
    1STR    C0W 9812   0.393   4.401  12.169
    1STR    C0X 9813   0.251   4.278  11.993
    1STR    N0Y 9814   0.134   4.315  12.060
    1STR   BCK2 9815   0.086   4.265  12.174
    1STR    O10 9816   0.007   4.333  12.240
    1STR    C13 9817   0.244   4.211  11.869
    1STR    C14 9818   0.419   4.273  10.013
    1STR    C15 9819   0.449   4.267   9.876
    1STR    C16 9820   0.349   4.285   9.780
    1STR    C17 9821   0.385   4.267   9.634
    1STR    H1B 9822   0.042   4.264   9.724
    1STR    H1C 9823   0.085   4.340   9.990
    1STR    H1D 9824   0.154   4.303  10.218
    1STR    H1E 9825   0.414   4.223  10.533
    1STR    H1F 9826   0.271   4.488  10.597
    1STR    H1G 9827   0.414   4.425  10.680
    1STR    H1H 9828   0.424   4.473  10.511
    1STR    H1I 9829   0.208   4.113  10.612
    1STR    H1J 9830   0.143   4.268  10.665
    1STR    H1K 9831   0.144   4.171  10.886
    1STR    H1M 9832   0.358   3.953  10.849
    1STR    H1N 9833   0.199   3.952  10.774
    1STR    H1O 9834   0.214   3.935  10.948
    1STR    H1P 9835   0.425   4.150  11.004
    1STR    H1Q 9836   0.322   4.293  11.010
    1STR    H1R 9837   0.421   4.136  11.240
    1STR    H1S 9838   0.332   4.321  11.387
    1STR    H1T 9839   0.183   4.323  11.295
    1STR    H1U 9840   0.334   4.373  11.220
    1STR    H1V 9841   0.260   3.955  11.304
    1STR    H1W 9842   0.145   4.074  11.359
    1STR    H1X 9843   0.444   4.062  11.647
    1STR    H1Y 9844   0.579   4.175  11.808
    1STR    H1Z 9845   0.591   4.298  12.020
    1STR    H20 9846   0.299   4.448  12.199
    1STR    H21 9847   0.430   4.342  12.252
    1STR    H22 9848   0.464   4.482  12.150
    1STR    H23 9849   0.079   4.389  12.021
    1STR    H27 9850   0.147   4.188  11.827
    1STR    H28 9851   0.500   4.256  10.081
    1STR    H29 9852   0.551   4.246   9.846
    1STR    H2A 9853   0.305   4.220   9.578
    1STR    H2B 9854   0.474   4.205   9.622
    1STR    H2C 9855   0.406   4.364   9.588
    1STR   BCK1 9856   0.058   4.458  13.966
    1STR    O03 9857  17.409   4.386  13.923
    1STR    N04 9858   0.054   4.524  14.083
    1STR    C05 9859  17.388   4.549  14.171
    1STR    C06 9860  17.406   4.532  14.311
    1STR    C07 9861  17.309   4.575  14.406
    1STR    N08 9862  17.333   4.562  14.544
    1STR    C09 9863  17.277   4.628  14.647
    1STR    O0A 9864  17.193   4.717  14.635
    1STR    O0B 9865  17.324   4.586  14.768
    1STR    C0C 9866  17.269   4.639  14.890
    1STR    C0D 9867  17.140   4.563  14.925
    1STR    C0E 9868  17.372   4.632  15.006
    1STR    O0F 9869  17.316   4.688  15.125
    1STR    C0G 9870  17.402   4.692  15.240
    1STR    C0H 9871   0.061   4.809  15.226
    1STR    C0I 9872  17.316   4.707  15.367
    1STR    O0J 9873  17.399   4.700  15.484
    1STR    C0K 9874  17.334   4.715  15.610
    1STR    C0M 9875  17.257   4.588  15.646
    1STR    C0N 9876   0.003   4.745  15.716
    1STR    O0O 9877  17.386   4.776  15.843
    1STR    C0P 9878  17.401   4.693  15.948
    1STR    O0Q 9879   0.017   4.584  15.945
    1STR    N0R 9880  17.345   4.749  16.056
    1STR    C0S 9881  17.331   4.703  16.188
    1STR    C0T 9882  17.249   4.779  16.274
    1STR    C0U 9883  17.225   4.738  16.406
    1STR    C0V 9884  17.283   4.621  16.457
    1STR    C0W 9885  17.246   4.575  16.597
    1STR    C0X 9886  17.371   4.546  16.375
    1STR    N0Y 9887  17.427   4.426  16.419
    1STR   BCK2 9888   0.062   4.405  16.528
    1STR    O10 9889   0.107   4.493  16.601
    1STR    C13 9890  17.392   4.587  16.241
    1STR    C14 9891  17.189   4.630  14.356
    1STR    C15 9892  17.169   4.647  14.218
    1STR    C16 9893  17.268   4.609  14.125
    1STR    C17 9894  17.245   4.641  13.978
    1STR    H1B 9895   0.142   4.568  14.106
    1STR    H1C 9896   0.059   4.489  14.346
    1STR    H1D 9897  17.402   4.496  14.575
    1STR    H1E 9898  17.245   4.744  14.875
    1STR    H1F 9899  17.160   4.457  14.941
    1STR    H1G 9900  17.095   4.603  15.016
    1STR    H1H 9901  17.066   4.572  14.845
    1STR    H1I 9902   0.022   4.686  14.976
    1STR    H1J 9903  17.401   4.528  15.023
    1STR    H1K 9904   0.016   4.597  15.248
    1STR    H1M 9905   0.008   4.903  15.213
    1STR    H1N 9906   0.128   4.796  15.142
    1STR    H1O 9907   0.122   4.818  15.315
    1STR    H1P 9908  17.262   4.802  15.365
    1STR    H1Q 9909  17.241   4.628  15.369
    1STR    H1R 9910  17.266   4.801  15.606
    1STR    H1S 9911  17.212   4.596  15.745
    1STR    H1T 9912  17.323   4.501  15.648
    1STR    H1U 9913  17.176   4.567  15.576
    1STR    H1V 9914   0.062   4.831  15.684
    1STR    H1W 9915   0.074   4.662  15.722
    1STR    H1X 9916  17.306   4.838  16.034
    1STR    H1Y 9917  17.200   4.869  16.239
    1STR    H1Z 9918  17.159   4.797  16.469
    1STR    H20 9919  17.239   4.466  16.602
    1STR    H21 9920  17.321   4.608  16.669
    1STR    H22 9921  17.149   4.615  16.628
    1STR    H23 9922  17.414   4.345  16.362
    1STR    H27 9923   0.018   4.528  16.178
    1STR    H28 9924  17.110   4.663  14.422
    1STR    H29 9925  17.078   4.693  14.184
    1STR    H2A 9926  17.336   4.678  13.931
    1STR    H2B 9927  17.169   4.719  13.966
    1STR    H2C 9928  17.211   4.552  13.925
    1STR   BCK1 9929   0.091   8.678   0.913
    1STR    O03 9930   0.186   8.604   0.890
    1STR    N04 9931   0.002   8.660   1.011
    1STR    C05 9932  17.433   8.551   1.098
    1STR    C06 9933  17.429   8.572   1.238
    1STR    C07 9934  17.413   8.464   1.329
    1STR    N08 9935  17.406   8.490   1.468
    1STR    C09 9936  17.402   8.405   1.572
    1STR    O0A 9937  17.411   8.283   1.563
    1STR    O0B 9938  17.389   8.471   1.689
    1STR    C0C 9939  17.388   8.397   1.812
    1STR    C0D 9940   0.093   8.367   1.854
    1STR    C0E 9941  17.312   8.474   1.922
    1STR    O0F 9942  17.311   8.395   2.042
    1STR    C0G 9943  17.245   8.452   2.154
    1STR    C0H 9944  17.093   8.432   2.139
    1STR    C0I 9945  17.298   8.384   2.281
    1STR    O0J 9946  17.244   8.450   2.396
    1STR    C0K 9947  17.279   8.394   2.523
    1STR    C0M 9948  17.424   8.429   2.559
    1STR    C0N 9949  17.180   8.451   2.626
    1STR    O0O 9950  17.191   8.384   2.751
    1STR    C0P 9951  17.250   8.443   2.856
    1STR    O0Q 9952  17.305   8.553   2.856
    1STR    N0R 9953  17.239   8.362   2.962
    1STR    C0S 9954  17.282   8.371   3.094
    1STR    C0T 9955  17.245   8.265   3.179
    1STR    C0U 9956  17.290   8.260   3.312
    1STR    C0V 9957  17.374   8.360   3.363
    1STR    C0W 9958  17.431   8.340   3.502
    1STR    C0X 9959  17.408   8.472   3.282
    1STR    N0Y 9960   0.056   8.570   3.327
    1STR   BCK2 9961   0.048   8.645   3.438
    1STR    O10 9962  17.394   8.643   3.517
    1STR    C13 9963  17.363   8.475   3.147
    1STR    C14 9964  17.402   8.334   1.275
    1STR    C15 9965  17.403   8.312   1.137
    1STR    C16 9966  17.417   8.419   1.047
    1STR    C17 9967  17.408   8.390   0.898
    1STR    H1B 9968  17.374   8.733   1.020
    1STR    H1C 9969  -0.000   8.672   1.276
    1STR    H1D 9970  17.403   8.586   1.497
    1STR    H1E 9971  17.335   8.303   1.797
    1STR    H1F 9972   0.149   8.459   1.871
    1STR    H1G 9973   0.096   8.308   1.946
    1STR    H1H 9974   0.145   8.310   1.777
    1STR    H1I 9975  17.211   8.494   1.889
    1STR    H1J 9976  17.360   8.570   1.941
    1STR    H1K 9977  17.268   8.559   2.161
    1STR    H1M 9978  17.068   8.326   2.128
    1STR    H1N 9979  17.052   8.485   2.054
    1STR    H1O 9980  17.041   8.468   2.228
    1STR    H1P 9981  17.272   8.278   2.281
    1STR    H1Q 9982  17.407   8.390   2.282
    1STR    H1R 9983  17.266   8.285   2.520
    1STR    H1S 9984   0.010   8.391   2.658
    1STR    H1T 9985  17.438   8.537   2.562
    1STR    H1U 9986   0.056   8.388   2.489
    1STR    H1V 9987  17.078   8.435   2.591
    1STR    H1W 9988  17.191   8.559   2.636
    1STR    H1X 9989  17.188   8.280   2.936
    1STR    H1Y 9990  17.182   8.185   3.143
    1STR    H1Z 9991  17.262   8.176   3.374
    1STR    H20 9992   0.099   8.356   3.499
    1STR    H21 9993  17.387   8.408   3.574
    1STR    H22 9994  17.414   8.239   3.539
    1STR    H23 9995   0.135   8.592   3.268
    1STR    H27 9996  17.392   8.558   3.084
    1STR    H28 9997  17.389   8.247   1.338
    1STR    H29 9998  17.392   8.211   1.099
    1STR    H2A 9999  17.356   8.470   0.845
    1STR    H2B10000  17.353   8.298   0.879
    1STR    H2C10001   0.068   8.379   0.856
    1STR   BCK110002   0.085   8.769   5.254
    1STR    O0310003   0.039   8.878   5.223
    1STR    N0410004   0.154   8.746   5.366
    1STR    C0510005   0.196   8.840   5.460
    1STR    C0610006   0.172   8.816   5.598
    1STR    C0710007   0.222   8.904   5.697
    1STR    N0810008   0.202   8.874   5.833
    1STR    C0910009   0.264   8.924   5.941
    1STR    O0A10010   0.353   9.009   5.937
    1STR    O0B10011   0.216   8.870   6.055
    1STR    C0C10012   0.261   8.922   6.181
    1STR    C0D10013   0.171   9.041   6.220
    1STR    C0E10014   0.261   8.813   6.289
    1STR    O0F10015   0.315   8.871   6.408
    1STR    C0G10016   0.327   8.784   6.520
    1STR    C0H10017   0.452   8.696   6.504
    1STR    C0I10018   0.337   8.872   6.646
    1STR    O0J10019   0.341   8.790   6.762
    1STR    C0K10020   0.355   8.859   6.886
    1STR    C0M10021   0.220   8.919   6.927
    1STR    C0N10022   0.405   8.755   6.988
    1STR    O0O10023   0.440   8.817   7.111
    1STR    C0P10024   0.358   8.808   7.217
    1STR    O0Q10025   0.249   8.752   7.217
    1STR    N0R10026   0.413   8.871   7.321
    1STR    C0S10027   0.366   8.891   7.451
    1STR    C0T10028   0.429   8.989   7.530
    1STR    C0U10029   0.383   9.017   7.660
    1STR    C0V10030   0.275   8.946   7.715
    1STR    C0W10031   0.224   8.984   7.853
    1STR    C0X10032   0.214   8.842   7.640
    1STR    N0Y10033   0.107   8.769   7.690
    1STR   BCK210034   0.106   8.684   7.793
    1STR    O1010035   0.002   8.627   7.825
    1STR    C1310036   0.259   8.817   7.508
    1STR    C1410037   0.291   9.020   5.655
    1STR    C1510038   0.317   9.043   5.519
    1STR    C1610039   0.274   8.952   5.421
    1STR    C1710040   0.318   8.975   5.277
    1STR    H1B10041   0.186   8.651   5.377
    1STR    H1C10042   0.117   8.728   5.626
    1STR    H1D10043   0.134   8.804   5.857
    1STR    H1E10044   0.364   8.957   6.172
    1STR    H1F10045   0.067   9.011   6.232
    1STR    H1G10046   0.204   9.086   6.314
    1STR    H1H10047   0.175   9.119   6.144
    1STR    H1I10048   0.322   8.729   6.256
    1STR    H1J10049   0.160   8.776   6.307
    1STR    H1K10050   0.238   8.721   6.530
    1STR    H1M10051   0.542   8.757   6.491
    1STR    H1N10052   0.445   8.628   6.419
    1STR    H1O10053   0.468   8.634   6.593
    1STR    H1P10054   0.426   8.935   6.640
    1STR    H1Q10055   0.251   8.939   6.649
    1STR    H1R10056   0.430   8.937   6.877
    1STR    H1S10057   0.227   8.968   7.025
    1STR    H1T10058   0.143   8.842   6.936
    1STR    H1U10059   0.184   8.994   6.857
    1STR    H1V10060   0.495   8.707   6.949
    1STR    H1W10061   0.332   8.675   7.001
    1STR    H1X10062   0.502   8.912   7.296
    1STR    H1Y10063   0.511   9.047   7.491
    1STR    H1Z10064   0.432   9.094   7.717
    1STR    H2010065   0.117   8.968   7.861
    1STR    H2110066   0.273   8.924   7.929
    1STR    H2210067   0.243   9.089   7.874
    1STR    H2310068   0.020   8.774   7.641
    1STR    H2710069   0.210   8.739   7.452
    1STR    H2810070   0.327   9.094   5.724
    1STR    H2910071   0.374   9.130   5.490
    1STR    H2A10072   0.335   8.881   5.225
    1STR    H2B10073   0.411   9.032   5.274
    1STR    H2C10074   0.242   9.032   5.224
    1STR   BCK110075  -0.000   8.758   9.621
    1STR    O0310076  17.414   8.645   9.581
    1STR    N0410077  17.388   8.814   9.731
    1STR    C0510078  17.286   8.769   9.815
    1STR    C0610079  17.304   8.774   9.956
    1STR    C0710080  17.200   8.741  10.047
    1STR    N0810081  17.221   8.751  10.186
    1STR    C0910082  17.133   8.750  10.288
    1STR    O0A10083  17.011   8.740  10.275
    1STR    O0B10084  17.195   8.762  10.408
    1STR    C0C10085  17.118   8.753  10.530
    1STR    C0D10086  17.098   8.604  10.565
    1STR    C0E10087  17.186   8.830  10.645
    1STR    O0F10088  17.106   8.820  10.764
    1STR    C0G10089  17.155   8.891  10.879
    1STR    C0H10090  17.121   9.040  10.865
    1STR    C0I10091  17.091   8.832  11.007
    1STR    O0J10092  17.148   8.893  11.123
    1STR    C0K10093  17.096   8.850  11.250
    1STR    C0M10094  17.149   8.710  11.284
    1STR    C0N10095  17.141   8.953  11.356
    1STR    O0O10096  17.083   8.927  11.484
    1STR    C0P10097  17.157   8.883  11.587
    1STR    O0Q10098  17.276   8.854  11.581
    1STR    N0R10099  17.080   8.875  11.696
    1STR    C0S10100  17.107   8.831  11.827
    1STR    C0T10101  16.999   8.830  11.917
    1STR    C0U10102  17.015   8.781  12.048
    1STR    C0V10103  17.139   8.733  12.093
    1STR    C0W10104  17.146   8.671  12.232
    1STR    C0X10105  17.251   8.739  12.006
    1STR    N0Y10106  17.377   8.690  12.042
    1STR   BCK210107   0.009   8.711  12.153
    1STR    O1010108  17.418   8.789  12.243
    1STR    C1310109  17.233   8.787  11.874
    1STR    C1410110  17.077   8.699   9.992
    1STR    C1510111  17.057   8.695   9.853
    1STR    C1610112  17.159   8.732   9.764
    1STR    C1710113  17.126   8.736   9.616
    1STR    H1B10114  17.430   8.903   9.753
    1STR    H1C10115  17.400   8.805   9.994
    1STR    H1D10116  17.316   8.763  10.218
    1STR    H1E10117  17.020   8.798  10.514
    1STR    H1F10118  17.194   8.555  10.583
    1STR    H1G10119  17.038   8.594  10.655
    1STR    H1H10120  17.047   8.551  10.485
    1STR    H1I10121  17.198   8.934  10.616
    1STR    H1J10122  17.285   8.790  10.664
    1STR    H1K10123  17.263   8.878  10.887
    1STR    H1M10124  17.014   9.055  10.852
    1STR    H1N10125  17.172   9.087  10.781
    1STR    H1O10126  17.151   9.095  10.955
    1STR    H1P10127  16.983   8.847  11.005
    1STR    H1Q10128  17.108   8.724  11.008
    1STR    H1R10129  16.987   8.849  11.247
    1STR    H1S10130  17.115   8.679  11.383
    1STR    H1T10131  17.258   8.708  11.286
    1STR    H1U10132  17.115   8.634  11.214
    1STR    H1V10133  17.109   9.052  11.325
    1STR    H1W10134  17.250   8.957  11.361
    1STR    H1X10135  16.987   8.905  11.676
    1STR    H1Y10136  16.901   8.864  11.887
    1STR    H1Z10137  16.929   8.779  12.114
    1STR    H2010138  17.218   8.590  12.235
    1STR    H2110139  17.175   8.747  12.305
    1STR    H2210140  17.050   8.630  12.262
    1STR    H2310141  17.424   8.633  11.974
    1STR    H2710142  17.318   8.789  11.807
    1STR    H2810143  16.993   8.670  10.054
    1STR    H2910144  16.960   8.665   9.815
    1STR    H2A10145  17.176   8.820   9.567
    1STR    H2B10146  17.019   8.748   9.599
    1STR    H2C10147  17.158   8.644   9.567
    1STR   BCK110148   0.133   8.747  13.993
    1STR    O0310149   0.252   8.772  13.979
    1STR    N0410150   0.084   8.667  14.087
    1STR    C0510151   0.157   8.592  14.178
    1STR    C0610152   0.135   8.607  14.317
    1STR    C0710153   0.204   8.527  14.412
    1STR    N0810154   0.176   8.542  14.549
    1STR    C0910155   0.241   8.494  14.656
    1STR    O0A10156   0.346   8.430  14.651
    1STR    O0B10157   0.177   8.524  14.770
    1STR    C0C10158   0.232   8.482  14.895
    1STR    C0D10159   0.341   8.582  14.940
    1STR    C0E10160   0.121   8.469  15.000
    1STR    O0F10161   0.179   8.420  15.121
    1STR    C0G10162   0.089   8.403  15.230
    1STR    C0H10163   0.015   8.269  15.215
    1STR    C0I10164   0.172   8.407  15.360
    1STR    O0J10165   0.083   8.409  15.471
    1STR    C0K10166   0.145   8.399  15.599
    1STR    C0M10167   0.214   8.531  15.637
    1STR    C0N10168   0.034   8.363  15.699
    1STR    O0O10169   0.094   8.319  15.820
    1STR    C0P10170   0.095   8.396  15.929
    1STR    O0Q10171   0.039   8.504  15.943
    1STR    N0R10172   0.171   8.335  16.020
    1STR    C0S10173   0.209   8.367  16.150
    1STR    C0T10174   0.310   8.286  16.205
    1STR    C0U10175   0.349   8.303  16.338
    1STR    C0V10176   0.287   8.399  16.420
    1STR    C0W10177   0.325   8.394  16.566
    1STR    C0X10178   0.188   8.486  16.367
    1STR    N0Y10179   0.110   8.574  16.443
    1STR   BCK210180   0.123   8.652  16.551
    1STR    O1010181   0.024   8.709  16.595
    1STR    C1310182   0.151   8.468  16.230
    1STR    C1410183   0.295   8.430  14.364
    1STR    C1510184   0.316   8.413  14.226
    1STR    C1610185   0.246   8.491  14.132
    1STR    C1710186   0.265   8.462  13.985
    1STR    H1B10187  17.424   8.655  14.085
    1STR    H1C10188   0.066   8.683  14.351
    1STR    H1D10189   0.098   8.599  14.575
    1STR    H1E10190   0.277   8.383  14.883
    1STR    H1F10191   0.300   8.682  14.954
    1STR    H1G10192   0.386   8.550  15.033
    1STR    H1H10193   0.420   8.588  14.865
    1STR    H1I10194   0.045   8.399  14.964
    1STR    H1J10195   0.072   8.565  15.017
    1STR    H1K10196   0.018   8.486  15.234
    1STR    H1M10197   0.085   8.186  15.207
    1STR    H1N10198  17.390   8.268  15.128
    1STR    H1O10199  17.392   8.251  15.303
    1STR    H1P10200   0.239   8.321  15.364
    1STR    H1Q10201   0.235   8.496  15.359
    1STR    H1R10202   0.218   8.317  15.598
    1STR    H1S10203   0.258   8.525  15.737
    1STR    H1T10204   0.143   8.613  15.638
    1STR    H1U10205   0.295   8.557  15.569
    1STR    H1V10206  17.415   8.279  15.660
    1STR    H1W10207  17.404   8.445  15.714
    1STR    H1X10208   0.206   8.249  15.981
    1STR    H1Y10209   0.356   8.208  16.147
    1STR    H1Z10210   0.424   8.237  16.378
    1STR    H2010211   0.397   8.472  16.588
    1STR    H2110212   0.235   8.404  16.626
    1STR    H2210213   0.372   8.300  16.593
    1STR    H2310214   0.015   8.584  16.410
    1STR    H2710215   0.074   8.530  16.188
    1STR    H2810216   0.350   8.365  14.429
    1STR    H2910217   0.385   8.337  14.192
    1STR    H2A10218   0.171   8.472  13.930
    1STR    H2B10219   0.302   8.361  13.969
    1STR    H2C10220   0.337   8.531  13.942
    1STR   BCK110221   0.062  13.148   0.880
    1STR    O0310222  17.403  13.187   0.819
    1STR    N0410223   0.100  13.189   1.002
    1STR    C0510224   0.043  13.282   1.090
    1STR    C0610225   0.046  13.254   1.230
    1STR    C0710226   0.000  13.347   1.327
    1STR    N0810227   0.012  13.318   1.465
    1STR    C0910228   0.006  13.402   1.570
    1STR    O0A10229  17.429  13.523   1.562
    1STR    O0B10230   0.021  13.336   1.688
    1STR    C0C10231   0.004  13.407   1.812
    1STR    C0D10232  17.294  13.411   1.847
    1STR    C0E10233   0.088  13.344   1.925
    1STR    O0F10234   0.072  13.423   2.044
    1STR    C0G10235   0.147  13.380   2.158
    1STR    C0H10236   0.293  13.426   2.143
    1STR    C0I10237   0.082  13.441   2.284
    1STR    O0J10238   0.150  13.395   2.400
    1STR    C0K10239   0.104  13.446   2.525
    1STR    C0M10240  17.414  13.375   2.566
    1STR    C0N10241   0.216  13.421   2.628
    1STR    O0O10242   0.188  13.481   2.754
    1STR    C0P10243   0.152  13.405   2.859
    1STR    O0Q10244   0.132  13.284   2.853
    1STR    N0R10245   0.142  13.480   2.969
    1STR    C0S10246   0.106  13.447   3.100
    1STR    C0T10247   0.085  13.552   3.192
    1STR    C0U10248   0.043  13.525   3.324
    1STR    C0V10249   0.021  13.393   3.367
    1STR    C0W10250  17.403  13.371   3.506
    1STR    C0X10251   0.046  13.285   3.278
    1STR    N0Y10252   0.017  13.152   3.307
    1STR   BCK210253   0.056  13.069   3.404
    1STR    O1010254   0.020  12.952   3.398
    1STR    C1310255   0.087  13.314   3.146
    1STR    C1410256  17.384  13.468   1.280
    1STR    C1510257  17.382  13.498   1.143
    1STR    C1610258  17.434  13.409   1.048
    1STR    C1710259   0.003  13.458   0.905
    1STR    H1B10260   0.183  13.142   1.034
    1STR    H1C10261   0.087  13.160   1.263
    1STR    H1D10262   0.030  13.224   1.492
    1STR    H1E10263   0.040  13.510   1.799
    1STR    H1F10264  17.254  13.310   1.862
    1STR    H1G10265  17.278  13.467   1.939
    1STR    H1H10266  17.237  13.459   1.769
    1STR    H1I10267   0.192  13.342   1.894
    1STR    H1J10268   0.057  13.241   1.943
    1STR    H1K10269   0.142  13.272   2.167
    1STR    H1M10270   0.299  13.534   2.130
    1STR    H1N10271   0.343  13.379   2.059
    1STR    H1O10272   0.350  13.401   2.233
    1STR    H1P10273   0.085  13.550   2.278
    1STR    H1Q10274  17.416  13.413   2.287
    1STR    H1R10275   0.087  13.554   2.518
    1STR    H1S10276  17.380  13.408   2.664
    1STR    H1T10277  17.428  13.267   2.572
    1STR    H1U10278  17.332  13.394   2.497
    1STR    H1V10279   0.309  13.466   2.591
    1STR    H1W10280   0.237  13.315   2.637
    1STR    H1X10281   0.162  13.577   2.948
    1STR    H1Y10282   0.099  13.655   3.162
    1STR    H1Z10283   0.025  13.607   3.391
    1STR    H2010284  17.342  13.281   3.510
    1STR    H2110285   0.044  13.362   3.579
    1STR    H2210286  17.340  13.455   3.536
    1STR    H2310287  17.404  13.103   3.238
    1STR    H2710288   0.104  13.231   3.079
    1STR    H2810289  17.342  13.541   1.347
    1STR    H2910290  17.342  13.593   1.112
    1STR    H2A10291   0.090  13.417   0.854
    1STR    H2B10292   0.012  13.567   0.901
    1STR    H2C10293  17.353  13.430   0.850
    1STR   BCK110294   0.035  13.043   5.269
    1STR    O0310295   0.084  12.936   5.234
    1STR    N0410296  17.393  13.060   5.373
    1STR    C0510297  17.337  12.963   5.457
    1STR    C0610298  17.344  12.980   5.598
    1STR    C0710299  17.283  12.889   5.688
    1STR    N0810300  17.288  12.913   5.827
    1STR    C0910301  17.237  12.844   5.930
    1STR    O0A10302  17.175  12.738   5.920
    1STR    O0B10303  17.262  12.904   6.049
    1STR    C0C10304  17.222  12.840   6.171
    1STR    C0D10305  17.328  12.736   6.210
    1STR    C0E10306  17.200  12.943   6.284
    1STR    O0F10307  17.157  12.876   6.402
    1STR    C0G10308  17.131  12.958   6.516
    1STR    C0H10309  16.992  13.023   6.502
    1STR    C0I10310  17.139  12.871   6.643
    1STR    O0J10311  17.127  12.954   6.759
    1STR    C0K10312  17.128  12.887   6.885
    1STR    C0M10313  17.270  12.842   6.921
    1STR    C0N10314  17.073  12.987   6.989
    1STR    O0O10315  17.054  12.925   7.116
    1STR    C0P10316  17.137  12.949   7.219
    1STR    O0Q10317  17.239  13.017   7.213
    1STR    N0R10318  17.091  12.887   7.327
    1STR    C0S10319  17.139  12.877   7.458
    1STR    C0T10320  17.061  12.801   7.548
    1STR    C0U10321  17.105  12.779   7.680
    1STR    C0V10322  17.227  12.832   7.725
    1STR    C0W10323  17.275  12.791   7.863
    1STR    C0X10324  17.303  12.915   7.639
    1STR    N0Y10325  17.426  12.968   7.678
    1STR   BCK210326   0.014  13.042   7.786
    1STR    O1010327  17.372  13.079   7.870
    1STR    C1310328  17.259  12.935   7.505
    1STR    C1410329  17.216  12.778   5.632
    1STR    C1510330  17.207  12.760   5.493
    1STR    C1610331  17.265  12.853   5.405
    1STR    C1710332  17.241  12.833   5.256
    1STR    H1B10333  17.370  13.156   5.391
    1STR    H1C10334  17.397  13.066   5.637
    1STR    H1D10335  17.337  12.995   5.858
    1STR    H1E10336  17.126  12.790   6.155
    1STR    H1F10337  17.425  12.782   6.228
    1STR    H1G10338  17.298  12.683   6.301
    1STR    H1H10339  17.340  12.661   6.132
    1STR    H1I10340  17.125  13.016   6.252
    1STR    H1J10341  17.292  12.999   6.303
    1STR    H1K10342  17.208  13.036   6.524
    1STR    H1M10343  16.915  12.947   6.489
    1STR    H1N10344  16.987  13.091   6.417
    1STR    H1O10345  16.967  13.080   6.591
    1STR    H1P10346  17.061  12.795   6.641
    1STR    H1Q10347  17.235  12.818   6.644
    1STR    H1R10348  17.061  12.801   6.882
    1STR    H1S10349  17.273  12.795   7.019
    1STR    H1T10350  17.339  12.927   6.924
    1STR    H1U10351  17.310  12.769   6.850
    1STR    H1V10352  16.976  13.023   6.956
    1STR    H1W10353  17.137  13.075   6.996
    1STR    H1X10354  17.005  12.839   7.306
    1STR    H1Y10355  16.968  12.756   7.517
    1STR    H1Z10356  17.045  12.718   7.746
    1STR    H2010357  17.380  12.763   7.859
    1STR    H2110358  17.264  12.872   7.935
    1STR    H2210359  17.220  12.706   7.902
    1STR    H2310360   0.064  12.955   7.616
    1STR    H2710361  17.319  12.995   7.439
    1STR    H2810362  17.167  12.703   5.693
    1STR    H2910363  17.153  12.675   5.455
    1STR    H2A10364  17.231  12.929   5.205
    1STR    H2B10365  17.150  12.777   5.238
    1STR    H2C10366  17.324  12.778   5.212
    1STR   BCK110367   0.094  13.148   9.628
    1STR    O0310368   0.135  13.263   9.614
    1STR    N0410369   0.133  13.067   9.727
    1STR    C0510370   0.229  13.098   9.823
    1STR    C0610371   0.197  13.091   9.961
    1STR    C0710372   0.295  13.118  10.061
    1STR    N0810373   0.260  13.106  10.196
    1STR    C0910374   0.335  13.122  10.306
    1STR    O0A10375   0.453  13.157  10.306
    1STR    O0B10376   0.266  13.095  10.419
    1STR    C0C10377   0.328  13.115  10.546
    1STR    C0D10378   0.315  13.262  10.586
    1STR    C0E10379   0.270  13.020  10.652
    1STR    O0F10380   0.346  13.039  10.772
    1STR    C0G10381   0.309  12.957  10.883
    1STR    C0H10382   0.368  12.817  10.865
    1STR    C0I10383   0.363  13.026  11.009
    1STR    O0J10384   0.319  12.953  11.124
    1STR    C0K10385   0.367  13.001  11.249
    1STR    C0M10386   0.291  13.128  11.291
    1STR    C0N10387   0.347  12.886  11.350
    1STR    O0O10388   0.410  12.915  11.474
    1STR    C0P10389   0.339  12.956  11.579
    1STR    O0Q10390   0.217  12.972  11.581
    1STR    N0R10391   0.422  12.981  11.681
    1STR    C0S10392   0.396  13.032  11.808
    1STR    C0T10393   0.504  13.091  11.877
    1STR    C0U10394   0.485  13.150  12.003
    1STR    C0V10395   0.358  13.149  12.064
    1STR    C0W10396   0.340  13.220  12.198
    1STR    C0X10397   0.250  13.084  12.000
    1STR    N0Y10398   0.126  13.078  12.062
    1STR   BCK210399   0.092  13.001  12.166
    1STR    O1010400  17.434  13.030  12.234
    1STR    C1310401   0.269  13.028  11.872
    1STR    C1410402   0.424  13.155  10.017
    1STR    C1510403   0.457  13.159   9.881
    1STR    C1610404   0.362  13.127   9.783
    1STR    C1710405   0.406  13.123   9.638
    1STR    H1B10406   0.094  12.974   9.725
    1STR    H1C10407   0.096  13.066   9.990
    1STR    H1D10408   0.166  13.080  10.219
    1STR    H1E10409   0.435  13.090  10.538
    1STR    H1F10410   0.211  13.292  10.598
    1STR    H1G10411   0.366  13.281  10.681
    1STR    H1H10412   0.361  13.327  10.512
    1STR    H1I10413   0.277  12.917  10.617
    1STR    H1J10414   0.164  13.042  10.669
    1STR    H1K10415   0.200  12.952  10.891
    1STR    H1M10416   0.476  12.821  10.852
    1STR    H1N10417   0.326  12.764  10.780
    1STR    H1O10418   0.348  12.755  10.953
    1STR    H1P10419   0.472  13.030  11.005
    1STR    H1Q10420   0.327  13.128  11.013
    1STR    H1R10421   0.474  13.022  11.243
    1STR    H1S10422   0.323  13.163  11.389
    1STR    H1T10423   0.184  13.109  11.297
    1STR    H1U10424   0.307  13.211  11.221
    1STR    H1V10425   0.392  12.795  11.311
    1STR    H1W10426   0.241  12.864  11.363
    1STR    H1X10427   0.517  12.963  11.655
    1STR    H1Y10428   0.602  13.094  11.833
    1STR    H1Z10429   0.568  13.197  12.053
    1STR    H2010430   0.238  13.254  12.212
    1STR    H2110431   0.366  13.153  12.279
    1STR    H2210432   0.405  13.308  12.204
    1STR    H2310433   0.053  13.141  12.031
    1STR    H2710434   0.185  12.980  11.823
    1STR    H2810435   0.503  13.180  10.086
    1STR    H2910436   0.558  13.184   9.852
    1STR    H2A10437   0.354  13.044   9.584
    1STR    H2B10438   0.513  13.103   9.630
    1STR    H2C10439   0.385  13.218   9.589
    1STR   BCK110440   0.025  13.163  13.969
    1STR    O0310441  17.398  13.068  13.929
    1STR    N0410442   0.004  13.230  14.083
    1STR    C0510443  17.334  13.228  14.171
    1STR    C0610444  17.355  13.220  14.311
    1STR    C0710445  17.248  13.233  14.405
    1STR    N0810446  17.274  13.230  14.544
    1STR    C0910447  17.198  13.274  14.646
    1STR    O0A10448  17.090  13.330  14.633
    1STR    O0B10449  17.256  13.251  14.767
    1STR    C0C10450  17.186  13.283  14.888
    1STR    C0D10451  17.090  13.168  14.923
    1STR    C0E10452  17.284  13.311  15.005
    1STR    O0F10453  17.211  13.345  15.124
    1STR    C0G10454  17.291  13.378  15.239
    1STR    C0H10455  17.343  13.522  15.225
    1STR    C0I10456  17.205  13.363  15.367
    1STR    O0J10457  17.286  13.384  15.483
    1STR    C0K10458  17.220  13.376  15.610
    1STR    C0M10459  17.190  13.229  15.645
    1STR    C0N10460  17.312  13.440  15.716
    1STR    O0O10461  17.249  13.449  15.844
    1STR    C0P10462  17.291  13.374  15.948
    1STR    O0Q10463  17.379  13.289  15.943
    1STR    N0R10464  17.221  13.407  16.057
    1STR    C0S10465  17.222  13.358  16.188
    1STR    C0T10466  17.123  13.408  16.276
    1STR    C0U10467  17.113  13.360  16.408
    1STR    C0V10468  17.202  13.262  16.456
    1STR    C0W10469  17.179  13.206  16.596
    1STR    C0X10470  17.305  13.214  16.371
    1STR    N0Y10471  17.392  13.112  16.413
    1STR   BCK210472   0.027  13.106  16.523
    1STR    O1010473   0.046  13.200  16.599
    1STR    C1310474  17.313  13.262  16.238
    1STR    C1410475  17.118  13.251  14.353
    1STR    C1510476  17.096  13.259  14.214
    1STR    C1610477  17.202  13.250  14.123
    1STR    C1710478  17.172  13.272  13.976
    1STR    H1B10479   0.077  13.296  14.105
    1STR    H1C10480   0.016  13.205  14.348
    1STR    H1D10481  17.361  13.191  14.575
    1STR    H1E10482  17.127  13.374  14.873
    1STR    H1F10483  17.144  13.074  14.940
    1STR    H1G10484  17.033  13.190  15.014
    1STR    H1H10485  17.018  13.151  14.843
    1STR    H1I10486  17.350  13.393  14.976
    1STR    H1J10487  17.347  13.224  15.023
    1STR    H1K10488  17.374  13.309  15.247
    1STR    H1M10489  17.261  13.592  15.212
    1STR    H1N10490  17.411  13.534  15.141
    1STR    H1O10491  17.398  13.552  15.315
    1STR    H1P10492  17.122  13.433  15.365
    1STR    H1Q10493  17.161  13.263  15.368
    1STR    H1R10494  17.127  13.433  15.607
    1STR    H1S10495  17.144  13.221  15.744
    1STR    H1T10496  17.281  13.170  15.647
    1STR    H1U10497  17.120  13.183  15.575
    1STR    H1V10498  17.338  13.541  15.685
    1STR    H1W10499  17.407  13.386  15.721
    1STR    H1X10500  17.155  13.480  16.036
    1STR    H1Y10501  17.052  13.482  16.243
    1STR    H1Z10502  17.035  13.398  16.472
    1STR    H2010503  17.204  13.100  16.600
    1STR    H2110504  17.242  13.259  16.667
    1STR    H2210505  17.076  13.217  16.627
    1STR    H2310506  17.402  13.033  16.352
    1STR    H2710507  17.391  13.223  16.174
    1STR    H2810508  17.032  13.259  14.417
    1STR    H2910509  16.995  13.276  14.179
    1STR    H2A10510  17.250  13.331  13.928
    1STR    H2B10511  17.078  13.326  13.962
    1STR    H2C10512  17.164  13.176  13.924
    1STR   BCK110513   4.482  17.419   0.914
    1STR    O0310514   4.597  17.379   0.898
    1STR    N0410515   4.399  17.374   1.009
    1STR    C0510516   4.422  17.269   1.097
    1STR    C0610517   4.410  17.290   1.237
    1STR    C0710518   4.426  17.183   1.330
    1STR    N0810519   4.410  17.207   1.467
    1STR    C0910520   4.437  17.128   1.572
    1STR    O0A10521   4.489  17.017   1.565
    1STR    O0B10522   4.400  17.186   1.689
    1STR    C0C10523   4.424  17.118   1.813
    1STR    C0D10524   4.570  17.141   1.856
    1STR    C0E10525   4.325  17.165   1.921
    1STR    O0F10526   4.350  17.091   2.041
    1STR    C0G10527   4.267  17.123   2.152
    1STR    C0H10528   4.132  17.051   2.138
    1STR    C0I10529   4.340  17.078   2.280
    1STR    O0J10530   4.267  17.122   2.395
    1STR    C0K10531   4.319  17.082   2.521
    1STR    C0M10532   4.444  17.164   2.557
    1STR    C0N10533   4.208  17.102   2.626
    1STR    O0O10534   4.247  17.042   2.749
    1STR    C0P10535   4.277  17.115   2.857
    1STR    O0Q10536   4.274  17.237   2.865
    1STR    N0R10537   4.311  17.031   2.954
    1STR    C0S10538   4.350  17.049   3.087
    1STR    C0T10539   4.379  16.931   3.158
    1STR    C0U10540   4.414  16.936   3.294
    1STR    C0V10541   4.419  17.059   3.362
    1STR    C0W10542   4.444  17.052   3.511
    1STR    C0X10543   4.393  17.181   3.293
    1STR    N0Y10544   4.382  17.304   3.359
    1STR   BCK210545   4.454  17.367   3.453
    1STR    O1010546   4.408   0.027   3.506
    1STR    C1310547   4.358  17.174   3.155
    1STR    C1410548   4.454  17.055   1.278
    1STR    C1510549   4.463  17.033   1.139
    1STR    C1610550   4.445  17.139   1.048
    1STR    C1710551   4.447  17.107   0.900
    1STR    H1B10552   4.308  17.419   1.010
    1STR    H1C10553   4.390  17.390   1.273
    1STR    H1D10554   4.375  17.297   1.496
    1STR    H1E10555   4.407  17.011   1.798
    1STR    H1F10556   4.591  17.246   1.872
    1STR    H1G10557   4.592  17.087   1.948
    1STR    H1H10558   4.639  17.104   1.780
    1STR    H1I10559   4.223  17.148   1.887
    1STR    H1J10560   4.337  17.272   1.939
    1STR    H1K10561   4.252  17.231   2.158
    1STR    H1M10562   4.145  16.944   2.127
    1STR    H1N10563   4.076  17.087   2.051
    1STR    H1O10564   4.070  17.068   2.226
    1STR    H1P10565   4.352  16.970   2.281
    1STR    H1Q10566   4.440  17.121   2.281
    1STR    H1R10567   4.344  16.976   2.518
    1STR    H1S10568   4.482  17.137   2.655
    1STR    H1T10569   4.422  17.271   2.559
    1STR    H1U10570   4.526  17.149   2.487
    1STR    H1V10571   4.117  17.053   2.592
    1STR    H1W10572   4.183  17.208   2.637
    1STR    H1X10573   4.305  16.937   2.921
    1STR    H1Y10574   4.373  16.835   3.111
    1STR    H1Z10575   4.433  16.844   3.347
    1STR    H2010576   4.551  17.057   3.530
    1STR    H2110577   4.393  17.133   3.564
    1STR    H2210578   4.407  16.959   3.554
    1STR    H2310579   4.302  17.360   3.333
    1STR    H2710580   4.336  17.265   3.102
    1STR    H2810581   4.466  16.969   1.341
    1STR    H2910582   4.483  16.933   1.103
    1STR    H2A10583   4.373  17.166   0.846
    1STR    H2B10584   4.426  17.002   0.881
    1STR    H2C10585   4.545  17.129   0.858
    1STR   BCK110586   4.444   0.051   5.248
    1STR    O0310587   4.368   0.136   5.201
    1STR    N0410588   4.507   0.062   5.365
    1STR    C0510589   4.506   0.168   5.457
    1STR    C0610590   4.493   0.139   5.595
    1STR    C0710591   4.503   0.241   5.694
    1STR    N0810592   4.497   0.207   5.830
    1STR    C0910593   4.537   0.278   5.937
    1STR    O0A10594   4.590   0.389   5.931
    1STR    O0B10595   4.513   0.212   6.053
    1STR    C0C10596   4.537   0.278   6.178
    1STR    C0D10597   4.412   0.360   6.215
    1STR    C0E10598   4.575   0.177   6.288
    1STR    O0F10599   4.605   0.251   6.407
    1STR    C0G10600   4.646   0.174   6.519
    1STR    C0H10601   4.793   0.134   6.504
    1STR    C0I10602   4.624   0.260   6.645
    1STR    O0J10603   4.657   0.184   6.761
    1STR    C0K10604   4.646   0.253   6.886
    1STR    C0M10605   4.498   0.263   6.927
    1STR    C0N10606   4.729   0.173   6.988
    1STR    O0O10607   4.739   0.241   7.113
    1STR    C0P10608   4.666   0.201   7.218
    1STR    O0Q10609   4.583   0.111   7.215
    1STR    N0R10610   4.697   0.275   7.324
    1STR    C0S10611   4.647   0.272   7.455
    1STR    C0T10612   4.678   0.381   7.540
    1STR    C0U10613   4.628   0.386   7.671
    1STR    C0V10614   4.547   0.283   7.721
    1STR    C0W10615   4.487   0.298   7.860
    1STR    C0X10616   4.519   0.170   7.640
    1STR    N0Y10617   4.436   0.067   7.683
    1STR   BCK210618   4.452  17.420   7.783
    1STR    O1010619   4.368  17.333   7.802
    1STR    C1310620   4.568   0.167   7.507
    1STR    C1410621   4.521   0.374   5.650
    1STR    C1510622   4.537   0.403   5.514
    1STR    C1610623   4.533   0.301   5.417
    1STR    C1710624   4.567   0.340   5.274
    1STR    H1B10625   4.566  17.423   5.387
    1STR    H1C10626   4.477   0.037   5.626
    1STR    H1D10627   4.460   0.117   5.855
    1STR    H1E10628   4.622   0.346   6.167
    1STR    H1F10629   4.325   0.296   6.228
    1STR    H1G10630   4.428   0.414   6.309
    1STR    H1H10631   4.389   0.433   6.138
    1STR    H1I10632   4.661   0.119   6.255
    1STR    H1J10633   4.493   0.107   6.305
    1STR    H1K10634   4.583   0.084   6.529
    1STR    H1M10635   4.856   0.222   6.491
    1STR    H1N10636   4.810   0.068   6.419
    1STR    H1O10637   4.829   0.081   6.593
    1STR    H1P10638   4.686   0.350   6.639
    1STR    H1Q10639   4.520   0.293   6.648
    1STR    H1R10640   4.689   0.353   6.877
    1STR    H1S10641   4.487   0.310   7.025
    1STR    H1T10642   4.453   0.164   6.935
    1STR    H1U10643   4.438   0.321   6.857
    1STR    H1V10644   4.830   0.161   6.949
    1STR    H1W10645   4.689   0.072   6.999
    1STR    H1X10646   4.765   0.345   7.301
    1STR    H1Y10647   4.739   0.463   7.505
    1STR    H1Z10648   4.651   0.471   7.733
    1STR    H2010649   4.390   0.248   7.867
    1STR    H2110650   4.553   0.254   7.935
    1STR    H2210651   4.471   0.402   7.886
    1STR    H2310652   4.355   0.046   7.626
    1STR    H2710653   4.545   0.081   7.447
    1STR    H2810654   4.525   0.456   5.719
    1STR    H2910655   4.554   0.506   5.484
    1STR    H2A10656   4.619   0.259   5.222
    1STR    H2B10657   4.631   0.427   5.271
    1STR    H2C10658   4.476   0.363   5.219
    1STR   BCK110659   4.362   0.005   9.621
    1STR    O0310660   4.365  17.328   9.583
    1STR    N0410661   4.296   0.049   9.729
    1STR    C0510662   4.207  17.421   9.814
    1STR    C0610663   4.222  17.432   9.955
    1STR    C0710664   4.129  17.373  10.045
    1STR    N0810665   4.146  17.390  10.184
    1STR    C0910666   4.063  17.360  10.286
    1STR    O0A10667   3.952  17.309  10.274
    1STR    O0B10668   4.117  17.393  10.407
    1STR    C0C10669   4.048  17.359  10.528
    1STR    C0D10670   4.080  17.213  10.565
    1STR    C0E10671   4.085   0.015  10.643
    1STR    O0F10672   4.012  17.420  10.762
    1STR    C0G10673   4.034   0.063  10.876
    1STR    C0H10674   3.951   0.191  10.863
    1STR    C0I10675   3.994  17.425  11.003
    1STR    O0J10676   4.027   0.062  11.120
    1STR    C0K10677   3.992   0.004  11.246
    1STR    C0M10678   4.090  17.331  11.281
    1STR    C0N10679   3.998   0.117  11.351
    1STR    O0O10680   3.952   0.073  11.479
    1STR    C0P10681   4.038   0.054  11.581
    1STR    O0Q10682   4.160   0.063  11.574
    1STR    N0R10683   3.969   0.022  11.691
    1STR    C0S10684   4.009  17.430  11.821
    1STR    C0T10685   3.909  17.390  11.911
    1STR    C0U10686   3.941  17.350  12.042
    1STR    C0V10687   4.075  17.351  12.087
    1STR    C0W10688   4.104  17.294  12.225
    1STR    C0X10689   4.177  17.399  12.000
    1STR    N0Y10690   4.311  17.402  12.037
    1STR   BCK210691   4.368   0.013  12.147
    1STR    O1010692   4.308   0.065  12.240
    1STR    C1310693   4.143  17.435  11.868
    1STR    C1410694   4.022  17.300   9.990
    1STR    C1510695   4.005  17.289   9.851
    1STR    C1610696   4.095  17.351   9.762
    1STR    C1710697   4.064  17.345   9.613
    1STR    H1B10698   4.314   0.145   9.750
    1STR    H1C10699   4.306   0.047   9.993
    1STR    H1D10700   4.231  17.432  10.217
    1STR    H1E10701   3.940  17.369  10.512
    1STR    H1F10702   4.186  17.199  10.583
    1STR    H1G10703   4.026  17.183  10.655
    1STR    H1H10704   4.050  17.145  10.485
    1STR    H1I10705   4.061   0.117  10.613
    1STR    H1J10706   4.192   0.012  10.662
    1STR    H1K10707   4.140   0.087  10.885
    1STR    H1M10708   3.845   0.169  10.849
    1STR    H1N10709   3.983   0.252  10.778
    1STR    H1O10710   3.961   0.253  10.952
    1STR    H1P10711   3.887  17.402  11.001
    1STR    H1Q10712   4.047  17.329  11.005
    1STR    H1R10713   3.890  17.406  11.243
    1STR    H1S10714   4.068  17.289  11.380
    1STR    H1T10715   4.193  17.367  11.284
    1STR    H1U10716   4.085  17.248  11.211
    1STR    H1V10717   3.934   0.199  11.320
    1STR    H1W10718   4.099   0.159  11.357
    1STR    H1X10719   3.870   0.020  11.671
    1STR    H1Y10720   3.805  17.387  11.881
    1STR    H1Z10721   3.863  17.317  12.109
    1STR    H2010722   4.200  17.243  12.227
    1STR    H2110723   4.106  17.374  12.299
    1STR    H2210724   4.028  17.223  12.256
    1STR    H2310725   4.378  17.367  11.970
    1STR    H2710726   4.222   0.028  11.802
    1STR    H2810727   3.949  17.250  10.051
    1STR    H2910728   3.920  17.235   9.812
    1STR    H2A10729   4.092  17.438   9.564
    1STR    H2B10730   3.957  17.330   9.596
    1STR    H2C10731   4.118  17.263   9.567
    1STR   BCK110732   4.485   0.052  13.993
    1STR    O0310733   4.588   0.117  13.979
    1STR    N0410734   4.465  17.402  14.089
    1STR    C0510735   4.559  17.360  14.183
    1STR    C0610736   4.532  17.369  14.322
    1STR    C0710737   4.623  17.322  14.419
    1STR    N0810738   4.590  17.328  14.555
    1STR    C0910739   4.666  17.305  14.663
    1STR    O0A10740   4.786  17.280  14.661
    1STR    O0B10741   4.593  17.313  14.777
    1STR    C0C10742   4.659  17.295  14.904
    1STR    C0D10743   4.726  17.426  14.946
    1STR    C0E10744   4.559  17.245  15.011
    1STR    O0F10745   4.631  17.221  15.132
    1STR    C0G10746   4.554  17.172  15.241
    1STR    C0H10747   4.529  17.021  15.223
    1STR    C0I10748   4.632  17.200  15.371
    1STR    O0J10749   4.552  17.163  15.484
    1STR    C0K10750   4.615  17.174  15.612
    1STR    C0M10751   4.629  17.321  15.653
    1STR    C0N10752   4.528  17.094  15.712
    1STR    O0O10753   4.596  17.071  15.836
    1STR    C0P10754   4.568  17.144  15.945
    1STR    O0Q10755   4.484  17.233  15.952
    1STR    N0R10756   4.649  17.107  16.045
    1STR    C0S10757   4.672  17.167  16.169
    1STR    C0T10758   4.800  17.153  16.224
    1STR    C0U10759   4.837  17.228  16.337
    1STR    C0V10760   4.745  17.316  16.398
    1STR    C0W10761   4.805  17.420  16.491
    1STR    C0X10762   4.609  17.316  16.357
    1STR    N0Y10763   4.503  17.388  16.414
    1STR   BCK210764   4.463  17.439  16.532
    1STR    O1010765   4.359   0.063  16.531
    1STR    C1310766   4.576  17.243  16.240
    1STR    C1410767   4.744  17.265  14.372
    1STR    C1510768   4.772  17.253  14.235
    1STR    C1610769   4.679  17.298  14.140
    1STR    C1710770   4.710  17.274  13.993
    1STR    H1B10771   4.376  17.355  14.087
    1STR    H1C10772   4.439  17.414  14.353
    1STR    H1D10773   4.496  17.354  14.579
    1STR    H1E10774   4.735  17.217  14.893
    1STR    H1F10775   4.654   0.067  14.958
    1STR    H1G10776   4.780  17.414  15.040
    1STR    H1H10777   4.799   0.018  14.871
    1STR    H1I10778   4.511  17.154  14.975
    1STR    H1J10779   4.481  17.319  15.026
    1STR    H1K10780   4.459  17.226  15.247
    1STR    H1M10781   4.623  16.967  15.212
    1STR    H1N10782   4.467  17.000  15.136
    1STR    H1O10783   4.477  16.980  15.310
    1STR    H1P10784   4.726  17.145  15.371
    1STR    H1Q10785   4.657  17.306  15.375
    1STR    H1R10786   4.714  17.127  15.608
    1STR    H1S10787   4.671  17.330  15.753
    1STR    H1T10788   4.532  17.370  15.655
    1STR    H1U10789   4.694  17.377  15.586
    1STR    H1V10790   4.506  16.997  15.670
    1STR    H1W10791   4.432  17.143  15.727
    1STR    H1X10792   4.710  17.032  16.016
    1STR    H1Y10793   4.875  17.092  16.176
    1STR    H1Z10794   4.939  17.224  16.371
    1STR    H2010795   4.744   0.070  16.493
    1STR    H2110796   4.821  17.381  16.591
    1STR    H2210797   4.902   0.011  16.453
    1STR    H2310798   4.427  17.405  16.350
    1STR    H2710799   4.475  17.248  16.200
    1STR    H2810800   4.819  17.226  14.440
    1STR    H2910801   4.865  17.208  14.204
    1STR    H2A10802   4.620  17.249  13.937
    1STR    H2B10803   4.780  17.192  13.980
    1STR    H2C10804   4.754  17.364  13.948
    1STR   BCK110805   4.435   4.458   0.882
    1STR    O0310806   4.335   4.402   0.839
    1STR    N0410807   4.445   4.521   1.000
    1STR    C0510808   4.346   4.563   1.090
    1STR    C0610809   4.362   4.541   1.230
    1STR    C0710810   4.275   4.601   1.326
    1STR    N0810811   4.297   4.582   1.464
    1STR    C0910812   4.257   4.658   1.568
    1STR    O0A10813   4.195   4.764   1.556
    1STR    O0B10814   4.295   4.606   1.688
    1STR    C0C10815   4.253   4.669   1.810
    1STR    C0D10816   4.111   4.622   1.846
    1STR    C0E10817   4.352   4.640   1.925
    1STR    O0F10818   4.310   4.707   2.045
    1STR    C0G10819   4.394   4.692   2.159
    1STR    C0H10820   4.516   4.785   2.146
    1STR    C0I10821   4.313   4.726   2.287
    1STR    O0J10822   4.393   4.701   2.403
    1STR    C0K10823   4.333   4.731   2.530
    1STR    C0M10824   4.231   4.622   2.566
    1STR    C0N10825   4.446   4.738   2.635
    1STR    O0O10826   4.397   4.782   2.761
    1STR    C0P10827   4.394   4.700   2.867
    1STR    O0Q10828   4.425   4.581   2.866
    1STR    N0R10829   4.350   4.767   2.975
    1STR    C0S10830   4.327   4.726   3.106
    1STR    C0T10831   4.257   4.816   3.190
    1STR    C0U10832   4.225   4.780   3.323
    1STR    C0V10833   4.264   4.655   3.375
    1STR    C0W10834   4.219   4.618   3.516
    1STR    C0X10835   4.339   4.566   3.295
    1STR    N0Y10836   4.376   4.440   3.341
    1STR   BCK210837   4.449   4.409   3.448
    1STR    O1010838   4.507   4.490   3.520
    1STR    C1310839   4.368   4.602   3.161
    1STR    C1410840   4.168   4.680   1.278
    1STR    C1510841   4.151   4.702   1.140
    1STR    C1610842   4.239   4.646   1.046
    1STR    C1710843   4.222   4.684   0.900
    1STR    H1B10844   4.539   4.548   1.023
    1STR    H1C10845   4.444   4.480   1.263
    1STR    H1D10846   4.351   4.503   1.493
    1STR    H1E10847   4.252   4.778   1.796
    1STR    H1F10848   4.107   4.515   1.861
    1STR    H1G10849   4.076   4.671   1.937
    1STR    H1H10850   4.040   4.647   1.766
    1STR    H1I10851   4.451   4.674   1.896
    1STR    H1J10852   4.358   4.533   1.943
    1STR    H1K10853   4.427   4.588   2.167
    1STR    H1M10854   4.485   4.889   2.133
    1STR    H1N10855   4.579   4.759   2.062
    1STR    H1O10856   4.578   4.781   2.235
    1STR    H1P10857   4.281   4.830   2.284
    1STR    H1Q10858   4.223   4.664   2.289
    1STR    H1R10859   4.285   4.828   2.525
    1STR    H1S10860   4.188   4.641   2.665
    1STR    H1T10861   4.277   4.524   2.569
    1STR    H1U10862   4.147   4.619   2.497
    1STR    H1V10863   4.522   4.809   2.602
    1STR    H1W10864   4.498   4.642   2.642
    1STR    H1X10865   4.330   4.862   2.951
    1STR    H1Y10866   4.224   4.912   3.154
    1STR    H1Z10867   4.170   4.849   3.384
    1STR    H2010868   4.195   4.512   3.522
    1STR    H2110869   4.298   4.639   3.588
    1STR    H2210870   4.129   4.673   3.545
    1STR    H2310871   4.349   4.361   3.285
    1STR    H2710872   4.423   4.532   3.100
    1STR    H2810873   4.098   4.727   1.345
    1STR    H2910874   4.070   4.766   1.107
    1STR    H2A10875   4.318   4.705   0.853
    1STR    H2B10876   4.161   4.774   0.889
    1STR    H2C10877   4.173   4.604   0.846
    1STR   BCK110878   4.429   4.312   5.267
    1STR    O0310879   4.508   4.222   5.240
    1STR    N0410880   4.342   4.310   5.369
    1STR    C0510881   4.314   4.204   5.455
    1STR    C0610882   4.315   4.224   5.596
    1STR    C0710883   4.280   4.121   5.687
    1STR    N0810884   4.277   4.147   5.825
    1STR    C0910885   4.255   4.065   5.929
    1STR    O0A10886   4.236   3.944   5.920
    1STR    O0B10887   4.256   4.132   6.047
    1STR    C0C10888   4.239   4.059   6.170
    1STR    C0D10889   4.374   3.997   6.211
    1STR    C0E10890   4.182   4.149   6.282
    1STR    O0F10891   4.165   4.071   6.401
    1STR    C0G10892   4.112   4.140   6.514
    1STR    C0H10893   3.959   4.153   6.499
    1STR    C0I10894   4.149   4.062   6.641
    1STR    O0J10895   4.110   4.136   6.756
    1STR    C0K10896   4.133   4.074   6.883
    1STR    C0M10897   4.282   4.079   6.919
    1STR    C0N10898   4.048   4.150   6.986
    1STR    O0O10899   4.047   4.084   7.113
    1STR    C0P10900   4.118   4.131   7.216
    1STR    O0Q10901   4.192   4.228   7.214
    1STR    N0R10902   4.092   4.055   7.323
    1STR    C0S10903   4.138   4.058   7.455
    1STR    C0T10904   4.083   3.962   7.542
    1STR    C0U10905   4.129   3.951   7.674
    1STR    C0V10906   4.230   4.036   7.723
    1STR    C0W10907   4.285   4.008   7.861
    1STR    C0X10908   4.283   4.138   7.639
    1STR    N0Y10909   4.387   4.220   7.682
    1STR   BCK210910   4.392   4.298   7.790
    1STR    O1010911   4.301   4.313   7.871
    1STR    C1310912   4.237   4.147   7.505
    1STR    C1410913   4.245   3.995   5.633
    1STR    C1510914   4.242   3.974   5.494
    1STR    C1610915   4.274   4.078   5.404
    1STR    C1710916   4.258   4.051   5.256
    1STR    H1B10917   4.291   4.396   5.382
    1STR    H1C10918   4.343   4.321   5.633
    1STR    H1D10919   4.295   4.241   5.856
    1STR    H1E10920   4.167   3.978   6.154
    1STR    H1F10921   4.449   4.074   6.229
    1STR    H1G10922   4.364   3.938   6.302
    1STR    H1H10923   4.412   3.930   6.134
    1STR    H1I10924   4.087   4.191   6.249
    1STR    H1J10925   4.250   4.233   6.301
    1STR    H1K10926   4.157   4.239   6.521
    1STR    H1M10927   3.913   4.055   6.487
    1STR    H1N10928   3.931   4.214   6.414
    1STR    H1O10929   3.916   4.199   6.588
    1STR    H1P10930   4.102   3.964   6.640
    1STR    H1Q10931   4.257   4.045   6.642
    1STR    H1R10932   4.098   3.970   6.880
    1STR    H1S10933   4.300   4.036   7.017
    1STR    H1T10934   4.318   4.182   6.922
    1STR    H1U10935   4.344   4.024   6.848
    1STR    H1V10936   3.944   4.154   6.952
    1STR    H1W10937   4.080   4.254   6.995
    1STR    H1X10938   4.026   3.984   7.299
    1STR    H1Y10939   4.007   3.894   7.509
    1STR    H1Z10940   4.087   3.875   7.739
    1STR    H2010941   4.394   4.005   7.858
    1STR    H2110942   4.254   4.084   7.932
    1STR    H2210943   4.251   3.912   7.900
    1STR    H2310944   4.468   4.227   7.622
    1STR    H2710945   4.280   4.222   7.440
    1STR    H2810946   4.217   3.911   5.694
    1STR    H2910947   4.213   3.877   5.457
    1STR    H2A10948   4.222   4.139   5.203
    1STR    H2B10949   4.186   3.971   5.238
    1STR    H2C10950   4.353   4.021   5.213
    1STR   BCK110951   4.441   4.414   9.626
    1STR    O0310952   4.425   4.534   9.604
    1STR    N0410953   4.509   4.366   9.730
    1STR    C0510954   4.577   4.441   9.824
    1STR    C0610955   4.549   4.424   9.962
    1STR    C0710956   4.621   4.496  10.061
    1STR    N0810957   4.594   4.472  10.197
    1STR    C0910958   4.664   4.507  10.305
    1STR    O0A10959   4.769   4.570  10.303
    1STR    O0B10960   4.604   4.464  10.418
    1STR    C0C10961   4.658   4.504  10.545
    1STR    C0D10962   4.596   4.639  10.584
    1STR    C0E10963   4.634   4.396  10.652
    1STR    O0F10964   4.700   4.439  10.771
    1STR    C0G10965   4.693   4.351  10.882
    1STR    C0H10966   4.796   4.239  10.865
    1STR    C0I10967   4.721   4.435  11.007
    1STR    O0J10968   4.707   4.353  11.123
    1STR    C0K10969   4.735   4.417  11.247
    1STR    C0M10970   4.617   4.506  11.289
    1STR    C0N10971   4.761   4.305  11.349
    1STR    O0O10972   4.810   4.357  11.472
    1STR    C0P10973   4.729   4.370  11.577
    1STR    O0Q10974   4.610   4.339  11.579
    1STR    N0R10975   4.797   4.423  11.679
    1STR    C0S10976   4.755   4.457  11.808
    1STR    C0T10977   4.836   4.545  11.882
    1STR    C0U10978   4.797   4.587  12.011
    1STR    C0V10979   4.678   4.539  12.069
    1STR    C0W10980   4.637   4.591  12.206
    1STR    C0X10981   4.600   4.445  11.999
    1STR    N0Y10982   4.484   4.392  12.055
    1STR   BCK210983   4.475   4.309  12.159
    1STR    O1010984   4.365   4.271  12.199
    1STR    C1310985   4.637   4.406  11.868
    1STR    C1410986   4.719   4.588  10.018
    1STR    C1510987   4.749   4.604   9.882
    1STR    C1610988   4.682   4.528   9.785
    1STR    C1710989   4.727   4.541   9.640
    1STR    H1B10990   4.516   4.266   9.734
    1STR    H1C10991   4.471   4.355   9.991
    1STR    H1D10992   4.512   4.419  10.220
    1STR    H1E10993   4.766   4.516  10.537
    1STR    H1F10994   4.488   4.631  10.596
    1STR    H1G10995   4.637   4.675  10.679
    1STR    H1H10996   4.617   4.715  10.509
    1STR    H1I10997   4.676   4.301  10.617
    1STR    H1J10998   4.528   4.381  10.669
    1STR    H1K10999   4.592   4.309  10.891
    1STR    H1M11000   4.897   4.279  10.852
    1STR    H1N11001   4.775   4.175  10.780
    1STR    H1O11002   4.798   4.175  10.953
    1STR    H1P11003   4.822   4.477  11.002
    1STR    H1Q11004   4.652   4.519  11.011
    1STR    H1R11005   4.826   4.477  11.238
    1STR    H1S11006   4.635   4.553  11.386
    1STR    H1T11007   4.525   4.448  11.297
    1STR    H1U11008   4.599   4.588  11.218
    1STR    H1V11009   4.838   4.237  11.310
    1STR    H1W11010   4.672   4.243  11.363
    1STR    H1X11011   4.892   4.442  11.653
    1STR    H1Y11012   4.927   4.585  11.840
    1STR    H1Z11013   4.859   4.657  12.065
    1STR    H2011014   4.528   4.596  12.214
    1STR    H2111015   4.673   4.524  12.284
    1STR    H2211016   4.676   4.690  12.224
    1STR    H2311017   4.396   4.412  12.011
    1STR    H2711018   4.575   4.335  11.816
    1STR    H2811019   4.774   4.649  10.087
    1STR    H2911020   4.827   4.673   9.853
    1STR    H2A11021   4.717   4.446   9.587
    1STR    H2B11022   4.832   4.571   9.634
    1STR    H2C11023   4.667   4.616   9.589
    1STR   BCK111024   4.366   4.419  13.976
    1STR    O0311025   4.324   4.311  13.935
    1STR    N0411026   4.325   4.481  14.088
    1STR    C0511027   4.218   4.451  14.173
    1STR    C0611028   4.238   4.451  14.314
    1STR    C0711029   4.130   4.435  14.406
    1STR    N0811030   4.154   4.440  14.545
    1STR    C0911031   4.067   4.458  14.646
    1STR    O0A11032   3.946   4.474  14.633
    1STR    O0B11033   4.130   4.456  14.767
    1STR    C0C11034   4.053   4.462  14.889
    1STR    C0D11035   4.002   4.321  14.924
    1STR    C0E11036   4.135   4.523  15.005
    1STR    O0F11037   4.055   4.530  15.124
    1STR    C0G11038   4.118   4.588  15.239
    1STR    C0H11039   4.117   4.741  15.225
    1STR    C0I11040   4.042   4.544  15.366
    1STR    O0J11041   4.111   4.592  15.483
    1STR    C0K11042   4.052   4.561  15.609
    1STR    C0M11043   4.073   4.413  15.644
    1STR    C0N11044   4.117   4.652  15.715
    1STR    O0O11045   4.055   4.639  15.843
    1STR    C0P11046   4.118   4.581  15.947
    1STR    O0Q11047   4.229   4.529  15.941
    1STR    N0R11048   4.042   4.589  16.056
    1STR    C0S11049   4.059   4.542  16.187
    1STR    C0T11050   3.951   4.559  16.276
    1STR    C0U11051   3.957   4.509  16.407
    1STR    C0V11052   4.072   4.441  16.453
    1STR    C0W11053   4.067   4.379  16.592
    1STR    C0X11054   4.185   4.429  16.368
    1STR    N0Y11055   4.300   4.360  16.406
    1STR   BCK211056   4.373   4.372  16.518
    1STR    O1011057   4.354   4.457  16.605
    1STR    C1311058   4.176   4.478  16.235
    1STR    C1411059   4.001   4.414  14.352
    1STR    C1511060   3.980   4.415  14.213
    1STR    C1611061   4.086   4.435  14.123
    1STR    C1711062   4.053   4.446  13.975
    1STR    H1B11063   4.379   4.562  14.110
    1STR    H1C11064   4.338   4.466  14.352
    1STR    H1D11065   4.249   4.432  14.577
    1STR    H1E11066   3.967   4.528  14.873
    1STR    H1F11067   4.084   4.252  14.941
    1STR    H1G11068   3.940   4.324  15.014
    1STR    H1H11069   3.940   4.281  14.843
    1STR    H1I11070   4.169   4.622  14.976
    1STR    H1J11071   4.224   4.462  15.023
    1STR    H1K11072   4.221   4.552  15.247
    1STR    H1M11073   4.016   4.779  15.212
    1STR    H1N11074   4.177   4.776  15.141
    1STR    H1O11075   4.158   4.788  15.314
    1STR    H1P11076   3.940   4.582  15.364
    1STR    H1Q11077   4.036   4.435  15.368
    1STR    H1R11078   3.945   4.584  15.606
    1STR    H1S11079   4.034   4.390  15.743
    1STR    H1T11080   4.180   4.388  15.646
    1STR    H1U11081   4.024   4.346  15.574
    1STR    H1V11082   4.107   4.756  15.685
    1STR    H1W11083   4.225   4.634  15.721
    1STR    H1X11084   3.956   4.637  16.035
    1STR    H1Y11085   3.861   4.609  16.245
    1STR    H1Z11086   3.872   4.521  16.472
    1STR    H2011087   4.125   4.287  16.596
    1STR    H2111088   4.107   4.449  16.666
    1STR    H2211089   3.965   4.354  16.621
    1STR    H2311090   4.338   4.295  16.340
    1STR    H2711091   4.261   4.465  16.170
    1STR    H2811092   3.915   4.399  14.415
    1STR    H2911093   3.879   4.401  14.176
    1STR    H2A11094   4.115   4.521  13.926
    1STR    H2B11095   3.949   4.474  13.959
    1STR    H2C11096   4.070   4.350  13.926
    1STR   BCK111097   4.493   8.729   0.916
    1STR    O0311098   4.615   8.729   0.902
    1STR    N0411099   4.428   8.660   1.009
    1STR    C0511100   4.483   8.569   1.099
    1STR    C0611101   4.466   8.587   1.238
    1STR    C0711102   4.515   8.493   1.332
    1STR    N0811103   4.492   8.512   1.469
    1STR    C0911104   4.544   8.449   1.575
    1STR    O0A11105   4.632   8.363   1.570
    1STR    O0B11106   4.489   8.492   1.690
    1STR    C0C11107   4.534   8.438   1.815
    1STR    C0D11108   4.662   8.511   1.859
    1STR    C0E11109   4.423   8.449   1.921
    1STR    O0F11110   4.470   8.388   2.042
    1STR    C0G11111   4.380   8.391   2.152
    1STR    C0H11112   4.278   8.277   2.137
    1STR    C0I11113   4.463   8.375   2.280
    1STR    O0J11114   4.378   8.394   2.393
    1STR    C0K11115   4.440   8.373   2.520
    1STR    C0M11116   4.533   8.491   2.556
    1STR    C0N11117   4.328   8.358   2.624
    1STR    O0O11118   4.383   8.309   2.746
    1STR    C0P11119   4.391   8.385   2.856
    1STR    O0Q11120   4.349   8.500   2.868
    1STR    N0R11121   4.453   8.314   2.949
    1STR    C0S11122   4.486   8.338   3.082
    1STR    C0T11123   4.555   8.234   3.147
    1STR    C0U11124   4.585   8.243   3.284
    1STR    C0V11125   4.545   8.355   3.359
    1STR    C0W11126   4.567   8.346   3.508
    1STR    C0X11127   4.481   8.465   3.295
    1STR    N0Y11128   4.430   8.575   3.366
    1STR   BCK211129   4.475   8.653   3.465
    1STR    O1011130   4.400   8.737   3.514
    1STR    C1311131   4.451   8.454   3.157
    1STR    C1411132   4.583   8.379   1.282
    1STR    C1511133   4.600   8.360   1.144
    1STR    C1611134   4.549   8.453   1.052
    1STR    C1711135   4.561   8.422   0.903
    1STR    H1B11136   4.328   8.670   1.008
    1STR    H1C11137   4.414   8.675   1.273
    1STR    H1D11138   4.428   8.584   1.496
    1STR    H1E11139   4.556   8.332   1.802
    1STR    H1F11140   4.644   8.617   1.874
    1STR    H1G11141   4.700   8.469   1.952
    1STR    H1H11142   4.741   8.500   1.784
    1STR    H1I11143   4.333   8.398   1.886
    1STR    H1J11144   4.397   8.553   1.938
    1STR    H1K11145   4.329   8.487   2.156
    1STR    H1M11146   4.328   8.180   2.127
    1STR    H1N11147   4.214   8.290   2.050
    1STR    H1O11148   4.213   8.272   2.224
    1STR    H1P11149   4.510   8.277   2.282
    1STR    H1Q11150   4.543   8.450   2.280
    1STR    H1R11151   4.497   8.280   2.518
    1STR    H1S11152   4.576   8.477   2.655
    1STR    H1T11153   4.478   8.585   2.557
    1STR    H1U11154   4.616   8.501   2.486
    1STR    H1V11155   4.255   8.285   2.590
    1STR    H1W11156   4.273   8.451   2.638
    1STR    H1X11157   4.478   8.224   2.911
    1STR    H1Y11158   4.584   8.145   3.094
    1STR    H1Z11159   4.635   8.161   3.332
    1STR    H2011160   4.666   8.383   3.532
    1STR    H2111161   4.491   8.403   3.563
    1STR    H2211162   4.560   8.243   3.543
    1STR    H2311163   4.339   8.606   3.337
    1STR    H2711164   4.399   8.534   3.107
    1STR    H2811165   4.623   8.303   1.347
    1STR    H2911166   4.651   8.271   1.109
    1STR    H2A11167   4.472   8.452   0.849
    1STR    H2B11168   4.576   8.316   0.886
    1STR    H2C11169   4.647   8.475   0.861
    1STR   BCK111170   4.434   8.783   5.244
    1STR    O0311171   4.341   8.839   5.187
    1STR    N0411172   4.482   8.815   5.365
    1STR    C0511173   4.445   8.917   5.454
    1STR    C0611174   4.442   8.887   5.593
    1STR    C0711175   4.415   8.987   5.690
    1STR    N0811176   4.421   8.955   5.827
    1STR    C0911177   4.433   9.037   5.933
    1STR    O0A11178   4.444   9.159   5.926
    1STR    O0B11179   4.433   8.969   6.050
    1STR    C0C11180   4.433   9.041   6.174
    1STR    C0D11181   4.288   9.075   6.211
    1STR    C0E11182   4.502   8.960   6.286
    1STR    O0F11183   4.504   9.040   6.405
    1STR    C0G11184   4.568   8.982   6.519
    1STR    C0H11185   4.720   8.995   6.504
    1STR    C0I11186   4.518   9.056   6.644
    1STR    O0J11187   4.575   8.996   6.761
    1STR    C0K11188   4.540   9.056   6.886
    1STR    C0M11189   4.398   9.014   6.927
    1STR    C0N11190   4.646   9.009   6.988
    1STR    O0O11191   4.631   9.074   7.114
    1STR    C0P11192   4.579   9.008   7.219
    1STR    O0Q11193   4.533   8.895   7.214
    1STR    N0R11194   4.584   9.085   7.328
    1STR    C0S11195   4.541   9.062   7.459
    1STR    C0T11196   4.539   9.171   7.548
    1STR    C0U11197   4.492   9.155   7.680
    1STR    C0V11198   4.445   9.030   7.726
    1STR    C0W11199   4.384   9.022   7.865
    1STR    C0X11200   4.451   8.918   7.639
    1STR    N0Y11201   4.401   8.793   7.673
    1STR   BCK211202   4.429   8.708   7.772
    1STR    O1011203   4.374   8.599   7.774
    1STR    C1311204   4.498   8.936   7.507
    1STR    C1411205   4.384   9.117   5.645
    1STR    C1511206   4.389   9.148   5.508
    1STR    C1611207   4.423   9.051   5.412
    1STR    C1711208   4.441   9.098   5.269
    1STR    H1B11209   4.558   8.756   5.393
    1STR    H1C11210   4.463   8.786   5.625
    1STR    H1D11211   4.418   8.858   5.854
    1STR    H1E11212   4.490   9.133   6.163
    1STR    H1F11213   4.227   8.986   6.225
    1STR    H1G11214   4.284   9.133   6.303
    1STR    H1H11215   4.241   9.136   6.133
    1STR    H1I11216   4.603   8.935   6.255
    1STR    H1J11217   4.449   8.866   6.304
    1STR    H1K11218   4.540   8.877   6.528
    1STR    H1M11219   4.750   9.099   6.490
    1STR    H1N11220   4.759   8.938   6.419
    1STR    H1O11221   4.771   8.958   6.593
    1STR    H1P11222   4.545   9.161   6.639
    1STR    H1Q11223   4.409   9.051   6.648
    1STR    H1R11224   4.547   9.165   6.878
    1STR    H1S11225   4.372   9.055   7.025
    1STR    H1T11226   4.390   8.905   6.934
    1STR    H1U11227   4.323   9.049   6.857
    1STR    H1V11228   4.745   9.033   6.951
    1STR    H1W11229   4.643   8.900   6.998
    1STR    H1X11230   4.623   9.175   7.306
    1STR    H1Y11231   4.571   9.269   7.517
    1STR    H1Z11232   4.488   9.241   7.746
    1STR    H2011233   4.308   8.944   7.870
    1STR    H2111234   4.461   9.000   7.939
    1STR    H2211235   4.336   9.116   7.892
    1STR    H2311236   4.336   8.752   7.608
    1STR    H2711237   4.500   8.850   7.442
    1STR    H2811238   4.359   9.197   5.713
    1STR    H2911239   4.369   9.250   5.477
    1STR    H2A11240   4.518   9.040   5.218
    1STR    H2B11241   4.472   9.202   5.266
    1STR    H2C11242   4.347   9.089   5.214
    1STR   BCK111243   4.379   8.695   9.625
    1STR    O0311244   4.411   8.582   9.589
    1STR    N0411245   4.302   8.724   9.731
    1STR    C0511246   4.232   8.637   9.815
    1STR    C0611247   4.242   8.652   9.956
    1STR    C0711248   4.167   8.572  10.046
    1STR    N0811249   4.177   8.594  10.186
    1STR    C0911250   4.111   8.537  10.288
    1STR    O0A11251   4.027   8.449  10.277
    1STR    O0B11252   4.149   8.589  10.408
    1STR    C0C11253   4.095   8.535  10.530
    1STR    C0D11254   4.176   8.409  10.568
    1STR    C0E11255   4.097   8.639  10.643
    1STR    O0F11256   4.040   8.581  10.762
    1STR    C0G11257   4.032   8.667  10.876
    1STR    C0H11258   3.911   8.760  10.862
    1STR    C0I11259   4.021   8.580  11.003
    1STR    O0J11260   4.026   8.664  11.119
    1STR    C0K11261   4.013   8.598  11.245
    1STR    C0M11262   4.144   8.524  11.281
    1STR    C0N11263   3.981   8.706  11.350
    1STR    O0O11264   3.950   8.649  11.478
    1STR    C0P11265   4.037   8.658  11.580
    1STR    O0Q11266   4.150   8.706  11.574
    1STR    N0R11267   3.981   8.605  11.689
    1STR    C0S11268   4.027   8.587  11.820
    1STR    C0T11269   3.940   8.523  11.910
    1STR    C0U11270   3.980   8.494  12.041
    1STR    C0V11271   4.109   8.528  12.086
    1STR    C0W11272   4.152   8.480  12.224
    1STR    C0X11273   4.197   8.599  12.000
    1STR    N0Y11274   4.326   8.634  12.038
    1STR   BCK211275   4.367   8.700  12.147
    1STR    O1011276   4.294   8.743  12.235
    1STR    C1311277   4.156   8.626  11.867
    1STR    C1411278   4.082   8.473   9.991
    1STR    C1511279   4.070   8.458   9.852
    1STR    C1611280   4.142   8.540   9.763
    1STR    C1711281   4.115   8.526   9.614
    1STR    H1B11282   4.296   8.822   9.751
    1STR    H1C11283   4.309   8.727   9.995
    1STR    H1D11284   4.242   8.663  10.217
    1STR    H1E11285   3.991   8.506  10.513
    1STR    H1F11286   4.281   8.433  10.586
    1STR    H1G11287   4.135   8.364  10.658
    1STR    H1H11288   4.171   8.334  10.489
    1STR    H1I11289   4.039   8.726  10.612
    1STR    H1J11290   4.198   8.673  10.663
    1STR    H1K11291   4.124   8.726  10.884
    1STR    H1M11292   3.819   8.702  10.849
    1STR    H1N11293   3.920   8.828  10.778
    1STR    H1O11294   3.898   8.821  10.951
    1STR    H1P11295   3.929   8.522  11.001
    1STR    H1Q11296   4.104   8.509  11.004
    1STR    H1R11297   3.930   8.527  11.242
    1STR    H1S11298   4.137   8.478  11.379
    1STR    H1T11299   4.228   8.593  11.284
    1STR    H1U11300   4.167   8.445  11.210
    1STR    H1V11301   3.893   8.762  11.318
    1STR    H1W11302   4.061   8.779  11.357
    1STR    H1X11303   3.888   8.574  11.668
    1STR    H1Y11304   3.840   8.494  11.880
    1STR    H1Z11305   3.912   8.443  12.108
    1STR    H2011306   4.254   8.443  12.221
    1STR    H2111307   4.146   8.560  12.297
    1STR    H2211308   4.088   8.399  12.260
    1STR    H2311309   4.400   8.611  11.973
    1STR    H2711310   4.224   8.676  11.800
    1STR    H2811311   4.023   8.407  10.052
    1STR    H2911312   4.002   8.383   9.813
    1STR    H2A11313   4.120   8.622   9.564
    1STR    H2B11314   4.016   8.485   9.596
    1STR    H2C11315   4.188   8.458   9.569
    1STR   BCK111316   4.465   8.787  13.991
    1STR    O0311317   4.536   8.886  13.976
    1STR    N0411318   4.482   8.698  14.089
    1STR    C0511319   4.584   8.699  14.183
    1STR    C0611320   4.553   8.699  14.321
    1STR    C0711321   4.655   8.696  14.420
    1STR    N0811322   4.619   8.691  14.556
    1STR    C0911323   4.697   8.695  14.665
    1STR    O0A11324   4.819   8.711  14.665
    1STR    O0B11325   4.624   8.680  14.778
    1STR    C0C11326   4.690   8.685  14.905
    1STR    C0D11327   4.707   8.832  14.947
    1STR    C0E11328   4.613   8.604  15.011
    1STR    O0F11329   4.690   8.605  15.130
    1STR    C0G11330   4.635   8.534  15.241
    1STR    C0H11331   4.663   8.384  15.223
    1STR    C0I11332   4.703   8.588  15.368
    1STR    O0J11333   4.643   8.527  15.482
    1STR    C0K11334   4.700   8.561  15.608
    1STR    C0M11335   4.655   8.702  15.650
    1STR    C0N11336   4.654   8.453  15.708
    1STR    O0O11337   4.723   8.465  15.831
    1STR    C0P11338   4.665   8.521  15.937
    1STR    O0Q11339   4.550   8.564  15.941
    1STR    N0R11340   4.753   8.527  16.037
    1STR    C0S11341   4.742   8.586  16.163
    1STR    C0T11342   4.862   8.629  16.224
    1STR    C0U11343   4.859   8.698  16.346
    1STR    C0V11344   4.736   8.724  16.411
    1STR    C0W11345   4.738   8.810  16.536
    1STR    C0X11346   4.616   8.673  16.355
    1STR    N0Y11347   4.495   8.692  16.421
    1STR   BCK211348   4.450   8.629  16.530
    1STR    O1011349   4.363   8.682  16.597
    1STR    C1311350   4.620   8.606  16.231
    1STR    C1411351   4.789   8.693  14.376
    1STR    C1511352   4.821   8.690  14.239
    1STR    C1611353   4.719   8.690  14.142
    1STR    C1711354   4.759   8.677  13.996
    1STR    H1B11355   4.419   8.619  14.087
    1STR    H1C11356   4.449   8.703  14.351
    1STR    H1D11357   4.522   8.684  14.579
    1STR    H1E11358   4.788   8.639  14.896
    1STR    H1F11359   4.611   8.882  14.958
    1STR    H1G11360   4.761   8.839  15.041
    1STR    H1H11361   4.765   8.887  14.873
    1STR    H1I11362   4.598   8.502  14.975
    1STR    H1J11363   4.514   8.648  15.028
    1STR    H1K11364   4.528   8.552  15.248
    1STR    H1M11365   4.770   8.364  15.211
    1STR    H1N11366   4.611   8.342  15.137
    1STR    H1O11367   4.630   8.328  15.311
    1STR    H1P11368   4.810   8.569  15.365
    1STR    H1Q11369   4.689   8.696  15.372
    1STR    H1R11370   4.809   8.557  15.601
    1STR    H1S11371   4.694   8.728  15.748
    1STR    H1T11372   4.546   8.708  15.656
    1STR    H1U11373   4.688   8.779  15.581
    1STR    H1V11374   4.677   8.355  15.667
    1STR    H1W11375   4.546   8.456  15.721
    1STR    H1X11376   4.842   8.487  16.010
    1STR    H1Y11377   4.957   8.613  16.176
    1STR    H1Z11378   4.951   8.734  16.389
    1STR    H2011379   4.638   8.839  16.569
    1STR    H2111380   4.789   8.758  16.617
    1STR    H2211381   4.793   8.902  16.516
    1STR    H2311382   4.433   8.764  16.387
    1STR    H2711383   4.527   8.571  16.187
    1STR    H2811384   4.872   8.691  14.444
    1STR    H2911385   4.924   8.686  14.209
    1STR    H2A11386   4.687   8.616  13.941
    1STR    H2B11387   4.856   8.629  13.986
    1STR    H2C11388   4.765   8.775  13.949
    1STR   BCK111389   4.404  13.174   0.888
    1STR    O0311390   4.323  13.092   0.846
    1STR    N0411391   4.394  13.241   1.004
    1STR    C0511392   4.286  13.256   1.091
    1STR    C0611393   4.305  13.242   1.232
    1STR    C0711394   4.203  13.274   1.326
    1STR    N0811395   4.228  13.265   1.464
    1STR    C0911396   4.164  13.324   1.567
    1STR    O0A11397   4.069  13.401   1.554
    1STR    O0B11398   4.216  13.288   1.688
    1STR    C0C11399   4.154  13.333   1.810
    1STR    C0D11400   4.036  13.241   1.844
    1STR    C0E11401   4.256  13.340   1.925
    1STR    O0F11402   4.193  13.388   2.045
    1STR    C0G11403   4.278  13.403   2.159
    1STR    C0H11404   4.360  13.533   2.146
    1STR    C0I11405   4.191  13.407   2.287
    1STR    O0J11406   4.275  13.411   2.404
    1STR    C0K11407   4.208  13.417   2.530
    1STR    C0M11408   4.148  13.280   2.566
    1STR    C0N11409   4.312  13.460   2.636
    1STR    O0O11410   4.251  13.483   2.763
    1STR    C0P11411   4.277  13.403   2.868
    1STR    O0Q11412   4.347  13.302   2.865
    1STR    N0R11413   4.215  13.450   2.977
    1STR    C0S11414   4.207  13.403   3.109
    1STR    C0T11415   4.118  13.470   3.195
    1STR    C0U11416   4.100  13.427   3.328
    1STR    C0V11417   4.170  13.315   3.377
    1STR    C0W11418   4.139  13.266   3.518
    1STR    C0X11419   4.264  13.250   3.294
    1STR    N0Y11420   4.332  13.136   3.338
    1STR   BCK211421   4.409  13.121   3.446
    1STR    O1011422   4.448  13.212   3.519
    1STR    C1311423   4.281  13.293   3.160
    1STR    C1411424   4.078  13.315   1.275
    1STR    C1511425   4.057  13.329   1.137
    1STR    C1611426   4.160  13.302   1.045
    1STR    C1711427   4.134  13.331   0.898
    1STR    H1B11428   4.477  13.293   1.027
    1STR    H1C11429   4.402  13.209   1.267
    1STR    H1D11430   4.305  13.208   1.495
    1STR    H1E11431   4.116  13.435   1.795
    1STR    H1F11432   4.069  13.138   1.861
    1STR    H1G11433   3.986  13.275   1.935
    1STR    H1H11434   3.962  13.240   1.764
    1STR    H1I11435   4.338  13.405   1.896
    1STR    H1J11436   4.299  13.241   1.943
    1STR    H1K11437   4.345  13.318   2.167
    1STR    H1M11438   4.295  13.619   2.133
    1STR    H1N11439   4.429  13.530   2.062
    1STR    H1O11440   4.420  13.550   2.235
    1STR    H1P11441   4.125  13.494   2.285
    1STR    H1Q11442   4.127  13.318   2.289
    1STR    H1R11443   4.129  13.493   2.527
    1STR    H1S11444   4.102  13.282   2.665
    1STR    H1T11445   4.225  13.203   2.568
    1STR    H1U11446   4.071  13.249   2.496
    1STR    H1V11447   4.358  13.554   2.605
    1STR    H1W11448   4.393  13.388   2.642
    1STR    H1X11449   4.165  13.534   2.955
    1STR    H1Y11450   4.060  13.555   3.161
    1STR    H1Z11451   4.029  13.478   3.391
    1STR    H2011452   4.143  13.157   3.522
    1STR    H2111453   4.212  13.305   3.589
    1STR    H2211454   4.039  13.296   3.550
    1STR    H2311455   4.326  13.054   3.280
    1STR    H2711456   4.351  13.241   3.097
    1STR    H2811457   3.995  13.339   1.340
    1STR    H2911458   3.961  13.364   1.102
    1STR    H2A11459   4.221  13.375   0.850
    1STR    H2B11460   4.050  13.400   0.885
    1STR    H2C11461   4.109  13.238   0.845
    1STR   BCK111462   4.464  13.044   5.273
    1STR    O0311463   4.568  12.983   5.254
    1STR    N0411464   4.375  13.016   5.369
    1STR    C0511465   4.379  12.907   5.457
    1STR    C0611466   4.372  12.929   5.597
    1STR    C0711467   4.369  12.820   5.689
    1STR    N0811468   4.358  12.846   5.827
    1STR    C0911469   4.366  12.762   5.932
    1STR    O0A11470   4.392  12.642   5.924
    1STR    O0B11471   4.343  12.826   6.049
    1STR    C0C11472   4.352  12.753   6.172
    1STR    C0D11473   4.500  12.743   6.215
    1STR    C0E11474   4.266  12.819   6.281
    1STR    O0F11475   4.275  12.741   6.401
    1STR    C0G11476   4.201  12.789   6.513
    1STR    C0H11477   4.054  12.749   6.498
    1STR    C0I11478   4.263  12.729   6.640
    1STR    O0J11479   4.201  12.786   6.755
    1STR    C0K11480   4.245  12.736   6.881
    1STR    C0M11481   4.383  12.791   6.917
    1STR    C0N11482   4.140  12.777   6.986
    1STR    O0O11483   4.167  12.712   7.110
    1STR    C0P11484   4.212  12.780   7.216
    1STR    O0Q11485   4.233  12.901   7.221
    1STR    N0R11486   4.229  12.694   7.316
    1STR    C0S11487   4.270  12.708   7.449
    1STR    C0T11488   4.273  12.589   7.524
    1STR    C0U11489   4.309  12.592   7.660
    1STR    C0V11490   4.342  12.713   7.723
    1STR    C0W11491   4.367  12.706   7.872
    1STR    C0X11492   4.342  12.834   7.649
    1STR    N0Y11493   4.357  12.959   7.712
    1STR   BCK211494   4.440  13.007   7.806
    1STR    O1011495   4.414  13.113   7.861
    1STR    C1311496   4.306  12.830   7.512
    1STR    C1411497   4.372  12.689   5.636
    1STR    C1511498   4.377  12.667   5.498
    1STR    C1611499   4.378  12.774   5.407
    1STR    C1711500   4.373  12.744   5.259
    1STR    H1B11501   4.297  13.078   5.375
    1STR    H1C11502   4.371  13.030   5.634
    1STR    H1D11503   4.342  12.940   5.856
    1STR    H1E11504   4.313  12.652   6.157
    1STR    H1F11505   4.543  12.841   6.232
    1STR    H1G11506   4.510  12.685   6.306
    1STR    H1H11507   4.559  12.693   6.138
    1STR    H1I11508   4.163  12.825   6.247
    1STR    H1J11509   4.301  12.921   6.300
    1STR    H1K11510   4.210  12.898   6.519
    1STR    H1M11511   4.044  12.641   6.487
    1STR    H1N11512   4.006  12.796   6.412
    1STR    H1O11513   3.997  12.778   6.587
    1STR    H1P11514   4.252  12.620   6.640
    1STR    H1Q11515   4.370  12.750   6.641
    1STR    H1R11516   4.248  12.626   6.878
    1STR    H1S11517   4.415  12.757   7.015
    1STR    H1T11518   4.382  12.900   6.920
    1STR    H1U11519   4.460  12.761   6.846
    1STR    H1V11520   4.041  12.745   6.953
    1STR    H1W11521   4.135  12.886   6.996
    1STR    H1X11522   4.204  12.601   7.286
    1STR    H1Y11523   4.245  12.494   7.481
    1STR    H1Z11524   4.308  12.500   7.716
    1STR    H2011525   4.474  12.697   7.890
    1STR    H2111526   4.329  12.795   7.921
    1STR    H2211527   4.319  12.621   7.918
    1STR    H2311528   4.290  13.029   7.685
    1STR    H2711529   4.303  12.922   7.455
    1STR    H2811530   4.369  12.602   5.699
    1STR    H2911531   4.377  12.565   5.461
    1STR    H2A11532   4.312  12.816   5.205
    1STR    H2B11533   4.331  12.645   5.240
    1STR    H2C11534   4.474  12.746   5.217
    1STR   BCK111535   4.445  13.127   9.612
    1STR    O0311536   4.386  13.227   9.574
    1STR    N0411537   4.514  13.119   9.726
    1STR    C0511538   4.539  13.220   9.819
    1STR    C0611539   4.519  13.194   9.957
    1STR    C0711540   4.553  13.289  10.057
    1STR    N0811541   4.538  13.257  10.193
    1STR    C0911542   4.593  13.316  10.300
    1STR    O0A11543   4.670  13.412  10.296
    1STR    O0B11544   4.554  13.257  10.415
    1STR    C0C11545   4.592  13.315  10.540
    1STR    C0D11546   4.487  13.421  10.579
    1STR    C0E11547   4.607  13.207  10.649
    1STR    O0F11548   4.653  13.272  10.768
    1STR    C0G11549   4.676  13.187  10.880
    1STR    C0H11550   4.812  13.117  10.864
    1STR    C0I11551   4.674  13.277  11.006
    1STR    O0J11552   4.689  13.195  11.122
    1STR    C0K11553   4.693  13.265  11.246
    1STR    C0M11554   4.551  13.307  11.288
    1STR    C0N11555   4.757  13.169  11.348
    1STR    O0O11556   4.783  13.234  11.472
    1STR    C0P11557   4.703  13.213  11.577
    1STR    O0Q11558   4.602  13.143  11.577
    1STR    N0R11559   4.749  13.282  11.682
    1STR    C0S11560   4.700  13.293  11.813
    1STR    C0T11561   4.751  13.396  11.894
    1STR    C0U11562   4.703  13.415  12.025
    1STR    C0V11563   4.603  13.331  12.078
    1STR    C0W11564   4.548  13.360  12.216
    1STR    C0X11565   4.555  13.223  12.000
    1STR    N0Y11566   4.456  13.137  12.047
    1STR   BCK211567   4.461  13.051  12.149
    1STR    O1011568   4.364  12.982  12.176
    1STR    C1311569   4.602  13.206  11.868
    1STR    C1411570   4.603  13.414  10.013
    1STR    C1511571   4.625  13.440   9.877
    1STR    C1611572   4.597  13.343   9.780
    1STR    C1711573   4.638  13.373   9.637
    1STR    H1B11574   4.557  13.029   9.742
    1STR    H1C11575   4.478  13.098   9.987
    1STR    H1D11576   4.482  13.178  10.217
    1STR    H1E11577   4.689  13.363  10.531
    1STR    H1F11578   4.388  13.377  10.591
    1STR    H1G11579   4.514  13.470  10.672
    1STR    H1H11580   4.480  13.498  10.502
    1STR    H1I11581   4.679  13.132  10.616
    1STR    H1J11582   4.512  13.157  10.667
    1STR    H1K11583   4.596  13.114  10.890
    1STR    H1M11584   4.892  13.189  10.851
    1STR    H1N11585   4.813  13.049  10.780
    1STR    H1O11586   4.835  13.058  10.953
    1STR    H1P11587   4.754  13.351  11.000
    1STR    H1Q11588   4.580  13.331  11.009
    1STR    H1R11589   4.757  13.353  11.237
    1STR    H1S11590   4.552  13.356  11.385
    1STR    H1T11591   4.486  13.220  11.296
    1STR    H1U11592   4.506  13.377  11.218
    1STR    H1V11593   4.853  13.134  11.309
    1STR    H1W11594   4.696  13.080  11.360
    1STR    H1X11595   4.831  13.334  11.658
    1STR    H1Y11596   4.826  13.464  11.856
    1STR    H1Z11597   4.741  13.496  12.084
    1STR    H2011598   4.443  13.330  12.224
    1STR    H2111599   4.604  13.305  12.292
    1STR    H2211600   4.553  13.466  12.239
    1STR    H2311601   4.370  13.132  11.996
    1STR    H2711602   4.563  13.124  11.810
    1STR    H2811603   4.627  13.493  10.083
    1STR    H2911604   4.667  13.535   9.848
    1STR    H2A11605   4.670  13.282   9.585
    1STR    H2B11606   4.721  13.443   9.633
    1STR    H2C11607   4.554  13.416   9.582
    1STR   BCK111608   4.359  13.105  13.979
    1STR    O0311609   4.344  12.990  13.939
    1STR    N0411610   4.302  13.158  14.088
    1STR    C0511611   4.204  13.103  14.173
    1STR    C0611612   4.222  13.111  14.314
    1STR    C0711613   4.121  13.068  14.405
    1STR    N0811614   4.141  13.081  14.544
    1STR    C0911615   4.054  13.069  14.646
    1STR    O0A11616   3.934  13.043  14.633
    1STR    O0B11617   4.113  13.089  14.767
    1STR    C0C11618   4.038  13.069  14.888
    1STR    C0D11619   4.038  12.920  14.924
    1STR    C0E11620   4.094  13.155  15.004
    1STR    O0F11621   4.016  13.135  15.122
    1STR    C0G11622   4.055  13.211  15.237
    1STR    C0H11623   4.002  13.355  15.223
    1STR    C0I11624   3.999  13.144  15.364
    1STR    O0J11625   4.047  13.212  15.481
    1STR    C0K11626   4.001  13.163  15.607
    1STR    C0M11627   4.072  13.031  15.642
    1STR    C0N11628   4.031  13.272  15.712
    1STR    O0O11629   3.977  13.238  15.840
    1STR    C0P11630   4.057  13.203  15.942
    1STR    O0Q11631   4.179  13.189  15.935
    1STR    N0R11632   3.984  13.185  16.052
    1STR    C0S11633   4.018  13.146  16.182
    1STR    C0T11634   3.912  13.122  16.272
    1STR    C0U11635   3.937  13.077  16.403
    1STR    C0V11636   4.069  13.055  16.448
    1STR    C0W11637   4.088  12.993  16.585
    1STR    C0X11638   4.177  13.087  16.362
    1STR    N0Y11639   4.311  13.071  16.400
    1STR   BCK211640   4.373  13.117  16.509
    1STR    O1011641   4.319  13.175  16.602
    1STR    C1311642   4.150  13.129  16.229
    1STR    C1411643   4.003  13.013  14.350
    1STR    C1511644   3.984  13.006  14.211
    1STR    C1611645   4.082  13.053  14.122
    1STR    C1711646   4.049  13.053  13.973
    1STR    H1B11647   4.335  13.250  14.110
    1STR    H1C11648   4.314  13.151  14.352
    1STR    H1D11649   4.233  13.104  14.576
    1STR    H1E11650   3.935  13.102  14.872
    1STR    H1F11651   4.138  12.883  14.942
    1STR    H1G11652   3.979  12.902  15.014
    1STR    H1H11653   3.994  12.860  14.844
    1STR    H1I11654   4.092  13.260  14.974
    1STR    H1J11655   4.198  13.129  15.022
    1STR    H1K11656   4.164  13.212  15.245
    1STR    H1M11657   3.893  13.355  15.210
    1STR    H1N11658   4.046  13.408  15.139
    1STR    H1O11659   4.024  13.413  15.313
    1STR    H1P11660   3.890  13.144  15.362
    1STR    H1Q11661   4.030  13.039  15.366
    1STR    H1R11662   3.893  13.147  15.604
    1STR    H1S11663   4.042  12.996  15.741
    1STR    H1T11664   4.181  13.044  15.644
    1STR    H1U11665   4.050  12.951  15.572
    1STR    H1V11666   3.985  13.365  15.681
    1STR    H1W11667   4.139  13.292  15.717
    1STR    H1X11668   3.887  13.201  16.033
    1STR    H1Y11669   3.809  13.137  16.242
    1STR    H1Z11670   3.854  13.056  16.469
    1STR    H2011671   4.176  12.930  16.587
    1STR    H2111672   4.099  13.071  16.661
    1STR    H2211673   4.003  12.931  16.613
    1STR    H2311674   4.372  13.026  16.334
    1STR    H2711675   4.233  13.149  16.164
    1STR    H2811676   3.923  12.975  14.412
    1STR    H2911677   3.891  12.966  14.173
    1STR    H2A11678   4.091  13.141  13.924
    1STR    H2B11679   3.941  13.055  13.957
    1STR    H2C11680   4.089  12.964  13.926
    1STR   BCK111681   8.853   0.037   0.909
    1STR    O0311682   8.968   0.077   0.896
    1STR    N0411683   8.813  17.393   1.005
    1STR    C0511684   8.895  17.329   1.098
    1STR    C0611685   8.871  17.343   1.237
    1STR    C0711686   8.949  17.273   1.333
    1STR    N0811687   8.919  17.286   1.469
    1STR    C0911688   8.990  17.247   1.576
    1STR    O0A11689   9.102  17.198   1.573
    1STR    O0B11690   8.921  17.269   1.691
    1STR    C0C11691   8.981  17.235   1.816
    1STR    C0D11692   9.076  17.349   1.860
    1STR    C0E11693   8.873  17.207   1.922
    1STR    O0F11694   8.938  17.167   2.043
    1STR    C0G11695   8.851  17.138   2.152
    1STR    C0H11696   8.795  16.996   2.137
    1STR    C0I11697   8.932  17.152   2.282
    1STR    O0J11698   8.843  17.140   2.393
    1STR    C0K11699   8.904  17.136   2.522
    1STR    C0M11700   8.956  17.275   2.562
    1STR    C0N11701   8.797  17.085   2.620
    1STR    O0O11702   8.857  17.044   2.742
    1STR    C0P11703   8.853  17.122   2.851
    1STR    O0Q11704   8.793  17.228   2.863
    1STR    N0R11705   8.930  17.065   2.944
    1STR    C0S11706   8.970  17.107   3.070
    1STR    C0T11707   9.084  17.045   3.123
    1STR    C0U11708   9.135  17.084   3.247
    1STR    C0V11709   9.072  17.185   3.323
    1STR    C0W11710   9.144  17.219   3.451
    1STR    C0X11711   8.950  17.244   3.277
    1STR    N0Y11712   8.863  17.331   3.345
    1STR   BCK211713   8.844  17.402   3.457
    1STR    O1011714   8.739   0.024   3.466
    1STR    C1311715   8.904  17.205   3.148
    1STR    C1411716   9.053  17.189   1.285
    1STR    C1511717   9.076  17.174   1.148
    1STR    C1611718   8.997  17.241   1.053
    1STR    C1711719   9.021  17.212   0.906
    1STR    H1B11720   8.716  17.368   1.003
    1STR    H1C11721   8.792  17.408   1.269
    1STR    H1D11722   8.833  17.331   1.495
    1STR    H1E11723   9.039  17.143   1.805
    1STR    H1F11724   9.022   0.002   1.874
    1STR    H1G11725   9.125  17.324   1.954
    1STR    H1H11726   9.154  17.365   1.786
    1STR    H1I11727   8.807  17.128   1.886
    1STR    H1J11728   8.812  17.296   1.938
    1STR    H1K11729   8.769  17.211   2.156
    1STR    H1M11730   8.875  16.923   2.127
    1STR    H1N11731   8.731  16.986   2.049
    1STR    H1O11732   8.735  16.968   2.223
    1STR    H1P11733   9.010  17.076   2.286
    1STR    H1Q11734   8.982  17.249   2.283
    1STR    H1R11735   8.986  17.064   2.521
    1STR    H1S11736   8.999  17.274   2.662
    1STR    H1T11737   8.876  17.349   2.562
    1STR    H1U11738   9.034  17.312   2.495
    1STR    H1V11739   8.748  16.997   2.578
    1STR    H1W11740   8.718  17.159   2.636
    1STR    H1X11741   8.968  16.979   2.909
    1STR    H1Y11742   9.136  16.968   3.068
    1STR    H1Z11743   9.224  17.036   3.283
    1STR    H2011744   9.159  17.327   3.457
    1STR    H2111745   9.090  17.178   3.535
    1STR    H2211746   9.244  17.176   3.454
    1STR    H2311747   8.777  17.346   3.294
    1STR    H2711748   8.814  17.250   3.108
    1STR    H2811749   9.116  17.133   1.352
    1STR    H2911750   9.155  17.107   1.115
    1STR    H2A11751   8.927  17.209   0.851
    1STR    H2B11752   9.071  17.116   0.891
    1STR    H2C11753   9.084  17.290   0.862
    1STR   BCK111754   8.801   0.055   5.251
    1STR    O0311755   8.800  17.378   5.214
    1STR    N0411756   8.754   0.082   5.374
    1STR    C0511757   8.727   0.194   5.454
    1STR    C0611758   8.744   0.178   5.594
    1STR    C0711759   8.700   0.275   5.689
    1STR    N0811760   8.715   0.250   5.827
    1STR    C0911761   8.688   0.328   5.933
    1STR    O0A11762   8.645   0.443   5.926
    1STR    O0B11763   8.714   0.264   6.050
    1STR    C0C11764   8.683   0.329   6.175
    1STR    C0D11765   8.534   0.309   6.208
    1STR    C0E11766   8.773   0.277   6.288
    1STR    O0F11767   8.746   0.350   6.408
    1STR    C0G11768   8.826   0.317   6.522
    1STR    C0H11769   8.965   0.382   6.508
    1STR    C0I11770   8.754   0.367   6.649
    1STR    O0J11771   8.827   0.326   6.765
    1STR    C0K11772   8.774   0.369   6.891
    1STR    C0M11773   8.651   0.285   6.928
    1STR    C0N11774   8.887   0.353   6.995
    1STR    O0O11775   8.848   0.408   7.121
    1STR    C0P11776   8.827   0.330   7.228
    1STR    O0Q11777   8.833   0.207   7.228
    1STR    N0R11778   8.797   0.406   7.333
    1STR    C0S11779   8.765   0.372   7.465
    1STR    C0T11780   8.710   0.474   7.546
    1STR    C0U11781   8.671   0.446   7.679
    1STR    C0V11782   8.687   0.317   7.734
    1STR    C0W11783   8.634   0.290   7.874
    1STR    C0X11784   8.748   0.216   7.656
    1STR    N0Y11785   8.765   0.087   7.704
    1STR   BCK211786   8.833   0.048   7.813
    1STR    O1011787   8.901   0.122   7.883
    1STR    C1311788   8.784   0.244   7.522
    1STR    C1411789   8.639   0.391   5.638
    1STR    C1511790   8.623   0.411   5.500
    1STR    C1611791   8.666   0.314   5.407
    1STR    C1711792   8.636   0.341   5.261
    1STR    H1B11793   8.733  17.434   5.418
    1STR    H1C11794   8.790   0.087   5.631
    1STR    H1D11795   8.752   0.161   5.855
    1STR    H1E11796   8.703   0.436   6.165
    1STR    H1F11797   8.509   0.204   6.220
    1STR    H1G11798   8.508   0.361   6.300
    1STR    H1H11799   8.470   0.350   6.129
    1STR    H1I11800   8.877   0.289   6.259
    1STR    H1J11801   8.756   0.170   6.304
    1STR    H1K11802   8.836   0.209   6.530
    1STR    H1M11803   8.956   0.490   6.494
    1STR    H1N11804   9.021   0.342   6.424
    1STR    H1O11805   9.025   0.365   6.597
    1STR    H1P11806   8.745   0.476   6.646
    1STR    H1Q11807   8.653   0.326   6.651
    1STR    H1R11808   8.748   0.474   6.886
    1STR    H1S11809   8.614   0.312   7.027
    1STR    H1T11810   8.676   0.178   6.931
    1STR    H1U11811   8.569   0.298   6.859
    1STR    H1V11812   8.976   0.406   6.962
    1STR    H1W11813   8.916   0.248   7.004
    1STR    H1X11814   8.797   0.503   7.308
    1STR    H1Y11815   8.694   0.573   7.508
    1STR    H1Z11816   8.626   0.525   7.738
    1STR    H2011817   8.595   0.188   7.881
    1STR    H2111818   8.714   0.301   7.947
    1STR    H2211819   8.553   0.358   7.900
    1STR    H2311820   8.729   0.011   7.649
    1STR    H2711821   8.829   0.165   7.463
    1STR    H2811822   8.599   0.468   5.702
    1STR    H2911823   8.575   0.501   5.466
    1STR    H2A11824   8.724   0.384   5.213
    1STR    H2B11825   8.555   0.413   5.250
    1STR    H2C11826   8.607   0.251   5.208
    1STR   BCK111827   8.767  17.396   9.624
    1STR    O0311828   8.828  17.294   9.593
    1STR    N0411829   8.684  17.406   9.728
    1STR    C0511830   8.638  17.306   9.814
    1STR    C0611831   8.643  17.325   9.955
    1STR    C0711832   8.591  17.229  10.046
    1STR    N0811833   8.594  17.254  10.185
    1STR    C0911834   8.552  17.179  10.288
    1STR    O0A11835   8.506  17.066  10.279
    1STR    O0B11836   8.569  17.242  10.407
    1STR    C0C11837   8.537  17.174  10.529
    1STR    C0D11838   8.655  17.084  10.569
    1STR    C0E11839   8.501  17.273  10.642
    1STR    O0F11840   8.468  17.200  10.761
    1STR    C0G11841   8.431  17.279  10.874
    1STR    C0H11842   8.285  17.324  10.860
    1STR    C0I11843   8.450  17.193  11.002
    1STR    O0J11844   8.427  17.274  11.117
    1STR    C0K11845   8.436  17.208  11.244
    1STR    C0M11846   8.584  17.182  11.280
    1STR    C0N11847   8.369  17.300  11.348
    1STR    O0O11848   8.357  17.235  11.475
    1STR    C0P11849   8.436  17.270  11.578
    1STR    O0Q11850   8.528  17.351  11.574
    1STR    N0R11851   8.398  17.201  11.686
    1STR    C0S11852   8.445  17.196  11.817
    1STR    C0T11853   8.376  17.111  11.906
    1STR    C0U11854   8.421  17.093  12.038
    1STR    C0V11855   8.536  17.160  12.084
    1STR    C0W11856   8.588  17.124  12.222
    1STR    C0X11857   8.604  17.251  11.999
    1STR    N0Y11858   8.720  17.317  12.039
    1STR   BCK211859   8.740  17.392  12.148
    1STR    O1011860   8.654  17.421  12.231
    1STR    C1311861   8.559  17.267  11.865
    1STR    C1411862   8.535  17.111   9.991
    1STR    C1511863   8.529  17.091   9.852
    1STR    C1611864   8.577  17.188   9.763
    1STR    C1711865   8.556  17.165   9.614
    1STR    H1B11866   8.650   0.060   9.744
    1STR    H1C11867   8.687  17.415   9.993
    1STR    H1D11868   8.632  17.342  10.216
    1STR    H1E11869   8.449  17.111  10.513
    1STR    H1F11870   8.745  17.142  10.588
    1STR    H1G11871   8.632  17.028  10.660
    1STR    H1H11872   8.677  17.011  10.491
    1STR    H1I11873   8.417  17.335  10.610
    1STR    H1J11874   8.585  17.340  10.661
    1STR    H1K11875   8.496  17.366  10.883
    1STR    H1M11876   8.218  17.238  10.848
    1STR    H1N11877   8.270  17.390  10.775
    1STR    H1O11878   8.252  17.378  10.949
    1STR    H1P11879   8.383  17.107  11.000
    1STR    H1Q11880   8.552  17.154  11.003
    1STR    H1R11881   8.381  17.114  11.241
    1STR    H1S11882   8.592  17.136  11.378
    1STR    H1T11883   8.640  17.275  11.283
    1STR    H1U11884   8.633  17.115  11.209
    1STR    H1V11885   8.268  17.324  11.315
    1STR    H1W11886   8.421  17.395  11.356
    1STR    H1X11887   8.319  17.143  11.663
    1STR    H1Y11888   8.289  17.057  11.874
    1STR    H1Z11889   8.369  17.026  12.103
    1STR    H2011890   8.695  17.106  12.218
    1STR    H2111891   8.568  17.203  12.294
    1STR    H2211892   8.542  17.033  12.261
    1STR    H2311893   8.800  17.311  11.978
    1STR    H2711894   8.612  17.334  11.800
    1STR    H2811895   8.495  17.032  10.053
    1STR    H2911896   8.483  17.001   9.815
    1STR    H2A11897   8.536  17.259   9.562
    1STR    H2B11898   8.471  17.099   9.597
    1STR    H2C11899   8.644  17.119   9.571
    1STR   BCK111900   8.807   0.064  13.988
    1STR    O0311901   8.827   0.184  13.971
    1STR    N0411902   8.859  17.434  14.089
    1STR    C0511903   8.947   0.042  14.185
    1STR    C0611904   8.916   0.032  14.322
    1STR    C0711905   9.007   0.077  14.422
    1STR    N0811906   8.975   0.060  14.558
    1STR    C0911907   9.049   0.083  14.667
    1STR    O0A11908   9.163   0.128  14.667
    1STR    O0B11909   8.982   0.050  14.780
    1STR    C0C11910   9.042   0.078  14.907
    1STR    C0D11911   9.009   0.223  14.947
    1STR    C0E11912   8.996  17.417  15.013
    1STR    O0F11913   9.068   0.005  15.133
    1STR    C0G11914   9.042  17.360  15.244
    1STR    C0H11915   9.120  17.228  15.226
    1STR    C0I11916   9.087  17.435  15.370
    1STR    O0J11917   9.053  17.358  15.485
    1STR    C0K11918   9.094  17.412  15.610
    1STR    C0M11919   9.001   0.087  15.651
    1STR    C0N11920   9.090  17.296  15.711
    1STR    O0O11921   9.148  17.334  15.835
    1STR    C0P11922   9.071  17.363  15.941
    1STR    O0Q11923   8.949  17.359  15.943
    1STR    N0R11924   9.149  17.399  16.043
    1STR    C0S11925   9.117   0.003  16.171
    1STR    C0T11926   9.217   0.072  16.242
    1STR    C0U11927   9.191   0.124  16.370
    1STR    C0V11928   9.065   0.107  16.430
    1STR    C0W11929   9.040   0.169  16.566
    1STR    C0X11930   8.966   0.031  16.363
    1STR    N0Y11931   8.843   0.008  16.424
    1STR   BCK211932   8.819  17.363  16.525
    1STR    O1011933   8.719  17.379  16.594
    1STR    C1311934   8.992  17.421  16.233
    1STR    C1411935   9.128   0.137  14.379
    1STR    C1511936   9.160   0.145  14.243
    1STR    C1611937   9.073   0.095  14.145
    1STR    C1711938   9.118   0.097  14.000
    1STR    H1B11939   8.837  17.336  14.089
    1STR    H1C11940   8.822  17.428  14.351
    1STR    H1D11941   8.884   0.024  14.580
    1STR    H1E11942   9.150   0.067  14.899
    1STR    H1F11943   8.902   0.238  14.958
    1STR    H1G11944   9.057   0.249  15.041
    1STR    H1H11945   9.046   0.293  14.872
    1STR    H1I11946   9.016  17.316  14.979
    1STR    H1J11947   8.888  17.425  15.030
    1STR    H1K11948   8.935  17.340  15.252
    1STR    H1M11949   9.226  17.247  15.213
    1STR    H1N11950   9.085  17.171  15.141
    1STR    H1O11951   9.108  17.165  15.314
    1STR    H1P11952   9.195   0.014  15.366
    1STR    H1Q11953   9.038   0.092  15.373
    1STR    H1R11954   9.197   0.008  15.604
    1STR    H1S11955   9.028   0.127  15.749
    1STR    H1T11956   8.898   0.054  15.657
    1STR    H1U11957   9.005   0.171  15.582
    1STR    H1V11958   9.148  17.212  15.673
    1STR    H1W11959   8.988  17.259  15.723
    1STR    H1X11960   9.246  17.396  16.017
    1STR    H1Y11961   9.315   0.089  16.199
    1STR    H1Z11962   9.268   0.179  16.422
    1STR    H2011963   8.934   0.189  16.583
    1STR    H2111964   9.075   0.103  16.645
    1STR    H2211965   9.092   0.265  16.576
    1STR    H2311966   8.764   0.063  16.396
    1STR    H2711967   8.914  17.365  16.183
    1STR    H2811968   9.200   0.177  14.447
    1STR    H2911969   9.255   0.189  14.214
    1STR    H2A11970   9.081   0.010  13.946
    1STR    H2B11971   9.227   0.095  13.993
    1STR    H2C11972   9.082   0.187  13.950
    1STR   BCK111973   8.737   4.435   0.893
    1STR    O0311974   8.679   4.335   0.852
    1STR    N0411975   8.707   4.501   1.006
    1STR    C0511976   8.598   4.488   1.092
    1STR    C0611977   8.619   4.483   1.233
    1STR    C0711978   8.511   4.485   1.325
    1STR    N0811979   8.536   4.485   1.464
    1STR    C0911980   8.455   4.520   1.566
    1STR    O0A11981   8.340   4.561   1.553
    1STR    O0B11982   8.515   4.504   1.687
    1STR    C0C11983   8.441   4.527   1.809
    1STR    C0D11984   8.362   4.400   1.843
    1STR    C0E11985   8.535   4.568   1.925
    1STR    O0F11986   8.458   4.592   2.044
    1STR    C0G11987   8.532   4.635   2.159
    1STR    C0H11988   8.565   4.785   2.145
    1STR    C0I11989   8.449   4.608   2.286
    1STR    O0J11990   8.527   4.640   2.403
    1STR    C0K11991   8.462   4.623   2.529
    1STR    C0M11992   8.451   4.474   2.564
    1STR    C0N11993   8.545   4.698   2.636
    1STR    O0O11994   8.481   4.699   2.763
    1STR    C0P11995   8.533   4.631   2.868
    1STR    O0Q11996   8.631   4.558   2.863
    1STR    N0R11997   8.459   4.655   2.977
    1STR    C0S11998   8.467   4.606   3.108
    1STR    C0T11999   8.363   4.643   3.196
    1STR    C0U12000   8.359   4.594   3.327
    1STR    C0V12001   8.459   4.507   3.375
    1STR    C0W12002   8.443   4.448   3.515
    1STR    C0X12003   8.568   4.473   3.291
    1STR    N0Y12004   8.664   4.380   3.332
    1STR   BCK212005   8.739   4.378   3.443
    1STR    O1012006   8.751   4.472   3.521
    1STR    C1312007   8.570   4.522   3.158
    1STR    C1412008   8.380   4.487   1.272
    1STR    C1512009   8.357   4.493   1.134
    1STR    C1612010   8.465   4.495   1.043
    1STR    C1712011   8.433   4.513   0.895
    1STR    H1B12012   8.774   4.573   1.028
    1STR    H1C12013   8.720   4.480   1.270
    1STR    H1D12014   8.627   4.458   1.496
    1STR    H1E12015   8.371   4.609   1.793
    1STR    H1F12016   8.428   4.315   1.861
    1STR    H1G12017   8.302   4.415   1.934
    1STR    H1H12018   8.293   4.373   1.763
    1STR    H1I12019   8.590   4.657   1.896
    1STR    H1J12020   8.609   4.490   1.943
    1STR    H1K12021   8.625   4.578   2.167
    1STR    H1M12022   8.474   4.844   2.132
    1STR    H1N12023   8.631   4.806   2.061
    1STR    H1O12024   8.615   4.822   2.235
    1STR    H1P12025   8.357   4.667   2.284
    1STR    H1Q12026   8.420   4.504   2.288
    1STR    H1R12027   8.362   4.668   2.526
    1STR    H1S12028   8.408   4.460   2.663
    1STR    H1T12029   8.550   4.427   2.566
    1STR    H1U12030   8.389   4.419   2.494
    1STR    H1V12031   8.557   4.802   2.605
    1STR    H1W12032   8.647   4.658   2.641
    1STR    H1X12033   8.384   4.718   2.955
    1STR    H1Y12034   8.282   4.707   3.163
    1STR    H1Z12035   8.276   4.621   3.391
    1STR    H2012036   8.480   4.346   3.518
    1STR    H2112037   8.499   4.507   3.587
    1STR    H2212038   8.338   4.446   3.545
    1STR    H2312039   8.682   4.304   3.269
    1STR    H2712040   8.652   4.494   3.094
    1STR    H2812041   8.293   4.487   1.336
    1STR    H2912042   8.256   4.498   1.098
    1STR    H2A12043   8.506   4.578   0.847
    1STR    H2B12044   8.335   4.557   0.881
    1STR    H2C12045   8.435   4.416   0.845
    1STR   BCK112046   8.846   4.349   5.274
    1STR    O0312047   8.965   4.325   5.259
    1STR    N0412048   8.769   4.295   5.369
    1STR    C0512049   8.806   4.194   5.458
    1STR    C0612050   8.792   4.214   5.598
    1STR    C0712051   8.821   4.111   5.691
    1STR    N0812052   8.802   4.134   5.828
    1STR    C0912053   8.839   4.059   5.934
    1STR    O0A12054   8.906   3.956   5.927
    1STR    O0B12055   8.795   4.112   6.050
    1STR    C0C12056   8.828   4.049   6.174
    1STR    C0D12057   8.969   4.091   6.217
    1STR    C0E12058   8.723   4.082   6.281
    1STR    O0F12059   8.757   4.012   6.401
    1STR    C0G12060   8.670   4.034   6.512
    1STR    C0H12061   8.545   3.944   6.498
    1STR    C0I12062   8.748   4.000   6.640
    1STR    O0J12063   8.669   4.035   6.755
    1STR    C0K12064   8.726   4.001   6.881
    1STR    C0M12065   8.840   4.098   6.916
    1STR    C0N12066   8.614   4.008   6.986
    1STR    O0O12067   8.659   3.951   7.108
    1STR    C0P12068   8.681   4.026   7.217
    1STR    O0Q12069   8.663   4.147   7.227
    1STR    N0R12070   8.726   3.946   7.313
    1STR    C0S12071   8.762   3.966   7.446
    1STR    C0T12072   8.805   3.852   7.515
    1STR    C0U12073   8.837   3.859   7.651
    1STR    C0V12074   8.825   3.979   7.722
    1STR    C0W12075   8.848   3.972   7.872
    1STR    C0X12076   8.786   4.098   7.655
    1STR    N0Y12077   8.761   4.219   7.722
    1STR   BCK212078   8.825   4.288   7.817
    1STR    O1012079   8.769   4.384   7.869
    1STR    C1312080   8.754   4.090   7.517
    1STR    C1412081   8.865   3.987   5.639
    1STR    C1512082   8.877   3.965   5.501
    1STR    C1612083   8.846   4.067   5.410
    1STR    C1712084   8.852   4.035   5.261
    1STR    H1B12085   8.673   4.326   5.369
    1STR    H1C12086   8.759   4.311   5.633
    1STR    H1D12087   8.755   4.218   5.856
    1STR    H1E12088   8.826   3.940   6.160
    1STR    H1F12089   8.975   4.199   6.233
    1STR    H1G12090   8.997   4.041   6.310
    1STR    H1H12091   9.043   4.064   6.142
    1STR    H1I12092   8.624   4.052   6.246
    1STR    H1J12093   8.719   4.190   6.299
    1STR    H1K12094   8.640   4.139   6.518
    1STR    H1M12095   8.573   3.839   6.487
    1STR    H1N12096   8.485   3.972   6.411
    1STR    H1O12097   8.481   3.953   6.585
    1STR    H1P12098   8.774   3.894   6.642
    1STR    H1Q12099   8.842   4.055   6.640
    1STR    H1R12100   8.764   3.899   6.878
    1STR    H1S12101   8.881   4.076   7.015
    1STR    H1T12102   8.805   4.201   6.919
    1STR    H1U12103   8.924   4.093   6.847
    1STR    H1V12104   8.529   3.949   6.952
    1STR    H1W12105   8.577   4.110   6.998
    1STR    H1X12106   8.731   3.852   7.278
    1STR    H1Y12107   8.813   3.756   7.466
    1STR    H1Z12108   8.867   3.769   7.703
    1STR    H2012109   8.954   3.986   7.892
    1STR    H2112110   8.790   4.047   7.925
    1STR    H2212111   8.820   3.875   7.912
    1STR    H2312112   8.676   4.266   7.697
    1STR    H2712113   8.720   4.178   7.465
    1STR    H2812114   8.888   3.903   5.703
    1STR    H2912115   8.909   3.869   5.466
    1STR    H2A12116   8.770   4.084   5.207
    1STR    H2B12117   8.844   3.928   5.243
    1STR    H2C12118   8.946   4.070   5.219
    1STR   BCK112119   8.802   4.416   9.605
    1STR    O0312120   8.718   4.490   9.554
    1STR    N0412121   8.859   4.436   9.724
    1STR    C0512122   8.844   4.541   9.815
    1STR    C0612123   8.835   4.512   9.954
    1STR    C0712124   8.830   4.614  10.052
    1STR    N0812125   8.829   4.581  10.189
    1STR    C0912126   8.859   4.657  10.295
    1STR    O0A12127   8.896   4.774  10.289
    1STR    O0B12128   8.844   4.589  10.411
    1STR    C0C12129   8.859   4.658  10.536
    1STR    C0D12130   8.724   4.723  10.573
    1STR    C0E12131   8.909   4.564  10.647
    1STR    O0F12132   8.929   4.641  10.766
    1STR    C0G12133   8.979   4.571  10.879
    1STR    C0H12134   9.131   4.551  10.864
    1STR    C0I12135   8.947   4.654  11.005
    1STR    O0J12136   8.989   4.583  11.121
    1STR    C0K12137   8.969   4.649  11.246
    1STR    C0M12138   8.821   4.639  11.287
    1STR    C0N12139   9.062   4.581  11.348
    1STR    O0O12140   9.062   4.649  11.473
    1STR    C0P12141   8.996   4.598  11.578
    1STR    O0Q12142   8.926   4.497  11.575
    1STR    N0R12143   9.017   4.674  11.686
    1STR    C0S12144   8.969   4.663  11.817
    1STR    C0T12145   8.988   4.772  11.904
    1STR    C0U12146   8.938   4.769  12.035
    1STR    C0V12147   8.869   4.656  12.084
    1STR    C0W12148   8.807   4.663  12.222
    1STR    C0X12149   8.854   4.543  12.000
    1STR    N0Y12150   8.783   4.430  12.039
    1STR   BCK212151   8.802   4.344  12.140
    1STR    O1012152   8.728   4.247  12.151
    1STR    C1312153   8.904   4.548  11.868
    1STR    C1412154   8.829   4.748  10.007
    1STR    C1512155   8.840   4.779   9.871
    1STR    C1612156   8.852   4.677   9.775
    1STR    C1712157   8.880   4.720   9.632
    1STR    H1B12158   8.926   4.365   9.749
    1STR    H1C12159   8.833   4.409   9.985
    1STR    H1D12160   8.805   4.487  10.215
    1STR    H1E12161   8.934   4.737  10.525
    1STR    H1F12162   8.646   4.648  10.587
    1STR    H1G12163   8.733   4.780  10.666
    1STR    H1H12164   8.692   4.793  10.496
    1STR    H1I12165   9.003   4.518  10.615
    1STR    H1J12166   8.838   4.484  10.665
    1STR    H1K12167   8.929   4.474  10.888
    1STR    H1M12168   9.182   4.646  10.850
    1STR    H1N12169   9.156   4.487  10.779
    1STR    H1O12170   9.173   4.504  10.953
    1STR    H1P12171   8.996   4.751  10.999
    1STR    H1Q12172   8.839   4.672  11.008
    1STR    H1R12173   8.998   4.754  11.237
    1STR    H1S12174   8.804   4.684  11.385
    1STR    H1T12175   8.790   4.535  11.295
    1STR    H1U12176   8.754   4.689  11.217
    1STR    H1V12177   9.164   4.582  11.310
    1STR    H1W12178   9.036   4.475  11.359
    1STR    H1X12179   9.076   4.753  11.664
    1STR    H1Y12180   9.038   4.862  11.870
    1STR    H1Z12181   8.950   4.856  12.099
    1STR    H2012182   8.718   4.600  12.229
    1STR    H2112183   8.879   4.628  12.297
    1STR    H2212184   8.778   4.764  12.248
    1STR    H2312185   8.708   4.400  11.978
    1STR    H2712186   8.890   4.461  11.805
    1STR    H2812187   8.821   4.831  10.076
    1STR    H2912188   8.844   4.883   9.841
    1STR    H2A12189   8.942   4.648   9.580
    1STR    H2B12190   8.932   4.816   9.629
    1STR    H2C12191   8.786   4.731   9.577
    1STR   BCK112192   8.727   4.353  13.983
    1STR    O0312193   8.741   4.237  13.945
    1STR    N0412194   8.657   4.391  14.090
    1STR    C0512195   8.575   4.315  14.174
    1STR    C0612196   8.587   4.328  14.316
    1STR    C0712197   8.500   4.261  14.406
    1STR    N0812198   8.514   4.280  14.545
    1STR    C0912199   8.437   4.239  14.647
    1STR    O0A12200   8.334   4.172  14.635
    1STR    O0B12201   8.486   4.280  14.767
    1STR    C0C12202   8.422   4.237  14.889
    1STR    C0D12203   8.473   4.097  14.926
    1STR    C0E12204   8.445   4.338  15.003
    1STR    O0F12205   8.378   4.293  15.122
    1STR    C0G12206   8.389   4.379  15.236
    1STR    C0H12207   8.290   4.495  15.222
    1STR    C0I12208   8.359   4.296  15.363
    1STR    O0J12209   8.382   4.376  15.480
    1STR    C0K12210   8.355   4.315  15.606
    1STR    C0M12211   8.467   4.215  15.641
    1STR    C0N12212   8.347   4.428  15.711
    1STR    O0O12213   8.306   4.378  15.839
    1STR    C0P12214   8.393   4.370  15.941
    1STR    O0Q12215   8.513   4.395  15.934
    1STR    N0R12216   8.328   4.329  16.050
    1STR    C0S12217   8.371   4.303  16.181
    1STR    C0T12218   8.275   4.252  16.271
    1STR    C0U12219   8.311   4.216  16.402
    1STR    C0V12220   8.444   4.230  16.447
    1STR    C0W12221   8.478   4.176  16.584
    1STR    C0X12222   8.541   4.288  16.361
    1STR    N0Y12223   8.675   4.303  16.398
    1STR   BCK212224   8.726   4.359  16.508
    1STR    O1012225   8.662   4.406  16.601
    1STR    C1312226   8.504   4.321  16.228
    1STR    C1412227   8.401   4.177  14.350
    1STR    C1512228   8.386   4.165  14.211
    1STR    C1612229   8.470   4.235  14.122
    1STR    C1712230   8.440   4.226  13.974
    1STR    H1B12231   8.666   4.489  14.111
    1STR    H1C12232   8.666   4.391  14.355
    1STR    H1D12233   8.593   4.333  14.577
    1STR    H1E12234   8.314   4.232  14.872
    1STR    H1F12235   8.580   4.097  14.944
    1STR    H1G12236   8.423   4.061  15.016
    1STR    H1H12237   8.452   4.025  14.847
    1STR    H1I12238   8.408   4.436  14.973
    1STR    H1J12239   8.552   4.349  15.022
    1STR    H1K12240   8.491   4.417  15.245
    1STR    H1M12241   8.188   4.459  15.209
    1STR    H1N12242   8.313   4.560  15.138
    1STR    H1O12243   8.291   4.558  15.312
    1STR    H1P12244   8.256   4.259  15.361
    1STR    H1Q12245   8.424   4.209  15.365
    1STR    H1R12246   8.259   4.264  15.603
    1STR    H1S12247   8.450   4.171  15.740
    1STR    H1T12248   8.564   4.265  15.644
    1STR    H1U12249   8.473   4.133  15.571
    1STR    H1V12250   8.272   4.500  15.680
    1STR    H1W12251   8.441   4.483  15.717
    1STR    H1X12252   8.231   4.316  16.030
    1STR    H1Y12253   8.173   4.238  16.240
    1STR    H1Z12254   8.237   4.175  16.468
    1STR    H2012255   8.577   4.129  16.584
    1STR    H2112256   8.478   4.255  16.659
    1STR    H2212257   8.407   4.100  16.617
    1STR    H2312258   8.744   4.274  16.331
    1STR    H2712259   8.579   4.362  16.162
    1STR    H2812260   8.332   4.121  14.411
    1STR    H2912261   8.307   4.102  14.172
    1STR    H2A12262   8.459   4.321  13.924
    1STR    H2B12263   8.335   4.201  13.956
    1STR    H2C12264   8.501   4.148  13.928
    1STR   BCK112265   8.837   8.781   0.914
    1STR    O0312266   8.930   8.860   0.900
    1STR    N0412267   8.831   8.688   1.010
    1STR    C0512268   8.931   8.661   1.103
    1STR    C0612269   8.902   8.667   1.241
    1STR    C0712270   9.000   8.635   1.339
    1STR    N0812271   8.965   8.638   1.475
    1STR    C0912272   9.043   8.627   1.583
    1STR    O0A12273   9.166   8.619   1.582
    1STR    O0B12274   8.970   8.626   1.696
    1STR    C0C12275   9.036   8.616   1.823
    1STR    C0D12276   9.084   8.756   1.866
    1STR    C0E12277   8.943   8.553   1.928
    1STR    O0F12278   9.018   8.537   2.049
    1STR    C0G12279   8.949   8.479   2.158
    1STR    C0H12280   8.944   8.326   2.140
    1STR    C0I12281   9.025   8.517   2.286
    1STR    O0J12282   8.952   8.470   2.399
    1STR    C0K12283   9.014   8.489   2.526
    1STR    C0M12284   9.003   8.636   2.569
    1STR    C0N12285   8.942   8.394   2.624
    1STR    O0O12286   9.012   8.385   2.748
    1STR    C0P12287   8.972   8.456   2.854
    1STR    O0Q12288   8.872   8.527   2.858
    1STR    N0R12289   9.060   8.441   2.952
    1STR    C0S12290   9.067   8.505   3.075
    1STR    C0T12291   9.195   8.524   3.131
    1STR    C0U12292   9.211   8.597   3.250
    1STR    C0V12293   9.099   8.649   3.317
    1STR    C0W12294   9.124   8.738   3.438
    1STR    C0X12295   8.969   8.621   3.269
    1STR    N0Y12296   8.857   8.667   3.337
    1STR   BCK212297   8.812   8.626   3.456
    1STR    O1012298   8.739   8.700   3.521
    1STR    C1312299   8.954   8.552   3.146
    1STR    C1412300   9.128   8.598   1.293
    1STR    C1512301   9.157   8.589   1.156
    1STR    C1612302   9.059   8.618   1.060
    1STR    C1712303   9.093   8.598   0.913
    1STR    H1B12304   8.751   8.628   1.007
    1STR    H1C12305   8.803   8.698   1.272
    1STR    H1D12306   8.869   8.651   1.499
    1STR    H1E12307   9.122   8.550   1.813
    1STR    H1F12308   9.001   8.825   1.878
    1STR    H1G12309   9.138   8.751   1.960
    1STR    H1H12310   9.153   8.798   1.792
    1STR    H1I12311   8.908   8.457   1.892
    1STR    H1J12312   8.856   8.616   1.945
    1STR    H1K12313   8.848   8.520   2.165
    1STR    H1M12314   9.044   8.285   2.129
    1STR    H1N12315   8.885   8.297   2.054
    1STR    H1O12316   8.898   8.279   2.227
    1STR    H1P12317   9.125   8.475   2.284
    1STR    H1Q12318   9.035   8.626   2.291
    1STR    H1R12319   9.119   8.459   2.520
    1STR    H1S12320   9.047   8.651   2.668
    1STR    H1T12321   8.899   8.667   2.575
    1STR    H1U12322   9.055   8.703   2.501
    1STR    H1V12323   8.940   8.293   2.582
    1STR    H1W12324   8.838   8.423   2.638
    1STR    H1X12325   9.135   8.379   2.925
    1STR    H1Y12326   9.283   8.488   3.080
    1STR    H1Z12327   9.311   8.615   3.288
    1STR    H2012328   9.036   8.797   3.465
    1STR    H2112329   9.153   8.677   3.524
    1STR    H2212330   9.204   8.809   3.418
    1STR    H2312331   8.803   8.741   3.297
    1STR    H2712332   8.855   8.535   3.107
    1STR    H2812333   9.208   8.572   1.361
    1STR    H2912334   9.256   8.558   1.125
    1STR    H2A12335   9.007   8.559   0.858
    1STR    H2B12336   9.175   8.528   0.901
    1STR    H2C12337   9.123   8.693   0.869
    1STR   BCK112338   8.786   8.820   5.247
    1STR    O0312339   8.693   8.754   5.202
    1STR    N0412340   8.787   8.884   5.364
    1STR    C0512341   8.682   8.916   5.452
    1STR    C0612342   8.699   8.897   5.592
    1STR    C0712343   8.605   8.946   5.687
    1STR    N0812344   8.628   8.931   5.825
    1STR    C0912345   8.578   9.002   5.928
    1STR    O0A12346   8.502   9.098   5.916
    1STR    O0B12347   8.622   8.955   6.048
    1STR    C0C12348   8.572   9.012   6.171
    1STR    C0D12349   8.438   8.947   6.206
    1STR    C0E12350   8.674   8.997   6.286
    1STR    O0F12351   8.623   9.058   6.406
    1STR    C0G12352   8.709   9.054   6.520
    1STR    C0H12353   8.817   9.162   6.506
    1STR    C0I12354   8.625   9.076   6.648
    1STR    O0J12355   8.708   9.062   6.764
    1STR    C0K12356   8.644   9.083   6.890
    1STR    C0M12357   8.556   8.962   6.927
    1STR    C0N12358   8.755   9.104   6.996
    1STR    O0O12359   8.700   9.141   7.123
    1STR    C0P12360   8.708   9.058   7.228
    1STR    O0Q12361   8.755   8.945   7.226
    1STR    N0R12362   8.657   9.118   7.336
    1STR    C0S12363   8.640   9.075   7.468
    1STR    C0T12364   8.562   9.156   7.553
    1STR    C0U12365   8.535   9.117   7.685
    1STR    C0V12366   8.587   8.997   7.737
    1STR    C0W12367   8.547   8.954   7.877
    1STR    C0X12368   8.670   8.916   7.655
    1STR    N0Y12369   8.719   8.794   7.700
    1STR   BCK212370   8.794   8.768   7.807
    1STR    O1012371   8.845   8.852   7.880
    1STR    C1312372   8.694   8.955   7.521
    1STR    C1412373   8.490   9.011   5.637
    1STR    C1512374   8.471   9.030   5.499
    1STR    C1612375   8.567   8.985   5.406
    1STR    C1712376   8.546   9.019   5.260
    1STR    H1B12377   8.877   8.921   5.388
    1STR    H1C12378   8.788   8.847   5.627
    1STR    H1D12379   8.692   8.860   5.855
    1STR    H1E12380   8.556   9.120   6.156
    1STR    H1F12381   8.448   8.840   6.222
    1STR    H1G12382   8.396   8.990   6.297
    1STR    H1H12383   8.364   8.962   6.127
    1STR    H1I12384   8.768   9.043   6.257
    1STR    H1J12385   8.695   8.891   6.304
    1STR    H1K12386   8.756   8.956   6.528
    1STR    H1M12387   8.772   9.261   6.493
    1STR    H1N12388   8.884   9.144   6.422
    1STR    H1O12389   8.880   9.166   6.596
    1STR    H1P12390   8.579   9.175   6.645
    1STR    H1Q12391   8.544   9.003   6.650
    1STR    H1R12392   8.583   9.174   6.886
    1STR    H1S12393   8.512   8.974   7.026
    1STR    H1T12394   8.615   8.870   6.929
    1STR    H1U12395   8.474   8.948   6.857
    1STR    H1V12396   8.820   9.185   6.964
    1STR    H1W12397   8.819   9.016   7.002
    1STR    H1X12398   8.625   9.211   7.313
    1STR    H1Y12399   8.519   9.249   7.517
    1STR    H1Z12400   8.473   9.180   7.748
    1STR    H2012401   8.533   8.845   7.882
    1STR    H2112402   8.624   8.981   7.949
    1STR    H2212403   8.453   9.000   7.908
    1STR    H2312404   8.699   8.713   7.643
    1STR    H2712405   8.755   8.891   7.459
    1STR    H2812406   8.414   9.049   5.703
    1STR    H2912407   8.383   9.083   5.465
    1STR    H2A12408   8.640   9.049   5.213
    1STR    H2B12409   8.476   9.102   5.248
    1STR    H2C12410   8.506   8.933   5.206
    1STR   BCK112411   8.803   8.674   9.629
    1STR    O0312412   8.892   8.594   9.605
    1STR    N0412413   8.715   8.663   9.729
    1STR    C0512414   8.698   8.554   9.816
    1STR    C0612415   8.696   8.575   9.956
    1STR    C0712416   8.673   8.469  10.048
    1STR    N0812417   8.667   8.495  10.186
    1STR    C0912418   8.656   8.411  10.290
    1STR    O0A12419   8.655   8.289  10.282
    1STR    O0B12420   8.648   8.478  10.408
    1STR    C0C12421   8.641   8.404  10.531
    1STR    C0D12422   8.783   8.362  10.572
    1STR    C0E12423   8.572   8.486  10.642
    1STR    O0F12424   8.565   8.407  10.761
    1STR    C0G12425   8.504   8.469  10.873
    1STR    C0H12426   8.351   8.462  10.859
    1STR    C0I12427   8.551   8.397  11.001
    1STR    O0J12428   8.502   8.466  11.116
    1STR    C0K12429   8.533   8.407  11.242
    1STR    C0M12430   8.680   8.431  11.278
    1STR    C0N12431   8.439   8.472  11.346
    1STR    O0O12432   8.446   8.405  11.472
    1STR    C0P12433   8.509   8.460  11.576
    1STR    O0Q12434   8.572   8.566  11.575
    1STR    N0R12435   8.492   8.381  11.682
    1STR    C0S12436   8.537   8.387  11.814
    1STR    C0T12437   8.492   8.285  11.900
    1STR    C0U12438   8.537   8.278  12.033
    1STR    C0V12439   8.628   8.373  12.083
    1STR    C0W12440   8.685   8.350  12.222
    1STR    C0X12441   8.670   8.481  12.000
    1STR    N0Y12442   8.765   8.573  12.044
    1STR   BCK212443   8.761   8.650  12.154
    1STR    O1012444   8.668   8.655  12.233
    1STR    C1312445   8.625   8.486  11.866
    1STR    C1412446   8.652   8.340   9.994
    1STR    C1512447   8.652   8.318   9.855
    1STR    C1612448   8.672   8.424   9.765
    1STR    C1712449   8.661   8.395   9.617
    1STR    H1B12450   8.652   8.741   9.739
    1STR    H1C12451   8.713   8.675   9.993
    1STR    H1D12452   8.672   8.591  10.216
    1STR    H1E12453   8.581   8.314  10.515
    1STR    H1F12454   8.847   8.448  10.590
    1STR    H1G12455   8.781   8.302  10.664
    1STR    H1H12456   8.830   8.300  10.495
    1STR    H1I12457   8.473   8.515  10.609
    1STR    H1J12458   8.628   8.578  10.660
    1STR    H1K12459   8.535   8.574  10.881
    1STR    H1M12460   8.317   8.359  10.847
    1STR    H1N12461   8.314   8.519  10.774
    1STR    H1O12462   8.302   8.502  10.948
    1STR    H1P12463   8.517   8.293  11.000
    1STR    H1Q12464   8.660   8.394  11.002
    1STR    H1R12465   8.512   8.300  11.239
    1STR    H1S12466   8.703   8.391  11.377
    1STR    H1T12467   8.703   8.538  11.282
    1STR    H1U12468   8.749   8.384  11.208
    1STR    H1V12469   8.336   8.463  11.311
    1STR    H1W12470   8.458   8.579  11.355
    1STR    H1X12471   8.435   8.302  11.657
    1STR    H1Y12472   8.424   8.209  11.865
    1STR    H1Z12473   8.503   8.197  12.096
    1STR    H2012474   8.793   8.358  12.219
    1STR    H2112475   8.645   8.422  12.293
    1STR    H2212476   8.661   8.251  12.260
    1STR    H2312477   8.845   8.588  11.986
    1STR    H2712478   8.659   8.566  11.802
    1STR    H2812479   8.633   8.254  10.056
    1STR    H2912480   8.634   8.219   9.818
    1STR    H2A12481   8.615   8.479   9.564
    1STR    H2B12482   8.599   8.307   9.598
    1STR    H2C12483   8.759   8.377   9.574
    1STR   BCK112484   8.802   8.769  13.980
    1STR    O0312485   8.766   8.883  13.952
    1STR    N0412486   8.873   8.737  14.089
    1STR    C0512487   8.925   8.825  14.183
    1STR    C0612488   8.899   8.804  14.321
    1STR    C0712489   8.957   8.887  14.420
    1STR    N0812490   8.934   8.860  14.555
    1STR    C0912491   9.001   8.904  14.663
    1STR    O0A12492   9.097   8.980  14.660
    1STR    O0B12493   8.948   8.854  14.777
    1STR    C0C12494   8.996   8.901  14.903
    1STR    C0D12495   8.917   9.027  14.943
    1STR    C0E12496   8.988   8.792  15.011
    1STR    O0F12497   9.046   8.844  15.130
    1STR    C0G12498   9.051   8.756  15.241
    1STR    C0H12499   9.169   8.658  15.225
    1STR    C0I12500   9.068   8.843  15.367
    1STR    O0J12501   9.065   8.761  15.483
    1STR    C0K12502   9.085   8.828  15.607
    1STR    C0M12503   8.955   8.900  15.648
    1STR    C0N12504   9.126   8.720  15.709
    1STR    O0O12505   9.166   8.779  15.832
    1STR    C0P12506   9.084   8.778  15.937
    1STR    O0Q12507   8.971   8.731  15.938
    1STR    N0R12508   9.144   8.838  16.040
    1STR    C0S12509   9.098   8.863  16.170
    1STR    C0T12510   9.168   8.959  16.247
    1STR    C0U12511   9.125   8.992  16.377
    1STR    C0V12512   9.012   8.929  16.433
    1STR    C0W12513   8.964   8.972  16.571
    1STR    C0X12514   8.945   8.828  16.360
    1STR    N0Y12515   8.835   8.761  16.413
    1STR   BCK212516   8.833   8.676  16.516
    1STR    O1012517   8.728   8.625  16.553
    1STR    C1312518   8.987   8.798  16.229
    1STR    C1412519   9.038   8.995  14.377
    1STR    C1512520   9.066   9.015  14.241
    1STR    C1612521   9.013   8.929  14.143
    1STR    C1712522   9.058   8.948  13.999
    1STR    H1B12523   8.896   8.639  14.097
    1STR    H1C12524   8.835   8.723  14.350
    1STR    H1D12525   8.861   8.796  14.579
    1STR    H1E12526   9.102   8.928  14.895
    1STR    H1F12527   8.811   9.005  14.954
    1STR    H1G12528   8.953   9.068  15.037
    1STR    H1H12529   8.927   9.105  14.867
    1STR    H1I12530   9.041   8.704  14.977
    1STR    H1J12531   8.884   8.763  15.028
    1STR    H1K12532   8.957   8.701  15.251
    1STR    H1M12533   9.263   8.712  15.211
    1STR    H1N12534   9.156   8.592  15.140
    1STR    H1O12535   9.179   8.595  15.313
    1STR    H1P12536   9.162   8.899  15.361
    1STR    H1Q12537   8.988   8.917  15.370
    1STR    H1R12538   9.167   8.900  15.598
    1STR    H1S12539   8.967   8.948  15.745
    1STR    H1T12540   8.872   8.830  15.657
    1STR    H1U12541   8.927   8.978  15.578
    1STR    H1V12542   9.211   8.665  15.670
    1STR    H1W12543   9.047   8.647  15.722
    1STR    H1X12544   9.235   8.871  16.015
    1STR    H1Y12545   9.254   9.010  16.207
    1STR    H1Z12546   9.178   9.067  16.433
    1STR    H2012547   8.856   8.963  16.579
    1STR    H2112548   9.009   8.909  16.648
    1STR    H2212549   8.991   9.076  16.591
    1STR    H2312550   8.746   8.771  16.367
    1STR    H2712551   8.934   8.721  16.174
    1STR    H2812552   9.082   9.065  14.446
    1STR    H2912553   9.131   9.096  14.212
    1STR    H2A12554   9.064   8.853  13.947
    1STR    H2B12555   9.156   8.995  13.994
    1STR    H2C12556   8.987   9.012  13.946
    1STR   BCK112557   8.721  13.126   0.896
    1STR    O0312558   8.689  13.014   0.856
    1STR    N0412559   8.674  13.184   1.007
    1STR    C0512560   8.570  13.145   1.092
    1STR    C0612561   8.589  13.148   1.233
    1STR    C0712562   8.483  13.122   1.325
    1STR    N0812563   8.506  13.131   1.464
    1STR    C0912564   8.418  13.137   1.566
    1STR    O0A12565   8.296  13.137   1.553
    1STR    O0B12566   8.480  13.143   1.687
    1STR    C0C12567   8.402  13.140   1.808
    1STR    C0D12568   8.370  12.994   1.843
    1STR    C0E12569   8.476  13.211   1.924
    1STR    O0F12570   8.396  13.208   2.043
    1STR    C0G12571   8.450  13.274   2.158
    1STR    C0H12572   8.429  13.425   2.144
    1STR    C0I12573   8.381  13.220   2.286
    1STR    O0J12574   8.443  13.276   2.402
    1STR    C0K12575   8.388  13.238   2.529
    1STR    C0M12576   8.429  13.094   2.563
    1STR    C0N12577   8.441  13.337   2.635
    1STR    O0O12578   8.381  13.316   2.763
    1STR    C0P12579   8.451  13.266   2.866
    1STR    O0Q12580   8.567  13.227   2.861
    1STR    N0R12581   8.374  13.264   2.975
    1STR    C0S12582   8.397  13.219   3.106
    1STR    C0T12583   8.289  13.225   3.196
    1STR    C0U12584   8.301  13.176   3.327
    1STR    C0V12585   8.422  13.120   3.373
    1STR    C0W12586   8.425  13.057   3.511
    1STR    C0X12587   8.535  13.118   3.286
    1STR    N0Y12588   8.657  13.062   3.323
    1STR   BCK212589   8.730  13.080   3.434
    1STR    O1012590   8.703  13.160   3.523
    1STR    C1312591   8.521  13.167   3.153
    1STR    C1412592   8.357  13.088   1.271
    1STR    C1512593   8.336  13.085   1.132
    1STR    C1612594   8.440  13.116   1.042
    1STR    C1712595   8.407  13.123   0.894
    1STR    H1B12596   8.720  13.271   1.029
    1STR    H1C12597   8.687  13.173   1.271
    1STR    H1D12598   8.601  13.135   1.496
    1STR    H1E12599   8.309  13.194   1.792
    1STR    H1F12600   8.461  12.936   1.861
    1STR    H1G12601   8.309  12.988   1.933
    1STR    H1H12602   8.315  12.945   1.763
    1STR    H1I12603   8.497  13.314   1.895
    1STR    H1J12604   8.572  13.163   1.943
    1STR    H1K12605   8.557  13.252   2.166
    1STR    H1M12606   8.323  13.449   2.131
    1STR    H1N12607   8.483  13.468   2.060
    1STR    H1O12608   8.463  13.477   2.234
    1STR    H1P12609   8.275  13.244   2.284
    1STR    H1Q12610   8.389  13.111   2.287
    1STR    H1R12611   8.279  13.246   2.526
    1STR    H1S12612   8.392  13.066   2.662
    1STR    H1T12613   8.537  13.083   2.565
    1STR    H1U12614   8.389  13.021   2.493
    1STR    H1V12615   8.418  13.439   2.605
    1STR    H1W12616   8.550  13.333   2.641
    1STR    H1X12617   8.283  13.302   2.955
    1STR    H1Y12618   8.194  13.265   3.166
    1STR    H1Z12619   8.216  13.178   3.393
    1STR    H2012620   8.492  12.972   3.515
    1STR    H2112621   8.458  13.131   3.585
    1STR    H2212622   8.326  13.022   3.541
    1STR    H2312623   8.701  13.002   3.255
    1STR    H2712624   8.606  13.163   3.088
    1STR    H2812625   8.273  13.064   1.333
    1STR    H2912626   8.238  13.062   1.094
    1STR    H2A12627   8.461  13.203   0.845
    1STR    H2B12628   8.301  13.141   0.878
    1STR    H2C12629   8.433  13.029   0.845
    1STR   BCK112630   8.853  13.099   5.271
    1STR    O0312631   8.974  13.114   5.256
    1STR    N0412632   8.798  13.024   5.366
    1STR    C0512633   8.865  12.942   5.457
    1STR    C0612634   8.845  12.959   5.596
    1STR    C0712635   8.906  12.873   5.691
    1STR    N0812636   8.880  12.891   5.828
    1STR    C0912637   8.940  12.836   5.935
    1STR    O0A12638   9.039  12.763   5.930
    1STR    O0B12639   8.879  12.871   6.049
    1STR    C0C12640   8.930  12.824   6.174
    1STR    C0D12641   9.047  12.914   6.219
    1STR    C0E12642   8.819  12.820   6.280
    1STR    O0F12643   8.873  12.766   6.401
    1STR    C0G12644   8.783  12.757   6.510
    1STR    C0H12645   8.698  12.630   6.496
    1STR    C0I12646   8.866  12.754   6.639
    1STR    O0J12647   8.779  12.762   6.752
    1STR    C0K12648   8.841  12.748   6.879
    1STR    C0M12649   8.920  12.875   6.916
    1STR    C0N12650   8.730  12.720   6.982
    1STR    O0O12651   8.790  12.675   7.103
    1STR    C0P12652   8.792  12.752   7.212
    1STR    O0Q12653   8.739  12.861   7.226
    1STR    N0R12654   8.864  12.687   7.303
    1STR    C0S12655   8.899  12.715   7.436
    1STR    C0T12656   8.987  12.623   7.495
    1STR    C0U12657   9.020  12.634   7.631
    1STR    C0V12658   8.964  12.736   7.710
    1STR    C0W12659   8.990  12.726   7.859
    1STR    C0X12660   8.880  12.835   7.652
    1STR    N0Y12661   8.812  12.933   7.726
    1STR   BCK212662   8.840  13.012   7.831
    1STR    O1012663   8.751  13.082   7.876
    1STR    C1312664   8.848  12.822   7.514
    1STR    C1412665   8.989  12.769   5.642
    1STR    C1512666   9.008  12.751   5.504
    1STR    C1612667   8.945  12.835   5.411
    1STR    C1712668   8.962  12.804   5.263
    1STR    H1B12669   8.697  13.021   5.365
    1STR    H1C12670   8.781  13.040   5.630
    1STR    H1D12671   8.806  12.953   5.855
    1STR    H1E12672   8.967  12.722   6.162
    1STR    H1F12673   9.015  13.017   6.234
    1STR    H1G12674   9.090  12.878   6.312
    1STR    H1H12675   9.127  12.914   6.144
    1STR    H1I12676   8.737  12.757   6.244
    1STR    H1J12677   8.779  12.920   6.297
    1STR    H1K12678   8.719  12.845   6.514
    1STR    H1M12679   8.760  12.541   6.487
    1STR    H1N12680   8.633  12.634   6.408
    1STR    H1O12681   8.633  12.616   6.583
    1STR    H1P12682   8.926  12.663   6.643
    1STR    H1Q12683   8.936  12.838   6.639
    1STR    H1R12684   8.908  12.662   6.877
    1STR    H1S12685   8.963  12.867   7.015
    1STR    H1T12686   8.854  12.963   6.917
    1STR    H1U12687   9.002  12.895   6.847
    1STR    H1V12688   8.666  12.640   6.945
    1STR    H1W12689   8.665  12.807   6.996
    1STR    H1X12690   8.897  12.601   7.265
    1STR    H1Y12691   9.028  12.540   7.439
    1STR    H1Z12692   9.084  12.560   7.675
    1STR    H2012693   9.079  12.784   7.884
    1STR    H2112694   8.903  12.760   7.915
    1STR    H2212695   9.010  12.623   7.889
    1STR    H2312696   8.719  12.953   7.695
    1STR    H2712697   8.781  12.893   7.468
    1STR    H2812698   9.038  12.700   5.708
    1STR    H2912699   9.071  12.670   5.471
    1STR    H2A12700   8.869  12.822   5.209
    1STR    H2B12701   8.990  12.700   5.247
    1STR    H2C12702   9.040  12.868   5.221
    1STR   BCK112703   8.787  13.146   9.603
    1STR    O0312704   8.691  13.192   9.543
    1STR    N0412705   8.829  13.185   9.725
    1STR    C0512706   8.779  13.282   9.813
    1STR    C0612707   8.780  13.253   9.952
    1STR    C0712708   8.741  13.349  10.049
    1STR    N0812709   8.750  13.319  10.186
    1STR    C0912710   8.751  13.402  10.292
    1STR    O0A12711   8.745  13.525  10.284
    1STR    O0B12712   8.760  13.335  10.409
    1STR    C0C12713   8.750  13.407  10.533
    1STR    C0D12714   8.601  13.422  10.569
    1STR    C0E12715   8.829  13.337  10.646
    1STR    O0F12716   8.820  13.416  10.765
    1STR    C0G12717   8.891  13.367  10.878
    1STR    C0H12718   9.040  13.401  10.864
    1STR    C0I12719   8.832  13.434  11.004
    1STR    O0J12720   8.896  13.382  11.121
    1STR    C0K12721   8.854  13.436  11.246
    1STR    C0M12722   8.719  13.376  11.287
    1STR    C0N12723   8.964  13.403  11.348
    1STR    O0O12724   8.941  13.465  11.474
    1STR    C0P12725   8.899  13.392  11.579
    1STR    O0Q12726   8.869  13.273  11.574
    1STR    N0R12727   8.894  13.469  11.688
    1STR    C0S12728   8.855  13.439  11.820
    1STR    C0T12729   8.841  13.546  11.911
    1STR    C0U12730   8.797  13.522  12.042
    1STR    C0V12731   8.766  13.392  12.087
    1STR    C0W12732   8.706  13.376  12.226
    1STR    C0X12733   8.784  13.283  11.998
    1STR    N0Y12734   8.747  13.152  12.029
    1STR   BCK212735   8.782  13.068  12.127
    1STR    O1012736   8.739  12.954  12.124
    1STR    C1312737   8.827  13.308  11.866
    1STR    C1412738   8.694  13.474  10.003
    1STR    C1512739   8.694  13.505   9.866
    1STR    C1612740   8.740  13.412   9.771
    1STR    C1712741   8.752  13.461   9.627
    1STR    H1B12742   8.910  13.134   9.755
    1STR    H1C12743   8.813  13.156   9.985
    1STR    H1D12744   8.760  13.223  10.213
    1STR    H1E12745   8.794  13.506  10.522
    1STR    H1F12746   8.553  13.325  10.584
    1STR    H1G12747   8.590  13.479  10.662
    1STR    H1H12748   8.547  13.475  10.491
    1STR    H1I12749   8.933  13.325  10.615
    1STR    H1J12750   8.789  13.237  10.664
    1STR    H1K12751   8.877  13.259  10.888
    1STR    H1M12752   9.055  13.508  10.850
    1STR    H1N12753   9.086  13.350  10.779
    1STR    H1O12754   9.096  13.371  10.953
    1STR    H1P12755   8.844  13.542  10.999
    1STR    H1Q12756   8.724  13.414  11.008
    1STR    H1R12757   8.846  13.545  11.238
    1STR    H1S12758   8.688  13.413  11.385
    1STR    H1T12759   8.724  13.267  11.293
    1STR    H1U12760   8.639  13.402  11.217
    1STR    H1V12761   9.060  13.440  11.311
    1STR    H1W12762   8.977  13.295  11.357
    1STR    H1X12763   8.921  13.563  11.668
    1STR    H1Y12764   8.862  13.647  11.881
    1STR    H1Z12765   8.785  13.606  12.109
    1STR    H2012766   8.640  13.290  12.230
    1STR    H2112767   8.786  13.362  12.299
    1STR    H2212768   8.648  13.463  12.254
    1STR    H2312769   8.689  13.106  11.961
    1STR    H2712770   8.839  13.223  11.800
    1STR    H2812771   8.658  13.550  10.070
    1STR    H2912772   8.662  13.603   9.834
    1STR    H2A12773   8.836  13.413   9.576
    1STR    H2B12774   8.770  13.568   9.624
    1STR    H2C12775   8.661  13.440   9.572
    1STR   BCK112776   8.749  13.047  13.986
    1STR    O0312777   8.791  12.937  13.951
    1STR    N0412778   8.669  13.068  14.091
    1STR    C0512779   8.607  12.975  14.175
    1STR    C0612780   8.615  12.992  14.316
    1STR    C0712781   8.548  12.905  14.407
    1STR    N0812782   8.555  12.929  14.546
    1STR    C0912783   8.498  12.864  14.649
    1STR    O0A12784   8.427  12.764  14.638
    1STR    O0B12785   8.529  12.921  14.768
    1STR    C0C12786   8.483  12.860  14.890
    1STR    C0D12787   8.579  12.747  14.929
    1STR    C0E12788   8.470  12.964  15.003
    1STR    O0F12789   8.422  12.900  15.122
    1STR    C0G12790   8.403  12.984  15.236
    1STR    C0H12791   8.269  13.059  15.222
    1STR    C0I12792   8.403  12.896  15.363
    1STR    O0J12793   8.397  12.980  15.479
    1STR    C0K12794   8.393  12.913  15.605
    1STR    C0M12795   8.532  12.857  15.641
    1STR    C0N12796   8.346  13.017  15.709
    1STR    O0O12797   8.323  12.957  15.837
    1STR    C0P12798   8.408  12.975  15.939
    1STR    O0Q12799   8.514  13.036  15.934
    1STR    N0R12800   8.357  12.916  16.048
    1STR    C0S12801   8.405  12.903  16.179
    1STR    C0T12802   8.324  12.830  16.268
    1STR    C0U12803   8.367  12.805  16.400
    1STR    C0V12804   8.492  12.852  16.445
    1STR    C0W12805   8.539  12.806  16.582
    1STR    C0X12806   8.572  12.932  16.359
    1STR    N0Y12807   8.697  12.978  16.398
    1STR   BCK212808   8.729  13.050  16.506
    1STR    O1012809   8.650  13.089  16.591
    1STR    C1312810   8.529  12.954  16.226
    1STR    C1412811   8.474  12.798  14.351
    1STR    C1512812   8.464  12.781  14.212
    1STR    C1612813   8.527  12.870  14.124
    1STR    C1712814   8.502  12.852  13.975
    1STR    H1B12815   8.652  13.166  14.110
    1STR    H1C12816   8.674  13.074  14.355
    1STR    H1D12817   8.611  13.006  14.577
    1STR    H1E12818   8.384  12.818  14.874
    1STR    H1F12819   8.680  12.784  14.947
    1STR    H1G12820   8.545  12.696  15.019
    1STR    H1H12821   8.585  12.672  14.850
    1STR    H1I12822   8.401  13.043  14.972
    1STR    H1J12823   8.566  13.012  15.022
    1STR    H1K12824   8.485  13.055  15.244
    1STR    H1M12825   8.186  12.990  15.209
    1STR    H1N12826   8.269  13.128  15.137
    1STR    H1O12827   8.249  13.119  15.311
    1STR    H1P12828   8.319  12.827  15.361
    1STR    H1Q12829   8.494  12.836  15.364
    1STR    H1R12830   8.320  12.832  15.602
    1STR    H1S12831   8.530  12.810  15.739
    1STR    H1T12832   8.606  12.937  15.644
    1STR    H1U12833   8.566  12.782  15.570
    1STR    H1V12834   8.252  13.061  15.677
    1STR    H1W12835   8.417  13.100  15.716
    1STR    H1X12836   8.269  12.874  16.027
    1STR    H1Y12837   8.229  12.791  16.238
    1STR    H1Z12838   8.305  12.746  16.465
    1STR    H2012839   8.642  12.770  16.576
    1STR    H2112840   8.535  12.887  16.655
    1STR    H2212841   8.478  12.725  16.621
    1STR    H2312842   8.774  12.961  16.336
    1STR    H2712843   8.591  13.012  16.160
    1STR    H2812844   8.421  12.727  14.412
    1STR    H2912845   8.404  12.700  14.174
    1STR    H2A12846   8.498  12.948  13.924
    1STR    H2B12847   8.408  12.802  13.957
    1STR    H2C12848   8.582  12.792  13.930
    1STR   BCK112849  13.177   0.068   0.911
    1STR    O0312850  13.230   0.178   0.895
    1STR    N0412851  13.208  17.424   1.009
    1STR    C0512852  13.308   0.003   1.104
    1STR    C0612853  13.276  17.439   1.242
    1STR    C0712854  13.377   0.014   1.341
    1STR    N0812855  13.342   0.005   1.477
    1STR    C0912856  13.418   0.017   1.587
    1STR    O0A12857  13.538   0.045   1.587
    1STR    O0B12858  13.347  17.434   1.699
    1STR    C0C12859  13.411   0.008   1.826
    1STR    C0D12860  13.409   0.157   1.868
    1STR    C0E12861  13.345  17.359   1.932
    1STR    O0F12862  13.422  17.370   2.052
    1STR    C0G12863  13.378  17.292   2.162
    1STR    C0H12864  13.425  17.147   2.145
    1STR    C0I12865  13.438  17.356   2.289
    1STR    O0J12866  13.388  17.287   2.404
    1STR    C0K12867  13.440  17.330   2.529
    1STR    C0M12868  13.375   0.023   2.571
    1STR    C0N12869  13.409  17.217   2.630
    1STR    O0O12870  13.475  17.239   2.754
    1STR    C0P12871  13.408  17.288   2.859
    1STR    O0Q12872  13.289  17.315   2.861
    1STR    N0R12873  13.493  17.305   2.960
    1STR    C0S12874  13.472  17.361   3.086
    1STR    C0T12875  13.585  17.413   3.153
    1STR    C0U12876  13.571   0.037   3.278
    1STR    C0V12877  13.444   0.047   3.339
    1STR    C0W12878  13.432   0.123   3.470
    1STR    C0X12879  13.332  17.427   3.277
    1STR    N0Y12880  13.208  17.431   3.340
    1STR   BCK212881  13.170  17.360   3.446
    1STR    O1012882  13.074  17.397   3.513
    1STR    C1312883  13.346  17.366   3.150
    1STR    C1412884  13.510   0.036   1.298
    1STR    C1512885  13.542   0.037   1.161
    1STR    C1612886  13.443   0.018   1.064
    1STR    C1712887  13.485   0.009   0.918
    1STR    H1B12888  13.159  17.336   1.008
    1STR    H1C12889  13.173  17.425   1.272
    1STR    H1D12890  13.246  17.426   1.500
    1STR    H1E12891  13.515  17.415   1.818
    1STR    H1F12892  13.307   0.194   1.879
    1STR    H1G12893  13.461   0.171   1.962
    1STR    H1H12894  13.460   0.218   1.793
    1STR    H1I12895  13.344  17.256   1.897
    1STR    H1J12896  13.242  17.389   1.949
    1STR    H1K12897  13.269  17.296   2.171
    1STR    H1M12898  13.533  17.142   2.132
    1STR    H1N12899  13.379  17.099   2.059
    1STR    H1O12900  13.400  17.088   2.233
    1STR    H1P12901  13.547  17.351   2.286
    1STR    H1Q12902  13.410   0.021   2.293
    1STR    H1R12903  13.548  17.342   2.523
    1STR    H1S12904  13.410   0.055   2.669
    1STR    H1T12905  13.266   0.013   2.577
    1STR    H1U12906  13.397   0.104   2.502
    1STR    H1V12907  13.447  17.123   2.590
    1STR    H1W12908  13.302  17.204   2.642
    1STR    H1X12909  13.587  17.278   2.934
    1STR    H1Y12910  13.683  17.409   3.108
    1STR    H1Z12911  13.657   0.080   3.326
    1STR    H2012912  13.333   0.168   3.480
    1STR    H2112913  13.449   0.057   3.554
    1STR    H2212914  13.505   0.204   3.474
    1STR    H2312915  13.139   0.056   3.306
    1STR    H2712916  13.259  17.323   3.103
    1STR    H2812917  13.592   0.050   1.366
    1STR    H2912918  13.645   0.051   1.132
    1STR    H2A12919  13.425  17.377   0.863
    1STR    H2B12920  13.589  17.418   0.909
    1STR    H2C12921  13.475   0.107   0.870
    1STR   BCK112922  13.114   0.089   5.251
    1STR    O0312923  13.041  17.439   5.209
    1STR    N0412924  13.096   0.156   5.366
    1STR    C0512925  12.986   0.160   5.453
    1STR    C0612926  13.006   0.150   5.593
    1STR    C0712927  12.900   0.170   5.686
    1STR    N0812928  12.925   0.164   5.825
    1STR    C0912929  12.853   0.215   5.927
    1STR    O0A12930  12.750   0.280   5.914
    1STR    O0B12931  12.910   0.186   6.048
    1STR    C0C12932  12.842   0.223   6.170
    1STR    C0D12933  12.738   0.116   6.205
    1STR    C0E12934  12.943   0.243   6.286
    1STR    O0F12935  12.874   0.283   6.405
    1STR    C0G12936  12.956   0.310   6.520
    1STR    C0H12937  13.020   0.449   6.506
    1STR    C0I12938  12.869   0.301   6.647
    1STR    O0J12939  12.951   0.316   6.764
    1STR    C0K12940  12.885   0.313   6.890
    1STR    C0M12941  12.843   0.170   6.926
    1STR    C0N12942  12.982   0.369   6.996
    1STR    O0O12943  12.920   0.384   7.124
    1STR    C0P12944  12.956   0.307   7.228
    1STR    O0Q12945  13.037   0.215   7.224
    1STR    N0R12946  12.888   0.345   7.337
    1STR    C0S12947  12.886   0.297   7.469
    1STR    C0T12948  12.791   0.353   7.556
    1STR    C0U12949  12.778   0.307   7.688
    1STR    C0V12950  12.859   0.203   7.737
    1STR    C0W12951  12.833   0.150   7.877
    1STR    C0X12952  12.959   0.148   7.653
    1STR    N0Y12953  13.039   0.041   7.695
    1STR   BCK212954  13.115   0.032   7.804
    1STR    O1012955  13.141   0.126   7.879
    1STR    C1312956  12.970   0.194   7.519
    1STR    C1412957  12.771   0.196   5.634
    1STR    C1512958  12.750   0.207   5.496
    1STR    C1612959  12.856   0.191   5.405
    1STR    C1712960  12.827   0.215   5.257
    1STR    H1B12961  13.173   0.217   5.389
    1STR    H1C12962  13.105   0.129   5.629
    1STR    H1D12963  13.009   0.118   5.856
    1STR    H1E12964  12.791   0.319   6.155
    1STR    H1F12965  12.784   0.019   6.221
    1STR    H1G12966  12.683   0.143   6.295
    1STR    H1H12967  12.664   0.105   6.125
    1STR    H1I12968  13.015   0.319   6.257
    1STR    H1J12969  12.998   0.151   6.304
    1STR    H1K12970  13.033   0.233   6.528
    1STR    H1M12971  12.944   0.526   6.493
    1STR    H1N12972  13.088   0.455   6.422
    1STR    H1O12973  13.077   0.474   6.595
    1STR    H1P12974  12.792   0.379   6.645
    1STR    H1Q12975  12.818   0.205   6.649
    1STR    H1R12976  12.797   0.378   6.887
    1STR    H1S12977  12.797   0.166   7.025
    1STR    H1T12978  12.929   0.103   6.927
    1STR    H1U12979  12.770   0.129   6.856
    1STR    H1V12980  13.016   0.468   6.966
    1STR    H1W12981  13.073   0.308   7.002
    1STR    H1X12982  12.828   0.422   7.316
    1STR    H1Y12983  12.725   0.432   7.523
    1STR    H1Z12984  12.702   0.350   7.752
    1STR    H2012985  12.849   0.042   7.881
    1STR    H2112986  12.901   0.197   7.948
    1STR    H2212987  12.731   0.169   7.909
    1STR    H2312988  13.043  17.400   7.635
    1STR    H2712989  13.045   0.150   7.455
    1STR    H2812990  12.686   0.210   5.699
    1STR    H2912991  12.650   0.230   5.460
    1STR    H2A12992  12.909   0.269   5.210
    1STR    H2B12993  12.737   0.275   5.244
    1STR    H2C12994  12.813   0.120   5.206
    1STR   BCK112995  13.194  17.412   9.631
    1STR    O0312996  13.306  17.364   9.614
    1STR    N0412997  13.109  17.374   9.727
    1STR    C0512998  13.126  17.268   9.816
    1STR    C0612999  13.116  17.289   9.956
    1STR    C0713000  13.125  17.181  10.048
    1STR    N0813001  13.111  17.206  10.186
    1STR    C0913002  13.130  17.124  10.291
    1STR    O0A13003  13.172  17.009  10.284
    1STR    O0B13004  13.098  17.185  10.408
    1STR    C0C13005  13.116  17.115  10.532
    1STR    C0D13006  13.264  17.125  10.575
    1STR    C0E13007  13.022  17.169  10.641
    1STR    O0F13008  13.041  17.093  10.760
    1STR    C0G13009  12.961  17.131  10.872
    1STR    C0H13010  12.820  17.071  10.858
    1STR    C0I13011  13.031  17.081  11.000
    1STR    O0J13012  12.961  17.130  11.114
    1STR    C0K13013  13.010  17.086  11.241
    1STR    C0M13014  13.141  17.158  11.276
    1STR    C0N13015  12.902  17.115  11.346
    1STR    O0O13016  12.935  17.052  11.469
    1STR    C0P13017  12.971  17.124  11.577
    1STR    O0Q13018  12.978  17.246  11.583
    1STR    N0R13019  12.999  17.038  11.675
    1STR    C0S13020  13.039  17.054  11.808
    1STR    C0T13021  13.058  16.935  11.880
    1STR    C0U13022  13.093  16.939  12.016
    1STR    C0V13023  13.109  17.062  12.082
    1STR    C0W13024  13.135  17.055  12.231
    1STR    C0X13025  13.093  17.185  12.012
    1STR    N0Y13026  13.092  17.309  12.076
    1STR   BCK213027  13.168  17.366  12.170
    1STR    O1013028  13.130   0.029  12.224
    1STR    C1313029  13.058  17.179  11.874
    1STR    C1413030  13.143  17.051   9.996
    1STR    C1513031  13.151  17.029   9.858
    1STR    C1613032  13.140  17.135   9.767
    1STR    C1713033  13.140  17.103   9.619
    1STR    H1B13034  13.023  17.425   9.730
    1STR    H1C13035  13.103  17.390   9.992
    1STR    H1D13036  13.083  17.298  10.215
    1STR    H1E13037  13.091  17.009  10.517
    1STR    H1F13038  13.294  17.228  10.592
    1STR    H1G13039  13.281  17.069  10.667
    1STR    H1H13040  13.330  17.083  10.499
    1STR    H1I13041  12.919  17.161  10.606
    1STR    H1J13042  13.042  17.275  10.659
    1STR    H1K13043  12.955  17.240  10.878
    1STR    H1M13044  12.825  16.963  10.847
    1STR    H1N13045  12.767  17.111  10.771
    1STR    H1O13046  12.760  17.093  10.946
    1STR    H1P13047  13.034  16.972  11.000
    1STR    H1Q13048  13.134  17.115  11.000
    1STR    H1R13049  13.027  16.978  11.238
    1STR    H1S13050  13.177  17.127  11.375
    1STR    H1T13051  13.127  17.266  11.279
    1STR    H1U13052  13.222  17.136  11.206
    1STR    H1V13053  12.807  17.072  11.312
    1STR    H1W13054  12.884  17.222  11.357
    1STR    H1X13055  12.985  16.944  11.643
    1STR    H1Y13056  13.044  16.839  11.834
    1STR    H1Z13057  13.105  16.847  12.070
    1STR    H2013058  13.242  17.054  12.249
    1STR    H2113059  13.089  17.139  12.283
    1STR    H2213060  13.093  16.965  12.275
    1STR    H2313061  13.016  17.370  12.050
    1STR    H2713062  13.042  17.271  11.819
    1STR    H2813063  13.150  16.964  10.060
    1STR    H2913064  13.164  16.928   9.822
    1STR    H2A13065  13.069  17.167   9.565
    1STR    H2B13066  13.110  17.000   9.600
    1STR    H2C13067  13.239  17.118   9.577
    1STR   BCK113068  13.165   0.049  13.969
    1STR    O0313069  13.095   0.139  13.925
    1STR    N0413070  13.230   0.053  14.086
    1STR    C0513071  13.239   0.158  14.178
    1STR    C0613072  13.224   0.130  14.316
    1STR    C0713073  13.243   0.230  14.415
    1STR    N0813074  13.233   0.197  14.551
    1STR    C0913075  13.279   0.264  14.658
    1STR    O0A13076  13.341   0.370  14.653
    1STR    O0B13077  13.250   0.200  14.773
    1STR    C0C13078  13.279   0.263  14.899
    1STR    C0D13079  13.161   0.354  14.937
    1STR    C0E13080  13.308   0.159  15.008
    1STR    O0F13081  13.345   0.230  15.127
    1STR    C0G13082  13.379   0.149  15.240
    1STR    C0H13083  13.523   0.098  15.224
    1STR    C0I13084  13.365   0.237  15.365
    1STR    O0J13085  13.390   0.159  15.482
    1STR    C0K13086  13.385   0.228  15.606
    1STR    C0M13087  13.239   0.251  15.648
    1STR    C0N13088  13.461   0.142  15.708
    1STR    O0O13089  13.477   0.209  15.833
    1STR    C0P13090  13.401   0.176  15.938
    1STR    O0Q13091  13.311   0.093  15.937
    1STR    N0R13092  13.438   0.248  16.044
    1STR    C0S13093  13.388   0.250  16.175
    1STR    C0T13094  13.427   0.357  16.258
    1STR    C0U13095  13.378   0.368  16.390
    1STR    C0V13096  13.289   0.271  16.441
    1STR    C0W13097  13.231   0.291  16.580
    1STR    C0X13098  13.254   0.159  16.361
    1STR    N0Y13099  13.166   0.062  16.407
    1STR   BCK213100  13.179  17.416  16.508
    1STR    O1013101  13.091  17.335  16.532
    1STR    C1313102  13.303   0.151  16.229
    1STR    C1413103  13.273   0.361  14.371
    1STR    C1513104  13.291   0.389  14.235
    1STR    C1613105  13.278   0.288  14.138
    1STR    C1713106  13.315   0.324  13.995
    1STR    H1B13107  13.284  17.410  14.105
    1STR    H1C13108  13.198   0.030  14.346
    1STR    H1D13109  13.189   0.110  14.576
    1STR    H1E13110  13.369   0.324  14.889
    1STR    H1F13111  13.069   0.298  14.950
    1STR    H1G13112  13.182   0.407  15.030
    1STR    H1H13113  13.144   0.430  14.860
    1STR    H1I13114  13.390   0.094  14.976
    1STR    H1J13115  13.221   0.096  15.026
    1STR    H1K13116  13.309   0.066  15.249
    1STR    H1M13117  13.593   0.180  15.211
    1STR    H1N13118  13.534   0.030  15.140
    1STR    H1O13119  13.554   0.042  15.313
    1STR    H1P13120  13.434   0.322  15.360
    1STR    H1Q13121  13.264   0.279  15.369
    1STR    H1R13122  13.437   0.324  15.598
    1STR    H1S13123  13.232   0.299  15.745
    1STR    H1T13124  13.185   0.156  15.656
    1STR    H1U13125  13.184   0.314  15.577
    1STR    H1V13126  13.561   0.120  15.670
    1STR    H1W13127  13.413   0.045  15.720
    1STR    H1X13128  13.512   0.311  16.021
    1STR    H1Y13129  13.493   0.434  16.222
    1STR    H1Z13130  13.407   0.452  16.451
    1STR    H2013131  13.131   0.249  16.588
    1STR    H2113132  13.294   0.243  16.655
    1STR    H2213133  13.224   0.397  16.605
    1STR    H2313134  13.082   0.046  16.354
    1STR    H2713135  13.273   0.066  16.169
    1STR    H2813136  13.285   0.443  14.440
    1STR    H2913137  13.318   0.489  14.205
    1STR    H2A13138  13.360   0.239  13.944
    1STR    H2B13139  13.387   0.405  13.991
    1STR    H2C13140  13.226   0.355  13.940
    1STR   BCK113141  13.080   4.372   0.899
    1STR    O0313142  13.076   4.256   0.860
    1STR    N0413143  13.017   4.420   1.008
    1STR    C0513144  12.925   4.357   1.093
    1STR    C0613145  12.941   4.366   1.233
    1STR    C0713146  12.845   4.314   1.325
    1STR    N0813147  12.863   4.329   1.464
    1STR    C0913148  12.778   4.306   1.566
    1STR    O0A13149  12.663   4.264   1.553
    1STR    O0B13150  12.834   4.334   1.686
    1STR    C0C13151  12.762   4.306   1.808
    1STR    C0D13152  12.782   4.158   1.844
    1STR    C0E13153  12.807   4.399   1.923
    1STR    O0F13154  12.732   4.369   2.042
    1STR    C0G13155  12.760   4.450   2.156
    1STR    C0H13156  12.688   4.585   2.143
    1STR    C0I13157  12.714   4.375   2.283
    1STR    O0J13158  12.753   4.449   2.400
    1STR    C0K13159  12.714   4.394   2.526
    1STR    C0M13160  12.801   4.273   2.561
    1STR    C0N13161  12.729   4.506   2.631
    1STR    O0O13162  12.680   4.466   2.759
    1STR    C0P13163  12.763   4.441   2.861
    1STR    O0Q13164  12.886   4.441   2.854
    1STR    N0R13165  12.692   4.414   2.971
    1STR    C0S13166  12.730   4.379   3.101
    1STR    C0T13167  12.628   4.345   3.191
    1STR    C0U13168  12.658   4.303   3.322
    1STR    C0V13169  12.791   4.295   3.366
    1STR    C0W13170  12.817   4.237   3.504
    1STR    C0X13171  12.896   4.338   3.280
    1STR    N0Y13172  13.031   4.334   3.317
    1STR   BCK213173  13.090   4.383   3.426
    1STR    O1013174  13.033   4.434   3.522
    1STR    C1313175  12.864   4.376   3.148
    1STR    C1413176  12.733   4.247   1.269
    1STR    C1513177  12.715   4.238   1.130
    1STR    C1613178  12.809   4.294   1.041
    1STR    C1713179  12.776   4.291   0.893
    1STR    H1B13180  13.041   4.515   1.029
    1STR    H1C13181  13.029   4.416   1.272
    1STR    H1D13182  12.951   4.365   1.496
    1STR    H1E13183  12.656   4.324   1.791
    1STR    H1F13184  12.887   4.135   1.862
    1STR    H1G13185  12.726   4.132   1.934
    1STR    H1H13186  12.747   4.093   1.764
    1STR    H1I13187  12.791   4.502   1.893
    1STR    H1J13188  12.914   4.386   1.942
    1STR    H1K13189  12.868   4.465   2.165
    1STR    H1M13190  12.581   4.571   2.129
    1STR    H1N13191  12.725   4.643   2.058
    1STR    H1O13192  12.703   4.645   2.232
    1STR    H1P13193  12.606   4.361   2.281
    1STR    H1Q13194  12.759   4.276   2.285
    1STR    H1R13195  12.609   4.365   2.523
    1STR    H1S13196  12.776   4.234   2.660
    1STR    H1T13197  12.907   4.300   2.564
    1STR    H1U13198  12.789   4.191   2.491
    1STR    H1V13199  12.672   4.593   2.600
    1STR    H1W13200  12.833   4.540   2.637
    1STR    H1X13201  12.594   4.420   2.951
    1STR    H1Y13202  12.524   4.348   3.161
    1STR    H1Z13203  12.578   4.274   3.388
    1STR    H2013204  12.911   4.182   3.507
    1STR    H2113205  12.821   4.316   3.579
    1STR    H2213206  12.738   4.167   3.534
    1STR    H2313207  13.095   4.297   3.249
    1STR    H2713208  12.945   4.405   3.082
    1STR    H2813209  12.657   4.202   1.331
    1STR    H2913210  12.627   4.189   1.092
    1STR    H2A13211  12.810   4.382   0.843
    1STR    H2B13212  12.669   4.282   0.876
    1STR    H2C13213  12.825   4.205   0.846
    1STR   BCK113214  13.207   4.407   5.274
    1STR    O0313215  13.316   4.462   5.259
    1STR    N0413216  13.180   4.318   5.369
    1STR    C0513217  13.271   4.267   5.462
    1STR    C0613218  13.244   4.278   5.601
    1STR    C0713219  13.332   4.222   5.698
    1STR    N0813220  13.300   4.231   5.834
    1STR    C0913221  13.374   4.202   5.942
    1STR    O0A13222  13.492   4.167   5.939
    1STR    O0B13223  13.303   4.215   6.056
    1STR    C0C13224  13.366   4.191   6.182
    1STR    C0D13225  13.444   4.317   6.224
    1STR    C0E13226  13.263   4.150   6.288
    1STR    O0F13227  13.332   4.119   6.410
    1STR    C0G13228  13.251   4.077   6.519
    1STR    C0H13229  13.214   3.929   6.501
    1STR    C0I13230  13.330   4.099   6.649
    1STR    O0J13231  13.247   4.071   6.762
    1STR    C0K13232  13.310   4.075   6.890
    1STR    C0M13233  13.338   4.221   6.931
    1STR    C0N13234  13.214   4.005   6.989
    1STR    O0O13235  13.279   3.974   7.112
    1STR    C0P13236  13.263   4.051   7.220
    1STR    O0Q13237  13.192   4.151   7.226
    1STR    N0R13238  13.339   4.004   7.320
    1STR    C0S13239  13.369   4.060   7.444
    1STR    C0T13240  13.489   4.020   7.506
    1STR    C0U13241  13.535   4.087   7.621
    1STR    C0V13242  13.462   4.193   7.678
    1STR    C0W13243  13.535   4.278   7.780
    1STR    C0X13244  13.333   4.224   7.627
    1STR    N0Y13245  13.247   4.325   7.672
    1STR   BCK213246  13.209   4.388   7.784
    1STR    O1013247  13.132   4.482   7.772
    1STR    C1313248  13.290   4.158   7.509
    1STR    C1413249  13.447   4.154   5.651
    1STR    C1513250  13.473   4.141   5.513
    1STR    C1613251  13.385   4.195   5.418
    1STR    C1713252  13.413   4.170   5.271
    1STR    H1B13253  13.088   4.279   5.367
    1STR    H1C13254  13.156   4.332   5.633
    1STR    H1D13255  13.208   4.265   5.859
    1STR    H1E13256  13.436   4.108   6.171
    1STR    H1F13257  13.378   4.402   6.237
    1STR    H1G13258  13.497   4.300   6.318
    1STR    H1H13259  13.520   4.343   6.150
    1STR    H1I13260  13.208   4.062   6.253
    1STR    H1J13261  13.191   4.230   6.304
    1STR    H1K13262  13.161   4.138   6.524
    1STR    H1M13263  13.303   3.867   6.491
    1STR    H1N13264  13.151   3.912   6.414
    1STR    H1O13265  13.159   3.893   6.588
    1STR    H1P13266  13.419   4.036   6.650
    1STR    H1Q13267  13.365   4.203   6.653
    1STR    H1R13268  13.403   4.018   6.886
    1STR    H1S13269  13.381   4.226   7.031
    1STR    H1T13270  13.246   4.280   6.932
    1STR    H1U13271  13.408   4.270   6.864
    1STR    H1V13272  13.181   3.911   6.946
    1STR    H1W13273  13.124   4.064   7.004
    1STR    H1X13274  13.387   3.921   7.292
    1STR    H1Y13275  13.551   3.944   7.462
    1STR    H1Z13276  13.632   4.060   7.661
    1STR    H2013277  13.500   4.381   7.776
    1STR    H2113278  13.523   4.240   7.881
    1STR    H2213279  13.641   4.280   7.758
    1STR    H2313280  13.188   4.363   7.599
    1STR    H2713281  13.195   4.185   7.465
    1STR    H2813282  13.518   4.108   5.718
    1STR    H2913283  13.561   4.088   5.481
    1STR    H2A13284  13.320   4.153   5.216
    1STR    H2B13285  13.475   4.082   5.257
    1STR    H2C13286  13.464   4.255   5.227
    1STR   BCK113287  13.167   4.458   9.605
    1STR    O0313288  13.064   4.410   9.558
    1STR    N0413289  13.178   4.519   9.724
    1STR    C0513290  13.081   4.567   9.812
    1STR    C0613291  13.095   4.544   9.952
    1STR    C0713292  13.013   4.610  10.048
    1STR    N0813293  13.033   4.589  10.186
    1STR    C0913294  13.000   4.668  10.289
    1STR    O0A13295  12.947   4.778  10.278
    1STR    O0B13296  13.034   4.612  10.409
    1STR    C0C13297  12.998   4.678  10.532
    1STR    C0D13298  12.853   4.642  10.568
    1STR    C0E13299  13.095   4.640  10.646
    1STR    O0F13300  13.058   4.711  10.766
    1STR    C0G13301  13.142   4.688  10.880
    1STR    C0H13302  13.271   4.771  10.866
    1STR    C0I13303  13.064   4.728  11.008
    1STR    O0J13304  13.142   4.697  11.124
    1STR    C0K13305  13.084   4.732  11.250
    1STR    C0M13306  12.973   4.632  11.287
    1STR    C0N13307  13.197   4.730  11.355
    1STR    O0O13308  13.152   4.779  11.481
    1STR    C0P13309  13.142   4.698  11.587
    1STR    O0Q13310  13.163   4.577  11.586
    1STR    N0R13311  13.103   4.769  11.694
    1STR    C0S13312  13.076   4.730  11.826
    1STR    C0T13313  13.012   4.825  11.909
    1STR    C0U13314  12.977   4.792  12.041
    1STR    C0V13315  13.007   4.665  12.095
    1STR    C0W13316  12.959   4.631  12.235
    1STR    C0X13317  13.077   4.571  12.015
    1STR    N0Y13318  13.106   4.443  12.062
    1STR   BCK213319  13.178   4.409  12.169
    1STR    O1013320  13.240   4.488  12.240
    1STR    C1313321  13.109   4.604  11.881
    1STR    C1413322  12.913   4.696  10.000
    1STR    C1513323  12.897   4.720   9.862
    1STR    C1613324  12.981   4.658   9.768
    1STR    C1713325  12.967   4.697   9.622
    1STR    H1B13326  13.274   4.539   9.748
    1STR    H1C13327  13.173   4.477   9.986
    1STR    H1D13328  13.081   4.505  10.215
    1STR    H1E13329  13.005   4.786  10.518
    1STR    H1F13330  12.840   4.535  10.583
    1STR    H1G13331  12.821   4.693  10.659
    1STR    H1H13332  12.784   4.673  10.489
    1STR    H1I13333  13.196   4.666  10.617
    1STR    H1J13334  13.092   4.533  10.664
    1STR    H1K13335  13.166   4.582  10.888
    1STR    H1M13336  13.248   4.877  10.853
    1STR    H1N13337  13.331   4.739  10.782
    1STR    H1O13338  13.332   4.761  10.956
    1STR    H1P13339  13.040   4.835  11.005
    1STR    H1Q13340  12.969   4.675  11.010
    1STR    H1R13341  13.044   4.833  11.245
    1STR    H1S13342  12.933   4.654  11.386
    1STR    H1T13343  13.012   4.530  11.290
    1STR    H1U13344  12.890   4.635  11.218
    1STR    H1V13345  13.279   4.795  11.322
    1STR    H1W13346  13.241   4.630  11.363
    1STR    H1X13347  13.091   4.865  11.670
    1STR    H1Y13348  12.986   4.923  11.872
    1STR    H1Z13349  12.926   4.865  12.102
    1STR    H2013350  12.929   4.526  12.241
    1STR    H2113351  13.039   4.648  12.307
    1STR    H2213352  12.873   4.691  12.263
    1STR    H2313353  13.076   4.365  12.006
    1STR    H2713354  13.161   4.531  11.821
    1STR    H2813355  12.846   4.748  10.067
    1STR    H2913356  12.821   4.789   9.829
    1STR    H2A13357  13.064   4.712   9.575
    1STR    H2B13358  12.912   4.791   9.611
    1STR    H2C13359  12.913   4.620   9.567
    1STR   BCK113360  13.141   4.313  13.986
    1STR    O0313361  13.212   4.218  13.957
    1STR    N0413362  13.055   4.316  14.089
    1STR    C0513363  13.020   4.211  14.175
    1STR    C0613364  13.022   4.231  14.315
    1STR    C0713365  12.980   4.130  14.407
    1STR    N0813366  12.980   4.157  14.545
    1STR    C0913367  12.950   4.076  14.649
    1STR    O0A13368  12.921   3.957  14.640
    1STR    O0B13369  12.957   4.142  14.767
    1STR    C0C13370  12.934   4.071  14.890
    1STR    C0D13371  13.064   3.998  14.931
    1STR    C0E13372  12.885   4.165  15.002
    1STR    O0F13373  12.862   4.088  15.121
    1STR    C0G13374  12.815   4.162  15.234
    1STR    C0H13375  12.664   4.187  15.220
    1STR    C0I13376  12.846   4.080  15.361
    1STR    O0J13377  12.812   4.157  15.477
    1STR    C0K13378  12.830   4.093  15.603
    1STR    C0M13379  12.979   4.087  15.639
    1STR    C0N13380  12.751   4.176  15.707
    1STR    O0O13381  12.746   4.110  15.833
    1STR    C0P13382  12.820   4.152  15.937
    1STR    O0Q13383  12.903   4.243  15.934
    1STR    N0R13384  12.789   4.079  16.044
    1STR    C0S13385  12.836   4.079  16.175
    1STR    C0T13386  12.775   3.987  16.263
    1STR    C0U13387  12.821   3.973  16.395
    1STR    C0V13388  12.928   4.051  16.443
    1STR    C0W13389  12.983   4.019  16.581
    1STR    C0X13390  12.986   4.150  16.359
    1STR    N0Y13391  13.094   4.227  16.402
    1STR   BCK213392  13.103   4.304  16.511
    1STR    O1013393  13.013   4.323  16.591
    1STR    C1313394  12.940   4.161  16.225
    1STR    C1413395  12.937   4.007  14.352
    1STR    C1513396  12.933   3.987  14.213
    1STR    C1613397  12.971   4.088  14.124
    1STR    C1713398  12.953   4.062  13.975
    1STR    H1B13399  13.010   4.405  14.103
    1STR    H1C13400  13.057   4.326  14.353
    1STR    H1D13401  13.005   4.249  14.576
    1STR    H1E13402  12.856   3.996  14.874
    1STR    H1F13403  13.145   4.068  14.949
    1STR    H1G13404  13.049   3.940  15.022
    1STR    H1H13405  13.096   3.928  14.853
    1STR    H1I13406  12.794   4.214  14.970
    1STR    H1J13407  12.959   4.243  15.021
    1STR    H1K13408  12.868   4.256  15.242
    1STR    H1M13409  12.609   4.093  15.208
    1STR    H1N13410  12.640   4.251  15.135
    1STR    H1O13411  12.625   4.236  15.309
    1STR    H1P13412  12.790   3.986  15.360
    1STR    H1Q13413  12.951   4.054  15.362
    1STR    H1R13414  12.788   3.993  15.600
    1STR    H1S13415  12.994   4.042  15.738
    1STR    H1T13416  13.023   4.186  15.643
    1STR    H1U13417  13.037   4.027  15.569
    1STR    H1V13418  12.648   4.187  15.673
    1STR    H1W13419  12.791   4.277  15.715
    1STR    H1X13420  12.717   4.013  16.021
    1STR    H1Y13421  12.695   3.924  16.230
    1STR    H1Z13422  12.775   3.899  16.460
    1STR    H2013423  13.090   4.005  16.576
    1STR    H2113424  12.960   4.097  16.653
    1STR    H2213425  12.941   3.926  16.621
    1STR    H2313426  13.175   4.229  16.342
    1STR    H2713427  12.987   4.234  16.161
    1STR    H2813428  12.904   3.925  14.414
    1STR    H2913429  12.897   3.892  14.176
    1STR    H2A13430  12.923   4.153  13.923
    1STR    H2B13431  12.876   3.988  13.957
    1STR    H2C13432  13.046   4.026  13.932
    1STR   BCK113433  13.162   8.779   0.908
    1STR    O0313434  13.159   8.900   0.890
    1STR    N0413435  13.225   8.721   1.010
    1STR    C0513436  13.302   8.786   1.105
    1STR    C0613437  13.273   8.772   1.243
    1STR    C0713438  13.353   8.834   1.342
    1STR    N0813439  13.324   8.813   1.477
    1STR    C0913440  13.395   8.844   1.586
    1STR    O0A13441  13.504   8.900   1.585
    1STR    O0B13442  13.333   8.804   1.699
    1STR    C0C13443  13.389   8.839   1.826
    1STR    C0D13444  13.337   8.979   1.866
    1STR    C0E13445  13.356   8.733   1.932
    1STR    O0F13446  13.425   8.771   2.051
    1STR    C0G13447  13.411   8.683   2.162
    1STR    C0H13448  13.505   8.563   2.145
    1STR    C0I13449  13.446   8.765   2.288
    1STR    O0J13450  13.424   8.684   2.403
    1STR    C0K13451  13.458   8.745   2.527
    1STR    C0M13452  13.348   8.845   2.569
    1STR    C0N13453  13.474   8.631   2.629
    1STR    O0O13454  13.528   8.679   2.752
    1STR    C0P13455  13.448   8.700   2.857
    1STR    O0Q13456  13.327   8.680   2.860
    1STR    N0R13457  13.521   8.748   2.958
    1STR    C0S13458  13.482   8.787   3.086
    1STR    C0T13459  13.569   8.871   3.158
    1STR    C0U13460  13.534   8.918   3.286
    1STR    C0V13461  13.413   8.879   3.346
    1STR    C0W13462  13.375   8.936   3.482
    1STR    C0X13463  13.327   8.789   3.278
    1STR    N0Y13464  13.209   8.744   3.336
    1STR   BCK213465  13.197   8.663   3.441
    1STR    O1013466  13.086   8.632   3.482
    1STR    C1313467  13.361   8.746   3.148
    1STR    C1413468  13.461   8.915   1.299
    1STR    C1513469  13.492   8.928   1.163
    1STR    C1613470  13.416   8.861   1.065
    1STR    C1713471  13.462   8.870   0.920
    1STR    H1B13472  13.221   8.620   1.012
    1STR    H1C13473  13.188   8.712   1.272
    1STR    H1D13474  13.238   8.766   1.500
    1STR    H1E13475  13.498   8.843   1.818
    1STR    H1F13476  13.229   8.980   1.877
    1STR    H1G13477  13.381   9.011   1.960
    1STR    H1H13478  13.364   9.053   1.791
    1STR    H1I13479  13.390   8.636   1.897
    1STR    H1J13480  13.249   8.727   1.949
    1STR    H1K13481  13.307   8.650   2.171
    1STR    H1M13482  13.608   8.595   2.132
    1STR    H1N13483  13.478   8.501   2.060
    1STR    H1O13484  13.501   8.499   2.234
    1STR    H1P13485  13.549   8.798   2.283
    1STR    H1Q13486  13.383   8.854   2.291
    1STR    H1R13487  13.554   8.796   2.519
    1STR    H1S13488  13.370   8.889   2.666
    1STR    H1T13489  13.251   8.795   2.577
    1STR    H1U13490  13.338   8.927   2.499
    1STR    H1V13491  13.543   8.557   2.590
    1STR    H1W13492  13.379   8.578   2.644
    1STR    H1X13493  13.617   8.759   2.932
    1STR    H1Y13494  13.663   8.903   3.116
    1STR    H1Z13495  13.601   8.984   3.339
    1STR    H2013496  13.267   8.949   3.490
    1STR    H2113497  13.408   8.869   3.561
    1STR    H2213498  13.421   9.033   3.498
    1STR    H2313499  13.122   8.768   3.292
    1STR    H2713500  13.295   8.678   3.097
    1STR    H2813501  13.523   8.969   1.368
    1STR    H2913502  13.577   8.988   1.134
    1STR    H2A13503  13.441   8.777   0.867
    1STR    H2B13504  13.569   8.888   0.914
    1STR    H2C13505  13.410   8.951   0.870
    1STR   BCK113506  13.089   8.785   5.255
    1STR    O0313507  13.041   8.680   5.214
    1STR    N0413508  13.053   8.849   5.367
    1STR    C0513509  12.944   8.825   5.452
    1STR    C0613510  12.965   8.824   5.593
    1STR    C0713511  12.857   8.815   5.685
    1STR    N0813512  12.881   8.818   5.824
    1STR    C0913513  12.796   8.842   5.926
    1STR    O0A13514  12.677   8.869   5.913
    1STR    O0B13515  12.858   8.835   6.047
    1STR    C0C13516  12.782   8.848   6.169
    1STR    C0D13517  12.719   8.712   6.203
    1STR    C0E13518  12.869   8.901   6.285
    1STR    O0F13519  12.790   8.915   6.404
    1STR    C0G13520  12.858   8.968   6.519
    1STR    C0H13521  12.870   9.120   6.505
    1STR    C0I13522  12.779   8.930   6.646
    1STR    O0J13523  12.851   8.971   6.763
    1STR    C0K13524  12.789   8.946   6.889
    1STR    C0M13525  12.799   8.797   6.924
    1STR    C0N13526  12.862   9.032   6.995
    1STR    O0O13527  12.798   9.024   7.123
    1STR    C0P13528  12.857   8.961   7.227
    1STR    O0Q13529  12.964   8.901   7.221
    1STR    N0R13530  12.782   8.975   7.336
    1STR    C0S13531  12.796   8.928   7.467
    1STR    C0T13532  12.689   8.952   7.556
    1STR    C0U13533  12.692   8.902   7.687
    1STR    C0V13534  12.801   8.827   7.733
    1STR    C0W13535  12.792   8.765   7.872
    1STR    C0X13536  12.913   8.806   7.648
    1STR    N0Y13537  13.024   8.731   7.687
    1STR   BCK213538  13.098   8.740   7.798
    1STR    O1013539  13.085   8.826   7.884
    1STR    C1313540  12.908   8.856   7.515
    1STR    C1413541  12.726   8.803   5.632
    1STR    C1513542  12.704   8.805   5.493
    1STR    C1613543  12.811   8.819   5.403
    1STR    C1713544  12.779   8.832   5.255
    1STR    H1B13545  13.112   8.927   5.390
    1STR    H1C13546  13.066   8.832   5.631
    1STR    H1D13547  12.975   8.802   5.856
    1STR    H1E13548  12.702   8.920   6.153
    1STR    H1F13549  12.796   8.636   6.221
    1STR    H1G13550  12.658   8.719   6.293
    1STR    H1H13551  12.655   8.676   6.123
    1STR    H1I13552  12.912   8.997   6.256
    1STR    H1J13553  12.953   8.833   6.303
    1STR    H1K13554  12.957   8.923   6.527
    1STR    H1M13555  12.772   9.166   6.492
    1STR    H1N13556  12.932   9.149   6.421
    1STR    H1O13557  12.915   9.163   6.595
    1STR    H1P13558  12.680   8.976   6.644
    1STR    H1Q13559  12.763   8.822   6.648
    1STR    H1R13560  12.685   8.977   6.886
    1STR    H1S13561  12.757   8.777   7.023
    1STR    H1T13562  12.902   8.763   6.926
    1STR    H1U13563  12.744   8.734   6.854
    1STR    H1V13564  12.860   9.136   6.965
    1STR    H1W13565  12.968   9.005   7.001
    1STR    H1X13566  12.700   9.030   7.315
    1STR    H1Y13567  12.602   9.007   7.524
    1STR    H1Z13568  12.607   8.919   7.752
    1STR    H2013569  12.845   8.670   7.877
    1STR    H2113570  12.837   8.832   7.946
    1STR    H2213571  12.689   8.747   7.901
    1STR    H2313572  13.057   8.662   7.622
    1STR    H2713573  12.992   8.838   7.450
    1STR    H2813574  12.640   8.793   5.695
    1STR    H2913575  12.603   8.799   5.456
    1STR    H2A13576  12.845   8.904   5.207
    1STR    H2B13577  12.677   8.866   5.240
    1STR    H2C13578  12.790   8.736   5.205
    1STR   BCK113579  13.210   8.720   9.634
    1STR    O0313580  13.332   8.711   9.619
    1STR    N0413581  13.141   8.657   9.728
    1STR    C0513582  13.189   8.562   9.818
    1STR    C0613583  13.173   8.581   9.958
    1STR    C0713584  13.215   8.483  10.051
    1STR    N0813585  13.194   8.504  10.188
    1STR    C0913586  13.240   8.436  10.294
    1STR    O0A13587  13.320   8.343  10.288
    1STR    O0B13588  13.189   8.483  10.410
    1STR    C0C13589  13.229   8.425  10.534
    1STR    C0D13590  13.363   8.487  10.578
    1STR    C0E13591  13.120   8.445  10.641
    1STR    O0F13592  13.163   8.380  10.761
    1STR    C0G13593  13.073   8.390  10.872
    1STR    C0H13594  12.962   8.285  10.857
    1STR    C0I13595  13.155   8.367  11.000
    1STR    O0J13596  13.072   8.393  11.114
    1STR    C0K13597  13.132   8.367  11.240
    1STR    C0M13598  13.234   8.477  11.276
    1STR    C0N13599  13.020   8.360  11.345
    1STR    O0O13600  13.072   8.308  11.467
    1STR    C0P13601  13.084   8.384  11.576
    1STR    O0Q13602  13.051   8.501  11.588
    1STR    N0R13603  13.140   8.309  11.671
    1STR    C0S13604  13.174   8.331  11.804
    1STR    C0T13605  13.233   8.223  11.871
    1STR    C0U13606  13.263   8.231  12.008
    1STR    C0V13607  13.234   8.347  12.081
    1STR    C0W13608  13.255   8.339  12.231
    1STR    C0X13609  13.180   8.461  12.015
    1STR    N0Y13610  13.139   8.576  12.084
    1STR   BCK213611  13.192   8.651  12.182
    1STR    O1013612  13.124   8.741  12.231
    1STR    C1313613  13.149   8.451  11.877
    1STR    C1413614  13.274   8.365  10.001
    1STR    C1513615  13.289   8.344   9.863
    1STR    C1613616  13.245   8.441   9.771
    1STR    C1713617  13.256   8.410   9.622
    1STR    H1B13618  13.042   8.675   9.728
    1STR    H1C13619  13.128   8.673   9.992
    1STR    H1D13620  13.135   8.581  10.216
    1STR    H1E13621  13.242   8.318  10.521
    1STR    H1F13622  13.355   8.594  10.593
    1STR    H1G13623  13.398   8.442  10.671
    1STR    H1H13624  13.440   8.470  10.503
    1STR    H1I13625  13.027   8.401  10.606
    1STR    H1J13626  13.103   8.551  10.658
    1STR    H1K13627  13.030   8.491  10.877
    1STR    H1M13628  13.003   8.185  10.847
    1STR    H1N13629  12.899   8.304  10.770
    1STR    H1O13630  12.897   8.286  10.945
    1STR    H1P13631  13.194   8.266  11.002
    1STR    H1Q13632  13.240   8.435  11.000
    1STR    H1R13633  13.182   8.270  11.238
    1STR    H1S13634  13.276   8.460  11.375
    1STR    H1T13635  13.186   8.575  11.278
    1STR    H1U13636  13.317   8.481  11.206
    1STR    H1V13637  12.942   8.292  11.311
    1STR    H1W13638  12.971   8.457  11.358
    1STR    H1X13639  13.158   8.217  11.634
    1STR    H1Y13640  13.254   8.130  11.820
    1STR    H1Z13641  13.305   8.145  12.057
    1STR    H2013642  13.358   8.366  12.253
    1STR    H2113643  13.186   8.404  12.284
    1STR    H2213644  13.239   8.238  12.268
    1STR    H2313645  13.050   8.614  12.057
    1STR    H2713646  13.104   8.535  11.826
    1STR    H2813647  13.308   8.286  10.065
    1STR    H2913648  13.333   8.252   9.828
    1STR    H2A13649  13.169   8.447   9.568
    1STR    H2B13650  13.262   8.302   9.605
    1STR    H2C13651  13.345   8.456   9.580
    1STR   BCK113652  13.158   8.780  13.965
    1STR    O0313653  13.068   8.843  13.910
    1STR    N0413654  13.210   8.809  14.085
    1STR    C0513655  13.180   8.912  14.174
    1STR    C0613656  13.175   8.882  14.313
    1STR    C0713657  13.157   8.983  14.411
    1STR    N0813658  13.159   8.951  14.548
    1STR    C0913659  13.178   9.031  14.654
    1STR    O0A13660  13.199   9.152  14.647
    1STR    O0B13661  13.173   8.962  14.771
    1STR    C0C13662  13.178   9.034  14.895
    1STR    C0D13663  13.036   9.080  14.932
    1STR    C0E13664  13.241   8.948  15.007
    1STR    O0F13665  13.250   9.027  15.126
    1STR    C0G13666  13.309   8.964  15.239
    1STR    C0H13667  13.462   8.964  15.224
    1STR    C0I13668  13.265   9.041  15.365
    1STR    O0J13669  13.317   8.977  15.481
    1STR    C0K13670  13.287   9.039  15.606
    1STR    C0M13671  13.142   9.010  15.647
    1STR    C0N13672  13.388   8.984  15.708
    1STR    O0O13673  13.379   9.050  15.834
    1STR    C0P13674  13.321   8.990  15.939
    1STR    O0Q13675  13.265   8.881  15.935
    1STR    N0R13676  13.333   9.067  16.047
    1STR    C0S13677  13.288   9.048  16.179
    1STR    C0T13678  13.294   9.157  16.267
    1STR    C0U13679  13.246   9.146  16.399
    1STR    C0V13680  13.191   9.025  16.446
    1STR    C0W13681  13.130   9.022  16.585
    1STR    C0X13682  13.189   8.912  16.360
    1STR    N0Y13683  13.130   8.791  16.397
    1STR   BCK213684  13.159   8.706  16.496
    1STR    O1013685  13.095   8.603  16.505
    1STR    C1313686  13.236   8.925  16.228
    1STR    C1413687  13.137   9.116  14.366
    1STR    C1513688  13.144   9.147  14.229
    1STR    C1613689  13.169   9.048  14.133
    1STR    C1713690  13.191   9.093  13.990
    1STR    H1B13691  13.282   8.745  14.112
    1STR    H1C13692  13.187   8.780  14.345
    1STR    H1D13693  13.149   8.854  14.574
    1STR    H1E13694  13.242   9.122  14.884
    1STR    H1F13695  12.969   8.995  14.946
    1STR    H1G13696  13.037   9.138  15.025
    1STR    H1H13697  12.995   9.144  14.854
    1STR    H1I13698  13.340   8.915  14.975
    1STR    H1J13699  13.181   8.858  15.024
    1STR    H1K13700  13.272   8.861  15.248
    1STR    H1M13701  13.500   9.066  15.210
    1STR    H1N13702  13.496   8.904  15.139
    1STR    H1O13703  13.510   8.923  15.313
    1STR    H1P13704  13.301   9.144  15.359
    1STR    H1Q13705  13.156   9.045  15.368
    1STR    H1R13706  13.303   9.147  15.598
    1STR    H1S13707  13.120   9.052  15.745
    1STR    H1T13708  13.125   8.902  15.654
    1STR    H1U13709  13.070   9.051  15.577
    1STR    H1V13710  13.490   8.999  15.671
    1STR    H1W13711  13.377   8.876  15.718
    1STR    H1X13712  13.380   9.153  16.026
    1STR    H1Y13713  13.333   9.253  16.235
    1STR    H1Z13714  13.249   9.232  16.464
    1STR    H2013715  13.048   8.950  16.591
    1STR    H2113716  13.205   8.994  16.659
    1STR    H2213717  13.090   9.119  16.613
    1STR    H2313718  13.059   8.755  16.336
    1STR    H2713719  13.232   8.839  16.164
    1STR    H2813720  13.118   9.197  14.434
    1STR    H2913721  13.133   9.250  14.199
    1STR    H2A13722  13.263   9.029  13.939
    1STR    H2B13723  13.231   9.195  13.987
    1STR    H2C13724  13.097   9.092  13.935
    1STR   BCK113725  13.094  13.062   0.904
    1STR    O0313726  13.119  12.947   0.867
    1STR    N0413727  13.019  13.094   1.011
    1STR    C0513728  12.944  13.011   1.095
    1STR    C0613729  12.955  13.025   1.236
    1STR    C0713730  12.875  12.950   1.326
    1STR    N0813731  12.887  12.971   1.465
    1STR    C0913732  12.816  12.920   1.568
    1STR    O0A13733  12.724  12.839   1.556
    1STR    O0B13734  12.859  12.968   1.687
    1STR    C0C13735  12.801  12.918   1.809
    1STR    C0D13736  12.870  12.786   1.847
    1STR    C0E13737  12.811  13.022   1.923
    1STR    O0F13738  12.750  12.968   2.042
    1STR    C0G13739  12.749  13.054   2.156
    1STR    C0H13740  12.635  13.157   2.142
    1STR    C0I13741  12.731  12.969   2.283
    1STR    O0J13742  12.743  13.051   2.399
    1STR    C0K13743  12.725  12.987   2.526
    1STR    C0M13744  12.848  12.902   2.561
    1STR    C0N13745  12.701  13.097   2.631
    1STR    O0O13746  12.667  13.043   2.758
    1STR    C0P13747  12.754  13.045   2.860
    1STR    O0Q13748  12.870  13.085   2.854
    1STR    N0R13749  12.694  12.997   2.969
    1STR    C0S13750  12.739  12.975   3.100
    1STR    C0T13751  12.648  12.917   3.190
    1STR    C0U13752  12.687  12.885   3.322
    1STR    C0V13753  12.818  12.911   3.366
    1STR    C0W13754  12.858  12.861   3.504
    1STR    C0X13755  12.910  12.977   3.280
    1STR    N0Y13756  13.041  13.004   3.318
    1STR   BCK213757  13.086  13.067   3.427
    1STR    O1013758  13.016  13.112   3.517
    1STR    C1313759  12.870  13.006   3.147
    1STR    C1413760  12.785  12.856   1.270
    1STR    C1513761  12.772  12.842   1.131
    1STR    C1613762  12.848  12.920   1.043
    1STR    C1713763  12.820  12.907   0.894
    1STR    H1B13764  13.018  13.192   1.031
    1STR    H1C13765  13.027  13.096   1.275
    1STR    H1D13766  12.958  13.035   1.497
    1STR    H1E13767  12.695  12.898   1.793
    1STR    H1F13768  12.977  12.801   1.865
    1STR    H1G13769  12.826  12.744   1.937
    1STR    H1H13770  12.860  12.712   1.768
    1STR    H1I13771  12.760  13.113   1.893
    1STR    H1J13772  12.915  13.047   1.943
    1STR    H1K13773  12.845  13.106   2.165
    1STR    H1M13774  12.539  13.107   2.129
    1STR    H1N13775  12.650  13.224   2.058
    1STR    H1O13776  12.628  13.219   2.232
    1STR    H1P13777  12.634  12.918   2.281
    1STR    H1Q13778  12.807  12.891   2.284
    1STR    H1R13779  12.636  12.923   2.522
    1STR    H1S13780  12.838  12.857   2.659
    1STR    H1T13781  12.938  12.964   2.564
    1STR    H1U13782  12.865  12.821   2.490
    1STR    H1V13783  12.618  13.160   2.599
    1STR    H1W13784  12.787  13.164   2.637
    1STR    H1X13785  12.599  12.972   2.949
    1STR    H1Y13786  12.548  12.893   3.160
    1STR    H1Z13787  12.617  12.837   3.388
    1STR    H2013788  12.959  12.821   3.503
    1STR    H2113789  12.853  12.941   3.578
    1STR    H2213790  12.792  12.781   3.538
    1STR    H2313791  13.113  12.980   3.252
    1STR    H2713792  12.941  13.053   3.081
    1STR    H2813793  12.722  12.794   1.331
    1STR    H2913794  12.700  12.772   1.093
    1STR    H2A13795  12.831  13.003   0.844
    1STR    H2B13796  12.719  12.872   0.876
    1STR    H2C13797  12.889  12.836   0.849
    1STR   BCK113798  13.190  13.145   5.271
    1STR    O0313799  13.270  13.237   5.256
    1STR    N0413800  13.198  13.054   5.368
    1STR    C0513801  13.300  13.044   5.463
    1STR    C0613802  13.269  13.047   5.601
    1STR    C0713803  13.371  13.033   5.699
    1STR    N0813804  13.335  13.031   5.835
    1STR    C0913805  13.413  13.029   5.944
    1STR    O0A13806  13.536  13.036   5.943
    1STR    O0B13807  13.340  13.019   6.057
    1STR    C0C13808  13.406  13.019   6.184
    1STR    C0D13809  13.436  13.163   6.226
    1STR    C0E13810  13.323  12.944   6.289
    1STR    O0F13811  13.400  12.939   6.409
    1STR    C0G13812  13.339  12.872   6.519
    1STR    C0H13813  13.354  12.720   6.501
    1STR    C0I13814  13.410  12.920   6.647
    1STR    O0J13815  13.345  12.864   6.760
    1STR    C0K13816  13.405  12.893   6.886
    1STR    C0M13817  13.372  13.037   6.929
    1STR    C0N13818  13.349  12.790   6.986
    1STR    O0O13819  13.419  12.795   7.110
    1STR    C0P13820  13.366  12.857   7.216
    1STR    O0Q13821  13.256  12.911   7.220
    1STR    N0R13822  13.455  12.856   7.315
    1STR    C0S13823  13.450  12.915   7.441
    1STR    C0T13824  13.573  12.949   7.501
    1STR    C0U13825  13.576  13.017   7.624
    1STR    C0V13826  13.456  13.051   7.690
    1STR    C0W13827  13.467  13.137   7.815
    1STR    C0X13828  13.332  13.009   7.636
    1STR    N0Y13829  13.213  13.041   7.701
    1STR   BCK213830  13.162  12.989   7.814
    1STR    O1013831  13.079  13.052   7.877
    1STR    C1313832  13.329  12.944   7.511
    1STR    C1413833  13.504  13.016   5.654
    1STR    C1513834  13.535  13.011   5.517
    1STR    C1613835  13.433  13.022   5.421
    1STR    C1713836  13.471  13.006   5.275
    1STR    H1B13837  13.128  12.982   5.366
    1STR    H1C13838  13.167  13.062   5.631
    1STR    H1D13839  13.238  13.031   5.858
    1STR    H1E13840  13.500  12.964   6.174
    1STR    H1F13841  13.344  13.221   6.238
    1STR    H1G13842  13.490  13.166   6.321
    1STR    H1H13843  13.498  13.214   6.152
    1STR    H1I13844  13.300  12.844   6.253
    1STR    H1J13845  13.228  12.995   6.306
    1STR    H1K13846  13.234  12.899   6.526
    1STR    H1M13847  13.459  12.692   6.489
    1STR    H1N13848  13.299  12.682   6.415
    1STR    H1O13849  13.316  12.667   6.589
    1STR    H1P13850  13.515  12.892   6.644
    1STR    H1Q13851  13.406  13.029   6.650
    1STR    H1R13852  13.513  12.879   6.880
    1STR    H1S13853  13.414  13.060   7.027
    1STR    H1T13854  13.264  13.052   6.935
    1STR    H1U13855  13.413  13.111   6.860
    1STR    H1V13856  13.363  12.689   6.946
    1STR    H1W13857  13.242  12.802   6.999
    1STR    H1X13858  13.540  12.809   7.288
    1STR    H1Y13859  13.666  12.927   7.452
    1STR    H1Z13860  13.671  13.046   7.666
    1STR    H2013861  13.371  13.180   7.844
    1STR    H2113862  13.506  13.078   7.898
    1STR    H2213863  13.536  13.219   7.798
    1STR    H2313864  13.157  13.115   7.663
    1STR    H2713865  13.234  12.917   7.467
    1STR    H2813866  13.587  13.005   5.722
    1STR    H2913867  13.637  12.997   5.487
    1STR    H2A13868  13.393  12.954   5.219
    1STR    H2B13869  13.563  12.949   5.264
    1STR    H2C13870  13.487  13.104   5.229
    1STR   BCK113871  13.133  13.178   9.607
    1STR    O0313872  13.047  13.102   9.564
    1STR    N0413873  13.127  13.244   9.724
    1STR    C0513874  13.019  13.265   9.811
    1STR    C0613875  13.038  13.249   9.951
    1STR    C0713876  12.939  13.287  10.046
    1STR    N0813877  12.963  13.276  10.185
    1STR    C0913878  12.903  13.339  10.287
    1STR    O0A13879  12.816  13.424  10.275
    1STR    O0B13880  12.953  13.299  10.408
    1STR    C0C13881  12.895  13.350  10.530
    1STR    C0D13882  12.770  13.267  10.565
    1STR    C0E13883  12.998  13.347  10.646
    1STR    O0F13884  12.939  13.401  10.765
    1STR    C0G13885  13.025  13.409  10.880
    1STR    C0H13886  13.117  13.531  10.866
    1STR    C0I13887  12.938  13.420  11.007
    1STR    O0J13888  13.022  13.417  11.124
    1STR    C0K13889  12.956  13.429  11.250
    1STR    C0M13890  12.885  13.297  11.286
    1STR    C0N13891  13.063  13.464  11.356
    1STR    O0O13892  13.005  13.492  11.483
    1STR    C0P13893  13.024  13.410  11.588
    1STR    O0Q13894  13.085  13.304  11.585
    1STR    N0R13895  12.966  13.463  11.696
    1STR    C0S13896  12.954  13.417  11.828
    1STR    C0T13897  12.869  13.490  11.914
    1STR    C0U13898  12.847  13.448  12.047
    1STR    C0V13899  12.911  13.332  12.097
    1STR    C0W13900  12.876  13.285  12.238
    1STR    C0X13901  13.001  13.261  12.015
    1STR    N0Y13902  13.062  13.144  12.059
    1STR   BCK213903  13.138  13.124  12.167
    1STR    O1013904  13.182  13.212  12.240
    1STR    C1313905  13.020  13.303  11.881
    1STR    C1413906  12.817  13.337   9.995
    1STR    C1513907  12.796  13.353   9.857
    1STR    C1613908  12.897  13.319   9.765
    1STR    C1713909  12.872  13.350   9.618
    1STR    H1B13910  13.213  13.290   9.748
    1STR    H1C13911  13.132  13.210   9.987
    1STR    H1D13912  13.035  13.213  10.215
    1STR    H1E13913  12.866  13.454  10.515
    1STR    H1F13914  12.795  13.162  10.581
    1STR    H1G13915  12.723  13.305  10.656
    1STR    H1H13916  12.696  13.272  10.485
    1STR    H1I13917  13.085  13.406  10.616
    1STR    H1J13918  13.032  13.246  10.663
    1STR    H1K13919  13.084  13.318  10.888
    1STR    H1M13920  13.060  13.623  10.853
    1STR    H1N13921  13.186  13.522  10.782
    1STR    H1O13922  13.179  13.543  10.955
    1STR    H1P13923  12.880  13.512  11.005
    1STR    H1Q13924  12.868  13.337  11.009
    1STR    H1R13925  12.884  13.511  11.247
    1STR    H1S13926  12.840  13.304  11.385
    1STR    H1T13927  12.956  13.214  11.288
    1STR    H1U13928  12.805  13.273  11.216
    1STR    H1V13929  13.117  13.553  11.325
    1STR    H1W13930  13.138  13.385  11.362
    1STR    H1X13931  12.922  13.551  11.674
    1STR    H1Y13932  12.817  13.577  11.880
    1STR    H1Z13933  12.779  13.503  12.110
    1STR    H2013934  12.873  13.176  12.242
    1STR    H2113935  12.951  13.320  12.309
    1STR    H2213936  12.778  13.322  12.269
    1STR    H2313937  13.051  13.062  12.001
    1STR    H2713938  13.088  13.246  11.818
    1STR    H2813939  12.736  13.366  10.061
    1STR    H2913940  12.703  13.395   9.823
    1STR    H2A13941  12.962  13.390   9.571
    1STR    H2B13942  12.794  13.424   9.606
    1STR    H2C13943  12.843  13.260   9.565
    1STR   BCK113944  13.176  13.040  13.991
    1STR    O0313945  13.276  12.971  13.971
    1STR    N0413946  13.087  13.018  14.089
    1STR    C0513947  13.083  12.909  14.176
    1STR    C0613948  13.078  12.931  14.316
    1STR    C0713949  13.067  12.823  14.408
    1STR    N0813950  13.058  12.848  14.546
    1STR    C0913951  13.059  12.764  14.651
    1STR    O0A13952  13.075  12.642  14.642
    1STR    O0B13953  13.042  12.829  14.768
    1STR    C0C13954  13.045  12.756  14.891
    1STR    C0D13955  13.191  12.733  14.933
    1STR    C0E13956  12.965  12.828  15.001
    1STR    O0F13957  12.968  12.749  15.120
    1STR    C0G13958  12.898  12.803  15.232
    1STR    C0H13959  12.748  12.775  15.218
    1STR    C0I13960  12.955  12.737  15.359
    1STR    O0J13961  12.898  12.799  15.475
    1STR    C0K13962  12.937  12.744  15.601
    1STR    C0M13963  13.079  12.790  15.637
    1STR    C0N13964  12.835  12.793  15.705
    1STR    O0O13965  12.855  12.726  15.829
    1STR    C0P13966  12.906  12.790  15.935
    1STR    O0Q13967  12.943  12.907  15.938
    1STR    N0R13968  12.910  12.705  16.038
    1STR    C0S13969  12.951  12.718  16.171
    1STR    C0T13970  12.931  12.606  16.253
    1STR    C0U13971  12.969  12.608  16.388
    1STR    C0V13972  13.027  12.723  16.445
    1STR    C0W13973  13.067  12.714  16.591
    1STR    C0X13974  13.049  12.839  16.364
    1STR    N0Y13975  13.108  12.957  16.410
    1STR   BCK213976  13.128  12.998  16.535
    1STR    O1013977  13.057  13.090  16.575
    1STR    C1313978  13.010  12.834  16.227
    1STR    C1413979  13.061  12.692  14.355
    1STR    C1513980  13.064  12.669  14.216
    1STR    C1613981  13.073  12.777  14.126
    1STR    C1713982  13.065  12.747  13.977
    1STR    H1B13983  13.014  13.087  14.095
    1STR    H1C13984  13.084  13.032  14.353
    1STR    H1D13985  13.051  12.944  14.576
    1STR    H1E13986  12.997  12.658  14.876
    1STR    H1F13987  13.243  12.827  14.951
    1STR    H1G13988  13.196  12.674  15.025
    1STR    H1H13989  13.246  12.678  14.857
    1STR    H1I13990  12.862  12.843  14.967
    1STR    H1J13991  13.008  12.927  15.020
    1STR    H1K13992  12.916  12.910  15.239
    1STR    H1M13993  12.729  12.668  15.207
    1STR    H1N13994  12.704  12.826  15.132
    1STR    H1O13995  12.694  12.808  15.307
    1STR    H1P13996  12.935  12.630  15.359
    1STR    H1Q13997  13.064  12.749  15.360
    1STR    H1R13998  12.932  12.635  15.597
    1STR    H1S13999  13.108  12.752  15.735
    1STR    H1T14000  13.086  12.898  15.641
    1STR    H1U14001  13.154  12.754  15.566
    1STR    H1V14002  12.734  12.769  15.672
    1STR    H1W14003  12.838  12.902  15.716
    1STR    H1X14004  12.874  12.616  16.009
    1STR    H1Y14005  12.887  12.515  16.214
    1STR    H1Z14006  12.953  12.520  16.448
    1STR    H2014007  13.175  12.709  16.597
    1STR    H2114008  13.029  12.798  16.648
    1STR    H2214009  13.026  12.624  16.638
    1STR    H2314010  13.120  13.031  16.344
    1STR    H2714011  13.026  12.920  16.165
    1STR    H2814012  13.052  12.604  14.417
    1STR    H2914013  13.057  12.568  14.179
    1STR    H2A14014  13.009  12.824  13.924
    1STR    H2B14015  13.015  12.652  13.959
    1STR    H2C14016  13.166  12.741  13.935
    1HEX    C0114017   0.303  17.329  16.759
    1HEX    C0214018   0.221  17.415  16.858
    1HEX    C0314019   0.084  17.358  16.891
    1HEX    O0414020   0.058  17.238  16.876
    1HEX    O0514021   0.000   0.010  16.942
    1HEX    C0614022  17.306  17.415  16.971
    1HEX    C0714023  17.279  17.391  17.122
    1HEX    C0814024  17.259   0.089  17.197
    1HEX    O0914025  17.222   0.215  17.138
    1HEX    C0A14026  17.227   0.325  17.224
    1HEX    O0B14027  17.242   0.313  17.346
    1HEX    C0C14028  17.220   0.467  17.162
    1HEX    C0D14029  17.268   0.578  17.262
    1HEX    C0F14030  17.152  17.299  17.131
    1HEX    O0G14031  17.190  17.159  17.126
    1HEX    C0H14032  17.158  17.077  17.024
    1HEX    O0I14033  17.076  17.103  16.937
    1HEX    C0J14034  17.243  16.948  17.018
    1HEX    C0K14035  17.235  16.851  17.139
    1HEX    C0N14036  17.394  17.307  17.191
    1HEX    O0O14037   0.078  17.367  17.233
    1HEX    C0P14038   0.100  17.435  17.359
    1HEX    C0Q14039   0.045  17.383   0.056
    1HEX    C0R14040   0.098  17.238   0.081
    1HEX    O0S14041   0.239  17.223   0.053
    1HEX    C0T14042   0.335  17.230   0.150
    1HEX    O0U14043   0.314  17.259   0.268
    1HEX    C0V14044   0.476  17.192   0.102
    1HEX    C0W14045   0.571  17.311   0.067
    1HEX    C0Y14046   0.104   0.036   0.165
    1HEX    O0Z14047   0.063  -0.000   0.296
    1HEX    C1014048   0.121   0.061   0.400
    1HEX    O1114049   0.208   0.148   0.391
    1HEX    C1214050   0.066   0.015   0.535
    1HEX    C1314051   0.157   0.050   0.655
    1HEX    C1514052  17.328  17.403   0.057
    1HEX    O1614053  17.240  17.360   0.163
    1HEX    C1714054  17.128  17.291   0.127
    1HEX    O1814055  17.126  17.203   0.041
    1HEX    C1914056  16.996  17.338   0.192
    1HEX    C1A14057  16.897  17.391   0.083
    1HEX    H1D14058   0.409  17.344  16.779
    1HEX    H1E14059   0.284  17.224  16.779
    1HEX    H1F14060   0.210   0.078  16.823
    1HEX    H1G14061   0.272  17.419  16.954
    1HEX    H1H14062  17.276  17.328  16.912
    1HEX    H1I14063  17.242   0.055  16.934
    1HEX    H1J14064  17.357   0.115  17.233
    1HEX    H1K14065  17.195   0.075  17.284
    1HEX    H1M14066  17.117   0.484  17.131
    1HEX    H1N14067  17.281   0.468  17.072
    1HEX    H1O14068  17.374   0.565  17.282
    1HEX    H1P14069  17.219   0.564  17.359
    1HEX    H1R14070  17.077  17.324  17.055
    1HEX    H1S14071  17.100  17.312  17.226
    1HEX    H1T14072  17.346  16.981  17.002
    1HEX    H1U14073  17.215  16.895  16.927
    1HEX    H1V14074  17.138  16.802  17.141
    1HEX    H1W14075  17.242  16.907  17.233
    1HEX    H1Y14076  17.425  17.233  17.117
    1HEX    H1Z14077  17.359  17.239  17.269
    1HEX    H2014078   0.080   0.101  17.349
    1HEX    H2114079   0.209  17.435  17.366
    1HEX    H2214080   0.044  17.168   0.017
    1HEX    H2314081   0.075  17.206   0.183
    1HEX    H2414082   0.468  17.123   0.019
    1HEX    H2514083   0.520  17.135   0.184
    1HEX    H2614084   0.522  17.406   0.090
    1HEX    H2714085   0.590  17.312  17.400
    1HEX    H2914086   0.074   0.140   0.148
    1HEX    H2A14087   0.213   0.036   0.160
    1HEX    H2B14088   0.046  17.348   0.531
    1HEX    H2C14089  17.409   0.065   0.545
    1HEX    H2D14090   0.218   0.137   0.633
    1HEX    H2E14091   0.227  17.409   0.676
    1HEX    H2G14092  17.287  17.364  17.407
    1HEX    H2H14093  17.310   0.070   0.049
    1HEX    H2I14094  17.016  17.412   0.269
    1HEX    H2J14095  16.953  17.251   0.241
    1HEX    H2K14096  16.906  17.329  17.433
    1HEX    H2M14097  16.926   0.051   0.052
    1STR    S0014098   0.278  17.360  16.580
    1STR    S0E14099  17.237   0.755  17.217
    1STR    S0M14100  17.368  16.722  17.134
    1STR    S0X14101   0.732  17.305   0.157
    1STR    S1414102   0.059   0.092   0.804
    1STR    S1B14103  16.718  17.394   0.126
    1HEX    C0114104   0.227  17.303   3.605
    1HEX    C0214105   0.210  17.358   3.748
    1HEX    C0314106   0.067  17.341   3.798
    1HEX    O0414107   0.012  17.231   3.791
    1HEX    O0514108   0.015   0.014   3.849
    1HEX    C0614109  17.315   0.019   3.876
    1HEX    C0714110  17.277  17.439   4.026
    1HEX    C0814111  17.298   0.133   4.107
    1HEX    O0914112  17.243   0.265   4.083
    1HEX    C0A14113  17.271   0.361   4.182
    1HEX    O0B14114  17.309   0.330   4.295
    1HEX    C0C14115  17.258   0.512   4.146
    1HEX    C0D14116  17.324   0.606   4.255
    1HEX    C0F14117  17.131  17.383   4.029
    1HEX    O0G14118  17.131  17.239   4.010
    1HEX    C0H14119  17.094  17.180   3.894
    1HEX    O0I14120  17.035  17.236   3.803
    1HEX    C0J14121  17.137  17.032   3.882
    1HEX    C0K14122  17.115  16.945   4.008
    1HEX    C0N14123  17.366  17.326   4.094
    1HEX    O0O14124   0.062  17.352   4.136
    1HEX    C0P14125   0.102  17.429   4.253
    1HEX    C0Q14126   0.067  17.382   4.398
    1HEX    C0R14127   0.131  17.241   4.422
    1HEX    O0S14128   0.272  17.235   4.386
    1HEX    C0T14129   0.372  17.247   4.478
    1HEX    O0U14130   0.356  17.268   4.598
    1HEX    C0V14131   0.514  17.224   4.422
    1HEX    C0W14132   0.608  17.348   4.421
    1HEX    C0Y14133   0.133   0.041   4.497
    1HEX    O0Z14134   0.090   0.003   4.626
    1HEX    C1014135   0.136   0.064   4.734
    1HEX    O1114136   0.220   0.154   4.737
    1HEX    C1214137   0.067   0.010   4.857
    1HEX    C1314138   0.132   0.055   4.988
    1HEX    C1514139  17.352  17.396   4.420
    1HEX    O1614140  17.282  17.341   4.532
    1HEX    C1714141  17.161  17.282   4.508
    1HEX    O1814142  17.137  17.211   4.411
    1HEX    C1914143  17.050  17.319   4.606
    1HEX    C1A14144  16.934  17.397   4.536
    1HEX    H1D14145   0.330  17.270   3.590
    1HEX    H1E14146   0.165  17.214   3.591
    1HEX    H1F14147   0.239   0.023   3.754
    1HEX    H1G14148   0.273  17.303   3.817
    1HEX    H1H14149  17.264  17.387   3.812
    1HEX    H1I14150  17.278   0.116   3.842
    1HEX    H1J14151  17.403   0.154   4.094
    1HEX    H1K14152  17.278   0.109   4.211
    1HEX    H1M14153  17.152   0.534   4.133
    1HEX    H1N14154  17.306   0.528   4.050
    1HEX    H1O14155  17.432   0.589   4.257
    1HEX    H1P14156  17.289   0.576   4.354
    1HEX    H1R14157  17.067  17.433   3.955
    1HEX    H1S14158  17.083  17.403   4.125
    1HEX    H1T14159  17.242  17.030   3.852
    1HEX    H1U14160  17.081  16.990   3.798
    1HEX    H1V14161  17.018  16.969   4.051
    1HEX    H1W14162  17.188  16.970   4.085
    1HEX    H1Y14163  17.378  17.248   4.019
    1HEX    H1Z14164  17.312  17.267   4.167
    1HEX    H2014165   0.079   0.094   4.245
    1HEX    H2114166   0.210  17.428   4.244
    1HEX    H2214167   0.079  17.167   4.361
    1HEX    H2314168   0.116  17.210   4.525
    1HEX    H2414169   0.506  17.180   4.323
    1HEX    H2514170   0.559  17.147   4.485
    1HEX    H2614171   0.611  17.395   4.520
    1HEX    H2714172   0.569  17.424   4.353
    1HEX    H2914173   0.102   0.144   4.478
    1HEX    H2A14174   0.242   0.040   4.491
    1HEX    H2B14175   0.067  17.342   4.849
    1HEX    H2C14176  17.403   0.043   4.854
    1HEX    H2D14177   0.122   0.163   5.000
    1HEX    H2E14178   0.240   0.035   4.987
    1HEX    H2G14179  17.298  17.368   4.332
    1HEX    H2H14180  17.330   0.063   4.426
    1HEX    H2I14181  17.091  17.377   4.689
    1HEX    H2J14182  17.013  17.226   4.649
    1HEX    H2K14183  16.943  17.391   4.427
    1HEX    H2M14184  16.939   0.063   4.561
    1STR    S0014185   0.186  17.421   3.473
    1STR    S0E14186  17.295   0.790   4.246
    1STR    S0M14187  17.117  16.763   3.975
    1STR    S0X14188   0.780  17.306   4.369
    1STR    S1414189   0.054  17.406   5.126
    1STR    S1B14190  16.767  17.336   4.581
    1HEX    C0114191   0.272  17.295   8.031
    1HEX    C0214192   0.205  17.281   8.170
    1HEX    C0314193   0.053  17.278   8.172
    1HEX    O0414194  17.432  17.174   8.146
    1HEX    O0514195   0.000  17.393   8.218
    1HEX    C0614196  17.303  17.398   8.256
    1HEX    C0714197  17.284  17.393   8.410
    1HEX    C0814198  17.301   0.098   8.471
    1HEX    O0914199  17.237   0.222   8.435
    1HEX    C0A14200  17.260   0.330   8.523
    1HEX    O0B14201  17.293   0.316   8.641
    1HEX    C0C14202  17.247   0.472   8.464
    1HEX    C0D14203  17.219   0.589   8.567
    1HEX    C0F14204  17.146  17.321   8.437
    1HEX    O0G14205  17.169  17.179   8.448
    1HEX    C0H14206  17.103  17.084   8.379
    1HEX    O0I14207  17.005  17.103   8.308
    1HEX    C0J14208  17.169  16.944   8.390
    1HEX    C0K14209  17.164  16.874   8.530
    1HEX    C0N14210  17.392  17.300   8.480
    1HEX    O0O14211   0.079  17.353   8.521
    1HEX    C0P14212   0.096  17.426   8.645
    1HEX    C0Q14213   0.046  17.372   8.783
    1HEX    C0R14214   0.103  17.229   8.806
    1HEX    O0S14215   0.243  17.214   8.771
    1HEX    C0T14216   0.343  17.223   8.863
    1HEX    O0U14217   0.329  17.259   8.979
    1HEX    C0V14218   0.480  17.175   8.812
    1HEX    C0W14219   0.585  17.286   8.783
    1HEX    C0Y14220   0.106   0.028   8.889
    1HEX    O0Z14221   0.065  17.439   9.022
    1HEX    C1014222   0.115   0.075   9.122
    1HEX    O1114223   0.197   0.166   9.108
    1HEX    C1214224   0.059   0.039   9.260
    1HEX    C1314225   0.167   0.032   9.371
    1HEX    C1514226  17.328  17.385   8.793
    1HEX    O1614227  17.249  17.314   8.889
    1HEX    C1714228  17.136  17.248   8.846
    1HEX    O1814229  17.125  17.192   8.737
    1HEX    C1914230  17.017  17.252   8.942
    1HEX    C1A14231  16.894  17.334   8.890
    1HEX    H1D14232   0.232  17.194   8.019
    1HEX    H1E14233   0.220  17.390   8.015
    1HEX    H1F14234   0.235  17.364   8.233
    1HEX    H1G14235   0.239  17.192   8.223
    1HEX    H1H14236  17.248  17.317   8.207
    1HEX    H1I14237  17.259   0.049   8.215
    1HEX    H1J14238  17.405   0.123   8.452
    1HEX    H1K14239  17.287   0.089   8.577
    1HEX    H1M14240  17.167   0.470   8.390
    1HEX    H1N14241  17.339   0.493   8.409
    1HEX    H1O14242  17.189   0.546   8.663
    1HEX    H1P14243  17.134   0.648   8.534
    1HEX    H1R14244  17.072  17.344   8.360
    1HEX    H1S14245  17.101  17.355   8.530
    1HEX    H1T14246  17.273  16.955   8.358
    1HEX    H1U14247  17.122  16.880   8.316
    1HEX    H1V14248  17.061  16.869   8.566
    1HEX    H1W14249  17.219  16.932   8.604
    1HEX    H1Y14250  17.415  17.219   8.410
    1HEX    H1Z14251  17.355  17.240   8.563
    1HEX    H2014252   0.064   0.090   8.634
    1HEX    H2114253   0.204  17.436   8.651
    1HEX    H2214254   0.047  17.158   8.744
    1HEX    H2314255   0.086  17.197   8.909
    1HEX    H2414256   0.467  17.111   8.725
    1HEX    H2514257   0.519  17.111   8.891
    1HEX    H2614258   0.553  17.382   8.824
    1HEX    H2714259   0.594  17.302   8.675
    1HEX    H2914260   0.077   0.132   8.867
    1HEX    H2A14261   0.215   0.027   8.885
    1HEX    H2B14262   0.006  17.384   9.253
    1HEX    H2C14263  17.424   0.114   9.283
    1HEX    H2D14264   0.263   0.064   9.330
    1HEX    H2E14265   0.180  17.369   9.405
    1HEX    H2G14266  17.282  17.366   8.698
    1HEX    H2H14267  17.304   0.050   8.809
    1HEX    H2I14268  17.053  17.297   9.034
    1HEX    H2J14269  16.987  17.150   8.967
    1HEX    H2K14270  16.927  17.412   8.821
    1HEX    H2M14271  16.850  17.387   8.975
    1STR    S0014272   0.228  17.262   7.857
    1STR    S0E14273  17.358   0.706   8.604
    1STR    S0M14274  17.233  16.702   8.523
    1STR    S0X14275   0.753  17.247   8.849
    1STR    S1414276   0.132   0.140   9.515
    1STR    S1B14277  16.758  17.241   8.808
    1HEX    C0114278   0.242  17.353  12.330
    1HEX    C0214279   0.202  17.327  12.478
    1HEX    C0314280   0.052  17.318  12.503
    1HEX    O0414281  17.429  17.216  12.475
    1HEX    O0514282   0.003  17.428  12.563
    1HEX    C0614283  17.305  17.434  12.596
    1HEX    C0714284  17.277  17.414  12.747
    1HEX    C0814285  17.284   0.112  12.821
    1HEX    O0914286  17.224   0.237  12.782
    1HEX    C0A14287  17.232   0.339  12.876
    1HEX    O0B14288  17.244   0.319  12.997
    1HEX    C0C14289  17.232   0.485  12.824
    1HEX    C0D14290  17.240   0.591  12.939
    1HEX    C0F14291  17.138  17.340  12.758
    1HEX    O0G14292  17.160  17.199  12.734
    1HEX    C0H14293  17.092  17.128  12.642
    1HEX    O0I14294  16.994  17.168  12.581
    1HEX    C0J14295  17.157  16.991  12.610
    1HEX    C0K14296  17.154  16.885  12.723
    1HEX    C0N14297  17.380  17.314  12.816
    1HEX    O0O14298   0.069  17.358  12.860
    1HEX    C0P14299   0.096  17.432  12.982
    1HEX    C0Q14300   0.051  17.384  13.124
    1HEX    C0R14301   0.106  17.240  13.149
    1HEX    O0S14302   0.246  17.224  13.116
    1HEX    C0T14303   0.345  17.232  13.210
    1HEX    O0U14304   0.329  17.264  13.327
    1HEX    C0V14305   0.484  17.187  13.160
    1HEX    C0W14306   0.588  17.300  13.136
    1HEX    C0Y14307   0.116   0.040  13.226
    1HEX    O0Z14308   0.074   0.008  13.357
    1HEX    C1014309   0.131   0.070  13.461
    1HEX    O1114310   0.222   0.152  13.455
    1HEX    C1214311   0.064   0.031  13.592
    1HEX    C1314312   0.150   0.059  13.716
    1HEX    C1514313  17.335  17.404  13.135
    1HEX    O1614314  17.254  17.371  13.249
    1HEX    C1714315  17.130  17.318  13.224
    1HEX    O1814316  17.109  17.231  13.140
    1HEX    C1914317  17.012  17.383  13.299
    1HEX    C1A14318  16.887  17.393  13.206
    1HEX    H1D14319   0.207  17.251  12.312
    1HEX    H1E14320   0.199   0.012  12.333
    1HEX    H1F14321   0.242  17.405  12.543
    1HEX    H1G14322   0.245  17.234  12.515
    1HEX    H1H14323  17.248  17.363  12.535
    1HEX    H1I14324  17.267   0.091  12.563
    1HEX    H1J14325  17.389   0.140  12.817
    1HEX    H1K14326  17.256   0.093  12.924
    1HEX    H1M14327  17.145   0.500  12.761
    1HEX    H1N14328  17.320   0.495  12.759
    1HEX    H1O14329  17.325   0.570  13.004
    1HEX    H1P14330  17.152   0.582  13.003
    1HEX    H1R14331  17.064  17.383  12.690
    1HEX    H1S14332  17.096  17.351  12.858
    1HEX    H1T14333  17.260  17.012  12.581
    1HEX    H1U14334  17.108  16.952  12.521
    1HEX    H1V14335  17.051  16.855  12.747
    1HEX    H1W14336  17.196  16.926  12.815
    1HEX    H1Y14337  17.403  17.238  12.741
    1HEX    H1Z14338  17.335  17.250  12.891
    1HEX    H2014339   0.071   0.097  12.971
    1HEX    H2114340   0.205  17.435  12.983
    1HEX    H2214341   0.050  17.169  13.088
    1HEX    H2314342   0.087  17.210  13.252
    1HEX    H2414343   0.473  17.124  13.072
    1HEX    H2514344   0.521  17.122  13.239
    1HEX    H2614345   0.571  17.385  13.202
    1HEX    H2714346   0.579  17.338  13.034
    1HEX    H2914347   0.089   0.144  13.206
    1HEX    H2A14348   0.225   0.037  13.220
    1HEX    H2B14349   0.037  17.366  13.587
    1HEX    H2C14350  17.411   0.088  13.596
    1HEX    H2D14351   0.202   0.155  13.710
    1HEX    H2E14352   0.227  17.422  13.726
    1HEX    H2G14353  17.287  17.360  13.049
    1HEX    H2H14354  17.316   0.071  13.125
    1HEX    H2I14355  17.043   0.041  13.335
    1HEX    H2J14356  16.989  17.323  13.387
    1HEX    H2K14357  16.850  17.292  13.186
    1HEX    H2M14358  16.918  17.432  13.109
    1STR    S0014359   0.139  17.340  12.178
    1STR    S0E14360  17.250   0.768  12.886
    1STR    S0M14361  17.251  16.734  12.676
    1STR    S0X14362   0.761  17.238  13.161
    1STR    S1414363   0.040   0.060  13.862
    1STR    S1B14364  16.745   0.058  13.261
    1HEX    C0114365   0.238   4.241  16.685
    1HEX    C0214366   0.195   4.253  16.834
    1HEX    C0314367   0.046   4.247  16.864
    1HEX    O0414368  17.421   4.144  16.847
    1HEX    O0514369   0.001   4.362  16.918
    1HEX    C0614370  17.303   4.376  16.951
    1HEX    C0714371  17.273   4.360  17.102
    1HEX    C0814372  17.298   4.495  17.179
    1HEX    O0914373  17.247   4.628  17.150
    1HEX    C0A14374  17.279   4.726  17.245
    1HEX    O0B14375  17.320   4.698  17.358
    1HEX    C0C14376  17.266   4.875  17.204
    1HEX    C0D14377  17.336   4.971  17.308
    1HEX    C0F14378  17.126   4.304  17.113
    1HEX    O0G14379  17.125   4.160  17.099
    1HEX    C0H14380  17.082   4.096  16.988
    1HEX    O0I14381  17.019   4.149  16.897
    1HEX    C0J14382  17.121   3.946  16.980
    1HEX    C0K14383  17.088   3.863  17.107
    1HEX    C0N14384  17.361   4.249  17.172
    1HEX    O0O14385   0.056   4.274  17.218
    1HEX    C0P14386   0.089   4.343  17.340
    1HEX    C0Q14387   0.058   4.282   0.042
    1HEX    C0R14388   0.142   4.153   0.064
    1HEX    O0S14389   0.281   4.165   0.033
    1HEX    C0T14390   0.376   4.168   0.130
    1HEX    O0U14391   0.354   4.182   0.250
    1HEX    C0V14392   0.519   4.148   0.077
    1HEX    C0W14393   0.608   4.274   0.088
    1HEX    C0Y14394   0.103   4.389   0.145
    1HEX    O0Z14395   0.080   4.348   0.279
    1HEX    C1014396   0.130   4.421   0.379
    1HEX    O1114397   0.200   4.522   0.366
    1HEX    C1214398   0.093   4.367   0.517
    1HEX    C1314399   0.196   4.407   0.623
    1HEX    C1514400  17.345   4.254   0.053
    1HEX    O1614401  17.274   4.253   0.178
    1HEX    C1714402  17.144   4.210   0.173
    1HEX    O1814403  17.095   4.147   0.079
    1HEX    C1914404  17.056   4.250   0.291
    1HEX    C1A14405  16.930   4.329   0.244
    1HEX    H1D14406   0.293   4.148  16.672
    1HEX    H1E14407   0.308   4.322  16.661
    1HEX    H1F14408   0.233   4.346  16.876
    1HEX    H1G14409   0.241   4.173  16.892
    1HEX    H1H14410  17.245   4.307  16.890
    1HEX    H1I14411  17.271   4.475  16.917
    1HEX    H1J14412  17.405   4.512  17.167
    1HEX    H1K14413  17.277   4.475  17.283
    1HEX    H1M14414  17.160   4.899  17.194
    1HEX    H1N14415  17.312   4.888  17.106
    1HEX    H1O14416   0.004   4.956  17.306
    1HEX    H1P14417  17.306   4.941  17.408
    1HEX    H1R14418  17.059   4.352  17.041
    1HEX    H1S14419  17.083   4.327  17.210
    1HEX    H1T14420  17.227   3.939  16.956
    1HEX    H1U14421  17.068   3.904  16.894
    1HEX    H1V14422  16.989   3.893  17.143
    1HEX    H1W14423  17.158   3.886  17.187
    1HEX    H1Y14424  17.372   4.168  17.100
    1HEX    H1Z14425  17.304   4.200  17.250
    1HEX    H2014426   0.054   4.446  17.339
    1HEX    H2114427   0.197   4.355  17.333
    1HEX    H2214428   0.103   4.074  -0.000
    1HEX    H2314429   0.127   4.116   0.166
    1HEX    H2414430   0.515   4.110  17.415
    1HEX    H2514431   0.563   4.068   0.137
    1HEX    H2614432   0.610   4.308   0.192
    1HEX    H2714433   0.564   4.356   0.031
    1HEX    H2914434   0.053   4.484   0.129
    1HEX    H2A14435   0.210   4.409   0.133
    1HEX    H2B14436   0.086   4.259   0.509
    1HEX    H2C14437  17.434   4.405   0.543
    1HEX    H2D14438   0.192   4.515   0.641
    1HEX    H2E14439   0.297   4.387   0.585
    1HEX    H2G14440  17.327   4.156   0.008
    1HEX    H2H14441  17.291   4.328  17.435
    1HEX    H2I14442  17.115   4.309   0.362
    1HEX    H2J14443  17.026   4.159   0.343
    1HEX    H2K14444  16.930   4.338   0.135
    1HEX    H2M14445  16.931   4.432   0.281
    1STR    S0014446   0.109   4.243  16.557
    1STR    S0E14447  17.301   5.154  17.302
    1STR    S0M14448  17.081   3.680  17.082
    1STR    S0X14449   0.779   4.246   0.028
    1STR    S1414450   0.174   4.318   0.780
    1STR    S1B14451  16.769   4.252   0.289
    1HEX    C0114452   0.228   4.210   3.620
    1HEX    C0214453   0.211   4.237   3.771
    1HEX    C0314454   0.070   4.207   3.818
    1HEX    O0414455   0.027   4.092   3.816
    1HEX    O0514456   0.003   4.316   3.862
    1HEX    C0614457  17.307   4.303   3.903
    1HEX    C0714458  17.288   4.302   4.057
    1HEX    C0814459  17.304   4.449   4.112
    1HEX    O0914460  17.236   4.569   4.069
    1HEX    C0A14461  17.234   4.673   4.161
    1HEX    O0B14462  17.224   4.658   4.283
    1HEX    C0C14463  17.256   4.815   4.103
    1HEX    C0D14464  17.262   4.930   4.211
    1HEX    C0F14465  17.149   4.232   4.085
    1HEX    O0G14466  17.165   4.089   4.102
    1HEX    C0H14467  17.130   3.999   4.008
    1HEX    O0I14468  17.063   4.026   3.909
    1HEX    C0J14469  17.191   3.857   4.026
    1HEX    C0K14470  17.189   3.792   4.168
    1HEX    C0N14471  17.395   4.211   4.130
    1HEX    O0O14472   0.080   4.268   4.172
    1HEX    C0P14473   0.095   4.344   4.294
    1HEX    C0Q14474   0.041   4.294   4.433
    1HEX    C0R14475   0.095   4.150   4.458
    1HEX    O0S14476   0.235   4.136   4.428
    1HEX    C0T14477   0.332   4.146   4.523
    1HEX    O0U14478   0.313   4.175   4.641
    1HEX    C0V14479   0.473   4.110   4.473
    1HEX    C0W14480   0.572   4.230   4.459
    1HEX    C0Y14481   0.101   4.390   4.538
    1HEX    O0Z14482   0.060   4.357   4.670
    1HEX    C1014483   0.113   4.425   4.772
    1HEX    O1114484   0.195   4.516   4.761
    1HEX    C1214485   0.058   4.382   4.908
    1HEX    C1314486   0.157   4.401   5.025
    1HEX    C1514487  17.324   4.312   4.437
    1HEX    O1614488  17.238   4.259   4.539
    1HEX    C1714489  17.130   4.186   4.498
    1HEX    O1814490  17.134   4.102   4.409
    1HEX    C1914491  16.995   4.225   4.562
    1HEX    C1A14492  16.900   4.288   4.456
    1HEX    H1D14493   0.326   4.167   3.600
    1HEX    H1E14494   0.155   4.135   3.587
    1HEX    H1F14495   0.239   4.338   3.798
    1HEX    H1G14496   0.276   4.170   3.828
    1HEX    H1H14497  17.262   4.215   3.857
    1HEX    H1I14498  17.252   4.387   3.859
    1HEX    H1J14499  17.407   4.475   4.092
    1HEX    H1K14500  17.291   4.443   4.218
    1HEX    H1M14501  17.178   4.836   4.030
    1HEX    H1N14502  17.350   4.812   4.049
    1HEX    H1O14503  17.296   4.893   4.308
    1HEX    H1P14504  17.162   4.969   4.229
    1HEX    H1R14505  17.075   4.255   4.008
    1HEX    H1S14506  17.105   4.270   4.178
    1HEX    H1T14507  17.293   3.863   3.989
    1HEX    H1U14508  17.138   3.793   3.956
    1HEX    H1V14509  17.088   3.791   4.209
    1HEX    H1W14510  17.250   3.850   4.238
    1HEX    H1Y14511  17.420   4.130   4.061
    1HEX    H1Z14512  17.356   4.153   4.212
    1HEX    H2014513   0.065   4.448   4.279
    1HEX    H2114514   0.203   4.353   4.302
    1HEX    H2214515   0.040   4.079   4.396
    1HEX    H2314516   0.074   4.119   4.561
    1HEX    H2414517   0.466   4.054   4.380
    1HEX    H2514518   0.512   4.040   4.547
    1HEX    H2614519   0.534   4.319   4.510
    1HEX    H2714520   0.580   4.256   4.353
    1HEX    H2914521   0.073   4.493   4.518
    1HEX    H2A14522   0.210   4.388   4.534
    1HEX    H2B14523   0.027   4.277   4.902
    1HEX    H2C14524  17.408   4.441   4.923
    1HEX    H2D14525   0.237   4.470   4.997
    1HEX    H2E14526   0.206   4.308   5.051
    1HEX    H2G14527  17.280   4.282   4.344
    1HEX    H2H14528  17.303   4.420   4.441
    1HEX    H2I14529  17.010   4.291   4.648
    1HEX    H2J14530  16.951   4.133   4.600
    1HEX    H2K14531  16.920   4.242   4.359
    1HEX    H2M14532  16.922   4.394   4.443
    1STR    S0014533   0.212   4.363   3.523
    1STR    S0E14534  17.374   5.071   4.167
    1STR    S0M14535  17.253   3.617   4.159
    1STR    S0X14536   0.740   4.190   4.523
    1STR    S1414537   0.076   4.473   5.172
    1STR    S1B14538  16.718   4.271   4.487
    1HEX    C0114539   0.183   4.200   7.945
    1HEX    C0214540   0.182   4.257   8.089
    1HEX    C0314541   0.046   4.241   8.153
    1HEX    O0414542  17.428   4.131   8.152
    1HEX    O0514543  17.439   4.354   8.208
    1HEX    C0614544  17.301   4.362   8.245
    1HEX    C0714545  17.273   4.345   8.397
    1HEX    C0814546  17.291   4.483   8.471
    1HEX    O0914547  17.231   4.613   8.446
    1HEX    C0A14548  17.256   4.711   8.544
    1HEX    O0B14549  17.295   4.684   8.658
    1HEX    C0C14550  17.238   4.861   8.506
    1HEX    C0D14551  17.292   4.959   8.619
    1HEX    C0F14552  17.130   4.280   8.408
    1HEX    O0G14553  17.142   4.136   8.388
    1HEX    C0H14554  17.081   4.070   8.287
    1HEX    O0I14555  16.994   4.117   8.214
    1HEX    C0J14556  17.139   3.929   8.259
    1HEX    C0K14557  17.133   3.824   8.374
    1HEX    C0N14558  17.370   4.240   8.464
    1HEX    O0O14559   0.064   4.276   8.503
    1HEX    C0P14560   0.098   4.352   8.621
    1HEX    C0Q14561   0.061   4.303   8.765
    1HEX    C0R14562   0.122   4.161   8.787
    1HEX    O0S14563   0.261   4.151   8.749
    1HEX    C0T14564   0.364   4.162   8.838
    1HEX    O0U14565   0.352   4.189   8.957
    1HEX    C0V14566   0.504   4.129   8.780
    1HEX    C0W14567   0.602   4.249   8.765
    1HEX    C0Y14568   0.128   4.401   8.864
    1HEX    O0Z14569   0.085   4.366   8.993
    1HEX    C1014570   0.131   4.431   9.099
    1HEX    O1114571   0.217   4.519   9.099
    1HEX    C1214572   0.059   4.387   9.224
    1HEX    C1314573   0.125   4.437   9.353
    1HEX    C1514574  17.345   4.321   8.787
    1HEX    O1614575  17.270   4.266   8.897
    1HEX    C1714576  17.151   4.205   8.868
    1HEX    O1814577  17.132   4.134   8.770
    1HEX    C1914578  17.033   4.239   8.962
    1HEX    C1A14579  16.916   4.303   8.881
    1HEX    H1D14580   0.272   4.141   7.928
    1HEX    H1E14581   0.098   4.133   7.929
    1HEX    H1F14582   0.212   4.361   8.091
    1HEX    H1G14583   0.253   4.201   8.151
    1HEX    H1H14584  17.245   4.289   8.186
    1HEX    H1I14585  17.264   4.458   8.210
    1HEX    H1J14586  17.395   4.508   8.455
    1HEX    H1K14587  17.275   4.463   8.576
    1HEX    H1M14588  17.133   4.879   8.486
    1HEX    H1N14589  17.292   4.879   8.413
    1HEX    H1O14590  17.400   4.945   8.630
    1HEX    H1P14591  17.250   4.930   8.715
    1HEX    H1R14592  17.059   4.325   8.338
    1HEX    H1S14593  17.087   4.296   8.507
    1HEX    H1T14594  17.242   3.943   8.228
    1HEX    H1U14595  17.087   3.889   8.172
    1HEX    H1V14596  17.030   3.805   8.405
    1HEX    H1W14597  17.186   3.861   8.462
    1HEX    H1Y14598  17.385   4.160   8.392
    1HEX    H1Z14599  17.322   4.180   8.542
    1HEX    H2014600   0.072   4.457   8.612
    1HEX    H2114601   0.207   4.355   8.616
    1HEX    H2214602   0.066   4.089   8.728
    1HEX    H2314603   0.108   4.130   8.891
    1HEX    H2414604   0.492   4.076   8.686
    1HEX    H2514605   0.547   4.058   8.850
    1HEX    H2614606   0.601   4.312   8.855
    1HEX    H2714607   0.570   4.313   8.683
    1HEX    H2914608   0.101   4.505   8.844
    1HEX    H2A14609   0.237   4.398   8.858
    1HEX    H2B14610   0.055   4.278   9.223
    1HEX    H2C14611  17.397   4.423   9.216
    1HEX    H2D14612   0.134   4.545   9.354
    1HEX    H2E14613   0.226   4.397   9.363
    1HEX    H2G14614  17.291   4.295   8.698
    1HEX    H2H14615  17.326   4.428   8.794
    1HEX    H2I14616  17.067   4.304   9.043
    1HEX    H2J14617  17.000   4.145   9.007
    1HEX    H2K14618  16.899   4.245   8.790
    1HEX    H2M14619  16.944   4.402   8.847
    1STR    S0014620   0.174   4.328   7.816
    1STR    S0E14621  17.259   5.142   8.603
    1STR    S0M14622  17.210   3.664   8.319
    1STR    S0X14623   0.775   4.192   8.732
    1STR    S1414624   0.023   4.381   9.493
    1STR    S1B14625  16.753   4.317   8.966
    1HEX    C0114626   0.235   4.210  12.406
    1HEX    C0214627   0.169   4.170  12.539
    1HEX    C0314628   0.019   4.192  12.544
    1HEX    O0414629  17.381   4.098  12.524
    1HEX    O0514630  17.426   4.315  12.588
    1HEX    C0614631  17.290   4.344  12.620
    1HEX    C0714632  17.261   4.340  12.773
    1HEX    C0814633  17.288   4.481  12.837
    1HEX    O0914634  17.236   4.610  12.799
    1HEX    C0A14635  17.268   4.717  12.884
    1HEX    O0B14636  17.302   4.703  13.001
    1HEX    C0C14637  17.264   4.859  12.821
    1HEX    C0D14638  17.228   4.978  12.918
    1HEX    C0F14639  17.114   4.285  12.791
    1HEX    O0G14640  17.118   4.140  12.792
    1HEX    C0H14641  17.065   4.062  12.695
    1HEX    O0I14642  16.980   4.097  12.614
    1HEX    C0J14643  17.129   3.922  12.690
    1HEX    C0K14644  17.062   3.811  12.776
    1HEX    C0N14645  17.353   4.234  12.847
    1HEX    O0O14646   0.048   4.269  12.884
    1HEX    C0P14647   0.081   4.347  13.002
    1HEX    C0Q14648   0.044   4.299  13.146
    1HEX    C0R14649   0.101   4.156  13.167
    1HEX    O0S14650   0.239   4.143  13.123
    1HEX    C0T14651   0.346   4.151  13.207
    1HEX    O0U14652   0.339   4.173  13.328
    1HEX    C0V14653   0.482   4.123  13.138
    1HEX    C0W14654   0.605   4.202  13.196
    1HEX    C0Y14655   0.114   4.396  13.244
    1HEX    O0Z14656   0.078   4.371  13.380
    1HEX    C1014657   0.135   4.447  13.476
    1HEX    O1114658   0.219   4.534  13.457
    1HEX    C1214659   0.081   4.416  13.616
    1HEX    C1314660   0.193   4.383  13.718
    1HEX    C1514661  17.329   4.317  13.169
    1HEX    O1614662  17.258   4.239  13.266
    1HEX    C1714663  17.138   4.183  13.229
    1HEX    O1814664  17.110   4.144  13.116
    1HEX    C1914665  17.032   4.180  13.341
    1HEX    C1A14666  16.902   4.258  13.304
    1HEX    H1D14667   0.339   4.179  12.409
    1HEX    H1E14668   0.233   4.318  12.394
    1HEX    H1F14669   0.213   4.228  12.620
    1HEX    H1G14670   0.188   4.065  12.562
    1HEX    H1H14671  17.224   4.276  12.565
    1HEX    H1I14672  17.265   4.442  12.579
    1HEX    H1J14673  17.394   4.498  12.820
    1HEX    H1K14674  17.271   4.472  12.944
    1HEX    H1M14675  17.190   4.855  12.741
    1HEX    H1N14676  17.360   4.878  12.773
    1HEX    H1O14677  17.175   4.937  13.004
    1HEX    H1P14678  17.157   5.045  12.870
    1HEX    H1R14679  17.046   4.323  12.714
    1HEX    H1S14680  17.072   4.316  12.886
    1HEX    H1T14681  17.233   3.935  12.722
    1HEX    H1U14682  17.135   3.891  12.586
    1HEX    H1V14683  16.978   3.767  12.722
    1HEX    H1W14684  17.022   3.851  12.869
    1HEX    H1Y14685  17.364   4.149  12.780
    1HEX    H1Z14686  17.304   4.183  12.930
    1HEX    H2014687   0.054   4.451  12.991
    1HEX    H2114688   0.190   4.351  12.996
    1HEX    H2214689   0.042   4.085  13.108
    1HEX    H2314690   0.089   4.125  13.271
    1HEX    H2414691   0.469   4.137  13.031
    1HEX    H2514692   0.499   4.016  13.154
    1HEX    H2614693   0.572   4.290  13.251
    1HEX    H2714694   0.653   4.134  13.266
    1HEX    H2914695   0.088   4.500  13.221
    1HEX    H2A14696   0.222   4.391  13.234
    1HEX    H2B14697   0.011   4.333  13.610
    1HEX    H2C14698   0.024   4.503  13.648
    1HEX    H2D14699   0.290   4.395  13.669
    1HEX    H2E14700   0.188   4.278  13.748
    1HEX    H2G14701  17.274   4.312  13.076
    1HEX    H2H14702  17.310   4.420  13.197
    1HEX    H2I14703  17.078   4.226  13.429
    1HEX    H2J14704  17.010   4.077  13.368
    1HEX    H2K14705  16.921   4.326  13.221
    1HEX    H2M14706  16.871   4.321  13.387
    1STR    S0014707   0.166   4.136  12.255
    1STR    S0E14708  17.363   5.085  12.987
    1STR    S0M14709  17.182   3.676  12.813
    1STR    S0X14710   0.747   4.262  13.093
    1STR    S1414711   0.195   4.489  13.867
    1STR    S1B14712  16.758   4.153  13.257
    1HEX    C0114713   0.293   8.646  16.786
    1HEX    C0214714   0.204   8.712  16.894
    1HEX    C0314715   0.065   8.651  16.904
    1HEX    O0414716   0.044   8.532  16.878
    1HEX    O0514717  17.415   8.739  16.953
    1HEX    C0614718  17.283   8.696  16.982
    1HEX    C0714719  17.262   8.671  17.134
    1HEX    C0814720  17.240   8.807  17.211
    1HEX    O0914721  17.208   8.936  17.153
    1HEX    C0A14722  17.215   9.045  17.241
    1HEX    O0B14723  17.235   9.031  17.362
    1HEX    C0C14724  17.199   9.188  17.183
    1HEX    C0D14725  17.251   9.299  17.283
    1HEX    C0F14726  17.136   8.576  17.147
    1HEX    O0G14727  17.175   8.436  17.148
    1HEX    C0H14728  17.138   8.350  17.051
    1HEX    O0I14729  17.059   8.376  16.961
    1HEX    C0J14730  17.211   8.213  17.053
    1HEX    C0K14731  17.232   8.141  17.190
    1HEX    C0N14732  17.381   8.587  17.196
    1HEX    O0O14733   0.067   8.648  17.230
    1HEX    C0P14734   0.096   8.715  17.354
    1HEX    C0Q14735   0.044   8.666   0.054
    1HEX    C0R14736   0.097   8.521   0.079
    1HEX    O0S14737   0.238   8.503   0.049
    1HEX    C0T14738   0.335   8.510   0.144
    1HEX    O0U14739   0.317   8.541   0.262
    1HEX    C0V14740   0.475   8.467   0.096
    1HEX    C0W14741   0.576   8.582   0.067
    1HEX    C0Y14742   0.108   8.760   0.160
    1HEX    O0Z14743   0.067   8.725   0.291
    1HEX    C1014744   0.127   8.784   0.395
    1HEX    O1114745   0.216   8.869   0.387
    1HEX    C1214746   0.068   8.740   0.529
    1HEX    C1314747   0.157   8.775   0.650
    1HEX    C1514748  17.328   8.688   0.061
    1HEX    O1614749  17.242   8.645   0.168
    1HEX    C1714750  17.127   8.579   0.133
    1HEX    O1814751  17.121   8.492   0.046
    1HEX    C1914752  16.997   8.628   0.202
    1HEX    C1A14753  16.896   8.683   0.096
    1HEX    H1D14754   0.397   8.660  16.814
    1HEX    H1E14755   0.276   8.538  16.789
    1HEX    H1F14756   0.196   8.819  16.880
    1HEX    H1G14757   0.247   8.695  16.992
    1HEX    H1H14758  17.257   8.607  16.923
    1HEX    H1I14759  17.214   8.773  16.946
    1HEX    H1J14760  17.337   8.830  17.252
    1HEX    H1K14761  17.172   8.793  17.295
    1HEX    H1M14762  17.094   9.204  17.160
    1HEX    H1N14763  17.254   9.194  17.089
    1HEX    H1O14764  17.360   9.293  17.288
    1HEX    H1P14765  17.218   9.276  17.385
    1HEX    H1R14766  17.061   8.597  17.071
    1HEX    H1S14767  17.085   8.592  17.242
    1HEX    H1T14768  17.307   8.228  17.004
    1HEX    H1U14769  17.154   8.148  16.987
    1HEX    H1V14770  17.140   8.141  17.248
    1HEX    H1W14771  17.306   8.194  17.250
    1HEX    H1Y14772  17.408   8.513  17.120
    1HEX    H1Z14773  17.351   8.520  17.277
    1HEX    H2014774   0.077   8.822  17.343
    1HEX    H2114775   0.205   8.712  17.357
    1HEX    H2214776   0.042   8.450   0.017
    1HEX    H2314777   0.076   8.490   0.182
    1HEX    H2414778   0.465   8.402   0.009
    1HEX    H2514779   0.514   8.405   0.176
    1HEX    H2614780   0.540   8.677   0.109
    1HEX    H2714781   0.585   8.598  17.400
    1HEX    H2914782   0.080   8.864   0.142
    1HEX    H2A14783   0.217   8.756   0.154
    1HEX    H2B14784   0.049   8.633   0.525
    1HEX    H2C14785  17.412   8.790   0.536
    1HEX    H2D14786   0.213   8.868   0.633
    1HEX    H2E14787   0.232   8.698   0.666
    1HEX    H2G14788  17.284   8.650  17.411
    1HEX    H2H14789  17.311   8.795   0.054
    1HEX    H2I14790  17.021   8.701   0.279
    1HEX    H2J14791  16.954   8.541   0.252
    1HEX    H2K14792  16.900   8.622   0.006
    1HEX    H2M14793  16.926   8.784   0.065
    1STR    S0014794   0.273   8.708  16.615
    1STR    S0E14795  17.202   9.476  17.257
    1STR    S0M14796  17.287   7.966  17.164
    1STR    S0X14797   0.743   8.547   0.137
    1STR    S1414798   0.054   8.801   0.798
    1STR    S1B14799  16.719   8.690   0.146
    1HEX    C0114800   0.254   8.608   3.626
    1HEX    C0214801   0.225   8.662   3.768
    1HEX    C0314802   0.082   8.636   3.810
    1HEX    O0414803   0.034   8.523   3.805
    1HEX    O0514804   0.020   8.748   3.854
    1HEX    C0614805  17.320   8.746   3.876
    1HEX    C0714806  17.278   8.726   4.024
    1HEX    C0814807  17.295   8.860   4.106
    1HEX    O0914808  17.248   8.994   4.076
    1HEX    C0A14809  17.275   9.090   4.174
    1HEX    O0B14810  17.309   9.060   4.289
    1HEX    C0C14811  17.266   9.240   4.136
    1HEX    C0D14812  17.335   9.333   4.243
    1HEX    C0F14813  17.132   8.668   4.023
    1HEX    O0G14814  17.137   8.524   4.002
    1HEX    C0H14815  17.096   8.465   3.888
    1HEX    O0I14816  17.025   8.519   3.803
    1HEX    C0J14817  17.148   8.321   3.866
    1HEX    C0K14818  17.168   8.232   3.992
    1HEX    C0N14819  17.363   8.614   4.097
    1HEX    O0O14820   0.060   8.634   4.138
    1HEX    C0P14821   0.100   8.704   4.258
    1HEX    C0Q14822   0.071   8.647   4.401
    1HEX    C0R14823   0.152   8.517   4.425
    1HEX    O0S14824   0.291   8.526   4.392
    1HEX    C0T14825   0.387   8.532   4.487
    1HEX    O0U14826   0.367   8.548   4.607
    1HEX    C0V14827   0.529   8.509   4.433
    1HEX    C0W14828   0.618   8.636   4.438
    1HEX    C0Y14829   0.118   8.755   4.501
    1HEX    O0Z14830   0.087   8.714   4.632
    1HEX    C1014831   0.133   8.783   4.736
    1HEX    O1114832   0.211   8.878   4.731
    1HEX    C1214833   0.075   8.731   4.866
    1HEX    C1314834   0.168   8.756   4.985
    1HEX    C1514835  17.357   8.621   4.414
    1HEX    O1614836  17.284   8.631   4.537
    1HEX    C1714837  17.153   8.590   4.531
    1HEX    O1814838  17.106   8.519   4.443
    1HEX    C1914839  17.061   8.645   4.641
    1HEX    C1A14840  16.941   8.723   4.580
    1HEX    H1D14841   0.361   8.594   3.613
    1HEX    H1E14842   0.209   8.510   3.614
    1HEX    H1F14843   0.248   8.769   3.775
    1HEX    H1G14844   0.288   8.611   3.841
    1HEX    H1H14845  17.275   8.669   3.812
    1HEX    H1I14846  17.279   8.839   3.838
    1HEX    H1J14847  17.402   8.878   4.103
    1HEX    H1K14848  17.265   8.839   4.208
    1HEX    H1M14849  17.160   9.266   4.124
    1HEX    H1N14850  17.313   9.254   4.039
    1HEX    H1O14851   0.002   9.314   4.244
    1HEX    H1P14852  17.301   9.304   4.343
    1HEX    H1R14853  17.070   8.718   3.948
    1HEX    H1S14854  17.082   8.686   4.118
    1HEX    H1T14855  17.243   8.330   3.812
    1HEX    H1U14856  17.079   8.273   3.797
    1HEX    H1V14857  17.080   8.238   4.057
    1HEX    H1W14858  17.252   8.269   4.050
    1HEX    H1Y14859  17.372   8.531   4.027
    1HEX    H1Z14860  17.304   8.569   4.175
    1HEX    H2014861   0.071   8.808   4.255
    1HEX    H2114862   0.209   8.711   4.247
    1HEX    H2214863   0.111   8.437   4.363
    1HEX    H2314864   0.138   8.483   4.528
    1HEX    H2414865   0.522   8.469   4.332
    1HEX    H2514866   0.573   8.431   4.495
    1HEX    H2614867   0.622   8.675   4.540
    1HEX    H2714868   0.576   8.715   4.376
    1HEX    H2914869   0.071   8.852   4.482
    1HEX    H2A14870   0.226   8.771   4.492
    1HEX    H2B14871   0.059   8.624   4.853
    1HEX    H2C14872  17.418   8.778   4.882
    1HEX    H2D14873   0.170   8.863   5.010
    1HEX    H2E14874   0.271   8.730   4.960
    1HEX    H2G14875  17.338   8.522   4.373
    1HEX    H2H14876  17.305   8.693   4.352
    1HEX    H2I14877  17.118   8.705   4.712
    1HEX    H2J14878  17.025   8.558   4.696
    1HEX    H2K14879  16.931   8.698   4.475
    1HEX    H2M14880  16.959   8.831   4.583
    1STR    S0014881   0.195   8.715   3.491
    1STR    S0E14882  17.308   9.517   4.235
    1STR    S0M14883  17.195   8.054   3.948
    1STR    S0X14884   0.789   8.600   4.379
    1STR    S1414885   0.114   8.657   5.128
    1STR    S1B14886  16.779   8.689   4.660
    1HEX    C0114887   0.212   8.508   7.994
    1HEX    C0214888   0.191   8.567   8.135
    1HEX    C0314889   0.047   8.553   8.182
    1HEX    O0414890  17.433   8.443   8.183
    1HEX    O0514891  17.433   8.669   8.225
    1HEX    C0614892  17.297   8.671   8.266
    1HEX    C0714893  17.277   8.672   8.420
    1HEX    C0814894  17.299   8.818   8.476
    1HEX    O0914895  17.231   8.940   8.441
    1HEX    C0A14896  17.238   9.043   8.535
    1HEX    O0B14897  17.244   9.025   8.656
    1HEX    C0C14898  17.246   9.187   8.478
    1HEX    C0D14899  17.228   9.303   8.583
    1HEX    C0F14900  17.135   8.609   8.449
    1HEX    O0G14901  17.148   8.466   8.467
    1HEX    C0H14902  17.103   8.374   8.379
    1HEX    O0I14903  17.022   8.396   8.289
    1HEX    C0J14904  17.174   8.238   8.393
    1HEX    C0K14905  17.124   8.143   8.507
    1HEX    C0N14906  17.381   8.578   8.494
    1HEX    O0O14907   0.069   8.630   8.534
    1HEX    C0P14908   0.089   8.707   8.654
    1HEX    C0Q14909   0.039   8.657   8.795
    1HEX    C0R14910   0.092   8.513   8.818
    1HEX    O0S14911   0.231   8.497   8.781
    1HEX    C0T14912   0.333   8.508   8.870
    1HEX    O0U14913   0.321   8.539   8.989
    1HEX    C0V14914   0.470   8.471   8.812
    1HEX    C0W14915   0.567   8.590   8.780
    1HEX    C0Y14916   0.102   8.753   8.899
    1HEX    O0Z14917   0.062   8.722   9.031
    1HEX    C1014918   0.112   8.795   9.132
    1HEX    O1114919   0.192   8.888   9.120
    1HEX    C1214920   0.057   8.755   9.269
    1HEX    C1314921   0.162   8.758   9.382
    1HEX    C1514922  17.322   8.676   8.806
    1HEX    O1614923  17.241   8.615   8.907
    1HEX    C1714924  17.135   8.539   8.867
    1HEX    O1814925  17.138   8.464   8.769
    1HEX    C1914926  17.004   8.561   8.944
    1HEX    C1A14927  16.902   8.644   8.860
    1HEX    H1D14928   0.294   8.436   7.995
    1HEX    H1E14929   0.124   8.453   7.960
    1HEX    H1F14930   0.221   8.672   8.140
    1HEX    H1G14931   0.253   8.514   8.207
    1HEX    H1H14932  17.243   8.588   8.220
    1HEX    H1I14933  17.250   8.760   8.222
    1HEX    H1J14934  17.402   8.842   8.453
    1HEX    H1K14935  17.291   8.809   8.583
    1HEX    H1M14936  17.171   9.197   8.399
    1HEX    H1N14937  17.343   9.196   8.430
    1HEX    H1O14938  17.216   9.264   8.684
    1HEX    H1P14939  17.135   9.357   8.563
    1HEX    H1R14940  17.062   8.634   8.371
    1HEX    H1S14941  17.093   8.649   8.541
    1HEX    H1T14942  17.280   8.258   8.407
    1HEX    H1U14943  17.165   8.187   8.297
    1HEX    H1V14944  17.020   8.114   8.490
    1HEX    H1W14945  17.127   8.193   8.603
    1HEX    H1Y14946  17.402   8.495   8.427
    1HEX    H1Z14947  17.340   8.523   8.578
    1HEX    H2014948   0.060   8.811   8.640
    1HEX    H2114949   0.198   8.714   8.659
    1HEX    H2214950   0.035   8.443   8.758
    1HEX    H2314951   0.076   8.483   8.922
    1HEX    H2414952   0.454   8.411   8.722
    1HEX    H2514953   0.517   8.404   8.884
    1HEX    H2614954   0.518   8.686   8.797
    1HEX    H2714955   0.595   8.587   8.675
    1HEX    H2914956   0.076   8.857   8.878
    1HEX    H2A14957   0.211   8.750   8.893
    1HEX    H2B14958   0.013   8.655   9.261
    1HEX    H2C14959  17.415   8.823   9.289
    1HEX    H2D14960   0.254   8.804   9.346
    1HEX    H2E14961   0.188   8.657   9.413
    1HEX    H2G14962  17.273   8.654   8.713
    1HEX    H2H14963  17.302   8.783   8.817
    1HEX    H2I14964  17.024   8.606   9.041
    1HEX    H2J14965  16.963   8.462   8.963
    1HEX    H2K14966  16.924   8.632   8.754
    1HEX    H2M14967  16.916   8.750   8.881
    1STR    S0014968   0.252   8.638   7.873
    1STR    S0E14969  17.366   9.426   8.592
    1STR    S0M14970  17.228   7.990   8.512
    1STR    S0X14971   0.720   8.582   8.881
    1STR    S1414972   0.107   8.854   9.527
    1STR    S1B14973  16.723   8.605   8.885
    1HEX    C0114974   0.239   8.645  12.327
    1HEX    C0214975   0.201   8.610  12.473
    1HEX    C0314976   0.052   8.601  12.500
    1HEX    O0414977  17.428   8.499  12.472
    1HEX    O0514978   0.003   8.710  12.562
    1HEX    C0614979  17.306   8.716  12.598
    1HEX    C0714980  17.280   8.692  12.749
    1HEX    C0814981  17.281   8.829  12.827
    1HEX    O0914982  17.225   8.958  12.790
    1HEX    C0A14983  17.240   9.059  12.886
    1HEX    O0B14984  17.264   9.035  13.005
    1HEX    C0C14985  17.230   9.207  12.840
    1HEX    C0D14986  17.253   9.309  12.958
    1HEX    C0F14987  17.145   8.610  12.761
    1HEX    O0G14988  17.173   8.469  12.743
    1HEX    C0H14989  17.121   8.394  12.644
    1HEX    O0I14990  17.027   8.428  12.572
    1HEX    C0J14991  17.195   8.260  12.620
    1HEX    C0K14992  17.193   8.155  12.735
    1HEX    C0N14993  17.388   8.595  12.814
    1HEX    O0O14994   0.077   8.644  12.857
    1HEX    C0P14995   0.102   8.714  12.981
    1HEX    C0Q14996   0.056   8.662  13.122
    1HEX    C0R14997   0.114   8.519  13.145
    1HEX    O0S14998   0.254   8.506  13.110
    1HEX    C0T14999   0.354   8.515  13.203
    1HEX    O0U15000   0.338   8.546  13.320
    1HEX    C0V15001   0.493   8.473  13.151
    1HEX    C0W15002   0.595   8.588  13.127
    1HEX    C0Y15003   0.118   8.758  13.225
    1HEX    O0Z15004   0.075   8.725  13.355
    1HEX    C1015005   0.128   8.790  13.459
    1HEX    O1115006   0.217   8.875  13.454
    1HEX    C1215007   0.059   8.751  13.589
    1HEX    C1315008   0.140   8.789  13.714
    1HEX    C1515009  17.339   8.678  13.132
    1HEX    O1615010  17.257   8.631  13.241
    1HEX    C1715011  17.134   8.579  13.209
    1HEX    O1815012  17.111   8.510  13.109
    1HEX    C1915013  17.017   8.618  13.301
    1HEX    C1A15014  16.908   8.700  13.225
    1HEX    H1D15015   0.197   8.546  12.311
    1HEX    H1E15016   0.190   8.742  12.332
    1HEX    H1F15017   0.242   8.684  12.542
    1HEX    H1G15018   0.245   8.515  12.505
    1HEX    H1H15019  17.249   8.645  12.536
    1HEX    H1I15020  17.267   8.813  12.568
    1HEX    H1J15021  17.386   8.857  12.827
    1HEX    H1K15022  17.247   8.810  12.927
    1HEX    H1M15023  17.134   9.223  12.791
    1HEX    H1N15024  17.307   9.222  12.764
    1HEX    H1O15025  17.350   9.291  13.004
    1HEX    H1P15026  17.181   9.289  13.037
    1HEX    H1R15027  17.069   8.647  12.691
    1HEX    H1S15028  17.101   8.622  12.860
    1HEX    H1T15029  17.298   8.287  12.595
    1HEX    H1U15030  17.154   8.216  12.529
    1HEX    H1V15031  17.093   8.115  12.749
    1HEX    H1W15032  17.221   8.202  12.829
    1HEX    H1Y15033  17.413   8.521  12.738
    1HEX    H1Z15034  17.348   8.528  12.890
    1HEX    H2015035   0.077   8.819  12.973
    1HEX    H2115036   0.211   8.718  12.983
    1HEX    H2215037   0.059   8.448  13.083
    1HEX    H2315038   0.097   8.488  13.248
    1HEX    H2415039   0.482   8.412  13.062
    1HEX    H2515040   0.532   8.407  13.228
    1HEX    H2615041   0.587   8.665  13.204
    1HEX    H2715042   0.576   8.637  13.032
    1HEX    H2915043   0.090   8.862  13.205
    1HEX    H2A15044   0.227   8.756  13.220
    1HEX    H2B15045   0.040   8.644  13.587
    1HEX    H2C15046  17.403   8.801  13.589
    1HEX    H2D15047   0.179   8.891  13.710
    1HEX    H2E15048   0.226   8.723  13.724
    1HEX    H2G15049  17.294   8.641  13.043
    1HEX    H2H15050  17.318   8.785  13.130
    1HEX    H2I15051  17.055   8.673  13.388
    1HEX    H2J15052  16.975   8.526  13.339
    1HEX    H2K15053  16.919   8.687  13.117
    1HEX    H2M15054  16.922   8.807  13.242
    1STR    S0015055   0.156   8.622  12.165
    1STR    S0E15056  17.240   9.491  12.920
    1STR    S0M15057  17.309   8.014  12.702
    1STR    S0X15058   0.768   8.523  13.127
    1STR    S1415059   0.030   8.771  13.858
    1STR    S1B15060  16.733   8.658  13.264
    1HEX    C0115061   0.232  12.993  16.685
    1HEX    C0215062   0.186  12.959  16.829
    1HEX    C0315063   0.036  12.965  16.856
    1HEX    O0415064  17.404  12.868  16.833
    1HEX    O0515065  17.438  13.079  16.917
    1HEX    C0615066  17.301  13.097  16.954
    1HEX    C0715067  17.274  13.077  17.106
    1HEX    C0815068  17.298  13.212  17.182
    1HEX    O0915069  17.243  13.342  17.153
    1HEX    C0A15070  17.273  13.442  17.246
    1HEX    O0B15071  17.313  13.416  17.360
    1HEX    C0C15072  17.258  13.590  17.202
    1HEX    C0D15073  17.325  13.689  17.306
    1HEX    C0F15074  17.129  13.020  17.120
    1HEX    O0G15075  17.130  12.878  17.099
    1HEX    C0H15076  17.074  12.818  16.992
    1HEX    O0I15077  16.996  12.873  16.914
    1HEX    C0J15078  17.120  12.673  16.970
    1HEX    C0K15079  17.111  12.581  17.094
    1HEX    C0N15080  17.368  12.966  17.170
    1HEX    O0O15081   0.060  12.998  17.222
    1HEX    C0P15082   0.088  13.069  17.345
    1HEX    C0Q15083   0.052  13.012   0.047
    1HEX    C0R15084   0.121  12.874   0.066
    1HEX    O0S15085   0.260  12.874   0.029
    1HEX    C0T15086   0.361  12.880   0.121
    1HEX    O0U15087   0.347  12.892   0.242
    1HEX    C0V15088   0.502  12.868   0.059
    1HEX    C0W15089   0.611  12.953   0.130
    1HEX    C0Y15090   0.111  13.111   0.150
    1HEX    O0Z15091   0.082  13.072   0.284
    1HEX    C1015092   0.134  13.144   0.384
    1HEX    O1115093   0.204  13.245   0.370
    1HEX    C1215094   0.098  13.091   0.522
    1HEX    C1315095   0.195  13.144   0.629
    1HEX    C1515096  17.336  13.013   0.063
    1HEX    O1615097  17.269  12.968   0.181
    1HEX    C1715098  17.142  12.918   0.167
    1HEX    O1815099  17.097  12.865   0.065
    1HEX    C1915100  17.049  12.941   0.287
    1HEX    C1A15101  16.920  13.019   0.246
    1HEX    H1D15102   0.320  12.932  16.664
    1HEX    H1E15103   0.265  13.097  16.679
    1HEX    H1F15104   0.235  13.025  16.901
    1HEX    H1G15105   0.217  12.858  16.856
    1HEX    H1H15106  17.238  13.031  16.894
    1HEX    H1I15107  17.271  13.197  16.923
    1HEX    H1J15108  17.405  13.231  17.169
    1HEX    H1K15109  17.279  13.190  17.287
    1HEX    H1M15110  17.152  13.612  17.191
    1HEX    H1N15111  17.305  13.602  17.104
    1HEX    H1O15112  17.434  13.676  17.305
    1HEX    H1P15113  17.295  13.658  17.406
    1HEX    H1R15114  17.058  13.071  17.053
    1HEX    H1S15115  17.090  13.037  17.221
    1HEX    H1T15116  17.223  12.677  16.934
    1HEX    H1U15117  17.062  12.632  16.888
    1HEX    H1V15118  17.010  12.583  17.136
    1HEX    H1W15119  17.177  12.616  17.173
    1HEX    H1Y15120  17.387  12.893  17.092
    1HEX    H1Z15121  17.316  12.900  17.238
    1HEX    H2015122   0.058  13.173  17.341
    1HEX    H2115123   0.197  13.077  17.341
    1HEX    H2215124   0.071  12.800   0.004
    1HEX    H2315125   0.107  12.839   0.169
    1HEX    H2415126   0.494  12.896  17.394
    1HEX    H2515127   0.530  12.763   0.061
    1HEX    H2615128   0.572  13.052   0.155
    1HEX    H2715129   0.638  12.907   0.225
    1HEX    H2915130   0.072  13.212   0.135
    1HEX    H2A15131   0.219  13.119   0.139
    1HEX    H2B15132   0.102  12.982   0.517
    1HEX    H2C15133  17.435  13.119   0.545
    1HEX    H2D15134   0.181  13.251   0.642
    1HEX    H2E15135   0.297  13.130   0.594
    1HEX    H2G15136  17.293  12.960  17.420
    1HEX    H2H15137  17.302  13.116   0.051
    1HEX    H2I15138  17.105  12.996   0.362
    1HEX    H2J15139  17.024  12.844   0.330
    1HEX    H2K15140  16.929  13.054   0.143
    1HEX    H2M15141  16.908  13.109   0.306
    1STR    S0015142   0.115  12.961  16.549
    1STR    S0E15143  17.286  13.870  17.301
    1STR    S0M15144  17.150  12.405  17.053
    1STR    S0X15145   0.764  12.976   0.028
    1STR    S1415146   0.180  13.062   0.791
    1STR    S1B15147  16.764  12.922   0.256
    1HEX    C0115148   0.219  12.959   3.612
    1HEX    C0215149   0.215  12.976   3.765
    1HEX    C0315150   0.079  12.938   3.819
    1HEX    O0415151   0.043  12.820   3.821
    1HEX    O0515152   0.006  13.043   3.862
    1HEX    C0615153  17.310  13.024   3.899
    1HEX    C0715154  17.288  13.020   4.053
    1HEX    C0815155  17.293  13.167   4.109
    1HEX    O0915156  17.231  13.287   4.058
    1HEX    C0A15157  17.238  13.399   4.142
    1HEX    O0B15158  17.253  13.391   4.264
    1HEX    C0C15159  17.232  13.539   4.077
    1HEX    C0D15160  17.276  13.652   4.177
    1HEX    C0F15161  17.152  12.943   4.078
    1HEX    O0G15162  17.175  12.800   4.092
    1HEX    C0H15163  17.144  12.711   3.996
    1HEX    O0I15164  17.074  12.737   3.898
    1HEX    C0J15165  17.208  12.571   4.010
    1HEX    C0K15166  17.217  12.505   4.152
    1HEX    C0N15167  17.397  12.933   4.127
    1HEX    O0O15168   0.081  12.993   4.169
    1HEX    C0P15169   0.096  13.070   4.291
    1HEX    C0Q15170   0.044  13.018   4.430
    1HEX    C0R15171   0.100  12.875   4.454
    1HEX    O0S15172   0.241  12.862   4.422
    1HEX    C0T15173   0.339  12.871   4.517
    1HEX    O0U15174   0.320  12.898   4.635
    1HEX    C0V15175   0.480  12.836   4.465
    1HEX    C0W15176   0.569  12.957   4.423
    1HEX    C0Y15177   0.104  13.113   4.536
    1HEX    O0Z15178   0.064  13.079   4.667
    1HEX    C1015179   0.119  13.144   4.770
    1HEX    O1115180   0.203  13.233   4.760
    1HEX    C1215181   0.064  13.098   4.905
    1HEX    C1315182   0.159  13.128   5.024
    1HEX    C1515183  17.327  13.037   4.434
    1HEX    O1615184  17.240  12.988   4.537
    1HEX    C1715185  17.129  12.919   4.496
    1HEX    O1815186  17.130  12.832   4.409
    1HEX    C1915187  16.994  12.965   4.556
    1HEX    C1A15188  16.899  13.018   4.445
    1HEX    H1D15189   0.319  12.931   3.578
    1HEX    H1E15190   0.153  12.876   3.583
    1HEX    H1F15191   0.242  13.077   3.796
    1HEX    H1G15192   0.286  12.909   3.812
    1HEX    H1H15193  17.271  12.934   3.852
    1HEX    H1I15194  17.252  13.105   3.856
    1HEX    H1J15195  17.398  13.196   4.101
    1HEX    H1K15196  17.267  13.162   4.214
    1HEX    H1M15197  17.131  13.557   4.040
    1HEX    H1N15198  17.298  13.539   3.990
    1HEX    H1O15199  17.379  13.634   4.210
    1HEX    H1P15200  17.216  13.646   4.268
    1HEX    H1R15201  17.078  12.965   4.001
    1HEX    H1S15202  17.106  12.976   4.171
    1HEX    H1T15203  17.308  12.578   3.967
    1HEX    H1U15204  17.153  12.505   3.944
    1HEX    H1V15205  17.120  12.505   4.201
    1HEX    H1W15206  17.284  12.562   4.216
    1HEX    H1Y15207  17.425  12.853   4.059
    1HEX    H1Z15208  17.359  12.874   4.210
    1HEX    H2015209   0.063  13.172   4.277
    1HEX    H2115210   0.204  13.081   4.298
    1HEX    H2215211   0.046  12.803   4.392
    1HEX    H2315212   0.081  12.843   4.557
    1HEX    H2415213   0.469  12.766   4.382
    1HEX    H2515214   0.529  12.780   4.545
    1HEX    H2615215   0.513  13.050   4.434
    1HEX    H2715216   0.593  12.949   4.317
    1HEX    H2915217   0.075  13.217   4.517
    1HEX    H2A15218   0.213  13.112   4.531
    1HEX    H2B15219   0.041  12.992   4.900
    1HEX    H2C15220  17.410  13.150   4.917
    1HEX    H2D15221   0.228  13.209   4.999
    1HEX    H2E15222   0.221  13.041   5.046
    1HEX    H2G15223  17.285  13.003   4.341
    1HEX    H2H15224  17.308  13.144   4.433
    1HEX    H2I15225  17.011  13.038   4.635
    1HEX    H2J15226  16.950  12.877   4.604
    1HEX    H2K15227  16.913  12.958   4.355
    1HEX    H2M15228  16.927  13.120   4.417
    1STR    S0015229   0.169  13.112   3.526
    1STR    S0E15230  17.264  13.828   4.119
    1STR    S0M15231  17.278  12.330   4.138
    1STR    S0X15232   0.725  12.972   4.521
    1STR    S1415233   0.066  13.181   5.172
    1STR    S1B15234  16.718  13.017   4.482
    1HEX    C0115235   0.204  12.931   7.959
    1HEX    C0215236   0.191  12.988   8.102
    1HEX    C0315237   0.051  12.971   8.157
    1HEX    O0415238  17.435  12.861   8.154
    1HEX    O0515239  -0.000  13.084   8.209
    1HEX    C0615240  17.302  13.089   8.246
    1HEX    C0715241  17.277  13.077   8.399
    1HEX    C0815242  17.305  13.215   8.470
    1HEX    O0915243  17.243  13.345   8.449
    1HEX    C0A15244  17.267  13.441   8.548
    1HEX    O0B15245  17.304  13.412   8.662
    1HEX    C0C15246  17.251  13.591   8.511
    1HEX    C0D15247  17.313  13.687   8.621
    1HEX    C0F15248  17.130  13.023   8.418
    1HEX    O0G15249  17.129  12.879   8.412
    1HEX    C0H15250  17.089  12.810   8.302
    1HEX    O0I15251  17.024  12.858   8.210
    1HEX    C0J15252  17.142  12.666   8.294
    1HEX    C0K15253  17.142  12.580   8.424
    1HEX    C0N15254  17.370  12.967   8.464
    1HEX    O0O15255   0.066  12.998   8.500
    1HEX    C0P15256   0.104  13.074   8.618
    1HEX    C0Q15257   0.067  13.025   8.762
    1HEX    C0R15258   0.128  12.883   8.783
    1HEX    O0S15259   0.268  12.874   8.746
    1HEX    C0T15260   0.370  12.884   8.837
    1HEX    O0U15261   0.355  12.907   8.957
    1HEX    C0V15262   0.510  12.858   8.779
    1HEX    C0W15263   0.605  12.981   8.773
    1HEX    C0Y15264   0.135  13.122   8.861
    1HEX    O0Z15265   0.091  13.085   8.990
    1HEX    C1015266   0.135  13.147   9.097
    1HEX    O1115267   0.220  13.236   9.101
    1HEX    C1215268   0.063  13.096   9.220
    1HEX    C1315269   0.123  13.147   9.351
    1HEX    C1515270  17.351  13.043   8.786
    1HEX    O1615271  17.278  12.980   8.892
    1HEX    C1715272  17.160  12.918   8.859
    1HEX    O1815273  17.143  12.853   8.756
    1HEX    C1915274  17.043  12.943   8.955
    1HEX    C1A15275  16.927  13.019   8.883
    1HEX    H1D15276   0.302  12.886   7.945
    1HEX    H1E15277   0.132  12.850   7.943
    1HEX    H1F15278   0.221  13.093   8.106
    1HEX    H1G15279   0.257  12.933   8.170
    1HEX    H1H15280  17.247  13.013   8.190
    1HEX    H1I15281  17.262  13.184   8.209
    1HEX    H1J15282  17.409  13.237   8.447
    1HEX    H1K15283  17.296  13.195   8.575
    1HEX    H1M15284  17.145  13.612   8.496
    1HEX    H1N15285  17.301  13.608   8.415
    1HEX    H1O15286  17.421  13.670   8.626
    1HEX    H1P15287  17.276  13.657   8.719
    1HEX    H1R15288  17.061  13.067   8.345
    1HEX    H1S15289  17.091  13.052   8.515
    1HEX    H1T15290  17.244  12.676   8.257
    1HEX    H1U15291  17.087  12.614   8.216
    1HEX    H1V15292  17.045  12.532   8.438
    1HEX    H1W15293  17.160  12.640   8.513
    1HEX    H1Y15294  17.380  12.887   8.391
    1HEX    H1Z15295  17.323  12.909   8.543
    1HEX    H2015296   0.080  13.179   8.609
    1HEX    H2115297   0.213  13.074   8.611
    1HEX    H2215298   0.073  12.811   8.722
    1HEX    H2315299   0.113  12.851   8.887
    1HEX    H2415300   0.500  12.810   8.682
    1HEX    H2515301   0.555  12.783   8.845
    1HEX    H2615302   0.607  13.034   8.868
    1HEX    H2715303   0.569  13.053   8.699
    1HEX    H2915304   0.108  13.226   8.843
    1HEX    H2A15305   0.244  13.118   8.855
    1HEX    H2B15306   0.066  12.987   9.216
    1HEX    H2C15307  17.399  13.126   9.212
    1HEX    H2D15308   0.116  13.256   9.357
    1HEX    H2E15309   0.229  13.123   9.357
    1HEX    H2G15310  17.295  13.028   8.696
    1HEX    H2H15311  17.334  13.150   8.803
    1HEX    H2I15312  17.077  12.997   9.043
    1HEX    H2J15313  17.009  12.846   8.988
    1HEX    H2K15314  16.921  12.989   8.778
    1HEX    H2M15315  16.946  13.126   8.882
    1STR    S0015316   0.179  13.054   7.827
    1STR    S0E15317  17.282  13.870   8.609
    1STR    S0M15318  17.272  12.449   8.409
    1STR    S0X15319   0.778  12.934   8.726
    1STR    S1415320   0.035  13.069   9.489
    1STR    S1B15321  16.760  12.993   8.956
    1HEX    C0115322   0.256  12.927  12.396
    1HEX    C0215323   0.193  12.911  12.536
    1HEX    C0315324   0.042  12.917  12.539
    1HEX    O0415325  17.414  12.817  12.516
    1HEX    O0515326  17.436  13.037  12.582
    1HEX    C0615327  17.299  13.053  12.615
    1HEX    C0715328  17.274  13.048  12.769
    1HEX    C0815329  17.297  13.191  12.832
    1HEX    O0915330  17.238  13.317  12.796
    1HEX    C0A15331  17.265  13.424  12.882
    1HEX    O0B15332  17.302  13.410  12.999
    1HEX    C0C15333  17.253  13.567  12.823
    1HEX    C0D15334  17.221  13.682  12.926
    1HEX    C0F15335  17.130  12.987  12.789
    1HEX    O0G15336  17.144  12.844  12.790
    1HEX    C0H15337  17.072  12.757  12.717
    1HEX    O0I15338  16.970  12.784  12.653
    1HEX    C0J15339  17.135  12.617  12.714
    1HEX    C0K15340  17.077  12.514  12.816
    1HEX    C0N15341  17.373  12.947  12.841
    1HEX    O0O15342   0.065  12.990  12.880
    1HEX    C0P15343   0.092  13.065  13.000
    1HEX    C0Q15344   0.052  13.010  13.142
    1HEX    C0R15345   0.114  12.868  13.159
    1HEX    O0S15346   0.254  12.863  13.121
    1HEX    C0T15347   0.355  12.867  13.214
    1HEX    O0U15348   0.339  12.877  13.335
    1HEX    C0V15349   0.497  12.858  13.155
    1HEX    C0W15350   0.571  12.995  13.159
    1HEX    C0Y15351   0.118  13.106  13.245
    1HEX    O0Z15352   0.078  13.080  13.379
    1HEX    C1015353   0.131  13.154  13.478
    1HEX    O1115354   0.217  13.241  13.462
    1HEX    C1215355   0.071  13.125  13.615
    1HEX    C1315356   0.177  13.108  13.726
    1HEX    C1515357  17.336  13.024  13.160
    1HEX    O1615358  17.259  12.943  13.251
    1HEX    C1715359  17.138  12.893  13.207
    1HEX    O1815360  17.115  12.858  13.092
    1HEX    C1915361  17.028  12.888  13.313
    1HEX    C1A15362  16.899  12.967  13.274
    1HEX    H1D15363   0.228  12.822  12.387
    1HEX    H1E15364   0.199  13.018  12.379
    1HEX    H1F15365   0.230  12.990  12.602
    1HEX    H1G15366   0.223  12.818  12.586
    1HEX    H1H15367  17.239  12.977  12.563
    1HEX    H1I15368  17.264  13.147  12.573
    1HEX    H1J15369  17.402  13.211  12.814
    1HEX    H1K15370  17.282  13.181  12.939
    1HEX    H1M15371  17.175  13.563  12.748
    1HEX    H1N15372  17.346  13.589  12.770
    1HEX    H1O15373  17.182  13.638  13.018
    1HEX    H1P15374  17.140  13.744  12.887
    1HEX    H1R15375  17.059  13.020  12.712
    1HEX    H1S15376  17.087  13.017  12.884
    1HEX    H1T15377  17.242  12.631  12.733
    1HEX    H1U15378  17.129  12.578  12.613
    1HEX    H1V15379  16.980  12.478  12.782
    1HEX    H1W15380  17.060  12.561  12.913
    1HEX    H1Y15381  17.389  12.864  12.773
    1HEX    H1Z15382  17.328  12.892  12.923
    1HEX    H2015383   0.060  13.168  12.992
    1HEX    H2115384   0.201  13.074  12.998
    1HEX    H2215385   0.061  12.798  13.095
    1HEX    H2315386   0.099  12.832  13.261
    1HEX    H2415387   0.492  12.819  13.053
    1HEX    H2515388   0.554  12.786  13.214
    1HEX    H2615389   0.580  13.029  13.262
    1HEX    H2715390   0.508  13.067  13.108
    1HEX    H2915391   0.092  13.210  13.223
    1HEX    H2A15392   0.226  13.102  13.239
    1HEX    H2B15393   0.010  13.035  13.609
    1HEX    H2C15394   0.003  13.207  13.639
    1HEX    H2D15395   0.276  13.130  13.686
    1HEX    H2E15396   0.181  13.005  13.761
    1HEX    H2G15397  17.285  13.022  13.066
    1HEX    H2H15398  17.315  13.127  13.191
    1HEX    H2I15399  17.069  12.932  13.404
    1HEX    H2J15400  17.004  12.784  13.337
    1HEX    H2K15401  16.923  13.047  13.204
    1HEX    H2M15402  16.859  13.018  13.362
    1STR    S0015403   0.203  12.883  12.227
    1STR    S0E15404  17.359  13.796  12.977
    1STR    S0M15405  17.190  12.370  12.837
    1STR    S0X15406   0.738  13.003  13.080
    1STR    S1415407   0.155  13.219  13.870
    1STR    S1B15408  16.760  12.870  13.201
    1HEX    C0115409   4.596  17.293  16.742
    1HEX    C0215410   4.548  17.282  16.887
    1HEX    C0315411   4.397  17.284  16.896
    1HEX    O0415412   4.331  17.186  16.863
    1HEX    O0515413   4.350  17.400  16.946
    1HEX    C0615414   4.211  17.414  16.973
    1HEX    C0715415   4.178  17.395  17.124
    1HEX    C0815416   4.180   0.094  17.197
    1HEX    O0915417   4.131   0.222  17.151
    1HEX    C0A15418   4.153   0.328  17.239
    1HEX    O0B15419   4.185   0.312  17.357
    1HEX    C0C15420   4.140   0.472  17.183
    1HEX    C0D15421   4.175   0.582  17.291
    1HEX    C0F15422   4.041  17.318  17.131
    1HEX    O0G15423   4.066  17.177  17.109
    1HEX    C0H15424   4.010  17.106  17.010
    1HEX    O0I15425   3.915  17.144  16.941
    1HEX    C0J15426   4.081  16.972  16.980
    1HEX    C0K15427   4.089  16.868  17.096
    1HEX    C0N15428   4.281  17.297  17.196
    1HEX    O0O15429   4.414  17.340  17.231
    1HEX    C0P15430   4.449  17.417  17.348
    1HEX    C0Q15431   4.411  17.370   0.053
    1HEX    C0R15432   4.468  17.227   0.077
    1HEX    O0S15433   4.608  17.213   0.044
    1HEX    C0T15434   4.706  17.221   0.138
    1HEX    O0U15435   4.689  17.251   0.256
    1HEX    C0V15436   4.846  17.180   0.088
    1HEX    C0W15437   4.947  17.296   0.065
    1HEX    C0Y15438   4.480   0.028   0.151
    1HEX    O0Z15439   4.440  -0.000   0.283
    1HEX    C1015440   4.498   0.064   0.385
    1HEX    O1115441   4.590   0.145   0.376
    1HEX    C1215442   4.430   0.031   0.517
    1HEX    C1315443   4.518   0.056   0.641
    1HEX    C1515444   4.257  17.388   0.074
    1HEX    O1615445   4.184  17.317   0.175
    1HEX    C1715446   4.060  17.266   0.142
    1HEX    O1815447   4.027  17.229   0.030
    1HEX    C1915448   3.959  17.264   0.257
    1HEX    C1A15449   3.827  17.341   0.223
    1HEX    H1D15450   4.550  17.216  16.679
    1HEX    H1E15451   4.703  17.278  16.739
    1HEX    H1F15452   4.588  17.363  16.949
    1HEX    H1G15453   4.581  17.189  16.932
    1HEX    H1H15454   4.154  17.345  16.910
    1HEX    H1I15455   4.180   0.073  16.939
    1HEX    H1J15456   4.285   0.118  17.202
    1HEX    H1K15457   4.141   0.081  17.298
    1HEX    H1M15458   4.039   0.486  17.145
    1HEX    H1N15459   4.208   0.480  17.099
    1HEX    H1O15460   4.273   0.564  17.334
    1HEX    H1P15461   4.106   0.573  17.375
    1HEX    H1R15462   3.968  17.359  17.060
    1HEX    H1S15463   3.995  17.329  17.229
    1HEX    H1T15464   4.182  16.997  16.947
    1HEX    H1U15465   4.032  16.926  16.894
    1HEX    H1V15466   3.990  16.830  17.120
    1HEX    H1W15467   4.125  16.916  17.187
    1HEX    H1Y15468   4.300  17.215  17.127
    1HEX    H1Z15469   4.236  17.240  17.277
    1HEX    H2015470   4.425   0.082  17.338
    1HEX    H2115471   4.558  17.418  17.343
    1HEX    H2215472   4.413  17.156   0.015
    1HEX    H2315473   4.450  17.197   0.180
    1HEX    H2415474   4.837  17.117  -0.000
    1HEX    H2515475   4.885  17.116   0.167
    1HEX    H2615476   4.922  17.384   0.124
    1HEX    H2715477   4.944  17.328  17.400
    1HEX    H2915478   4.455   0.132   0.128
    1HEX    H2A15479   4.589   0.023   0.143
    1HEX    H2B15480   4.398  17.367   0.514
    1HEX    H2C15481   4.340   0.092   0.520
    1HEX    H2D15482   4.575   0.149   0.632
    1HEX    H2E15483   4.591  17.416   0.652
    1HEX    H2G15484   4.206  17.372  17.421
    1HEX    H2H15485   4.236   0.053   0.092
    1HEX    H2I15486   4.007  17.312   0.343
    1HEX    H2J15487   3.938  17.161   0.286
    1HEX    H2K15488   3.843  17.408   0.139
    1HEX    H2M15489   3.798  17.405   0.306
    1STR    S0015490   4.555   0.017  16.676
    1STR    S0E15491   4.169   0.757  17.233
    1STR    S0M15492   4.200  16.726  17.055
    1STR    S0X15493   5.119  17.244   0.107
    1STR    S1415494   4.409   0.068   0.787
    1STR    S1B15495   3.682  17.236   0.182
    1HEX    C0115496   4.640  17.300   3.670
    1HEX    C0215497   4.573  17.400   3.767
    1HEX    C0315498   4.428  17.367   3.799
    1HEX    O0415499   4.382  17.253   3.783
    1HEX    O0515500   4.361   0.032   3.851
    1HEX    C0615501   4.222   0.020   3.879
    1HEX    C0715502   4.192   0.000   4.030
    1HEX    C0815503   4.213   0.136   4.107
    1HEX    O0915504   4.161   0.268   4.078
    1HEX    C0A15505   4.191   0.365   4.175
    1HEX    O0B15506   4.226   0.337   4.289
    1HEX    C0C15507   4.185   0.515   4.133
    1HEX    C0D15508   4.254   0.610   4.238
    1HEX    C0F15509   4.046  17.381   4.041
    1HEX    O0G15510   4.050  17.238   4.023
    1HEX    C0H15511   3.994  17.174   3.918
    1HEX    O0I15512   3.919  17.227   3.837
    1HEX    C0J15513   4.039  17.027   3.902
    1HEX    C0K15514   4.024  16.938   4.029
    1HEX    C0N15515   4.287  17.330   4.095
    1HEX    O0O15516   4.419  17.364   4.143
    1HEX    C0P15517   4.448  17.436   4.265
    1HEX    C0Q15518   4.406  17.385   4.407
    1HEX    C0R15519   4.472  17.245   4.430
    1HEX    O0S15520   4.614  17.241   4.395
    1HEX    C0T15521   4.714  17.254   4.488
    1HEX    O0U15522   4.697  17.275   4.608
    1HEX    C0V15523   4.857  17.234   4.432
    1HEX    C0W15524   4.953  17.356   4.451
    1HEX    C0Y15525   4.466   0.043   4.510
    1HEX    O0Z15526   4.431   0.003   4.641
    1HEX    C1015527   4.485   0.068   4.744
    1HEX    O1115528   4.561   0.165   4.736
    1HEX    C1215529   4.442   0.010   4.878
    1HEX    C1315530   4.548   0.037   4.986
    1HEX    C1515531   4.249  17.398   4.418
    1HEX    O1615532   4.167  17.351   4.526
    1HEX    C1715533   4.048  17.292   4.491
    1HEX    O1815534   4.038  17.206   4.403
    1HEX    C1915535   3.921  17.346   4.561
    1HEX    C1A15536   3.820  17.402   4.455
    1HEX    H1D15537   4.747  17.299   3.689
    1HEX    H1E15538   4.606  17.199   3.694
    1HEX    H1F15539   4.580   0.062   3.731
    1HEX    H1G15540   4.624  17.397   3.864
    1HEX    H1H15541   4.178  17.380   3.820
    1HEX    H1I15542   4.173   0.111   3.843
    1HEX    H1J15543   4.319   0.155   4.094
    1HEX    H1K15544   4.192   0.115   4.211
    1HEX    H1M15545   4.080   0.542   4.119
    1HEX    H1N15546   4.234   0.525   4.036
    1HEX    H1O15547   4.362   0.593   4.238
    1HEX    H1P15548   4.222   0.582   4.338
    1HEX    H1R15549   3.978  17.429   3.970
    1HEX    H1S15550   4.003  17.400   4.139
    1HEX    H1T15551   4.142  17.028   3.869
    1HEX    H1U15552   3.981  16.985   3.820
    1HEX    H1V15553   3.923  16.948   4.070
    1HEX    H1W15554   4.093  16.971   4.107
    1HEX    H1Y15555   4.305  17.257   4.016
    1HEX    H1Z15556   4.237  17.264   4.165
    1HEX    H2015557   4.423   0.101   4.258
    1HEX    H2115558   4.557   0.000   4.263
    1HEX    H2215559   4.422  17.170   4.368
    1HEX    H2315560   4.457  17.212   4.533
    1HEX    H2415561   4.850  17.205   4.327
    1HEX    H2515562   4.899  17.149   4.484
    1HEX    H2615563   4.958  17.383   4.556
    1HEX    H2715564   4.913   0.004   4.399
    1HEX    H2915565   4.432   0.145   4.493
    1HEX    H2A15566   4.575   0.047   4.501
    1HEX    H2B15567   4.428  17.343   4.864
    1HEX    H2C15568   4.346   0.053   4.906
    1HEX    H2D15569   4.552   0.143   5.009
    1HEX    H2E15570   4.646   0.010   4.947
    1HEX    H2G15571   4.202  17.365   4.328
    1HEX    H2H15572   4.228   0.065   4.419
    1HEX    H2I15573   3.948  17.421   4.635
    1HEX    H2J15574   3.876  17.263   4.615
    1HEX    H2K15575   3.824  17.341   4.365
    1HEX    H2M15576   3.849   0.062   4.424
    1STR    S0015577   4.618  17.328   3.490
    1STR    S0E15578   4.224   0.794   4.230
    1STR    S0M15579   4.052  16.760   3.990
    1STR    S0X15580   5.126  17.327   4.388
    1STR    S1415581   4.517  17.382   5.138
    1STR    S1B15582   3.642  17.409   4.504
    1HEX    C0115583   4.592  17.266   7.982
    1HEX    C0215584   4.573  17.304   8.130
    1HEX    C0315585   4.430  17.283   8.176
    1HEX    O0415586   4.380  17.170   8.173
    1HEX    O0515587   4.371  17.395   8.223
    1HEX    C0615588   4.235  17.390   8.263
    1HEX    C0715589   4.214  17.381   8.417
    1HEX    C0815590   4.219   0.085   8.481
    1HEX    O0915591   4.159   0.208   8.438
    1HEX    C0A15592   4.170   0.314   8.529
    1HEX    O0B15593   4.184   0.298   8.650
    1HEX    C0C15594   4.174   0.457   8.470
    1HEX    C0D15595   4.168   0.575   8.575
    1HEX    C0F15596   4.080  17.302   8.442
    1HEX    O0G15597   4.104  17.159   8.451
    1HEX    C0H15598   4.067  17.072   8.356
    1HEX    O0I15599   3.991  17.099   8.263
    1HEX    C0J15600   4.134  16.933   8.364
    1HEX    C0K15601   4.146  16.864   8.503
    1HEX    C0N15602   4.326  17.293   8.489
    1HEX    O0O15603   4.452  17.351   8.527
    1HEX    C0P15604   4.473  17.427   8.648
    1HEX    C0Q15605   4.425  17.378   8.789
    1HEX    C0R15606   4.475  17.233   8.814
    1HEX    O0S15607   4.615  17.218   8.784
    1HEX    C0T15608   4.710  17.223   8.881
    1HEX    O0U15609   4.689  17.247   9.000
    1HEX    C0V15610   4.851  17.192   8.831
    1HEX    C0W15611   4.940  17.316   8.806
    1HEX    C0Y15612   4.488   0.033   8.895
    1HEX    O0Z15613   4.444   0.000   9.026
    1HEX    C1015614   4.490   0.071   9.130
    1HEX    O1115615   4.571   0.163   9.122
    1HEX    C1215616   4.427   0.029   9.262
    1HEX    C1315617   4.523   0.040   9.383
    1HEX    C1515618   4.271  17.396   8.799
    1HEX    O1615619   4.198  17.349   8.912
    1HEX    C1715620   4.075  17.297   8.890
    1HEX    O1815621   4.044  17.227   8.793
    1HEX    C1915622   3.970  17.340   8.992
    1HEX    C1A15623   3.857  17.424   8.926
    1HEX    H1D15624   4.686  17.212   7.968
    1HEX    H1E15625   4.513  17.198   7.948
    1HEX    H1F15626   4.604  17.406   8.151
    1HEX    H1G15627   4.634  17.239   8.193
    1HEX    H1H15628   4.184  17.308   8.212
    1HEX    H1I15629   4.185   0.039   8.225
    1HEX    H1J15630   4.323   0.114   8.474
    1HEX    H1K15631   4.192   0.073   8.585
    1HEX    H1M15632   4.093   0.467   8.397
    1HEX    H1N15633   4.266   0.463   8.413
    1HEX    H1O15634   4.176   0.539   8.677
    1HEX    H1P15635   4.069   0.622   8.570
    1HEX    H1R15636   4.004  17.326   8.367
    1HEX    H1S15637   4.034  17.332   8.537
    1HEX    H1T15638   4.233  16.943   8.319
    1HEX    H1U15639   4.078  16.868   8.297
    1HEX    H1V15640   4.050  16.863   8.555
    1HEX    H1W15641   4.214  16.919   8.567
    1HEX    H1Y15642   4.351  17.213   8.419
    1HEX    H1Z15643   4.288  17.233   8.571
    1HEX    H2015644   4.444   0.091   8.636
    1HEX    H2115645   4.582  17.434   8.652
    1HEX    H2215646   4.421  17.164   8.750
    1HEX    H2315647   4.453  17.202   8.916
    1HEX    H2415648   4.843  17.131   8.741
    1HEX    H2515649   4.896  17.128   8.907
    1HEX    H2615650   4.891  17.408   8.837
    1HEX    H2715651   4.958  17.326   8.699
    1HEX    H2915652   4.461   0.137   8.874
    1HEX    H2A15653   4.597   0.030   8.892
    1HEX    H2B15654   4.390  17.367   9.253
    1HEX    H2C15655   4.340   0.093   9.276
    1HEX    H2D15656   4.610   0.099   9.357
    1HEX    H2E15657   4.560  17.382   9.413
    1HEX    H2G15658   4.223  17.355   8.712
    1HEX    H2H15659   4.248   0.063   8.795
    1HEX    H2I15660   4.019  17.395   9.072
    1HEX    H2J15661   3.931  17.248   9.036
    1HEX    H2K15662   3.872  17.436   8.818
    1HEX    H2M15663   3.853   0.085   8.968
    1STR    S0015664   4.597  17.414   7.876
    1STR    S0E15665   4.297   0.706   8.555
    1STR    S0M15666   4.206  16.689   8.486
    1STR    S0X15667   5.102  17.304   8.893
    1STR    S1415668   4.445   0.122   9.527
    1STR    S1B15669   3.696  17.345   8.955
    1HEX    C0115670   4.526  17.280  12.300
    1HEX    C0215671   4.534  17.334  12.445
    1HEX    C0315672   4.399  17.321  12.514
    1HEX    O0415673   4.341  17.212  12.516
    1HEX    O0515674   4.354  17.436  12.568
    1HEX    C0615675   4.218   0.005  12.607
    1HEX    C0715676   4.193  17.434  12.760
    1HEX    C0815677   4.222   0.133  12.828
    1HEX    O0915678   4.155   0.260  12.804
    1HEX    C0A15679   4.168   0.357  12.904
    1HEX    O0B15680   4.192   0.330  13.021
    1HEX    C0C15681   4.155   0.506  12.862
    1HEX    C0D15682   4.202   0.604  12.976
    1HEX    C0F15683   4.047  17.381  12.781
    1HEX    O0G15684   4.046  17.236  12.773
    1HEX    C0H15685   4.008  17.169  12.663
    1HEX    O0I15686   3.943  17.218  12.570
    1HEX    C0J15687   4.061  17.025  12.654
    1HEX    C0K15688   4.075  16.942  12.785
    1HEX    C0N15689   4.287  17.324  12.826
    1HEX    O0O15690   4.422  17.357  12.863
    1HEX    C0P15691   4.456  17.430  12.983
    1HEX    C0Q15692   4.415  17.380  13.125
    1HEX    C0R15693   4.474  17.237  13.147
    1HEX    O0S15694   4.614  17.226  13.109
    1HEX    C0T15695   4.717  17.236  13.198
    1HEX    O0U15696   4.705  17.265  13.317
    1HEX    C0V15697   4.856  17.201  13.141
    1HEX    C0W15698   4.956  17.319  13.123
    1HEX    C0Y15699   4.483   0.036  13.225
    1HEX    O0Z15700   4.439   0.003  13.355
    1HEX    C1015701   4.487   0.070  13.459
    1HEX    O1115702   4.574   0.157  13.456
    1HEX    C1215703   4.417   0.028  13.587
    1HEX    C1315704   4.489   0.075  13.714
    1HEX    C1515705   4.258  17.399  13.147
    1HEX    O1615706   4.179  17.326  13.242
    1HEX    C1715707   4.065  17.263  13.196
    1HEX    O1815708   4.058  17.206  13.088
    1HEX    C1915709   3.939  17.279  13.283
    1HEX    C1A15710   3.830  17.362  13.208
    1HEX    H1D15711   4.607  17.210  12.282
    1HEX    H1E15712   4.433  17.225  12.284
    1HEX    H1F15713   4.566  17.438  12.447
    1HEX    H1G15714   4.606  17.277  12.503
    1HEX    H1H15715   4.160  17.370  12.553
    1HEX    H1I15716   4.179   0.100  12.570
    1HEX    H1J15717   4.325   0.157  12.804
    1HEX    H1K15718   4.216   0.116  12.934
    1HEX    H1M15719   4.051   0.524  12.834
    1HEX    H1N15720   4.215   0.521  12.772
    1HEX    H1O15721   4.308   0.590  12.995
    1HEX    H1P15722   4.153   0.577  13.070
    1HEX    H1R15723   3.977  17.426  12.710
    1HEX    H1S15724   4.010  17.407  12.879
    1HEX    H1T15725   4.159  17.034  12.607
    1HEX    H1U15726   3.999  16.970  12.583
    1HEX    H1V15727   3.978  16.901  12.814
    1HEX    H1W15728   4.109  17.003  12.869
    1HEX    H1Y15729   4.297  17.243  12.754
    1HEX    H1Z15730   4.240  17.267  12.906
    1HEX    H2015731   4.432   0.096  12.973
    1HEX    H2115732   4.565  17.431  12.979
    1HEX    H2215733   4.418  17.166  13.086
    1HEX    H2315734   4.460  17.206  13.250
    1HEX    H2415735   4.844  17.145  13.049
    1HEX    H2515736   4.899  17.131  13.213
    1HEX    H2615737   4.953  17.387  13.208
    1HEX    H2715738   4.929  17.378  13.035
    1HEX    H2915739   4.457   0.140  13.205
    1HEX    H2A15740   4.591   0.032  13.219
    1HEX    H2B15741   4.407  17.360  13.586
    1HEX    H2C15742   4.316   0.070  13.582
    1HEX    H2D15743   4.510   0.182  13.712
    1HEX    H2E15744   4.585   0.025  13.724
    1HEX    H2G15745   4.205  17.394  13.054
    1HEX    H2H15746   4.241   0.063  13.174
    1HEX    H2I15747   3.964  17.323  13.379
    1HEX    H2J15748   3.902  17.179  13.302
    1HEX    H2K15749   3.843  17.353  13.100
    1HEX    H2M15750   3.845   0.028  13.230
    1STR    S0015751   4.531  17.410  12.173
    1STR    S0E15752   4.170   0.785  12.952
    1STR    S0M15753   4.192  16.802  12.757
    1STR    S0X15754   5.130  17.258  13.100
    1STR    S1415755   4.384   0.034  13.857
    1STR    S1B15756   3.653  17.323  13.246
    1HEX    C0115757   4.596   4.277  16.691
    1HEX    C0215758   4.554   4.247  16.838
    1HEX    C0315759   4.404   4.242  16.862
    1HEX    O0415760   4.339   4.143  16.831
    1HEX    O0515761   4.358   4.352  16.926
    1HEX    C0615762   4.221   4.361  16.962
    1HEX    C0715763   4.197   4.349  17.115
    1HEX    C0815764   4.223   4.488  17.184
    1HEX    O0915765   4.170   4.617  17.148
    1HEX    C0A15766   4.196   4.722  17.237
    1HEX    O0B15767   4.220   4.705  17.357
    1HEX    C0C15768   4.201   4.865  17.177
    1HEX    C0D15769   4.160   4.984  17.272
    1HEX    C0F15770   4.052   4.291  17.134
    1HEX    O0G15771   4.056   4.147  17.131
    1HEX    C0H15772   4.000   4.072  17.034
    1HEX    O0I15773   3.921   4.113  16.949
    1HEX    C0J15774   4.050   3.927  17.033
    1HEX    C0K15775   3.974   3.827  17.125
    1HEX    C0N15776   4.295   4.241  17.180
    1HEX    O0O15777   4.425   4.280  17.231
    1HEX    C0P15778   4.449   4.352  17.354
    1HEX    C0Q15779   4.402   4.301   0.055
    1HEX    C0R15780   4.462   4.159   0.078
    1HEX    O0S15781   4.601   4.149   0.038
    1HEX    C0T15782   4.705   4.159   0.126
    1HEX    O0U15783   4.694   4.177   0.247
    1HEX    C0V15784   4.844   4.142   0.061
    1HEX    C0W15785   4.960   4.217   0.135
    1HEX    C0Y15786   4.464   4.399   0.159
    1HEX    O0Z15787   4.429   4.371   0.294
    1HEX    C1015788   4.487   4.446   0.391
    1HEX    O1115789   4.570   4.535   0.372
    1HEX    C1215790   4.439   4.413   0.532
    1HEX    C1315791   4.554   4.371   0.627
    1HEX    C1515792   4.245   4.318   0.061
    1HEX    O1615793   4.159   4.263   0.162
    1HEX    C1715794   4.029   4.233   0.126
    1HEX    O1815795   3.993   4.202   0.012
    1HEX    C1915796   3.924   4.245   0.237
    1HEX    C1A15797   3.813   4.352   0.210
    1HEX    H1D15798   4.557   4.176  16.674
    1HEX    H1E15799   4.552   4.376  16.695
    1HEX    H1F15800   4.596   4.322  16.905
    1HEX    H1G15801   4.595   4.152  16.873
    1HEX    H1H15802   4.162   4.286  16.907
    1HEX    H1I15803   4.183   4.456  16.925
    1HEX    H1J15804   4.329   4.506  17.170
    1HEX    H1K15805   4.203   4.474  17.290
    1HEX    H1M15806   4.133   4.863  17.092
    1HEX    H1N15807   4.301   4.881  17.137
    1HEX    H1O15808   4.100   4.943  17.353
    1HEX    H1P15809   4.095   5.053  17.219
    1HEX    H1R15810   3.982   4.332  17.060
    1HEX    H1S15811   4.011   4.320  17.231
    1HEX    H1T15812   4.156   3.930  17.059
    1HEX    H1U15813   4.047   3.890  16.930
    1HEX    H1V15814   3.908   3.765  17.065
    1HEX    H1W15815   3.910   3.881  17.195
    1HEX    H1Y15816   4.316   4.167  17.103
    1HEX    H1Z15817   4.248   4.175  17.253
    1HEX    H2015818   4.423   4.457  17.345
    1HEX    H2115819   4.558   4.357  17.356
    1HEX    H2215820   4.406   4.087   0.018
    1HEX    H2315821   4.449   4.128   0.182
    1HEX    H2415822   4.837   4.175  17.398
    1HEX    H2515823   4.867   4.035   0.057
    1HEX    H2615824   4.923   4.311   0.176
    1HEX    H2715825   4.991   4.158   0.221
    1HEX    H2915826   4.435   4.502   0.137
    1HEX    H2A15827   4.573   4.398   0.150
    1HEX    H2B15828   4.365   4.333   0.526
    1HEX    H2C15829   4.387   4.500   0.570
    1HEX    H2D15830   4.649   4.380   0.573
    1HEX    H2E15831   4.545   4.266   0.655
    1HEX    H2G15832   4.203   4.289  17.407
    1HEX    H2H15833   4.224   4.425   0.065
    1HEX    H2I15834   3.977   4.271   0.328
    1HEX    H2J15835   3.879   4.147   0.254
    1HEX    H2K15836   3.857   4.440   0.164
    1HEX    H2M15837   3.774   4.386   0.306
    1STR    S0015838   4.504   4.261  16.533
    1STR    S0E15839   4.291   5.087  17.354
    1STR    S0M15840   4.088   3.719  17.223
    1STR    S0X15841   5.108   4.256   0.031
    1STR    S1415842   4.572   4.473   0.778
    1STR    S1B15843   3.668   4.303   0.107
    1HEX    C0115844   4.597   4.219   3.607
    1HEX    C0215845   4.559   4.271   3.747
    1HEX    C0315846   4.422   4.228   3.795
    1HEX    O0415847   4.386   4.110   3.789
    1HEX    O0515848   4.351   4.330   3.846
    1HEX    C0615849   4.218   4.310   3.891
    1HEX    C0715850   4.206   4.303   4.046
    1HEX    C0815851   4.211   4.448   4.107
    1HEX    O0915852   4.143   4.568   4.065
    1HEX    C0A15853   4.160   4.679   4.149
    1HEX    O0B15854   4.200   4.669   4.265
    1HEX    C0C15855   4.132   4.821   4.092
    1HEX    C0D15856   4.181   4.934   4.190
    1HEX    C0F15857   4.075   4.221   4.077
    1HEX    O0G15858   4.103   4.078   4.082
    1HEX    C0H15859   4.063   3.991   3.987
    1HEX    O0I15860   3.982   4.018   3.898
    1HEX    C0J15861   4.134   3.854   3.990
    1HEX    C0K15862   4.153   3.782   4.127
    1HEX    C0N15863   4.322   4.217   4.112
    1HEX    O0O15864   4.445   4.278   4.151
    1HEX    C0P15865   4.463   4.350   4.275
    1HEX    C0Q15866   4.418   4.294   4.415
    1HEX    C0R15867   4.476   4.151   4.435
    1HEX    O0S15868   4.617   4.142   4.408
    1HEX    C0T15869   4.709   4.144   4.507
    1HEX    O0U15870   4.686   4.166   4.625
    1HEX    C0V15871   4.851   4.108   4.460
    1HEX    C0W15872   4.943   4.229   4.427
    1HEX    C0Y15873   4.478   4.389   4.521
    1HEX    O0Z15874   4.438   4.354   4.652
    1HEX    C1015875   4.493   4.418   4.756
    1HEX    O1115876   4.579   4.506   4.748
    1HEX    C1215877   4.433   4.376   4.890
    1HEX    C1315878   4.521   4.411   5.012
    1HEX    C1515879   4.261   4.305   4.427
    1HEX    O1615880   4.191   4.252   4.540
    1HEX    C1715881   4.066   4.201   4.521
    1HEX    O1815882   4.026   4.149   4.416
    1HEX    C1915883   3.969   4.218   4.639
    1HEX    C1A15884   3.842   4.299   4.598
    1HEX    H1D15885   4.618   4.112   3.612
    1HEX    H1E15886   4.688   4.269   3.573
    1HEX    H1F15887   4.563   4.380   3.749
    1HEX    H1G15888   4.631   4.236   3.821
    1HEX    H1H15889   4.175   4.222   3.844
    1HEX    H1I15890   4.158   4.393   3.854
    1HEX    H1J15891   4.314   4.479   4.094
    1HEX    H1K15892   4.192   4.438   4.213
    1HEX    H1M15893   4.026   4.830   4.071
    1HEX    H1N15894   4.185   4.830   3.996
    1HEX    H1O15895   4.289   4.926   4.202
    1HEX    H1P15896   4.141   4.916   4.289
    1HEX    H1R15897   3.995   4.244   4.006
    1HEX    H1S15898   4.033   4.249   4.174
    1HEX    H1T15899   4.231   3.867   3.942
    1HEX    H1U15900   4.078   3.789   3.923
    1HEX    H1V15901   4.060   3.780   4.183
    1HEX    H1W15902   4.225   3.836   4.189
    1HEX    H1Y15903   4.350   4.141   4.038
    1HEX    H1Z15904   4.290   4.152   4.193
    1HEX    H2015905   4.427   4.453   4.266
    1HEX    H2115906   4.571   4.363   4.279
    1HEX    H2215907   4.425   4.081   4.369
    1HEX    H2315908   4.453   4.116   4.536
    1HEX    H2415909   4.845   4.039   4.376
    1HEX    H2515910   4.895   4.051   4.542
    1HEX    H2615911   4.895   4.323   4.455
    1HEX    H2715912   4.959   4.234   4.319
    1HEX    H2915913   4.448   4.493   4.503
    1HEX    H2A15914   4.587   4.389   4.516
    1HEX    H2B15915   4.412   4.269   4.887
    1HEX    H2C15916   4.337   4.427   4.896
    1HEX    H2D15917   4.580   4.500   4.992
    1HEX    H2E15918   4.593   4.331   5.032
    1HEX    H2G15919   4.214   4.265   4.339
    1HEX    H2H15920   4.235   4.410   4.426
    1HEX    H2I15921   4.022   4.267   4.720
    1HEX    H2J15922   3.942   4.118   4.674
    1HEX    H2K15923   3.847   4.325   4.492
    1HEX    H2M15924   3.837   4.393   4.652
    1STR    S0015925   4.469   4.242   3.479
    1STR    S0E15926   4.140   5.111   4.152
    1STR    S0M15927   4.212   3.607   4.104
    1STR    S0X15928   5.106   4.219   4.513
    1STR    S1415929   4.418   4.446   5.159
    1STR    S1B15930   3.684   4.209   4.622
    1HEX    C0115931   4.596   4.232   7.973
    1HEX    C0215932   4.573   4.289   8.115
    1HEX    C0315933   4.431   4.266   8.162
    1HEX    O0415934   4.380   4.154   8.157
    1HEX    O0515935   4.373   4.378   8.210
    1HEX    C0615936   4.234   4.378   8.239
    1HEX    C0715937   4.200   4.362   8.390
    1HEX    C0815938   4.222   4.499   8.465
    1HEX    O0915939   4.166   4.630   8.440
    1HEX    C0A15940   4.190   4.726   8.540
    1HEX    O0B15941   4.220   4.696   8.656
    1HEX    C0C15942   4.181   4.877   8.502
    1HEX    C0D15943   4.250   4.970   8.610
    1HEX    C0F15944   4.055   4.303   8.399
    1HEX    O0G15945   4.058   4.159   8.382
    1HEX    C0H15946   4.024   4.099   8.266
    1HEX    O0I15947   3.961   4.154   8.176
    1HEX    C0J15948   4.076   3.955   8.248
    1HEX    C0K15949   4.105   3.870   8.376
    1HEX    C0N15950   4.291   4.252   8.459
    1HEX    O0O15951   4.425   4.283   8.502
    1HEX    C0P15952   4.456   4.358   8.622
    1HEX    C0Q15953   4.414   4.307   8.764
    1HEX    C0R15954   4.477   4.165   8.787
    1HEX    O0S15955   4.618   4.159   8.750
    1HEX    C0T15956   4.720   4.172   8.841
    1HEX    O0U15957   4.706   4.195   8.960
    1HEX    C0V15958   4.862   4.150   8.782
    1HEX    C0W15959   4.958   4.273   8.787
    1HEX    C0Y15960   4.478   4.404   8.865
    1HEX    O0Z15961   4.433   4.366   8.994
    1HEX    C1015962   4.482   4.425   9.101
    1HEX    O1115963   4.567   4.514   9.103
    1HEX    C1215964   4.418   4.370   9.227
    1HEX    C1315965   4.499   4.402   9.352
    1HEX    C1515966   4.257   4.325   8.780
    1HEX    O1615967   4.172   4.260   8.877
    1HEX    C1715968   4.057   4.202   8.831
    1HEX    O1815969   4.052   4.133   8.729
    1HEX    C1915970   3.927   4.238   8.905
    1HEX    C1A15971   3.826   4.312   8.811
    1HEX    H1D15972   4.700   4.206   7.960
    1HEX    H1E15973   4.539   4.140   7.960
    1HEX    H1F15974   4.598   4.394   8.120
    1HEX    H1G15975   4.637   4.236   8.186
    1HEX    H1H15976   4.185   4.301   8.179
    1HEX    H1I15977   4.192   4.471   8.202
    1HEX    H1J15978   4.328   4.520   8.450
    1HEX    H1K15979   4.205   4.479   8.570
    1HEX    H1M15980   4.076   4.903   8.489
    1HEX    H1N15981   4.230   4.890   8.405
    1HEX    H1O15982   4.357   4.952   8.611
    1HEX    H1P15983   4.216   4.941   8.710
    1HEX    H1R15984   3.987   4.351   8.328
    1HEX    H1S15985   4.011   4.322   8.497
    1HEX    H1T15986   4.167   3.963   8.189
    1HEX    H1U15987   4.004   3.903   8.185
    1HEX    H1V15988   4.015   3.862   8.437
    1HEX    H1W15989   4.181   3.917   8.438
    1HEX    H1Y15990   4.305   4.173   8.386
    1HEX    H1Z15991   4.240   4.192   8.535
    1HEX    H2015992   4.431   4.463   8.614
    1HEX    H2115993   4.565   4.360   8.620
    1HEX    H2215994   4.423   4.092   8.726
    1HEX    H2315995   4.463   4.133   8.890
    1HEX    H2415996   4.852   4.112   8.680
    1HEX    H2515997   4.906   4.069   8.841
    1HEX    H2615998   4.962   4.314   8.888
    1HEX    H2715999   4.919   4.353   8.724
    1HEX    H2916000   4.449   4.508   8.847
    1HEX    H2A16001   4.586   4.402   8.861
    1HEX    H2B16002   4.409   4.262   9.213
    1HEX    H2C16003   4.317   4.410   9.234
    1HEX    H2D16004   4.497   4.509   9.371
    1HEX    H2E16005   4.604   4.375   9.339
    1HEX    H2G16006   4.207   4.312   8.686
    1HEX    H2H16007   4.238   4.431   8.799
    1HEX    H2I16008   3.949   4.296   8.995
    1HEX    H2J16009   3.883   4.144   8.938
    1HEX    H2K16010   3.848   4.284   8.708
    1HEX    H2M16011   3.843   4.420   8.815
    1STR    S0016012   4.549   4.346   7.839
    1STR    S0E16013   4.221   5.154   8.602
    1STR    S0M16014   4.159   3.701   8.327
    1STR    S0X16015   5.130   4.234   8.731
    1STR    S1416016   4.429   4.309   9.492
    1STR    S1B16017   3.646   4.283   8.837
    1HEX    C0116018   4.562   4.123  12.359
    1HEX    C0216019   4.545   4.194  12.496
    1HEX    C0316020   4.401   4.188  12.544
    1HEX    O0416021   4.340   4.081  12.547
    1HEX    O0516022   4.353   4.307  12.585
    1HEX    C0616023   4.217   4.318  12.626
    1HEX    C0716024   4.196   4.319  12.780
    1HEX    C0816025   4.219   4.463  12.837
    1HEX    O0916026   4.153   4.587  12.803
    1HEX    C0A16027   4.171   4.692  12.893
    1HEX    O0B16028   4.198   4.677  13.012
    1HEX    C0C16029   4.164   4.835  12.834
    1HEX    C0D16030   4.139   4.951  12.938
    1HEX    C0F16031   4.053   4.257  12.807
    1HEX    O0G16032   4.064   4.114  12.822
    1HEX    C0H16033   4.015   4.024  12.733
    1HEX    O0I16034   3.931   4.049  12.647
    1HEX    C0J16035   4.082   3.886  12.743
    1HEX    C0K16036   4.028   3.789  12.852
    1HEX    C0N16037   4.298   4.222  12.854
    1HEX    O0O16038   4.428   4.270  12.890
    1HEX    C0P16039   4.455   4.349  13.009
    1HEX    C0Q16040   4.410   4.301  13.151
    1HEX    C0R16041   4.461   4.156  13.174
    1HEX    O0S16042   4.598   4.135  13.135
    1HEX    C0T16043   4.702   4.142  13.223
    1HEX    O0U16044   4.692   4.177  13.341
    1HEX    C0V16045   4.837   4.094  13.167
    1HEX    C0W16046   4.943   4.205  13.139
    1HEX    C0Y16047   4.478   4.396  13.254
    1HEX    O0Z16048   4.437   4.367  13.387
    1HEX    C1016049   4.485   4.441  13.488
    1HEX    O1116050   4.567   4.532  13.476
    1HEX    C1216051   4.425   4.403  13.623
    1HEX    C1316052   4.529   4.397  13.737
    1HEX    C1516053   4.255   4.324  13.168
    1HEX    O1616054   4.179   4.266  13.275
    1HEX    C1716055   4.070   4.191  13.242
    1HEX    O1816056   4.064   4.116  13.145
    1HEX    C1916057   3.946   4.215  13.330
    1HEX    C1A16058   3.835   4.288  13.249
    1HEX    H1D16059   4.637   4.045  12.367
    1HEX    H1E16060   4.470   4.075  12.326
    1HEX    H1F16061   4.576   4.298  12.492
    1HEX    H1G16062   4.606   4.145  12.572
    1HEX    H1H16063   4.158   4.239  12.579
    1HEX    H1I16064   4.176   4.410  12.583
    1HEX    H1J16065   4.323   4.487  12.814
    1HEX    H1K16066   4.210   4.454  12.944
    1HEX    H1M16067   4.084   4.835  12.760
    1HEX    H1N16068   4.256   4.853  12.780
    1HEX    H1O16069   4.113   4.911  13.035
    1HEX    H1P16070   4.052   5.009  12.908
    1HEX    H1R16071   3.981   4.285  12.729
    1HEX    H1S16072   4.011   4.296  12.900
    1HEX    H1T16073   4.189   3.904  12.758
    1HEX    H1U16074   4.074   3.839  12.645
    1HEX    H1V16075   3.926   3.759  12.830
    1HEX    H1W16076   4.026   3.838  12.949
    1HEX    H1Y16077   4.315   4.137  12.789
    1HEX    H1Z16078   4.255   4.169  12.939
    1HEX    H2016079   4.427   4.453  12.995
    1HEX    H2116080   4.564   4.354  13.009
    1HEX    H2216081   4.400   4.087  13.115
    1HEX    H2316082   4.445   4.126  13.278
    1HEX    H2416083   4.819   4.034  13.078
    1HEX    H2516084   4.876   4.026  13.242
    1HEX    H2616085   4.914   4.299  13.187
    1HEX    H2716086   4.948   4.226  13.032
    1HEX    H2916087   4.454   4.500  13.232
    1HEX    H2A16088   4.587   4.390  13.247
    1HEX    H2B16089   4.375   4.307  13.613
    1HEX    H2C16090   4.348   4.477  13.644
    1HEX    H2D16091   4.626   4.433  13.701
    1HEX    H2E16092   4.545   4.295  13.770
    1HEX    H2G16093   4.201   4.301  13.078
    1HEX    H2H16094   4.237   4.431  13.178
    1HEX    H2I16095   3.973   4.269  13.420
    1HEX    H2J16096   3.910   4.117  13.361
    1HEX    H2K16097   3.832   4.252  13.146
    1HEX    H2M16098   3.857   4.395  13.243
    1STR    S0016099   4.616   4.240  12.231
    1STR    S0E16100   4.279   5.070  12.966
    1STR    S0M16101   4.134   3.637  12.863
    1STR    S0X16102   5.111   4.158  13.198
    1STR    S1416103   4.484   4.501  13.881
    1STR    S1B16104   3.666   4.271  13.319
    1HEX    C0116105   4.613   8.575  16.753
    1HEX    C0216106   4.547   8.534  16.885
    1HEX    C0316107   4.398   8.558  16.889
    1HEX    O0416108   4.319   8.468  16.859
    1HEX    O0516109   4.365   8.679  16.939
    1HEX    C0616110   4.229   8.707  16.969
    1HEX    C0716111   4.193   8.682  17.119
    1HEX    C0816112   4.181   8.819  17.198
    1HEX    O0916113   4.143   8.950  17.148
    1HEX    C0A16114   4.156   9.054  17.241
    1HEX    O0B16115   4.175   9.035  17.362
    1HEX    C0C16116   4.151   9.200  17.189
    1HEX    C0D16117   4.162   9.307  17.306
    1HEX    C0F16118   4.060   8.597  17.121
    1HEX    O0G16119   4.094   8.457  17.108
    1HEX    C0H16120   4.037   8.372  17.020
    1HEX    O0I16121   3.934   8.396  16.957
    1HEX    C0J16122   4.117   8.242  16.998
    1HEX    C0K16123   4.121   8.140  17.116
    1HEX    C0N16124   4.299   8.589  17.193
    1HEX    O0O16125   4.430   8.636  17.227
    1HEX    C0P16126   4.462   8.707  17.348
    1HEX    C0Q16127   4.418   8.656   0.049
    1HEX    C0R16128   4.475   8.512   0.070
    1HEX    O0S16129   4.615   8.498   0.036
    1HEX    C0T16130   4.714   8.505   0.130
    1HEX    O0U16131   4.698   8.535   0.248
    1HEX    C0V16132   4.853   8.464   0.078
    1HEX    C0W16133   4.955   8.579   0.054
    1HEX    C0Y16134   4.486   8.751   0.150
    1HEX    O0Z16135   4.442   8.721   0.281
    1HEX    C1016136   4.495   8.788   0.384
    1HEX    O1116137   4.586   8.870   0.377
    1HEX    C1216138   4.425   8.754   0.514
    1HEX    C1316139   4.509   8.784   0.639
    1HEX    C1516140   4.263   8.673   0.068
    1HEX    O1616141   4.185   8.595   0.161
    1HEX    C1716142   4.063   8.546   0.119
    1HEX    O1816143   4.036   8.514   0.004
    1HEX    C1916144   3.955   8.536   0.228
    1HEX    C1A16145   3.823   8.612   0.194
    1HEX    H1D16146   4.718   8.546  16.755
    1HEX    H1E16147   4.609   8.683  16.743
    1HEX    H1F16148   4.591   8.591  16.967
    1HEX    H1G16149   4.565   8.429  16.907
    1HEX    H1H16150   4.165   8.649  16.902
    1HEX    H1I16151   4.209   8.811  16.941
    1HEX    H1J16152   4.282   8.842  17.224
    1HEX    H1K16153   4.124   8.804  17.289
    1HEX    H1M16154   4.059   9.215  17.132
    1HEX    H1N16155   4.234   9.213  17.121
    1HEX    H1O16156   4.252   9.288  17.364
    1HEX    H1P16157   4.079   9.292  17.376
    1HEX    H1R16158   3.989   8.629  17.045
    1HEX    H1S16159   4.007   8.609  17.215
    1HEX    H1T16160   4.218   8.272  16.973
    1HEX    H1U16161   4.078   8.194  16.909
    1HEX    H1V16162   4.024   8.093  17.128
    1HEX    H1W16163   4.142   8.192  17.210
    1HEX    H1Y16164   4.321   8.507  17.125
    1HEX    H1Z16165   4.255   8.531  17.274
    1HEX    H2016166   4.440   8.813  17.340
    1HEX    H2116167   4.571   8.708  17.346
    1HEX    H2216168   4.419   8.442   0.008
    1HEX    H2316169   4.457   8.480   0.173
    1HEX    H2416170   4.843   8.402  17.430
    1HEX    H2516171   4.893   8.399   0.156
    1HEX    H2616172   4.940   8.661   0.126
    1HEX    H2716173   4.941   8.622  17.395
    1HEX    H2916174   4.461   8.855   0.130
    1HEX    H2A16175   4.594   8.746   0.145
    1HEX    H2B16176   4.397   8.649   0.512
    1HEX    H2C16177   4.332   8.812   0.514
    1HEX    H2D16178   4.557   8.882   0.634
    1HEX    H2E16179   4.588   8.710   0.649
    1HEX    H2G16180   4.214   8.667  17.413
    1HEX    H2H16181   4.243   8.777   0.095
    1HEX    H2I16182   3.999   8.579   0.319
    1HEX    H2J16183   3.935   8.431   0.251
    1HEX    H2K16184   3.843   8.692   0.122
    1HEX    H2M16185   3.785   8.662   0.283
    1STR    S0016186   4.543   8.503  16.602
    1STR    S0E16187   4.162   9.486  17.258
    1STR    S0M16188   4.250   8.009  17.091
    1STR    S0X16189   5.128   8.518   0.069
    1STR    S1416190   4.398   8.779   0.783
    1STR    S1B16191   3.684   8.512   0.126
    1HEX    C0116192   4.656   8.622   3.693
    1HEX    C0216193   4.575   8.709   3.791
    1HEX    C0316194   4.431   8.665   3.808
    1HEX    O0416195   4.394   8.550   3.784
    1HEX    O0516196   4.354   8.764   3.857
    1HEX    C0616197   4.215   8.741   3.881
    1HEX    C0716198   4.184   8.720   4.031
    1HEX    C0816199   4.203   8.855   4.108
    1HEX    O0916200   4.152   8.987   4.077
    1HEX    C0A16201   4.183   9.086   4.171
    1HEX    O0B16202   4.220   9.060   4.285
    1HEX    C0C16203   4.176   9.235   4.126
    1HEX    C0D16204   4.249   9.332   4.227
    1HEX    C0F16205   4.040   8.659   4.041
    1HEX    O0G16206   4.045   8.515   4.037
    1HEX    C0H16207   4.004   8.440   3.932
    1HEX    O0I16208   3.935   8.481   3.839
    1HEX    C0J16209   4.058   8.296   3.935
    1HEX    C0K16210   3.950   8.184   3.948
    1HEX    C0N16211   4.282   8.612   4.095
    1HEX    O0O16212   4.413   8.648   4.145
    1HEX    C0P16213   4.441   8.719   4.268
    1HEX    C0Q16214   4.401   8.664   4.410
    1HEX    C0R16215   4.468   8.524   4.431
    1HEX    O0S16216   4.608   8.522   4.393
    1HEX    C0T16217   4.711   8.531   4.483
    1HEX    O0U16218   4.698   8.546   4.604
    1HEX    C0V16219   4.852   8.517   4.419
    1HEX    C0W16220   4.964   8.605   4.486
    1HEX    C0Y16221   4.461   8.761   4.514
    1HEX    O0Z16222   4.431   8.721   4.646
    1HEX    C1016223   4.487   8.788   4.747
    1HEX    O1116224   4.559   8.887   4.735
    1HEX    C1216225   4.451   8.731   4.884
    1HEX    C1316226   4.556   8.772   4.989
    1HEX    C1516227   4.244   8.674   4.421
    1HEX    O1616228   4.164   8.635   4.534
    1HEX    C1716229   4.044   8.574   4.506
    1HEX    O1816230   4.030   8.485   4.422
    1HEX    C1916231   3.920   8.631   4.578
    1HEX    C1A16232   3.817   8.690   4.476
    1HEX    H1D16233   4.762   8.630   3.718
    1HEX    H1E16234   4.630   8.517   3.709
    1HEX    H1F16235   4.579   8.814   3.764
    1HEX    H1G16236   4.618   8.700   3.891
    1HEX    H1H16237   4.179   8.657   3.821
    1HEX    H1I16238   4.161   8.828   3.843
    1HEX    H1J16239   4.309   8.875   4.100
    1HEX    H1K16240   4.178   8.835   4.212
    1HEX    H1M16241   4.071   9.262   4.116
    1HEX    H1N16242   4.221   9.244   4.027
    1HEX    H1O16243   4.357   9.317   4.221
    1HEX    H1P16244   4.222   9.303   4.328
    1HEX    H1R16245   3.973   8.699   3.964
    1HEX    H1S16246   3.993   8.686   4.135
    1HEX    H1T16247   4.134   8.287   4.012
    1HEX    H1U16248   4.110   8.281   3.840
    1HEX    H1V16249   3.943   8.128   3.855
    1HEX    H1W16250   3.853   8.231   3.963
    1HEX    H1Y16251   4.303   8.540   4.016
    1HEX    H1Z16252   4.235   8.544   4.165
    1HEX    H2016253   4.413   8.823   4.263
    1HEX    H2116254   4.550   8.725   4.267
    1HEX    H2216255   4.417   8.450   4.369
    1HEX    H2316256   4.455   8.490   4.534
    1HEX    H2416257   4.843   8.542   4.314
    1HEX    H2516258   4.880   8.412   4.424
    1HEX    H2616259   4.926   8.705   4.506
    1HEX    H2716260   4.990   8.564   4.584
    1HEX    H2916261   4.424   8.863   4.499
    1HEX    H2A16262   4.569   8.767   4.502
    1HEX    H2B16263   4.447   8.623   4.874
    1HEX    H2C16264   4.352   8.766   4.912
    1HEX    H2D16265   4.552   8.880   5.006
    1HEX    H2E16266   4.656   8.751   4.950
    1HEX    H2G16267   4.198   8.632   4.334
    1HEX    H2H16268   4.220   8.780   4.413
    1HEX    H2I16269   3.950   8.706   4.652
    1HEX    H2J16270   3.875   8.549   4.633
    1HEX    H2K16271   3.819   8.632   4.383
    1HEX    H2M16272   3.845   8.791   4.448
    1STR    S0016273   4.640   8.662   3.515
    1STR    S0E16274   4.214   9.514   4.222
    1STR    S0M16275   3.970   8.062   4.085
    1STR    S0X16276   5.118   8.619   4.385
    1STR    S1416277   4.537   8.685   5.148
    1STR    S1B16278   3.641   8.693   4.530
    1HEX    C0116279   4.585   8.582   7.978
    1HEX    C0216280   4.573   8.604   8.130
    1HEX    C0316281   4.433   8.572   8.180
    1HEX    O0416282   4.392   8.456   8.178
    1HEX    O0516283   4.366   8.680   8.225
    1HEX    C0616284   4.230   8.665   8.266
    1HEX    C0716285   4.211   8.660   8.420
    1HEX    C0816286   4.223   8.805   8.479
    1HEX    O0916287   4.158   8.926   8.436
    1HEX    C0A16288   4.166   9.033   8.525
    1HEX    O0B16289   4.173   9.019   8.647
    1HEX    C0C16290   4.175   9.174   8.463
    1HEX    C0D16291   4.186   9.291   8.568
    1HEX    C0F16292   4.074   8.587   8.448
    1HEX    O0G16293   4.094   8.443   8.462
    1HEX    C0H16294   4.056   8.354   8.369
    1HEX    O0I16295   3.983   8.380   8.274
    1HEX    C0J16296   4.120   8.214   8.382
    1HEX    C0K16297   4.122   8.146   8.523
    1HEX    C0N16298   4.321   8.570   8.491
    1HEX    O0O16299   4.447   8.627   8.530
    1HEX    C0P16300   4.466   8.704   8.651
    1HEX    C0Q16301   4.418   8.655   8.792
    1HEX    C0R16302   4.470   8.510   8.816
    1HEX    O0S16303   4.610   8.495   8.787
    1HEX    C0T16304   4.704   8.499   8.885
    1HEX    O0U16305   4.683   8.524   9.003
    1HEX    C0V16306   4.846   8.463   8.837
    1HEX    C0W16307   4.943   8.584   8.824
    1HEX    C0Y16308   4.482   8.750   8.896
    1HEX    O0Z16309   4.440   8.717   9.027
    1HEX    C1016310   4.491   8.785   9.131
    1HEX    O1116311   4.576   8.874   9.122
    1HEX    C1216312   4.430   8.743   9.264
    1HEX    C1316313   4.523   8.764   9.386
    1HEX    C1516314   4.263   8.673   8.803
    1HEX    O1616315   4.191   8.629   8.919
    1HEX    C1716316   4.069   8.570   8.899
    1HEX    O1816317   4.040   8.500   8.803
    1HEX    C1916318   3.963   8.606   9.004
    1HEX    C1A16319   3.849   8.689   8.939
    1HEX    H1D16320   4.684   8.545   7.952
    1HEX    H1E16321   4.516   8.504   7.946
    1HEX    H1F16322   4.601   8.706   8.159
    1HEX    H1G16323   4.640   8.536   8.183
    1HEX    H1H16324   4.185   8.577   8.218
    1HEX    H1I16325   4.174   8.749   8.225
    1HEX    H1J16326   4.326   8.833   8.464
    1HEX    H1K16327   4.205   8.796   8.585
    1HEX    H1M16328   4.091   9.190   8.396
    1HEX    H1N16329   4.264   9.173   8.401
    1HEX    H1O16330   4.230   9.257   8.662
    1HEX    H1P16331   4.086   9.326   8.594
    1HEX    H1R16332   3.999   8.610   8.372
    1HEX    H1S16333   4.030   8.622   8.542
    1HEX    H1T16334   4.222   8.222   8.344
    1HEX    H1U16335   4.068   8.149   8.312
    1HEX    H1V16336   4.022   8.144   8.566
    1HEX    H1W16337   4.184   8.203   8.592
    1HEX    H1Y16338   4.345   8.490   8.422
    1HEX    H1Z16339   4.283   8.512   8.575
    1HEX    H2016340   4.435   8.808   8.637
    1HEX    H2116341   4.575   8.713   8.655
    1HEX    H2216342   4.416   8.441   8.752
    1HEX    H2316343   4.447   8.479   8.918
    1HEX    H2416344   4.840   8.407   8.743
    1HEX    H2516345   4.884   8.394   8.911
    1HEX    H2616346   4.908   8.670   8.882
    1HEX    H2716347   4.947   8.617   8.720
    1HEX    H2916348   4.455   8.854   8.876
    1HEX    H2A16349   4.591   8.746   8.891
    1HEX    H2B16350   4.398   8.639   9.258
    1HEX    H2C16351   4.339   8.802   9.274
    1HEX    H2D16352   4.600   8.838   9.362
    1HEX    H2E16353   4.576   8.672   9.411
    1HEX    H2G16354   4.213   8.633   8.717
    1HEX    H2H16355   4.241   8.780   8.799
    1HEX    H2I16356   4.008   8.657   9.089
    1HEX    H2J16357   3.923   8.511   9.040
    1HEX    H2K16358   3.837   8.660   8.835
    1HEX    H2M16359   3.873   8.796   8.937
    1STR    S0016360   4.556   8.736   7.886
    1STR    S0E16361   4.286   9.435   8.512
    1STR    S0M16362   4.186   7.972   8.511
    1STR    S0X16363   5.113   8.540   8.878
    1STR    S1416364   4.432   8.828   9.531
    1STR    S1B16365   3.685   8.666   9.018
    1HEX    C0116366   4.549   8.563  12.311
    1HEX    C0216367   4.543   8.620  12.454
    1HEX    C0316368   4.404   8.604  12.514
    1HEX    O0416369   4.347   8.494  12.512
    1HEX    O0516370   4.355   8.718  12.567
    1HEX    C0616371   4.217   8.724  12.603
    1HEX    C0716372   4.191   8.712  12.756
    1HEX    C0816373   4.216   8.851  12.826
    1HEX    O0916374   4.154   8.981  12.804
    1HEX    C0A16375   4.175   9.077  12.904
    1HEX    O0B16376   4.206   9.048  13.020
    1HEX    C0C16377   4.162   9.228  12.867
    1HEX    C0D16378   4.220   9.323  12.979
    1HEX    C0F16379   4.046   8.652  12.772
    1HEX    O0G16380   4.052   8.508  12.755
    1HEX    C0H16381   3.990   8.442  12.655
    1HEX    O0I16382   3.904   8.491  12.582
    1HEX    C0J16383   4.044   8.300  12.629
    1HEX    C0K16384   4.037   8.195  12.745
    1HEX    C0N16385   4.286   8.604  12.823
    1HEX    O0O16386   4.420   8.638  12.862
    1HEX    C0P16387   4.454   8.713  12.980
    1HEX    C0Q16388   4.414   8.663  13.123
    1HEX    C0R16389   4.476   8.521  13.145
    1HEX    O0S16390   4.616   8.512  13.107
    1HEX    C0T16391   4.720   8.524  13.196
    1HEX    O0U16392   4.707   8.551  13.315
    1HEX    C0V16393   4.859   8.494  13.137
    1HEX    C0W16394   4.958   8.615  13.126
    1HEX    C0Y16395   4.481   8.760  13.223
    1HEX    O0Z16396   4.436   8.725  13.352
    1HEX    C1016397   4.484   8.788  13.458
    1HEX    O1116398   4.570   8.876  13.459
    1HEX    C1216399   4.413   8.740  13.584
    1HEX    C1316400   4.477   8.793  13.712
    1HEX    C1516401   4.258   8.681  13.144
    1HEX    O1616402   4.178   8.613  13.242
    1HEX    C1716403   4.067   8.546  13.196
    1HEX    O1816404   4.067   8.475  13.096
    1HEX    C1916405   3.935   8.575  13.270
    1HEX    C1A16406   3.830   8.640  13.173
    1HEX    H1D16407   4.643   8.510  12.295
    1HEX    H1E16408   4.470   8.491  12.294
    1HEX    H1F16409   4.573   8.724  12.458
    1HEX    H1G16410   4.610   8.565  12.519
    1HEX    H1H16411   4.162   8.648  12.548
    1HEX    H1I16412   4.178   8.819  12.566
    1HEX    H1J16413   4.320   8.874  12.805
    1HEX    H1K16414   4.207   8.833  12.932
    1HEX    H1M16415   4.058   9.249  12.847
    1HEX    H1N16416   4.216   9.244  12.773
    1HEX    H1O16417   4.328   9.308  12.988
    1HEX    H1P16418   4.179   9.294  13.076
    1HEX    H1R16419   3.976   8.699  12.702
    1HEX    H1S16420   4.006   8.672  12.871
    1HEX    H1T16421   4.147   8.311  12.597
    1HEX    H1U16422   3.990   8.260  12.543
    1HEX    H1V16423   3.935   8.181  12.779
    1HEX    H1W16424   4.094   8.229  12.831
    1HEX    H1Y16425   4.298   8.524  12.751
    1HEX    H1Z16426   4.238   8.546  12.902
    1HEX    H2016427   4.428   8.818  12.971
    1HEX    H2116428   4.563   8.715  12.976
    1HEX    H2216429   4.421   8.449  13.086
    1HEX    H2316430   4.463   8.490  13.249
    1HEX    H2416431   4.848   8.444  13.041
    1HEX    H2516432   4.903   8.420  13.204
    1HEX    H2616433   4.959   8.673  13.219
    1HEX    H2716434   4.925   8.683  13.048
    1HEX    H2916435   4.454   8.864  13.204
    1HEX    H2A16436   4.590   8.757  13.218
    1HEX    H2B16437   4.414   8.631  13.582
    1HEX    H2C16438   4.309   8.772  13.577
    1HEX    H2D16439   4.480   8.902  13.715
    1HEX    H2E16440   4.581   8.760  13.720
    1HEX    H2G16441   4.205   8.670  13.051
    1HEX    H2H16442   4.240   8.787  13.165
    1HEX    H2I16443   3.953   8.638  13.358
    1HEX    H2J16444   3.897   8.480  13.307
    1HEX    H2K16445   3.846   8.600  13.073
    1HEX    H2M16446   3.849   8.747  13.165
    1STR    S0016447   4.534   8.690  12.181
    1STR    S0E16448   4.188   9.506  12.966
    1STR    S0M16449   4.105   8.033  12.685
    1STR    S0X16450   5.131   8.561  13.087
    1STR    S1416451   4.383   8.729  13.854
    1STR    S1B16452   3.652   8.616  13.215
    1HEX    C0116453   4.504  12.927  16.662
    1HEX    C0216454   4.535  12.972  16.806
    1HEX    C0316455   4.412  12.949  16.891
    1HEX    O0416456   4.364  12.836  16.900
    1HEX    O0516457   4.359  13.062  16.941
    1HEX    C0616458   4.222  13.064  16.980
    1HEX    C0716459   4.196  13.055  17.133
    1HEX    C0816460   4.219  13.196  17.198
    1HEX    O0916461   4.162  13.323  17.160
    1HEX    C0A16462   4.187  13.431  17.246
    1HEX    O0B16463   4.217  13.417  17.365
    1HEX    C0C16464   4.183  13.572  17.183
    1HEX    C0D16465   4.147  13.691  17.280
    1HEX    C0F16466   4.051  12.997  17.150
    1HEX    O0G16467   4.056  12.853  17.152
    1HEX    C0H16468   4.002  12.773  17.057
    1HEX    O0I16469   3.922  12.810  16.972
    1HEX    C0J16470   4.061  12.631  17.057
    1HEX    C0K16471   3.993  12.526  17.151
    1HEX    C0N16472   4.294  12.952  17.203
    1HEX    O0O16473   4.425  12.992  17.244
    1HEX    C0P16474   4.454  13.069  17.364
    1HEX    C0Q16475   4.412  13.019   0.066
    1HEX    C0R16476   4.472  12.876   0.086
    1HEX    O0S16477   4.612  12.868   0.049
    1HEX    C0T16478   4.713  12.873   0.141
    1HEX    O0U16479   4.698  12.889   0.261
    1HEX    C0V16480   4.855  12.858   0.082
    1HEX    C0W16481   4.934  12.992   0.081
    1HEX    C0Y16482   4.478  13.116   0.168
    1HEX    O0Z16483   4.440  13.088   0.302
    1HEX    C1016484   4.492  13.163   0.400
    1HEX    O1116485   4.576  13.252   0.384
    1HEX    C1216486   4.436  13.130   0.538
    1HEX    C1316487   4.547  13.103   0.643
    1HEX    C1516488   4.255  13.037   0.081
    1HEX    O1616489   4.178  12.990   0.192
    1HEX    C1716490   4.058  12.930   0.165
    1HEX    O1816491   4.039  12.852   0.071
    1HEX    C1916492   3.939  12.975   0.252
    1HEX    C1A16493   3.826  13.036   0.162
    1HEX    H1D16494   4.561  12.838  16.636
    1HEX    H1E16495   4.399  12.898  16.653
    1HEX    H1F16496   4.563  13.077  16.811
    1HEX    H1G16497   4.617  12.914  16.848
    1HEX    H1H16498   4.169  12.984  16.927
    1HEX    H1I16499   4.179  13.155  16.940
    1HEX    H1J16500   4.325  13.217  17.181
    1HEX    H1K16501   4.203  13.185  17.305
    1HEX    H1M16502   4.110  13.568  17.103
    1HEX    H1N16503   4.279  13.591  17.135
    1HEX    H1O16504   4.098  13.650  17.369
    1HEX    H1P16505   4.073  13.756  17.233
    1HEX    H1R16506   3.983  13.034  17.074
    1HEX    H1S16507   4.008  13.029  17.245
    1HEX    H1T16508   4.166  12.641  17.084
    1HEX    H1U16509   4.060  12.594  16.955
    1HEX    H1V16510   3.901  12.487  17.105
    1HEX    H1W16511   3.964  12.571  17.246
    1HEX    H1Y16512   4.311  12.872  17.131
    1HEX    H1Z16513   4.248  12.892  17.281
    1HEX    H2016514   4.426  13.173  17.353
    1HEX    H2116515   4.563  13.074  17.362
    1HEX    H2216516   4.418  12.805   0.024
    1HEX    H2316517   4.457  12.842   0.189
    1HEX    H2416518   4.848  12.815  17.422
    1HEX    H2516519   4.909  12.786   0.143
    1HEX    H2616520   4.943  13.032   0.182
    1HEX    H2716521   4.875  13.065   0.025
    1HEX    H2916522   4.450  13.219   0.145
    1HEX    H2A16523   4.586  13.112   0.160
    1HEX    H2B16524   4.371  13.043   0.529
    1HEX    H2C16525   4.373  13.213   0.568
    1HEX    H2D16526   4.645  13.118   0.597
    1HEX    H2E16527   4.544  12.999   0.676
    1HEX    H2G16528   4.204  13.007  17.432
    1HEX    H2H16529   4.236  13.144   0.083
    1HEX    H2I16530   3.972  13.044   0.329
    1HEX    H2J16531   3.901  12.886   0.302
    1HEX    H2K16532   3.809  12.970   0.078
    1HEX    H2M16533   3.861  13.130   0.120
    1STR    S0016534   4.530  13.055  16.536
    1STR    S0E16535   4.283  13.801  17.343
    1STR    S0M16536   4.107  12.384  17.181
    1STR    S0X16537   5.102  12.990   0.003
    1STR    S1416538   4.540  13.213   0.790
    1STR    S1B16539   3.663  13.068   0.242
    1HEX    C0116540   4.601  12.970   3.599
    1HEX    C0216541   4.561  12.984   3.748
    1HEX    C0316542   4.417  12.952   3.785
    1HEX    O0416543   4.371  12.838   3.773
    1HEX    O0516544   4.354  13.058   3.840
    1HEX    C0616545   4.220  13.046   3.884
    1HEX    C0716546   4.205  13.032   4.038
    1HEX    C0816547   4.207  13.175   4.106
    1HEX    O0916548   4.137  13.296   4.069
    1HEX    C0A16549   4.154  13.404   4.158
    1HEX    O0B16550   4.198  13.389   4.272
    1HEX    C0C16551   4.119  13.548   4.110
    1HEX    C0D16552   4.168  13.657   4.213
    1HEX    C0F16553   4.075  12.945   4.063
    1HEX    O0G16554   4.108  12.804   4.066
    1HEX    C0H16555   4.080  12.718   3.965
    1HEX    O0I16556   3.998  12.739   3.877
    1HEX    C0J16557   4.169  12.591   3.963
    1HEX    C0K16558   4.157  12.493   4.084
    1HEX    C0N16559   4.322  12.945   4.102
    1HEX    O0O16560   4.445  13.006   4.143
    1HEX    C0P16561   4.463  13.075   4.269
    1HEX    C0Q16562   4.417  13.015   4.408
    1HEX    C0R16563   4.476  12.873   4.427
    1HEX    O0S16564   4.617  12.862   4.399
    1HEX    C0T16565   4.710  12.864   4.498
    1HEX    O0U16566   4.687  12.888   4.617
    1HEX    C0V16567   4.851  12.824   4.453
    1HEX    C0W16568   4.949  12.942   4.426
    1HEX    C0Y16569   4.478  13.110   4.514
    1HEX    O0Z16570   4.437  13.075   4.645
    1HEX    C1016571   4.492  13.140   4.749
    1HEX    O1116572   4.580  13.225   4.741
    1HEX    C1216573   4.428  13.101   4.881
    1HEX    C1316574   4.516  13.131   5.004
    1HEX    C1516575   4.261  13.024   4.420
    1HEX    O1616576   4.189  12.965   4.530
    1HEX    C1716577   4.065  12.913   4.506
    1HEX    O1816578   4.027  12.867   4.398
    1HEX    C1916579   3.967  12.921   4.624
    1HEX    C1A16580   3.835  12.997   4.588
    1HEX    H1D16581   4.659  12.878   3.587
    1HEX    H1E16582   4.667  13.052   3.571
    1HEX    H1F16583   4.581  13.086   3.781
    1HEX    H1G16584   4.624  12.919   3.809
    1HEX    H1H16585   4.171  12.964   3.831
    1HEX    H1I16586   4.166  13.135   3.850
    1HEX    H1J16587   4.310  13.208   4.095
    1HEX    H1K16588   4.185  13.159   4.210
    1HEX    H1M16589   4.012  13.555   4.093
    1HEX    H1N16590   4.168  13.564   4.014
    1HEX    H1O16591   4.277  13.654   4.217
    1HEX    H1P16592   4.136  13.629   4.313
    1HEX    H1R16593   3.996  12.967   3.991
    1HEX    H1S16594   4.031  12.970   4.160
    1HEX    H1T16595   4.272  12.626   3.953
    1HEX    H1U16596   4.148  12.538   3.871
    1HEX    H1V16597   4.062  12.439   4.078
    1HEX    H1W16598   4.155  12.548   4.178
    1HEX    H1Y16599   4.350  12.871   4.028
    1HEX    H1Z16600   4.290  12.879   4.182
    1HEX    H2016601   4.427  13.177   4.262
    1HEX    H2116602   4.571  13.087   4.274
    1HEX    H2216603   4.425  12.803   4.360
    1HEX    H2316604   4.454  12.837   4.528
    1HEX    H2416605   4.845  12.757   4.367
    1HEX    H2516606   4.890  12.764   4.535
    1HEX    H2616607   4.914  13.034   4.473
    1HEX    H2716608   4.954  12.961   4.319
    1HEX    H2916609   4.449  13.214   4.496
    1HEX    H2A16610   4.587  13.109   4.509
    1HEX    H2B16611   4.402  12.995   4.878
    1HEX    H2C16612   4.335  13.156   4.886
    1HEX    H2D16613   4.574  13.223   4.991
    1HEX    H2E16614   4.589  13.052   5.019
    1HEX    H2G16615   4.215  12.989   4.330
    1HEX    H2H16616   4.234  13.130   4.424
    1HEX    H2I16617   4.018  12.972   4.705
    1HEX    H2J16618   3.945  12.820   4.659
    1HEX    H2K16619   3.847  13.049   4.493
    1HEX    H2M16620   3.814  13.074   4.661
    1STR    S0016621   4.468  12.962   3.474
    1STR    S0E16622   4.114  13.835   4.194
    1STR    S0M16623   4.295  12.368   4.090
    1STR    S0X16624   5.118  12.904   4.489
    1STR    S1416625   4.410  13.152   5.151
    1STR    S1B16626   3.685  12.892   4.572
    1HEX    C0116627   4.629  12.914   8.014
    1HEX    C0216628   4.576  13.018   8.115
    1HEX    C0316629   4.431  12.996   8.156
    1HEX    O0416630   4.378  12.886   8.145
    1HEX    O0516631   4.374  13.106   8.208
    1HEX    C0616632   4.234  13.106   8.235
    1HEX    C0716633   4.197  13.083   8.385
    1HEX    C0816634   4.215  13.217   8.465
    1HEX    O0916635   4.164  13.350   8.437
    1HEX    C0A16636   4.191  13.446   8.535
    1HEX    O0B16637   4.222  13.417   8.650
    1HEX    C0C16638   4.185  13.596   8.495
    1HEX    C0D16639   4.257  13.690   8.600
    1HEX    C0F16640   4.052  13.023   8.388
    1HEX    O0G16641   4.056  12.880   8.365
    1HEX    C0H16642   4.018  12.824   8.248
    1HEX    O0I16643   3.958  12.884   8.159
    1HEX    C0J16644   4.061  12.677   8.228
    1HEX    C0K16645   4.069  12.589   8.356
    1HEX    C0N16646   4.289  12.972   8.452
    1HEX    O0O16647   4.421  13.003   8.502
    1HEX    C0P16648   4.451  13.076   8.623
    1HEX    C0Q16649   4.409  13.026   8.765
    1HEX    C0R16650   4.474  12.886   8.789
    1HEX    O0S16651   4.616  12.881   8.754
    1HEX    C0T16652   4.717  12.895   8.846
    1HEX    O0U16653   4.701  12.918   8.966
    1HEX    C0V16654   4.859  12.875   8.789
    1HEX    C0W16655   4.956  12.998   8.803
    1HEX    C0Y16656   4.469  13.124   8.867
    1HEX    O0Z16657   4.431  13.086   8.998
    1HEX    C1016658   4.483  13.149   9.102
    1HEX    O1116659   4.563  13.242   9.097
    1HEX    C1216660   4.433  13.092   9.234
    1HEX    C1316661   4.535  13.112   9.346
    1HEX    C1516662   4.252  13.041   8.776
    1HEX    O1616663   4.169  12.992   8.883
    1HEX    C1716664   4.052  12.929   8.847
    1HEX    O1816665   4.045  12.843   8.760
    1HEX    C1916666   3.923  12.982   8.914
    1HEX    C1A16667   3.823  13.035   8.806
    1HEX    H1D16668   4.737  12.905   8.025
    1HEX    H1E16669   4.590  12.816   8.040
    1HEX    H1F16670   4.589  13.120   8.078
    1HEX    H1G16671   4.633  13.011   8.208
    1HEX    H1H16672   4.185  13.033   8.171
    1HEX    H1I16673   4.193  13.201   8.202
    1HEX    H1J16674   4.321  13.238   8.456
    1HEX    H1K16675   4.191  13.195   8.568
    1HEX    H1M16676   4.080  13.624   8.483
    1HEX    H1N16677   4.232  13.608   8.397
    1HEX    H1O16678   4.364  13.671   8.598
    1HEX    H1P16679   4.226  13.662   8.700
    1HEX    H1R16680   3.986  13.074   8.318
    1HEX    H1S16681   4.006  13.038   8.486
    1HEX    H1T16682   4.158  12.679   8.179
    1HEX    H1U16683   3.992  12.633   8.157
    1HEX    H1V16684   3.979  12.602   8.416
    1HEX    H1W16685   4.153  12.621   8.418
    1HEX    H1Y16686   4.306  12.897   8.376
    1HEX    H1Z16687   4.235  12.908   8.522
    1HEX    H2016688   4.428  13.182   8.616
    1HEX    H2116689   4.560  13.078   8.621
    1HEX    H2216690   4.423  12.811   8.728
    1HEX    H2316691   4.460  12.854   8.893
    1HEX    H2416692   4.852  12.843   8.685
    1HEX    H2516693   4.902  12.791   8.843
    1HEX    H2616694   4.961  13.029   8.908
    1HEX    H2716695   4.916  13.083   8.749
    1HEX    H2916696   4.436  13.227   8.850
    1HEX    H2A16697   4.578  13.127   8.860
    1HEX    H2B16698   4.414  12.986   9.219
    1HEX    H2C16699   4.338  13.140   9.259
    1HEX    H2D16700   4.543  13.218   9.372
    1HEX    H2E16701   4.634  13.082   9.312
    1HEX    H2G16702   4.205  13.010   8.686
    1HEX    H2H16703   4.231  13.148   8.778
    1HEX    H2I16704   3.947  13.058   8.988
    1HEX    H2J16705   3.879  12.898   8.967
    1HEX    H2K16706   3.830  12.973   8.716
    1HEX    H2M16707   3.851  13.135   8.775
    1STR    S0016708   4.597  12.942   7.835
    1STR    S0E16709   4.229  13.874   8.592
    1STR    S0M16710   4.085  12.409   8.316
    1STR    S0X16711   5.128  12.965   8.742
    1STR    S1416712   4.492  13.014   9.493
    1STR    S1B16713   3.644  13.039   8.851
    1HEX    C0116714   4.581  12.882  12.349
    1HEX    C0216715   4.560  12.933  12.493
    1HEX    C0316716   4.416  12.916  12.540
    1HEX    O0416717   4.364  12.804  12.540
    1HEX    O0516718   4.359  13.030  12.583
    1HEX    C0616719   4.223  13.029  12.625
    1HEX    C0716720   4.205  13.029  12.779
    1HEX    C0816721   4.225  13.174  12.836
    1HEX    O0916722   4.156  13.296  12.802
    1HEX    C0A16723   4.167  13.400  12.894
    1HEX    O0B16724   4.183  13.383  13.015
    1HEX    C0C16725   4.167  13.544  12.836
    1HEX    C0D16726   4.153  13.660  12.941
    1HEX    C0F16727   4.064  12.964  12.809
    1HEX    O0G16728   4.076  12.821  12.824
    1HEX    C0H16729   4.031  12.732  12.733
    1HEX    O0I16730   3.957  12.761  12.639
    1HEX    C0J16731   4.087  12.589  12.748
    1HEX    C0K16732   4.070  12.519  12.887
    1HEX    C0N16733   4.310  12.935  12.852
    1HEX    O0O16734   4.439  12.987  12.889
    1HEX    C0P16735   4.463  13.066  13.008
    1HEX    C0Q16736   4.416  13.019  13.150
    1HEX    C0R16737   4.467  12.875  13.174
    1HEX    O0S16738   4.607  12.859  13.142
    1HEX    C0T16739   4.705  12.866  13.236
    1HEX    O0U16740   4.687  12.890  13.355
    1HEX    C0V16741   4.844  12.833  13.181
    1HEX    C0W16742   4.935  12.956  13.150
    1HEX    C0Y16743   4.482  13.115  13.253
    1HEX    O0Z16744   4.439  13.084  13.385
    1HEX    C1016745   4.486  13.155  13.488
    1HEX    O1116746   4.568  13.247  13.479
    1HEX    C1216747   4.424  13.115  13.622
    1HEX    C1316748   4.523  13.120  13.741
    1HEX    C1516749   4.261  13.039  13.163
    1HEX    O1616750   4.187  12.983  13.271
    1HEX    C1716751   4.072  12.917  13.241
    1HEX    O1816752   4.056  12.845  13.143
    1HEX    C1916753   3.955  12.949  13.334
    1HEX    C1A16754   3.845  13.033  13.263
    1HEX    H1D16755   4.667  12.817  12.345
    1HEX    H1E16756   4.496  12.822  12.315
    1HEX    H1F16757   4.590  13.037  12.505
    1HEX    H1G16758   4.621  12.875  12.562
    1HEX    H1H16759   4.171  12.945  12.579
    1HEX    H1I16760   4.175  13.117  12.582
    1HEX    H1J16761   4.328  13.200  12.811
    1HEX    H1K16762   4.218  13.166  12.942
    1HEX    H1M16763   4.087  13.550  12.762
    1HEX    H1N16764   4.260  13.555  12.781
    1HEX    H1O16765   4.145  13.622  13.043
    1HEX    H1P16766   4.059  13.713  12.924
    1HEX    H1R16767   3.990  12.991  12.734
    1HEX    H1S16768   4.024  13.003  12.903
    1HEX    H1T16769   4.193  12.594  12.722
    1HEX    H1U16770   4.041  12.528  12.671
    1HEX    H1V16771   3.965  12.515  12.915
    1HEX    H1W16772   4.121  12.576  12.965
    1HEX    H1Y16773   4.330  12.852  12.784
    1HEX    H1Z16774   4.270  12.880  12.936
    1HEX    H2016775   4.434  13.170  12.993
    1HEX    H2116776   4.572  13.073  13.009
    1HEX    H2216777   4.411  12.805  13.112
    1HEX    H2316778   4.447  12.844  13.277
    1HEX    H2416779   4.832  12.771  13.092
    1HEX    H2516780   4.892  12.770  13.256
    1HEX    H2616781   4.882  13.050  13.167
    1HEX    H2716782   4.961  12.954  13.044
    1HEX    H2916783   4.456  13.219  13.232
    1HEX    H2A16784   4.591  13.110  13.249
    1HEX    H2B16785   4.382  13.015  13.612
    1HEX    H2C16786   4.341  13.183  13.638
    1HEX    H2D16787   4.615  13.170  13.711
    1HEX    H2E16788   4.552  13.019  13.771
    1HEX    H2G16789   4.211  13.010  13.073
    1HEX    H2H16790   4.241  13.147  13.169
    1HEX    H2I16791   3.992  13.000  13.423
    1HEX    H2J16792   3.915  12.853  13.368
    1HEX    H2K16793   3.864  13.041  13.156
    1HEX    H2M16794   3.845  13.135  13.301
    1STR    S0016795   4.609  13.020  12.233
    1STR    S0E16796   4.290  13.785  12.942
    1STR    S0M16797   4.137  12.346  12.882
    1STR    S0X16798   5.090  12.956  13.249
    1STR    S1416799   4.457  13.211  13.885
    1STR    S1B16800   3.678  12.964  13.285
    1HEX    C0116801   8.978  17.298  16.758
    1HEX    C0216802   8.909  17.275  16.895
    1HEX    C0316803   8.757  17.289  16.892
    1HEX    O0416804   8.686  17.192  16.864
    1HEX    O0516805   8.716  17.411  16.933
    1HEX    C0616806   8.578  17.432  16.962
    1HEX    C0716807   8.550  17.426  17.115
    1HEX    C0816808   8.578   0.125  17.181
    1HEX    O0916809   8.513   0.252  17.156
    1HEX    C0A16810   8.529   0.351  17.254
    1HEX    O0B16811   8.562   0.326  17.370
    1HEX    C0C16812   8.511   0.499  17.211
    1HEX    C0D16813   8.548   0.599  17.327
    1HEX    C0F16814   8.403  17.374  17.134
    1HEX    O0G16815   8.404  17.230  17.126
    1HEX    C0H16816   8.342  17.161  17.030
    1HEX    O0I16817   8.254  17.205  16.957
    1HEX    C0J16818   8.399  17.019  17.011
    1HEX    C0K16819   8.400  16.926  17.136
    1HEX    C0N16820   8.642  17.316  17.185
    1HEX    O0O16821   8.778  17.348  17.221
    1HEX    C0P16822   8.814  17.425  17.337
    1HEX    C0Q16823   8.775  17.378   0.041
    1HEX    C0R16824   8.834  17.235   0.064
    1HEX    O0S16825   8.974  17.222   0.028
    1HEX    C0T16826   9.075  17.232   0.120
    1HEX    O0U16827   9.061  17.262   0.238
    1HEX    C0V16828   9.214  17.193   0.066
    1HEX    C0W16829   9.316  17.310   0.044
    1HEX    C0Y16830   8.844   0.035   0.140
    1HEX    O0Z16831   8.801   0.004   0.271
    1HEX    C1016832   8.852   0.070   0.375
    1HEX    O1116833   8.940   0.155   0.370
    1HEX    C1216834   8.781   0.032   0.504
    1HEX    C1316835   8.858   0.072   0.630
    1HEX    C1516836   8.620  17.397   0.064
    1HEX    O1616837   8.545  17.326   0.164
    1HEX    C1716838   8.426  17.269   0.125
    1HEX    O1816839   8.408  17.213   0.017
    1HEX    C1916840   8.309  17.288   0.223
    1HEX    C1A16841   8.185  17.355   0.156
    1HEX    H1D16842   8.934  17.199  16.742
    1HEX    H1E16843   8.929  17.394  16.742
    1HEX    H1F16844   8.946  17.349  16.966
    1HEX    H1G16845   8.933  17.179  16.939
    1HEX    H1H16846   8.517  17.360  16.907
    1HEX    H1I16847   8.548   0.089  16.922
    1HEX    H1J16848   8.682   0.148  17.158
    1HEX    H1K16849   8.571   0.109  17.288
    1HEX    H1M16850   8.408   0.513  17.178
    1HEX    H1N16851   8.575   0.517  17.125
    1HEX    H1O16852   8.652   0.585  17.356
    1HEX    H1P16853   8.490   0.575  17.416
    1HEX    H1R16854   8.334  17.419  17.062
    1HEX    H1S16855   8.365  17.401  17.233
    1HEX    H1T16856   8.501  17.035  16.976
    1HEX    H1U16857   8.347  16.971  16.928
    1HEX    H1V16858   8.305  16.872  17.143
    1HEX    H1W16859   8.411  16.982  17.228
    1HEX    H1Y16860   8.650  17.233  17.116
    1HEX    H1Z16861   8.594  17.262  17.266
    1HEX    H2016862   8.790   0.090  17.327
    1HEX    H2116863   8.923  17.426  17.332
    1HEX    H2216864   8.778  17.163   0.004
    1HEX    H2316865   8.818  17.204   0.168
    1HEX    H2416866   9.203  17.134  17.415
    1HEX    H2516867   9.256  17.126   0.141
    1HEX    H2616868   9.309  17.383   0.125
    1HEX    H2716869   9.293  17.363  17.392
    1HEX    H2916870   8.818   0.139   0.119
    1HEX    H2A16871   8.953   0.030   0.134
    1HEX    H2B16872   8.764  17.365   0.502
    1HEX    H2C16873   8.683   0.080   0.501
    1HEX    H2D16874   8.891   0.176   0.628
    1HEX    H2E16875   8.949   0.011   0.640
    1HEX    H2G16876   8.565  17.389  17.413
    1HEX    H2H16877   8.603   0.062   0.088
    1HEX    H2I16878   8.344  17.346   0.309
    1HEX    H2J16879   8.284  17.189   0.261
    1HEX    H2K16880   8.202  17.367   0.049
    1HEX    H2M16881   8.168   0.015   0.195
    1STR    S0016882   8.945  17.260  16.583
    1STR    S0E16883   8.522   0.780  17.295
    1STR    S0M16884   8.537  16.805  17.119
    1STR    S0X16885   9.489  17.247   0.035
    1STR    S1416886   8.749   0.045   0.773
    1STR    S1B16887   8.030  17.258   0.174
    1HEX    C0116888   8.970  17.328   3.702
    1HEX    C0216889   8.903  17.375   3.832
    1HEX    C0316890   8.754  17.350   3.832
    1HEX    O0416891   8.709  17.239   3.803
    1HEX    O0516892   8.685   0.015   3.876
    1HEX    C0616893   8.548  -0.000   3.909
    1HEX    C0716894   8.529  17.425   4.062
    1HEX    C0816895   8.550   0.126   4.131
    1HEX    O0916896   8.508   0.258   4.088
    1HEX    C0A16897   8.546   0.365   4.171
    1HEX    O0B16898   8.576   0.351   4.289
    1HEX    C0C16899   8.558   0.505   4.105
    1HEX    C0D16900   8.522   0.631   4.193
    1HEX    C0F16901   8.387  17.360   4.084
    1HEX    O0G16902   8.398  17.216   4.090
    1HEX    C0H16903   8.349  17.131   3.996
    1HEX    O0I16904   8.267  17.161   3.910
    1HEX    C0J16905   8.415  16.992   3.999
    1HEX    C0K16906   8.350  16.884   4.091
    1HEX    C0N16907   8.633  17.322   4.124
    1HEX    O0O16908   8.767  17.361   4.158
    1HEX    C0P16909   8.805  17.435   4.277
    1HEX    C0Q16910   8.767  17.389   4.422
    1HEX    C0R16911   8.824  17.246   4.445
    1HEX    O0S16912   8.963  17.235   4.403
    1HEX    C0T16913   9.068  17.241   4.491
    1HEX    O0U16914   9.058  17.253   4.612
    1HEX    C0V16915   9.207  17.229   4.424
    1HEX    C0W16916   9.321  17.308   4.496
    1HEX    C0Y16917   8.839   0.046   4.519
    1HEX    O0Z16918   8.808   0.020   4.655
    1HEX    C1016919   8.870   0.093   4.749
    1HEX    O1116920   8.954   0.180   4.727
    1HEX    C1216921   8.822   0.061   4.891
    1HEX    C1316922   8.934   0.073   4.997
    1HEX    C1516923   8.612  17.413   4.441
    1HEX    O1616924   8.533  17.369   4.552
    1HEX    C1716925   8.410  17.314   4.523
    1HEX    O1816926   8.392  17.229   4.436
    1HEX    C1916927   8.289  17.374   4.598
    1HEX    C1A16928   8.164  17.382   4.505
    1HEX    H1D16929   9.074  17.306   3.721
    1HEX    H1E16930   8.922  17.237   3.665
    1HEX    H1F16931   8.924   0.040   3.852
    1HEX    H1G16932   8.942  17.318   3.916
    1HEX    H1H16933   8.504  17.356   3.855
    1HEX    H1I16934   8.495   0.087   3.872
    1HEX    H1J16935   8.657   0.142   4.119
    1HEX    H1K16936   8.526   0.118   4.236
    1HEX    H1M16937   8.490   0.502   4.019
    1HEX    H1N16938   8.658   0.515   4.063
    1HEX    H1O16939   8.453   0.598   4.271
    1HEX    H1P16940   8.466   0.703   4.134
    1HEX    H1R16941   8.315  17.391   4.008
    1HEX    H1S16942   8.344  17.392   4.179
    1HEX    H1T16943   8.519  17.007   4.029
    1HEX    H1U16944   8.419  16.954   3.897
    1HEX    H1V16945   8.257  16.846   4.047
    1HEX    H1W16946   8.324  16.926   4.188
    1HEX    H1Y16947   8.645  17.244   4.049
    1HEX    H1Z16948   8.593  17.260   4.205
    1HEX    H2016949   8.783   0.101   4.268
    1HEX    H2116950   8.914  17.435   4.270
    1HEX    H2216951   8.766  17.174   4.387
    1HEX    H2316952   8.812  17.216   4.549
    1HEX    H2416953   9.197  17.263   4.321
    1HEX    H2516954   9.233  17.123   4.419
    1HEX    H2616955   9.284  17.405   4.528
    1HEX    H2716956   9.349  17.256   4.587
    1HEX    H2916957   8.812   0.150   4.497
    1HEX    H2A16958   8.947   0.041   4.505
    1HEX    H2B16959   8.779  17.401   4.892
    1HEX    H2C16960   8.741   0.130   4.911
    1HEX    H2D16961   9.021   0.125   4.956
    1HEX    H2E16962   8.970  17.414   5.026
    1HEX    H2G16963   8.558  17.384   4.353
    1HEX    H2H16964   8.597   0.081   4.442
    1HEX    H2I16965   8.317   0.033   4.634
    1HEX    H2J16966   8.268  17.313   4.685
    1HEX    H2K16967   8.124  17.281   4.491
    1HEX    H2M16968   8.194  17.414   4.405
    1STR    S0016969   8.964   0.013   3.570
    1STR    S0E16970   8.655   0.727   4.282
    1STR    S0M16971   8.465  16.741   4.115
    1STR    S0X16972   9.472  17.336   4.393
    1STR    S1416973   8.881   0.166   5.146
    1STR    S1B16974   8.027   0.055   4.556
    1HEX    C0116975   8.963  17.285   7.970
    1HEX    C0216976   8.929  17.340   8.110
    1HEX    C0316977   8.790  17.304   8.159
    1HEX    O0416978   8.748  17.188   8.153
    1HEX    O0516979   8.725  17.410   8.209
    1HEX    C0616980   8.589  17.398   8.248
    1HEX    C0716981   8.569  17.384   8.402
    1HEX    C0816982   8.568   0.087   8.468
    1HEX    O0916983   8.508   0.209   8.420
    1HEX    C0A16984   8.523   0.320   8.504
    1HEX    O0B16985   8.555   0.310   8.622
    1HEX    C0C16986   8.505   0.461   8.442
    1HEX    C0D16987   8.552   0.574   8.541
    1HEX    C0F16988   8.438  17.300   8.423
    1HEX    O0G16989   8.470  17.158   8.420
    1HEX    C0H16990   8.440  17.077   8.317
    1HEX    O0I16991   8.357  17.103   8.230
    1HEX    C0J16992   8.525  16.948   8.309
    1HEX    C0K16993   8.516  16.849   8.429
    1HEX    C0N16994   8.683  17.298   8.472
    1HEX    O0O16995   8.807  17.358   8.514
    1HEX    C0P16996   8.825  17.431   8.638
    1HEX    C0Q16997   8.779  17.376   8.777
    1HEX    C0R16998   8.836  17.233   8.798
    1HEX    O0S16999   8.977  17.223   8.771
    1HEX    C0T17000   9.070  17.225   8.871
    1HEX    O0U17001   9.046  17.246   8.989
    1HEX    C0V17002   9.212  17.193   8.824
    1HEX    C0W17003   9.299  17.316   8.785
    1HEX    C0Y17004   8.839   0.030   8.884
    1HEX    O0Z17005   8.798  17.434   9.015
    1HEX    C1017006   8.852   0.059   9.119
    1HEX    O1117007   8.937   0.147   9.111
    1HEX    C1217008   8.791   0.016   9.253
    1HEX    C1317009   8.881   0.047   9.375
    1HEX    C1517010   8.623  17.387   8.787
    1HEX    O1617011   8.552  17.340   8.903
    1HEX    C1717012   8.427  17.288   8.885
    1HEX    O1817013   8.388  17.231   8.783
    1HEX    C1917014   8.330  17.311   9.002
    1HEX    C1A17015   8.206  17.394   8.957
    1HEX    H1D17016   8.974  17.177   7.975
    1HEX    H1E17017   9.057  17.327   7.935
    1HEX    H1F17018   8.939   0.008   8.112
    1HEX    H1G17019   9.000  17.301   8.184
    1HEX    H1H17020   8.543  17.314   8.195
    1HEX    H1I17021   8.536   0.046   8.212
    1HEX    H1J17022   8.672   0.118   8.465
    1HEX    H1K17023   8.538   0.075   8.571
    1HEX    H1M17024   8.401   0.474   8.414
    1HEX    H1N17025   8.564   0.465   8.351
    1HEX    H1O17026   8.657   0.560   8.565
    1HEX    H1P17027   8.500   0.562   8.637
    1HEX    H1R17028   8.360  17.325   8.351
    1HEX    H1S17029   8.394  17.320   8.521
    1HEX    H1T17030   8.628  16.981   8.295
    1HEX    H1U17031   8.499  16.896   8.217
    1HEX    H1V17032   8.420  16.798   8.427
    1HEX    H1W17033   8.519  16.903   8.524
    1HEX    H1Y17034   8.713  17.222   8.400
    1HEX    H1Z17035   8.647  17.234   8.552
    1HEX    H2017036   8.791   0.094   8.628
    1HEX    H2117037   8.933   0.002   8.642
    1HEX    H2217038   8.786  17.163   8.731
    1HEX    H2317039   8.813  17.198   8.899
    1HEX    H2417040   9.207  17.122   8.742
    1HEX    H2517041   9.260  17.140   8.907
    1HEX    H2617042   9.244  17.409   8.803
    1HEX    H2717043   9.319  17.314   8.678
    1HEX    H2917044   8.809   0.134   8.866
    1HEX    H2A17045   8.948   0.030   8.879
    1HEX    H2B17046   8.768  17.349   9.249
    1HEX    H2C17047   8.697   0.069   9.260
    1HEX    H2D17048   8.946   0.132   9.354
    1HEX    H2E17049   8.947  17.403   9.398
    1HEX    H2G17050   8.576  17.344   8.700
    1HEX    H2H17051   8.597   0.053   8.782
    1HEX    H2I17052   8.382  17.359   9.084
    1HEX    H2J17053   8.299  17.212   9.037
    1HEX    H2K17054   8.205  17.402   8.848
    1HEX    H2M17055   8.211   0.056   8.994
    1STR    S0017056   8.836  17.320   7.843
    1STR    S0E17057   8.526   0.750   8.491
    1STR    S0M17058   8.652  16.722   8.428
    1STR    S0X17059   9.457  17.325   8.878
    1STR    S1417060   8.781   0.093   9.521
    1STR    S1B17061   8.045  17.320   9.004
    1HEX    C0117062   8.940  17.298  12.322
    1HEX    C0217063   8.925  17.353  12.465
    1HEX    C0317064   8.783  17.337  12.517
    1HEX    O0417065   8.726  17.228  12.511
    1HEX    O0517066   8.732   0.011  12.568
    1HEX    C0617067   8.592   0.018  12.595
    1HEX    C0717068   8.554   0.000  12.745
    1HEX    C0817069   8.575   0.136  12.823
    1HEX    O0917070   8.520   0.267  12.799
    1HEX    C0A17071   8.544   0.362  12.900
    1HEX    O0B17072   8.576   0.331  13.015
    1HEX    C0C17073   8.535   0.513  12.864
    1HEX    C0D17074   8.599   0.607  12.975
    1HEX    C0F17075   8.408  17.384  12.748
    1HEX    O0G17076   8.409  17.240  12.729
    1HEX    C0H17077   8.373  17.181  12.612
    1HEX    O0I17078   8.314  17.239  12.521
    1HEX    C0J17079   8.417  17.034  12.597
    1HEX    C0K17080   8.406  16.947  12.725
    1HEX    C0N17081   8.643  17.328  12.815
    1HEX    O0O17082   8.777  17.357  12.859
    1HEX    C0P17083   8.812  17.433  12.977
    1HEX    C0Q17084   8.772  17.385  13.121
    1HEX    C0R17085   8.836  17.244  13.145
    1HEX    O0S17086   8.977  17.237  13.107
    1HEX    C0T17087   9.080  17.250  13.197
    1HEX    O0U17088   9.066  17.275  13.317
    1HEX    C0V17089   9.221  17.226  13.139
    1HEX    C0W17090   9.318  17.348  13.137
    1HEX    C0Y17091   8.837   0.043  13.221
    1HEX    O0Z17092   8.793   0.005  13.349
    1HEX    C1017093   8.842   0.064  13.457
    1HEX    O1117094   8.928   0.151  13.460
    1HEX    C1217095   8.775   0.009  13.582
    1HEX    C1317096   8.841   0.058  13.711
    1HEX    C1517097   8.616  17.402  13.138
    1HEX    O1617098   8.535  17.342  13.241
    1HEX    C1717099   8.423  17.275  13.199
    1HEX    O1817100   8.423  17.193  13.107
    1HEX    C1917101   8.290  17.316  13.266
    1HEX    C1A17102   8.188  17.368  13.159
    1HEX    H1D17103   9.041  17.261  12.307
    1HEX    H1E17104   8.874  17.212  12.307
    1HEX    H1F17105   8.955   0.017  12.471
    1HEX    H1G17106   8.988  17.297  12.534
    1HEX    H1H17107   8.540  17.385  12.532
    1HEX    H1I17108   8.556   0.114  12.559
    1HEX    H1J17109   8.681   0.157  12.809
    1HEX    H1K17110   8.557   0.113  12.927
    1HEX    H1M17111   8.430   0.538  12.849
    1HEX    H1N17112   8.585   0.529  12.769
    1HEX    H1O17113   8.707   0.589  12.978
    1HEX    H1P17114   8.563   0.576  13.073
    1HEX    H1R17115   8.343  17.434  12.675
    1HEX    H1S17116   8.361  17.402  12.845
    1HEX    H1T17117   8.520  17.034  12.561
    1HEX    H1U17118   8.356  16.991  12.518
    1HEX    H1V17119   8.311  16.966  12.775
    1HEX    H1W17120   8.484  16.974  12.796
    1HEX    H1Y17121   8.656  17.249  12.742
    1HEX    H1Z17122   8.588  17.270  12.889
    1HEX    H2017123   8.788   0.098  12.969
    1HEX    H2117124   8.921  17.434  12.973
    1HEX    H2217125   8.782  17.170  13.085
    1HEX    H2317126   8.823  17.213  13.249
    1HEX    H2417127   9.210  17.183  13.039
    1HEX    H2517128   9.265  17.148  13.201
    1HEX    H2617129   9.321  17.396  13.236
    1HEX    H2717130   9.281  17.424  13.068
    1HEX    H2917131   8.808   0.147  13.202
    1HEX    H2A17132   8.946   0.041  13.216
    1HEX    H2B17133   8.779  17.340  13.575
    1HEX    H2C17134   8.670   0.038  13.579
    1HEX    H2D17135   8.831   0.166  13.720
    1HEX    H2E17136   8.948   0.036  13.711
    1HEX    H2G17137   8.565  17.384  13.046
    1HEX    H2H17138   8.597   0.069  13.152
    1HEX    H2I17139   8.308  17.390  13.344
    1HEX    H2J17140   8.249  17.227  13.314
    1HEX    H2K17141   8.203  17.312  13.067
    1HEX    H2M17142   8.211   0.032  13.133
    1STR    S0017143   8.903  17.419  12.191
    1STR    S0E17144   8.570   0.791  12.967
    1STR    S0M17145   8.414  16.766  12.688
    1STR    S0X17146   9.490  17.303  13.087
    1STR    S1417147   8.761  17.413  13.851
    1STR    S1B17148   8.008  17.359  13.200
    1HEX    C0117149   8.892   4.198  16.665
    1HEX    C0217150   8.898   4.254  16.809
    1HEX    C0317151   8.768   4.226  16.884
    1HEX    O0417152   8.723   4.111  16.889
    1HEX    O0517153   8.713   4.336  16.938
    1HEX    C0617154   8.578   4.331  16.983
    1HEX    C0717155   8.559   4.325  17.137
    1HEX    C0817156   8.581   4.467  17.200
    1HEX    O0917157   8.517   4.592  17.164
    1HEX    C0A17158   8.540   4.699  17.251
    1HEX    O0B17159   8.572   4.685  17.369
    1HEX    C0C17160   8.530   4.840  17.190
    1HEX    C0D17161   8.499   4.958  17.291
    1HEX    C0F17162   8.417   4.262  17.162
    1HEX    O0G17163   8.426   4.118  17.169
    1HEX    C0H17164   8.373   4.034  17.078
    1HEX    O0I17165   8.292   4.065  16.991
    1HEX    C0J17166   8.433   3.892  17.085
    1HEX    C0K17167   8.374   3.796  17.192
    1HEX    C0N17168   8.663   4.225  17.205
    1HEX    O0O17169   8.793   4.272  17.246
    1HEX    C0P17170   8.819   4.350  17.365
    1HEX    C0Q17171   8.778   4.300   0.068
    1HEX    C0R17172   8.842   4.159   0.090
    1HEX    O0S17173   8.984   4.156   0.060
    1HEX    C0T17174   9.080   4.163   0.158
    1HEX    O0U17175   9.056   4.181   0.277
    1HEX    C0V17176   9.225   4.140   0.111
    1HEX    C0W17177   9.287   4.246   0.016
    1HEX    C0Y17178   8.840   4.399   0.171
    1HEX    O0Z17179   8.800   4.369   0.304
    1HEX    C1017180   8.848   4.443   0.404
    1HEX    O1117181   8.930   4.534   0.392
    1HEX    C1217182   8.789   4.405   0.540
    1HEX    C1317183   8.895   4.392   0.652
    1HEX    C1517184   8.621   4.313   0.083
    1HEX    O1617185   8.545   4.258   0.191
    1HEX    C1717186   8.428   4.194   0.160
    1HEX    O1817187   8.413   4.121   0.062
    1HEX    C1917188   8.307   4.227   0.250
    1HEX    C1A17189   8.193   4.294   0.167
    1HEX    H1D17190   8.975   4.130  16.647
    1HEX    H1E17191   8.802   4.138  16.650
    1HEX    H1F17192   8.918   4.361  16.810
    1HEX    H1G17193   8.978   4.205  16.865
    1HEX    H1H17194   8.526   4.248  16.934
    1HEX    H1I17195   8.528   4.420  16.943
    1HEX    H1J17196   8.685   4.491  17.179
    1HEX    H1K17197   8.568   4.456  17.306
    1HEX    H1M17198   8.451   4.837  17.115
    1HEX    H1N17199   8.622   4.860  17.137
    1HEX    H1O17200   8.464   4.916  17.386
    1HEX    H1P17201   8.417   5.018  17.254
    1HEX    H1R17202   8.344   4.294  17.086
    1HEX    H1S17203   8.375   4.297  17.257
    1HEX    H1T17204   8.540   3.905  17.102
    1HEX    H1U17205   8.424   3.847  16.986
    1HEX    H1V17206   8.273   3.764  17.165
    1HEX    H1W17207   8.366   3.845  17.289
    1HEX    H1Y17208   8.683   4.147  17.132
    1HEX    H1Z17209   8.621   4.164  17.285
    1HEX    H2017210   8.788   4.453  17.354
    1HEX    H2117211   8.928   4.358  17.364
    1HEX    H2217212   8.793   4.087   0.025
    1HEX    H2317213   8.822   4.124   0.192
    1HEX    H2417214   9.226   4.043   0.062
    1HEX    H2517215   9.288   4.128   0.199
    1HEX    H2617216   9.208   4.316  17.427
    1HEX    H2717217   9.319   4.198  17.363
    1HEX    H2917218   8.811   4.501   0.148
    1HEX    H2A17219   8.949   4.398   0.165
    1HEX    H2B17220   8.734   4.312   0.530
    1HEX    H2C17221   8.715   4.482   0.565
    1HEX    H2D17222   8.993   4.419   0.613
    1HEX    H2E17223   8.903   4.289   0.686
    1HEX    H2G17224   8.571   4.285  17.432
    1HEX    H2H17225   8.599   4.420   0.089
    1HEX    H2I17226   8.338   4.289   0.334
    1HEX    H2J17227   8.272   4.132   0.291
    1HEX    H2K17228   8.180   4.241   0.072
    1HEX    H2M17229   8.221   4.396   0.141
    1STR    S0017230   8.891   4.326  16.536
    1STR    S0E17231   8.638   5.073  17.333
    1STR    S0M17232   8.480   3.645  17.209
    1STR    S0X17233   9.428   4.349   0.078
    1STR    S1417234   8.864   4.501   0.796
    1STR    S1B17235   8.028   4.301   0.248
    1HEX    C0117236   8.956   4.273   3.599
    1HEX    C0217237   8.918   4.245   3.747
    1HEX    C0317238   8.771   4.230   3.779
    1HEX    O0417239   8.713   4.123   3.763
    1HEX    O0517240   8.719   4.340   3.838
    1HEX    C0617241   8.583   4.340   3.879
    1HEX    C0717242   8.564   4.318   4.032
    1HEX    C0817243   8.565   4.457   4.106
    1HEX    O0917244   8.506   4.583   4.066
    1HEX    C0A17245   8.523   4.688   4.156
    1HEX    O0B17246   8.556   4.671   4.274
    1HEX    C0C17247   8.506   4.833   4.104
    1HEX    C0D17248   8.537   4.942   4.214
    1HEX    C0F17249   8.433   4.232   4.050
    1HEX    O0G17250   8.465   4.091   4.043
    1HEX    C0H17251   8.426   4.009   3.943
    1HEX    O0I17252   8.336   4.035   3.863
    1HEX    C0J17253   8.511   3.881   3.929
    1HEX    C0K17254   8.506   3.778   4.047
    1HEX    C0N17255   8.678   4.226   4.097
    1HEX    O0O17256   8.803   4.281   4.139
    1HEX    C0P17257   8.824   4.350   4.264
    1HEX    C0Q17258   8.778   4.292   4.403
    1HEX    C0R17259   8.837   4.150   4.423
    1HEX    O0S17260   8.978   4.138   4.394
    1HEX    C0T17261   9.073   4.144   4.491
    1HEX    O0U17262   9.052   4.172   4.609
    1HEX    C0V17263   9.213   4.102   4.444
    1HEX    C0W17264   9.314   4.218   4.420
    1HEX    C0Y17265   8.839   4.388   4.508
    1HEX    O0Z17266   8.797   4.356   4.639
    1HEX    C1017267   8.851   4.422   4.742
    1HEX    O1117268   8.941   4.505   4.735
    1HEX    C1217269   8.783   4.387   4.874
    1HEX    C1317270   8.870   4.415   4.998
    1HEX    C1517271   8.621   4.303   4.415
    1HEX    O1617272   8.546   4.237   4.519
    1HEX    C1717273   8.422   4.186   4.488
    1HEX    O1817274   8.387   4.148   4.376
    1HEX    C1917275   8.321   4.185   4.603
    1HEX    C1A17276   8.188   4.259   4.570
    1HEX    H1D17277   9.042   4.212   3.575
    1HEX    H1E17278   8.987   4.377   3.587
    1HEX    H1F17279   8.959   4.323   3.811
    1HEX    H1G17280   8.965   4.152   3.780
    1HEX    H1H17281   8.527   4.266   3.821
    1HEX    H1I17282   8.539   4.435   3.849
    1HEX    H1J17283   8.669   4.487   4.104
    1HEX    H1K17284   8.535   4.441   4.209
    1HEX    H1M17285   8.405   4.845   4.065
    1HEX    H1N17286   8.575   4.846   4.020
    1HEX    H1O17287   8.637   4.927   4.254
    1HEX    H1P17288   8.470   4.926   4.300
    1HEX    H1R17289   8.355   4.260   3.978
    1HEX    H1S17290   8.387   4.251   4.147
    1HEX    H1T17291   8.613   3.914   3.913
    1HEX    H1U17292   8.481   3.831   3.837
    1HEX    H1V17293   8.409   3.729   4.049
    1HEX    H1W17294   8.516   3.830   4.142
    1HEX    H1Y17295   8.704   4.152   4.021
    1HEX    H1Z17296   8.642   4.160   4.175
    1HEX    H2017297   8.794   4.454   4.258
    1HEX    H2117298   8.933   4.357   4.268
    1HEX    H2217299   8.784   4.080   4.358
    1HEX    H2317300   8.816   4.115   4.525
    1HEX    H2417301   9.205   4.038   4.357
    1HEX    H2517302   9.251   4.040   4.525
    1HEX    H2617303   9.291   4.304   4.483
    1HEX    H2717304   9.307   4.252   4.316
    1HEX    H2917305   8.811   4.492   4.489
    1HEX    H2A17306   8.948   4.386   4.504
    1HEX    H2B17307   8.753   4.283   4.871
    1HEX    H2C17308   8.692   4.447   4.877
    1HEX    H2D17309   8.924   4.509   4.990
    1HEX    H2E17310   8.945   4.336   5.008
    1HEX    H2G17311   8.577   4.274   4.323
    1HEX    H2H17312   8.595   4.408   4.425
    1HEX    H2I17313   8.369   4.233   4.688
    1HEX    H2J17314   8.302   4.082   4.633
    1HEX    H2K17315   8.204   4.332   4.490
    1HEX    H2M17316   8.154   4.317   4.656
    1STR    S0017317   8.833   4.237   3.469
    1STR    S0E17318   8.520   5.119   4.164
    1STR    S0M17319   8.638   3.648   4.035
    1STR    S0X17320   9.486   4.163   4.454
    1STR    S1417321   8.761   4.421   5.144
    1STR    S1B17322   8.045   4.154   4.518
    1HEX    C0117323   9.011   4.234   8.038
    1HEX    C0217324   8.940   4.331   8.135
    1HEX    C0317325   8.794   4.296   8.160
    1HEX    O0417326   8.750   4.182   8.139
    1HEX    O0517327   8.725   4.399   8.212
    1HEX    C0617328   8.585   4.385   8.235
    1HEX    C0717329   8.550   4.362   8.384
    1HEX    C0817330   8.568   4.495   8.464
    1HEX    O0917331   8.520   4.628   8.434
    1HEX    C0A17332   8.549   4.726   8.530
    1HEX    O0B17333   8.582   4.698   8.645
    1HEX    C0C17334   8.543   4.876   8.488
    1HEX    C0D17335   8.613   4.971   8.593
    1HEX    C0F17336   8.405   4.302   8.389
    1HEX    O0G17337   8.407   4.158   8.373
    1HEX    C0H17338   8.368   4.096   8.259
    1HEX    O0I17339   8.311   4.151   8.166
    1HEX    C0J17340   8.406   3.946   8.251
    1HEX    C0K17341   8.374   3.863   8.378
    1HEX    C0N17342   8.644   4.251   8.449
    1HEX    O0O17343   8.775   4.282   8.502
    1HEX    C0P17344   8.804   4.353   8.625
    1HEX    C0Q17345   8.764   4.300   8.767
    1HEX    C0R17346   8.834   4.162   8.791
    1HEX    O0S17347   8.976   4.162   8.756
    1HEX    C0T17348   9.075   4.174   8.850
    1HEX    O0U17349   9.058   4.196   8.969
    1HEX    C0V17350   9.218   4.154   8.794
    1HEX    C0W17351   9.314   4.276   8.813
    1HEX    C0Y17352   8.820   4.401   8.870
    1HEX    O0Z17353   8.789   4.360   9.002
    1HEX    C1017354   8.844   4.428   9.104
    1HEX    O1117355   8.917   4.526   9.094
    1HEX    C1217356   8.805   4.370   9.240
    1HEX    C1317357   8.912   4.402   9.346
    1HEX    C1517358   8.607   4.305   8.776
    1HEX    O1617359   8.525   4.271   8.889
    1HEX    C1717360   8.404   4.212   8.861
    1HEX    O1817361   8.388   4.121   8.779
    1HEX    C1917362   8.280   4.272   8.930
    1HEX    C1A17363   8.179   4.329   8.825
    1HEX    H1D17364   9.118   4.236   8.058
    1HEX    H1E17365   8.979   4.132   8.059
    1HEX    H1F17366   8.947   4.434   8.101
    1HEX    H1G17367   8.987   4.325   8.233
    1HEX    H1H17368   8.544   4.306   8.171
    1HEX    H1I17369   8.536   4.476   8.199
    1HEX    H1J17370   8.675   4.514   8.458
    1HEX    H1K17371   8.540   4.474   8.566
    1HEX    H1M17372   8.439   4.903   8.474
    1HEX    H1N17373   8.592   4.886   8.391
    1HEX    H1O17374   8.721   4.954   8.592
    1HEX    H1P17375   8.581   4.941   8.693
    1HEX    H1R17376   8.339   4.349   8.316
    1HEX    H1S17377   8.359   4.321   8.486
    1HEX    H1T17378   8.512   3.938   8.226
    1HEX    H1U17379   8.352   3.904   8.166
    1HEX    H1V17380   8.276   3.891   8.415
    1HEX    H1W17381   8.445   3.886   8.458
    1HEX    H1Y17382   8.665   4.180   8.369
    1HEX    H1Z17383   8.591   4.183   8.514
    1HEX    H2017384   8.777   4.458   8.620
    1HEX    H2117385   8.913   4.358   8.623
    1HEX    H2217386   8.786   4.086   8.729
    1HEX    H2317387   8.820   4.129   8.894
    1HEX    H2417388   9.212   4.124   8.690
    1HEX    H2517389   9.260   4.068   8.848
    1HEX    H2617390   9.318   4.303   8.919
    1HEX    H2717391   9.273   4.363   8.761
    1HEX    H2917392   8.781   4.501   8.854
    1HEX    H2A17393   8.929   4.409   8.860
    1HEX    H2B17394   8.794   4.262   9.228
    1HEX    H2C17395   8.708   4.410   9.269
    1HEX    H2D17396   8.914   4.509   9.366
    1HEX    H2E17397   9.011   4.376   9.306
    1HEX    H2G17398   8.567   4.251   8.693
    1HEX    H2H17399   8.579   4.408   8.760
    1HEX    H2I17400   8.310   4.348   9.002
    1HEX    H2J17401   8.233   4.192   8.986
    1HEX    H2K17402   8.183   4.269   8.734
    1HEX    H2M17403   8.208   4.430   8.795
    1STR    S0017404   8.991   4.265   7.858
    1STR    S0E17405   8.581   5.154   8.586
    1STR    S0M17406   8.371   3.680   8.351
    1STR    S0X17407   9.486   4.248   8.750
    1STR    S1417408   8.887   4.310   9.501
    1STR    S1B17409   8.001   4.333   8.874
    1HEX    C0117410   8.947   4.201  12.343
    1HEX    C0217411   8.930   4.232  12.493
    1HEX    C0317412   8.788   4.205  12.541
    1HEX    O0417413   8.742   4.091  12.539
    1HEX    O0517414   8.724   4.315  12.586
    1HEX    C0617415   8.588   4.306  12.627
    1HEX    C0717416   8.569   4.302  12.781
    1HEX    C0817417   8.584   4.447  12.839
    1HEX    O0917418   8.518   4.569  12.800
    1HEX    C0A17419   8.526   4.674  12.891
    1HEX    O0B17420   8.534   4.658  13.013
    1HEX    C0C17421   8.534   4.816  12.831
    1HEX    C0D17422   8.536   4.934  12.936
    1HEX    C0F17423   8.431   4.232  12.810
    1HEX    O0G17424   8.448   4.089  12.826
    1HEX    C0H17425   8.407   3.999  12.734
    1HEX    O0I17426   8.334   4.026  12.639
    1HEX    C0J17427   8.469   3.858  12.749
    1HEX    C0K17428   8.463   3.790  12.889
    1HEX    C0N17429   8.677   4.212  12.853
    1HEX    O0O17430   8.804   4.267  12.891
    1HEX    C0P17431   8.825   4.346  13.011
    1HEX    C0Q17432   8.778   4.298  13.152
    1HEX    C0R17433   8.829   4.153  13.177
    1HEX    O0S17434   8.969   4.138  13.147
    1HEX    C0T17435   9.064   4.143  13.244
    1HEX    O0U17436   9.044   4.167  13.363
    1HEX    C0V17437   9.205   4.110  13.194
    1HEX    C0W17438   9.299   4.233  13.175
    1HEX    C0Y17439   8.842   4.393  13.256
    1HEX    O0Z17440   8.801   4.361  13.388
    1HEX    C1017441   8.850   4.430  13.491
    1HEX    O1117442   8.933   4.520  13.483
    1HEX    C1217443   8.788   4.388  13.624
    1HEX    C1317444   8.883   4.402  13.745
    1HEX    C1517445   8.623   4.317  13.165
    1HEX    O1617446   8.551   4.276  13.282
    1HEX    C1717447   8.433   4.212  13.264
    1HEX    O1817448   8.411   4.130  13.175
    1HEX    C1917449   8.320   4.259  13.356
    1HEX    C1A17450   8.205   4.322  13.273
    1HEX    H1D17451   9.043   4.153  12.325
    1HEX    H1E17452   8.871   4.130  12.310
    1HEX    H1F17453   8.959   4.334  12.518
    1HEX    H1G17454   8.993   4.166  12.552
    1HEX    H1H17455   8.541   4.219  12.580
    1HEX    H1I17456   8.535   4.391  12.585
    1HEX    H1J17457   8.688   4.475  12.819
    1HEX    H1K17458   8.571   4.438  12.945
    1HEX    H1M17459   8.453   4.830  12.760
    1HEX    H1N17460   8.626   4.819  12.773
    1HEX    H1O17461   8.559   4.898  13.037
    1HEX    H1P17462   8.436   4.977  12.944
    1HEX    H1R17463   8.357   4.256  12.734
    1HEX    H1S17464   8.388   4.270  12.903
    1HEX    H1T17465   8.573   3.866  12.715
    1HEX    H1U17466   8.419   3.795  12.676
    1HEX    H1V17467   8.361   3.787  12.927
    1HEX    H1W17468   8.522   3.847  12.962
    1HEX    H1Y17469   8.700   4.130  12.785
    1HEX    H1Z17470   8.639   4.155  12.937
    1HEX    H2017471   8.795   4.449  12.996
    1HEX    H2117472   8.934   4.354  13.014
    1HEX    H2217473   8.774   4.084  13.114
    1HEX    H2317474   8.807   4.123  13.280
    1HEX    H2417475   9.198   4.052  13.102
    1HEX    H2517476   9.248   4.043  13.268
    1HEX    H2617477   9.255   4.324  13.218
    1HEX    H2717478   9.311   4.253  13.068
    1HEX    H2917479   8.816   4.497  13.236
    1HEX    H2A17480   8.951   4.390  13.251
    1HEX    H2B17481   8.752   4.286  13.616
    1HEX    H2C17482   8.700   4.451  13.636
    1HEX    H2D17483   8.967   4.467  13.720
    1HEX    H2E17484   8.926   4.306  13.772
    1HEX    H2G17485   8.571   4.277  13.080
    1HEX    H2H17486   8.602   4.424  13.159
    1HEX    H2I17487   8.359   4.329  13.430
    1HEX    H2J17488   8.284   4.171  13.410
    1HEX    H2K17489   8.182   4.257  13.188
    1HEX    H2M17490   8.235   4.417  13.230
    1STR    S0017491   8.940   4.353  12.243
    1STR    S0E17492   8.656   5.069  12.900
    1STR    S0M17493   8.528   3.616  12.880
    1STR    S0X17494   9.465   4.206  13.250
    1STR    S1417495   8.800   4.477  13.890
    1STR    S1B17496   8.049   4.343  13.366
    1HEX    C0117497   8.938   8.501  16.719
    1HEX    C0217498   8.911   8.568  16.855
    1HEX    C0317499   8.762   8.575  16.887
    1HEX    O0417500   8.691   8.475  16.876
    1HEX    O0517501   8.722   8.696  16.933
    1HEX    C0617502   8.585   8.717  16.964
    1HEX    C0717503   8.550   8.703  17.116
    1HEX    C0817504   8.565   8.842  17.189
    1HEX    O0917505   8.508   8.973  17.161
    1HEX    C0A17506   8.532   9.071  17.259
    1HEX    O0B17507   8.569   9.044  17.373
    1HEX    C0C17508   8.515   9.221  17.221
    1HEX    C0D17509   8.567   9.319  17.334
    1HEX    C0F17510   8.408   8.635  17.123
    1HEX    O0G17511   8.425   8.493  17.100
    1HEX    C0H17512   8.354   8.421  17.011
    1HEX    O0I17513   8.254   8.463  16.952
    1HEX    C0J17514   8.414   8.283  16.979
    1HEX    C0K17515   8.414   8.176  17.092
    1HEX    C0N17516   8.646   8.599  17.189
    1HEX    O0O17517   8.779   8.636  17.227
    1HEX    C0P17518   8.812   8.712  17.346
    1HEX    C0Q17519   8.774   8.661   0.048
    1HEX    C0R17520   8.836   8.519   0.070
    1HEX    O0S17521   8.975   8.509   0.030
    1HEX    C0T17522   9.079   8.520   0.119
    1HEX    O0U17523   9.067   8.548   0.238
    1HEX    C0V17524   9.218   8.486   0.060
    1HEX    C0W17525   9.317   8.605   0.044
    1HEX    C0Y17526   8.842   8.758   0.147
    1HEX    O0Z17527   8.799   8.725   0.277
    1HEX    C1017528   8.847   8.791   0.382
    1HEX    O1117529   8.933   8.878   0.379
    1HEX    C1217530   8.776   8.748   0.509
    1HEX    C1317531   8.845   8.798   0.636
    1HEX    C1517532   8.618   8.679   0.070
    1HEX    O1617533   8.538   8.607   0.166
    1HEX    C1717534   8.424   8.545   0.120
    1HEX    O1817535   8.418   8.485   0.013
    1HEX    C1917536   8.296   8.565   0.203
    1HEX    C1A17537   8.189   8.645   0.123
    1HEX    H1D17538   9.021   8.432  16.727
    1HEX    H1E17539   8.852   8.442  16.684
    1HEX    H1F17540   8.954   8.668  16.861
    1HEX    H1G17541   8.956   8.510  16.935
    1HEX    H1H17542   8.524   8.649  16.904
    1HEX    H1I17543   8.556   8.816  16.929
    1HEX    H1J17544   8.671   8.866  17.177
    1HEX    H1K17545   8.544   8.824  17.293
    1HEX    H1M17546   8.410   9.239  17.199
    1HEX    H1N17547   8.570   9.239  17.129
    1HEX    H1O17548   8.674   9.305  17.348
    1HEX    H1P17549   8.523   9.290  17.430
    1HEX    H1R17550   8.338   8.680  17.052
    1HEX    H1S17551   8.363   8.647  17.222
    1HEX    H1T17552   8.517   8.301  16.946
    1HEX    H1U17553   8.362   8.243  16.892
    1HEX    H1V17554   8.312   8.150  17.121
    1HEX    H1W17555   8.462   8.216  17.182
    1HEX    H1Y17556   8.661   8.516  17.120
    1HEX    H1Z17557   8.596   8.543  17.268
    1HEX    H2017558   8.783   8.816  17.337
    1HEX    H2117559   8.921   8.716  17.341
    1HEX    H2217560   8.779   8.447   0.011
    1HEX    H2317561   8.823   8.487   0.174
    1HEX    H2417562   9.205   8.433  17.406
    1HEX    H2517563   9.261   8.415   0.130
    1HEX    H2617564   9.317   8.669   0.132
    1HEX    H2717565   9.287   8.668  17.400
    1HEX    H2917566   8.815   8.862   0.127
    1HEX    H2A17567   8.951   8.754   0.141
    1HEX    H2B17568   8.770   8.639   0.508
    1HEX    H2C17569   8.674   8.786   0.502
    1HEX    H2D17570   8.859   8.906   0.635
    1HEX    H2E17571   8.944   8.753   0.646
    1HEX    H2G17572   8.567   8.669  17.417
    1HEX    H2H17573   8.600   8.784   0.094
    1HEX    H2I17574   8.320   8.612   0.299
    1HEX    H2J17575   8.258   8.465   0.226
    1HEX    H2K17576   8.206   8.633   0.016
    1HEX    H2M17577   8.202   8.752   0.143
    1STR    S0017578   8.979   8.624  16.592
    1STR    S0E17579   8.534   9.501  17.318
    1STR    S0M17580   8.503   8.022  17.039
    1STR    S0X17581   9.490   8.546   0.014
    1STR    S1417582   8.741   8.749   0.777
    1STR    S1B17583   8.011   8.605   0.155
    1HEX    C0117584   8.956   8.573   3.692
    1HEX    C0217585   8.888   8.530   3.823
    1HEX    C0317586   8.738   8.553   3.827
    1HEX    O0417587   8.660   8.461   3.805
    1HEX    O0517588   8.705   8.677   3.870
    1HEX    C0617589   8.569   8.707   3.900
    1HEX    C0717590   8.538   8.702   4.053
    1HEX    C0817591   8.565   8.843   4.118
    1HEX    O0917592   8.514   8.972   4.079
    1HEX    C0A17593   8.545   9.079   4.165
    1HEX    O0B17594   8.576   9.065   4.283
    1HEX    C0C17595   8.547   9.221   4.102
    1HEX    C0D17596   8.510   9.341   4.196
    1HEX    C0F17597   8.391   8.648   4.068
    1HEX    O0G17598   8.392   8.504   4.071
    1HEX    C0H17599   8.347   8.427   3.970
    1HEX    O0I17600   8.271   8.464   3.881
    1HEX    C0J17601   8.408   8.285   3.969
    1HEX    C0K17602   8.336   8.178   4.055
    1HEX    C0N17603   8.630   8.596   4.128
    1HEX    O0O17604   8.764   8.630   4.167
    1HEX    C0P17605   8.799   8.710   4.283
    1HEX    C0Q17606   8.760   8.665   4.428
    1HEX    C0R17607   8.817   8.522   4.451
    1HEX    O0S17608   8.955   8.508   4.407
    1HEX    C0T17609   9.062   8.516   4.491
    1HEX    O0U17610   9.055   8.537   4.612
    1HEX    C0V17611   9.199   8.496   4.422
    1HEX    C0W17612   9.318   8.567   4.495
    1HEX    C0Y17613   8.831   8.763   4.526
    1HEX    O0Z17614   8.797   8.737   4.662
    1HEX    C1017615   8.855   8.811   4.758
    1HEX    O1117616   8.940   8.898   4.739
    1HEX    C1217617   8.803   8.779   4.898
    1HEX    C1317618   8.917   8.740   4.996
    1HEX    C1517619   8.605   8.688   4.447
    1HEX    O1617620   8.527   8.633   4.554
    1HEX    C1717621   8.410   8.570   4.520
    1HEX    O1817622   8.398   8.494   4.424
    1HEX    C1917623   8.286   8.610   4.602
    1HEX    C1A17624   8.181   8.685   4.514
    1HEX    H1D17625   9.061   8.545   3.696
    1HEX    H1E17626   8.951   8.681   3.680
    1HEX    H1F17627   8.931   8.585   3.907
    1HEX    H1G17628   8.906   8.424   3.843
    1HEX    H1H17629   8.504   8.640   3.844
    1HEX    H1I17630   8.546   8.806   3.860
    1HEX    H1J17631   8.671   8.859   4.102
    1HEX    H1K17632   8.547   8.833   4.225
    1HEX    H1M17633   8.475   9.217   4.019
    1HEX    H1N17634   8.644   9.237   4.056
    1HEX    H1O17635   8.453   9.302   4.281
    1HEX    H1P17636   8.442   9.409   4.145
    1HEX    H1R17637   8.324   8.687   3.991
    1HEX    H1S17638   8.348   8.681   4.163
    1HEX    H1T17639   8.512   8.296   4.001
    1HEX    H1U17640   8.413   8.251   3.866
    1HEX    H1V17641   8.271   8.117   3.992
    1HEX    H1W17642   8.271   8.225   4.130
    1HEX    H1Y17643   8.642   8.512   4.060
    1HEX    H1Z17644   8.580   8.543   4.208
    1HEX    H2017645   8.773   8.815   4.271
    1HEX    H2117646   8.908   8.713   4.278
    1HEX    H2217647   8.757   8.450   4.395
    1HEX    H2317648   8.807   8.493   4.556
    1HEX    H2417649   9.191   8.529   4.319
    1HEX    H2517650   9.219   8.389   4.418
    1HEX    H2617651   9.283   8.658   4.544
    1HEX    H2717652   9.355   8.503   4.575
    1HEX    H2917653   8.806   8.866   4.503
    1HEX    H2A17654   8.940   8.757   4.515
    1HEX    H2B17655   8.731   8.698   4.891
    1HEX    H2C17656   8.749   8.866   4.934
    1HEX    H2D17657   9.013   8.751   4.946
    1HEX    H2E17658   8.909   8.635   5.025
    1HEX    H2G17659   8.552   8.668   4.356
    1HEX    H2H17660   8.590   8.796   4.456
    1HEX    H2I17661   8.316   8.670   4.688
    1HEX    H2J17662   8.243   8.518   4.641
    1HEX    H2K17663   8.194   8.660   4.409
    1HEX    H2M17664   8.197   8.793   4.521
    1STR    S0017665   8.890   8.497   3.541
    1STR    S0E17666   8.645   9.446   4.270
    1STR    S0M17667   8.457   8.067   4.140
    1STR    S0X17668   9.463   8.617   4.389
    1STR    S1417669   8.925   8.843   5.148
    1STR    S1B17670   8.005   8.651   4.553
    1HEX    C0117671   8.958   8.588   7.964
    1HEX    C0217672   8.918   8.634   8.106
    1HEX    C0317673   8.780   8.591   8.152
    1HEX    O0417674   8.743   8.473   8.144
    1HEX    O0517675   8.710   8.693   8.204
    1HEX    C0617676   8.577   8.674   8.249
    1HEX    C0717677   8.564   8.665   8.403
    1HEX    C0817678   8.569   8.810   8.466
    1HEX    O0917679   8.499   8.930   8.426
    1HEX    C0A17680   8.517   9.040   8.512
    1HEX    O0B17681   8.559   9.029   8.627
    1HEX    C0C17682   8.486   9.183   8.458
    1HEX    C0D17683   8.535   9.295   8.557
    1HEX    C0F17684   8.433   8.582   8.433
    1HEX    O0G17685   8.462   8.440   8.436
    1HEX    C0H17686   8.422   8.354   8.340
    1HEX    O0I17687   8.340   8.381   8.252
    1HEX    C0J17688   8.494   8.217   8.340
    1HEX    C0K17689   8.516   8.143   8.476
    1HEX    C0N17690   8.680   8.578   8.468
    1HEX    O0O17691   8.804   8.639   8.508
    1HEX    C0P17692   8.822   8.711   8.632
    1HEX    C0Q17693   8.777   8.654   8.772
    1HEX    C0R17694   8.835   8.511   8.792
    1HEX    O0S17695   8.976   8.501   8.764
    1HEX    C0T17696   9.069   8.504   8.864
    1HEX    O0U17697   9.046   8.527   8.982
    1HEX    C0V17698   9.211   8.466   8.818
    1HEX    C0W17699   9.305   8.585   8.787
    1HEX    C0Y17700   8.838   8.749   8.878
    1HEX    O0Z17701   8.797   8.714   9.009
    1HEX    C1017702   8.853   8.778   9.113
    1HEX    O1117703   8.940   8.865   9.105
    1HEX    C1217704   8.792   8.737   9.246
    1HEX    C1317705   8.880   8.771   9.369
    1HEX    C1517706   8.621   8.664   8.784
    1HEX    O1617707   8.550   8.609   8.897
    1HEX    C1717708   8.425   8.558   8.876
    1HEX    O1817709   8.385   8.509   8.770
    1HEX    C1917710   8.329   8.571   8.994
    1HEX    C1A17711   8.200   8.650   8.956
    1HEX    H1D17712   8.988   8.483   7.966
    1HEX    H1E17713   9.044   8.646   7.930
    1HEX    H1F17714   8.923   8.742   8.113
    1HEX    H1G17715   8.989   8.595   8.179
    1HEX    H1H17716   8.533   8.587   8.200
    1HEX    H1I17717   8.518   8.758   8.212
    1HEX    H1J17718   8.672   8.842   8.453
    1HEX    H1K17719   8.550   8.798   8.572
    1HEX    H1M17720   8.379   9.191   8.440
    1HEX    H1N17721   8.536   9.194   8.362
    1HEX    H1O17722   8.644   9.289   8.565
    1HEX    H1P17723   8.500   9.273   8.658
    1HEX    H1R17724   8.353   8.606   8.362
    1HEX    H1S17725   8.392   8.609   8.530
    1HEX    H1T17726   8.590   8.231   8.290
    1HEX    H1U17727   8.437   8.152   8.273
    1HEX    H1V17728   8.423   8.142   8.534
    1HEX    H1W17729   8.589   8.196   8.536
    1HEX    H1Y17730   8.708   8.503   8.394
    1HEX    H1Z17731   8.648   8.514   8.549
    1HEX    H2017732   8.786   8.813   8.623
    1HEX    H2117733   8.930   8.723   8.636
    1HEX    H2217734   8.784   8.441   8.726
    1HEX    H2317735   8.813   8.476   8.893
    1HEX    H2417736   9.204   8.398   8.733
    1HEX    H2517737   9.252   8.407   8.900
    1HEX    H2617738   9.262   8.679   8.823
    1HEX    H2717739   9.317   8.596   8.679
    1HEX    H2917740   8.808   8.852   8.860
    1HEX    H2A17741   8.947   8.748   8.872
    1HEX    H2B17742   8.770   8.630   9.243
    1HEX    H2C17743   8.696   8.789   9.252
    1HEX    H2D17744   8.937   8.862   9.351
    1HEX    H2E17745   8.953   8.692   9.386
    1HEX    H2G17746   8.574   8.626   8.695
    1HEX    H2H17747   8.594   8.770   8.785
    1HEX    H2I17748   8.381   8.621   9.075
    1HEX    H2J17749   8.304   8.471   9.030
    1HEX    H2K17750   8.207   8.688   8.854
    1HEX    H2M17751   8.187   8.738   9.019
    1STR    S0017752   8.828   8.602   7.836
    1STR    S0E17753   8.488   9.472   8.527
    1STR    S0M17754   8.572   7.968   8.450
    1STR    S0X17755   9.470   8.564   8.865
    1STR    S1417756   8.775   8.800   9.516
    1STR    S1B17757   8.044   8.552   8.964
    1HEX    C0117758   8.967   8.603  12.340
    1HEX    C0217759   8.939   8.658  12.481
    1HEX    C0317760   8.796   8.632  12.525
    1HEX    O0417761   8.748   8.519  12.518
    1HEX    O0517762   8.735   8.743  12.572
    1HEX    C0617763   8.595   8.740  12.597
    1HEX    C0717764   8.558   8.721  12.747
    1HEX    C0817765   8.578   8.857  12.825
    1HEX    O0917766   8.525   8.989  12.798
    1HEX    C0A17767   8.551   9.085  12.898
    1HEX    O0B17768   8.583   9.055  13.013
    1HEX    C0C17769   8.543   9.236  12.859
    1HEX    C0D17770   8.614   9.330  12.966
    1HEX    C0F17771   8.413   8.663  12.751
    1HEX    O0G17772   8.417   8.520  12.729
    1HEX    C0H17773   8.378   8.463  12.613
    1HEX    O0I17774   8.313   8.521  12.526
    1HEX    C0J17775   8.426   8.318  12.591
    1HEX    C0K17776   8.451   8.231  12.717
    1HEX    C0N17777   8.648   8.611  12.817
    1HEX    O0O17778   8.781   8.641  12.863
    1HEX    C0P17779   8.813   8.716  12.982
    1HEX    C0Q17780   8.771   8.667  13.125
    1HEX    C0R17781   8.835   8.526  13.149
    1HEX    O0S17782   8.976   8.520  13.113
    1HEX    C0T17783   9.079   8.534  13.203
    1HEX    O0U17784   9.064   8.557  13.323
    1HEX    C0V17785   9.220   8.513  13.145
    1HEX    C0W17786   9.317   8.636  13.154
    1HEX    C0Y17787   8.834   8.765  13.226
    1HEX    O0Z17788   8.792   8.727  13.355
    1HEX    C1017789   8.843   8.788  13.461
    1HEX    O1117790   8.926   8.878  13.461
    1HEX    C1217791   8.783   8.732  13.589
    1HEX    C1317792   8.875   8.755  13.710
    1HEX    C1517793   8.615   8.684  13.139
    1HEX    O1617794   8.531   8.629  13.242
    1HEX    C1717795   8.417   8.565  13.202
    1HEX    O1817796   8.414   8.482  13.111
    1HEX    C1917797   8.285   8.612  13.268
    1HEX    C1A17798   8.185   8.665  13.160
    1HEX    H1D17799   9.074   8.585  12.328
    1HEX    H1E17800   8.918   8.506  12.327
    1HEX    H1F17801   8.962   8.764  12.488
    1HEX    H1G17802   9.002   8.607  12.554
    1HEX    H1H17803   8.549   8.663  12.535
    1HEX    H1I17804   8.553   8.833  12.560
    1HEX    H1J17805   8.684   8.878  12.813
    1HEX    H1K17806   8.557   8.836  12.929
    1HEX    H1M17807   8.438   9.263  12.847
    1HEX    H1N17808   8.591   9.249  12.762
    1HEX    H1O17809   8.721   9.311  12.966
    1HEX    H1P17810   8.581   9.300  13.066
    1HEX    H1R17811   8.347   8.714  12.680
    1HEX    H1S17812   8.367   8.680  12.849
    1HEX    H1T17813   8.518   8.325  12.533
    1HEX    H1U17814   8.352   8.270  12.526
    1HEX    H1V17815   8.365   8.236  12.784
    1HEX    H1W17816   8.536   8.269  12.773
    1HEX    H1Y17817   8.663   8.533  12.743
    1HEX    H1Z17818   8.595   8.550  12.890
    1HEX    H2017819   8.789   8.821  12.974
    1HEX    H2117820   8.922   8.718  12.980
    1HEX    H2217821   8.783   8.452  13.089
    1HEX    H2317822   8.821   8.495  13.253
    1HEX    H2417823   9.211   8.478  13.042
    1HEX    H2517824   9.264   8.431  13.202
    1HEX    H2617825   9.322   8.673  13.257
    1HEX    H2717826   9.278   8.718  13.095
    1HEX    H2917827   8.804   8.869  13.208
    1HEX    H2A17828   8.943   8.765  13.221
    1HEX    H2B17829   8.767   8.626  13.574
    1HEX    H2C17830   8.686   8.779  13.605
    1HEX    H2D17831   8.880   8.861  13.734
    1HEX    H2E17832   8.977   8.725  13.686
    1HEX    H2G17833   8.565   8.662  13.047
    1HEX    H2H17834   8.596   8.791  13.148
    1HEX    H2I17835   8.306   8.687  13.345
    1HEX    H2J17836   8.242   8.525  13.318
    1HEX    H2K17837   8.196   8.605  13.069
    1HEX    H2M17838   8.212   8.766  13.130
    1STR    S0017839   8.913   8.712  12.205
    1STR    S0E17840   8.585   9.514  12.959
    1STR    S0M17841   8.479   8.055  12.671
    1STR    S0X17842   9.489   8.599  13.095
    1STR    S1417843   8.816   8.657  13.851
    1STR    S1B17844   8.005   8.664  13.202
    1HEX    C0117845   8.914  12.925  16.675
    1HEX    C0217846   8.910  12.981  16.819
    1HEX    C0317847   8.779  12.946  16.888
    1HEX    O0417848   8.740  12.829  16.894
    1HEX    O0517849   8.715  13.053  16.939
    1HEX    C0617850   8.580  13.040  16.982
    1HEX    C0717851   8.562  13.037  17.137
    1HEX    C0817852   8.583  13.181  17.195
    1HEX    O0917853   8.514  13.303  17.163
    1HEX    C0A17854   8.530  13.408  17.254
    1HEX    O0B17855   8.552  13.391  17.374
    1HEX    C0C17856   8.525  13.551  17.196
    1HEX    C0D17857   8.503  13.667  17.300
    1HEX    C0F17858   8.421  12.972  17.165
    1HEX    O0G17859   8.434  12.829  17.182
    1HEX    C0H17860   8.389  12.738  17.093
    1HEX    O0I17861   8.311  12.761  17.002
    1HEX    C0J17862   8.457  12.600  17.108
    1HEX    C0K17863   8.404  12.507  17.222
    1HEX    C0N17864   8.668  12.942  17.207
    1HEX    O0O17865   8.797  12.993  17.246
    1HEX    C0P17866   8.819  13.069  17.366
    1HEX    C0Q17867   8.771  13.020   0.067
    1HEX    C0R17868   8.822  12.875   0.090
    1HEX    O0S17869   8.960  12.857   0.054
    1HEX    C0T17870   9.061  12.864   0.144
    1HEX    O0U17871   9.048  12.893   0.263
    1HEX    C0V17872   9.197  12.826   0.086
    1HEX    C0W17873   9.294  12.943   0.053
    1HEX    C0Y17874   8.837  13.115   0.172
    1HEX    O0Z17875   8.795  13.084   0.304
    1HEX    C1017876   8.843  13.157   0.406
    1HEX    O1117877   8.925  13.248   0.395
    1HEX    C1217878   8.782  13.119   0.541
    1HEX    C1317879   8.885  13.117   0.657
    1HEX    C1517880   8.616  13.040   0.081
    1HEX    O1617881   8.541  12.983   0.189
    1HEX    C1717882   8.431  12.910   0.158
    1HEX    O1817883   8.422  12.834   0.062
    1HEX    C1917884   8.309  12.936   0.247
    1HEX    C1A17885   8.199  13.014   0.171
    1HEX    H1D17886   9.007  12.871  16.658
    1HEX    H1E17887   8.834  12.853  16.660
    1HEX    H1F17888   8.926  13.088  16.822
    1HEX    H1G17889   8.989  12.935  16.879
    1HEX    H1H17890   8.534  12.952  16.936
    1HEX    H1I17891   8.525  13.124  16.940
    1HEX    H1J17892   8.687  13.207  17.172
    1HEX    H1K17893   8.576  13.171  17.302
    1HEX    H1M17894   8.445  13.553  17.121
    1HEX    H1N17895   8.618  13.566  17.142
    1HEX    H1O17896   8.483  13.627  17.400
    1HEX    H1P17897   8.413  13.722  17.274
    1HEX    H1R17898   8.349  12.997  17.087
    1HEX    H1S17899   8.379  13.012  17.257
    1HEX    H1T17900   8.563  12.618  17.122
    1HEX    H1U17901   8.447  12.548  17.013
    1HEX    H1V17902   8.300  12.480  17.206
    1HEX    H1W17903   8.409  12.557  17.319
    1HEX    H1Y17904   8.689  12.861  17.137
    1HEX    H1Z17905   8.629  12.884  17.290
    1HEX    H2017906   8.791  13.173  17.353
    1HEX    H2117907   8.928  13.075  17.369
    1HEX    H2217908   8.763  12.806   0.029
    1HEX    H2317909   8.805  12.845   0.194
    1HEX    H2417910   9.181  12.764  17.438
    1HEX    H2517911   9.243  12.759   0.159
    1HEX    H2617912   9.247  13.040   0.071
    1HEX    H2717913   9.321  12.940  17.388
    1HEX    H2917914   8.812  13.219   0.151
    1HEX    H2A17915   8.946  13.110   0.167
    1HEX    H2B17916   8.735  13.021   0.531
    1HEX    H2C17917   8.702  13.190   0.560
    1HEX    H2D17918   8.980  13.159   0.623
    1HEX    H2E17919   8.906  13.015   0.689
    1HEX    H2G17920   8.565  13.011  17.430
    1HEX    H2H17921   8.596  13.147   0.087
    1HEX    H2I17922   8.340  12.989   0.338
    1HEX    H2J17923   8.272  12.839   0.278
    1HEX    H2K17924   8.203  12.993   0.064
    1HEX    H2M17925   8.214  13.122   0.180
    1STR    S0017926   8.895  13.053  16.547
    1STR    S0E17927   8.643  13.787  17.319
    1STR    S0M17928   8.505  12.351  17.229
    1STR    S0X17929   9.447  12.931   0.152
    1STR    S1417930   8.831  13.217   0.801
    1STR    S1B17931   8.029  12.976   0.228
    1HEX    C0117932   8.960  13.004   3.605
    1HEX    C0217933   8.922  12.969   3.752
    1HEX    C0317934   8.773  12.960   3.778
    1HEX    O0417935   8.710  12.858   3.750
    1HEX    O0517936   8.725  13.069   3.840
    1HEX    C0617937   8.587  13.075   3.876
    1HEX    C0717938   8.562  13.051   4.027
    1HEX    C0817939   8.565  13.189   4.104
    1HEX    O0917940   8.508  13.317   4.067
    1HEX    C0A17941   8.521  13.419   4.163
    1HEX    O0B17942   8.545  13.397   4.282
    1HEX    C0C17943   8.512  13.566   4.115
    1HEX    C0D17944   8.530  13.670   4.233
    1HEX    C0F17945   8.428  12.970   4.039
    1HEX    O0G17946   8.458  12.829   4.023
    1HEX    C0H17947   8.402  12.749   3.931
    1HEX    O0I17948   8.302  12.777   3.864
    1HEX    C0J17949   8.480  12.618   3.906
    1HEX    C0K17950   8.479  12.512   4.021
    1HEX    C0N17951   8.671  12.955   4.092
    1HEX    O0O17952   8.799  13.003   4.135
    1HEX    C0P17953   8.823  13.071   4.260
    1HEX    C0Q17954   8.778  13.014   4.399
    1HEX    C0R17955   8.838  12.871   4.419
    1HEX    O0S17956   8.978  12.861   4.387
    1HEX    C0T17957   9.076  12.868   4.482
    1HEX    O0U17958   9.058  12.897   4.600
    1HEX    C0V17959   9.216  12.828   4.433
    1HEX    C0W17960   9.317  12.944   4.409
    1HEX    C0Y17961   8.839  13.109   4.504
    1HEX    O0Z17962   8.796  13.077   4.634
    1HEX    C1017963   8.848  13.144   4.737
    1HEX    O1117964   8.937  13.229   4.731
    1HEX    C1217965   8.778  13.110   4.868
    1HEX    C1317966   8.861  13.144   4.992
    1HEX    C1517967   8.621  13.025   4.412
    1HEX    O1617968   8.543  12.952   4.509
    1HEX    C1717969   8.420  12.901   4.469
    1HEX    O1817970   8.393  12.866   4.355
    1HEX    C1917971   8.312  12.895   4.578
    1HEX    C1A17972   8.181  12.972   4.542
    1HEX    H1D17973   8.922  12.903   3.589
    1HEX    H1E17974   8.912  13.101   3.611
    1HEX    H1F17975   8.963  13.043   3.820
    1HEX    H1G17976   8.966  12.874   3.784
    1HEX    H1H17977   8.530  13.005   3.815
    1HEX    H1I17978   8.549  13.173   3.846
    1HEX    H1J17979   8.670  13.218   4.102
    1HEX    H1K17980   8.535  13.171   4.207
    1HEX    H1M17981   8.417  13.581   4.064
    1HEX    H1N17982   8.591  13.581   4.042
    1HEX    H1O17983   8.625  13.651   4.284
    1HEX    H1P17984   8.454  13.651   4.309
    1HEX    H1R17985   8.353  13.004   3.967
    1HEX    H1S17986   8.382  12.984   4.136
    1HEX    H1T17987   8.583  12.647   3.884
    1HEX    H1U17988   8.442  12.572   3.815
    1HEX    H1V17989   8.380  12.469   4.033
    1HEX    H1W17990   8.503  12.559   4.116
    1HEX    H1Y17991   8.695  12.880   4.016
    1HEX    H1Z17992   8.631  12.888   4.169
    1HEX    H2017993   8.794  13.176   4.255
    1HEX    H2117994   8.932  13.077   4.262
    1HEX    H2217995   8.785  12.801   4.355
    1HEX    H2317996   8.819  12.837   4.521
    1HEX    H2417997   9.207  12.765   4.344
    1HEX    H2517998   9.255  12.763   4.511
    1HEX    H2617999   9.305  13.023   4.483
    1HEX    H2718000   9.300  12.990   4.312
    1HEX    H2918001   8.812  13.213   4.484
    1HEX    H2A18002   8.948  13.108   4.500
    1HEX    H2B18003   8.755  13.003   4.866
    1HEX    H2C18004   8.684  13.164   4.868
    1HEX    H2D18005   8.904  13.245   4.987
    1HEX    H2E18006   8.945  13.075   5.002
    1HEX    H2G18007   8.576  13.006   4.317
    1HEX    H2H18008   8.596  13.130   4.430
    1HEX    H2I18009   8.356  12.939   4.667
    1HEX    H2J18010   8.291  12.791   4.602
    1HEX    H2K18011   8.203  13.056   4.476
    1HEX    H2M18012   8.140  13.017   4.633
    1STR    S0018013   8.872  12.983   3.446
    1STR    S0E18014   8.521  13.850   4.191
    1STR    S0M18015   8.600  12.374   3.991
    1STR    S0X18016   9.491  12.881   4.416
    1STR    S1418017   8.752  13.132   5.137
    1STR    S1B18018   8.044  12.875   4.466
    1HEX    C0118019   9.015  12.994   8.063
    1HEX    C0218020   8.934  13.073   8.167
    1HEX    C0318021   8.788  13.029   8.176
    1HEX    O0418022   8.753  12.913   8.152
    1HEX    O0518023   8.710  13.128   8.221
    1HEX    C0618024   8.571  13.105   8.241
    1HEX    C0718025   8.538  13.084   8.391
    1HEX    C0818026   8.554  13.219   8.468
    1HEX    O0918027   8.507  13.351   8.434
    1HEX    C0A18028   8.536  13.449   8.528
    1HEX    O0B18029   8.569  13.423   8.644
    1HEX    C0C18030   8.531  13.598   8.483
    1HEX    C0D18031   8.603  13.693   8.586
    1HEX    C0F18032   8.394  13.022   8.397
    1HEX    O0G18033   8.401  12.880   8.376
    1HEX    C0H18034   8.346  12.818   8.269
    1HEX    O0I18035   8.266  12.870   8.192
    1HEX    C0J18036   8.397  12.675   8.246
    1HEX    C0K18037   8.391  12.581   8.369
    1HEX    C0N18038   8.632  12.975   8.458
    1HEX    O0O18039   8.765  13.006   8.507
    1HEX    C0P18040   8.797  13.076   8.630
    1HEX    C0Q18041   8.761  13.021   8.773
    1HEX    C0R18042   8.832  12.884   8.795
    1HEX    O0S18043   8.971  12.884   8.756
    1HEX    C0T18044   9.073  12.891   8.846
    1HEX    O0U18045   9.060  12.904   8.967
    1HEX    C0V18046   9.213  12.877   8.782
    1HEX    C0W18047   9.325  12.961   8.851
    1HEX    C0Y18048   8.817  13.122   8.875
    1HEX    O0Z18049   8.792  13.081   9.008
    1HEX    C1018050   8.849  13.149   9.108
    1HEX    O1118051   8.922  13.248   9.095
    1HEX    C1218052   8.815  13.093   9.246
    1HEX    C1318053   8.917  13.140   9.351
    1HEX    C1518054   8.604  13.018   8.783
    1HEX    O1618055   8.525  13.010   8.903
    1HEX    C1718056   8.400  12.956   8.888
    1HEX    O1818057   8.376  12.855   8.820
    1HEX    C1918058   8.282  13.034   8.950
    1HEX    C1A18059   8.168  13.049   8.845
    1HEX    H1D18060   9.121  13.002   8.088
    1HEX    H1E18061   8.991  12.888   8.072
    1HEX    H1F18062   8.939  13.180   8.149
    1HEX    H1G18063   8.974  13.054   8.266
    1HEX    H1H18064   8.537  13.021   8.180
    1HEX    H1I18065   8.517  13.191   8.202
    1HEX    H1J18066   8.661  13.237   8.466
    1HEX    H1K18067   8.522  13.199   8.570
    1HEX    H1M18068   8.426  13.625   8.471
    1HEX    H1N18069   8.578  13.606   8.385
    1HEX    H1O18070   8.711  13.679   8.582
    1HEX    H1P18071   8.575  13.663   8.687
    1HEX    H1R18072   8.326  13.071   8.327
    1HEX    H1S18073   8.349  13.038   8.495
    1HEX    H1T18074   8.500  12.683   8.211
    1HEX    H1U18075   8.340  12.632   8.164
    1HEX    H1V18076   8.289  12.577   8.409
    1HEX    H1W18077   8.454  12.618   8.450
    1HEX    H1Y18078   8.651  12.901   8.380
    1HEX    H1Z18079   8.579  12.912   8.527
    1HEX    H2018080   8.768  13.180   8.626
    1HEX    H2118081   8.905  13.082   8.625
    1HEX    H2218082   8.782  12.808   8.734
    1HEX    H2318083   8.820  12.850   8.898
    1HEX    H2418084   9.204  12.905   8.677
    1HEX    H2518085   9.240  12.771   8.783
    1HEX    H2618086   9.288  13.060   8.875
    1HEX    H2718087   9.351  12.915   8.947
    1HEX    H2918088   8.776  13.222   8.860
    1HEX    H2A18089   8.925  13.132   8.862
    1HEX    H2B18090   8.816  12.984   9.238
    1HEX    H2C18091   8.714  13.123   9.272
    1HEX    H2D18092   8.908  13.248   9.366
    1HEX    H2E18093   9.018  13.122   9.313
    1HEX    H2G18094   8.570  12.940   8.718
    1HEX    H2H18095   8.570  13.113   8.745
    1HEX    H2I18096   8.318  13.130   8.986
    1HEX    H2J18097   8.247  12.977   9.036
    1HEX    H2K18098   8.136  12.949   8.813
    1HEX    H2M18099   8.207  13.096   8.755
    1STR    S0018100   8.999  13.047   7.888
    1STR    S0E18101   8.567  13.875   8.582
    1STR    S0M18102   8.441  12.409   8.325
    1STR    S0X18103   9.478  12.979   8.749
    1STR    S1418104   8.901  13.056   9.512
    1STR    S1B18105   8.017  13.144   8.893
    1HEX    C0118106   8.942  12.952  12.335
    1HEX    C0218107   8.934  12.972  12.488
    1HEX    C0318108   8.796  12.936  12.540
    1HEX    O0418109   8.758  12.819  12.539
    1HEX    O0518110   8.727  13.042  12.585
    1HEX    C0618111   8.591  13.025  12.625
    1HEX    C0718112   8.571  13.018  12.779
    1HEX    C0818113   8.580  13.163  12.839
    1HEX    O0918114   8.517  13.285  12.793
    1HEX    C0A18115   8.526  13.393  12.880
    1HEX    O0B18116   8.536  13.381  13.003
    1HEX    C0C18117   8.533  13.534  12.817
    1HEX    C0D18118   8.551  13.650  12.922
    1HEX    C0F18119   8.435  12.943  12.806
    1HEX    O0G18120   8.457  12.800  12.818
    1HEX    C0H18121   8.421  12.711  12.723
    1HEX    O0I18122   8.347  12.737  12.629
    1HEX    C0J18123   8.486  12.571  12.736
    1HEX    C0K18124   8.492  12.504  12.877
    1HEX    C0N18125   8.681  12.930  12.850
    1HEX    O0O18126   8.807  12.987  12.889
    1HEX    C0P18127   8.827  13.064  13.010
    1HEX    C0Q18128   8.779  13.014  13.151
    1HEX    C0R18129   8.830  12.869  13.174
    1HEX    O0S18130   8.970  12.853  13.145
    1HEX    C0T18131   9.064  12.857  13.243
    1HEX    O0U18132   9.044  12.884  13.361
    1HEX    C0V18133   9.205  12.818  13.196
    1HEX    C0W18134   9.305  12.936  13.182
    1HEX    C0Y18135   8.843  13.109  13.255
    1HEX    O0Z18136   8.801  13.076  13.386
    1HEX    C1018137   8.853  13.143  13.490
    1HEX    O1118138   8.937  13.232  13.481
    1HEX    C1218139   8.791  13.101  13.623
    1HEX    C1318140   8.884  13.126  13.744
    1HEX    C1518141   8.623  13.033  13.163
    1HEX    O1618142   8.551  12.987  13.277
    1HEX    C1718143   8.430  12.928  13.258
    1HEX    O1818144   8.400  12.859  13.160
    1HEX    C1918145   8.324  12.959  13.364
    1HEX    C1A18146   8.207  13.041  13.303
    1HEX    H1D18147   9.042  12.921  12.304
    1HEX    H1E18148   8.875  12.872  12.305
    1HEX    H1F18149   8.962  13.073  12.518
    1HEX    H1G18150   9.004  12.904  12.537
    1HEX    H1H18151   8.548  12.937  12.576
    1HEX    H1I18152   8.534  13.108  12.584
    1HEX    H1J18153   8.684  13.192  12.827
    1HEX    H1K18154   8.557  13.154  12.944
    1HEX    H1M18155   8.445  13.550  12.755
    1HEX    H1N18156   8.619  13.532  12.750
    1HEX    H1O18157   8.608  13.617  13.009
    1HEX    H1P18158   8.453  13.679  12.961
    1HEX    H1R18159   8.360  12.966  12.729
    1HEX    H1S18160   8.390  12.976  12.899
    1HEX    H1T18161   8.587  12.580  12.695
    1HEX    H1U18162   8.432  12.506  12.667
    1HEX    H1V18163   8.394  12.503  12.923
    1HEX    H1W18164   8.557  12.560  12.943
    1HEX    H1Y18165   8.706  12.849  12.782
    1HEX    H1Z18166   8.643  12.872  12.934
    1HEX    H2018167   8.795  13.167  12.997
    1HEX    H2118168   8.935  13.073  13.014
    1HEX    H2218169   8.776  12.800  13.110
    1HEX    H2318170   8.807  12.838  13.276
    1HEX    H2418171   9.198  12.761  13.103
    1HEX    H2518172   9.242  12.749  13.272
    1HEX    H2618173   9.276  13.021  13.244
    1HEX    H2718174   9.305  12.972  13.079
    1HEX    H2918175   8.816  13.213  13.235
    1HEX    H2A18176   8.952  13.105  13.250
    1HEX    H2B18177   8.763  12.996  13.618
    1HEX    H2C18178   8.699  13.159  13.631
    1HEX    H2D18179   8.956  13.205  13.722
    1HEX    H2E18180   8.942  13.037  13.768
    1HEX    H2G18181   8.574  12.993  13.076
    1HEX    H2H18182   8.602  13.139  13.159
    1HEX    H2I18183   8.369  13.010  13.449
    1HEX    H2J18184   8.287  12.863  13.400
    1HEX    H2K18185   8.198  13.019  13.197
    1HEX    H2M18186   8.226  13.148  13.309
    1STR    S0018187   8.900  13.106  12.247
    1STR    S0E18188   8.636  13.800  12.858
    1STR    S0M18189   8.554  12.329  12.863
    1STR    S0X18190   9.476  12.885  13.227
    1STR    S1418191   8.789  13.183  13.890
    1STR    S1B18192   8.044  13.004  13.377
    1HEX    C0118193  13.313  17.261  16.711
    1HEX    C0218194  13.283  17.308  16.854
    1HEX    C0318195  13.134  17.315  16.882
    1HEX    O0418196  13.062  17.216  16.864
    1HEX    O0518197  13.093  17.435  16.930
    1HEX    C0618198  12.955   0.016  16.958
    1HEX    C0718199  12.916  17.438  17.107
    1HEX    C0818200  12.935   0.135  17.185
    1HEX    O0918201  12.879   0.266  17.160
    1HEX    C0A18202  12.899   0.361  17.262
    1HEX    O0B18203  12.930   0.330  17.377
    1HEX    C0C18204  12.888   0.512  17.226
    1HEX    C0D18205  12.948   0.606  17.338
    1HEX    C0F18206  12.770  17.381  17.111
    1HEX    O0G18207  12.773  17.238  17.087
    1HEX    C0H18208  12.731  17.183  16.971
    1HEX    O0I18209  12.667  17.243  16.885
    1HEX    C0J18210  12.774  17.036  16.948
    1HEX    C0K18211  12.798  16.949  17.074
    1HEX    C0N18212  13.004  17.327  17.178
    1HEX    O0O18213  13.138  17.356  17.222
    1HEX    C0P18214  13.173  17.432  17.340
    1HEX    C0Q18215  13.134  17.383   0.043
    1HEX    C0R18216  13.196  17.241   0.066
    1HEX    O0S18217  13.337  17.233   0.028
    1HEX    C0T18218  13.440  17.246   0.117
    1HEX    O0U18219  13.427  17.273   0.236
    1HEX    C0V18220  13.580  17.218   0.058
    1HEX    C0W18221  13.678  17.340   0.050
    1HEX    C0Y18222  13.199   0.041   0.143
    1HEX    O0Z18223  13.155   0.004   0.272
    1HEX    C1018224  13.202   0.066   0.379
    1HEX    O1118225  13.288   0.154   0.380
    1HEX    C1218226  13.133   0.015   0.504
    1HEX    C1318227  13.196   0.068   0.633
    1HEX    C1518228  12.977  17.401   0.062
    1HEX    O1618229  12.896  17.336   0.161
    1HEX    C1718230  12.784  17.270   0.116
    1HEX    O1818231  12.783  17.197   0.017
    1HEX    C1918232  12.652  17.303   0.189
    1HEX    C1A18233  12.549  17.366   0.090
    1HEX    H1D18234  13.408  17.207  16.708
    1HEX    H1E18235  13.237  17.191  16.675
    1HEX    H1F18236  13.330  17.404  16.877
    1HEX    H1G18237  13.323  17.236  16.926
    1HEX    H1H18238  12.896  17.391  16.893
    1HEX    H1I18239  12.929   0.117  16.924
    1HEX    H1J18240  13.041   0.157  17.173
    1HEX    H1K18241  12.916   0.113  17.289
    1HEX    H1M18242  12.783   0.534  17.208
    1HEX    H1N18243  12.941   0.528  17.132
    1HEX    H1O18244  13.055   0.590  17.345
    1HEX    H1P18245  12.908   0.576  17.435
    1HEX    H1R18246  12.704  17.432  17.041
    1HEX    H1S18247  12.725  17.395  17.209
    1HEX    H1T18248  12.865  17.039  16.888
    1HEX    H1U18249  12.699  16.990  16.884
    1HEX    H1V18250  12.713  16.956  17.142
    1HEX    H1W18251  12.884  16.986  17.129
    1HEX    H1Y18252  13.017  17.246  17.106
    1HEX    H1Z18253  12.950  17.270  17.254
    1HEX    H2018254  13.149   0.097  17.331
    1HEX    H2118255  13.282  17.433  17.335
    1HEX    H2218256  13.142  17.168   0.007
    1HEX    H2318257  13.183  17.210   0.170
    1HEX    H2418258  13.569  17.171  17.401
    1HEX    H2518259  13.624  17.143   0.124
    1HEX    H2618260  13.680  17.394   0.145
    1HEX    H2718261  13.643  17.411  17.415
    1HEX    H2918262  13.171   0.144   0.124
    1HEX    H2A18263  13.308   0.038   0.138
    1HEX    H2B18264  13.138  17.346   0.501
    1HEX    H2C18265  13.029   0.044   0.497
    1HEX    H2D18266  13.192   0.177   0.637
    1HEX    H2E18267  13.302   0.042   0.639
    1HEX    H2G18268  12.927  17.387  17.409
    1HEX    H2H18269  12.959   0.067   0.080
    1HEX    H2I18270  12.671  17.368   0.275
    1HEX    H2J18271  12.613  17.209   0.228
    1HEX    H2K18272  12.565  17.325  17.431
    1HEX    H2M18273  12.567   0.033   0.081
    1STR    S0018274  13.327  17.402  16.596
    1STR    S0E18275  12.917   0.789  17.327
    1STR    S0M18276  12.823  16.771  17.031
    1STR    S0X18277  13.851  17.289   0.006
    1STR    S1418278  13.107  17.436   0.773
    1STR    S1B18279  12.369  17.343   0.129
    1HEX    C0118280  13.334  17.284   3.677
    1HEX    C0218281  13.275  17.268   3.819
    1HEX    C0318282  13.123  17.270   3.825
    1HEX    O0418283  13.058  17.167   3.804
    1HEX    O0518284  13.075  17.388   3.868
    1HEX    C0618285  12.938  17.400   3.904
    1HEX    C0718286  12.917  17.397   4.059
    1HEX    C0818287  12.937   0.101   4.119
    1HEX    O0918288  12.878   0.227   4.080
    1HEX    C0A18289  12.906   0.337   4.163
    1HEX    O0B18290  12.942   0.325   4.280
    1HEX    C0C18291  12.896   0.478   4.100
    1HEX    C0D18292  12.863   0.598   4.198
    1HEX    C0F18293  12.777  17.330   4.086
    1HEX    O0G18294  12.791  17.186   4.099
    1HEX    C0H18295  12.739  17.097   4.012
    1HEX    O0I18296  12.658  17.124   3.924
    1HEX    C0J18297  12.797  16.954   4.026
    1HEX    C0K18298  12.779  16.882   4.163
    1HEX    C0N18299  13.022  17.301   4.130
    1HEX    O0O18300  13.152  17.350   4.166
    1HEX    C0P18301  13.177  17.428   4.286
    1HEX    C0Q18302  13.135  17.377   4.428
    1HEX    C0R18303  13.194  17.234   4.448
    1HEX    O0S18304  13.334  17.226   4.409
    1HEX    C0T18305  13.436  17.230   4.500
    1HEX    O0U18306  13.421  17.242   4.621
    1HEX    C0V18307  13.577  17.218   4.439
    1HEX    C0W18308  13.653  17.353   4.442
    1HEX    C0Y18309  13.202   0.033   4.530
    1HEX    O0Z18310  13.162   0.006   4.664
    1HEX    C1018311  13.215   0.080   4.763
    1HEX    O1118312  13.300   0.168   4.748
    1HEX    C1218313  13.156   0.048   4.901
    1HEX    C1318314  13.264   0.027   5.010
    1HEX    C1518315  12.979  17.396   4.444
    1HEX    O1618316  12.901  17.344   4.553
    1HEX    C1718317  12.782  17.282   4.522
    1HEX    O1818318  12.766  17.208   4.425
    1HEX    C1918319  12.662  17.320   4.610
    1HEX    C1A18320  12.548  17.383   4.524
    1HEX    H1D18321  13.314  17.177   3.669
    1HEX    H1E18322  13.273  17.373   3.660
    1HEX    H1F18323  13.310  17.349   3.882
    1HEX    H1G18324  13.309  17.177   3.868
    1HEX    H1H18325  12.879  17.322   3.854
    1HEX    H1I18326  12.899   0.053   3.862
    1HEX    H1J18327  13.042   0.124   4.100
    1HEX    H1K18328  12.921   0.094   4.225
    1HEX    H1M18329  12.818   0.473   4.024
    1HEX    H1N18330  12.989   0.498   4.047
    1HEX    H1O18331  12.820   0.558   4.289
    1HEX    H1P18332  12.786   0.661   4.155
    1HEX    H1R18333  12.704  17.356   4.008
    1HEX    H1S18334  12.734  17.367   4.179
    1HEX    H1T18335  12.903  16.961   4.000
    1HEX    H1U18336  12.752  16.894   3.947
    1HEX    H1V18337  12.673  16.876   4.190
    1HEX    H1W18338  12.828  16.938   4.243
    1HEX    H1Y18339  13.040  17.218   4.061
    1HEX    H1Z18340  12.982  17.243   4.213
    1HEX    H2018341  13.145   0.091   4.275
    1HEX    H2118342  13.286  17.437   4.285
    1HEX    H2218343  13.139  17.163   4.386
    1HEX    H2318344  13.180  17.201   4.551
    1HEX    H2418345  13.570  17.178   4.338
    1HEX    H2518346  13.633  17.145   4.498
    1HEX    H2618347  13.663  17.389   4.544
    1HEX    H2718348  13.592  17.427   4.390
    1HEX    H2918349  13.176   0.137   4.508
    1HEX    H2A18350  13.310   0.029   4.524
    1HEX    H2B18351  13.094  17.399   4.892
    1HEX    H2C18352  13.089   0.130   4.927
    1HEX    H2D18353  13.363   0.045   4.967
    1HEX    H2E18354  13.264  17.363   5.044
    1HEX    H2G18355  12.927  17.368   4.354
    1HEX    H2H18356  12.960   0.063   4.448
    1HEX    H2I18357  12.694  17.387   4.691
    1HEX    H2J18358  12.626  17.229   4.657
    1HEX    H2K18359  12.530  17.320   4.437
    1HEX    H2M18360  12.581   0.039   4.484
    1STR    S0018361  13.272  17.237   3.511
    1STR    S0E18362  13.001   0.711   4.252
    1STR    S0M18363  12.848  16.710   4.158
    1STR    S0X18364  13.820  17.357   4.362
    1STR    S1418365  13.247   0.138   5.154
    1STR    S1B18366  12.386  17.411   4.606
    1HEX    C0118367  13.319  17.347   7.961
    1HEX    C0218368  13.277  17.326   8.109
    1HEX    C0318369  13.128  17.312   8.138
    1HEX    O0418370  13.069  17.206   8.118
    1HEX    O0518371  13.076  17.422   8.197
    1HEX    C0618372  12.939  17.422   8.236
    1HEX    C0718373  12.917  17.402   8.389
    1HEX    C0818374  12.923   0.101   8.462
    1HEX    O0918375  12.855   0.225   8.428
    1HEX    C0A18376  12.873   0.329   8.519
    1HEX    O0B18377  12.917   0.312   8.633
    1HEX    C0C18378  12.842   0.474   8.472
    1HEX    C0D18379  12.888   0.581   8.578
    1HEX    C0F18380  12.782  17.323   8.404
    1HEX    O0G18381  12.808  17.182   8.385
    1HEX    C0H18382  12.753  17.108   8.286
    1HEX    O0I18383  12.658  17.144   8.217
    1HEX    C0J18384  12.827  16.975   8.258
    1HEX    C0K18385  12.827  16.870   8.373
    1HEX    C0N18386  13.025  17.306   8.454
    1HEX    O0O18387  13.153  17.355   8.498
    1HEX    C0P18388  13.176  17.427   8.622
    1HEX    C0Q18389  13.133  17.372   8.762
    1HEX    C0R18390  13.192  17.229   8.783
    1HEX    O0S18391  13.333  17.219   8.755
    1HEX    C0T18392  13.427  17.223   8.854
    1HEX    O0U18393  13.405  17.250   8.971
    1HEX    C0V18394  13.568  17.182   8.809
    1HEX    C0W18395  13.668  17.299   8.784
    1HEX    C0Y18396  13.195   0.028   8.867
    1HEX    O0Z18397  13.155  17.435   8.998
    1HEX    C1018398  13.211   0.060   9.102
    1HEX    O1118399  13.300   0.143   9.094
    1HEX    C1218400  13.145   0.022   9.234
    1HEX    C1318401  13.234   0.050   9.357
    1HEX    C1518402  12.977  17.382   8.777
    1HEX    O1618403  12.905  17.319   8.884
    1HEX    C1718404  12.779  17.270   8.858
    1HEX    O1818405  12.740  17.231   8.748
    1HEX    C1918406  12.683  17.272   8.977
    1HEX    C1A18407  12.550  17.348   8.946
    1HEX    H1D18408  13.400  17.278   7.939
    1HEX    H1E18409  13.360   0.007   7.948
    1HEX    H1F18410  13.315  17.408   8.171
    1HEX    H1G18411  13.323  17.236   8.148
    1HEX    H1H18412  12.884  17.348   8.178
    1HEX    H1I18413  12.896   0.077   8.204
    1HEX    H1J18414  13.027   0.132   8.451
    1HEX    H1K18415  12.902   0.083   8.566
    1HEX    H1M18416  12.735   0.482   8.452
    1HEX    H1N18417  12.893   0.491   8.377
    1HEX    H1O18418  12.997   0.577   8.586
    1HEX    H1P18419  12.852   0.552   8.677
    1HEX    H1R18420  12.704  17.361   8.337
    1HEX    H1S18421  12.741  17.335   8.505
    1HEX    H1T18422  12.929  17.002   8.231
    1HEX    H1U18423  12.783  16.931   8.169
    1HEX    H1V18424  12.726  16.831   8.390
    1HEX    H1W18425  12.858  16.916   8.467
    1HEX    H1Y18426  13.050  17.232   8.379
    1HEX    H1Z18427  12.985  17.240   8.531
    1HEX    H2018428  13.143   0.091   8.614
    1HEX    H2118429  13.284  17.436   8.623
    1HEX    H2218430  13.141  17.159   8.718
    1HEX    H2318431  13.171  17.195   8.885
    1HEX    H2418432  13.562  17.117   8.722
    1HEX    H2518433  13.606  17.120   8.890
    1HEX    H2618434  13.639  17.388   8.839
    1HEX    H2718435  13.669  17.326   8.679
    1HEX    H2918436  13.167   0.132   8.847
    1HEX    H2A18437  13.304   0.027   8.861
    1HEX    H2B18438  13.117  17.357   9.230
    1HEX    H2C18439  13.054   0.081   9.239
    1HEX    H2D18440  13.291   0.142   9.347
    1HEX    H2E18441  13.306  17.409   9.370
    1HEX    H2G18442  12.930  17.351   8.685
    1HEX    H2H18443  12.950   0.048   8.784
    1HEX    H2I18444  12.735  17.321   9.059
    1HEX    H2J18445  12.663  17.170   9.009
    1HEX    H2K18446  12.563  17.412   8.858
    1HEX    H2M18447  12.524  17.414   9.028
    1STR    S0018448  13.194  17.322   7.831
    1STR    S0E18449  12.836   0.758   8.558
    1STR    S0M18450  12.940  16.728   8.337
    1STR    S0X18451  13.839  17.251   8.835
    1STR    S1418452  13.126   0.065   9.504
    1STR    S1B18453  12.404  17.241   8.913
    1HEX    C0118454  13.355  17.290  12.385
    1HEX    C0218455  13.293  17.392  12.483
    1HEX    C0318456  13.147  17.363  12.518
    1HEX    O0418457  13.099  17.250  12.504
    1HEX    O0518458  13.083   0.030  12.569
    1HEX    C0618459  12.944   0.021  12.598
    1HEX    C0718460  12.913   0.002  12.749
    1HEX    C0818461  12.935   0.137  12.826
    1HEX    O0918462  12.883   0.269  12.798
    1HEX    C0A18463  12.912   0.366  12.895
    1HEX    O0B18464  12.945   0.337  13.011
    1HEX    C0C18465  12.907   0.516  12.854
    1HEX    C0D18466  12.971   0.611  12.963
    1HEX    C0F18467  12.767  17.384  12.759
    1HEX    O0G18468  12.770  17.241  12.740
    1HEX    C0H18469  12.716  17.179  12.633
    1HEX    O0I18470  12.643  17.233  12.551
    1HEX    C0J18471  12.761  17.033  12.615
    1HEX    C0K18472  12.749  16.942  12.741
    1HEX    C0N18473  13.007  17.331  12.814
    1HEX    O0O18474  13.139  17.363  12.862
    1HEX    C0P18475  13.169  17.436  12.984
    1HEX    C0Q18476  13.127  17.385  13.126
    1HEX    C0R18477  13.193  17.245  13.150
    1HEX    O0S18478  13.334  17.241  13.115
    1HEX    C0T18479  13.435  17.255  13.207
    1HEX    O0U18480  13.419  17.277  13.327
    1HEX    C0V18481  13.578  17.235  13.150
    1HEX    C0W18482  13.674  17.357  13.168
    1HEX    C0Y18483  13.187   0.043  13.229
    1HEX    O0Z18484  13.151   0.004  13.360
    1HEX    C1018485  13.204   0.069  13.464
    1HEX    O1118486  13.282   0.164  13.457
    1HEX    C1218487  13.159   0.011  13.597
    1HEX    C1318488  13.264   0.034  13.706
    1HEX    C1518489  12.970  17.399  13.138
    1HEX    O1618490  12.887  17.351  13.245
    1HEX    C1718491  12.769  17.291  13.210
    1HEX    O1818492  12.760  17.205  13.122
    1HEX    C1918493  12.641  17.345  13.278
    1HEX    C1A18494  12.540  17.399  13.171
    1HEX    H1D18495  13.463  17.287  12.401
    1HEX    H1E18496  13.320  17.190  12.409
    1HEX    H1F18497  13.301   0.054  12.445
    1HEX    H1G18498  13.346  17.388  12.578
    1HEX    H1H18499  12.898  17.383  12.538
    1HEX    H1I18500  12.898   0.113  12.562
    1HEX    H1J18501  13.041   0.156  12.813
    1HEX    H1K18502  12.914   0.116  12.930
    1HEX    H1M18503  12.803   0.543  12.835
    1HEX    H1N18504  12.961   0.527  12.760
    1HEX    H1O18505  13.078   0.592  12.970
    1HEX    H1P18506  12.932   0.583  13.061
    1HEX    H1R18507  12.700  17.433  12.688
    1HEX    H1S18508  12.724  17.403  12.857
    1HEX    H1T18509  12.865  17.034  12.581
    1HEX    H1U18510  12.703  16.991  12.533
    1HEX    H1V18511  12.648  16.948  12.782
    1HEX    H1W18512  12.817  16.975  12.819
    1HEX    H1Y18513  13.024  17.257  12.736
    1HEX    H1Z18514  12.956  17.266  12.885
    1HEX    H2018515  13.145   0.101  12.977
    1HEX    H2118516  13.278  17.439  12.982
    1HEX    H2218517  13.142  17.171  13.088
    1HEX    H2318518  13.178  17.212  13.253
    1HEX    H2418519  13.571  17.206  13.046
    1HEX    H2518520  13.620  17.149  13.203
    1HEX    H2618521  13.680  17.385  13.274
    1HEX    H2718522  13.634   0.004  13.116
    1HEX    H2918523  13.153   0.146  13.212
    1HEX    H2A18524  13.296   0.047  13.221
    1HEX    H2B18525  13.142  17.344  13.582
    1HEX    H2C18526  13.063   0.056  13.624
    1HEX    H2D18527  13.269   0.141  13.730
    1HEX    H2E18528  13.362   0.007  13.668
    1HEX    H2G18529  12.922  17.368  13.047
    1HEX    H2H18530  12.949   0.066  13.139
    1HEX    H2I18531  12.667  17.420  13.352
    1HEX    H2J18532  12.597  17.261  13.332
    1HEX    H2K18533  12.545  17.337  13.082
    1HEX    H2M18534  12.570   0.059  13.140
    1STR    S0018535  13.330  17.317  12.205
    1STR    S0E18536  12.943   0.795  12.953
    1STR    S0M18537  12.782  16.765  12.700
    1STR    S0X18538  13.846  17.327  13.106
    1STR    S1418539  13.229  17.378  13.856
    1STR    S1B18540  12.362  17.406  13.219
    1HEX    C0118541  13.305   4.225  16.688
    1HEX    C0218542  13.287   4.277  16.832
    1HEX    C0318543  13.154   4.233  16.891
    1HEX    O0418544  13.123   4.114  16.894
    1HEX    O0518545  13.081   4.335  16.940
    1HEX    C0618546  12.947   4.312  16.982
    1HEX    C0718547  12.930   4.307  17.137
    1HEX    C0818548  12.947   4.452  17.195
    1HEX    O0918549  12.877   4.573  17.160
    1HEX    C0A18550  12.888   4.677  17.252
    1HEX    O0B18551  12.901   4.660  17.374
    1HEX    C0C18552  12.890   4.820  17.194
    1HEX    C0D18553  12.881   4.937  17.299
    1HEX    C0F18554  12.791   4.239  17.166
    1HEX    O0G18555  12.805   4.095  17.182
    1HEX    C0H18556  12.763   4.006  17.090
    1HEX    O0I18557  12.693   4.033  16.993
    1HEX    C0J18558  12.819   3.863  17.109
    1HEX    C0K18559  12.805   3.795  17.249
    1HEX    C0N18560  13.038   4.215  17.206
    1HEX    O0O18561  13.166   4.269  17.245
    1HEX    C0P18562  13.187   4.346  17.365
    1HEX    C0Q18563  13.140   4.298   0.067
    1HEX    C0R18564  13.191   4.153   0.091
    1HEX    O0S18565  13.332   4.139   0.061
    1HEX    C0T18566  13.427   4.144   0.158
    1HEX    O0U18567  13.406   4.167   0.277
    1HEX    C0V18568  13.568   4.113   0.107
    1HEX    C0W18569  13.657   4.238   0.080
    1HEX    C0Y18570  13.203   4.393   0.172
    1HEX    O0Z18571  13.159   4.361   0.303
    1HEX    C1018572  13.207   4.432   0.407
    1HEX    O1118573  13.290   4.522   0.398
    1HEX    C1218574  13.144   4.391   0.540
    1HEX    C1318575  13.241   4.400   0.660
    1HEX    C1518576  12.985   4.315   0.078
    1HEX    O1618577  12.912   4.263   0.189
    1HEX    C1718578  12.792   4.206   0.164
    1HEX    O1818579  12.766   4.134   0.067
    1HEX    C1918580  12.682   4.245   0.263
    1HEX    C1A18581  12.571   4.330   0.195
    1HEX    H1D18582  13.408   4.193  16.672
    1HEX    H1E18583  13.244   4.136  16.671
    1HEX    H1F18584  13.296   4.385  16.837
    1HEX    H1G18585  13.363   4.235  16.896
    1HEX    H1H18586  12.908   4.221  16.936
    1HEX    H1I18587  12.886   4.392  16.940
    1HEX    H1J18588  13.050   4.480  17.173
    1HEX    H1K18589  12.937   4.442  17.302
    1HEX    H1M18590  12.810   4.830  17.121
    1HEX    H1N18591  12.984   4.829  17.139
    1HEX    H1O18592  12.883   4.901  17.402
    1HEX    H1P18593  12.785   4.987  17.290
    1HEX    H1R18594  12.717   4.263  17.089
    1HEX    H1S18595  12.748   4.277  17.259
    1HEX    H1T18596  12.924   3.866  17.080
    1HEX    H1U18597  12.770   3.800  17.034
    1HEX    H1V18598  12.701   3.794  17.281
    1HEX    H1W18599  12.860   3.852  17.324
    1HEX    H1Y18600  13.060   4.135  17.135
    1HEX    H1Z18601  13.000   4.156  17.288
    1HEX    H2018602  13.157   4.450  17.351
    1HEX    H2118603  13.296   4.354  17.369
    1HEX    H2218604  13.137   4.084   0.027
    1HEX    H2318605  13.169   4.122   0.193
    1HEX    H2418606  13.559   4.052   0.018
    1HEX    H2518607  13.614   4.050   0.183
    1HEX    H2618608  13.606   4.330   0.107
    1HEX    H2718609  13.678   4.244  17.413
    1HEX    H2918610  13.176   4.497   0.151
    1HEX    H2A18611  13.312   4.389   0.168
    1HEX    H2B18612  13.105   4.290   0.531
    1HEX    H2C18613  13.059   4.457   0.554
    1HEX    H2D18614  13.331   4.456   0.633
    1HEX    H2E18615  13.276   4.301   0.690
    1HEX    H2G18616  12.936   4.280  17.429
    1HEX    H2H18617  12.963   4.422   0.079
    1HEX    H2I18618  12.728   4.300   0.345
    1HEX    H2J18619  12.642   4.153   0.305
    1HEX    H2K18620  12.593   4.350   0.090
    1HEX    H2M18621  12.562   4.428   0.243
    1STR    S0018622  13.262   4.345  16.559
    1STR    S0E18623  13.015   5.065  17.288
    1STR    S0M18624  12.869   3.621  17.243
    1STR    S0X18625  13.817   4.230   0.172
    1STR    S1418626  13.168   4.486   0.804
    1STR    S1B18627  12.409   4.248   0.204
    1HEX    C0118628  13.244   4.203   3.575
    1HEX    C0218629  13.260   4.255   3.719
    1HEX    C0318630  13.130   4.236   3.795
    1HEX    O0418631  13.077   4.125   3.799
    1HEX    O0518632  13.082   4.349   3.849
    1HEX    C0618633  12.945   4.355   3.885
    1HEX    C0718634  12.915   4.337   4.036
    1HEX    C0818635  12.926   4.477   4.110
    1HEX    O0918636  12.867   4.605   4.080
    1HEX    C0A18637  12.889   4.706   4.176
    1HEX    O0B18638  12.927   4.681   4.291
    1HEX    C0C18639  12.871   4.854   4.135
    1HEX    C0D18640  12.914   4.955   4.250
    1HEX    C0F18641  12.776   4.264   4.045
    1HEX    O0G18642  12.797   4.122   4.024
    1HEX    C0H18643  12.734   4.049   3.930
    1HEX    O0I18644  12.636   4.086   3.865
    1HEX    C0J18645  12.804   3.914   3.899
    1HEX    C0K18646  12.800   3.804   4.010
    1HEX    C0N18647  13.016   4.236   4.106
    1HEX    O0O18648  13.148   4.277   4.144
    1HEX    C0P18649  13.178   4.351   4.264
    1HEX    C0Q18650  13.138   4.299   4.406
    1HEX    C0R18651  13.198   4.156   4.426
    1HEX    O0S18652  13.338   4.146   4.389
    1HEX    C0T18653  13.440   4.155   4.479
    1HEX    O0U18654  13.426   4.184   4.598
    1HEX    C0V18655  13.579   4.118   4.424
    1HEX    C0W18656  13.679   4.236   4.404
    1HEX    C0Y18657  13.204   4.395   4.507
    1HEX    O0Z18658  13.160   4.362   4.637
    1HEX    C1018659  13.208   4.430   4.740
    1HEX    O1118660  13.295   4.517   4.737
    1HEX    C1218661  13.137   4.391   4.868
    1HEX    C1318662  13.211   4.434   4.995
    1HEX    C1518663  12.982   4.314   4.425
    1HEX    O1618664  12.905   4.245   4.525
    1HEX    C1718665  12.786   4.189   4.485
    1HEX    O1818666  12.768   4.132   4.377
    1HEX    C1918667  12.668   4.210   4.581
    1HEX    C1A18668  12.546   4.279   4.512
    1HEX    H1D18669  13.318   4.127   3.552
    1HEX    H1E18670  13.146   4.156   3.561
    1HEX    H1F18671  13.289   4.360   3.723
    1HEX    H1G18672  13.337   4.198   3.772
    1HEX    H1H18673  12.890   4.282   3.826
    1HEX    H1I18674  12.906   4.451   3.851
    1HEX    H1J18675  13.031   4.503   4.099
    1HEX    H1K18676  12.905   4.459   4.214
    1HEX    H1M18677  12.767   4.870   4.107
    1HEX    H1N18678  12.931   4.872   4.046
    1HEX    H1O18679  13.020   4.941   4.272
    1HEX    H1P18680  12.863   4.928   4.342
    1HEX    H1R18681  12.703   4.306   3.975
    1HEX    H1S18682  12.731   4.277   4.144
    1HEX    H1T18683  12.907   3.938   3.875
    1HEX    H1U18684  12.760   3.875   3.807
    1HEX    H1V18685  12.697   3.771   4.028
    1HEX    H1W18686  12.836   3.844   4.104
    1HEX    H1Y18687  13.034   4.156   4.035
    1HEX    H1Z18688  12.970   4.175   4.184
    1HEX    H2018689  13.149   4.456   4.256
    1HEX    H2118690  13.287   4.357   4.261
    1HEX    H2218691  13.142   4.085   4.365
    1HEX    H2318692  13.183   4.124   4.529
    1HEX    H2418693  13.567   4.061   4.332
    1HEX    H2518694  13.621   4.050   4.497
    1HEX    H2618695  13.674   4.307   4.487
    1HEX    H2718696  13.653   4.293   4.314
    1HEX    H2918697  13.177   4.499   4.486
    1HEX    H2A18698  13.313   4.392   4.501
    1HEX    H2B18699  13.124   4.282   4.867
    1HEX    H2C18700  13.038   4.436   4.864
    1HEX    H2D18701  13.237   4.540   4.993
    1HEX    H2E18702  13.305   4.380   5.004
    1HEX    H2G18703  12.931   4.298   4.333
    1HEX    H2H18704  12.961   4.420   4.443
    1HEX    H2I18705  12.702   4.269   4.666
    1HEX    H2J18706  12.640   4.112   4.621
    1HEX    H2K18707  12.569   4.302   4.408
    1HEX    H2M18708  12.523   4.374   4.559
    1STR    S0018709  13.252   4.334   3.449
    1STR    S0E18710  12.883   5.136   4.225
    1STR    S0M18711  12.903   3.657   3.964
    1STR    S0X18712  13.852   4.174   4.386
    1STR    S1418713  13.104   4.399   5.138
    1STR    S1B18714  12.392   4.177   4.510
    1HEX    C0118715  13.260   4.201   7.996
    1HEX    C0218716  13.253   4.201   8.150
    1HEX    C0318717  13.108   4.208   8.193
    1HEX    O0418718  13.036   4.108   8.183
    1HEX    O0518719  13.070   4.329   8.236
    1HEX    C0618720  12.932   4.354   8.263
    1HEX    C0718721  12.894   4.347   8.413
    1HEX    C0818722  12.916   4.487   8.482
    1HEX    O0918723  12.875   4.618   8.437
    1HEX    C0A18724  12.905   4.725   8.524
    1HEX    O0B18725  12.928   4.711   8.644
    1HEX    C0C18726  12.916   4.866   8.460
    1HEX    C0D18727  12.878   4.989   8.551
    1HEX    C0F18728  12.747   4.292   8.419
    1HEX    O0G18729  12.748   4.148   8.404
    1HEX    C0H18730  12.701   4.085   8.294
    1HEX    O0I18731  12.632   4.138   8.207
    1HEX    C0J18732  12.746   3.938   8.281
    1HEX    C0K18733  12.730   3.850   8.408
    1HEX    C0N18734  12.980   4.238   8.491
    1HEX    O0O18735  13.116   4.266   8.530
    1HEX    C0P18736  13.155   4.346   8.644
    1HEX    C0Q18737  13.119   4.303   8.790
    1HEX    C0R18738  13.177   4.160   8.815
    1HEX    O0S18739  13.315   4.149   8.772
    1HEX    C0T18740  13.422   4.158   8.857
    1HEX    O0U18741  13.414   4.175   8.979
    1HEX    C0V18742  13.560   4.146   8.787
    1HEX    C0W18743  13.676   4.221   8.860
    1HEX    C0Y18744  13.191   4.401   8.886
    1HEX    O0Z18745  13.158   4.378   9.022
    1HEX    C1018746  13.219   4.453   9.116
    1HEX    O1118747  13.304   4.539   9.095
    1HEX    C1218748  13.171   4.422   9.258
    1HEX    C1318749  13.285   4.371   9.349
    1HEX    C1518750  12.964   4.328   8.810
    1HEX    O1618751  12.877   4.257   8.900
    1HEX    C1718752  12.748   4.229   8.855
    1HEX    O1818753  12.719   4.201   8.739
    1HEX    C1918754  12.637   4.240   8.961
    1HEX    C1A18755  12.529   4.349   8.931
    1HEX    H1D18756  13.342   4.140   7.959
    1HEX    H1E18757  13.169   4.160   7.952
    1HEX    H1F18758  13.308   4.283   8.195
    1HEX    H1G18759  13.294   4.109   8.190
    1HEX    H1H18760  12.871   4.286   8.203
    1HEX    H1I18761  12.907   4.453   8.223
    1HEX    H1J18762  13.023   4.501   8.475
    1HEX    H1K18763  12.887   4.480   8.586
    1HEX    H1M18764  12.850   4.864   8.373
    1HEX    H1N18765  13.017   4.878   8.421
    1HEX    H1O18766  12.812   4.953   8.630
    1HEX    H1P18767  12.818   5.060   8.494
    1HEX    H1R18768  12.682   4.340   8.346
    1HEX    H1S18769  12.701   4.314   8.516
    1HEX    H1T18770  12.851   3.938   8.250
    1HEX    H1U18771  12.691   3.894   8.198
    1HEX    H1V18772  12.629   3.861   8.448
    1HEX    H1W18773  12.798   3.883   8.486
    1HEX    H1Y18774  12.990   4.153   8.424
    1HEX    H1Z18775  12.925   4.189   8.571
    1HEX    H2018776  13.132   4.451   8.633
    1HEX    H2118777  13.264   4.345   8.636
    1HEX    H2218778  13.119   4.087   8.759
    1HEX    H2318779  13.166   4.131   8.920
    1HEX    H2418780  13.548   4.182   8.685
    1HEX    H2518781  13.584   4.040   8.779
    1HEX    H2618782  13.641   4.316   8.898
    1HEX    H2718783  13.707   4.164   8.947
    1HEX    H2918784  13.166   4.505   8.861
    1HEX    H2A18785  13.299   4.395   8.873
    1HEX    H2B18786  13.091   4.347   9.253
    1HEX    H2C18787  13.126   4.513   9.297
    1HEX    H2D18788  13.380   4.378   9.295
    1HEX    H2E18789  13.271   4.266   9.373
    1HEX    H2G18790  12.917   4.326   8.714
    1HEX    H2H18791  12.950   4.433   8.836
    1HEX    H2I18792  12.687   4.263   9.055
    1HEX    H2J18793  12.591   4.142   8.974
    1HEX    H2K18794  12.576   4.435   8.882
    1HEX    H2M18795  12.491   4.386   9.026
    1STR    S0018796  13.278   4.372   7.941
    1STR    S0E18797  13.010   5.089   8.636
    1STR    S0M18798  12.757   3.671   8.371
    1STR    S0X18799  13.825   4.255   8.755
    1STR    S1418800  13.307   4.466   9.504
    1STR    S1B18801  12.384   4.300   8.827
    1HEX    C0118802  13.317   4.214  12.329
    1HEX    C0218803  13.280   4.268  12.469
    1HEX    C0318804  13.143   4.225  12.517
    1HEX    O0418805  13.106   4.107  12.512
    1HEX    O0518806  13.072   4.328  12.568
    1HEX    C0618807  12.939   4.308  12.613
    1HEX    C0718808  12.926   4.301  12.768
    1HEX    C0818809  12.933   4.447  12.828
    1HEX    O0918810  12.865   4.567  12.784
    1HEX    C0A18811  12.882   4.678  12.868
    1HEX    O0B18812  12.920   4.669  12.985
    1HEX    C0C18813  12.857   4.820  12.808
    1HEX    C0D18814  12.905   4.934  12.906
    1HEX    C0F18815  12.795   4.220  12.799
    1HEX    O0G18816  12.823   4.078  12.806
    1HEX    C0H18817  12.783   3.990  12.711
    1HEX    O0I18818  12.703   4.016  12.622
    1HEX    C0J18819  12.854   3.852  12.716
    1HEX    C0K18820  12.871   3.781  12.854
    1HEX    C0N18821  13.043   4.216  12.834
    1HEX    O0O18822  13.166   4.277  12.873
    1HEX    C0P18823  13.184   4.350  12.997
    1HEX    C0Q18824  13.138   4.294  13.136
    1HEX    C0R18825  13.196   4.151  13.157
    1HEX    O0S18826  13.337   4.142  13.129
    1HEX    C0T18827  13.430   4.144  13.229
    1HEX    O0U18828  13.407   4.166  13.347
    1HEX    C0V18829  13.572   4.110  13.182
    1HEX    C0W18830  13.661   4.232  13.146
    1HEX    C0Y18831  13.199   4.389  13.243
    1HEX    O0Z18832  13.158   4.354  13.374
    1HEX    C1018833  13.213   4.418  13.478
    1HEX    O1118834  13.299   4.506  13.469
    1HEX    C1218835  13.152   4.376  13.611
    1HEX    C1318836  13.241   4.409  13.733
    1HEX    C1518837  12.982   4.305  13.148
    1HEX    O1618838  12.912   4.254  13.262
    1HEX    C1718839  12.786   4.203  13.243
    1HEX    O1818840  12.747   4.149  13.140
    1HEX    C1918841  12.690   4.222  13.361
    1HEX    C1A18842  12.564   4.304  13.318
    1HEX    H1D18843  13.334   4.107  12.335
    1HEX    H1E18844  13.410   4.260  12.295
    1HEX    H1F18845  13.284   4.377  12.470
    1HEX    H1G18846  13.352   4.234  12.543
    1HEX    H1H18847  12.896   4.219  12.566
    1HEX    H1I18848  12.879   4.391  12.575
    1HEX    H1J18849  13.036   4.478  12.814
    1HEX    H1K18850  12.913   4.437  12.934
    1HEX    H1M18851  12.751   4.830  12.785
    1HEX    H1N18852  12.911   4.827  12.714
    1HEX    H1O18853  13.012   4.924  12.921
    1HEX    H1P18854  12.861   4.918  13.005
    1HEX    H1R18855  12.715   4.243  12.728
    1HEX    H1S18856  12.754   4.250  12.896
    1HEX    H1T18857  12.951   3.865  12.668
    1HEX    H1U18858  12.797   3.787  12.649
    1HEX    H1V18859  12.776   3.780  12.908
    1HEX    H1W18860  12.941   3.836  12.916
    1HEX    H1Y18861  13.070   4.140  12.761
    1HEX    H1Z18862  13.010   4.152  12.915
    1HEX    H2018863  13.148   4.452  12.987
    1HEX    H2118864  13.292   4.363  13.001
    1HEX    H2218865  13.145   4.081  13.091
    1HEX    H2318866  13.174   4.117  13.258
    1HEX    H2418867  13.566   4.040  13.098
    1HEX    H2518868  13.617   4.054  13.264
    1HEX    H2618869  13.611   4.325  13.170
    1HEX    H2718870  13.679   4.233  13.039
    1HEX    H2918871  13.169   4.493  13.225
    1HEX    H2A18872  13.308   4.389  13.237
    1HEX    H2B18873  13.131   4.269  13.608
    1HEX    H2C18874  13.057   4.428  13.618
    1HEX    H2D18875  13.302   4.497  13.713
    1HEX    H2E18876  13.311   4.328  13.754
    1HEX    H2G18877  12.935   4.265  13.060
    1HEX    H2H18878  12.956   4.411  13.146
    1HEX    H2I18879  12.742   4.271  13.443
    1HEX    H2J18880  12.661   4.123  13.396
    1HEX    H2K18881  12.566   4.324  13.211
    1HEX    H2M18882  12.562   4.402  13.366
    1STR    S0018883  13.191   4.242  12.201
    1STR    S0E18884  12.868   5.111  12.863
    1STR    S0M18885  12.930   3.607  12.832
    1STR    S0X18886  13.823   4.229  13.235
    1STR    S1418887  13.139   4.448  13.880
    1STR    S1B18888  12.404   4.220  13.351
    1HEX    C0118889  13.312   8.578  16.703
    1HEX    C0218890  13.284   8.610  16.851
    1HEX    C0318891  13.135   8.607  16.882
    1HEX    O0418892  13.071   8.503  16.867
    1HEX    O0518893  13.088   8.724  16.930
    1HEX    C0618894  12.950   8.736  16.963
    1HEX    C0718895  12.920   8.722  17.115
    1HEX    C0818896  12.946   8.861  17.186
    1HEX    O0918897  12.887   8.991  17.163
    1HEX    C0A18898  12.907   9.087  17.264
    1HEX    O0B18899  12.935   9.057  17.380
    1HEX    C0C18900  12.899   9.237  17.226
    1HEX    C0D18901  12.966   9.331  17.334
    1HEX    C0F18902  12.774   8.666  17.130
    1HEX    O0G18903  12.775   8.522  17.119
    1HEX    C0H18904  12.739   8.458  17.006
    1HEX    O0I18905  12.676   8.510  16.914
    1HEX    C0J18906  12.791   8.313  16.992
    1HEX    C0K18907  12.817   8.230  17.121
    1HEX    C0N18908  13.012   8.612  17.182
    1HEX    O0O18909  13.146   8.644  17.222
    1HEX    C0P18910  13.178   8.718  17.342
    1HEX    C0Q18911  13.135   8.667   0.044
    1HEX    C0R18912  13.197   8.526   0.066
    1HEX    O0S18913  13.338   8.518   0.029
    1HEX    C0T18914  13.441   8.531   0.119
    1HEX    O0U18915  13.427   8.554   0.239
    1HEX    C0V18916  13.582   8.508   0.060
    1HEX    C0W18917  13.678   8.631   0.063
    1HEX    C0Y18918  13.200   8.764   0.145
    1HEX    O0Z18919  13.155   8.725   0.273
    1HEX    C1018920  13.203   8.784   0.381
    1HEX    O1118921  13.287   8.874   0.384
    1HEX    C1218922  13.137   8.729   0.506
    1HEX    C1318923  13.210   8.768   0.634
    1HEX    C1518924  12.978   8.686   0.061
    1HEX    O1618925  12.895   8.621   0.158
    1HEX    C1718926  12.782   8.558   0.112
    1HEX    O1818927  12.780   8.486   0.012
    1HEX    C1918928  12.649   8.595   0.182
    1HEX    C1A18929  12.548   8.660   0.082
    1HEX    H1D18930  13.412   8.539  16.690
    1HEX    H1E18931  13.244   8.499  16.667
    1HEX    H1F18932  13.327   8.705  16.881
    1HEX    H1G18933  13.329   8.534  16.914
    1HEX    H1H18934  12.892   8.663  16.904
    1HEX    H1I18935  12.914   8.832  16.926
    1HEX    H1J18936  13.051   8.882  17.167
    1HEX    H1K18937  12.934   8.841  17.292
    1HEX    H1M18938  12.794   9.263  17.212
    1HEX    H1N18939  12.948   9.251  17.129
    1HEX    H1O18940  13.074   9.313  17.336
    1HEX    H1P18941  12.931   9.301  17.433
    1HEX    H1R18942  12.705   8.712  17.059
    1HEX    H1S18943  12.734   8.690  17.229
    1HEX    H1T18944  12.884   8.321  16.935
    1HEX    H1U18945  12.722   8.260  16.927
    1HEX    H1V18946  12.723   8.206  17.170
    1HEX    H1W18947  12.876   8.285  17.194
    1HEX    H1Y18948  13.024   8.532  17.109
    1HEX    H1Z18949  12.963   8.553  17.259
    1HEX    H2018950  13.154   8.823  17.334
    1HEX    H2118951  13.287   8.719  17.340
    1HEX    H2218952  13.143   8.453   0.006
    1HEX    H2318953  13.183   8.493   0.170
    1HEX    H2418954  13.572   8.467  17.400
    1HEX    H2518955  13.626   8.428   0.121
    1HEX    H2618956  13.682   8.674   0.163
    1HEX    H2718957  13.640   8.709  17.438
    1HEX    H2918958  13.172   8.868   0.128
    1HEX    H2A18959  13.309   8.762   0.141
    1HEX    H2B18960  13.134   8.620   0.495
    1HEX    H2C18961  13.034   8.764   0.508
    1HEX    H2D18962  13.204   8.876   0.648
    1HEX    H2E18963  13.316   8.744   0.627
    1HEX    H2G18964  12.927   8.675  17.408
    1HEX    H2H18965  12.961   8.792   0.081
    1HEX    H2I18966  12.668   8.659   0.269
    1HEX    H2J18967  12.607   8.502   0.220
    1HEX    H2K18968  12.565   8.618  17.423
    1HEX    H2M18969  12.570   8.767   0.072
    1STR    S0018970  13.296   8.727  16.599
    1STR    S0E18971  12.937   9.514  17.325
    1STR    S0M18972  12.903   8.073  17.076
    1STR    S0X18973  13.850   8.589   0.009
    1STR    S1418974  13.136   8.678   0.773
    1STR    S1B18975  12.368   8.642   0.117
    1HEX    C0118976  13.277   8.476   3.643
    1HEX    C0218977  13.263   8.550   3.778
    1HEX    C0318978  13.119   8.547   3.828
    1HEX    O0418979  13.057   8.440   3.833
    1HEX    O0518980  13.074   8.667   3.868
    1HEX    C0618981  12.937   8.681   3.907
    1HEX    C0718982  12.914   8.681   4.061
    1HEX    C0818983  12.937   8.825   4.119
    1HEX    O0918984  12.873   8.949   4.084
    1HEX    C0A18985  12.894   9.056   4.172
    1HEX    O0B18986  12.925   9.042   4.291
    1HEX    C0C18987  12.884   9.198   4.112
    1HEX    C0D18988  12.858   9.315   4.215
    1HEX    C0F18989  12.770   8.620   4.085
    1HEX    O0G18990  12.780   8.476   4.098
    1HEX    C0H18991  12.730   8.388   4.009
    1HEX    O0I18992  12.646   8.414   3.924
    1HEX    C0J18993  12.797   8.249   4.018
    1HEX    C0K18994  12.741   8.151   4.125
    1HEX    C0N18995  13.014   8.583   4.136
    1HEX    O0O18996  13.145   8.629   4.172
    1HEX    C0P18997  13.173   8.708   4.290
    1HEX    C0Q18998  13.130   8.661   4.432
    1HEX    C0R18999  13.182   8.516   4.455
    1HEX    O0S19000  13.320   8.496   4.417
    1HEX    C0T19001  13.423   8.502   4.507
    1HEX    O0U19002  13.412   8.536   4.624
    1HEX    C0V19003  13.559   8.453   4.452
    1HEX    C0W19004  13.664   8.565   4.424
    1HEX    C0Y19005  13.199   8.756   4.534
    1HEX    O0Z19006  13.158   8.728   4.667
    1HEX    C1019007  13.206   8.802   4.767
    1HEX    O1119008  13.287   8.894   4.755
    1HEX    C1219009  13.146   8.765   4.903
    1HEX    C1319010  13.251   8.756   5.016
    1HEX    C1519011  12.975   8.684   4.450
    1HEX    O1619012  12.899   8.625   4.557
    1HEX    C1719013  12.788   8.552   4.523
    1HEX    O1819014  12.781   8.478   4.426
    1HEX    C1919015  12.665   8.577   4.611
    1HEX    C1A19016  12.553   8.648   4.529
    1HEX    H1D19017  13.347   8.394   3.652
    1HEX    H1E19018  13.182   8.432   3.611
    1HEX    H1F19019  13.295   8.654   3.771
    1HEX    H1G19020  13.325   8.503   3.854
    1HEX    H1H19021  12.878   8.603   3.858
    1HEX    H1I19022  12.899   8.774   3.864
    1HEX    H1J19023  13.041   8.848   4.098
    1HEX    H1K19024  12.926   8.816   4.226
    1HEX    H1M19025  12.805   9.196   4.038
    1HEX    H1N19026  12.977   9.217   4.058
    1HEX    H1O19027  12.828   9.273   4.312
    1HEX    H1P19028  12.772   9.373   4.183
    1HEX    H1R19029  12.700   8.648   4.006
    1HEX    H1S19030  12.727   8.658   4.178
    1HEX    H1T19031  12.903   8.267   4.035
    1HEX    H1U19032  12.791   8.204   3.919
    1HEX    H1V19033  12.640   8.119   4.099
    1HEX    H1W19034  12.735   8.199   4.222
    1HEX    H1Y19035  13.030   8.498   4.071
    1HEX    H1Z19036  12.970   8.531   4.221
    1HEX    H2019037  13.145   8.812   4.276
    1HEX    H2119038  13.282   8.713   4.289
    1HEX    H2219039  13.122   8.447   4.395
    1HEX    H2319040  13.166   8.486   4.558
    1HEX    H2419041  13.542   8.392   4.363
    1HEX    H2519042  13.597   8.386   4.528
    1HEX    H2619043  13.635   8.658   4.473
    1HEX    H2719044  13.669   8.586   4.317
    1HEX    H2919045  13.175   8.860   4.512
    1HEX    H2A19046  13.308   8.749   4.527
    1HEX    H2B19047  13.094   8.670   4.893
    1HEX    H2C19048  13.070   8.840   4.925
    1HEX    H2D19049  13.348   8.788   4.978
    1HEX    H2E19050  13.263   8.653   5.049
    1HEX    H2G19051  12.921   8.663   4.360
    1HEX    H2H19052  12.958   8.791   4.461
    1HEX    H2I19053  12.692   8.634   4.699
    1HEX    H2J19054  12.629   8.480   4.645
    1HEX    H2K19055  12.546   8.605   4.429
    1HEX    H2M19056  12.578   8.753   4.514
    1STR    S0019057  13.335   8.588   3.513
    1STR    S0E19058  12.998   9.432   4.249
    1STR    S0M19059  12.848   8.000   4.138
    1STR    S0X19060  13.834   8.521   4.482
    1STR    S1419061  13.211   8.861   5.160
    1STR    S1B19062  12.385   8.641   4.604
    1HEX    C0119063  13.324   8.637   7.966
    1HEX    C0219064  13.286   8.610   8.114
    1HEX    C0319065  13.137   8.597   8.140
    1HEX    O0419066  13.076   8.494   8.113
    1HEX    O0519067  13.086   8.706   8.201
    1HEX    C0619068  12.949   8.708   8.238
    1HEX    C0719069  12.926   8.685   8.390
    1HEX    C0819070  12.926   8.823   8.466
    1HEX    O0919071  12.868   8.950   8.425
    1HEX    C0A19072  12.879   9.053   8.518
    1HEX    O0B19073  12.898   9.034   8.639
    1HEX    C0C19074  12.873   9.199   8.466
    1HEX    C0D19075  12.881   9.306   8.581
    1HEX    C0F19076  12.793   8.601   8.404
    1HEX    O0G19077  12.824   8.460   8.394
    1HEX    C0H19078  12.778   8.378   8.297
    1HEX    O0I19079  12.683   8.404   8.223
    1HEX    C0J19080  12.861   8.249   8.280
    1HEX    C0K19081  12.857   8.144   8.395
    1HEX    C0N19082  13.037   8.591   8.455
    1HEX    O0O19083  13.163   8.644   8.498
    1HEX    C0P19084  13.185   8.711   8.624
    1HEX    C0Q19085  13.138   8.653   8.762
    1HEX    C0R19086  13.197   8.510   8.782
    1HEX    O0S19087  13.338   8.499   8.751
    1HEX    C0T19088  13.434   8.505   8.847
    1HEX    O0U19089  13.414   8.533   8.965
    1HEX    C0V19090  13.574   8.463   8.800
    1HEX    C0W19091  13.675   8.579   8.775
    1HEX    C0Y19092  13.200   8.748   8.867
    1HEX    O0Z19093  13.157   8.716   8.998
    1HEX    C1019094  13.210   8.783   9.101
    1HEX    O1119095  13.300   8.866   9.094
    1HEX    C1219096  13.141   8.748   9.232
    1HEX    C1319097  13.227   8.778   9.356
    1HEX    C1519098  12.982   8.664   8.774
    1HEX    O1619099  12.905   8.595   8.875
    1HEX    C1719100  12.782   8.545   8.840
    1HEX    O1819101  12.750   8.508   8.727
    1HEX    C1919102  12.678   8.540   8.953
    1HEX    C1A19103  12.545   8.615   8.919
    1HEX    H1D19104  13.291   8.534   7.949
    1HEX    H1E19105  13.279   8.735   7.969
    1HEX    H1F19106  13.325   8.688   8.178
    1HEX    H1G19107  13.332   8.518   8.150
    1HEX    H1H19108  12.893   8.636   8.178
    1HEX    H1I19109  12.907   8.805   8.208
    1HEX    H1J19110  13.030   8.853   8.466
    1HEX    H1K19111  12.893   8.806   8.568
    1HEX    H1M19112  12.783   9.212   8.405
    1HEX    H1N19113  12.958   9.212   8.399
    1HEX    H1O19114  12.968   9.287   8.644
    1HEX    H1P19115  12.795   9.294   8.647
    1HEX    H1R19116  12.717   8.631   8.332
    1HEX    H1S19117  12.747   8.617   8.501
    1HEX    H1T19118  12.964   8.281   8.261
    1HEX    H1U19119  12.829   8.201   8.187
    1HEX    H1V19120  12.759   8.097   8.400
    1HEX    H1W19121  12.871   8.193   8.492
    1HEX    H1Y19122  13.063   8.517   8.379
    1HEX    H1Z19123  13.000   8.525   8.532
    1HEX    H2019124  13.156   8.815   8.618
    1HEX    H2119125  13.294   8.718   8.627
    1HEX    H2219126  13.144   8.441   8.717
    1HEX    H2319127  13.177   8.476   8.883
    1HEX    H2419128  13.566   8.399   8.712
    1HEX    H2519129  13.613   8.400   8.880
    1HEX    H2619130  13.657   8.663   8.843
    1HEX    H2719131  13.664   8.618   8.674
    1HEX    H2919132  13.172   8.852   8.848
    1HEX    H2A19133  13.309   8.746   8.863
    1HEX    H2B19134  13.113   8.643   9.230
    1HEX    H2C19135  13.049   8.807   9.234
    1HEX    H2D19136  13.278   8.874   9.350
    1HEX    H2E19137  13.305   8.702   9.366
    1HEX    H2G19138  12.937   8.640   8.680
    1HEX    H2H19139  12.956   8.770   8.787
    1HEX    H2I19140  12.724   8.587   9.040
    1HEX    H2J19141  12.658   8.437   8.981
    1HEX    H2K19142  12.563   8.693   8.845
    1HEX    H2M19143  12.509   8.668   9.008
    1STR    S0019144  13.222   8.620   7.814
    1STR    S0E19145  12.886   9.484   8.531
    1STR    S0M19146  12.987   8.012   8.377
    1STR    S0X19147  13.848   8.519   8.798
    1STR    S1419148  13.117   8.777   9.502
    1STR    S1B19149  12.405   8.512   8.858
    1HEX    C0119150  13.375   8.612  12.407
    1HEX    C0219151  13.298   8.703  12.504
    1HEX    C0319152  13.152   8.663  12.524
    1HEX    O0419153  13.113   8.548  12.500
    1HEX    O0519154  13.078   8.763  12.575
    1HEX    C0619155  12.940   8.743  12.599
    1HEX    C0719156  12.909   8.721  12.749
    1HEX    C0819157  12.927   8.856  12.827
    1HEX    O0919158  12.877   8.988  12.796
    1HEX    C0A19159  12.906   9.086  12.891
    1HEX    O0B19160  12.942   9.060  13.006
    1HEX    C0C19161  12.899   9.235  12.847
    1HEX    C0D19162  12.973   9.332  12.948
    1HEX    C0F19163  12.764   8.660  12.758
    1HEX    O0G19164  12.769   8.516  12.750
    1HEX    C0H19165  12.729   8.445  12.643
    1HEX    O0I19166  12.659   8.488  12.552
    1HEX    C0J19167  12.784   8.301  12.641
    1HEX    C0K19168  12.679   8.190  12.666
    1HEX    C0N19169  13.006   8.612  12.813
    1HEX    O0O19170  13.137   8.647  12.864
    1HEX    C0P19171  13.164   8.716  12.988
    1HEX    C0Q19172  13.124   8.661  13.129
    1HEX    C0R19173  13.193   8.523  13.151
    1HEX    O0S19174  13.334   8.521  13.117
    1HEX    C0T19175  13.434   8.532  13.211
    1HEX    O0U19176  13.416   8.553  13.330
    1HEX    C0V19177  13.577   8.511  13.156
    1HEX    C0W19178  13.671   8.634  13.173
    1HEX    C0Y19179  13.181   8.761  13.233
    1HEX    O0Z19180  13.151   8.720  13.365
    1HEX    C1019181  13.205   8.788  13.467
    1HEX    O1119182  13.277   8.887  13.455
    1HEX    C1219183  13.169   8.730  13.603
    1HEX    C1319184  13.275   8.767  13.708
    1HEX    C1519185  12.966   8.668  13.139
    1HEX    O1619186  12.885   8.633  13.252
    1HEX    C1719187  12.764   8.573  13.226
    1HEX    O1819188  12.749   8.483  13.144
    1HEX    C1919189  12.641   8.634  13.296
    1HEX    C1A19190  12.539   8.691  13.192
    1HEX    H1D19191  13.481   8.617  12.430
    1HEX    H1E19192  13.347   8.508  12.425
    1HEX    H1F19193  13.303   8.807  12.474
    1HEX    H1G19194  13.342   8.696  12.604
    1HEX    H1H19195  12.901   8.661  12.538
    1HEX    H1I19196  12.887   8.832  12.563
    1HEX    H1J19197  13.033   8.875  12.820
    1HEX    H1K19198  12.901   8.835  12.930
    1HEX    H1M19199  12.794   9.262  12.837
    1HEX    H1N19200  12.944   9.244  12.748
    1HEX    H1O19201  13.081   9.316  12.943
    1HEX    H1P19202  12.946   9.302  13.050
    1HEX    H1R19203  12.697   8.702  12.682
    1HEX    H1S19204  12.717   8.685  12.854
    1HEX    H1T19205  12.869   8.293  12.709
    1HEX    H1U19206  12.825   8.287  12.541
    1HEX    H1V19207  12.665   8.130  12.576
    1HEX    H1W19208  12.582   8.237  12.687
    1HEX    H1Y19209  13.027   8.542  12.732
    1HEX    H1Z19210  12.957   8.543  12.880
    1HEX    H2019211  13.137   8.821  12.983
    1HEX    H2119212  13.273   8.722  12.987
    1HEX    H2219213  13.144   8.448  13.088
    1HEX    H2319214  13.178   8.489  13.254
    1HEX    H2419215  13.571   8.479  13.052
    1HEX    H2519216  13.619   8.427  13.212
    1HEX    H2619217  13.675   8.663  13.278
    1HEX    H2719218  13.630   8.720  13.119
    1HEX    H2919219  13.141   8.861  13.218
    1HEX    H2A19220  13.289   8.769  13.222
    1HEX    H2B19221  13.163   8.622  13.592
    1HEX    H2C19222  13.071   8.766  13.632
    1HEX    H2D19223  13.274   8.875  13.726
    1HEX    H2E19224  13.374   8.745  13.668
    1HEX    H2G19225  12.924   8.617  13.055
    1HEX    H2H19226  12.939   8.772  13.125
    1HEX    H2I19227  12.672   8.709  13.369
    1HEX    H2J19228  12.595   8.552  13.352
    1HEX    H2K19229  12.542   8.632  13.100
    1HEX    H2M19230  12.567   8.792  13.163
    1STR    S0019231  13.358   8.647  12.228
    1STR    S0E19232  12.938   9.514  12.943
    1STR    S0M19233  12.708   8.072  12.805
    1STR    S0X19234  13.844   8.606  13.111
    1STR    S1419235  13.254   8.679  13.866
    1STR    S1B19236  12.362   8.695  13.244
    1HEX    C0119237  13.343  12.938  16.717
    1HEX    C0219238  13.297  13.002  16.849
    1HEX    C0319239  13.159  12.955  16.895
    1HEX    O0419240  13.128  12.836  16.890
    1HEX    O0519241  13.084  13.055  16.944
    1HEX    C0619242  12.949  13.029  16.984
    1HEX    C0719243  12.931  13.022  17.138
    1HEX    C0819244  12.942  13.166  17.198
    1HEX    O0919245  12.877  13.287  17.157
    1HEX    C0A19246  12.886  13.393  17.247
    1HEX    O0B19247  12.894  13.379  17.369
    1HEX    C0C19248  12.895  13.535  17.186
    1HEX    C0D19249  12.902  13.652  17.291
    1HEX    C0F19250  12.794  12.948  17.166
    1HEX    O0G19251  12.813  12.805  17.182
    1HEX    C0H19252  12.779  12.716  17.086
    1HEX    O0I19253  12.711  12.743  16.987
    1HEX    C0J19254  12.838  12.574  17.104
    1HEX    C0K19255  12.837  12.509  17.246
    1HEX    C0N19256  13.041  12.932  17.207
    1HEX    O0O19257  13.167  12.989  17.248
    1HEX    C0P19258  13.186  13.065  17.370
    1HEX    C0Q19259  13.137  13.015   0.070
    1HEX    C0R19260  13.190  12.871   0.095
    1HEX    O0S19261  13.330  12.856   0.066
    1HEX    C0T19262  13.424  12.861   0.164
    1HEX    O0U19263  13.402  12.885   0.283
    1HEX    C0V19264  13.566  12.827   0.116
    1HEX    C0W19265  13.661  12.949   0.102
    1HEX    C0Y19266  13.200  13.110   0.175
    1HEX    O0Z19267  13.158  13.077   0.307
    1HEX    C1019268  13.210  13.145   0.410
    1HEX    O1119269  13.295  13.234   0.401
    1HEX    C1219270  13.148  13.104   0.544
    1HEX    C1319271  13.242  13.124   0.665
    1HEX    C1519272  12.982  13.032   0.081
    1HEX    O1619273  12.910  12.988   0.197
    1HEX    C1719274  12.788  12.932   0.178
    1HEX    O1819275  12.757  12.861   0.082
    1HEX    C1919276  12.682  12.970   0.281
    1HEX    C1A19277  12.570  13.056   0.216
    1HEX    H1D19278  13.451  12.931  16.716
    1HEX    H1E19279  13.307  12.836  16.709
    1HEX    H1F19280  13.298  13.111  16.843
    1HEX    H1G19281  13.365  12.974  16.930
    1HEX    H1H19282  12.912  12.938  16.935
    1HEX    H1I19283  12.888  13.109  16.943
    1HEX    H1J19284  13.046  13.195  17.183
    1HEX    H1K19285  12.925  13.156  17.304
    1HEX    H1M19286  12.812  13.550  17.117
    1HEX    H1N19287  12.986  13.535  17.125
    1HEX    H1O19288  12.937  13.618  17.388
    1HEX    H1P19289  12.802  13.691  17.309
    1HEX    H1R19290  12.720  12.971  17.089
    1HEX    H1S19291  12.750  12.985  17.259
    1HEX    H1T19292  12.940  12.578  17.066
    1HEX    H1U19293  12.784  12.509  17.035
    1HEX    H1V19294  12.737  12.509  17.288
    1HEX    H1W19295  12.900  12.566  17.314
    1HEX    H1Y19296  13.066  12.853  17.136
    1HEX    H1Z19297  13.004  12.872  17.290
    1HEX    H2019298  13.154  13.168  17.357
    1HEX    H2119299  13.294  13.074  17.374
    1HEX    H2219300  13.136  12.801   0.030
    1HEX    H2319301  13.167  12.839   0.197
    1HEX    H2419302  13.560  12.770   0.024
    1HEX    H2519303  13.605  12.759   0.191
    1HEX    H2619304  13.623  13.036   0.155
    1HEX    H2719305  13.668  12.977  17.437
    1HEX    H2919306  13.173  13.214   0.155
    1HEX    H2A19307  13.309  13.108   0.170
    1HEX    H2B19308  13.115  13.001   0.537
    1HEX    H2C19309  13.058  13.165   0.554
    1HEX    H2D19310  13.322  13.194   0.640
    1HEX    H2E19311  13.292  13.030   0.691
    1HEX    H2G19312  12.933  12.990  17.435
    1HEX    H2H19313  12.959  13.139   0.076
    1HEX    H2I19314  12.727  13.019   0.367
    1HEX    H2J19315  12.639  12.876   0.317
    1HEX    H2K19316  12.557  13.025   0.112
    1HEX    H2M19317  12.598  13.162   0.213
    1STR    S0019318  13.293  13.033  16.569
    1STR    S0E19319  13.011  13.793  17.243
    1STR    S0M19320  12.899  12.334  17.236
    1STR    S0X19321  13.830  12.910   0.164
    1STR    S1419322  13.154  13.192   0.810
    1STR    S1B19323  12.407  13.039   0.297
    1HEX    C0119324  13.265  12.922   3.587
    1HEX    C0219325  13.262  12.978   3.731
    1HEX    C0319326  13.124  12.962   3.793
    1HEX    O0419327  13.067  12.852   3.791
    1HEX    O0519328  13.076  13.075   3.846
    1HEX    C0619329  12.939  13.083   3.883
    1HEX    C0719330  12.911  13.069   4.035
    1HEX    C0819331  12.932  13.208   4.107
    1HEX    O0919332  12.871  13.337   4.083
    1HEX    C0A19333  12.893  13.434   4.183
    1HEX    O0B19334  12.926  13.406   4.298
    1HEX    C0C19335  12.879  13.585   4.145
    1HEX    C0D19336  12.935  13.681   4.258
    1HEX    C0F19337  12.768  13.005   4.048
    1HEX    O0G19338  12.778  12.862   4.029
    1HEX    C0H19339  12.714  12.794   3.931
    1HEX    O0I19340  12.625  12.841   3.860
    1HEX    C0J19341  12.771  12.653   3.903
    1HEX    C0K19342  12.765  12.548   4.018
    1HEX    C0N19343  13.007  12.962   4.103
    1HEX    O0O19344  13.141  12.998   4.142
    1HEX    C0P19345  13.174  13.073   4.261
    1HEX    C0Q19346  13.134  13.023   4.404
    1HEX    C0R19347  13.196  12.881   4.425
    1HEX    O0S19348  13.336  12.871   4.387
    1HEX    C0T19349  13.439  12.883   4.476
    1HEX    O0U19350  13.427  12.910   4.595
    1HEX    C0V19351  13.579  12.851   4.418
    1HEX    C0W19352  13.678  12.972   4.405
    1HEX    C0Y19353  13.201  13.120   4.504
    1HEX    O0Z19354  13.157  13.085   4.633
    1HEX    C1019355  13.204  13.149   4.739
    1HEX    O1119356  13.290  13.237   4.738
    1HEX    C1219357  13.133  13.103   4.865
    1HEX    C1319358  13.199  13.155   4.993
    1HEX    C1519359  12.978  13.040   4.424
    1HEX    O1619360  12.898  12.972   4.523
    1HEX    C1719361  12.788  12.905   4.478
    1HEX    O1819362  12.787  12.834   4.377
    1HEX    C1919363  12.656  12.933   4.553
    1HEX    C1A19364  12.550  12.998   4.458
    1HEX    H1D19365  13.357  12.865   3.571
    1HEX    H1E19366  13.183  12.852   3.570
    1HEX    H1F19367  13.292  13.082   3.734
    1HEX    H1G19368  13.331  12.922   3.794
    1HEX    H1H19369  12.883  13.008   3.826
    1HEX    H1I19370  12.900  13.178   3.846
    1HEX    H1J19371  13.037  13.231   4.088
    1HEX    H1K19372  12.920  13.189   4.212
    1HEX    H1M19373  12.775  13.605   4.124
    1HEX    H1N19374  12.934  13.601   4.052
    1HEX    H1O19375  13.042  13.666   4.269
    1HEX    H1P19376  12.893  13.652   4.354
    1HEX    H1R19377  12.697  13.051   3.979
    1HEX    H1S19378  12.726  13.022   4.148
    1HEX    H1T19379  12.874  12.667   3.872
    1HEX    H1U19380  12.718  12.613   3.817
    1HEX    H1V19381  12.662  12.530   4.051
    1HEX    H1W19382  12.819  12.584   4.105
    1HEX    H1Y19383  13.022  12.882   4.031
    1HEX    H1Z19384  12.960  12.903   4.181
    1HEX    H2019385  13.147  13.178   4.252
    1HEX    H2119386  13.283  13.076   4.257
    1HEX    H2219387  13.141  12.808   4.366
    1HEX    H2319388  13.183  12.849   4.529
    1HEX    H2419389  13.567  12.800   4.323
    1HEX    H2519390  13.623  12.779   4.486
    1HEX    H2619391  13.678  13.032   4.496
    1HEX    H2719392  13.646  13.038   4.324
    1HEX    H2919393  13.174  13.224   4.484
    1HEX    H2A19394  13.310  13.116   4.499
    1HEX    H2B19395  13.132  12.994   4.863
    1HEX    H2C19396  13.030  13.137   4.858
    1HEX    H2D19397  13.206  13.263   4.994
    1HEX    H2E19398  13.301  13.117   5.001
    1HEX    H2G19399  12.926  13.026   4.331
    1HEX    H2H19400  12.960  13.146   4.444
    1HEX    H2I19401  12.675  12.995   4.641
    1HEX    H2J19402  12.619  12.837   4.589
    1HEX    H2K19403  12.565  12.959   4.357
    1HEX    H2M19404  12.569  13.105   4.450
    1STR    S0019405  13.253  13.049   3.458
    1STR    S0E19406  12.902  13.864   4.243
    1STR    S0M19407  12.839  12.387   3.962
    1STR    S0X19408  13.851  12.916   4.369
    1STR    S1419409  13.101  13.096   5.134
    1STR    S1B19410  12.372  12.974   4.501
    1HEX    C0119411  13.318  12.920   8.039
    1HEX    C0219412  13.254  12.895   8.177
    1HEX    C0319413  13.104  12.913   8.185
    1HEX    O0419414  13.028  12.818   8.167
    1HEX    O0519415  13.068  13.037   8.227
    1HEX    C0619416  12.932  13.062   8.261
    1HEX    C0719417  12.905  13.057   8.414
    1HEX    C0819418  12.931  13.198   8.479
    1HEX    O0919419  12.877  13.326   8.441
    1HEX    C0A19420  12.908  13.434   8.525
    1HEX    O0B19421  12.943  13.421   8.642
    1HEX    C0C19422  12.903  13.575   8.462
    1HEX    C0D19423  12.867  13.695   8.558
    1HEX    C0F19424  12.759  13.001   8.433
    1HEX    O0G19425  12.762  12.857   8.435
    1HEX    C0H19426  12.711  12.778   8.338
    1HEX    O0I19427  12.629  12.815   8.254
    1HEX    C0J19428  12.773  12.637   8.335
    1HEX    C0K19429  12.705  12.528   8.422
    1HEX    C0N19430  13.000  12.952   8.487
    1HEX    O0O19431  13.134  12.988   8.525
    1HEX    C0P19432  13.169  13.068   8.641
    1HEX    C0Q19433  13.132  13.022   8.787
    1HEX    C0R19434  13.191  12.879   8.809
    1HEX    O0S19435  13.331  12.869   8.771
    1HEX    C0T19436  13.433  12.874   8.863
    1HEX    O0U19437  13.417  12.891   8.984
    1HEX    C0V19438  13.575  12.856   8.805
    1HEX    C0W19439  13.654  12.990   8.796
    1HEX    C0Y19440  13.202  13.120   8.885
    1HEX    O0Z19441  13.165  13.094   9.020
    1HEX    C1019442  13.220  13.168   9.118
    1HEX    O1119443  13.306  13.255   9.101
    1HEX    C1219444  13.164  13.137   9.256
    1HEX    C1319445  13.273  13.104   9.361
    1HEX    C1519446  12.976  13.044   8.806
    1HEX    O1619447  12.900  12.994   8.917
    1HEX    C1719448  12.780  12.935   8.888
    1HEX    O1819449  12.763  12.855   8.796
    1HEX    C1919450  12.660  12.982   8.973
    1HEX    C1A19451  12.532  12.999   8.885
    1HEX    H1D19452  13.418  12.877   8.039
    1HEX    H1E19453  13.328  13.028   8.025
    1HEX    H1F19454  13.298  12.963   8.250
    1HEX    H1G19455  13.276  12.794   8.213
    1HEX    H1H19456  12.867  12.993   8.206
    1HEX    H1I19457  12.904  13.160   8.221
    1HEX    H1J19458  13.037  13.216   8.461
    1HEX    H1K19459  12.915  13.188   8.586
    1HEX    H1M19460  12.828  13.570   8.383
    1HEX    H1N19461  12.998  13.594   8.413
    1HEX    H1O19462  12.815  13.654   8.645
    1HEX    H1P19463  12.795  13.761   8.510
    1HEX    H1R19464  12.690  13.039   8.356
    1HEX    H1S19465  12.716  13.034   8.528
    1HEX    H1T19466  12.877  12.650   8.365
    1HEX    H1U19467  12.777  12.605   8.231
    1HEX    H1V19468  12.623  12.481   8.367
    1HEX    H1W19469  12.661  12.570   8.512
    1HEX    H1Y19470  13.012  12.868   8.419
    1HEX    H1Z19471  12.951  12.897   8.568
    1HEX    H2019472  13.142  13.172   8.630
    1HEX    H2119473  13.278  13.071   8.635
    1HEX    H2219474  13.136  12.808   8.748
    1HEX    H2319475  13.176  12.848   8.913
    1HEX    H2419476  13.568  12.807   8.708
    1HEX    H2519477  13.629  12.788   8.871
    1HEX    H2619478  13.659  13.037   8.894
    1HEX    H2719479  13.596  13.058   8.733
    1HEX    H2919480  13.176  13.223   8.862
    1HEX    H2A19481  13.310  13.114   8.876
    1HEX    H2B19482  13.094  13.053   9.247
    1HEX    H2C19483  13.104  13.223   9.287
    1HEX    H2D19484  13.371  13.116   9.315
    1HEX    H2E19485  13.266  13.000   9.392
    1HEX    H2G19486  12.922  13.019   8.717
    1HEX    H2H19487  12.960  13.152   8.811
    1HEX    H2I19488  12.687  13.077   9.020
    1HEX    H2J19489  12.642  12.910   9.053
    1HEX    H2K19490  12.496  12.901   8.853
    1HEX    H2M19491  12.558  13.051   8.793
    1STR    S0019492  13.236  12.854   7.892
    1STR    S0E19493  13.003  13.803   8.625
    1STR    S0M19494  12.826  12.396   8.465
    1STR    S0X19495  13.824  12.983   8.724
    1STR    S1419496  13.271  13.211   9.509
    1STR    S1B19497  12.392  13.092   8.961
    1HEX    C0119498  13.318  12.959  12.321
    1HEX    C0219499  13.278  12.990  12.467
    1HEX    C0319500  13.137  12.951  12.508
    1HEX    O0419501  13.095  12.836  12.497
    1HEX    O0519502  13.070  13.055  12.562
    1HEX    C0619503  12.936  13.040  12.606
    1HEX    C0719504  12.923  13.028  12.760
    1HEX    C0819505  12.927  13.172  12.825
    1HEX    O0919506  12.857  13.294  12.788
    1HEX    C0A19507  12.875  13.402  12.876
    1HEX    O0B19508  12.920  13.389  12.990
    1HEX    C0C19509  12.841  13.545  12.825
    1HEX    C0D19510  12.891  13.656  12.927
    1HEX    C0F19511  12.792  12.945  12.788
    1HEX    O0G19512  12.821  12.802  12.789
    1HEX    C0H19513  12.780  12.717  12.692
    1HEX    O0I19514  12.697  12.746  12.607
    1HEX    C0J19515  12.853  12.581  12.689
    1HEX    C0K19516  12.876  12.505  12.824
    1HEX    C0N19517  13.039  12.941  12.824
    1HEX    O0O19518  13.163  13.000  12.865
    1HEX    C0P19519  13.181  13.071  12.990
    1HEX    C0Q19520  13.136  13.014  13.129
    1HEX    C0R19521  13.195  12.871  13.149
    1HEX    O0S19522  13.336  12.861  13.121
    1HEX    C0T19523  13.429  12.864  13.220
    1HEX    O0U19524  13.406  12.889  13.338
    1HEX    C0V19525  13.570  12.825  13.175
    1HEX    C0W19526  13.667  12.943  13.146
    1HEX    C0Y19527  13.197  13.109  13.235
    1HEX    O0Z19528  13.157  13.074  13.366
    1HEX    C1019529  13.212  13.139  13.470
    1HEX    O1119530  13.299  13.225  13.462
    1HEX    C1219531  13.150  13.099  13.603
    1HEX    C1319532  13.238  13.131  13.725
    1HEX    C1519533  12.980  13.023  13.142
    1HEX    O1619534  12.909  12.966  13.253
    1HEX    C1719535  12.784  12.914  13.230
    1HEX    O1819536  12.744  12.869  13.123
    1HEX    C1919537  12.687  12.924  13.349
    1HEX    C1A19538  12.557  13.002  13.313
    1HEX    H1D19539  13.364  12.860  12.316
    1HEX    H1E19540  13.395  13.030  12.290
    1HEX    H1F19541  13.289  13.096  12.487
    1HEX    H1G19542  13.345  12.939  12.536
    1HEX    H1H19543  12.890  12.954  12.555
    1HEX    H1I19544  12.879  13.126  12.570
    1HEX    H1J19545  13.030  13.205  12.813
    1HEX    H1K19546  12.908  13.159  12.931
    1HEX    H1M19547  12.734  13.553  12.809
    1HEX    H1N19548  12.890  13.560  12.729
    1HEX    H1O19549  12.999  13.652  12.932
    1HEX    H1P19550  12.858  13.630  13.027
    1HEX    H1R19551  12.712  12.969  12.718
    1HEX    H1S19552  12.750  12.969  12.886
    1HEX    H1T19553  12.948  12.596  12.639
    1HEX    H1U19554  12.795  12.517  12.622
    1HEX    H1V19555  12.784  12.504  12.884
    1HEX    H1W19556  12.951  12.557  12.884
    1HEX    H1Y19557  13.066  12.866  12.750
    1HEX    H1Z19558  13.006  12.875  12.905
    1HEX    H2019559  13.146  13.174  12.981
    1HEX    H2119560  13.289  13.083  12.993
    1HEX    H2219561  13.144  12.801  13.083
    1HEX    H2319562  13.173  12.836  13.250
    1HEX    H2419563  13.564  12.757  13.090
    1HEX    H2519564  13.610  12.765  13.257
    1HEX    H2619565  13.629  13.036  13.189
    1HEX    H2719566  13.675  12.959  13.039
    1HEX    H2919567  13.168  13.213  13.217
    1HEX    H2A19568  13.306  13.108  13.229
    1HEX    H2B19569  13.126  12.992  13.599
    1HEX    H2C19570  13.055  13.153  13.608
    1HEX    H2D19571  13.295  13.223  13.710
    1HEX    H2E19572  13.311  13.052  13.741
    1HEX    H2G19573  12.933  12.987  13.052
    1HEX    H2H19574  12.953  13.129  13.145
    1HEX    H2I19575  12.740  12.975  13.430
    1HEX    H2J19576  12.665  12.824  13.384
    1HEX    H2K19577  12.567  13.050  13.216
    1HEX    H2M19578  12.538  13.082  13.384
    1STR    S0019579  13.186  12.962  12.195
    1STR    S0E19580  12.839  13.834  12.903
    1STR    S0M19581  12.930  12.330  12.795
    1STR    S0X19582  13.835  12.911  13.216
    1STR    S1419583  13.132  13.155  13.872
    1STR    S1B19584  12.405  12.899  13.305
  17.44000  17.44000  17.44000
