My System
19584
    1STR   BCK1    1   0.864  17.321   0.044
    1STR    O03    2   0.836  17.343  17.367
    1STR    N04    3   0.983  17.273   0.085
    1STR    C05    4   1.086  17.213   0.009
    1STR    C06    5   1.223  17.246   0.027
    1STR    C07    6   1.329  17.175  17.400
    1STR    N08    7   1.466  17.203  17.422
    1STR    C09    8   1.574  17.125  17.400
    1STR    O0A    9   1.567  17.009  17.360
    1STR    O0B   10   1.694  17.186  17.426
    1STR    C0C   11   1.819  17.120  17.394
    1STR    C0D   12   1.850  17.142  17.245
    1STR    C0E   13   1.938  17.166   0.043
    1STR    O0F   14   2.060  17.095   0.010
    1STR    C0G   15   2.175  17.123   0.092
    1STR    C0H   16   2.160  17.049   0.226
    1STR    C0I   17   2.306  17.080   0.020
    1STR    O0J   18   2.424  17.121   0.093
    1STR    C0K   19   2.552  17.084   0.038
    1STR    C0M   20   2.579  17.163  17.348
    1STR    C0N   21   2.667  17.112   0.140
    1STR    O0O   22   2.792  17.058   0.095
    1STR    C0P   23   2.910  17.124   0.111
    1STR    O0Q   24   2.922  17.237   0.157
    1STR    N0R   25   3.010  17.048   0.066
    1STR    C0S   26   3.148  17.070   0.046
    1STR    C0T   27   3.215  16.973  17.409
    1STR    C0U   28   3.349  16.990  17.371
    1STR    C0V   29   3.422  17.104  17.411
    1STR    C0W   30   3.557  17.125  17.346
    1STR    C0X   31   3.362  17.197   0.060
    1STR    N0Y   32   3.428  17.314   0.103
    1STR   BCK2   33   3.552  17.347   0.145
    1STR    O10   34   3.576   0.025   0.165
    1STR    C13   35   3.224  17.181   0.093
    1STR    C14   36   1.289  17.074  17.309
    1STR    C15   37   1.154  17.039  17.292
    1STR    C16   38   1.053  17.104  17.363
    1STR    C17   39   0.911  17.050  17.350
    1STR    H1B   40   0.995  17.271   0.185
    1STR    H1C   41   1.249  17.326   0.095
    1STR    H1D   42   1.490  17.293   0.020
    1STR    H1E   43   1.807  17.012  17.411
    1STR    H1F   44   1.864  17.247  17.222
    1STR    H1G   45   1.941  17.089  17.216
    1STR    H1H   46   1.770  17.104  17.181
    1STR    H1I   47   1.911  17.149   0.147
    1STR    H1J   48   1.953  17.273   0.032
    1STR    H1K   49   2.181  17.231   0.110
    1STR    H1M   50   2.147  16.942   0.211
    1STR    H1N   51   2.076  17.085   0.285
    1STR    H1O   52   2.250  17.062   0.287
    1STR    H1P   53   2.307  16.972   0.007
    1STR    H1Q   54   2.307  17.124  17.361
    1STR    H1R   55   2.552  16.977   0.017
    1STR    H1S   56   2.679  17.142  17.310
    1STR    H1T   57   2.572  17.270  17.366
    1STR    H1U   58   2.509  17.137  17.269
    1STR    H1V   59   2.643  17.066   0.236
    1STR    H1W   60   2.675  17.220   0.159
    1STR    H1X   61   2.974  16.960   0.036
    1STR    H1Y   62   3.163  16.886  17.372
    1STR    H1Z   63   3.395  16.918  17.306
    1STR    H20   64   3.583  17.231  17.340
    1STR    H21   65   3.635  17.073  17.401
    1STR    H22   66   3.558  17.088  17.244
    1STR    H23   67   3.370  17.396   0.104
    1STR    H27   68   3.175  17.254   0.155
    1STR    H28   69   1.361  17.018  17.251
    1STR    H29   70   1.130  16.958  17.225
    1STR    H2A   71   0.859  17.054   0.006
    1STR    H2B   72   0.912  16.946  17.318
    1STR    H2C   73   0.855  17.108  17.277
    1STR   BCK1   74   0.880   0.008   4.378
    1STR    O03   75   0.831   0.105   4.434
    1STR    N04   76   1.000   0.007   4.315
    1STR    C05   77   1.089   0.113   4.282
    1STR    C06   78   1.231   0.093   4.287
    1STR    C07   79   1.325   0.193   4.245
    1STR    N08   80   1.466   0.168   4.245
    1STR    C09   81   1.570   0.246   4.205
    1STR    O0A   82   1.558   0.360   4.161
    1STR    O0B   83   1.693   0.186   4.217
    1STR    C0C   84   1.815   0.260   4.187
    1STR    C0D   85   1.849   0.350   4.307
    1STR    C0E   86   1.937   0.169   4.151
    1STR    O0F   87   2.059   0.244   4.127
    1STR    C0G   88   2.176   0.169   4.087
    1STR    C0H   89   2.164   0.135   3.937
    1STR    C0I   90   2.308   0.249   4.113
    1STR    O0J   91   2.428   0.168   4.096
    1STR    C0K   92   2.556   0.231   4.119
    1STR    C0M   93   2.571   0.270   4.266
    1STR    C0N   94   2.675   0.137   4.079
    1STR    O0O   95   2.803   0.203   4.088
    1STR    C0P   96   2.913   0.146   4.146
    1STR    O0Q   97   2.915   0.040   4.208
    1STR    N0R   98   3.020   0.223   4.123
    1STR    C0S   99   3.156   0.223   4.158
    1STR    C0T  100   3.231   0.325   4.097
    1STR    C0U  101   3.365   0.347   4.130
    1STR    C0V  102   3.430   0.266   4.225
    1STR    C0W  103   3.570   0.309   4.268
    1STR    C0X  104   3.363   0.154   4.282
    1STR    N0Y  105   3.431   0.073   4.376
    1STR   BCK2  106   3.553   0.017   4.364
    1STR    O10  107   3.618   0.018   4.260
    1STR    C13  108   3.224   0.136   4.249
    1STR    C14  109   1.271   0.316   4.201
    1STR    C15  110   1.133   0.337   4.193
    1STR    C16  111   1.041   0.236   4.229
    1STR    C17  112   0.895   0.265   4.200
    1STR    H1B  113   1.028  17.355   4.287
    1STR    H1C  114   1.268  17.439   4.323
    1STR    H1D  115   1.497   0.080   4.280
    1STR    H1E  116   1.796   0.324   4.101
    1STR    H1F  117   1.870   0.292   4.397
    1STR    H1G  118   1.938   0.411   4.286
    1STR    H1H  119   1.768   0.419   4.329
    1STR    H1I  120   1.911   0.111   4.062
    1STR    H1J  121   1.954   0.097   4.230
    1STR    H1K  122   2.182   0.077   4.145
    1STR    H1M  123   2.151   0.225   3.877
    1STR    H1N  124   2.079   0.069   3.917
    1STR    H1O  125   2.253   0.085   3.901
    1STR    H1P  126   2.313   0.336   4.048
    1STR    H1Q  127   2.304   0.287   4.215
    1STR    H1R  128   2.562   0.321   4.056
    1STR    H1S  129   2.671   0.311   4.285
    1STR    H1T  130   2.560   0.183   4.331
    1STR    H1U  131   2.500   0.346   4.298
    1STR    H1V  132   2.662   0.105   3.976
    1STR    H1W  133   2.673   0.046   4.139
    1STR    H1X  134   2.990   0.300   4.066
    1STR    H1Y  135   3.186   0.392   4.025
    1STR    H1Z  136   3.418   0.429   4.085
    1STR    H20  137   3.588   0.285   4.373
    1STR    H21  138   3.645   0.260   4.207
    1STR    H22  139   3.583   0.417   4.257
    1STR    H23  140   3.384   0.055   4.463
    1STR    H27  141   3.168   0.055   4.295
    1STR    H28  142   1.333   0.398   4.170
    1STR    H29  143   1.097   0.431   4.155
    1STR    H2A  144   0.841   0.174   4.172
    1STR    H2B  145   0.884   0.335   4.118
    1STR    H2C  146   0.847   0.309   4.288
    1STR   BCK1  147   0.865  17.368   8.790
    1STR    O03  148   0.825  17.431   8.693
    1STR    N04  149   0.993  17.388   8.828
    1STR    C05  150   1.086  17.353   8.929
    1STR    C06  151   1.225  17.369   8.899
    1STR    C07  152   1.330  17.347   8.994
    1STR    N08  153   1.466  17.372   8.963
    1STR    C09  154   1.578  17.339   9.031
    1STR    O0A  155   1.579  17.272   9.134
    1STR    O0B  156   1.693  17.388   8.974
    1STR    C0C  157   1.822  17.356   9.034
    1STR    C0D  158   1.861  17.212   8.995
    1STR    C0E  159   1.935   0.015   8.996
    1STR    O0F  160   2.059  17.419   9.062
    1STR    C0G  161   2.173   0.065   9.040
    1STR    C0H  162   2.158   0.191   9.126
    1STR    C0I  163   2.305  17.430   9.075
    1STR    O0J  164   2.421   0.066   9.037
    1STR    C0K  165   2.549   0.010   9.071
    1STR    C0M  166   2.578  17.325   8.987
    1STR    C0N  167   2.662   0.115   9.049
    1STR    O0O  168   2.784   0.073   9.113
    1STR    C0P  169   2.902   0.063   9.047
    1STR    O0Q  170   2.922   0.086   8.928
    1STR    N0R  171   2.993   0.020   9.134
    1STR    C0S  172   3.125  17.413   9.123
    1STR    C0T  173   3.166  17.330   9.228
    1STR    C0U  174   3.290  17.267   9.224
    1STR    C0V  175   3.381  17.290   9.120
    1STR    C0W  176   3.501  17.199   9.122
    1STR    C0X  177   3.351  17.386   9.018
    1STR    N0Y  178   3.439  17.437   8.919
    1STR   BCK2  179   3.568  17.436   8.879
    1STR    O10  180   3.604   0.080   8.797
    1STR    C13  181   3.219   0.003   9.020
    1STR    C14  182   1.289  17.304   9.122
    1STR    C15  183   1.154  17.288   9.155
    1STR    C16  184   1.052  17.315   9.062
    1STR    C17  185   0.911  17.309   9.116
    1STR    H1B  186   1.032   0.009   8.758
    1STR    H1C  187   1.253  17.402   8.800
    1STR    H1D  188   1.487  17.421   8.878
    1STR    H1E  189   1.811  17.360   9.142
    1STR    H1F  190   1.874  17.202   8.887
    1STR    H1G  191   1.954  17.183   9.043
    1STR    H1H  192   1.785  17.140   9.027
    1STR    H1I  193   1.905   0.116   9.025
    1STR    H1J  194   1.950   0.016   8.888
    1STR    H1K  195   2.178   0.092   8.934
    1STR    H1M  196   2.146   0.166   9.231
    1STR    H1N  197   2.073   0.252   9.096
    1STR    H1O  198   2.246   0.254   9.118
    1STR    H1P  199   2.307  17.408   9.182
    1STR    H1Q  200   2.305  17.334   9.023
    1STR    H1R  201   2.549  17.424   9.177
    1STR    H1S  202   2.678  17.287   9.006
    1STR    H1T  203   2.572  17.348   8.880
    1STR    H1U  204   2.509  17.244   9.008
    1STR    H1V  205   2.634   0.210   9.095
    1STR    H1W  206   2.677   0.136   8.943
    1STR    H1X  207   2.951   0.011   9.224
    1STR    H1Y  208   3.100  17.307   9.310
    1STR    H1Z  209   3.316  17.199   9.304
    1STR    H20  210   3.521  17.160   9.023
    1STR    H21  211   3.587  17.251   9.164
    1STR    H22  212   3.485  17.111   9.185
    1STR    H23  213   3.393   0.062   8.858
    1STR    H27  214   3.189   0.071   8.942
    1STR    H28  215   1.360  17.285   9.201
    1STR    H29  216   1.129  17.257   9.255
    1STR    H2A  217   0.850  17.390   9.075
    1STR    H2B  218   0.910  17.320   9.224
    1STR    H2C  219   0.866  17.213   9.093
    1STR   BCK1  220   0.873  17.335  13.068
    1STR    O03  221   0.827  17.431  13.007
    1STR    N04  222   0.995  17.282  13.048
    1STR    C05  223   1.089  17.303  12.944
    1STR    C06  224   1.230  17.309  12.972
    1STR    C07  225   1.329  17.315  12.868
    1STR    N08  226   1.468  17.315  12.897
    1STR    C09  227   1.573  17.285  12.816
    1STR    O0A  228   1.561  17.249  12.699
    1STR    O0B  229   1.695  17.299  12.877
    1STR    C0C  230   1.818  17.282  12.802
    1STR    C0D  231   1.849  17.413  12.726
    1STR    C0E  232   1.939  17.240  12.890
    1STR    O0F  233   2.061  17.224  12.815
    1STR    C0G  234   2.177  17.176  12.887
    1STR    C0H  235   2.163  17.025  12.908
    1STR    C0I  236   2.310  17.208  12.811
    1STR    O0J  237   2.427  17.179  12.892
    1STR    C0K  238   2.557  17.200  12.833
    1STR    C0M  239   2.580  17.350  12.809
    1STR    C0N  240   2.671  17.145  12.925
    1STR    O0O  241   2.800  17.151  12.861
    1STR    C0P  242   2.915  17.181  12.929
    1STR    O0Q  243   2.922  17.214  13.046
    1STR    N0R  244   3.019  17.173  12.845
    1STR    C0S  245   3.156  17.206  12.851
    1STR    C0T  246   3.219  17.214  12.725
    1STR    C0U  247   3.351  17.259  12.713
    1STR    C0V  248   3.426  17.293  12.827
    1STR    C0W  249   3.559  17.362  12.801
    1STR    C0X  250   3.372  17.272  12.958
    1STR    N0Y  251   3.449  17.294  13.075
    1STR   BCK2  252   3.579  17.267  13.101
    1STR    O10  253   3.657  17.213  13.023
    1STR    C13  254   3.234  17.233  12.967
    1STR    C14  255   1.281  17.321  12.735
    1STR    C15  256   1.144  17.313  12.706
    1STR    C16  257   1.048  17.301  12.808
    1STR    C17  258   0.904  17.278  12.766
    1STR    H1B  259   1.019  17.212  13.116
    1STR    H1C  260   1.262  17.307  13.075
    1STR    H1D  261   1.497  17.338  12.990
    1STR    H1E  262   1.803  17.203  12.728
    1STR    H1F  263   1.865   0.056  12.794
    1STR    H1G  264   1.938  17.402  12.665
    1STR    H1H  265   1.767  -0.000  12.659
    1STR    H1I  266   1.913  17.147  12.940
    1STR    H1J  267   1.955  17.314  12.969
    1STR    H1K  268   2.182  17.227  12.983
    1STR    H1M  269   2.150  16.973  12.813
    1STR    H1N  270   2.079  16.999  12.972
    1STR    H1O  271   2.252  16.984  12.956
    1STR    H1P  272   2.314  17.152  12.718
    1STR    H1Q  273   2.309  17.313  12.784
    1STR    H1R  274   2.562  17.147  12.737
    1STR    H1S  275   2.681  17.369  12.771
    1STR    H1T  276   2.569  17.407  12.901
    1STR    H1U  277   2.511  17.392  12.735
    1STR    H1V  278   2.651  17.040  12.949
    1STR    H1W  279   2.672  17.198  13.020
    1STR    H1X  280   2.985  17.141  12.756
    1STR    H1Y  281   3.165  17.191  12.634
    1STR    H1Z  282   3.394  17.270  12.615
    1STR    H20  283   3.586  17.429  12.882
    1STR    H21  284   3.638  17.288  12.787
    1STR    H22  285   3.554  17.423  12.710
    1STR    H23  286   3.399  17.331  13.154
    1STR    H27  287   3.188  17.223  13.064
    1STR    H28  288   1.348  17.329  12.651
    1STR    H29  289   1.113  17.313  12.603
    1STR    H2A  290   0.852  17.211  12.834
    1STR    H2B  291   0.899  17.233  12.667
    1STR    H2C  292   0.850  17.373  12.762
    1STR   BCK1  293   0.883   4.352   0.112
    1STR    O03  294   0.842   4.394   0.219
    1STR    N04  295   0.998   4.392   0.053
    1STR    C05  296   1.089   4.494   0.090
    1STR    C06  297   1.230   4.475   0.075
    1STR    C07  298   1.326   4.577   0.105
    1STR    N08  299   1.466   4.558   0.083
    1STR    C09  300   1.572   4.635   0.119
    1STR    O0A  301   1.563   4.737   0.188
    1STR    O0B  302   1.693   4.589   0.072
    1STR    C0C  303   1.817   4.657   0.109
    1STR    C0D  304   1.855   4.615   0.252
    1STR    C0E  305   1.935   4.631   0.010
    1STR    O0F  306   2.058   4.695   0.054
    1STR    C0G  307   2.174   4.681  17.409
    1STR    C0H  308   2.161   4.778  17.290
    1STR    C0I  309   2.306   4.709   0.048
    1STR    O0J  310   2.426   4.675  17.414
    1STR    C0K  311   2.554   4.697   0.039
    1STR    C0M  312   2.569   4.601   0.159
    1STR    C0N  313   2.675   4.676  17.383
    1STR    O0O  314   2.799   4.714   0.006
    1STR    C0P  315   2.914   4.640  17.436
    1STR    O0Q  316   2.925   4.531  17.381
    1STR    N0R  317   3.013   4.707   0.056
    1STR    C0S  318   3.150   4.687   0.081
    1STR    C0T  319   3.215   4.800   0.134
    1STR    C0U  320   3.351   4.797   0.167
    1STR    C0V  321   3.427   4.681   0.147
    1STR    C0W  322   3.576   4.691   0.178
    1STR    C0X  323   3.366   4.563   0.097
    1STR    N0Y  324   3.446   4.449   0.075
    1STR   BCK2  325   3.529   4.388   0.163
    1STR    O10  326   3.531   4.416   0.283
    1STR    C13  327   3.227   4.568   0.062
    1STR    C14  328   1.275   4.700   0.152
    1STR    C15  329   1.137   4.722   0.165
    1STR    C16  330   1.044   4.623   0.130
    1STR    C17  331   0.897   4.664   0.132
    1STR    H1B  332   1.021   4.339  17.411
    1STR    H1C  333   1.266   4.379   0.040
    1STR    H1D  334   1.495   4.476   0.034
    1STR    H1E  335   1.798   4.765   0.109
    1STR    H1F  336   1.874   4.508   0.258
    1STR    H1G  337   1.945   4.667   0.285
    1STR    H1H  338   1.776   4.639   0.323
    1STR    H1I  339   1.907   4.668  17.352
    1STR    H1J  340   1.952   4.524  -0.000
    1STR    H1K  341   2.180   4.578  17.373
    1STR    H1M  342   2.148   4.880  17.325
    1STR    H1N  343   2.076   4.753  17.226
    1STR    H1O  344   2.250   4.775  17.228
    1STR    H1P  345   2.310   4.814   0.078
    1STR    H1Q  346   2.302   4.651   0.140
    1STR    H1R  347   2.557   4.800   0.075
    1STR    H1S  348   2.668   4.612   0.204
    1STR    H1T  349   2.559   4.498   0.126
    1STR    H1U  350   2.497   4.620   0.238
    1STR    H1V  351   2.662   4.738  17.294
    1STR    H1W  352   2.679   4.573  17.347
    1STR    H1X  353   2.975   4.795   0.088
    1STR    H1Y  354   3.162   4.893   0.151
    1STR    H1Z  355   3.398   4.886   0.206
    1STR    H20  356   3.596   4.654   0.279
    1STR    H21  357   3.635   4.633   0.107
    1STR    H22  358   3.612   4.793   0.174
    1STR    H23  359   3.446   4.409  17.423
    1STR    H27  360   3.178   4.481   0.022
    1STR    H28  361   1.339   4.783   0.178
    1STR    H29  362   1.103   4.819   0.199
    1STR    H2A  363   0.840   4.612   0.056
    1STR    H2B  364   0.886   4.770   0.113
    1STR    H2C  365   0.853   4.643   0.230
    1STR   BCK1  366   0.858   4.278   4.430
    1STR    O03  367   0.815   4.372   4.364
    1STR    N04  368   0.990   4.249   4.418
    1STR    C05  369   1.084   4.150   4.454
    1STR    C06  370   1.222   4.187   4.461
    1STR    C07  371   1.328   4.094   4.485
    1STR    N08  372   1.465   4.133   4.485
    1STR    C09  373   1.577   4.058   4.493
    1STR    O0A  374   1.578   3.936   4.501
    1STR    O0B  375   1.693   4.132   4.490
    1STR    C0C  376   1.821   4.063   4.493
    1STR    C0D  377   1.854   4.007   4.353
    1STR    C0E  378   1.938   4.152   4.545
    1STR    O0F  379   2.061   4.077   4.554
    1STR    C0G  380   2.175   4.144   4.609
    1STR    C0H  381   2.161   4.153   4.762
    1STR    C0I  382   2.306   4.069   4.571
    1STR    O0J  383   2.424   4.142   4.611
    1STR    C0K  384   2.552   4.080   4.586
    1STR    C0M  385   2.580   4.077   4.434
    1STR    C0N  386   2.666   4.157   4.658
    1STR    O0O  387   2.789   4.082   4.655
    1STR    C0P  388   2.908   4.140   4.626
    1STR    O0Q  389   2.925   4.258   4.596
    1STR    N0R  390   3.004   4.048   4.633
    1STR    C0S  391   3.141   4.048   4.599
    1STR    C0T  392   3.198   3.921   4.579
    1STR    C0U  393   3.329   3.908   4.531
    1STR    C0V  394   3.409   4.021   4.506
    1STR    C0W  395   3.539   3.998   4.431
    1STR    C0X  396   3.360   4.150   4.539
    1STR    N0Y  397   3.435   4.267   4.519
    1STR   BCK2  398   3.563   4.304   4.540
    1STR    O10  399   3.599   4.415   4.502
    1STR    C13  400   3.224   4.162   4.581
    1STR    C14  401   1.289   3.960   4.506
    1STR    C15  402   1.155   3.920   4.498
    1STR    C16  403   1.053   4.012   4.469
    1STR    C17  404   0.916   3.952   4.448
    1STR    H1B  405   1.030   4.325   4.365
    1STR    H1C  406   1.248   4.291   4.446
    1STR    H1D  407   1.485   4.231   4.476
    1STR    H1E  408   1.813   3.980   4.562
    1STR    H1F  409   1.865   4.087   4.279
    1STR    H1G  410   1.947   3.951   4.355
    1STR    H1H  411   1.776   3.939   4.319
    1STR    H1I  412   1.910   4.192   4.643
    1STR    H1J  413   1.952   4.238   4.479
    1STR    H1K  414   2.182   4.244   4.566
    1STR    H1M  415   2.147   4.054   4.805
    1STR    H1N  416   2.076   4.215   4.792
    1STR    H1O  417   2.250   4.197   4.806
    1STR    H1P  418   2.306   3.970   4.617
    1STR    H1Q  419   2.307   4.053   4.464
    1STR    H1R  420   2.549   3.978   4.625
    1STR    H1S  421   2.680   4.038   4.415
    1STR    H1T  422   2.575   4.177   4.392
    1STR    H1U  423   2.510   4.013   4.380
    1STR    H1V  424   2.640   4.172   4.763
    1STR    H1W  425   2.678   4.257   4.616
    1STR    H1X  426   2.965   3.960   4.662
    1STR    H1Y  427   3.140   3.831   4.594
    1STR    H1Z  428   3.368   3.809   4.510
    1STR    H20  429   3.571   4.087   4.377
    1STR    H21  430   3.618   3.967   4.500
    1STR    H22  431   3.527   3.919   4.357
    1STR    H23  432   3.383   4.345   4.481
    1STR    H27  433   3.182   4.260   4.600
    1STR    H28  434   1.360   3.881   4.526
    1STR    H29  435   1.132   3.815   4.511
    1STR    H2A  436   0.860   3.954   4.542
    1STR    H2B  437   0.922   3.847   4.418
    1STR    H2C  438   0.862   4.004   4.369
    1STR   BCK1  439   0.877   4.329   8.697
    1STR    O03  440   0.827   4.440   8.711
    1STR    N04  441   0.998   4.306   8.642
    1STR    C05  442   1.088   4.390   8.573
    1STR    C06  443   1.230   4.376   8.589
    1STR    C07  444   1.326   4.451   8.512
    1STR    N08  445   1.466   4.431   8.526
    1STR    C09  446   1.570   4.476   8.451
    1STR    O0A  447   1.557   4.545   8.350
    1STR    O0B  448   1.694   4.435   8.496
    1STR    C0C  449   1.816   4.483   8.432
    1STR    C0D  450   1.847   4.624   8.486
    1STR    C0E  451   1.938   4.388   8.451
    1STR    O0F  452   2.060   4.440   8.392
    1STR    C0G  453   2.177   4.354   8.397
    1STR    C0H  454   2.164   4.246   8.289
    1STR    C0I  455   2.310   4.435   8.377
    1STR    O0J  456   2.428   4.355   8.406
    1STR    C0K  457   2.558   4.418   8.390
    1STR    C0M  458   2.575   4.530   8.493
    1STR    C0N  459   2.674   4.314   8.408
    1STR    O0O  460   2.804   4.371   8.380
    1STR    C0P  461   2.915   4.343   8.455
    1STR    O0Q  462   2.917   4.277   8.558
    1STR    N0R  463   3.022   4.401   8.398
    1STR    C0S  464   3.158   4.417   8.429
    1STR    C0T  465   3.229   4.496   8.337
    1STR    C0U  466   3.362   4.533   8.360
    1STR    C0V  467   3.430   4.491   8.476
    1STR    C0W  468   3.566   4.555   8.500
    1STR    C0X  469   3.368   4.400   8.566
    1STR    N0Y  470   3.439   4.351   8.679
    1STR   BCK2  471   3.566   4.305   8.686
    1STR    O10  472   3.639   4.291   8.588
    1STR    C13  473   3.230   4.367   8.543
    1STR    C14  474   1.273   4.545   8.421
    1STR    C15  475   1.135   4.559   8.402
    1STR    C16  476   1.043   4.481   8.473
    1STR    C17  477   0.897   4.494   8.433
    1STR    H1B  478   1.027   4.210   8.652
    1STR    H1C  479   1.266   4.305   8.662
    1STR    H1D  480   1.498   4.374   8.603
    1STR    H1E  481   1.798   4.491   8.325
    1STR    H1F  482   1.866   4.623   8.593
    1STR    H1G  483   1.935   4.666   8.437
    1STR    H1H  484   1.765   4.693   8.467
    1STR    H1I  485   1.913   4.292   8.407
    1STR    H1J  486   1.955   4.371   8.557
    1STR    H1K  487   2.182   4.308   8.496
    1STR    H1M  488   2.151   4.290   8.190
    1STR    H1N  489   2.080   4.179   8.307
    1STR    H1O  490   2.254   4.184   8.285
    1STR    H1P  491   2.315   4.474   8.276
    1STR    H1Q  492   2.307   4.521   8.444
    1STR    H1R  493   2.564   4.459   8.289
    1STR    H1S  494   2.675   4.573   8.487
    1STR    H1T  495   2.562   4.493   8.594
    1STR    H1U  496   2.505   4.612   8.478
    1STR    H1V  497   2.660   4.231   8.338
    1STR    H1W  498   2.671   4.271   8.508
    1STR    H1X  499   2.992   4.444   8.312
    1STR    H1Y  500   3.182   4.533   8.247
    1STR    H1Z  501   3.411   4.598   8.289
    1STR    H20  502   3.588   4.561   8.607
    1STR    H21  503   3.644   4.498   8.451
    1STR    H22  504   3.568   4.657   8.462
    1STR    H23  505   3.388   4.346   8.765
    1STR    H27  506   3.177   4.303   8.612
    1STR    H28  507   1.336   4.609   8.362
    1STR    H29  508   1.100   4.630   8.328
    1STR    H2A  509   0.844   4.399   8.442
    1STR    H2B  510   0.887   4.526   8.329
    1STR    H2C  511   0.847   4.568   8.496
    1STR   BCK1  512   0.885   4.267  13.206
    1STR    O03  513   0.886   4.184  13.296
    1STR    N04  514   0.983   4.358  13.189
    1STR    C05  515   1.085   4.388  13.282
    1STR    C06  516   1.224   4.386  13.248
    1STR    C07  517   1.326   4.421  13.342
    1STR    N08  518   1.464   4.424  13.307
    1STR    C09  519   1.574   4.437  13.385
    1STR    O0A  520   1.571   4.440  13.508
    1STR    O0B  521   1.692   4.446  13.315
    1STR    C0C  522   1.819   4.454  13.386
    1STR    C0D  523   1.858   4.314  13.436
    1STR    C0E  524   1.934   4.518  13.303
    1STR    O0F  525   2.057   4.523  13.379
    1STR    C0G  526   2.172   4.583  13.315
    1STR    C0H  527   2.157   4.736  13.320
    1STR    C0I  528   2.303   4.538  13.385
    1STR    O0J  529   2.421   4.579  13.312
    1STR    C0K  530   2.549   4.545  13.371
    1STR    C0M  531   2.571   4.393  13.368
    1STR    C0N  532   2.667   4.615  13.298
    1STR    O0O  533   2.787   4.602  13.374
    1STR    C0P  534   2.905   4.558  13.322
    1STR    O0Q  535   2.924   4.521  13.207
    1STR    N0R  536   2.996   4.561  13.420
    1STR    C0S  537   3.131   4.526  13.433
    1STR    C0T  538   3.183   4.542  13.564
    1STR    C0U  539   3.315   4.511  13.593
    1STR    C0V  540   3.404   4.466  13.494
    1STR    C0W  541   3.547   4.447  13.539
    1STR    C0X  542   3.358   4.448  13.360
    1STR    N0Y  543   3.441   4.418  13.249
    1STR   BCK2  544   3.560   4.362  13.217
    1STR    O10  545   3.603   4.383  13.104
    1STR    C13  546   3.220   4.478  13.332
    1STR    C14  547   1.283   4.456  13.472
    1STR    C15  548   1.147   4.461  13.506
    1STR    C16  549   1.048   4.430  13.412
    1STR    C17  550   0.903   4.450  13.453
    1STR    H1B  551   0.975   4.417  13.108
    1STR    H1C  552   1.253   4.358  13.148
    1STR    H1D  553   1.488   4.415  13.210
    1STR    H1E  554   1.804   4.519  13.474
    1STR    H1F  555   1.875   4.246  13.353
    1STR    H1G  556   1.950   4.318  13.494
    1STR    H1H  557   1.781   4.271  13.500
    1STR    H1I  558   1.904   4.618  13.273
    1STR    H1J  559   1.950   4.460  13.212
    1STR    H1K  560   2.177   4.550  13.211
    1STR    H1M  561   2.145   4.771  13.422
    1STR    H1N  562   2.072   4.772  13.262
    1STR    H1O  563   2.246   4.785  13.279
    1STR    H1P  564   2.306   4.578  13.487
    1STR    H1Q  565   2.301   4.430  13.394
    1STR    H1R  566   2.549   4.580  13.475
    1STR    H1S  567   2.671   4.368  13.405
    1STR    H1T  568   2.564   4.355  13.266
    1STR    H1U  569   2.500   4.338  13.430
    1STR    H1V  570   2.646   4.721  13.287
    1STR    H1W  571   2.679   4.576  13.196
    1STR    H1X  572   2.953   4.599  13.502
    1STR    H1Y  573   3.120   4.579  13.643
    1STR    H1Z  574   3.351   4.526  13.694
    1STR    H20  575   3.566   4.341  13.554
    1STR    H21  576   3.617   4.489  13.467
    1STR    H22  577   3.567   4.496  13.634
    1STR    H23  578   3.402   4.451  13.162
    1STR    H27  579   3.181   4.467  13.232
    1STR    H28  580   1.352   4.484  13.551
    1STR    H29  581   1.120   4.491  13.606
    1STR    H2A  582   0.845   4.492  13.371
    1STR    H2B  583   0.894   4.518  13.537
    1STR    H2C  584   0.859   4.355  13.482
    1STR   BCK1  585   0.867   8.599   0.025
    1STR    O03  586   0.831   8.656  17.362
    1STR    N04  587   0.989   8.542   0.041
    1STR    C05  588   1.087   8.512  17.384
    1STR    C06  589   1.226   8.535  17.409
    1STR    C07  590   1.329   8.490  17.319
    1STR    N08  591   1.467   8.508  17.347
    1STR    C09  592   1.574   8.441  17.297
    1STR    O0A  593   1.565   8.347  17.219
    1STR    O0B  594   1.695   8.488  17.342
    1STR    C0C  595   1.819   8.435  17.288
    1STR    C0D  596   1.849   8.506  17.155
    1STR    C0E  597   1.939   8.448  17.387
    1STR    O0F  598   2.061   8.393  17.331
    1STR    C0G  599   2.176   8.391  17.418
    1STR    C0H  600   2.162   8.276   0.078
    1STR    C0I  601   2.308   8.375  17.336
    1STR    O0J  602   2.426   8.390  17.418
    1STR    C0K  603   2.555   8.375  17.354
    1STR    C0M  604   2.579   8.493  17.258
    1STR    C0N  605   2.670   8.370   0.019
    1STR    O0O  606   2.796   8.338  17.399
    1STR    C0P  607   2.913   8.396  -0.000
    1STR    O0Q  608   2.922   8.485   0.083
    1STR    N0R  609   3.016   8.343  17.373
    1STR    C0S  610   3.154   8.371  17.367
    1STR    C0T  611   3.226   8.302  17.267
    1STR    C0U  612   3.361   8.331  17.242
    1STR    C0V  613   3.430   8.428  17.316
    1STR    C0W  614   3.567   8.468  17.267
    1STR    C0X  615   3.365   8.491  17.426
    1STR    N0Y  616   3.426   8.594   0.061
    1STR   BCK2  617   3.547   8.621   0.114
    1STR    O10  618   3.564   8.731   0.164
    1STR    C13  619   3.226   8.464   0.007
    1STR    C14  620   1.286   8.427  17.200
    1STR    C15  621   1.150   8.402  17.175
    1STR    C16  622   1.051   8.440  17.267
    1STR    C17  623   0.909   8.395  17.239
    1STR    H1B  624   1.006   8.510   0.134
    1STR    H1C  625   1.255   8.586   0.060
    1STR    H1D  626   1.493   8.578  17.414
    1STR    H1E  627   1.805   8.329  17.268
    1STR    H1F  628   1.864   8.613  17.169
    1STR    H1G  629   1.940   8.466  17.109
    1STR    H1H  630   1.768   8.493  17.083
    1STR    H1I  631   1.912   8.396   0.039
    1STR    H1J  632   1.954   8.553  17.413
    1STR    H1K  633   2.183   8.486   0.031
    1STR    H1M  634   2.148   8.180   0.027
    1STR    H1N  635   2.078   8.289   0.145
    1STR    H1O  636   2.251   8.267   0.140
    1STR    H1P  637   2.309   8.278  17.286
    1STR    H1Q  638   2.308   8.451  17.257
    1STR    H1R  639   2.555   8.282  17.298
    1STR    H1S  640   2.680   8.488  17.215
    1STR    H1T  641   2.572   8.588  17.311
    1STR    H1U  642   2.510   8.495  17.174
    1STR    H1V  643   2.648   8.293   0.093
    1STR    H1W  644   2.675   8.464   0.074
    1STR    H1X  645   2.982   8.270  17.313
    1STR    H1Y  646   3.177   8.229  17.204
    1STR    H1Z  647   3.411   8.281  17.160
    1STR    H20  648   3.589   8.573  17.289
    1STR    H21  649   3.644   8.406  17.312
    1STR    H22  650   3.575   8.457  17.159
    1STR    H23  651   3.363   8.669   0.084
    1STR    H27  652   3.173   8.516   0.086
    1STR    H28  653   1.356   8.394  17.125
    1STR    H29  654   1.123   8.349  17.085
    1STR    H2A  655   0.857   8.368  17.330
    1STR    H2B  656   0.907   8.307  17.174
    1STR    H2C  657   0.853   8.474  17.189
    1STR   BCK1  658   0.886   8.736   4.416
    1STR    O03  659   0.838   8.818   4.494
    1STR    N04  660   1.003   8.751   4.350
    1STR    C05  661   1.091   8.861   4.343
    1STR    C06  662   1.233   8.840   4.341
    1STR    C07  663   1.327   8.947   4.325
    1STR    N08  664   1.467   8.923   4.317
    1STR    C09  665   1.571   9.009   4.305
    1STR    O0A  666   1.560   9.131   4.306
    1STR    O0B  667   1.694   8.946   4.294
    1STR    C0C  668   1.816   9.025   4.290
    1STR    C0D  669   1.852   9.068   4.433
    1STR    C0E  670   1.937   8.952   4.223
    1STR    O0F  671   2.059   9.030   4.226
    1STR    C0G  672   2.175   8.973   4.162
    1STR    C0H  673   2.163   8.992   4.010
    1STR    C0I  674   2.307   9.039   4.214
    1STR    O0J  675   2.427   8.970   4.171
    1STR    C0K  676   2.555   9.023   4.215
    1STR    C0M  677   2.570   9.007   4.367
    1STR    C0N  678   2.674   8.950   4.145
    1STR    O0O  679   2.801   9.012   4.176
    1STR    C0P  680   2.912   8.941   4.215
    1STR    O0Q  681   2.915   8.822   4.242
    1STR    N0R  682   3.017   9.024   4.217
    1STR    C0S  683   3.154   9.015   4.250
    1STR    C0T  684   3.229   9.128   4.216
    1STR    C0U  685   3.364   9.140   4.253
    1STR    C0V  686   3.428   9.038   4.324
    1STR    C0W  687   3.569   9.067   4.374
    1STR    C0X  688   3.360   8.916   4.352
    1STR    N0Y  689   3.427   8.816   4.425
    1STR   BCK2  690   3.549   8.762   4.400
    1STR    O10  691   3.612   8.782   4.297
    1STR    C13  692   3.221   8.907   4.316
    1STR    C14  693   1.273   9.077   4.314
    1STR    C15  694   1.135   9.100   4.313
    1STR    C16  695   1.043   8.994   4.323
    1STR    C17  696   0.896   9.028   4.305
    1STR    H1B  697   1.029   8.668   4.300
    1STR    H1C  698   1.270   8.740   4.352
    1STR    H1D  699   1.498   8.827   4.319
    1STR    H1E  700   1.797   9.115   4.231
    1STR    H1F  701   1.872   8.982   4.497
    1STR    H1G  702   1.941   9.132   4.434
    1STR    H1H  703   1.771   9.126   4.478
    1STR    H1I  704   1.910   8.929   4.119
    1STR    H1J  705   1.954   8.856   4.272
    1STR    H1K  706   2.181   8.867   4.186
    1STR    H1M  707   2.150   9.097   3.984
    1STR    H1N  708   2.078   8.937   3.968
    1STR    H1O  709   2.252   8.957   3.959
    1STR    H1P  710   2.311   9.144   4.183
    1STR    H1Q  711   2.302   9.040   4.323
    1STR    H1R  712   2.559   9.129   4.188
    1STR    H1S  713   2.668   9.040   4.399
    1STR    H1T  714   2.559   8.903   4.396
    1STR    H1U  715   2.497   9.066   4.423
    1STR    H1V  716   2.662   8.955   4.037
    1STR    H1W  717   2.675   8.844   4.170
    1STR    H1X  718   2.987   9.114   4.186
    1STR    H1Y  719   3.184   9.211   4.164
    1STR    H1Z  720   3.417   9.231   4.229
    1STR    H20  721   3.587   9.022   4.472
    1STR    H21  722   3.643   9.029   4.304
    1STR    H22  723   3.586   9.174   4.386
    1STR    H23  724   3.382   8.781   4.508
    1STR    H27  725   3.165   8.818   4.341
    1STR    H28  726   1.335   9.165   4.303
    1STR    H29  727   1.099   9.201   4.301
    1STR    H2A  728   0.842   8.948   4.257
    1STR    H2B  729   0.884   9.117   4.243
    1STR    H2C  730   0.850   9.050   4.402
    1STR   BCK1  731   0.857   8.645   8.791
    1STR    O03  732   0.828   8.703   8.687
    1STR    N04  733   0.989   8.631   8.817
    1STR    C05  734   1.084   8.571   8.905
    1STR    C06  735   1.222   8.605   8.884
    1STR    C07  736   1.330   8.549   8.959
    1STR    N08  737   1.466   8.584   8.935
    1STR    C09  738   1.579   8.526   8.982
    1STR    O0A  739   1.581   8.425   9.051
    1STR    O0B  740   1.694   8.591   8.944
    1STR    C0C  741   1.823   8.538   8.986
    1STR    C0D  742   1.860   8.416   8.899
    1STR    C0E  743   1.938   8.643   8.985
    1STR    O0F  744   2.061   8.585   9.034
    1STR    C0G  745   2.175   8.672   9.044
    1STR    C0H  746   2.160   8.761   9.168
    1STR    C0I  747   2.307   8.589   9.053
    1STR    O0J  748   2.424   8.672   9.047
    1STR    C0K  749   2.552   8.606   9.060
    1STR    C0M  750   2.580   8.521   8.935
    1STR    C0N  751   2.666   8.710   9.079
    1STR    O0O  752   2.787   8.646   9.122
    1STR    C0P  753   2.907   8.669   9.062
    1STR    O0Q  754   2.927   8.742   8.966
    1STR    N0R  755   3.001   8.596   9.124
    1STR    C0S  756   3.135   8.567   9.095
    1STR    C0T  757   3.185   8.449   9.152
    1STR    C0U  758   3.313   8.401   9.119
    1STR    C0V  759   3.396   8.473   9.031
    1STR    C0W  760   3.520   8.400   8.981
    1STR    C0X  761   3.356   8.601   8.985
    1STR    N0Y  762   3.437   8.680   8.902
    1STR   BCK2  763   3.568   8.713   8.899
    1STR    O10  764   3.610   8.777   8.803
    1STR    C13  765   3.223   8.645   9.014
    1STR    C14  766   1.295   8.458   9.061
    1STR    C15  767   1.162   8.424   9.085
    1STR    C16  768   1.056   8.478   9.009
    1STR    C17  769   0.919   8.427   9.048
    1STR    H1B  770   1.034   8.682   8.743
    1STR    H1C  771   1.247   8.675   8.806
    1STR    H1D  772   1.485   8.662   8.875
    1STR    H1E  773   1.813   8.505   9.090
    1STR    H1F  774   1.872   8.444   8.795
    1STR    H1G  775   1.953   8.371   8.933
    1STR    H1H  776   1.783   8.339   8.905
    1STR    H1I  777   1.909   8.728   9.046
    1STR    H1J  778   1.953   8.681   8.884
    1STR    H1K  779   2.182   8.734   8.954
    1STR    H1M  780   2.146   8.701   9.258
    1STR    H1N  781   2.075   8.829   9.160
    1STR    H1O  782   2.249   8.823   9.183
    1STR    H1P  783   2.307   8.530   9.145
    1STR    H1Q  784   2.307   8.517   8.971
    1STR    H1R  785   2.549   8.542   9.148
    1STR    H1S  786   2.681   8.478   8.940
    1STR    H1T  787   2.576   8.581   8.844
    1STR    H1U  788   2.511   8.438   8.924
    1STR    H1V  789   2.638   8.781   9.157
    1STR    H1W  790   2.681   8.768   8.989
    1STR    H1X  791   2.960   8.547   9.201
    1STR    H1Y  792   3.124   8.389   9.218
    1STR    H1Z  793   3.346   8.306   9.158
    1STR    H20  794   3.555   8.442   8.886
    1STR    H21  795   3.600   8.405   9.054
    1STR    H22  796   3.498   8.295   8.962
    1STR    H23  797   3.388   8.727   8.827
    1STR    H27  798   3.187   8.738   8.973
    1STR    H28  799   1.368   8.412   9.126
    1STR    H29  800   1.141   8.353   9.164
    1STR    H2A  801   0.861   8.509   9.090
    1STR    H2B  802   0.923   8.350   9.124
    1STR    H2C  803   0.870   8.383   8.961
    1STR   BCK1  804   0.875   8.640  13.054
    1STR    O03  805   0.827   8.748  13.021
    1STR    N04  806   0.997   8.596  13.016
    1STR    C05  807   1.089   8.645  12.921
    1STR    C06  808   1.230   8.642  12.946
    1STR    C07  809   1.327   8.677  12.846
    1STR    N08  810   1.468   8.668  12.871
    1STR    C09  811   1.572   8.667  12.784
    1STR    O0A  812   1.559   8.672  12.662
    1STR    O0B  813   1.695   8.659  12.845
    1STR    C0C  814   1.817   8.668  12.767
    1STR    C0D  815   1.848   8.816  12.739
    1STR    C0E  816   1.939   8.598  12.835
    1STR    O0F  817   2.061   8.609  12.758
    1STR    C0G  818   2.177   8.540  12.809
    1STR    C0H  819   2.164   8.390  12.776
    1STR    C0I  820   2.310   8.596  12.749
    1STR    O0J  821   2.427   8.542  12.815
    1STR    C0K  822   2.557   8.585  12.767
    1STR    C0M  823   2.578   8.734  12.796
    1STR    C0N  824   2.672   8.503  12.836
    1STR    O0O  825   2.801   8.534  12.781
    1STR    C0P  826   2.914   8.543  12.858
    1STR    O0Q  827   2.918   8.537  12.981
    1STR    N0R  828   3.020   8.564  12.779
    1STR    C0S  829   3.156   8.592  12.798
    1STR    C0T  830   3.225   8.627  12.681
    1STR    C0U  831   3.358   8.670  12.685
    1STR    C0V  832   3.428   8.677  12.806
    1STR    C0W  833   3.565   8.743  12.802
    1STR    C0X  834   3.368   8.629  12.926
    1STR    N0Y  835   3.441   8.627  13.048
    1STR   BCK2  836   3.567   8.582  13.069
    1STR    O10  837   3.636   8.529  12.983
    1STR    C13  838   3.229   8.592  12.921
    1STR    C14  839   1.278   8.722  12.722
    1STR    C15  840   1.140   8.724  12.695
    1STR    C16  841   1.046   8.683  12.791
    1STR    C17  842   0.901   8.675  12.746
    1STR    H1B  843   1.024   8.511  13.063
    1STR    H1C  844   1.265   8.610  13.043
    1STR    H1D  845   1.498   8.659  12.966
    1STR    H1E  846   1.801   8.618  12.671
    1STR    H1F  847   1.865   8.871  12.831
    1STR    H1G  848   1.936   8.826  12.677
    1STR    H1H  849   1.765   8.864  12.686
    1STR    H1I  850   1.913   8.493  12.850
    1STR    H1J  851   1.955   8.641  12.934
    1STR    H1K  852   2.182   8.554  12.917
    1STR    H1M  853   2.151   8.374  12.669
    1STR    H1N  854   2.079   8.344  12.828
    1STR    H1O  855   2.253   8.336  12.807
    1STR    H1P  856   2.314   8.575  12.642
    1STR    H1Q  857   2.308   8.705  12.759
    1STR    H1R  858   2.563   8.567  12.660
    1STR    H1S  859   2.678   8.766  12.767
    1STR    H1T  860   2.566   8.756  12.902
    1STR    H1U  861   2.509   8.798  12.740
    1STR    H1V  862   2.655   8.396  12.821
    1STR    H1W  863   2.670   8.519  12.944
    1STR    H1X  864   2.989   8.561  12.683
    1STR    H1Y  865   3.176   8.625  12.585
    1STR    H1Z  866   3.407   8.700  12.593
    1STR    H20  867   3.590   8.790  12.897
    1STR    H21  868   3.642   8.670  12.777
    1STR    H22  869   3.568   8.821  12.726
    1STR    H23  870   3.393   8.659  13.130
    1STR    H27  871   3.179   8.561  13.012
    1STR    H28  872   1.343   8.754  12.643
    1STR    H29  873   1.107   8.755  12.597
    1STR    H2A  874   0.849   8.592  12.793
    1STR    H2B  875   0.894   8.660  12.638
    1STR    H2C  876   0.849   8.768  12.771
    1STR   BCK1  877   0.888  13.039   0.128
    1STR    O03  878   0.870  13.029   0.249
    1STR    N04  879   0.992  13.106   0.074
    1STR    C05  880   1.087  13.187   0.139
    1STR    C06  881   1.228  13.173   0.115
    1STR    C07  882   1.326  13.257   0.178
    1STR    N08  883   1.465  13.246   0.149
    1STR    C09  884   1.572  13.303   0.209
    1STR    O0A  885   1.565  13.373   0.309
    1STR    O0B  886   1.692  13.275   0.148
    1STR    C0C  887   1.817  13.323   0.205
    1STR    C0D  888   1.856  13.233   0.324
    1STR    C0E  889   1.935  13.332   0.103
    1STR    O0F  890   2.058  13.377   0.165
    1STR    C0G  891   2.174  13.393   0.081
    1STR    C0H  892   2.160  13.525   0.002
    1STR    C0I  893   2.305  13.393   0.165
    1STR    O0J  894   2.425  13.387   0.085
    1STR    C0K  895   2.552  13.386   0.155
    1STR    C0M  896   2.569  13.255   0.232
    1STR    C0N  897   2.673  13.404   0.059
    1STR    O0O  898   2.795  13.424   0.134
    1STR    C0P  899   2.911  13.357   0.109
    1STR    O0Q  900   2.926  13.267   0.027
    1STR    N0R  901   3.007  13.406   0.188
    1STR    C0S  902   3.143  13.380   0.210
    1STR    C0T  903   3.207  13.470   0.297
    1STR    C0U  904   3.343  13.457   0.328
    1STR    C0V  905   3.421  13.355   0.272
    1STR    C0W  906   3.569  13.358   0.306
    1STR    C0X  907   3.362  13.259   0.185
    1STR    N0Y  908   3.434  13.162   0.112
    1STR   BCK2  909   3.549  13.090   0.114
    1STR    O10  910   3.580  13.035   0.009
    1STR    C13  911   3.222  13.275   0.155
    1STR    C14  912   1.277  13.355   0.267
    1STR    C15  913   1.140  13.372   0.290
    1STR    C16  914   1.045  13.292   0.225
    1STR    C17  915   0.898  13.327   0.245
    1STR    H1B  916   0.998  13.098  17.414
    1STR    H1C  917   1.261  13.096   0.047
    1STR    H1D  918   1.492  13.186   0.073
    1STR    H1E  919   1.800  13.424   0.243
    1STR    H1F  920   1.874  13.131   0.292
    1STR    H1G  921   1.946  13.270   0.373
    1STR    H1H  922   1.777  13.232   0.400
    1STR    H1I  923   1.906  13.401   0.023
    1STR    H1J  924   1.951  13.235   0.057
    1STR    H1K  925   2.179  13.309   0.012
    1STR    H1M  926   2.148  13.610   0.069
    1STR    H1N  927   2.076  13.523  17.374
    1STR    H1O  928   2.250  13.543  17.382
    1STR    H1P  929   2.307  13.481   0.229
    1STR    H1Q  930   2.301  13.307   0.232
    1STR    H1R  931   2.552  13.470   0.225
    1STR    H1S  932   2.667  13.250   0.279
    1STR    H1T  933   2.560  13.169   0.165
    1STR    H1U  934   2.496  13.242   0.312
    1STR    H1V  935   2.658  13.491  17.436
    1STR    H1W  936   2.682  13.319  17.431
    1STR    H1X  937   2.967  13.481   0.242
    1STR    H1Y  938   3.153  13.553   0.340
    1STR    H1Z  939   3.388  13.530   0.394
    1STR    H20  940   3.590  13.286   0.384
    1STR    H21  941   3.629  13.338   0.218
    1STR    H22  942   3.599  13.456   0.343
    1STR    H23  943   3.388  13.137   0.026
    1STR    H27  944   3.173  13.206   0.087
    1STR    H28  945   1.342  13.423   0.320
    1STR    H29  946   1.107  13.450   0.357
    1STR    H2A  947   0.841  13.310   0.154
    1STR    H2B  948   0.886  13.432   0.272
    1STR    H2C  949   0.855  13.267   0.325
    1STR   BCK1  950   0.863  12.965   4.414
    1STR    O03  951   0.841  12.963   4.293
    1STR    N04  952   0.980  12.929   4.469
    1STR    C05  953   1.084  12.854   4.411
    1STR    C06  954   1.222  12.891   4.423
    1STR    C07  955   1.328  12.807   4.375
    1STR    N08  956   1.465  12.841   4.391
    1STR    C09  957   1.574  12.761   4.388
    1STR    O0A  958   1.568  12.639   4.375
    1STR    O0B  959   1.693  12.828   4.400
    1STR    C0C  960   1.819  12.757   4.383
    1STR    C0D  961   1.851  12.747   4.233
    1STR    C0E  962   1.937  12.822   4.461
    1STR    O0F  963   2.060  12.746   4.444
    1STR    C0G  964   2.175  12.791   4.518
    1STR    C0H  965   2.160  12.747   4.665
    1STR    C0I  966   2.306  12.733   4.458
    1STR    O0J  967   2.424  12.789   4.520
    1STR    C0K  968   2.552  12.740   4.475
    1STR    C0M  969   2.579  12.789   4.331
    1STR    C0N  970   2.666  12.789   4.568
    1STR    O0O  971   2.791  12.724   4.537
    1STR    C0P  972   2.910  12.791   4.536
    1STR    O0Q  973   2.924  12.911   4.554
    1STR    N0R  974   3.008  12.705   4.509
    1STR    C0S  975   3.146  12.719   4.483
    1STR    C0T  976   3.209  12.607   4.425
    1STR    C0U  977   3.342  12.614   4.382
    1STR    C0V  978   3.418  12.732   4.397
    1STR    C0W  979   3.551  12.737   4.325
    1STR    C0X  980   3.363  12.842   4.467
    1STR    N0Y  981   3.432  12.963   4.485
    1STR   BCK2  982   3.558  12.999   4.519
    1STR    O10  983   3.586  13.118   4.517
    1STR    C13  984   3.225  12.835   4.506
    1STR    C14  985   1.291  12.687   4.310
    1STR    C15  986   1.156  12.648   4.299
    1STR    C16  987   1.053  12.728   4.352
    1STR    C17  988   0.912  12.672   4.350
    1STR    H1B  989   0.987  12.946   4.568
    1STR    H1C  990   1.246  12.985   4.470
    1STR    H1D  991   1.488  12.937   4.409
    1STR    H1E  992   1.807  12.656   4.423
    1STR    H1F  993   1.864  12.845   4.188
    1STR    H1G  994   1.942  12.689   4.217
    1STR    H1H  995   1.771  12.696   4.179
    1STR    H1I  996   1.910  12.827   4.566
    1STR    H1J  997   1.953  12.924   4.427
    1STR    H1K  998   2.181  12.900   4.512
    1STR    H1M  999   2.146  12.639   4.673
    1STR    H1N 1000   2.076  12.795   4.714
    1STR    H1O 1001   2.249  12.773   4.722
    1STR    H1P 1002   2.306  12.624   4.468
    1STR    H1Q 1003   2.307  12.754   4.351
    1STR    H1R 1004   2.551  12.631   4.477
    1STR    H1S 1005   2.679  12.760   4.299
    1STR    H1T 1006   2.573  12.898   4.326
    1STR    H1U 1007   2.510  12.747   4.259
    1STR    H1V 1008   2.642  12.765   4.672
    1STR    H1W 1009   2.676  12.897   4.564
    1STR    H1X 1010   2.971  12.612   4.502
    1STR    H1Y 1011   3.155  12.515   4.408
    1STR    H1Z 1012   3.386  12.529   4.331
    1STR    H20 1013   3.579  12.839   4.299
    1STR    H21 1014   3.630  12.693   4.386
    1STR    H22 1015   3.547  12.682   4.231
    1STR    H23 1016   3.376  13.046   4.473
    1STR    H27 1017   3.178  12.921   4.553
    1STR    H28 1018   1.364  12.621   4.267
    1STR    H29 1019   1.133  12.554   4.253
    1STR    H2A 1020   0.860  12.694   4.442
    1STR    H2B 1021   0.913  12.563   4.339
    1STR    H2C 1022   0.856  12.714   4.266
    1STR   BCK1 1023   0.878  13.076   8.719
    1STR    O03 1024   0.828  13.180   8.759
    1STR    N04 1025   0.999  13.067   8.658
    1STR    C05 1026   1.088  13.166   8.610
    1STR    C06 1027   1.230  13.148   8.619
    1STR    C07 1028   1.325  13.240   8.563
    1STR    N08 1029   1.466  13.216   8.569
    1STR    C09 1030   1.569  13.284   8.512
    1STR    O0A 1031   1.557  13.384   8.443
    1STR    O0B 1032   1.693  13.229   8.539
    1STR    C0C 1033   1.815  13.295   8.495
    1STR    C0D 1034   1.848  13.409   8.593
    1STR    C0E 1035   1.937  13.199   8.479
    1STR    O0F 1036   2.059  13.268   8.440
    1STR    C0G 1037   2.176  13.186   8.416
    1STR    C0H 1038   2.164  13.121   8.278
    1STR    C0I 1039   2.309  13.269   8.425
    1STR    O0J 1040   2.428  13.186   8.426
    1STR    C0K 1041   2.557  13.252   8.434
    1STR    C0M 1042   2.572  13.322   8.569
    1STR    C0N 1043   2.674  13.150   8.415
    1STR    O0O 1044   2.803  13.216   8.410
    1STR    C0P 1045   2.913  13.168   8.477
    1STR    O0Q 1046   2.915  13.076   8.557
    1STR    N0R 1047   3.020  13.240   8.440
    1STR    C0S 1048   3.157  13.246   8.474
    1STR    C0T 1049   3.231  13.339   8.399
    1STR    C0U 1050   3.365  13.366   8.429
    1STR    C0V 1051   3.430  13.301   8.535
    1STR    C0W 1052   3.569  13.351   8.571
    1STR    C0X 1053   3.364  13.197   8.607
    1STR    N0Y 1054   3.433  13.129   8.710
    1STR   BCK2 1055   3.556  13.074   8.706
    1STR    O10 1056   3.622  13.064   8.603
    1STR    C13 1057   3.225  13.173   8.577
    1STR    C14 1058   1.272  13.354   8.500
    1STR    C15 1059   1.133  13.373   8.487
    1STR    C16 1060   1.041  13.279   8.538
    1STR    C17 1061   0.895  13.303   8.504
    1STR    H1B 1062   1.028  12.971   8.644
    1STR    H1C 1063   1.267  13.061   8.671
    1STR    H1D 1064   1.497  13.137   8.622
    1STR    H1E 1065   1.796  13.339   8.396
    1STR    H1F 1066   1.868  13.372   8.693
    1STR    H1G 1067   1.936  13.465   8.559
    1STR    H1H 1068   1.766  13.481   8.599
    1STR    H1I 1069   1.912  13.124   8.404
    1STR    H1J 1070   1.954  13.146   8.573
    1STR    H1K 1071   2.182  13.109   8.493
    1STR    H1M 1072   2.151  13.196   8.200
    1STR    H1N 1073   2.080  13.052   8.272
    1STR    H1O 1074   2.253  13.064   8.253
    1STR    H1P 1075   2.313  13.341   8.343
    1STR    H1Q 1076   2.305  13.328   8.517
    1STR    H1R 1077   2.563  13.326   8.353
    1STR    H1S 1078   2.672  13.366   8.579
    1STR    H1T 1079   2.560  13.251   8.651
    1STR    H1U 1080   2.501  13.403   8.583
    1STR    H1V 1081   2.662  13.097   8.321
    1STR    H1W 1082   2.672  13.075   8.494
    1STR    H1X 1083   2.991  13.306   8.370
    1STR    H1Y 1084   3.186  13.394   8.318
    1STR    H1Z 1085   3.417  13.442   8.372
    1STR    H20 1086   3.589  13.341   8.678
    1STR    H21 1087   3.645  13.296   8.516
    1STR    H22 1088   3.580  13.457   8.548
    1STR    H23 1089   3.385  13.120   8.799
    1STR    H27 1090   3.170  13.099   8.634
    1STR    H28 1091   1.334  13.431   8.457
    1STR    H29 1092   1.097  13.461   8.435
    1STR    H2A 1093   0.842  13.209   8.489
    1STR    H2B 1094   0.884  13.360   8.412
    1STR    H2C 1095   0.846  13.359   8.584
    1STR   BCK1 1096   0.860  12.955  13.189
    1STR    O03 1097   0.829  12.866  13.267
    1STR    N04 1098   0.975  13.027  13.196
    1STR    C05 1099   1.077  13.027  13.294
    1STR    C06 1100   1.216  13.036  13.258
    1STR    C07 1101   1.321  13.041  13.356
    1STR    N08 1102   1.458  13.057  13.320
    1STR    C09 1103   1.570  13.045  13.396
    1STR    O0A 1104   1.570  13.005  13.512
    1STR    O0B 1105   1.687  13.079  13.331
    1STR    C0C 1106   1.815  13.064  13.400
    1STR    C0D 1107   1.855  12.915  13.397
    1STR    C0E 1108   1.930  13.152  13.343
    1STR    O0F 1109   2.054  13.131  13.416
    1STR    C0G 1110   2.168  13.210  13.377
    1STR    C0H 1111   2.154  13.352  13.434
    1STR    C0I 1112   2.301  13.144  13.427
    1STR    O0J 1113   2.418  13.210  13.374
    1STR    C0K 1114   2.546  13.161  13.419
    1STR    C0M 1115   2.573  13.020  13.364
    1STR    C0N 1116   2.661  13.256  13.374
    1STR    O0O 1117   2.783  13.224  13.443
    1STR    C0P 1118   2.901  13.200  13.381
    1STR    O0Q 1119   2.921  13.201  13.260
    1STR    N0R 1120   2.992  13.172  13.474
    1STR    C0S 1121   3.125  13.128  13.475
    1STR    C0T 1122   3.168  13.080  13.599
    1STR    C0U 1123   3.297  13.029  13.615
    1STR    C0V 1124   3.389  13.028  13.509
    1STR    C0W 1125   3.523  12.968  13.544
    1STR    C0X 1126   3.353  13.082  13.382
    1STR    N0Y 1127   3.441  13.107  13.274
    1STR   BCK2 1128   3.565  13.081  13.226
    1STR    O10 1129   3.607  13.152  13.136
    1STR    C13 1130   3.218  13.129  13.367
    1STR    C14 1131   1.281  13.033  13.492
    1STR    C15 1132   1.146  13.028  13.529
    1STR    C16 1133   1.044  13.029  13.433
    1STR    C17 1134   0.902  13.042  13.485
    1STR    H1B 1135   0.987  13.090  13.119
    1STR    H1C 1136   1.241  13.040  13.154
    1STR    H1D 1137   1.479  13.082  13.225
    1STR    H1E 1138   1.801  13.094  13.504
    1STR    H1F 1139   1.871  12.879  13.296
    1STR    H1G 1140   1.947  12.899  13.453
    1STR    H1H 1141   1.779  12.852  13.444
    1STR    H1I 1142   1.900  13.257  13.349
    1STR    H1J 1143   1.946  13.130  13.237
    1STR    H1K 1144   2.173  13.214  13.268
    1STR    H1M 1145   2.142  13.349  13.542
    1STR    H1N 1146   2.068  13.405  13.392
    1STR    H1O 1147   2.242  13.411  13.412
    1STR    H1P 1148   2.303  13.146  13.536
    1STR    H1Q 1149   2.300  13.039  13.397
    1STR    H1R 1150   2.546  13.159  13.528
    1STR    H1S 1151   2.673  12.986  13.391
    1STR    H1T 1152   2.567  13.019  13.255
    1STR    H1U 1153   2.503  12.946  13.403
    1STR    H1V 1154   2.636  13.359  13.399
    1STR    H1W 1155   2.675  13.253  13.266
    1STR    H1X 1156   2.948  13.182  13.564
    1STR    H1Y 1157   3.103  13.079  13.685
    1STR    H1Z 1158   3.326  12.991  13.712
    1STR    H20 1159   3.537  12.877  13.485
    1STR    H21 1160   3.603  13.039  13.526
    1STR    H22 1161   3.531  12.937  13.648
    1STR    H23 1162   3.401  13.171  13.207
    1STR    H27 1163   3.185  13.170  13.273
    1STR    H28 1164   1.352  13.035  13.573
    1STR    H29 1165   1.122  13.026  13.634
    1STR    H2A 1166   0.840  13.100  13.417
    1STR    H2B 1167   0.900  13.092  13.581
    1STR    H2C 1168   0.858  12.943  13.499
    1STR   BCK1 1169   5.233  17.326   0.003
    1STR    O03 1170   5.189  17.409  17.365
    1STR    N04 1171   5.355  17.269  17.434
    1STR    C05 1172   5.450  17.271  17.330
    1STR    C06 1173   5.590  17.283  17.357
    1STR    C07 1174   5.689  17.269  17.255
    1STR    N08 1175   5.828  17.276  17.284
    1STR    C09 1176   5.933  17.230  17.212
    1STR    O0A 1177   5.923  17.170  17.105
    1STR    O0B 1178   6.055  17.258  17.269
    1STR    C0C 1179   6.178  17.226  17.200
    1STR    C0D 1180   6.209  17.337  17.099
    1STR    C0E 1181   6.298  17.203  17.296
    1STR    O0F 1182   6.420  17.170  17.226
    1STR    C0G 1183   6.536  17.139  17.307
    1STR    C0H 1184   6.522  16.996  17.361
    1STR    C0I 1185   6.668  17.154  17.226
    1STR    O0J 1186   6.784  17.142  17.310
    1STR    C0K 1187   6.914  17.150  17.247
    1STR    C0M 1188   6.938  17.293  17.194
    1STR    C0N 1189   7.028  17.113  17.347
    1STR    O0O 1190   7.155  17.108  17.281
    1STR    C0P 1191   7.270  17.149  17.341
    1STR    O0Q 1192   7.280  17.196   0.014
    1STR    N0R 1193   7.372  17.133  17.255
    1STR    C0S 1194   7.508  17.166  17.255
    1STR    C0T 1195   7.570  17.158  17.129
    1STR    C0U 1196   7.706  17.190  17.113
    1STR    C0V 1197   7.786  17.227  17.223
    1STR    C0W 1198   7.932  17.254  17.193
    1STR    C0X 1199   7.729  17.231  17.353
    1STR    N0Y 1200   7.810  17.244   0.028
    1STR   BCK2 1201   7.916  17.322   0.056
    1STR    O10 1202   7.950  17.421  17.433
    1STR    C13 1203   7.589  17.202  17.367
    1STR    C14 1204   5.643  17.249  17.123
    1STR    C15 1205   5.506  17.235  17.094
    1STR    C16 1206   5.410  17.242  17.196
    1STR    C17 1207   5.266  17.211  17.158
    1STR    H1B 1208   5.378  17.212   0.074
    1STR    H1C 1209   5.621  17.301   0.018
    1STR    H1D 1210   5.856  17.318  17.370
    1STR    H1E 1211   6.164  17.132  17.145
    1STR    H1F 1212   6.225  17.433  17.148
    1STR    H1G 1213   6.299  17.314  17.041
    1STR    H1H 1214   6.128  17.349  17.027
    1STR    H1I 1215   6.272  17.123  17.365
    1STR    H1J 1216   6.314  17.293  17.357
    1STR    H1K 1217   6.541  17.210  17.390
    1STR    H1M 1218   6.509  16.925  17.280
    1STR    H1N 1219   6.437  16.985  17.429
    1STR    H1O 1220   6.611  16.967  17.417
    1STR    H1P 1221   6.671  17.079  17.146
    1STR    H1Q 1222   6.667  17.251  17.177
    1STR    H1R 1223   6.917  17.079  17.164
    1STR    H1S 1224   7.038  17.302  17.153
    1STR    H1T 1225   6.928  17.366  17.274
    1STR    H1U 1226   6.869  17.320  17.114
    1STR    H1V 1227   7.009  17.015  17.390
    1STR    H1W 1228   7.030  17.183  17.430
    1STR    H1X 1229   7.337  17.091  17.171
    1STR    H1Y 1230   7.515  17.129  17.041
    1STR    H1Z 1231   7.750  17.184  17.014
    1STR    H20 1232   7.950  17.362  17.192
    1STR    H21 1233   7.998  17.209  17.268
    1STR    H22 1234   7.963  17.216  17.096
    1STR    H23 1235   7.790  17.178   0.102
    1STR    H27 1236   7.543  17.206   0.025
    1STR    H28 1237   5.711  17.242  17.039
    1STR    H29 1238   5.476  17.216  16.993
    1STR    H2A 1239   5.215  17.157  17.237
    1STR    H2B 1240   5.262  17.148  17.069
    1STR    H2C 1241   5.212  17.303  17.137
    1STR   BCK1 1242   5.233   0.007   4.454
    1STR    O03 1243   5.190   0.068   4.551
    1STR    N04 1244   5.351   0.034   4.392
    1STR    C05 1245   5.443   0.141   4.411
    1STR    C06 1246   5.585   0.120   4.401
    1STR    C07 1247   5.681   0.226   4.412
    1STR    N08 1248   5.821   0.204   4.396
    1STR    C09 1249   5.927   0.288   4.414
    1STR    O0A 1250   5.917   0.402   4.460
    1STR    O0B 1251   6.050   0.234   4.379
    1STR    C0C 1252   6.173   0.310   4.401
    1STR    C0D 1253   6.211   0.301   4.550
    1STR    C0E 1254   6.293   0.265   4.311
    1STR    O0F 1255   6.416   0.337   4.341
    1STR    C0G 1256   6.533   0.306   4.261
    1STR    C0H 1257   6.520   0.375   4.125
    1STR    C0I 1258   6.665   0.351   4.333
    1STR    O0J 1259   6.785   0.303   4.268
    1STR    C0K 1260   6.912   0.339   4.328
    1STR    C0M 1261   6.928   0.271   4.464
    1STR    C0N 1262   7.034   0.300   4.238
    1STR    O0O 1263   7.158   0.354   4.290
    1STR    C0P 1264   7.272   0.279   4.304
    1STR    O0Q 1265   7.281   0.158   4.285
    1STR    N0R 1266   7.373   0.359   4.341
    1STR    C0S 1267   7.509   0.341   4.373
    1STR    C0T 1268   7.583   0.459   4.389
    1STR    C0U 1269   7.718   0.456   4.425
    1STR    C0V 1270   7.786   0.334   4.444
    1STR    C0W 1271   7.933   0.344   4.480
    1STR    C0X 1272   7.717   0.210   4.428
    1STR    N0Y 1273   7.776   0.081   4.432
    1STR   BCK2 1274   7.885   0.010   4.468
    1STR    O10 1275   7.889  17.334   4.428
    1STR    C13 1276   7.578   0.217   4.392
    1STR    C14 1277   5.630   0.355   4.437
    1STR    C15 1278   5.492   0.379   4.444
    1STR    C16 1279   5.398   0.275   4.427
    1STR    C17 1280   5.252   0.317   4.420
    1STR    H1B 1281   5.375  17.406   4.322
    1STR    H1C 1282   5.620   0.019   4.384
    1STR    H1D 1283   5.851   0.113   4.364
    1STR    H1E 1284   6.153   0.414   4.377
    1STR    H1F 1285   6.231   0.199   4.580
    1STR    H1G 1286   6.299   0.361   4.570
    1STR    H1H 1287   6.131   0.340   4.613
    1STR    H1I 1288   6.266   0.279   4.207
    1STR    H1J 1289   6.310   0.158   4.324
    1STR    H1K 1290   6.539   0.198   4.248
    1STR    H1M 1291   6.507   0.483   4.136
    1STR    H1N 1292   6.435   0.338   4.067
    1STR    H1O 1293   6.609   0.359   4.065
    1STR    H1P 1294   6.667   0.460   4.340
    1STR    H1Q 1295   6.661   0.314   4.435
    1STR    H1R 1296   6.914   0.448   4.341
    1STR    H1S 1297   7.027   0.291   4.506
    1STR    H1T 1298   6.919   0.162   4.454
    1STR    H1U 1299   6.856   0.305   4.538
    1STR    H1V 1300   7.020   0.341   4.138
    1STR    H1W 1301   7.040   0.192   4.226
    1STR    H1X 1302   7.339   0.453   4.344
    1STR    H1Y 1303   7.537   0.556   4.374
    1STR    H1Z 1304   7.771   0.549   4.435
    1STR    H20 1305   7.947   0.313   4.583
    1STR    H21 1306   7.992   0.283   4.412
    1STR    H22 1307   7.970   0.446   4.472
    1STR    H23 1308   7.715   0.013   4.390
    1STR    H27 1309   7.522   0.126   4.378
    1STR    H28 1310   5.693   0.442   4.447
    1STR    H29 1311   5.458   0.480   4.459
    1STR    H2A 1312   5.195   0.253   4.353
    1STR    H2B 1313   5.242   0.419   4.382
    1STR    H2C 1314   5.207   0.314   4.519
    1STR   BCK1 1315   5.224  17.367   8.788
    1STR    O03 1316   5.185   0.003   8.700
    1STR    N04 1317   5.356  17.336   8.789
    1STR    C05 1318   5.448  17.248   8.851
    1STR    C06 1319   5.586  17.286   8.849
    1STR    C07 1320   5.692  17.202   8.896
    1STR    N08 1321   5.827  17.241   8.888
    1STR    C09 1322   5.940  17.170   8.911
    1STR    O0A 1323   5.942  17.052   8.943
    1STR    O0B 1324   6.056  17.243   8.894
    1STR    C0C 1325   6.184  17.177   8.912
    1STR    C0D 1326   6.218  17.093   8.787
    1STR    C0E 1327   6.299  17.276   8.944
    1STR    O0F 1328   6.422  17.205   8.970
    1STR    C0G 1329   6.536  17.283   9.009
    1STR    C0H 1330   6.521  17.324   9.156
    1STR    C0I 1331   6.667  17.201   8.989
    1STR    O0J 1332   6.785  17.282   9.012
    1STR    C0K 1333   6.912  17.216   9.001
    1STR    C0M 1334   6.941  17.179   8.854
    1STR    C0N 1335   7.026  17.306   9.055
    1STR    O0O 1336   7.148  17.232   9.071
    1STR    C0P 1337   7.268  17.279   9.027
    1STR    O0Q 1338   7.286  17.385   8.969
    1STR    N0R 1339   7.363  17.189   9.056
    1STR    C0S 1340   7.498  17.178   9.021
    1STR    C0T 1341   7.551  17.048   9.028
    1STR    C0U 1342   7.681  17.021   8.982
    1STR    C0V 1343   7.763  17.124   8.931
    1STR    C0W 1344   7.891  17.081   8.861
    1STR    C0X 1345   7.719  17.259   8.938
    1STR    N0Y 1346   7.797  17.366   8.893
    1STR   BCK2 1347   7.926  17.403   8.907
    1STR    O10 1348   7.965   0.062   8.846
    1STR    C13 1349   7.584  17.283   8.979
    1STR    C14 1350   5.653  17.078   8.952
    1STR    C15 1351   5.519  17.038   8.954
    1STR    C16 1352   5.417  17.119   8.903
    1STR    C17 1353   5.279  17.056   8.900
    1STR    H1B 1354   5.398  17.397   8.722
    1STR    H1C 1355   5.612  17.383   8.808
    1STR    H1D 1356   5.848  17.335   8.858
    1STR    H1E 1357   6.176  17.110   8.998
    1STR    H1F 1358   6.228  17.155   8.698
    1STR    H1G 1359   6.311  17.039   8.802
    1STR    H1H 1360   6.140  17.019   8.768
    1STR    H1I 1361   6.271  17.336   9.031
    1STR    H1J 1362   6.314  17.346   8.861
    1STR    H1K 1363   6.543  17.372   8.946
    1STR    H1M 1364   6.507  17.237   9.220
    1STR    H1N 1365   6.436  17.391   9.172
    1STR    H1O 1366   6.610  17.377   9.191
    1STR    H1P 1367   6.667  17.115   9.055
    1STR    H1Q 1368   6.668  17.163   8.887
    1STR    H1R 1369   6.910  17.125   9.061
    1STR    H1S 1370   7.041  17.137   8.843
    1STR    H1T 1371   6.936  17.268   8.790
    1STR    H1U 1372   6.871  17.105   8.815
    1STR    H1V 1373   6.999  17.345   9.154
    1STR    H1W 1374   7.039  17.394   8.991
    1STR    H1X 1375   7.322  17.113   9.106
    1STR    H1Y 1376   7.492  16.965   9.063
    1STR    H1Z 1377   7.717  16.919   8.981
    1STR    H20 1378   7.925  17.157   8.790
    1STR    H21 1379   7.970  17.061   8.933
    1STR    H22 1380   7.874  16.990   8.803
    1STR    H23 1381   7.747  17.436   8.841
    1STR    H27 1382   7.545  17.384   8.976
    1STR    H28 1383   5.724  17.008   8.992
    1STR    H29 1384   5.496  16.941   8.995
    1STR    H2A 1385   5.223  17.088   8.988
    1STR    H2B 1386   5.285  16.947   8.905
    1STR    H2C 1387   5.227  17.081   8.808
    1STR   BCK1 1388   5.234  17.389  13.051
    1STR    O03 1389   5.185   0.061  13.048
    1STR    N04 1390   5.356  17.357  13.001
    1STR    C05 1391   5.447  17.430  12.921
    1STR    C06 1392   5.589  17.420  12.941
    1STR    C07 1393   5.685   0.041  12.854
    1STR    N08 1394   5.825   0.025  12.873
    1STR    C09 1395   5.929   0.053  12.790
    1STR    O0A 1396   5.916   0.099  12.677
    1STR    O0B 1397   6.053   0.024  12.843
    1STR    C0C 1398   6.175   0.058  12.771
    1STR    C0D 1399   6.206   0.207  12.794
    1STR    C0E 1400   6.297  17.409  12.810
    1STR    O0F 1401   6.419   0.007  12.741
    1STR    C0G 1402   6.536  17.365  12.765
    1STR    C0H 1403   6.523  17.235  12.683
    1STR    C0I 1404   6.669  17.439  12.728
    1STR    O0J 1405   6.787  17.367  12.773
    1STR    C0K 1406   6.917  17.424  12.743
    1STR    C0M 1407   6.935   0.116  12.820
    1STR    C0N 1408   7.032  17.326  12.782
    1STR    O0O 1409   7.162  17.375  12.743
    1STR    C0P 1410   7.273  17.362  12.821
    1STR    O0Q 1411   7.276  17.317  12.935
    1STR    N0R 1412   7.380  17.406  12.754
    1STR    C0S 1413   7.516  17.427  12.782
    1STR    C0T 1414   7.588   0.047  12.677
    1STR    C0U 1415   7.722   0.086  12.693
    1STR    C0V 1416   7.789   0.065  12.814
    1STR    C0W 1417   7.927   0.128  12.828
    1STR    C0X 1418   7.726  17.432  12.919
    1STR    N0Y 1419   7.797  17.404  13.039
    1STR   BCK2 1420   7.922  17.353  13.051
    1STR    O10 1421   7.989  17.314  12.956
    1STR    C13 1422   7.587  17.398  12.903
    1STR    C14 1423   5.634   0.119  12.748
    1STR    C15 1424   5.496   0.130  12.725
    1STR    C16 1425   5.403   0.064  12.808
    1STR    C17 1426   5.257   0.069  12.764
    1STR    H1B 1427   5.384  17.264  13.025
    1STR    H1C 1428   5.624  17.362  13.025
    1STR    H1D 1429   5.857  17.425  12.960
    1STR    H1E 1430   6.157   0.043  12.664
    1STR    H1F 1431   6.225   0.228  12.899
    1STR    H1G 1432   6.294   0.237  12.738
    1STR    H1H 1433   6.124   0.270  12.761
    1STR    H1I 1434   6.272  17.306  12.788
    1STR    H1J 1435   6.314  17.416  12.918
    1STR    H1K 1436   6.541  17.341  12.871
    1STR    H1M 1437   6.510  17.257  12.577
    1STR    H1N 1438   6.439  17.174  12.715
    1STR    H1O 1439   6.613  17.174  12.693
    1STR    H1P 1440   6.673   0.016  12.621
    1STR    H1Q 1441   6.666   0.097  12.775
    1STR    H1R 1442   6.923   0.003  12.636
    1STR    H1S 1443   7.036   0.156  12.805
    1STR    H1T 1444   6.923   0.100  12.928
    1STR    H1U 1445   6.866   0.193  12.789
    1STR    H1V 1446   7.017  17.230  12.731
    1STR    H1W 1447   7.030  17.304  12.888
    1STR    H1X 1448   7.350  17.433  12.662
    1STR    H1Y 1449   7.541   0.068  12.582
    1STR    H1Z 1450   7.772   0.136  12.612
    1STR    H20 1451   7.949   0.154  12.931
    1STR    H21 1452   8.004   0.060  12.791
    1STR    H22 1453   7.933   0.220  12.770
    1STR    H23 1454   7.749  17.421  13.126
    1STR    H27 1455   7.534  17.349  12.983
    1STR    H28 1456   5.698   0.173  12.680
    1STR    H29 1457   5.461   0.187  12.641
    1STR    H2A 1458   5.205  17.417  12.787
    1STR    H2B 1459   5.248   0.085  12.657
    1STR    H2C 1460   5.206   0.152  12.814
    1STR   BCK1 1461   5.244   4.282   0.132
    1STR    O03 1462   5.236   4.231   0.243
    1STR    N04 1463   5.344   4.366   0.096
    1STR    C05 1464   5.443   4.420   0.181
    1STR    C06 1465   5.583   4.414   0.150
    1STR    C07 1466   5.684   4.470   0.236
    1STR    N08 1467   5.822   4.468   0.202
    1STR    C09 1468   5.931   4.499   0.277
    1STR    O0A 1469   5.926   4.528   0.396
    1STR    O0B 1470   6.051   4.493   0.208
    1STR    C0C 1471   6.176   4.518   0.277
    1STR    C0D 1472   6.216   4.392   0.357
    1STR    C0E 1473   6.293   4.562   0.184
    1STR    O0F 1474   6.416   4.583   0.257
    1STR    C0G 1475   6.532   4.627   0.182
    1STR    C0H 1476   6.518   4.778   0.154
    1STR    C0I 1477   6.663   4.599   0.261
    1STR    O0J 1478   6.783   4.622   0.182
    1STR    C0K 1479   6.909   4.599   0.247
    1STR    C0M 1480   6.929   4.450   0.276
    1STR    C0N 1481   7.030   4.650   0.162
    1STR    O0O 1482   7.150   4.649   0.240
    1STR    C0P 1483   7.268   4.595   0.197
    1STR    O0Q 1484   7.286   4.537   0.091
    1STR    N0R 1485   7.361   4.617   0.290
    1STR    C0S 1486   7.497   4.587   0.308
    1STR    C0T 1487   7.553   4.637   0.426
    1STR    C0U 1488   7.688   4.616   0.457
    1STR    C0V 1489   7.773   4.545   0.370
    1STR    C0W 1490   7.918   4.539   0.411
    1STR    C0X 1491   7.721   4.490   0.249
    1STR    N0Y 1492   7.800   4.430   0.149
    1STR   BCK2 1493   7.917   4.365   0.130
    1STR    O10 1494   7.956   4.353   0.014
    1STR    C13 1495   7.582   4.512   0.220
    1STR    C14 1496   5.638   4.534   0.353
    1STR    C15 1497   5.502   4.544   0.384
    1STR    C16 1498   5.404   4.491   0.298
    1STR    C17 1499   5.258   4.519   0.332
    1STR    H1B 1500   5.343   4.396   0.000
    1STR    H1C 1501   5.613   4.363   0.060
    1STR    H1D 1502   5.848   4.438   0.110
    1STR    H1E 1503   6.160   4.599   0.348
    1STR    H1F 1504   6.233   4.307   0.291
    1STR    H1G 1505   6.307   4.409   0.414
    1STR    H1H 1506   6.138   4.364   0.428
    1STR    H1I 1507   6.264   4.654   0.132
    1STR    H1J 1508   6.309   4.486   0.107
    1STR    H1K 1509   6.537   4.572   0.088
    1STR    H1M 1510   6.506   4.834   0.246
    1STR    H1N 1511   6.433   4.800   0.090
    1STR    H1O 1512   6.607   4.816   0.103
    1STR    H1P 1513   6.666   4.659   0.351
    1STR    H1Q 1514   6.660   4.495   0.293
    1STR    H1R 1515   6.910   4.655   0.341
    1STR    H1S 1516   7.028   4.431   0.318
    1STR    H1T 1517   6.921   4.391   0.184
    1STR    H1U 1518   6.857   4.410   0.348
    1STR    H1V 1519   7.012   4.753   0.130
    1STR    H1W 1520   7.041   4.591   0.071
    1STR    H1X 1521   7.318   4.670   0.364
    1STR    H1Y 1522   7.494   4.695   0.495
    1STR    H1Z 1523   7.727   4.658   0.548
    1STR    H20 1524   7.939   4.443   0.457
    1STR    H21 1525   7.983   4.557   0.326
    1STR    H22 1526   7.942   4.615   0.485
    1STR    H23 1527   7.758   4.438   0.058
    1STR    H27 1528   7.539   4.474   0.129
    1STR    H28 1529   5.706   4.579   0.424
    1STR    H29 1530   5.472   4.596   0.474
    1STR    H2A 1531   5.200   4.538   0.242
    1STR    H2B 1532   5.249   4.606   0.396
    1STR    H2C 1533   5.215   4.434   0.385
    1STR   BCK1 1534   5.233   4.245   4.397
    1STR    O03 1535   5.202   4.280   4.284
    1STR    N04 1536   5.352   4.190   4.429
    1STR    C05 1537   5.451   4.139   4.343
    1STR    C06 1538   5.590   4.167   4.363
    1STR    C07 1539   5.693   4.104   4.286
    1STR    N08 1540   5.830   4.129   4.310
    1STR    C09 1541   5.937   4.053   4.277
    1STR    O0A 1542   5.929   3.944   4.221
    1STR    O0B 1543   6.057   4.110   4.312
    1STR    C0C 1544   6.181   4.048   4.271
    1STR    C0D 1545   6.213   4.090   4.126
    1STR    C0E 1546   6.300   4.082   4.365
    1STR    O0F 1547   6.422   4.017   4.324
    1STR    C0G 1548   6.537   4.033   4.409
    1STR    C0H 1549   6.522   3.942   4.532
    1STR    C0I 1550   6.668   4.000   4.332
    1STR    O0J 1551   6.786   4.032   4.410
    1STR    C0K 1552   6.914   4.003   4.350
    1STR    C0M 1553   6.940   4.098   4.232
    1STR    C0N 1554   7.029   4.019   4.455
    1STR    O0O 1555   7.155   3.972   4.403
    1STR    C0P 1556   7.272   4.037   4.429
    1STR    O0Q 1557   7.283   4.143   4.489
    1STR    N0R 1558   7.373   3.968   4.375
    1STR    C0S 1559   7.511   3.993   4.360
    1STR    C0T 1560   7.579   3.906   4.272
    1STR    C0U 1561   7.714   3.928   4.239
    1STR    C0V 1562   7.786   4.037   4.293
    1STR    C0W 1563   7.922   4.066   4.233
    1STR    C0X 1564   7.724   4.120   4.391
    1STR    N0Y 1565   7.788   4.232   4.447
    1STR   BCK2 1566   7.911   4.264   4.492
    1STR    O10 1567   7.932   4.380   4.525
    1STR    C13 1568   7.586   4.098   4.420
    1STR    C14 1569   5.651   4.016   4.184
    1STR    C15 1570   5.515   3.986   4.164
    1STR    C16 1571   5.415   4.043   4.245
    1STR    C17 1572   5.273   3.993   4.226
    1STR    H1B 1573   5.366   4.176   4.528
    1STR    H1C 1574   5.617   4.237   4.441
    1STR    H1D 1575   5.855   4.212   4.360
    1STR    H1E 1576   6.169   3.939   4.273
    1STR    H1F 1577   6.227   4.197   4.117
    1STR    H1G 1578   6.304   4.041   4.090
    1STR    H1H 1579   6.132   4.061   4.058
    1STR    H1I 1580   6.273   4.051   4.466
    1STR    H1J 1581   6.315   4.190   4.368
    1STR    H1K 1582   6.543   4.138   4.441
    1STR    H1M 1583   6.508   3.838   4.502
    1STR    H1N 1584   6.438   3.970   4.595
    1STR    H1O 1585   6.611   3.947   4.595
    1STR    H1P 1586   6.669   3.894   4.305
    1STR    H1Q 1587   6.668   4.057   4.239
    1STR    H1R 1588   6.914   3.900   4.316
    1STR    H1S 1589   7.040   4.083   4.192
    1STR    H1T 1590   6.933   4.202   4.263
    1STR    H1U 1591   6.870   4.082   4.150
    1STR    H1V 1592   7.006   3.960   4.544
    1STR    H1W 1593   7.035   4.122   4.489
    1STR    H1X 1594   7.338   3.884   4.333
    1STR    H1Y 1595   7.529   3.823   4.225
    1STR    H1Z 1596   7.762   3.864   4.167
    1STR    H20 1597   7.946   4.172   4.238
    1STR    H21 1598   8.000   4.009   4.284
    1STR    H22 1599   7.925   4.038   4.128
    1STR    H23 1600   7.728   4.312   4.458
    1STR    H27 1601   7.535   4.164   4.489
    1STR    H28 1602   5.721   3.968   4.118
    1STR    H29 1603   5.488   3.915   4.087
    1STR    H2A 1604   5.221   3.986   4.322
    1STR    H2B 1605   5.271   3.894   4.182
    1STR    H2C 1606   5.218   4.060   4.161
    1STR   BCK1 1607   5.233   4.373   8.752
    1STR    O03 1608   5.185   4.465   8.816
    1STR    N04 1609   5.353   4.377   8.689
    1STR    C05 1610   5.444   4.484   8.665
    1STR    C06 1611   5.586   4.463   8.668
    1STR    C07 1612   5.681   4.566   8.636
    1STR    N08 1613   5.822   4.541   8.633
    1STR    C09 1614   5.927   4.623   8.603
    1STR    O0A 1615   5.915   4.742   8.576
    1STR    O0B 1616   6.050   4.561   8.606
    1STR    C0C 1617   6.172   4.639   8.585
    1STR    C0D 1618   6.207   4.713   8.716
    1STR    C0E 1619   6.295   4.554   8.536
    1STR    O0F 1620   6.417   4.632   8.523
    1STR    C0G 1621   6.534   4.564   8.473
    1STR    C0H 1622   6.522   4.550   8.320
    1STR    C0I 1623   6.666   4.640   8.510
    1STR    O0J 1624   6.786   4.562   8.482
    1STR    C0K 1625   6.914   4.623   8.513
    1STR    C0M 1626   6.930   4.641   8.665
    1STR    C0N 1627   7.034   4.536   8.461
    1STR    O0O 1628   7.161   4.601   8.478
    1STR    C0P 1629   7.272   4.537   8.529
    1STR    O0Q 1630   7.274   4.426   8.579
    1STR    N0R 1631   7.378   4.618   8.516
    1STR    C0S 1632   7.515   4.613   8.550
    1STR    C0T 1633   7.590   4.721   8.499
    1STR    C0U 1634   7.725   4.739   8.534
    1STR    C0V 1635   7.789   4.650   8.621
    1STR    C0W 1636   7.929   4.688   8.667
    1STR    C0X 1637   7.722   4.533   8.667
    1STR    N0Y 1638   7.789   4.444   8.754
    1STR   BCK2 1639   7.912   4.389   8.737
    1STR    O10 1640   7.976   4.397   8.633
    1STR    C13 1641   7.583   4.518   8.633
    1STR    C14 1642   5.628   4.693   8.604
    1STR    C15 1643   5.490   4.715   8.598
    1STR    C16 1644   5.398   4.612   8.624
    1STR    C17 1645   5.251   4.645   8.599
    1STR    H1B 1646   5.381   4.287   8.653
    1STR    H1C 1647   5.623   4.365   8.695
    1STR    H1D 1648   5.853   4.448   8.655
    1STR    H1E 1649   6.153   4.714   8.508
    1STR    H1F 1650   6.228   4.643   8.797
    1STR    H1G 1651   6.295   4.776   8.702
    1STR    H1H 1652   6.126   4.778   8.747
    1STR    H1I 1653   6.269   4.510   8.440
    1STR    H1J 1654   6.312   4.472   8.605
    1STR    H1K 1655   6.540   4.465   8.518
    1STR    H1M 1656   6.509   4.648   8.273
    1STR    H1N 1657   6.438   4.488   8.291
    1STR    H1O 1658   6.612   4.505   8.278
    1STR    H1P 1659   6.671   4.735   8.457
    1STR    H1Q 1660   6.662   4.664   8.616
    1STR    H1R 1661   6.920   4.720   8.463
    1STR    H1S 1662   7.029   4.680   8.689
    1STR    H1T 1663   6.918   4.546   8.716
    1STR    H1U 1664   6.858   4.712   8.706
    1STR    H1V 1665   7.022   4.517   8.354
    1STR    H1W 1666   7.033   4.437   8.509
    1STR    H1X 1667   7.349   4.701   8.468
    1STR    H1Y 1668   7.545   4.794   8.433
    1STR    H1Z 1669   7.778   4.825   8.496
    1STR    H20 1670   7.948   4.656   8.769
    1STR    H21 1671   8.004   4.643   8.602
    1STR    H22 1672   7.944   4.796   8.664
    1STR    H23 1673   7.743   4.420   8.840
    1STR    H27 1674   7.527   4.434   8.671
    1STR    H28 1675   5.690   4.777   8.580
    1STR    H29 1676   5.455   4.813   8.570
    1STR    H2A 1677   5.197   4.558   8.562
    1STR    H2B 1678   5.241   4.723   8.524
    1STR    H2C 1679   5.204   4.681   8.690
    1STR   BCK1 1680   5.223   4.285  13.152
    1STR    O03 1681   5.183   4.360  13.063
    1STR    N04 1682   5.352   4.299  13.190
    1STR    C05 1683   5.446   4.249  13.283
    1STR    C06 1684   5.585   4.271  13.254
    1STR    C07 1685   5.691   4.234  13.343
    1STR    N08 1686   5.827   4.263  13.313
    1STR    C09 1687   5.940   4.220  13.375
    1STR    O0A 1688   5.942   4.138  13.466
    1STR    O0B 1689   6.056   4.277  13.325
    1STR    C0C 1690   6.184   4.236  13.379
    1STR    C0D 1691   6.223   4.099  13.321
    1STR    C0E 1692   6.298   4.339  13.355
    1STR    O0F 1693   6.422   4.294  13.416
    1STR    C0G 1694   6.536   4.382  13.407
    1STR    C0H 1695   6.520   4.496  13.509
    1STR    C0I 1696   6.667   4.303  13.433
    1STR    O0J 1697   6.785   4.383  13.408
    1STR    C0K 1698   6.912   4.321  13.435
    1STR    C0M 1699   6.941   4.210  13.332
    1STR    C0N 1700   7.027   4.427  13.431
    1STR    O0O 1701   7.148   4.374  13.487
    1STR    C0P 1702   7.268   4.381  13.424
    1STR    O0Q 1703   7.287   4.427  13.312
    1STR    N0R 1704   7.361   4.325  13.502
    1STR    C0S 1705   7.495   4.288  13.482
    1STR    C0T 1706   7.544   4.189  13.569
    1STR    C0U 1707   7.670   4.132  13.549
    1STR    C0V 1708   7.753   4.175  13.444
    1STR    C0W 1709   7.875   4.089  13.414
    1STR    C0X 1710   7.715   4.287  13.365
    1STR    N0Y 1711   7.795   4.339  13.262
    1STR   BCK2 1712   7.926   4.365  13.245
    1STR    O10 1713   7.966   4.398  13.134
    1STR    C13 1714   7.583   4.339  13.382
    1STR    C14 1715   5.654   4.172  13.464
    1STR    C15 1716   5.519   4.150  13.495
    1STR    C16 1717   5.415   4.191  13.410
    1STR    C17 1718   5.276   4.175  13.465
    1STR    H1B 1719   5.391   4.367  13.128
    1STR    H1C 1720   5.612   4.318  13.161
    1STR    H1D 1721   5.847   4.325  13.237
    1STR    H1E 1722   6.173   4.226  13.487
    1STR    H1F 1723   6.235   4.103  13.213
    1STR    H1G 1724   6.316   4.063  13.364
    1STR    H1H 1725   6.147   4.023  13.343
    1STR    H1I 1726   6.268   4.435  13.398
    1STR    H1J 1727   6.313   4.355  13.249
    1STR    H1K 1728   6.541   4.423  13.306
    1STR    H1M 1729   6.507   4.457  13.609
    1STR    H1N 1730   6.435   4.560  13.486
    1STR    H1O 1731   6.609   4.559  13.509
    1STR    H1P 1732   6.668   4.266  13.536
    1STR    H1Q 1733   6.667   4.215  13.368
    1STR    H1R 1734   6.910   4.278  13.535
    1STR    H1S 1735   7.041   4.169  13.346
    1STR    H1T 1736   6.935   4.250  13.230
    1STR    H1U 1737   6.871   4.127  13.340
    1STR    H1V 1738   6.998   4.513  13.490
    1STR    H1W 1739   7.042   4.463  13.329
    1STR    H1X 1740   7.319   4.297  13.589
    1STR    H1Y 1741   7.482   4.150  13.648
    1STR    H1Z 1742   7.702   4.051  13.612
    1STR    H20 1743   7.909   4.101  13.311
    1STR    H21 1744   7.956   4.112  13.482
    1STR    H22 1745   7.850   3.983  13.426
    1STR    H23 1746   7.745   4.367  13.179
    1STR    H27 1747   7.547   4.418  13.317
    1STR    H28 1748   5.726   4.141  13.538
    1STR    H29 1749   5.496   4.104  13.590
    1STR    H2A 1750   5.214   4.262  13.441
    1STR    H2B 1751   5.277   4.166  13.574
    1STR    H2C 1752   5.231   4.084  13.426
    1STR   BCK1 1753   5.236   8.624  17.422
    1STR    O03 1754   5.188   8.724  17.371
    1STR    N04 1755   5.358   8.574  17.394
    1STR    C05 1756   5.451   8.606  17.292
    1STR    C06 1757   5.592   8.608  17.319
    1STR    C07 1758   5.690   8.626  17.216
    1STR    N08 1759   5.828   8.622  17.243
    1STR    C09 1760   5.933   8.603  17.158
    1STR    O0A 1761   5.921   8.582  17.038
    1STR    O0B 1762   6.056   8.608  17.221
    1STR    C0C 1763   6.179   8.601  17.143
    1STR    C0D 1764   6.209   8.740  17.085
    1STR    C0E 1765   6.300   8.548  17.226
    1STR    O0F 1766   6.422   8.542  17.148
    1STR    C0G 1767   6.538   8.485  17.213
    1STR    C0H 1768   6.524   8.332  17.214
    1STR    C0I 1769   6.671   8.526  17.143
    1STR    O0J 1770   6.788   8.487  17.219
    1STR    C0K 1771   6.918   8.517  17.164
    1STR    C0M 1772   6.940   8.669  17.159
    1STR    C0N 1773   7.032   8.451  17.248
    1STR    O0O 1774   7.161   8.466  17.187
    1STR    C0P 1775   7.275   8.489  17.259
    1STR    O0Q 1776   7.281   8.508  17.380
    1STR    N0R 1777   7.380   8.491  17.176
    1STR    C0S 1778   7.517   8.523  17.186
    1STR    C0T 1779   7.581   8.542  17.063
    1STR    C0U 1780   7.713   8.588  17.057
    1STR    C0V 1781   7.788   8.612  17.174
    1STR    C0W 1782   7.921   8.683  17.154
    1STR    C0X 1783   7.733   8.579  17.301
    1STR    N0Y 1784   7.808   8.592  17.420
    1STR   BCK2 1785   7.938   8.562   0.005
    1STR    O10 1786   8.016   8.515  17.363
    1STR    C13 1787   7.595   8.540  17.305
    1STR    C14 1788   5.640   8.647  17.085
    1STR    C15 1789   5.503   8.643  17.056
    1STR    C16 1790   5.408   8.620  17.157
    1STR    C17 1791   5.264   8.602  17.114
    1STR    H1B 1792   5.384   8.498   0.015
    1STR    H1C 1793   5.625   8.595  17.421
    1STR    H1D 1794   5.858   8.633  17.338
    1STR    H1E 1795   6.163   8.532  17.060
    1STR    H1F 1796   6.226   8.814  17.164
    1STR    H1G 1797   6.298   8.738  17.023
    1STR    H1H 1798   6.127   8.776  17.023
    1STR    H1I 1799   6.274   8.448  17.263
    1STR    H1J 1800   6.316   8.611  17.313
    1STR    H1K 1801   6.543   8.522  17.316
    1STR    H1M 1802   6.511   8.293  17.113
    1STR    H1N 1803   6.439   8.298  17.274
    1STR    H1O 1804   6.613   8.285  17.256
    1STR    H1P 1805   6.675   8.483  17.043
    1STR    H1Q 1806   6.670   8.634  17.130
    1STR    H1R 1807   6.923   8.476  17.063
    1STR    H1S 1808   7.041   8.693  17.125
    1STR    H1T 1809   6.929   8.713  17.258
    1STR    H1U 1810   6.871   8.719  17.091
    1STR    H1V 1811   7.013   8.344  17.258
    1STR    H1W 1812   7.032   8.491  17.350
    1STR    H1X 1813   7.348   8.470  17.083
    1STR    H1Y 1814   7.529   8.527  16.969
    1STR    H1Z 1815   7.758   8.607  16.960
    1STR    H20 1816   7.948   8.742  17.242
    1STR    H21 1817   8.000   8.610  17.134
    1STR    H22 1818   7.917   8.751  17.070
    1STR    H23 1819   7.757   8.621   0.062
    1STR    H27 1820   7.547   8.521  17.400
    1STR    H28 1821   5.707   8.664  17.002
    1STR    H29 1822   5.471   8.655  16.954
    1STR    H2A 1823   5.212   8.528  17.175
    1STR    H2B 1824   5.258   8.568  17.010
    1STR    H2C 1825   5.211   8.697  17.121
    1STR   BCK1 1826   5.241   8.700   4.476
    1STR    O03 1827   5.217   8.712   4.596
    1STR    N04 1828   5.348   8.754   4.414
    1STR    C05 1829   5.443   8.846   4.465
    1STR    C06 1830   5.584   8.829   4.445
    1STR    C07 1831   5.682   8.924   4.491
    1STR    N08 1832   5.822   8.908   4.466
    1STR    C09 1833   5.928   8.978   4.513
    1STR    O0A 1834   5.920   9.068   4.596
    1STR    O0B 1835   6.050   8.938   4.460
    1STR    C0C 1836   6.174   9.000   4.506
    1STR    C0D 1837   6.212   8.939   4.643
    1STR    C0E 1838   6.293   8.987   4.406
    1STR    O0F 1839   6.415   9.045   4.458
    1STR    C0G 1840   6.532   9.042   4.372
    1STR    C0H 1841   6.519   9.154   4.267
    1STR    C0I 1842   6.663   9.060   4.455
    1STR    O0J 1843   6.784   9.036   4.378
    1STR    C0K 1844   6.910   9.051   4.446
    1STR    C0M 1845   6.928   8.939   4.550
    1STR    C0N 1846   7.031   9.046   4.348
    1STR    O0O 1847   7.155   9.080   4.413
    1STR    C0P 1848   7.268   9.005   4.403
    1STR    O0Q 1849   7.277   8.895   4.350
    1STR    N0R 1850   7.369   9.072   4.460
    1STR    C0S 1851   7.506   9.049   4.482
    1STR    C0T 1852   7.577   9.161   4.530
    1STR    C0U 1853   7.712   9.152   4.565
    1STR    C0V 1854   7.782   9.030   4.555
    1STR    C0W 1855   7.923   9.027   4.610
    1STR    C0X 1856   7.717   8.915   4.502
    1STR    N0Y 1857   7.784   8.791   4.504
    1STR   BCK2 1858   7.909   8.763   4.462
    1STR    O10 1859   7.972   8.832   4.382
    1STR    C13 1860   7.578   8.926   4.467
    1STR    C14 1861   5.632   9.037   4.560
    1STR    C15 1862   5.495   9.057   4.578
    1STR    C16 1863   5.400   8.965   4.529
    1STR    C17 1864   5.253   9.004   4.541
    1STR    H1B 1865   5.359   8.727   4.318
    1STR    H1C 1866   5.618   8.741   4.393
    1STR    H1D 1867   5.850   8.834   4.405
    1STR    H1E 1868   6.155   9.106   4.521
    1STR    H1F 1869   6.232   8.832   4.634
    1STR    H1G 1870   6.302   8.986   4.682
    1STR    H1H 1871   6.133   8.953   4.716
    1STR    H1I 1872   6.265   9.037   4.313
    1STR    H1J 1873   6.310   8.883   4.382
    1STR    H1K 1874   6.538   8.945   4.323
    1STR    H1M 1875   6.507   9.251   4.315
    1STR    H1N 1876   6.435   9.138   4.201
    1STR    H1O 1877   6.609   9.159   4.205
    1STR    H1P 1878   6.666   9.160   4.499
    1STR    H1Q 1879   6.659   8.990   4.539
    1STR    H1R 1880   6.912   9.148   4.496
    1STR    H1S 1881   7.026   8.944   4.597
    1STR    H1T 1882   6.919   8.841   4.503
    1STR    H1U 1883   6.855   8.945   4.631
    1STR    H1V 1884   7.016   9.118   4.267
    1STR    H1W 1885   7.038   8.948   4.299
    1STR    H1X 1886   7.334   9.161   4.492
    1STR    H1Y 1887   7.528   9.256   4.543
    1STR    H1Z 1888   7.762   9.239   4.604
    1STR    H20 1889   7.936   8.941   4.676
    1STR    H21 1890   7.997   9.021   4.530
    1STR    H22 1891   7.947   9.116   4.668
    1STR    H23 1892   7.736   8.714   4.547
    1STR    H27 1893   7.524   8.839   4.430
    1STR    H28 1894   5.697   9.114   4.599
    1STR    H29 1895   5.462   9.146   4.629
    1STR    H2A 1896   5.196   8.970   4.455
    1STR    H2B 1897   5.242   9.112   4.548
    1STR    H2C 1898   5.210   8.960   4.631
    1STR   BCK1 1899   5.225   8.638   8.789
    1STR    O03 1900   5.179   8.738   8.735
    1STR    N04 1901   5.355   8.610   8.767
    1STR    C05 1902   5.447   8.505   8.789
    1STR    C06 1903   5.586   8.539   8.801
    1STR    C07 1904   5.690   8.441   8.810
    1STR    N08 1905   5.827   8.479   8.816
    1STR    C09 1906   5.939   8.403   8.814
    1STR    O0A 1907   5.939   8.280   8.807
    1STR    O0B 1908   6.055   8.476   8.820
    1STR    C0C 1909   6.183   8.407   8.813
    1STR    C0D 1910   6.215   8.370   8.667
    1STR    C0E 1911   6.299   8.488   8.876
    1STR    O0F 1912   6.422   8.412   8.875
    1STR    C0G 1913   6.537   8.472   8.938
    1STR    C0H 1914   6.522   8.461   9.091
    1STR    C0I 1915   6.667   8.402   8.891
    1STR    O0J 1916   6.785   8.470   8.940
    1STR    C0K 1917   6.913   8.412   8.906
    1STR    C0M 1918   6.940   8.429   8.756
    1STR    C0N 1919   7.027   8.479   8.988
    1STR    O0O 1920   7.150   8.407   8.974
    1STR    C0P 1921   7.269   8.470   8.955
    1STR    O0Q 1922   7.285   8.591   8.943
    1STR    N0R 1923   7.366   8.378   8.948
    1STR    C0S 1924   7.503   8.384   8.917
    1STR    C0T 1925   7.563   8.261   8.881
    1STR    C0U 1926   7.695   8.256   8.834
    1STR    C0V 1927   7.772   8.374   8.824
    1STR    C0W 1928   7.904   8.362   8.749
    1STR    C0X 1929   7.721   8.496   8.873
    1STR    N0Y 1930   7.794   8.617   8.867
    1STR   BCK2 1931   7.921   8.654   8.894
    1STR    O10 1932   7.954   8.769   8.869
    1STR    C13 1933   7.584   8.501   8.914
    1STR    C14 1934   5.650   8.306   8.810
    1STR    C15 1935   5.515   8.270   8.796
    1STR    C16 1936   5.414   8.367   8.782
    1STR    C17 1937   5.276   8.313   8.751
    1STR    H1B 1938   5.395   8.690   8.720
    1STR    H1C 1939   5.614   8.644   8.802
    1STR    H1D 1940   5.849   8.577   8.819
    1STR    H1E 1941   6.175   8.315   8.871
    1STR    H1F 1942   6.225   8.459   8.604
    1STR    H1G 1943   6.308   8.313   8.661
    1STR    H1H 1944   6.136   8.308   8.624
    1STR    H1I 1945   6.272   8.515   8.978
    1STR    H1J 1946   6.314   8.582   8.822
    1STR    H1K 1947   6.543   8.577   8.909
    1STR    H1M 1948   6.508   8.357   9.121
    1STR    H1N 1949   6.437   8.518   9.129
    1STR    H1O 1950   6.611   8.498   9.141
    1STR    H1P 1951   6.667   8.298   8.924
    1STR    H1Q 1952   6.668   8.401   8.782
    1STR    H1R 1953   6.911   8.306   8.931
    1STR    H1S 1954   7.040   8.394   8.731
    1STR    H1T 1955   6.935   8.534   8.727
    1STR    H1U 1956   6.871   8.373   8.694
    1STR    H1V 1957   7.001   8.479   9.094
    1STR    H1W 1958   7.038   8.584   8.960
    1STR    H1X 1959   7.327   8.287   8.964
    1STR    H1Y 1960   7.506   8.169   8.884
    1STR    H1Z 1961   7.735   8.162   8.801
    1STR    H20 1962   7.935   8.457   8.706
    1STR    H21 1963   7.983   8.325   8.815
    1STR    H22 1964   7.895   8.292   8.666
    1STR    H23 1965   7.740   8.697   8.839
    1STR    H27 1966   7.541   8.595   8.944
    1STR    H28 1967   5.720   8.225   8.817
    1STR    H29 1968   5.490   8.165   8.793
    1STR    H2A 1969   5.221   8.299   8.844
    1STR    H2B 1970   5.282   8.216   8.702
    1STR    H2C 1971   5.222   8.380   8.685
    1STR   BCK1 1972   5.234   8.700  13.064
    1STR    O03 1973   5.184   8.809  13.088
    1STR    N04 1974   5.355   8.681  13.006
    1STR    C05 1975   5.446   8.772  12.945
    1STR    C06 1976   5.587   8.756  12.959
    1STR    C07 1977   5.684   8.838  12.890
    1STR    N08 1978   5.824   8.816  12.901
    1STR    C09 1979   5.928   8.870  12.832
    1STR    O0A 1980   5.915   8.953  12.742
    1STR    O0B 1981   6.052   8.824  12.871
    1STR    C0C 1982   6.173   8.880  12.813
    1STR    C0D 1983   6.206   9.013  12.884
    1STR    C0E 1984   6.297   8.784  12.818
    1STR    O0F 1985   6.418   8.843  12.766
    1STR    C0G 1986   6.536   8.758  12.760
    1STR    C0H 1987   6.523   8.665  12.638
    1STR    C0I 1988   6.668   8.841  12.751
    1STR    O0J 1989   6.787   8.759  12.769
    1STR    C0K 1990   6.916   8.824  12.762
    1STR    C0M 1991   6.933   8.922  12.879
    1STR    C0N 1992   7.033   8.720  12.766
    1STR    O0O 1993   7.162   8.781  12.747
    1STR    C0P 1994   7.273   8.746  12.820
    1STR    O0Q 1995   7.275   8.670  12.916
    1STR    N0R 1996   7.380   8.809  12.770
    1STR    C0S 1997   7.517   8.821  12.803
    1STR    C0T 1998   7.590   8.903  12.715
    1STR    C0U 1999   7.724   8.936  12.741
    1STR    C0V 2000   7.790   8.886  12.855
    1STR    C0W 2001   7.928   8.943  12.884
    1STR    C0X 2002   7.725   8.793  12.940
    1STR    N0Y 2003   7.794   8.739  13.051
    1STR   BCK2 2004   7.919   8.686  13.054
    1STR    O10 2005   7.986   8.666  12.953
    1STR    C13 2006   7.586   8.764  12.915
    1STR    C14 2007   5.631   8.941  12.809
    1STR    C15 2008   5.492   8.958  12.792
    1STR    C16 2009   5.400   8.873  12.856
    1STR    C17 2010   5.254   8.890  12.817
    1STR    H1B 2011   5.383   8.585  13.007
    1STR    H1C 2012   5.624   8.678  13.024
    1STR    H1D 2013   5.856   8.750  12.970
    1STR    H1E 2014   6.155   8.902  12.708
    1STR    H1F 2015   6.225   8.997  12.990
    1STR    H1G 2016   6.294   9.060  12.840
    1STR    H1H 2017   6.123   9.084  12.875
    1STR    H1I 2018   6.271   8.694  12.762
    1STR    H1J 2019   6.314   8.752  12.921
    1STR    H1K 2020   6.541   8.699  12.852
    1STR    H1M 2021   6.510   8.722  12.546
    1STR    H1N 2022   6.439   8.596  12.647
    1STR    H1O 2023   6.613   8.604  12.627
    1STR    H1P 2024   6.673   8.893  12.656
    1STR    H1Q 2025   6.665   8.917  12.829
    1STR    H1R 2026   6.923   8.879  12.668
    1STR    H1S 2027   7.033   8.965  12.879
    1STR    H1T 2028   6.921   8.870  12.975
    1STR    H1U 2029   6.863   9.004  12.876
    1STR    H1V 2030   7.020   8.647  12.685
    1STR    H1W 2031   7.031   8.663  12.858
    1STR    H1X 2032   7.351   8.861  12.689
    1STR    H1Y 2033   7.544   8.946  12.628
    1STR    H1Z 2034   7.775   9.003  12.674
    1STR    H20 2035   7.948   8.946  12.991
    1STR    H21 2036   8.005   8.884  12.834
    1STR    H22 2037   7.936   9.046  12.847
    1STR    H23 2038   7.746   8.739  13.140
    1STR    H27 2039   7.532   8.698  12.981
    1STR    H28 2040   5.694   9.011  12.756
    1STR    H29 2041   5.457   9.036  12.726
    1STR    H2A 2042   5.201   8.795  12.816
    1STR    H2B 2043   5.245   8.933  12.717
    1STR    H2C 2044   5.204   8.958  12.886
    1STR   BCK1 2045   5.224  12.969   0.122
    1STR    O03 2046   5.191  12.901   0.219
    1STR    N04 2047   5.338  13.042   0.114
    1STR    C05 2048   5.438  13.067   0.212
    1STR    C06 2049   5.577  13.069   0.177
    1STR    C07 2050   5.681  13.098   0.272
    1STR    N08 2051   5.818  13.107   0.235
    1STR    C09 2052   5.929  13.112   0.314
    1STR    O0A 2053   5.927  13.099   0.436
    1STR    O0B 2054   6.047  13.132   0.244
    1STR    C0C 2055   6.174  13.132   0.316
    1STR    C0D 2056   6.215  12.987   0.346
    1STR    C0E 2057   6.290  13.206   0.242
    1STR    O0F 2058   6.413  13.202   0.317
    1STR    C0G 2059   6.528  13.269   0.262
    1STR    C0H 2060   6.514  13.420   0.288
    1STR    C0I 2061   6.661  13.216   0.325
    1STR    O0J 2062   6.779  13.267   0.259
    1STR    C0K 2063   6.907  13.227   0.313
    1STR    C0M 2064   6.931  13.077   0.290
    1STR    C0N 2065   7.024  13.307   0.249
    1STR    O0O 2066   7.145  13.287   0.324
    1STR    C0P 2067   7.263  13.250   0.267
    1STR    O0Q 2068   7.282  13.227   0.148
    1STR    N0R 2069   7.354  13.242   0.364
    1STR    C0S 2070   7.488  13.203   0.374
    1STR    C0T 2071   7.536  13.195   0.506
    1STR    C0U 2072   7.668  13.157   0.532
    1STR    C0V 2073   7.758  13.129   0.429
    1STR    C0W 2074   7.899  13.097   0.474
    1STR    C0X 2075   7.716  13.137   0.293
    1STR    N0Y 2076   7.801  13.128   0.180
    1STR   BCK2 2077   7.922  13.081   0.140
    1STR    O10 2078   7.966  13.122   0.033
    1STR    C13 2079   7.579  13.173   0.268
    1STR    C14 2080   5.639  13.124   0.404
    1STR    C15 2081   5.504  13.125   0.440
    1STR    C16 2082   5.403  13.102   0.345
    1STR    C17 2083   5.260  13.124   0.390
    1STR    H1B 2084   5.351  13.086   0.024
    1STR    H1C 2085   5.605  13.048   0.075
    1STR    H1D 2086   5.841  13.110   0.137
    1STR    H1E 2087   6.159  13.184   0.411
    1STR    H1F 2088   6.232  12.930   0.255
    1STR    H1G 2089   6.307  12.984   0.405
    1STR    H1H 2090   6.138  12.935   0.404
    1STR    H1I 2091   6.260  13.310   0.226
    1STR    H1J 2092   6.306  13.162   0.144
    1STR    H1K 2093   6.533  13.250   0.155
    1STR    H1M 2094   6.503  13.441   0.394
    1STR    H1N 2095   6.429  13.463   0.236
    1STR    H1O 2096   6.603  13.474   0.253
    1STR    H1P 2097   6.664  13.241   0.431
    1STR    H1Q 2098   6.659  13.107   0.319
    1STR    H1R 2099   6.907  13.248   0.420
    1STR    H1S 2100   7.030  13.048   0.323
    1STR    H1T 2101   6.924  13.053   0.184
    1STR    H1U 2102   6.860  13.014   0.344
    1STR    H1V 2103   7.001  13.414   0.252
    1STR    H1W 2104   7.037  13.282   0.144
    1STR    H1X 2105   7.310  13.269   0.450
    1STR    H1Y 2106   7.472  13.218   0.590
    1STR    H1Z 2107   7.700  13.153   0.635
    1STR    H20 2108   7.916  12.989   0.464
    1STR    H21 2109   7.972  13.154   0.417
    1STR    H22 2110   7.915  13.120   0.579
    1STR    H23 2111   7.763  13.174   0.099
    1STR    H27 2112   7.543  13.181   0.167
    1STR    H28 2113   5.709  13.146   0.483
    1STR    H29 2114   5.477  13.149   0.542
    1STR    H2A 2115   5.198  13.164   0.309
    1STR    H2B 2116   5.255  13.197   0.472
    1STR    H2C 2117   5.216  13.031   0.426
    1STR   BCK1 2118   5.236  12.964   4.377
    1STR    O03 2119   5.196  13.031   4.282
    1STR    N04 2120   5.357  12.905   4.383
    1STR    C05 2121   5.452  12.885   4.281
    1STR    C06 2122   5.592  12.904   4.307
    1STR    C07 2123   5.692  12.870   4.211
    1STR    N08 2124   5.830  12.883   4.239
    1STR    C09 2125   5.936  12.823   4.180
    1STR    O0A 2126   5.927  12.741   4.089
    1STR    O0B 2127   6.057  12.863   4.231
    1STR    C0C 2128   6.181  12.818   4.170
    1STR    C0D 2129   6.212  12.906   4.048
    1STR    C0E 2130   6.301  12.817   4.270
    1STR    O0F 2131   6.423  12.770   4.208
    1STR    C0G 2132   6.538  12.757   4.294
    1STR    C0H 2133   6.523  12.629   4.378
    1STR    C0I 2134   6.670  12.752   4.211
    1STR    O0J 2135   6.788  12.757   4.294
    1STR    C0K 2136   6.916  12.751   4.229
    1STR    C0M 2137   6.940  12.880   4.149
    1STR    C0N 2138   7.031  12.732   4.333
    1STR    O0O 2139   7.158  12.710   4.269
    1STR    C0P 2140   7.274  12.764   4.318
    1STR    O0Q 2141   7.282  12.842   4.412
    1STR    N0R 2142   7.378  12.719   4.246
    1STR    C0S 2143   7.516  12.748   4.245
    1STR    C0T 2144   7.589  12.691   4.139
    1STR    C0U 2145   7.725  12.723   4.119
    1STR    C0V 2146   7.792  12.812   4.205
    1STR    C0W 2147   7.930  12.857   4.162
    1STR    C0X 2148   7.726  12.863   4.319
    1STR    N0Y 2149   7.784  12.958   4.405
    1STR   BCK2 2150   7.905  12.982   4.461
    1STR    O10 2151   7.919  13.088   4.522
    1STR    C13 2152   7.587  12.833   4.335
    1STR    C14 2153   5.648  12.822   4.085
    1STR    C15 2154   5.511  12.801   4.059
    1STR    C16 2155   5.414  12.829   4.157
    1STR    C17 2156   5.270  12.790   4.125
    1STR    H1B 2157   5.376  12.863   4.472
    1STR    H1C 2158   5.622  12.943   4.402
    1STR    H1D 2159   5.858  12.944   4.315
    1STR    H1E 2160   6.168  12.715   4.136
    1STR    H1F 2161   6.227  13.010   4.076
    1STR    H1G 2162   6.302  12.872   3.997
    1STR    H1H 2163   6.131  12.902   3.975
    1STR    H1I 2164   6.274  12.754   4.354
    1STR    H1J 2165   6.316  12.918   4.310
    1STR    H1K 2166   6.544  12.844   4.359
    1STR    H1M 2167   6.510  12.542   4.314
    1STR    H1N 2168   6.439  12.634   4.447
    1STR    H1O 2169   6.613  12.612   4.438
    1STR    H1P 2170   6.671  12.662   4.149
    1STR    H1Q 2171   6.669  12.837   4.142
    1STR    H1R 2172   6.918  12.665   4.161
    1STR    H1S 2173   7.041  12.881   4.106
    1STR    H1T 2174   6.932  12.968   4.213
    1STR    H1U 2175   6.871  12.892   4.066
    1STR    H1V 2176   7.010  12.646   4.396
    1STR    H1W 2177   7.035  12.818   4.400
    1STR    H1X 2178   7.345  12.654   4.178
    1STR    H1Y 2179   7.542  12.625   4.068
    1STR    H1Z 2180   7.776  12.682   4.033
    1STR    H20 2181   7.950  12.959   4.193
    1STR    H21 2182   8.007  12.791   4.202
    1STR    H22 2183   7.940  12.856   4.053
    1STR    H23 2184   7.720  13.030   4.435
    1STR    H27 2185   7.532  12.876   4.418
    1STR    H28 2186   5.717  12.798   4.006
    1STR    H29 2187   5.482  12.761   3.964
    1STR    H2A 2188   5.219  12.753   4.214
    1STR    H2B 2189   5.267  12.710   4.051
    1STR    H2C 2190   5.216  12.875   4.085
    1STR   BCK1 2191   5.234  13.094   8.791
    1STR    O03 2192   5.188  13.169   8.877
    1STR    N04 2193   5.352  13.113   8.727
    1STR    C05 2194   5.443  13.222   8.729
    1STR    C06 2195   5.586  13.200   8.725
    1STR    C07 2196   5.682  13.307   8.719
    1STR    N08 2197   5.822  13.283   8.707
    1STR    C09 2198   5.927  13.370   8.708
    1STR    O0A 2199   5.916  13.491   8.726
    1STR    O0B 2200   6.050  13.310   8.686
    1STR    C0C 2201   6.173  13.390   8.692
    1STR    C0D 2202   6.210  13.414   8.839
    1STR    C0E 2203   6.294  13.327   8.615
    1STR    O0F 2204   6.416  13.404   8.629
    1STR    C0G 2205   6.534  13.357   8.558
    1STR    C0H 2206   6.521  13.396   8.410
    1STR    C0I 2207   6.665  13.417   8.619
    1STR    O0J 2208   6.786  13.356   8.566
    1STR    C0K 2209   6.913  13.404   8.618
    1STR    C0M 2210   6.928  13.365   8.766
    1STR    C0N 2211   7.035  13.346   8.539
    1STR    O0O 2212   7.159  13.407   8.582
    1STR    C0P 2213   7.272  13.334   8.607
    1STR    O0Q 2214   7.281  13.212   8.607
    1STR    N0R 2215   7.374  13.418   8.633
    1STR    C0S 2216   7.510  13.404   8.667
    1STR    C0T 2217   7.584  13.523   8.669
    1STR    C0U 2218   7.721  13.523   8.702
    1STR    C0V 2219   7.789  13.404   8.733
    1STR    C0W 2220   7.937  13.416   8.760
    1STR    C0X 2221   7.719  13.280   8.733
    1STR    N0Y 2222   7.778  13.153   8.748
    1STR   BCK2 2223   7.887  13.088   8.795
    1STR    O10 2224   7.899  12.971   8.760
    1STR    C13 2225   7.579  13.283   8.699
    1STR    C14 2226   5.629  13.438   8.721
    1STR    C15 2227   5.491  13.462   8.723
    1STR    C16 2228   5.398  13.357   8.723
    1STR    C17 2229   5.252  13.395   8.708
    1STR    H1B 2230   5.378  13.034   8.670
    1STR    H1C 2231   5.622  13.098   8.725
    1STR    H1D 2232   5.853  13.188   8.696
    1STR    H1E 2233   6.153  13.486   8.645
    1STR    H1F 2234   6.231  13.321   8.891
    1STR    H1G 2235   6.298  13.477   8.847
    1STR    H1H 2236   6.129  13.465   8.892
    1STR    H1I 2237   6.267  13.318   8.509
    1STR    H1J 2238   6.312  13.226   8.651
    1STR    H1K 2239   6.540  13.249   8.568
    1STR    H1M 2240   6.508  13.504   8.398
    1STR    H1N 2241   6.437  13.347   8.361
    1STR    H1O 2242   6.611  13.368   8.355
    1STR    H1P 2243   6.668  13.525   8.602
    1STR    H1Q 2244   6.661  13.403   8.727
    1STR    H1R 2245   6.916  13.513   8.608
    1STR    H1S 2246   7.026  13.394   8.803
    1STR    H1T 2247   6.918  13.258   8.779
    1STR    H1U 2248   6.855  13.414   8.830
    1STR    H1V 2249   7.023  13.367   8.433
    1STR    H1W 2250   7.039  13.237   8.548
    1STR    H1X 2251   7.341  13.512   8.623
    1STR    H1Y 2252   7.538  13.617   8.644
    1STR    H1Z 2253   7.774  13.617   8.701
    1STR    H20 2254   7.956  13.407   8.867
    1STR    H21 2255   7.992  13.341   8.704
    1STR    H22 2256   7.976  13.513   8.729
    1STR    H23 2257   7.721  13.080   8.707
    1STR    H27 2258   7.522  13.191   8.696
    1STR    H28 2259   5.692  13.526   8.718
    1STR    H29 2260   5.456  13.564   8.721
    1STR    H2A 2261   5.196  13.321   8.652
    1STR    H2B 2262   5.242  13.490   8.655
    1STR    H2C 2263   5.206  13.408   8.806
    1STR   BCK1 2264   5.222  13.008  13.148
    1STR    O03 2265   5.189  13.068  13.047
    1STR    N04 2266   5.354  12.983  13.165
    1STR    C05 2267   5.446  12.913  13.247
    1STR    C06 2268   5.584  12.950  13.233
    1STR    C07 2269   5.691  12.882  13.299
    1STR    N08 2270   5.827  12.919  13.281
    1STR    C09 2271   5.940  12.855  13.319
    1STR    O0A 2272   5.942  12.746  13.375
    1STR    O0B 2273   6.056  12.923  13.289
    1STR    C0C 2274   6.184  12.864  13.322
    1STR    C0D 2275   6.219  12.755  13.219
    1STR    C0E 2276   6.299  12.968  13.333
    1STR    O0F 2277   6.422  12.904  13.374
    1STR    C0G 2278   6.536  12.989  13.395
    1STR    C0H 2279   6.521  13.061  13.530
    1STR    C0I 2280   6.667  12.905  13.393
    1STR    O0J 2281   6.785  12.988  13.398
    1STR    C0K 2282   6.912  12.921  13.402
    1STR    C0M 2283   6.941  12.854  13.267
    1STR    C0N 2284   7.026  13.021  13.436
    1STR    O0O 2285   7.148  12.952  13.468
    1STR    C0P 2286   7.268  12.986  13.414
    1STR    O0Q 2287   7.287  13.073  13.330
    1STR    N0R 2288   7.362  12.905  13.464
    1STR    C0S 2289   7.497  12.883  13.432
    1STR    C0T 2290   7.548  12.758  13.471
    1STR    C0U 2291   7.677  12.718  13.432
    1STR    C0V 2292   7.759  12.803  13.356
    1STR    C0W 2293   7.885  12.742  13.297
    1STR    C0X 2294   7.717  12.937  13.330
    1STR    N0Y 2295   7.796  13.028  13.259
    1STR   BCK2 2296   7.927  13.064  13.263
    1STR    O10 2297   7.969  13.141  13.177
    1STR    C13 2298   7.583  12.973  13.364
    1STR    C14 2299   5.655  12.776  13.385
    1STR    C15 2300   5.521  12.738  13.400
    1STR    C16 2301   5.417  12.803  13.331
    1STR    C17 2302   5.280  12.743  13.352
    1STR    H1B 2303   5.398  13.035  13.091
    1STR    H1C 2304   5.610  13.032  13.168
    1STR    H1D 2305   5.847  13.004  13.232
    1STR    H1E 2306   6.175  12.817  13.420
    1STR    H1F 2307   6.230  12.797  13.118
    1STR    H1G 2308   6.313  12.706  13.245
    1STR    H1H 2309   6.142  12.678  13.215
    1STR    H1I 2310   6.270  13.044  13.405
    1STR    H1J 2311   6.314  13.019  13.237
    1STR    H1K 2312   6.543  13.062  13.314
    1STR    H1M 2313   6.507  12.990  13.611
    1STR    H1N 2314   6.436  13.130  13.531
    1STR    H1O 2315   6.610  13.120  13.553
    1STR    H1P 2316   6.667  12.835  13.477
    1STR    H1Q 2317   6.668  12.845  13.302
    1STR    H1R 2318   6.909  12.846  13.481
    1STR    H1S 2319   7.041  12.810  13.266
    1STR    H1T 2320   6.936  12.926  13.186
    1STR    H1U 2321   6.871  12.773  13.245
    1STR    H1V 2322   6.998  13.081  13.523
    1STR    H1W 2323   7.040  13.092  13.354
    1STR    H1X 2324   7.321  12.844  13.532
    1STR    H1Y 2325   7.488  12.687  13.526
    1STR    H1Z 2326   7.711  12.618  13.456
    1STR    H20 2327   7.920  12.797  13.209
    1STR    H21 2328   7.965  12.738  13.370
    1STR    H22 2329   7.866  12.640  13.263
    1STR    H23 2330   7.748  13.084  13.190
    1STR    H27 2331   7.545  13.070  13.337
    1STR    H28 2332   5.727  12.719  13.442
    1STR    H29 2333   5.499  12.654  13.465
    1STR    H2A 2334   5.223  12.806  13.420
    1STR    H2B 2335   5.285  12.645  13.399
    1STR    H2C 2336   5.229  12.730  13.257
    1STR   BCK1 2337   9.595  17.370  17.410
    1STR    O03 2338   9.545   0.040  17.389
    1STR    N04 2339   9.717  17.331  17.368
    1STR    C05 2340   9.808  17.390  17.278
    1STR    C06 2341   9.950  17.384  17.301
    1STR    C07 2342  10.047  17.430  17.206
    1STR    N08 2343  10.187  17.417  17.228
    1STR    C09 2344  10.291  17.428  17.142
    1STR    O0A 2345  10.278   0.009  17.022
    1STR    O0B 2346  10.414  17.411  17.201
    1STR    C0C 2347  10.536  17.430  17.124
    1STR    C0D 2348  10.567   0.141  17.116
    1STR    C0E 2349  10.658  17.352  17.182
    1STR    O0F 2350  10.780  17.373  17.107
    1STR    C0G 2351  10.897  17.298  17.148
    1STR    C0H 2352  10.884  17.154  17.095
    1STR    C0I 2353  11.030  17.362  17.096
    1STR    O0J 2354  11.147  17.301  17.154
    1STR    C0K 2355  11.277  17.349  17.113
    1STR    C0M 2356  11.297   0.054  17.161
    1STR    C0N 2357  11.392  17.260  17.171
    1STR    O0O 2358  11.522  17.299  17.121
    1STR    C0P 2359  11.634  17.299  17.200
    1STR    O0Q 2360  11.637  17.278  17.321
    1STR    N0R 2361  11.740  17.329  17.124
    1STR    C0S 2362  11.877  17.355  17.148
    1STR    C0T 2363  11.947  17.400  17.034
    1STR    C0U 2364  12.080   0.002  17.043
    1STR    C0V 2365  12.149  17.438  17.165
    1STR    C0W 2366  12.286   0.064  17.168
    1STR    C0X 2367  12.088  17.380  17.280
    1STR    N0Y 2368  12.160  17.368  17.402
    1STR   BCK2 2369  12.286  17.322  17.420
    1STR    O10 2370  12.355  17.275  17.330
    1STR    C13 2371  11.949  17.343  17.271
    1STR    C14 2372   9.996   0.048  17.088
    1STR    C15 2373   9.858   0.054  17.062
    1STR    C16 2374   9.764   0.002  17.153
    1STR    C17 2375   9.619  17.439  17.108
    1STR    H1B 2376   9.744  17.242  17.406
    1STR    H1C 2377   9.985  17.341  17.394
    1STR    H1D 2378  10.217  17.396  17.322
    1STR    H1E 2379  10.520  17.393  17.023
    1STR    H1F 2380  10.585   0.184  17.214
    1STR    H1G 2381  10.656   0.159  17.055
    1STR    H1H 2382  10.485   0.195  17.069
    1STR    H1I 2383  10.633  17.246  17.183
    1STR    H1J 2384  10.675  17.381  17.286
    1STR    H1K 2385  10.902  17.298  17.257
    1STR    H1M 2386  10.871  17.153  16.987
    1STR    H1N 2387  10.799  17.101  17.140
    1STR    H1O 2388  10.973  17.096  17.119
    1STR    H1P 2389  11.034  17.356  16.987
    1STR    H1Q 2390  11.028   0.028  17.121
    1STR    H1R 2391  11.283  17.345  17.004
    1STR    H1S 2392  11.398   0.089  17.137
    1STR    H1T 2393  11.285   0.061  17.269
    1STR    H1U 2394  11.228   0.124  17.114
    1STR    H1V 2395  11.376  17.156  17.142
    1STR    H1W 2396  11.390  17.262  17.280
    1STR    H1X 2397  11.710  17.338  17.029
    1STR    H1Y 2398  11.899  17.406  16.938
    1STR    H1Z 2399  12.129   0.040  16.955
    1STR    H20 2400  12.310   0.103  17.267
    1STR    H21 2401  12.363  17.434  17.138
    1STR    H22 2402  12.290   0.149  17.099
    1STR    H23 2403  12.111  17.393   0.046
    1STR    H27 2404  11.897  17.305  17.357
    1STR    H28 2405  10.061   0.089  17.012
    1STR    H29 2406   9.825   0.095  16.968
    1STR    H2A 2407   9.568  17.351  17.146
    1STR    H2B 2408   9.612  17.436  16.999
    1STR    H2C 2409   9.568   0.089  17.143
    1STR   BCK1 2410   9.603  17.384   4.494
    1STR    O03 2411   9.588  17.359   4.613
    1STR    N04 2412   9.706   0.016   4.445
    1STR    C05 2413   9.803   0.088   4.518
    1STR    C06 2414   9.944   0.077   4.490
    1STR    C07 2415  10.043   0.152   4.562
    1STR    N08 2416  10.182   0.144   4.531
    1STR    C09 2417  10.290   0.192   4.598
    1STR    O0A 2418  10.284   0.248   4.707
    1STR    O0B 2419  10.410   0.173   4.532
    1STR    C0C 2420  10.535   0.213   4.596
    1STR    C0D 2421  10.574   0.108   4.701
    1STR    C0E 2422  10.653   0.236   4.496
    1STR    O0F 2423  10.776   0.272   4.563
    1STR    C0G 2424  10.892   0.299   4.481
    1STR    C0H 2425  10.879   0.440   4.421
    1STR    C0I 2426  11.023   0.288   4.565
    1STR    O0J 2427  11.144   0.293   4.484
    1STR    C0K 2428  11.270   0.284   4.553
    1STR    C0M 2429  11.288   0.143   4.613
    1STR    C0N 2430  11.392   0.314   4.460
    1STR    O0O 2431  11.513   0.327   4.537
    1STR    C0P 2432  11.629   0.264   4.505
    1STR    O0Q 2433  11.646   0.186   4.412
    1STR    N0R 2434  11.724   0.304   4.590
    1STR    C0S 2435  11.861   0.276   4.611
    1STR    C0T 2436  11.922   0.354   4.711
    1STR    C0U 2437  12.057   0.338   4.742
    1STR    C0V 2438  12.138   0.246   4.673
    1STR    C0W 2439  12.285   0.247   4.708
    1STR    C0X 2440  12.082   0.163   4.571
    1STR    N0Y 2441  12.157   0.078   4.487
    1STR   BCK2 2442  12.272   0.008   4.481
    1STR    O10 2443  12.306  17.409   4.370
    1STR    C13 2444  11.942   0.181   4.542
    1STR    C14 2445   9.996   0.240   4.663
    1STR    C15 2446   9.859   0.255   4.689
    1STR    C16 2447   9.762   0.183   4.615
    1STR    C17 2448   9.616   0.217   4.641
    1STR    H1B 2449   9.710   0.022   4.345
    1STR    H1C 2450   9.976   0.009   4.413
    1STR    H1D 2451  10.208   0.095   4.447
    1STR    H1E 2452  10.518   0.308   4.647
    1STR    H1F 2453  10.592   0.011   4.656
    1STR    H1G 2454  10.665   0.138   4.754
    1STR    H1H 2455  10.496   0.096   4.776
    1STR    H1I 2456  10.624   0.315   4.426
    1STR    H1J 2457  10.669   0.146   4.437
    1STR    H1K 2458  10.897   0.225   4.401
    1STR    H1M 2459  10.866   0.515   4.499
    1STR    H1N 2460  10.794   0.448   4.353
    1STR    H1O 2461  10.968   0.466   4.364
    1STR    H1P 2462  11.026   0.367   4.640
    1STR    H1Q 2463  11.020   0.194   4.619
    1STR    H1R 2464  11.271   0.358   4.634
    1STR    H1S 2465  11.387   0.133   4.658
    1STR    H1T 2466  11.280   0.067   4.535
    1STR    H1U 2467  11.215   0.121   4.691
    1STR    H1V 2468  11.376   0.409   4.408
    1STR    H1W 2469  11.401   0.238   4.382
    1STR    H1X 2470  11.683   0.371   4.653
    1STR    H1Y 2471  11.866   0.428   4.765
    1STR    H1Z 2472  12.101   0.401   4.818
    1STR    H20 2473  12.307   0.165   4.776
    1STR    H21 2474  12.347   0.240   4.619
    1STR    H22 2475  12.314   0.339   4.760
    1STR    H23 2476  12.112   0.065   4.397
    1STR    H27 2477  11.895   0.122   4.464
    1STR    H28 2478  10.062   0.300   4.722
    1STR    H29 2479   9.828   0.324   4.765
    1STR    H2A 2480   9.558   0.213   4.549
    1STR    H2B 2481   9.605   0.317   4.682
    1STR    H2C 2482   9.573   0.147   4.713
    1STR   BCK1 2483   9.590  17.327   8.767
    1STR    O03 2484   9.565  17.337   8.647
    1STR    N04 2485   9.708  17.281   8.814
    1STR    C05 2486   9.809  17.213   8.745
    1STR    C06 2487   9.947  17.247   8.760
    1STR    C07 2488  10.052  17.170   8.700
    1STR    N08 2489  10.189  17.200   8.719
    1STR    C09 2490  10.297  17.120   8.704
    1STR    O0A 2491  10.290  17.001   8.675
    1STR    O0B 2492  10.416  17.184   8.726
    1STR    C0C 2493  10.541  17.116   8.699
    1STR    C0D 2494  10.573  17.126   8.549
    1STR    C0E 2495  10.659  17.170   8.785
    1STR    O0F 2496  10.781  17.097   8.759
    1STR    C0G 2497  10.896  17.132   8.838
    1STR    C0H 2498  10.881  17.069   8.978
    1STR    C0I 2499  11.027  17.082   8.771
    1STR    O0J 2500  11.145  17.130   8.840
    1STR    C0K 2501  11.273  17.088   8.788
    1STR    C0M 2502  11.300  17.156   8.652
    1STR    C0N 2503  11.387  17.124   8.887
    1STR    O0O 2504  11.512  17.065   8.847
    1STR    C0P 2505  11.630  17.132   8.856
    1STR    O0Q 2506  11.643  17.249   8.891
    1STR    N0R 2507  11.730  17.052   8.818
    1STR    C0S 2508  11.868  17.071   8.795
    1STR    C0T 2509  11.933  16.968   8.724
    1STR    C0U 2510  12.067  16.982   8.684
    1STR    C0V 2511  12.140  17.098   8.715
    1STR    C0W 2512  12.275  17.113   8.647
    1STR    C0X 2513  12.083  17.198   8.798
    1STR    N0Y 2514  12.150  17.316   8.832
    1STR   BCK2 2515  12.274  17.351   8.871
    1STR    O10 2516  12.300   0.030   8.884
    1STR    C13 2517  11.945  17.185   8.834
    1STR    C14 2518  10.012  17.061   8.619
    1STR    C15 2519   9.877  17.025   8.605
    1STR    C16 2520   9.776  17.097   8.670
    1STR    C17 2521   9.634  17.043   8.661
    1STR    H1B 2522   9.717  17.287   8.914
    1STR    H1C 2523   9.973  17.333   8.820
    1STR    H1D 2524  10.213  17.293   8.749
    1STR    H1E 2525  10.529  17.010   8.725
    1STR    H1F 2526  10.586  17.229   8.518
    1STR    H1G 2527  10.664  17.071   8.525
    1STR    H1H 2528  10.492  17.082   8.489
    1STR    H1I 2529  10.632  17.161   8.890
    1STR    H1J 2530  10.674  17.276   8.764
    1STR    H1K 2531  10.902  17.241   8.847
    1STR    H1M 2532  10.867  16.961   8.971
    1STR    H1N 2533  10.797  17.110   9.033
    1STR    H1O 2534  10.970  17.088   9.038
    1STR    H1P 2535  11.028  16.973   8.766
    1STR    H1Q 2536  11.027  17.118   8.668
    1STR    H1R 2537  11.272  16.980   8.775
    1STR    H1S 2538  11.400  17.132   8.616
    1STR    H1T 2539  11.293  17.264   8.661
    1STR    H1U 2540  11.230  17.124   8.575
    1STR    H1V 2541  11.363  17.086   8.986
    1STR    H1W 2542  11.396  17.233   8.897
    1STR    H1X 2543  11.693  16.961   8.796
    1STR    H1Y 2544  11.880  16.879   8.695
    1STR    H1Z 2545  12.112  16.904   8.624
    1STR    H20 2546  12.302  17.218   8.634
    1STR    H21 2547  12.353  17.063   8.704
    1STR    H22 2548  12.274  17.070   8.548
    1STR    H23 2549  12.092  17.399   8.829
    1STR    H27 2550  11.897  17.263   8.890
    1STR    H28 2551  10.084  17.000   8.566
    1STR    H29 2552   9.852  16.938   8.546
    1STR    H2A 2553   9.582  17.056   8.756
    1STR    H2B 2554   9.634  16.936   8.638
    1STR    H2C 2555   9.578  17.094   8.583
    1STR   BCK1 2556   9.593   0.004  13.090
    1STR    O03 2557   9.544   0.105  13.140
    1STR    N04 2558   9.714  17.439  13.028
    1STR    C05 2559   9.804   0.102  12.990
    1STR    C06 2560   9.947   0.082  12.997
    1STR    C07 2561  10.042   0.179  12.950
    1STR    N08 2562  10.183   0.155  12.952
    1STR    C09 2563  10.287   0.229  12.905
    1STR    O0A 2564  10.274   0.338  12.851
    1STR    O0B 2565  10.411   0.170  12.923
    1STR    C0C 2566  10.533   0.242  12.887
    1STR    C0D 2567  10.566   0.342  12.999
    1STR    C0E 2568  10.655   0.149  12.858
    1STR    O0F 2569  10.777   0.223  12.829
    1STR    C0G 2570  10.895   0.146  12.794
    1STR    C0H 2571  10.883   0.100  12.648
    1STR    C0I 2572  11.027   0.227  12.814
    1STR    O0J 2573  11.147   0.145  12.804
    1STR    C0K 2574  11.275   0.210  12.820
    1STR    C0M 2575  11.291   0.261  12.964
    1STR    C0N 2576  11.394   0.112  12.788
    1STR    O0O 2577  11.522   0.179  12.792
    1STR    C0P 2578  11.632   0.125  12.853
    1STR    O0Q 2579  11.634   0.024  12.923
    1STR    N0R 2580  11.740   0.200  12.825
    1STR    C0S 2581  11.876   0.202  12.860
    1STR    C0T 2582  11.951   0.301  12.793
    1STR    C0U 2583  12.085   0.325  12.826
    1STR    C0V 2584  12.150   0.250  12.925
    1STR    C0W 2585  12.289   0.296  12.965
    1STR    C0X 2586  12.083   0.141  12.988
    1STR    N0Y 2587  12.151   0.065  13.085
    1STR   BCK2 2588  12.274   0.009  13.077
    1STR    O10 2589  12.340   0.005  12.973
    1STR    C13 2590  11.944   0.120  12.956
    1STR    C14 2591   9.989   0.299  12.898
    1STR    C15 2592   9.850   0.320  12.888
    1STR    C16 2593   9.758   0.222  12.929
    1STR    C17 2594   9.612   0.250  12.898
    1STR    H1B 2595   9.742  17.345  13.006
    1STR    H1C 2596   9.983  17.430  13.039
    1STR    H1D 2597  10.214   0.069  12.994
    1STR    H1E 2598  10.513   0.299  12.795
    1STR    H1F 2599  10.587   0.292  13.093
    1STR    H1G 2600  10.654   0.402  12.972
    1STR    H1H 2601  10.485   0.413  13.015
    1STR    H1I 2602  10.630   0.085  12.774
    1STR    H1J 2603  10.673   0.084  12.943
    1STR    H1K 2604  10.900   0.059  12.860
    1STR    H1M 2605  10.870   0.185  12.581
    1STR    H1N 2606  10.798   0.032  12.632
    1STR    H1O 2607  10.972   0.047  12.616
    1STR    H1P 2608  11.032   0.309  12.742
    1STR    H1Q 2609  11.023   0.273  12.913
    1STR    H1R 2610  11.281   0.294  12.751
    1STR    H1S 2611  11.390   0.303  12.979
    1STR    H1T 2612  11.279   0.179  13.036
    1STR    H1U 2613  11.220   0.339  12.989
    1STR    H1V 2614  11.382   0.072  12.688
    1STR    H1W 2615  11.392   0.027  12.856
    1STR    H1X 2616  11.710   0.273  12.763
    1STR    H1Y 2617  11.906   0.363  12.718
    1STR    H1Z 2618  12.138   0.405  12.775
    1STR    H20 2619  12.308   0.277  13.071
    1STR    H21 2620  12.365   0.244  12.906
    1STR    H22 2621  12.302   0.403  12.950
    1STR    H23 2622  12.104   0.050  13.173
    1STR    H27 2623  11.889   0.042  13.006
    1STR    H28 2624  10.051   0.380  12.863
    1STR    H29 2625   9.815   0.412  12.845
    1STR    H2A 2626   9.558   0.158  12.874
    1STR    H2B 2627   9.602   0.316  12.812
    1STR    H2C 2628   9.564   0.299  12.983
    1STR   BCK1 2629   9.577   4.258   0.099
    1STR    O03 2630   9.569   4.136   0.102
    1STR    N04 2631   9.687   4.329   0.132
    1STR    C05 2632   9.795   4.291   0.215
    1STR    C06 2633   9.933   4.308   0.179
    1STR    C07 2634  10.041   4.285   0.271
    1STR    N08 2635  10.178   4.308   0.238
    1STR    C09 2636  10.291   4.286   0.310
    1STR    O0A 2637  10.292   4.233   0.421
    1STR    O0B 2638  10.408   4.327   0.249
    1STR    C0C 2639  10.536   4.302   0.314
    1STR    C0D 2640  10.576   4.155   0.292
    1STR    C0E 2641  10.651   4.397   0.270
    1STR    O0F 2642  10.775   4.367   0.339
    1STR    C0G 2643  10.889   4.450   0.312
    1STR    C0H 2644  10.875   4.583   0.387
    1STR    C0I 2645  11.022   4.379   0.353
    1STR    O0J 2646  11.139   4.451   0.309
    1STR    C0K 2647  11.267   4.398   0.348
    1STR    C0M 2648  11.295   4.266   0.275
    1STR    C0N 2649  11.381   4.499   0.317
    1STR    O0O 2650  11.503   4.462   0.383
    1STR    C0P 2651  11.621   4.446   0.317
    1STR    O0Q 2652  11.640   4.459   0.197
    1STR    N0R 2653  11.712   4.408   0.407
    1STR    C0S 2654  11.845   4.362   0.401
    1STR    C0T 2655  11.886   4.291   0.515
    1STR    C0U 2656  12.013   4.233   0.520
    1STR    C0V 2657  12.104   4.246   0.414
    1STR    C0W 2658  12.232   4.168   0.432
    1STR    C0X 2659  12.072   4.327   0.301
    1STR    N0Y 2660  12.160   4.370   0.198
    1STR   BCK2 2661  12.286   4.358   0.151
    1STR    O10 2662  12.324   4.442   0.070
    1STR    C13 2663  11.939   4.381   0.295
    1STR    C14 2664  10.004   4.242   0.401
    1STR    C15 2665   9.869   4.226   0.438
    1STR    C16 2666   9.765   4.252   0.348
    1STR    C17 2667   9.623   4.247   0.401
    1STR    H1B 2668   9.681   4.427   0.111
    1STR    H1C 2669   9.956   4.341   0.079
    1STR    H1D 2670  10.198   4.347   0.147
    1STR    H1E 2671  10.523   4.318   0.421
    1STR    H1F 2672  10.592   4.133   0.186
    1STR    H1G 2673  10.668   4.132   0.345
    1STR    H1H 2674  10.500   4.087   0.330
    1STR    H1I 2675  10.622   4.500   0.290
    1STR    H1J 2676  10.667   4.389   0.162
    1STR    H1K 2677  10.895   4.469   0.204
    1STR    H1M 2678  10.863   4.566   0.494
    1STR    H1N 2679  10.789   4.641   0.353
    1STR    H1O 2680  10.963   4.645   0.374
    1STR    H1P 2681  11.024   4.365   0.461
    1STR    H1Q 2682  11.022   4.279   0.310
    1STR    H1R 2683  11.267   4.381   0.456
    1STR    H1S 2684  11.396   4.230   0.297
    1STR    H1T 2685  11.290   4.279   0.167
    1STR    H1U 2686  11.226   4.187   0.303
    1STR    H1V 2687  11.354   4.598   0.355
    1STR    H1W 2688  11.395   4.511   0.209
    1STR    H1X 2689  11.670   4.407   0.498
    1STR    H1Y 2690  11.820   4.277   0.599
    1STR    H1Z 2691  12.039   4.175   0.607
    1STR    H20 2692  12.246   4.103   0.346
    1STR    H21 2693  12.316   4.235   0.448
    1STR    H22 2694  12.228   4.101   0.518
    1STR    H23 2695  12.117   4.438   0.138
    1STR    H27 2696  11.907   4.439   0.210
    1STR    H28 2697  10.075   4.222   0.479
    1STR    H29 2698   9.847   4.196   0.540
    1STR    H2A 2699   9.567   4.335   0.369
    1STR    H2B 2700   9.620   4.245   0.510
    1STR    H2C 2701   9.572   4.158   0.363
    1STR   BCK1 2702   9.597   4.253   4.355
    1STR    O03 2703   9.551   4.344   4.286
    1STR    N04 2704   9.719   4.198   4.338
    1STR    C05 2705   9.812   4.211   4.233
    1STR    C06 2706   9.952   4.219   4.260
    1STR    C07 2707  10.051   4.217   4.156
    1STR    N08 2708  10.190   4.220   4.185
    1STR    C09 2709  10.295   4.184   4.107
    1STR    O0A 2710  10.283   4.137   3.994
    1STR    O0B 2711  10.416   4.203   4.167
    1STR    C0C 2712  10.539   4.180   4.094
    1STR    C0D 2713  10.570   4.304   4.008
    1STR    C0E 2714  10.659   4.145   4.186
    1STR    O0F 2715  10.782   4.122   4.113
    1STR    C0G 2716  10.897   4.080   4.189
    1STR    C0H 2717  10.883   3.931   4.222
    1STR    C0I 2718  11.029   4.106   4.111
    1STR    O0J 2719  11.146   4.083   4.194
    1STR    C0K 2720  11.276   4.100   4.134
    1STR    C0M 2721  11.299   4.247   4.097
    1STR    C0N 2722  11.389   4.052   4.230
    1STR    O0O 2723  11.517   4.054   4.165
    1STR    C0P 2724  11.632   4.089   4.229
    1STR    O0Q 2725  11.641   4.127   4.345
    1STR    N0R 2726  11.734   4.080   4.143
    1STR    C0S 2727  11.870   4.115   4.144
    1STR    C0T 2728  11.930   4.119   4.017
    1STR    C0U 2729  12.065   4.155   4.002
    1STR    C0V 2730  12.146   4.184   4.113
    1STR    C0W 2731  12.290   4.219   4.083
    1STR    C0X 2732  12.092   4.175   4.245
    1STR    N0Y 2733  12.175   4.177   4.359
    1STR   BCK2 2734  12.283   4.250   4.393
    1STR    O10 2735  12.320   4.353   4.339
    1STR    C13 2736  11.952   4.142   4.258
    1STR    C14 2737  10.003   4.213   4.023
    1STR    C15 2738   9.866   4.203   3.995
    1STR    C16 2739   9.771   4.198   4.098
    1STR    C17 2740   9.626   4.172   4.057
    1STR    H1B 2741   9.743   4.133   4.411
    1STR    H1C 2742   9.985   4.225   4.362
    1STR    H1D 2743  10.218   4.251   4.276
    1STR    H1E 2744  10.525   4.095   4.027
    1STR    H1F 2745  10.586   4.392   4.070
    1STR    H1G 2746  10.660   4.288   3.948
    1STR    H1H 2747  10.489   4.325   3.939
    1STR    H1I 2748  10.633   4.056   4.244
    1STR    H1J 2749  10.675   4.226   4.258
    1STR    H1K 2750  10.901   4.139   4.281
    1STR    H1M 2751  10.870   3.871   4.132
    1STR    H1N 2752  10.798   3.911   4.288
    1STR    H1O 2753  10.972   3.894   4.274
    1STR    H1P 2754  11.033   4.042   4.022
    1STR    H1Q 2755  11.028   4.209   4.076
    1STR    H1R 2756  11.280   4.039   4.043
    1STR    H1S 2757  11.400   4.262   4.059
    1STR    H1T 2758  11.288   4.311   4.185
    1STR    H1U 2759  11.231   4.283   4.021
    1STR    H1V 2760  11.370   3.949   4.262
    1STR    H1W 2761  11.390   4.112   4.320
    1STR    H1X 2762  11.699   4.045   4.056
    1STR    H1Y 2763  11.874   4.096   3.928
    1STR    H1Z 2764  12.106   4.158   3.902
    1STR    H20 2765  12.304   4.327   4.094
    1STR    H21 2766  12.359   4.167   4.149
    1STR    H22 2767  12.318   4.195   3.981
    1STR    H23 2768  12.152   4.108   4.429
    1STR    H27 2769  11.908   4.136   4.356
    1STR    H28 2770  10.071   4.215   3.939
    1STR    H29 2771   9.835   4.195   3.892
    1STR    H2A 2772   9.575   4.110   4.131
    1STR    H2B 2773   9.621   4.120   3.962
    1STR    H2C 2774   9.573   4.267   4.047
    1STR   BCK1 2775   9.594   4.359   8.826
    1STR    O03 2776   9.553   4.410   8.929
    1STR    N04 2777   9.711   4.393   8.766
    1STR    C05 2778   9.804   4.497   8.795
    1STR    C06 2779   9.945   4.476   8.782
    1STR    C07 2780  10.042   4.580   8.805
    1STR    N08 2781  10.182   4.560   8.785
    1STR    C09 2782  10.288   4.640   8.814
    1STR    O0A 2783  10.279   4.746   8.875
    1STR    O0B 2784  10.410   4.591   8.771
    1STR    C0C 2785  10.534   4.662   8.803
    1STR    C0D 2786  10.572   4.634   8.949
    1STR    C0E 2787  10.654   4.630   8.708
    1STR    O0F 2788  10.776   4.697   8.746
    1STR    C0G 2789  10.893   4.677   8.663
    1STR    C0H 2790  10.880   4.764   8.537
    1STR    C0I 2791  11.025   4.711   8.740
    1STR    O0J 2792  11.146   4.672   8.669
    1STR    C0K 2793  11.273   4.699   8.732
    1STR    C0M 2794  11.289   4.614   8.859
    1STR    C0N 2795  11.394   4.671   8.638
    1STR    O0O 2796  11.519   4.713   8.697
    1STR    C0P 2797  11.633   4.637   8.695
    1STR    O0Q 2798  11.642   4.522   8.652
    1STR    N0R 2799  11.733   4.709   8.746
    1STR    C0S 2800  11.870   4.689   8.773
    1STR    C0T 2801  11.938   4.805   8.815
    1STR    C0U 2802  12.074   4.803   8.848
    1STR    C0V 2803  12.148   4.684   8.841
    1STR    C0W 2804  12.297   4.693   8.871
    1STR    C0X 2805  12.084   4.563   8.801
    1STR    N0Y 2806  12.163   4.446   8.788
    1STR   BCK2 2807  12.247   4.391   8.879
    1STR    O10 2808  12.250   4.427   8.997
    1STR    C13 2809  11.945   4.567   8.766
    1STR    C14 2810   9.991   4.706   8.843
    1STR    C15 2811   9.853   4.729   8.853
    1STR    C16 2812   9.760   4.628   8.826
    1STR    C17 2813   9.614   4.671   8.824
    1STR    H1B 2814   9.735   4.333   8.689
    1STR    H1C 2815   9.980   4.378   8.755
    1STR    H1D 2816  10.211   4.474   8.742
    1STR    H1E 2817  10.514   4.770   8.793
    1STR    H1F 2818  10.592   4.528   8.965
    1STR    H1G 2819  10.661   4.690   8.977
    1STR    H1H 2820  10.492   4.663   9.017
    1STR    H1I 2821  10.626   4.658   8.606
    1STR    H1J 2822  10.671   4.522   8.706
    1STR    H1K 2823  10.899   4.571   8.635
    1STR    H1M 2824  10.867   4.869   8.563
    1STR    H1N 2825  10.796   4.734   8.475
    1STR    H1O 2826  10.970   4.756   8.475
    1STR    H1P 2827  11.028   4.818   8.761
    1STR    H1Q 2828  11.021   4.661   8.836
    1STR    H1R 2829  11.276   4.805   8.759
    1STR    H1S 2830  11.388   4.628   8.903
    1STR    H1T 2831  11.279   4.508   8.835
    1STR    H1U 2832  11.216   4.638   8.936
    1STR    H1V 2833  11.382   4.726   8.544
    1STR    H1W 2834  11.398   4.565   8.610
    1STR    H1X 2835  11.698   4.800   8.769
    1STR    H1Y 2836  11.886   4.900   8.821
    1STR    H1Z 2837  12.122   4.894   8.878
    1STR    H20 2838  12.316   4.660   8.974
    1STR    H21 2839  12.355   4.631   8.803
    1STR    H22 2840  12.333   4.795   8.863
    1STR    H23 2841  12.162   4.400   8.698
    1STR    H27 2842  11.895   4.477   8.734
    1STR    H28 2843  10.055   4.791   8.863
    1STR    H29 2844   9.820   4.828   8.880
    1STR    H2A 2845   9.556   4.614   8.752
    1STR    H2B 2846   9.604   4.776   8.798
    1STR    H2C 2847   9.569   4.658   8.923
    1STR   BCK1 2848   9.583   4.284  13.149
    1STR    O03 2849   9.541   4.370  13.074
    1STR    N04 2850   9.714   4.253  13.141
    1STR    C05 2851   9.807   4.157  13.188
    1STR    C06 2852   9.945   4.194  13.192
    1STR    C07 2853  10.050   4.103  13.225
    1STR    N08 2854  10.187   4.143  13.222
    1STR    C09 2855  10.299   4.069  13.236
    1STR    O0A 2856  10.300   3.947  13.253
    1STR    O0B 2857  10.415   4.142  13.228
    1STR    C0C 2858  10.543   4.074  13.236
    1STR    C0D 2859  10.576   4.007  13.102
    1STR    C0E 2860  10.659   4.168  13.281
    1STR    O0F 2861  10.782   4.093  13.297
    1STR    C0G 2862  10.896   4.166  13.346
    1STR    C0H 2863  10.881   4.187  13.497
    1STR    C0I 2864  11.027   4.087  13.315
    1STR    O0J 2865  11.145   4.164  13.348
    1STR    C0K 2866  11.272   4.100  13.328
    1STR    C0M 2867  11.300   4.084  13.178
    1STR    C0N 2868  11.386   4.182  13.394
    1STR    O0O 2869  11.508   4.108  13.398
    1STR    C0P 2870  11.628   4.162  13.363
    1STR    O0Q 2871  11.646   4.276  13.322
    1STR    N0R 2872  11.724   4.070  13.378
    1STR    C0S 2873  11.860   4.065  13.344
    1STR    C0T 2874  11.916   3.936  13.334
    1STR    C0U 2875  12.046   3.918  13.286
    1STR    C0V 2876  12.127   4.028  13.251
    1STR    C0W 2877  12.256   3.998  13.177
    1STR    C0X 2878  12.080   4.160  13.275
    1STR    N0Y 2879  12.156   4.274  13.245
    1STR   BCK2 2880  12.284   4.311  13.263
    1STR    O10 2881  12.322   4.418  13.216
    1STR    C13 2882  11.944   4.177  13.316
    1STR    C14 2883  10.011   3.972  13.260
    1STR    C15 2884   9.877   3.932  13.256
    1STR    C16 2885   9.775   4.021  13.217
    1STR    C17 2886   9.638   3.959  13.202
    1STR    H1B 2887   9.756   4.322  13.081
    1STR    H1C 2888   9.972   4.296  13.167
    1STR    H1D 2889  10.208   4.240  13.206
    1STR    H1E 2890  10.535   3.997  13.313
    1STR    H1F 2891  10.586   4.080  13.022
    1STR    H1G 2892  10.669   3.951  13.108
    1STR    H1H 2893  10.498   3.937  13.073
    1STR    H1I 2894  10.631   4.215  13.375
    1STR    H1J 2895  10.673   4.248  13.208
    1STR    H1K 2896  10.902   4.262  13.295
    1STR    H1M 2897  10.867   4.092  13.549
    1STR    H1N 2898  10.797   4.251  13.522
    1STR    H1O 2899  10.970   4.234  13.539
    1STR    H1P 2900  11.027   3.993  13.369
    1STR    H1Q 2901  11.027   4.063  13.209
    1STR    H1R 2902  11.270   4.002  13.376
    1STR    H1S 2903  11.400   4.044  13.161
    1STR    H1T 2904  11.295   4.181  13.127
    1STR    H1U 2905  11.231   4.016  13.129
    1STR    H1V 2906  11.359   4.206  13.497
    1STR    H1W 2907  11.399   4.278  13.343
    1STR    H1X 2908  11.684   3.986  13.416
    1STR    H1Y 2909  11.857   3.849  13.356
    1STR    H1Z 2910  12.084   3.818  13.272
    1STR    H20 2911  12.289   4.082  13.117
    1STR    H21 2912  12.335   3.971  13.247
    1STR    H22 2913  12.242   3.914  13.109
    1STR    H23 2914  12.105   4.349  13.201
    1STR    H27 2915  11.903   4.276  13.327
    1STR    H28 2916  10.082   3.896  13.288
    1STR    H29 2917   9.854   3.830  13.279
    1STR    H2A 2918   9.582   3.972  13.295
    1STR    H2B 2919   9.644   3.852  13.184
    1STR    H2C 2920   9.585   4.002  13.118
    1STR   BCK1 2921   9.594   8.681  17.414
    1STR    O03 2922   9.544   8.793  17.421
    1STR    N04 2923   9.716   8.654  17.361
    1STR    C05 2924   9.806   8.735  17.287
    1STR    C06 2925   9.948   8.722  17.305
    1STR    C07 2926  10.044   8.792  17.225
    1STR    N08 2927  10.185   8.773  17.240
    1STR    C09 2928  10.289   8.812  17.162
    1STR    O0A 2929  10.276   8.873  17.056
    1STR    O0B 2930  10.413   8.775  17.210
    1STR    C0C 2931  10.534   8.819  17.143
    1STR    C0D 2932  10.566   8.963  17.185
    1STR    C0E 2933  10.657   8.726  17.170
    1STR    O0F 2934  10.779   8.772  17.106
    1STR    C0G 2935  10.896   8.688  17.119
    1STR    C0H 2936  10.883   8.571  17.020
    1STR    C0I 2937  11.029   8.766  17.092
    1STR    O0J 2938  11.147   8.689  17.127
    1STR    C0K 2939  11.277   8.750  17.106
    1STR    C0M 2940  11.295   8.870  17.199
    1STR    C0N 2941  11.393   8.648  17.131
    1STR    O0O 2942  11.523   8.702  17.099
    1STR    C0P 2943  11.634   8.681  17.177
    1STR    O0Q 2944  11.636   8.624  17.285
    1STR    N0R 2945  11.741   8.732  17.115
    1STR    C0S 2946  11.877   8.751  17.146
    1STR    C0T 2947  11.949   8.821  17.047
    1STR    C0U 2948  12.082   8.859  17.067
    1STR    C0V 2949  12.149   8.826  17.186
    1STR    C0W 2950  12.286   8.890  17.206
    1STR    C0X 2951  12.086   8.743  17.283
    1STR    N0Y 2952  12.157   8.702  17.399
    1STR   BCK2 2953  12.283   8.653  17.407
    1STR    O10 2954  12.353   8.628  17.309
    1STR    C13 2955  11.948   8.709  17.263
    1STR    C14 2956   9.992   8.881  17.128
    1STR    C15 2957   9.854   8.893  17.107
    1STR    C16 2958   9.761   8.820  17.182
    1STR    C17 2959   9.616   8.830  17.140
    1STR    H1B 2960   9.744   8.559  17.376
    1STR    H1C 2961   9.984   8.655  17.382
    1STR    H1D 2962  10.216   8.722  17.321
    1STR    H1E 2963  10.517   8.818  17.035
    1STR    H1F 2964  10.585   8.971  17.292
    1STR    H1G 2965  10.654   9.001  17.133
    1STR    H1H 2966  10.483   9.030  17.161
    1STR    H1I 2967  10.632   8.626  17.134
    1STR    H1J 2968  10.674   8.717  17.277
    1STR    H1K 2969  10.901   8.649  17.221
    1STR    H1M 2970  10.871   8.607  16.918
    1STR    H1N 2971  10.799   8.506  17.043
    1STR    H1O 2972  10.973   8.508  17.022
    1STR    H1P 2973  11.034   8.797  16.988
    1STR    H1Q 2974  11.026   8.857  17.152
    1STR    H1R 2975  11.283   8.783  17.002
    1STR    H1S 2976  11.395   8.912  17.189
    1STR    H1T 2977  11.283   8.841  17.304
    1STR    H1U 2978  11.225   8.951  17.178
    1STR    H1V 2979  11.378   8.560  17.069
    1STR    H1W 2980  11.390   8.612  17.234
    1STR    H1X 2981  11.711   8.768  17.026
    1STR    H1Y 2982  11.902   8.851  16.954
    1STR    H1Z 2983  12.132   8.918  16.991
    1STR    H20 2984  12.308   8.904  17.311
    1STR    H21 2985  12.364   8.828  17.161
    1STR    H22 2986  12.291   8.988  17.159
    1STR    H23 2987  12.108   8.708   0.046
    1STR    H27 2988  11.895   8.652  17.337
    1STR    H28 2989  10.056   8.941  17.065
    1STR    H29 2990   9.820   8.960  17.029
    1STR    H2A 2991   9.563   8.736  17.154
    1STR    H2B 2992   9.607   8.856  17.035
    1STR    H2C 2993   9.565   8.908  17.198
    1STR   BCK1 2994   9.603   8.631   4.485
    1STR    O03 2995   9.598   8.563   4.587
    1STR    N04 2996   9.702   8.721   4.462
    1STR    C05 2997   9.802   8.761   4.553
    1STR    C06 2998   9.942   8.757   4.521
    1STR    C07 2999  10.044   8.800   4.612
    1STR    N08 3000  10.182   8.801   4.578
    1STR    C09 3001  10.292   8.821   4.656
    1STR    O0A 3002  10.288   8.834   4.778
    1STR    O0B 3003  10.411   8.824   4.585
    1STR    C0C 3004  10.537   8.839   4.657
    1STR    C0D 3005  10.576   8.704   4.718
    1STR    C0E 3006  10.653   8.896   4.569
    1STR    O0F 3007  10.776   8.907   4.644
    1STR    C0G 3008  10.891   8.961   4.576
    1STR    C0H 3009  10.877   9.114   4.568
    1STR    C0I 3010  11.023   8.922   4.650
    1STR    O0J 3011  11.141   8.956   4.574
    1STR    C0K 3012  11.269   8.927   4.636
    1STR    C0M 3013  11.290   8.775   4.645
    1STR    C0N 3014  11.387   8.989   4.557
    1STR    O0O 3015  11.508   8.981   4.635
    1STR    C0P 3016  11.626   8.933   4.586
    1STR    O0Q 3017  11.645   8.888   4.474
    1STR    N0R 3018  11.718   8.944   4.682
    1STR    C0S 3019  11.853   8.910   4.698
    1STR    C0T 3020  11.906   8.940   4.825
    1STR    C0U 3021  12.040   8.914   4.855
    1STR    C0V 3022  12.127   8.859   4.759
    1STR    C0W 3023  12.271   8.845   4.803
    1STR    C0X 3024  12.079   8.825   4.629
    1STR    N0Y 3025  12.160   8.784   4.521
    1STR   BCK2 3026  12.278   8.723   4.494
    1STR    O10 3027  12.320   8.732   4.380
    1STR    C13 3028  11.941   8.852   4.601
    1STR    C14 3029  10.000   8.847   4.738
    1STR    C15 3030   9.864   8.854   4.771
    1STR    C16 3031   9.765   8.815   4.679
    1STR    C17 3032   9.620   8.838   4.718
    1STR    H1B 3033   9.698   8.768   4.373
    1STR    H1C 3034   9.971   8.719   4.424
    1STR    H1D 3035  10.207   8.784   4.482
    1STR    H1E 3036  10.521   8.911   4.738
    1STR    H1F 3037  10.593   8.628   4.641
    1STR    H1G 3038  10.668   8.713   4.777
    1STR    H1H 3039  10.499   8.667   4.786
    1STR    H1I 3040  10.623   8.993   4.530
    1STR    H1J 3041  10.669   8.831   4.483
    1STR    H1K 3042  10.896   8.919   4.475
    1STR    H1M 3043  10.865   9.158   4.667
    1STR    H1N 3044  10.792   9.145   4.507
    1STR    H1O 3045  10.966   9.159   4.523
    1STR    H1P 3046  11.026   8.970   4.748
    1STR    H1Q 3047  11.020   8.815   4.668
    1STR    H1R 3048  11.269   8.970   4.736
    1STR    H1S 3049  11.389   8.752   4.683
    1STR    H1T 3050  11.282   8.729   4.546
    1STR    H1U 3051  11.218   8.726   4.711
    1STR    H1V 3052  11.368   9.095   4.539
    1STR    H1W 3053  11.399   8.943   4.459
    1STR    H1X 3054  11.674   8.987   4.762
    1STR    H1Y 3055  11.845   8.986   4.901
    1STR    H1Z 3056  12.077   8.940   4.953
    1STR    H20 3057  12.291   8.742   4.831
    1STR    H21 3058  12.339   8.878   4.724
    1STR    H22 3059  12.293   8.906   4.891
    1STR    H23 3060  12.121   8.807   4.432
    1STR    H27 3061  11.900   8.830   4.503
    1STR    H28 3062  10.068   8.882   4.814
    1STR    H29 3063   9.835   8.893   4.868
    1STR    H2A 3064   9.561   8.871   4.633
    1STR    H2B 3065   9.611   8.914   4.796
    1STR    H2C 3066   9.576   8.746   4.757
    1STR   BCK1 3067   9.594   8.603   8.750
    1STR    O03 3068   9.559   8.652   8.643
    1STR    N04 3069   9.714   8.546   8.772
    1STR    C05 3070   9.812   8.506   8.678
    1STR    C06 3071   9.950   8.531   8.701
    1STR    C07 3072  10.052   8.479   8.615
    1STR    N08 3073  10.190   8.499   8.642
    1STR    C09 3074  10.297   8.428   8.598
    1STR    O0A 3075  10.288   8.328   8.528
    1STR    O0B 3076  10.417   8.479   8.639
    1STR    C0C 3077  10.541   8.423   8.590
    1STR    C0D 3078  10.572   8.483   8.452
    1STR    C0E 3079  10.660   8.444   8.688
    1STR    O0F 3080  10.782   8.385   8.639
    1STR    C0G 3081  10.897   8.390   8.725
    1STR    C0H 3082  10.883   8.284   8.835
    1STR    C0I 3083  11.029   8.367   8.645
    1STR    O0J 3084  11.147   8.389   8.726
    1STR    C0K 3085  11.275   8.369   8.663
    1STR    C0M 3086  11.300   8.478   8.558
    1STR    C0N 3087  11.390   8.371   8.769
    1STR    O0O 3088  11.516   8.334   8.711
    1STR    C0P 3089  11.633   8.395   8.746
    1STR    O0Q 3090  11.643   8.492   8.821
    1STR    N0R 3091  11.735   8.335   8.684
    1STR    C0S 3092  11.873   8.362   8.674
    1STR    C0T 3093  11.943   8.286   8.579
    1STR    C0U 3094  12.078   8.313   8.550
    1STR    C0V 3095  12.148   8.415   8.617
    1STR    C0W 3096  12.285   8.451   8.563
    1STR    C0X 3097  12.085   8.486   8.723
    1STR    N0Y 3098  12.147   8.592   8.790
    1STR   BCK2 3099  12.269   8.621   8.840
    1STR    O10 3100  12.287   8.734   8.884
    1STR    C13 3101  11.946   8.460   8.747
    1STR    C14 3102  10.010   8.406   8.502
    1STR    C15 3103   9.874   8.379   8.479
    1STR    C16 3104   9.775   8.425   8.568
    1STR    C17 3105   9.632   8.378   8.544
    1STR    H1B 3106   9.730   8.521   8.868
    1STR    H1C 3107   9.979   8.590   8.787
    1STR    H1D 3108  10.216   8.575   8.702
    1STR    H1E 3109  10.529   8.315   8.579
    1STR    H1F 3110  10.587   8.591   8.458
    1STR    H1G 3111  10.663   8.439   8.410
    1STR    H1H 3112  10.492   8.463   8.381
    1STR    H1I 3113  10.633   8.400   8.784
    1STR    H1J 3114  10.676   8.551   8.706
    1STR    H1K 3115  10.904   8.489   8.770
    1STR    H1M 3116  10.869   8.184   8.792
    1STR    H1N 3117  10.798   8.303   8.901
    1STR    H1O 3118  10.972   8.280   8.897
    1STR    H1P 3119  11.030   8.266   8.603
    1STR    H1Q 3120  11.029   8.436   8.560
    1STR    H1R 3121  11.276   8.271   8.615
    1STR    H1S 3122  11.400   8.469   8.516
    1STR    H1T 3123  11.292   8.577   8.602
    1STR    H1U 3124  11.231   8.473   8.474
    1STR    H1V 3125  11.368   8.301   8.849
    1STR    H1W 3126  11.395   8.470   8.816
    1STR    H1X 3127  11.701   8.257   8.632
    1STR    H1Y 3128  11.894   8.209   8.522
    1STR    H1Z 3129  12.127   8.257   8.472
    1STR    H20 3130  12.308   8.557   8.578
    1STR    H21 3131  12.363   8.391   8.610
    1STR    H22 3132  12.291   8.433   8.456
    1STR    H23 3133  12.085   8.670   8.809
    1STR    H27 3134  11.894   8.518   8.822
    1STR    H28 3135  10.080   8.366   8.430
    1STR    H29 3136   9.846   8.318   8.394
    1STR    H2A 3137   9.580   8.360   8.638
    1STR    H2B 3138   9.629   8.286   8.487
    1STR    H2C 3139   9.577   8.454   8.488
    1STR   BCK1 3140   9.593   8.735  13.127
    1STR    O03 3141   9.546   8.822  13.200
    1STR    N04 3142   9.713   8.745  13.063
    1STR    C05 3143   9.804   8.853  13.049
    1STR    C06 3144   9.946   8.832  13.049
    1STR    C07 3145  10.041   8.937  13.026
    1STR    N08 3146  10.182   8.913  13.020
    1STR    C09 3147  10.287   8.998  13.002
    1STR    O0A 3148  10.275   9.119  12.992
    1STR    O0B 3149  10.410   8.936  12.995
    1STR    C0C 3150  10.532   9.015  12.985
    1STR    C0D 3151  10.568   9.071  13.123
    1STR    C0E 3152  10.654   8.938  12.924
    1STR    O0F 3153  10.776   9.016  12.921
    1STR    C0G 3154  10.894   8.956  12.862
    1STR    C0H 3155  10.882   8.962  12.709
    1STR    C0I 3156  11.026   9.026  12.909
    1STR    O0J 3157  11.146   8.953  12.872
    1STR    C0K 3158  11.274   9.009  12.910
    1STR    C0M 3159  11.289   9.006  13.063
    1STR    C0N 3160  11.394   8.930  12.847
    1STR    O0O 3161  11.521   8.994  12.873
    1STR    C0P 3162  11.631   8.925  12.916
    1STR    O0Q 3163  11.634   8.809  12.953
    1STR    N0R 3164  11.738   9.007  12.912
    1STR    C0S 3165  11.874   9.000  12.946
    1STR    C0T 3166  11.949   9.112  12.905
    1STR    C0U 3167  12.084   9.127  12.942
    1STR    C0V 3168  12.149   9.029  13.019
    1STR    C0W 3169  12.289   9.062  13.068
    1STR    C0X 3170  12.081   8.909  13.054
    1STR    N0Y 3171  12.149   8.813  13.133
    1STR   BCK2 3172  12.271   8.759  13.112
    1STR    O10 3173  12.335   8.774  13.008
    1STR    C13 3174  11.942   8.897  13.019
    1STR    C14 3175   9.988   9.067  13.007
    1STR    C15 3176   9.850   9.090  13.004
    1STR    C16 3177   9.758   8.985  13.021
    1STR    C17 3178   9.611   9.020  12.999
    1STR    H1B 3179   9.740   8.659  13.019
    1STR    H1C 3180   9.982   8.732  13.066
    1STR    H1D 3181  10.213   8.818  13.030
    1STR    H1E 3182  10.512   9.099  12.918
    1STR    H1F 3183  10.589   8.991  13.195
    1STR    H1G 3184  10.656   9.135  13.118
    1STR    H1H 3185  10.487   9.131  13.164
    1STR    H1I 3186  10.628   8.906  12.823
    1STR    H1J 3187  10.672   8.847  12.981
    1STR    H1K 3188  10.900   8.851  12.894
    1STR    H1M 3189  10.869   9.065  12.675
    1STR    H1N 3190  10.797   8.904  12.672
    1STR    H1O 3191  10.971   8.923  12.661
    1STR    H1P 3192  11.030   9.127  12.869
    1STR    H1Q 3193  11.021   9.035  13.018
    1STR    H1R 3194  11.279   9.112  12.874
    1STR    H1S 3195  11.388   9.042  13.093
    1STR    H1T 3196  11.278   8.905  13.101
    1STR    H1U 3197  11.217   9.070  13.114
    1STR    H1V 3198  11.381   8.926  12.739
    1STR    H1W 3199  11.394   8.827  12.881
    1STR    H1X 3200  11.707   9.095  12.874
    1STR    H1Y 3201  11.904   9.191  12.847
    1STR    H1Z 3202  12.137   9.216  12.912
    1STR    H20 3203  12.307   9.022  13.168
    1STR    H21 3204  12.364   9.023  13.000
    1STR    H22 3205  12.304   9.170  13.075
    1STR    H23 3206  12.103   8.782  13.217
    1STR    H27 3207  11.886   8.809  13.049
    1STR    H28 3208  10.050   9.153  12.991
    1STR    H29 3209   9.815   9.190  12.986
    1STR    H2A 3210   9.556   8.938  12.955
    1STR    H2B 3211   9.601   9.105  12.932
    1STR    H2C 3212   9.565   9.048  13.094
    1STR   BCK1 3213   9.582  13.008   0.071
    1STR    O03 3214   9.553  13.064  17.406
    1STR    N04 3215   9.714  12.999   0.102
    1STR    C05 3216   9.807  12.946   0.195
    1STR    C06 3217   9.945  12.975   0.170
    1STR    C07 3218  10.053  12.927   0.251
    1STR    N08 3219  10.189  12.960   0.224
    1STR    C09 3220  10.301  12.907   0.275
    1STR    O0A 3221  10.303  12.811   0.352
    1STR    O0B 3222  10.417  12.968   0.234
    1STR    C0C 3223  10.545  12.919   0.280
    1STR    C0D 3224  10.582  12.791   0.204
    1STR    C0E 3225  10.659  13.024   0.270
    1STR    O0F 3226  10.782  12.971   0.324
    1STR    C0G 3227  10.896  13.059   0.327
    1STR    C0H 3228  10.881  13.158   0.443
    1STR    C0I 3229  11.028  12.977   0.343
    1STR    O0J 3230  11.145  13.059   0.329
    1STR    C0K 3231  11.273  12.994   0.347
    1STR    C0M 3232  11.301  12.899   0.230
    1STR    C0N 3233  11.387  13.100   0.358
    1STR    O0O 3234  11.508  13.040   0.406
    1STR    C0P 3235  11.628  13.056   0.344
    1STR    O0Q 3236  11.647  13.118   0.240
    1STR    N0R 3237  11.722  12.990   0.413
    1STR    C0S 3238  11.856  12.957   0.387
    1STR    C0T 3239  11.905  12.844   0.456
    1STR    C0U 3240  12.032  12.792   0.427
    1STR    C0V 3241  12.115  12.853   0.332
    1STR    C0W 3242  12.238  12.775   0.288
    1STR    C0X 3243  12.076  12.977   0.273
    1STR    N0Y 3244  12.158  13.046   0.182
    1STR   BCK2 3245  12.289  13.078   0.175
    1STR    O10 3246  12.331  13.133   0.074
    1STR    C13 3247  11.944  13.024   0.298
    1STR    C14 3248  10.017  12.847   0.361
    1STR    C15 3249   9.884  12.817   0.389
    1STR    C16 3250   9.779  12.865   0.309
    1STR    C17 3251   9.641  12.824   0.356
    1STR    H1B 3252   9.758  13.051   0.028
    1STR    H1C 3253   9.970  13.037   0.085
    1STR    H1D 3254  10.208  13.032   0.157
    1STR    H1E 3255  10.535  12.894   0.386
    1STR    H1F 3256  10.594  12.810   0.097
    1STR    H1G 3257  10.676  12.749   0.241
    1STR    H1H 3258  10.506  12.714   0.216
    1STR    H1I 3259  10.629  13.113   0.325
    1STR    H1J 3260  10.674  13.054   0.167
    1STR    H1K 3261  10.903  13.113   0.232
    1STR    H1M 3262  10.867  13.105   0.538
    1STR    H1N 3263  10.796  13.225   0.430
    1STR    H1O 3264  10.969  13.221   0.453
    1STR    H1P 3265  11.028  12.926   0.440
    1STR    H1Q 3266  11.028  12.898   0.267
    1STR    H1R 3267  11.271  12.938   0.441
    1STR    H1S 3268  11.401  12.856   0.238
    1STR    H1T 3269  11.296  12.952   0.135
    1STR    H1U 3270  11.232  12.815   0.227
    1STR    H1V 3271  11.359  13.177   0.429
    1STR    H1W 3272  11.402  13.150   0.262
    1STR    H1X 3273  11.680  12.949   0.495
    1STR    H1Y 3274  11.843  12.792   0.527
    1STR    H1Z 3275  12.063  12.701   0.475
    1STR    H20 3276  12.273  12.806   0.190
    1STR    H21 3277  12.318  12.785   0.361
    1STR    H22 3278  12.214  12.669   0.280
    1STR    H23 3279  12.109  13.087   0.104
    1STR    H27 3280  11.908  13.113   0.247
    1STR    H28 3281  10.090  12.807   0.430
    1STR    H29 3282   9.863  12.755   0.475
    1STR    H2A 3283   9.582  12.912   0.379
    1STR    H2B 3284   9.644  12.764   0.447
    1STR    H2C 3285   9.593  12.761   0.281
    1STR   BCK1 3286   9.597  12.994   4.337
    1STR    O03 3287   9.548  13.099   4.297
    1STR    N04 3288   9.719  12.947   4.302
    1STR    C05 3289   9.811  12.990   4.204
    1STR    C06 3290   9.952  12.989   4.229
    1STR    C07 3291  10.049  13.018   4.128
    1STR    N08 3292  10.189  13.010   4.154
    1STR    C09 3293  10.293  13.002   4.067
    1STR    O0A 3294  10.281  12.997   3.945
    1STR    O0B 3295  10.416  12.999   4.129
    1STR    C0C 3296  10.538  13.002   4.051
    1STR    C0D 3297  10.569  13.148   4.011
    1STR    C0E 3298  10.659  12.938   4.125
    1STR    O0F 3299  10.781  12.943   4.047
    1STR    C0G 3300  10.897  12.878   4.104
    1STR    C0H 3301  10.884  12.726   4.085
    1STR    C0I 3302  11.030  12.929   4.040
    1STR    O0J 3303  11.147  12.880   4.110
    1STR    C0K 3304  11.277  12.918   4.059
    1STR    C0M 3305  11.299  13.070   4.075
    1STR    C0N 3306  11.391  12.842   4.134
    1STR    O0O 3307  11.521  12.868   4.076
    1STR    C0P 3308  11.634  12.883   4.152
    1STR    O0Q 3309  11.638  12.885   4.274
    1STR    N0R 3310  11.739  12.897   4.071
    1STR    C0S 3311  11.876  12.926   4.088
    1STR    C0T 3312  11.944  12.954   3.968
    1STR    C0U 3313  12.078  12.997   3.969
    1STR    C0V 3314  12.148  13.011   4.090
    1STR    C0W 3315  12.285  13.077   4.081
    1STR    C0X 3316  12.089  12.971   4.213
    1STR    N0Y 3317  12.162  12.976   4.334
    1STR   BCK2 3318  12.288  12.932   4.357
    1STR    O10 3319  12.357  12.874   4.274
    1STR    C13 3320  11.950  12.933   4.211
    1STR    C14 3321  10.000  13.054   4.001
    1STR    C15 3322   9.862  13.054   3.973
    1STR    C16 3323   9.768  13.019   4.072
    1STR    C17 3324   9.623  13.008   4.027
    1STR    H1B 3325   9.746  12.865   4.354
    1STR    H1C 3326   9.986  12.964   4.328
    1STR    H1D 3327  10.219  13.009   4.250
    1STR    H1E 3328  10.522  12.944   3.960
    1STR    H1F 3329  10.586  13.210   4.099
    1STR    H1G 3330  10.658  13.153   3.949
    1STR    H1H 3331  10.486  13.191   3.954
    1STR    H1I 3332  10.634  12.835   4.149
    1STR    H1J 3333  10.675  12.989   4.220
    1STR    H1K 3334  10.902  12.901   4.211
    1STR    H1M 3335  10.871  12.701   3.979
    1STR    H1N 3336  10.799  12.684   4.139
    1STR    H1O 3337  10.973  12.674   4.120
    1STR    H1P 3338  11.034  12.899   3.935
    1STR    H1Q 3339  11.028  13.038   4.041
    1STR    H1R 3340  11.283  12.892   3.953
    1STR    H1S 3341  11.399  13.098   4.044
    1STR    H1T 3342  11.287  13.099   4.179
    1STR    H1U 3343  11.229  13.128   4.015
    1STR    H1V 3344  11.374  12.734   4.128
    1STR    H1W 3345  11.390  12.867   4.240
    1STR    H1X 3346  11.708  12.887   3.976
    1STR    H1Y 3347  11.895  12.947   3.873
    1STR    H1Z 3348  12.126  13.023   3.876
    1STR    H20 3349  12.310  13.130   4.173
    1STR    H21 3350  12.362  13.003   4.060
    1STR    H22 3351  12.287  13.151   4.001
    1STR    H23 3352  12.114  13.012   4.415
    1STR    H27 3353  11.899  12.908   4.303
    1STR    H28 3354  10.065  13.081   3.920
    1STR    H29 3355   9.829  13.078   3.873
    1STR    H2A 3356   9.571  12.928   4.080
    1STR    H2B 3357   9.616  12.986   3.921
    1STR    H2C 3358   9.570  13.102   4.046
    1STR   BCK1 3359   9.602  13.047   8.846
    1STR    O03 3360   9.582  13.047   8.967
    1STR    N04 3361   9.708  13.108   8.788
    1STR    C05 3362   9.804  13.194   8.848
    1STR    C06 3363   9.945  13.179   8.824
    1STR    C07 3364  10.043  13.267   8.881
    1STR    N08 3365  10.182  13.254   8.853
    1STR    C09 3366  10.289  13.316   8.908
    1STR    O0A 3367  10.282  13.394   9.003
    1STR    O0B 3368  10.410  13.284   8.850
    1STR    C0C 3369  10.534  13.338   8.903
    1STR    C0D 3370  10.573  13.258   9.029
    1STR    C0E 3371  10.653  13.339   8.801
    1STR    O0F 3372  10.776  13.389   8.860
    1STR    C0G 3373  10.892  13.398   8.774
    1STR    C0H 3374  10.879  13.523   8.686
    1STR    C0I 3375  11.024  13.405   8.858
    1STR    O0J 3376  11.144  13.392   8.778
    1STR    C0K 3377  11.271  13.398   8.847
    1STR    C0M 3378  11.289  13.274   8.936
    1STR    C0N 3379  11.391  13.407   8.749
    1STR    O0O 3380  11.514  13.437   8.819
    1STR    C0P 3381  11.629  13.366   8.802
    1STR    O0Q 3382  11.643  13.265   8.734
    1STR    N0R 3383  11.726  13.426   8.872
    1STR    C0S 3384  11.863  13.402   8.897
    1STR    C0T 3385  11.928  13.504   8.968
    1STR    C0U 3386  12.063  13.492   9.004
    1STR    C0V 3387  12.138  13.378   8.970
    1STR    C0W 3388  12.283  13.379   9.014
    1STR    C0X 3389  12.078  13.271   8.897
    1STR    N0Y 3390  12.145  13.157   8.846
    1STR   BCK2 3391  12.258  13.083   8.852
    1STR    O10 3392  12.271  12.996   8.767
    1STR    C13 3393  11.939  13.287   8.862
    1STR    C14 3394   9.994  13.372   8.962
    1STR    C15 3395   9.856  13.391   8.983
    1STR    C16 3396   9.761  13.306   8.924
    1STR    C17 3397   9.615  13.343   8.941
    1STR    H1B 3398   9.716  13.093   8.689
    1STR    H1C 3399   9.978  13.097   8.763
    1STR    H1D 3400  10.210  13.189   8.782
    1STR    H1E 3401  10.517  13.442   8.933
    1STR    H1F 3402  10.592  13.154   9.007
    1STR    H1G 3403  10.663  13.300   9.075
    1STR    H1H 3404  10.494  13.263   9.105
    1STR    H1I 3405  10.624  13.401   8.716
    1STR    H1J 3406  10.669  13.239   8.763
    1STR    H1K 3407  10.897  13.308   8.712
    1STR    H1M 3408  10.866  13.613   8.746
    1STR    H1N 3409  10.794  13.516   8.618
    1STR    H1O 3410  10.968  13.536   8.624
    1STR    H1P 3411  11.026  13.498   8.915
    1STR    H1Q 3412  11.020  13.324   8.931
    1STR    H1R 3413  11.272  13.488   8.909
    1STR    H1S 3414  11.388  13.274   8.982
    1STR    H1T 3415  11.280  13.183   8.877
    1STR    H1U 3416  11.216  13.269   9.017
    1STR    H1V 3417  11.374  13.487   8.677
    1STR    H1W 3418  11.401  13.316   8.689
    1STR    H1X 3419  11.688  13.509   8.914
    1STR    H1Y 3420  11.877  13.595   8.995
    1STR    H1Z 3421  12.109  13.573   9.058
    1STR    H20 3422  12.297  13.306   9.093
    1STR    H21 3423  12.348  13.358   8.929
    1STR    H22 3424  12.313  13.476   9.054
    1STR    H23 3425  12.089  13.111   8.775
    1STR    H27 3426  11.889  13.209   8.806
    1STR    H28 3427  10.059  13.444   9.009
    1STR    H29 3428   9.824  13.474   9.044
    1STR    H2A 3429   9.557  13.319   8.852
    1STR    H2B 3430   9.603  13.449   8.960
    1STR    H2C 3431   9.572  13.289   9.026
    1STR   BCK1 3432   9.586  12.994  13.148
    1STR    O03 3433   9.539  13.100  13.108
    1STR    N04 3434   9.716  12.969  13.121
    1STR    C05 3435   9.808  12.862  13.126
    1STR    C06 3436   9.947  12.893  13.141
    1STR    C07 3437  10.051  12.796  13.131
    1STR    N08 3438  10.188  12.831  13.142
    1STR    C09 3439  10.299  12.754  13.135
    1STR    O0A 3440  10.298  12.633  13.119
    1STR    O0B 3441  10.416  12.826  13.146
    1STR    C0C 3442  10.543  12.758  13.131
    1STR    C0D 3443  10.574  12.739  12.981
    1STR    C0E 3444  10.660  12.830  13.203
    1STR    O0F 3445  10.782  12.754  13.193
    1STR    C0G 3446  10.897  12.805  13.263
    1STR    C0H 3447  10.882  12.773  13.413
    1STR    C0I 3448  11.028  12.742  13.207
    1STR    O0J 3449  11.146  12.803  13.264
    1STR    C0K 3450  11.273  12.750  13.223
    1STR    C0M 3451  11.301  12.787  13.076
    1STR    C0N 3452  11.387  12.806  13.313
    1STR    O0O 3453  11.511  12.738  13.288
    1STR    C0P 3454  11.630  12.804  13.280
    1STR    O0Q 3455  11.645  12.925  13.286
    1STR    N0R 3456  11.728  12.715  13.261
    1STR    C0S 3457  11.865  12.726  13.232
    1STR    C0T 3458  11.927  12.610  13.182
    1STR    C0U 3459  12.060  12.613  13.137
    1STR    C0V 3460  12.136  12.731  13.142
    1STR    C0W 3461  12.269  12.730  13.069
    1STR    C0X 3462  12.082  12.846  13.205
    1STR    N0Y 3463  12.153  12.967  13.214
    1STR   BCK2 3464  12.279  13.004  13.245
    1STR    O10 3465  12.309  13.122  13.235
    1STR    C13 3466  11.945  12.844  13.245
    1STR    C14 3467  10.010  12.663  13.107
    1STR    C15 3468   9.875  12.629  13.092
    1STR    C16 3469   9.774  12.727  13.098
    1STR    C17 3470   9.634  12.679  13.065
    1STR    H1B 3471   9.755  13.055  13.085
    1STR    H1C 3472   9.975  12.996  13.159
    1STR    H1D 3473  10.210  12.928  13.156
    1STR    H1E 3474  10.535  12.659  13.177
    1STR    H1F 3475  10.585  12.834  12.930
    1STR    H1G 3476  10.667  12.683  12.968
    1STR    H1H 3477  10.495  12.683  12.931
    1STR    H1I 3478  10.633  12.843  13.308
    1STR    H1J 3479  10.675  12.929  13.161
    1STR    H1K 3480  10.904  12.913  13.248
    1STR    H1M 3481  10.868  12.666  13.429
    1STR    H1N 3482  10.798  12.825  13.458
    1STR    H1O 3483  10.971  12.804  13.468
    1STR    H1P 3484  11.028  12.634  13.226
    1STR    H1Q 3485  11.028  12.755  13.099
    1STR    H1R 3486  11.272  12.642  13.234
    1STR    H1S 3487  11.401  12.756  13.046
    1STR    H1T 3488  11.295  12.895  13.062
    1STR    H1U 3489  11.231  12.740  13.007
    1STR    H1V 3490  11.362  12.792  13.418
    1STR    H1W 3491  11.397  12.914  13.299
    1STR    H1X 3492  11.690  12.622  13.262
    1STR    H1Y 3493  11.872  12.518  13.173
    1STR    H1Z 3494  12.102  12.524  13.093
    1STR    H20 3495  12.298  12.830  13.037
    1STR    H21 3496  12.348  12.689  13.131
    1STR    H22 3497  12.263  12.669  12.979
    1STR    H23 3498  12.098  13.050  13.196
    1STR    H27 3499  11.899  12.933  13.286
    1STR    H28 3500  10.079  12.581  13.097
    1STR    H29 3501   9.850  12.526  13.071
    1STR    H2A 3502   9.582  12.652  13.157
    1STR    H2B 3503   9.637  12.589  13.003
    1STR    H2C 3504   9.578  12.754  13.009
    1STR   BCK1 3505  13.953  17.430  17.432
    1STR    O03 3506  13.904   0.097   0.027
    1STR    N04 3507  14.075  17.417  17.373
    1STR    C05 3508  14.165   0.073  17.320
    1STR    C06 3509  14.307   0.055  17.332
    1STR    C07 3510  14.402   0.144  17.271
    1STR    N08 3511  14.543   0.121  17.278
    1STR    C09 3512  14.647   0.184  17.217
    1STR    O0A 3513  14.634   0.278  17.140
    1STR    O0B 3514  14.771   0.131  17.248
    1STR    C0C 3515  14.893   0.195  17.198
    1STR    C0D 3516  14.926   0.317  17.286
    1STR    C0E 3517  15.016   0.098  17.190
    1STR    O0F 3518  15.137   0.164  17.146
    1STR    C0G 3519  15.255   0.081  17.129
    1STR    C0H 3520  15.242   0.004  16.996
    1STR    C0I 3521  15.387   0.164  17.131
    1STR    O0J 3522  15.506   0.081  17.138
    1STR    C0K 3523  15.635   0.147  17.139
    1STR    C0M 3524  15.652   0.228  17.269
    1STR    C0N 3525  15.752   0.044  17.129
    1STR    O0O 3526  15.881   0.108  17.117
    1STR    C0P 3527  15.991   0.067  17.187
    1STR    O0Q 3528  15.993  17.422  17.275
    1STR    N0R 3529  16.098   0.135  17.144
    1STR    C0S 3530  16.235   0.143  17.179
    1STR    C0T 3531  16.309   0.232  17.099
    1STR    C0U 3532  16.443   0.262  17.129
    1STR    C0V 3533  16.508   0.202  17.238
    1STR    C0W 3534  16.646   0.255  17.272
    1STR    C0X 3535  16.441   0.102  17.314
    1STR    N0Y 3536  16.509   0.039  17.421
    1STR   BCK2 3537  16.633  17.424  17.420
    1STR    O10 3538  16.700  17.410  17.318
    1STR    C13 3539  16.303   0.076  17.286
    1STR    C14 3540  14.349   0.254  17.201
    1STR    C15 3541  14.211   0.272  17.186
    1STR    C16 3542  14.119   0.182  17.241
    1STR    C17 3543  13.973   0.203  17.205
    1STR    H1B 3544  14.103  17.321  17.365
    1STR    H1C 3545  14.344  17.411  17.388
    1STR    H1D 3546  14.575   0.046  17.337
    1STR    H1E 3547  14.874   0.230  17.096
    1STR    H1F 3548  14.946   0.288  17.389
    1STR    H1G 3549  15.014   0.369  17.248
    1STR    H1H 3550  14.843   0.388  17.287
    1STR    H1I 3551  14.990   0.017  17.122
    1STR    H1J 3552  15.033   0.053  17.288
    1STR    H1K 3553  15.260   0.010  17.212
    1STR    H1M 3554  15.230   0.073  16.912
    1STR    H1N 3555  15.158  17.375  16.995
    1STR    H1O 3556  15.332  17.386  16.977
    1STR    H1P 3557  15.392   0.229  17.043
    1STR    H1Q 3558  15.383   0.230  17.218
    1STR    H1R 3559  15.641   0.214  17.053
    1STR    H1S 3560  15.752   0.272  17.274
    1STR    H1T 3561  15.640   0.164  17.356
    1STR    H1U 3562  15.581   0.310  17.277
    1STR    H1V 3563  15.739  17.422  17.039
    1STR    H1W 3564  15.750  17.415  17.213
    1STR    H1X 3565  16.069   0.194  17.068
    1STR    H1Y 3566  16.264   0.283  17.015
    1STR    H1Z 3567  16.495   0.334  17.068
    1STR    H20 3568  16.666   0.249  17.379
    1STR    H21 3569  16.723   0.198  17.219
    1STR    H22 3570  16.657   0.359  17.244
    1STR    H23 3571  16.461   0.033   0.069
    1STR    H27 3572  16.248   0.005  17.345
    1STR    H28 3573  14.412   0.329  17.154
    1STR    H29 3574  14.176   0.357  17.128
    1STR    H2A 3575  13.920   0.109  17.195
    1STR    H2B 3576  13.963   0.255  17.110
    1STR    H2C 3577  13.924   0.264  17.281
    1STR   BCK1 3578  13.943  17.319   4.475
    1STR    O03 3579  13.911  17.238   4.561
    1STR    N04 3580  14.057  17.392   4.475
    1STR    C05 3581  14.158  17.402   4.574
    1STR    C06 3582  14.297  17.409   4.538
    1STR    C07 3583  14.402  17.423   4.636
    1STR    N08 3584  14.539  17.436   4.599
    1STR    C09 3585  14.650  17.430   4.677
    1STR    O0A 3586  14.649  17.400   4.796
    1STR    O0B 3587  14.768   0.019   4.610
    1STR    C0C 3588  14.895   0.010   4.680
    1STR    C0D 3589  14.936  17.301   4.690
    1STR    C0E 3590  15.011   0.093   4.617
    1STR    O0F 3591  15.134   0.078   4.691
    1STR    C0G 3592  15.249   0.153   4.645
    1STR    C0H 3593  15.235   0.299   4.690
    1STR    C0I 3594  15.382   0.092   4.700
    1STR    O0J 3595  15.499   0.152   4.641
    1STR    C0K 3596  15.628   0.107   4.690
    1STR    C0M 3597  15.653  17.401   4.647
    1STR    C0N 3598  15.744   0.196   4.637
    1STR    O0O 3599  15.866   0.168   4.708
    1STR    C0P 3600  15.984   0.139   4.647
    1STR    O0Q 3601  16.003   0.129   4.526
    1STR    N0R 3602  16.075   0.120   4.742
    1STR    C0S 3603  16.209   0.077   4.748
    1STR    C0T 3604  16.253   0.045   4.877
    1STR    C0U 3605  16.382  17.438   4.899
    1STR    C0V 3606  16.475  17.426   4.795
    1STR    C0W 3607  16.610  17.374   4.836
    1STR    C0X 3608  16.438   0.022   4.661
    1STR    N0Y 3609  16.526   0.033   4.551
    1STR   BCK2 3610  16.650   0.001   4.507
    1STR    O10 3611  16.691   0.059   4.407
    1STR    C13 3612  16.303   0.066   4.641
    1STR    C14 3613  14.361  17.429   4.771
    1STR    C15 3614  14.226  17.427   4.808
    1STR    C16 3615  14.124  17.418   4.711
    1STR    C17 3616  13.982  17.435   4.761
    1STR    H1B 3617  14.069   0.009   4.393
    1STR    H1C 3618  14.324  17.402   4.434
    1STR    H1D 3619  14.561   0.014   4.503
    1STR    H1E 3620  14.881   0.048   4.781
    1STR    H1F 3621  14.952  17.258   4.592
    1STR    H1G 3622  15.028  17.290   4.747
    1STR    H1H 3623  14.859  17.243   4.741
    1STR    H1I 3624  14.981   0.198   4.615
    1STR    H1J 3625  15.026   0.063   4.513
    1STR    H1K 3626  15.254   0.149   4.536
    1STR    H1M 3627  15.223   0.306   4.798
    1STR    H1N 3628  15.149   0.349   4.644
    1STR    H1O 3629  15.323   0.357   4.663
    1STR    H1P 3630  15.384   0.103   4.809
    1STR    H1Q 3631  15.381  17.425   4.680
    1STR    H1R 3632  15.628   0.114   4.799
    1STR    H1S 3633  15.753  17.369   4.677
    1STR    H1T 3634  15.646  17.391   4.539
    1STR    H1U 3635  15.583  17.331   4.693
    1STR    H1V 3636  15.720   0.301   4.653
    1STR    H1W 3637  15.757   0.184   4.529
    1STR    H1X 3638  16.031   0.137   4.831
    1STR    H1Y 3639  16.187   0.054   4.962
    1STR    H1Z 3640  16.411  17.413   5.000
    1STR    H20 3641  16.626  17.276   4.792
    1STR    H21 3642  16.688   0.004   4.807
    1STR    H22 3643  16.619  17.360   4.944
    1STR    H23 3644  16.486   0.087   4.476
    1STR    H27 3645  16.269   0.094   4.542
    1STR    H28 3646  14.432  -0.000   4.852
    1STR    H29 3647  14.200  17.435   4.912
    1STR    H2A 3648  13.920   0.045   4.687
    1STR    H2B 3649  13.979   0.054   4.852
    1STR    H2C 3650  13.938  17.338   4.784
    1STR   BCK1 3651  13.955  17.325   8.729
    1STR    O03 3652  13.913  17.403   8.644
    1STR    N04 3653  14.077  17.267   8.725
    1STR    C05 3654  14.171  17.261   8.621
    1STR    C06 3655  14.311  17.275   8.647
    1STR    C07 3656  14.411  17.254   8.547
    1STR    N08 3657  14.550  17.263   8.576
    1STR    C09 3658  14.655  17.211   8.508
    1STR    O0A 3659  14.645  17.142   8.407
    1STR    O0B 3660  14.776  17.244   8.564
    1STR    C0C 3661  14.900  17.206   8.498
    1STR    C0D 3662  14.931  17.309   8.388
    1STR    C0E 3663  15.020  17.192   8.596
    1STR    O0F 3664  15.142  17.154   8.528
    1STR    C0G 3665  15.257  17.129   8.612
    1STR    C0H 3666  15.243  16.991   8.678
    1STR    C0I 3667  15.389  17.136   8.529
    1STR    O0J 3668  15.507  17.130   8.613
    1STR    C0K 3669  15.635  17.133   8.548
    1STR    C0M 3670  15.659  17.271   8.485
    1STR    C0N 3671  15.750  17.102   8.649
    1STR    O0O 3672  15.878  17.089   8.584
    1STR    C0P 3673  15.993  17.136   8.640
    1STR    O0Q 3674  16.001  17.201   8.743
    1STR    N0R 3675  16.097  17.102   8.563
    1STR    C0S 3676  16.235  17.131   8.565
    1STR    C0T 3677  16.309  17.084   8.454
    1STR    C0U 3678  16.445  17.117   8.439
    1STR    C0V 3679  16.512  17.197   8.534
    1STR    C0W 3680  16.652  17.245   8.498
    1STR    C0X 3681  16.444  17.239   8.651
    1STR    N0Y 3682  16.501  17.328   8.744
    1STR   BCK2 3683  16.620  17.350   8.803
    1STR    O10 3684  16.634   0.014   8.866
    1STR    C13 3685  16.305  17.206   8.664
    1STR    C14 3686  14.365  17.223   8.417
    1STR    C15 3687  14.229  17.207   8.389
    1STR    C16 3688  14.132  17.222   8.490
    1STR    C17 3689  13.988  17.187   8.454
    1STR    H1B 3690  14.098  17.214   8.808
    1STR    H1C 3691  14.342  17.301   8.747
    1STR    H1D 3692  14.577  17.312   8.659
    1STR    H1E 3693  14.886  17.109   8.450
    1STR    H1F 3694  14.946  17.409   8.429
    1STR    H1G 3695  15.021  17.282   8.333
    1STR    H1H 3696  14.849  17.315   8.315
    1STR    H1I 3697  14.993  17.118   8.671
    1STR    H1J 3698  15.035  17.286   8.649
    1STR    H1K 3699  15.263  17.207   8.688
    1STR    H1M 3700  15.229  16.913   8.603
    1STR    H1N 3701  15.158  16.987   8.746
    1STR    H1O 3702  15.332  16.967   8.735
    1STR    H1P 3703  15.391  17.055   8.455
    1STR    H1Q 3704  15.389  17.229   8.472
    1STR    H1R 3705  15.638  17.056   8.470
    1STR    H1S 3706  15.760  17.278   8.443
    1STR    H1T 3707  15.650  17.350   8.560
    1STR    H1U 3708  15.590  17.293   8.404
    1STR    H1V 3709  15.730  17.008   8.701
    1STR    H1W 3710  15.753  17.179   8.727
    1STR    H1X 3711  16.065  17.046   8.486
    1STR    H1Y 3712  16.262  17.026   8.377
    1STR    H1Z 3713  16.497  17.084   8.350
    1STR    H20 3714  16.669  17.346   8.533
    1STR    H21 3715  16.727  17.178   8.540
    1STR    H22 3716  16.666  17.246   8.390
    1STR    H23 3717  16.437  17.399   8.776
    1STR    H27 3718  16.250  17.242   8.750
    1STR    H28 3719  14.434  17.209   8.335
    1STR    H29 3720  14.199  17.179   8.289
    1STR    H2A 3721  13.937  17.140   8.538
    1STR    H2B 3722  13.984  17.118   8.370
    1STR    H2C 3723  13.934  17.278   8.427
    1STR   BCK1 3724  13.953   0.011  13.165
    1STR    O03 3725  13.909   0.077  13.258
    1STR    N04 3726  14.071   0.034  13.103
    1STR    C05 3727  14.163   0.142  13.115
    1STR    C06 3728  14.305   0.121  13.107
    1STR    C07 3729  14.402   0.227  13.112
    1STR    N08 3730  14.542   0.205  13.097
    1STR    C09 3731  14.647   0.290  13.109
    1STR    O0A 3732  14.637   0.407  13.144
    1STR    O0B 3733  14.770   0.234  13.078
    1STR    C0C 3734  14.893   0.311  13.094
    1STR    C0D 3735  14.930   0.316  13.243
    1STR    C0E 3736  15.014   0.259  13.009
    1STR    O0F 3737  15.136   0.334  13.033
    1STR    C0G 3738  15.253   0.297  12.957
    1STR    C0H 3739  15.241   0.354  12.815
    1STR    C0I 3740  15.385   0.347  13.024
    1STR    O0J 3741  15.506   0.294  12.964
    1STR    C0K 3742  15.633   0.335  13.022
    1STR    C0M 3743  15.648   0.277  13.163
    1STR    C0N 3744  15.755   0.289  12.936
    1STR    O0O 3745  15.879   0.345  12.986
    1STR    C0P 3746  15.993   0.271  13.003
    1STR    O0Q 3747  16.003   0.150  12.987
    1STR    N0R 3748  16.093   0.352  13.038
    1STR    C0S 3749  16.230   0.336  13.070
    1STR    C0T 3750  16.303   0.455  13.085
    1STR    C0U 3751  16.439   0.452  13.118
    1STR    C0V 3752  16.508   0.331  13.137
    1STR    C0W 3753  16.656   0.343  13.166
    1STR    C0X 3754  16.439   0.207  13.124
    1STR    N0Y 3755  16.499   0.079  13.127
    1STR   BCK2 3756  16.609   0.010  13.165
    1STR    O10 3757  16.618  17.336  13.121
    1STR    C13 3758  16.300   0.213  13.090
    1STR    C14 3759  14.350   0.358  13.127
    1STR    C15 3760  14.212   0.382  13.133
    1STR    C16 3761  14.118   0.277  13.122
    1STR    C17 3762  13.972   0.318  13.112
    1STR    H1B 3763  14.096  17.402  13.037
    1STR    H1C 3764  14.341   0.020  13.097
    1STR    H1D 3765  14.572   0.112  13.074
    1STR    H1E 3766  14.873   0.413  13.061
    1STR    H1F 3767  14.951   0.216  13.282
    1STR    H1G 3768  15.019   0.377  13.259
    1STR    H1H 3769  14.850   0.359  13.303
    1STR    H1I 3770  14.986   0.265  12.904
    1STR    H1J 3771  15.031   0.154  13.031
    1STR    H1K 3772  15.259   0.188  12.952
    1STR    H1M 3773  15.228   0.463  12.817
    1STR    H1N 3774  15.156   0.312  12.760
    1STR    H1O 3775  15.330   0.333  12.756
    1STR    H1P 3776  15.388   0.457  13.022
    1STR    H1Q 3777  15.381   0.319  13.129
    1STR    H1R 3778  15.635   0.444  13.026
    1STR    H1S 3779  15.746   0.301  13.204
    1STR    H1T 3780  15.638   0.169  13.162
    1STR    H1U 3781  15.575   0.317  13.233
    1STR    H1V 3782  15.743   0.323  12.833
    1STR    H1W 3783  15.760   0.180  12.932
    1STR    H1X 3784  16.059   0.447  13.040
    1STR    H1Y 3785  16.256   0.551  13.070
    1STR    H1Z 3786  16.491   0.546  13.127
    1STR    H20 3787  16.674   0.320  13.271
    1STR    H21 3788  16.713   0.276  13.102
    1STR    H22 3789  16.694   0.443  13.149
    1STR    H23 3790  16.441   0.010  13.082
    1STR    H27 3791  16.244   0.121  13.077
    1STR    H28 3792  14.413   0.445  13.133
    1STR    H29 3793  14.177   0.484  13.141
    1STR    H2A 3794  13.916   0.249  13.049
    1STR    H2B 3795  13.962   0.417  13.068
    1STR    H2C 3796  13.927   0.321  13.211
    1STR   BCK1 3797  13.943   4.287   0.068
    1STR    O03 3798  13.907   4.357  17.414
    1STR    N04 3799  14.075   4.258   0.075
    1STR    C05 3800  14.167   4.177   0.146
    1STR    C06 3801  14.305   4.215   0.139
    1STR    C07 3802  14.411   4.137   0.194
    1STR    N08 3803  14.547   4.175   0.182
    1STR    C09 3804  14.660   4.106   0.210
    1STR    O0A 3805  14.662   3.990   0.251
    1STR    O0B 3806  14.776   4.177   0.188
    1STR    C0C 3807  14.904   4.114   0.212
    1STR    C0D 3808  14.938   4.020   0.095
    1STR    C0E 3809  15.019   4.215   0.237
    1STR    O0F 3810  15.142   4.147   0.268
    1STR    C0G 3811  15.256   4.228   0.301
    1STR    C0H 3812  15.241   4.281   0.444
    1STR    C0I 3813  15.387   4.145   0.287
    1STR    O0J 3814  15.505   4.227   0.303
    1STR    C0K 3815  15.632   4.160   0.298
    1STR    C0M 3816  15.661   4.111   0.155
    1STR    C0N 3817  15.747   4.255   0.345
    1STR    O0O 3818  15.868   4.183   0.367
    1STR    C0P 3819  15.988   4.224   0.318
    1STR    O0Q 3820  16.007   4.323   0.248
    1STR    N0R 3821  16.083   4.138   0.356
    1STR    C0S 3822  16.218   4.121   0.322
    1STR    C0T 3823  16.270   3.991   0.340
    1STR    C0U 3824  16.399   3.958   0.296
    1STR    C0V 3825  16.482   4.055   0.237
    1STR    C0W 3826  16.608   4.005   0.169
    1STR    C0X 3827  16.440   4.191   0.232
    1STR    N0Y 3828  16.520   4.293   0.178
    1STR   BCK2 3829  16.650   4.328   0.188
    1STR    O10 3830  16.689   4.423   0.120
    1STR    C13 3831  16.305   4.221   0.270
    1STR    C14 3832  14.374   4.019   0.262
    1STR    C15 3833  14.240   3.978   0.269
    1STR    C16 3834  14.137   4.053   0.210
    1STR    C17 3835  14.000   3.990   0.216
    1STR    H1B 3836  14.118   4.315   0.005
    1STR    H1C 3837  14.331   4.306   0.088
    1STR    H1D 3838  14.567   4.267   0.145
    1STR    H1E 3839  14.896   4.054   0.303
    1STR    H1F 3840  14.949   4.075   0.001
    1STR    H1G 3841  15.032   3.967   0.114
    1STR    H1H 3842  14.861   3.944   0.081
    1STR    H1I 3843  14.990   4.281   0.318
    1STR    H1J 3844  15.033   4.278   0.149
    1STR    H1K 3845  15.263   4.311   0.231
    1STR    H1M 3846  15.227   4.199   0.515
    1STR    H1N 3847  15.156   4.348   0.455
    1STR    H1O 3848  15.330   4.336   0.475
    1STR    H1P 3849  15.387   4.064   0.360
    1STR    H1Q 3850  15.388   4.098   0.189
    1STR    H1R 3851  15.630   4.075   0.366
    1STR    H1S 3852  15.761   4.069   0.148
    1STR    H1T 3853  15.656   4.194   0.084
    1STR    H1U 3854  15.591   4.034   0.122
    1STR    H1V 3855  15.719   4.302   0.439
    1STR    H1W 3856  15.760   4.337   0.273
    1STR    H1X 3857  16.042   4.067   0.415
    1STR    H1Y 3858  16.209   3.913   0.382
    1STR    H1Z 3859  16.433   3.856   0.304
    1STR    H20 3860  16.643   4.073   0.092
    1STR    H21 3861  16.688   3.989   0.242
    1STR    H22 3862  16.589   3.910   0.119
    1STR    H23 3863  16.471   4.360   0.122
    1STR    H27 3864  16.268   4.322   0.259
    1STR    H28 3865  14.445   3.953   0.309
    1STR    H29 3866  14.217   3.886   0.320
    1STR    H2A 3867  13.943   4.035   0.298
    1STR    H2B 3868  14.005   3.884   0.237
    1STR    H2C 3869  13.948   4.001   0.121
    1STR   BCK1 3870  13.956   4.302   4.330
    1STR    O03 3871  13.906   4.414   4.320
    1STR    N04 3872  14.078   4.267   4.283
    1STR    C05 3873  14.168   4.335   4.198
    1STR    C06 3874  14.310   4.326   4.220
    1STR    C07 3875  14.406   4.382   4.129
    1STR    N08 3876  14.546   4.367   4.150
    1STR    C09 3877  14.650   4.388   4.065
    1STR    O0A 3878  14.637   4.425   3.948
    1STR    O0B 3879  14.774   4.364   4.121
    1STR    C0C 3880  14.895   4.393   4.047
    1STR    C0D 3881  14.927   4.543   4.057
    1STR    C0E 3882  15.018   4.307   4.093
    1STR    O0F 3883  15.140   4.339   4.021
    1STR    C0G 3884  15.256   4.259   4.052
    1STR    C0H 3885  15.243   4.123   3.981
    1STR    C0I 3886  15.389   4.329   4.009
    1STR    O0J 3887  15.506   4.261   4.059
    1STR    C0K 3888  15.636   4.315   4.025
    1STR    C0M 3889  15.656   4.452   4.091
    1STR    C0N 3890  15.751   4.219   4.070
    1STR    O0O 3891  15.880   4.264   4.026
    1STR    C0P 3892  15.992   4.257   4.104
    1STR    O0Q 3893  15.995   4.224   4.222
    1STR    N0R 3894  16.098   4.296   4.033
    1STR    C0S 3895  16.235   4.319   4.059
    1STR    C0T 3896  16.306   4.375   3.952
    1STR    C0U 3897  16.439   4.416   3.966
    1STR    C0V 3898  16.506   4.401   4.088
    1STR    C0W 3899  16.643   4.467   4.099
    1STR    C0X 3900  16.444   4.333   4.197
    1STR    N0Y 3901  16.514   4.310   4.317
    1STR   BCK2 3902  16.640   4.263   4.334
    1STR    O10 3903  16.711   4.225   4.242
    1STR    C13 3904  16.306   4.297   4.182
    1STR    C14 3905  14.355   4.453   4.018
    1STR    C15 3906  14.217   4.461   3.994
    1STR    C16 3907  14.124   4.401   4.081
    1STR    C17 3908  13.978   4.403   4.037
    1STR    H1B 3909  14.105   4.175   4.313
    1STR    H1C 3910  14.345   4.274   4.307
    1STR    H1D 3911  14.577   4.335   4.239
    1STR    H1E 3912  14.878   4.369   3.941
    1STR    H1F 3913  14.945   4.573   4.161
    1STR    H1G 3914  15.015   4.569   3.999
    1STR    H1H 3915  14.844   4.603   4.019
    1STR    H1I 3916  14.992   4.202   4.080
    1STR    H1J 3917  15.034   4.322   4.200
    1STR    H1K 3918  15.261   4.244   4.160
    1STR    H1M 3919  15.230   4.136   3.873
    1STR    H1N 3920  15.159   4.065   4.018
    1STR    H1O 3921  15.333   4.063   3.996
    1STR    H1P 3922  15.393   4.337   3.900
    1STR    H1Q 3923  15.386   4.431   4.047
    1STR    H1R 3924  15.642   4.325   3.916
    1STR    H1S 3925  15.756   4.490   4.072
    1STR    H1T 3926  15.644   4.445   4.199
    1STR    H1U 3927  15.586   4.527   4.054
    1STR    H1V 3928  15.735   4.120   4.028
    1STR    H1W 3929  15.749   4.206   4.178
    1STR    H1X 3930  16.068   4.314   3.939
    1STR    H1Y 3931  16.259   4.390   3.856
    1STR    H1Z 3932  16.489   4.462   3.882
    1STR    H20 3933  16.666   4.496   4.201
    1STR    H21 3934  16.721   4.399   4.063
    1STR    H22 3935  16.648   4.557   4.038
    1STR    H23 3936  16.464   4.327   4.403
    1STR    H27 3937  16.253   4.251   4.264
    1STR    H28 3938  14.419   4.502   3.947
    1STR    H29 3939  14.183   4.513   3.906
    1STR    H2A 3940  13.926   4.312   4.066
    1STR    H2B 3941  13.970   4.411   3.928
    1STR    H2C 3942  13.927   4.489   4.081
    1STR   BCK1 3943  13.961   4.289   8.856
    1STR    O03 3944  13.950   4.249   8.971
    1STR    N04 3945  14.063   4.368   8.814
    1STR    C05 3946  14.162   4.430   8.894
    1STR    C06 3947  14.302   4.422   8.863
    1STR    C07 3948  14.402   4.487   8.943
    1STR    N08 3949  14.541   4.482   8.911
    1STR    C09 3950  14.650   4.519   8.983
    1STR    O0A 3951  14.644   4.559   9.099
    1STR    O0B 3952  14.770   4.509   8.915
    1STR    C0C 3953  14.895   4.540   8.982
    1STR    C0D 3954  14.934   4.421   9.072
    1STR    C0E 3955  15.013   4.576   8.886
    1STR    O0F 3956  15.136   4.603   8.958
    1STR    C0G 3957  15.252   4.641   8.880
    1STR    C0H 3958  15.238   4.789   8.839
    1STR    C0I 3959  15.383   4.619   8.961
    1STR    O0J 3960  15.503   4.635   8.881
    1STR    C0K 3961  15.630   4.617   8.948
    1STR    C0M 3962  15.649   4.470   8.989
    1STR    C0N 3963  15.751   4.660   8.860
    1STR    O0O 3964  15.872   4.664   8.938
    1STR    C0P 3965  15.990   4.607   8.897
    1STR    O0Q 3966  16.007   4.541   8.796
    1STR    N0R 3967  16.083   4.635   8.988
    1STR    C0S 3968  16.220   4.606   9.007
    1STR    C0T 3969  16.278   4.669   9.119
    1STR    C0U 3970  16.413   4.650   9.150
    1STR    C0V 3971  16.496   4.570   9.070
    1STR    C0W 3972  16.642   4.568   9.110
    1STR    C0X 3973  16.443   4.503   8.956
    1STR    N0Y 3974  16.521   4.433   8.862
    1STR   BCK2 3975  16.638   4.367   8.847
    1STR    O10 3976  16.673   4.343   8.732
    1STR    C13 3977  16.304   4.524   8.927
    1STR    C14 3978  14.356   4.560   9.055
    1STR    C15 3979  14.220   4.572   9.084
    1STR    C16 3980  14.122   4.512   9.003
    1STR    C17 3981  13.977   4.542   9.034
    1STR    H1B 3982  14.063   4.389   8.715
    1STR    H1C 3983  14.332   4.364   8.778
    1STR    H1D 3984  14.567   4.445   8.821
    1STR    H1E 3985  14.878   4.627   9.046
    1STR    H1F 3986  14.952   4.331   9.014
    1STR    H1G 3987  15.025   4.444   9.128
    1STR    H1H 3988  14.857   4.399   9.146
    1STR    H1I 3989  14.984   4.664   8.828
    1STR    H1J 3990  15.029   4.495   8.815
    1STR    H1K 3991  15.257   4.578   8.791
    1STR    H1M 3992  15.226   4.853   8.927
    1STR    H1N 3993  15.153   4.806   8.773
    1STR    H1O 3994  15.327   4.822   8.786
    1STR    H1P 3995  15.386   4.687   9.046
    1STR    H1Q 3996  15.380   4.518   9.002
    1STR    H1R 3997  15.631   4.680   9.037
    1STR    H1S 3998  15.748   4.454   9.032
    1STR    H1T 3999  15.641   4.405   8.902
    1STR    H1U 4000  15.576   4.437   9.063
    1STR    H1V 4001  15.735   4.760   8.820
    1STR    H1W 4002  15.762   4.594   8.773
    1STR    H1X 4003  16.041   4.693   9.058
    1STR    H1Y 4004  16.219   4.733   9.183
    1STR    H1Z 4005  16.453   4.701   9.236
    1STR    H20 4006  16.664   4.476   9.164
    1STR    H21 4007  16.706   4.578   9.022
    1STR    H22 4008  16.668   4.650   9.177
    1STR    H23 4009  16.478   4.431   8.771
    1STR    H27 4010  16.260   4.477   8.840
    1STR    H28 4011  14.423   4.612   9.121
    1STR    H29 4012  14.190   4.632   9.169
    1STR    H2A 4013  13.918   4.552   8.943
    1STR    H2B 4014  13.967   4.636   9.089
    1STR    H2C 4015  13.933   4.463   9.095
    1STR   BCK1 4016  13.952   4.245  13.121
    1STR    O03 4017  13.923   4.272  13.005
    1STR    N04 4018  14.071   4.194  13.159
    1STR    C05 4019  14.171   4.136  13.079
    1STR    C06 4020  14.309   4.166  13.097
    1STR    C07 4021  14.412   4.097  13.026
    1STR    N08 4022  14.549   4.124  13.049
    1STR    C09 4023  14.657   4.047  13.022
    1STR    O0A 4024  14.649   3.933  12.976
    1STR    O0B 4025  14.776   4.107  13.052
    1STR    C0C 4026  14.901   4.042  13.016
    1STR    C0D 4027  14.933   4.071  12.869
    1STR    C0E 4028  15.019   4.084  13.108
    1STR    O0F 4029  15.141   4.015  13.073
    1STR    C0G 4030  15.256   4.039  13.156
    1STR    C0H 4031  15.241   3.958  13.286
    1STR    C0I 4032  15.387   3.999  13.082
    1STR    O0J 4033  15.505   4.037  13.157
    1STR    C0K 4034  15.633   4.003  13.100
    1STR    C0M 4035  15.659   4.088  12.975
    1STR    C0N 4036  15.747   4.026  13.203
    1STR    O0O 4037  15.873   3.974  13.155
    1STR    C0P 4038  15.990   4.040  13.175
    1STR    O0Q 4039  16.002   4.150  13.227
    1STR    N0R 4040  16.091   3.967  13.126
    1STR    C0S 4041  16.229   3.990  13.108
    1STR    C0T 4042  16.296   3.897  13.026
    1STR    C0U 4043  16.431   3.916  12.991
    1STR    C0V 4044  16.503   4.028  13.036
    1STR    C0W 4045  16.639   4.053  12.974
    1STR    C0X 4046  16.442   4.118  13.128
    1STR    N0Y 4047  16.506   4.234  13.175
    1STR   BCK2 4048  16.629   4.266  13.220
    1STR    O10 4049  16.653   4.383  13.244
    1STR    C13 4050  16.304   4.099  13.160
    1STR    C14 4051  14.371   4.001  12.931
    1STR    C15 4052  14.236   3.968  12.913
    1STR    C16 4053  14.136   4.032  12.989
    1STR    C17 4054  13.993   3.980  12.974
    1STR    H1B 4055  14.083   4.187  13.259
    1STR    H1C 4056  14.336   4.242  13.169
    1STR    H1D 4057  14.574   4.212  13.091
    1STR    H1E 4058  14.889   3.934  13.028
    1STR    H1F 4059  14.947   4.178  12.851
    1STR    H1G 4060  15.024   4.020  12.838
    1STR    H1H 4061  14.852   4.037  12.804
    1STR    H1I 4062  14.992   4.061  13.211
    1STR    H1J 4063  15.035   4.191  13.102
    1STR    H1K 4064  15.263   4.145  13.179
    1STR    H1M 4065  15.228   3.852  13.265
    1STR    H1N 4066  15.157   3.991  13.346
    1STR    H1O 4067  15.331   3.968  13.348
    1STR    H1P 4068  15.388   3.891  13.063
    1STR    H1Q 4069  15.388   4.048  12.985
    1STR    H1R 4070  15.633   3.897  13.073
    1STR    H1S 4071  15.760   4.070  12.936
    1STR    H1T 4072  15.653   4.194  12.998
    1STR    H1U 4073  15.590   4.066  12.894
    1STR    H1V 4074  15.724   3.975  13.296
    1STR    H1W 4075  15.755   4.132  13.228
    1STR    H1X 4076  16.055   3.880  13.091
    1STR    H1Y 4077  16.245   3.811  12.986
    1STR    H1Z 4078  16.478   3.847  12.923
    1STR    H20 4079  16.663   4.159  12.972
    1STR    H21 4080  16.717   4.000  13.028
    1STR    H22 4081  16.641   4.019  12.870
    1STR    H23 4082  16.447   4.315  13.179
    1STR    H27 4083  16.254   4.170  13.224
    1STR    H28 4084  14.443   3.948  12.870
    1STR    H29 4085  14.210   3.891  12.843
    1STR    H2A 4086  13.941   3.980  13.070
    1STR    H2B 4087  13.992   3.877  12.937
    1STR    H2C 4088  13.938   4.042  12.903
    1STR   BCK1 4089  13.953   8.730   0.023
    1STR    O03 4090  13.904   8.826   0.082
    1STR    N04 4091  14.073   8.731  17.400
    1STR    C05 4092  14.164   8.836  17.371
    1STR    C06 4093  14.306   8.816  17.375
    1STR    C07 4094  14.401   8.916  17.337
    1STR    N08 4095  14.542   8.892  17.336
    1STR    C09 4096  14.646   8.972  17.300
    1STR    O0A 4097  14.634   9.088  17.262
    1STR    O0B 4098  14.770   8.910  17.309
    1STR    C0C 4099  14.892   8.986  17.282
    1STR    C0D 4100  14.927   9.071  17.406
    1STR    C0E 4101  15.015   8.898  17.240
    1STR    O0F 4102  15.136   8.975  17.221
    1STR    C0G 4103  15.254   8.903  17.176
    1STR    C0H 4104  15.242   8.877  17.025
    1STR    C0I 4105  15.386   8.981  17.207
    1STR    O0J 4106  15.506   8.901  17.186
    1STR    C0K 4107  15.634   8.964  17.211
    1STR    C0M 4108  15.650   8.995  17.361
    1STR    C0N 4109  15.753   8.872  17.166
    1STR    O0O 4110  15.881   8.939  17.178
    1STR    C0P 4111  15.991   8.879  17.233
    1STR    O0Q 4112  15.993   8.772  17.292
    1STR    N0R 4113  16.098   8.958  17.213
    1STR    C0S 4114  16.234   8.956  17.249
    1STR    C0T 4115  16.309   9.061  17.192
    1STR    C0U 4116  16.443   9.081  17.227
    1STR    C0V 4117  16.508   8.997  17.319
    1STR    C0W 4118  16.648   9.037  17.363
    1STR    C0X 4119  16.441   8.883  17.371
    1STR    N0Y 4120  16.508   8.798   0.022
    1STR   BCK2 4121  16.630   8.742   0.008
    1STR    O10 4122  16.695   8.745  17.344
    1STR    C13 4123  16.302   8.866  17.337
    1STR    C14 4124  14.348   9.041  17.298
    1STR    C15 4125  14.210   9.063  17.291
    1STR    C16 4126  14.118   8.962  17.322
    1STR    C17 4127  13.971   8.993  17.295
    1STR    H1B 4128  14.101   8.639  17.370
    1STR    H1C 4129  14.343   8.720  17.408
    1STR    H1D 4130  14.574   8.801  17.366
    1STR    H1E 4131  14.872   9.054  17.199
    1STR    H1F 4132  14.948   9.009   0.052
    1STR    H1G 4133  15.015   9.133  17.387
    1STR    H1H 4134  14.845   9.139  17.432
    1STR    H1I 4135  14.989   8.845  17.148
    1STR    H1J 4136  15.032   8.822  17.316
    1STR    H1K 4137  15.260   8.808  17.230
    1STR    H1M 4138  15.229   8.970  16.970
    1STR    H1N 4139  15.158   8.812  17.001
    1STR    H1O 4140  15.332   8.828  16.987
    1STR    H1P 4141  15.390   9.072  17.147
    1STR    H1Q 4142  15.382   9.013  17.311
    1STR    H1R 4143  15.640   9.056  17.154
    1STR    H1S 4144  15.749   9.035  17.382
    1STR    H1T 4145  15.638   8.904  17.420
    1STR    H1U 4146  15.578   9.069  17.396
    1STR    H1V 4147  15.740   8.845  17.062
    1STR    H1W 4148  15.753   8.778  17.222
    1STR    H1X 4149  16.068   9.037  17.159
    1STR    H1Y 4150  16.265   9.130  17.122
    1STR    H1Z 4151  16.497   9.165  17.184
    1STR    H20 4152  16.666   9.010   0.027
    1STR    H21 4153  16.723   8.990  17.300
    1STR    H22 4154  16.662   9.145  17.356
    1STR    H23 4155  16.461   8.778   0.108
    1STR    H27 4156  16.246   8.783  17.379
    1STR    H28 4157  14.410   9.125  17.270
    1STR    H29 4158  14.175   9.159  17.256
    1STR    H2A 4159  13.917   8.904  17.263
    1STR    H2B 4160  13.961   9.066  17.215
    1STR    H2C 4161  13.924   9.034  17.384
    1STR   BCK1 4162  13.943   8.648   4.431
    1STR    O03 4163  13.899   8.720   4.343
    1STR    N04 4164  14.071   8.668   4.470
    1STR    C05 4165  14.165   8.624   4.566
    1STR    C06 4166  14.305   8.642   4.536
    1STR    C07 4167  14.410   8.613   4.629
    1STR    N08 4168  14.546   8.639   4.599
    1STR    C09 4169  14.658   8.603   4.665
    1STR    O0A 4170  14.659   8.531   4.764
    1STR    O0B 4171  14.774   8.655   4.611
    1STR    C0C 4172  14.902   8.620   4.669
    1STR    C0D 4173  14.942   8.478   4.622
    1STR    C0E 4174  15.016   8.721   4.636
    1STR    O0F 4175  15.140   8.682   4.700
    1STR    C0G 4176  15.254   8.769   4.683
    1STR    C0H 4177  15.239   8.890   4.775
    1STR    C0I 4178  15.386   8.693   4.714
    1STR    O0J 4179  15.503   8.771   4.681
    1STR    C0K 4180  15.631   8.713   4.712
    1STR    C0M 4181  15.660   8.592   4.621
    1STR    C0N 4182  15.745   8.818   4.696
    1STR    O0O 4183  15.866   8.774   4.758
    1STR    C0P 4184  15.985   8.768   4.693
    1STR    O0Q 4185  16.005   8.796   4.575
    1STR    N0R 4186  16.077   8.722   4.778
    1STR    C0S 4187  16.210   8.678   4.764
    1STR    C0T 4188  16.251   8.585   4.862
    1STR    C0U 4189  16.375   8.521   4.852
    1STR    C0V 4190  16.463   8.550   4.747
    1STR    C0W 4191  16.580   8.455   4.731
    1STR    C0X 4192  16.435   8.657   4.657
    1STR    N0Y 4193  16.523   8.704   4.557
    1STR   BCK2 4194  16.656   8.718   4.539
    1STR    O10 4195  16.694   8.770   4.435
    1STR    C13 4196  16.304   8.715   4.664
    1STR    C14 4197  14.370   8.562   4.755
    1STR    C15 4198  14.235   8.545   4.787
    1STR    C16 4199  14.132   8.579   4.697
    1STR    C17 4200  13.991   8.573   4.752
    1STR    H1B 4201  14.108   8.737   4.407
    1STR    H1C 4202  14.332   8.681   4.440
    1STR    H1D 4203  14.567   8.693   4.516
    1STR    H1E 4204  14.892   8.619   4.777
    1STR    H1F 4205  14.954   8.473   4.514
    1STR    H1G 4206  15.035   8.447   4.669
    1STR    H1H 4207  14.866   8.405   4.651
    1STR    H1I 4208  14.986   8.820   4.671
    1STR    H1J 4209  15.031   8.728   4.529
    1STR    H1K 4210  15.259   8.801   4.579
    1STR    H1M 4211  15.226   8.859   4.879
    1STR    H1N 4212  15.153   8.952   4.748
    1STR    H1O 4213  15.327   8.954   4.770
    1STR    H1P 4214  15.388   8.665   4.820
    1STR    H1Q 4215  15.386   8.600   4.658
    1STR    H1R 4216  15.630   8.681   4.817
    1STR    H1S 4217  15.760   8.554   4.639
    1STR    H1T 4218  15.654   8.621   4.516
    1STR    H1U 4219  15.591   8.510   4.638
    1STR    H1V 4220  15.715   8.911   4.746
    1STR    H1W 4221  15.760   8.844   4.591
    1STR    H1X 4222  16.035   8.710   4.868
    1STR    H1Y 4223  16.185   8.557   4.943
    1STR    H1Z 4224  16.400   8.444   4.924
    1STR    H20 4225  16.613   8.450   4.627
    1STR    H21 4226  16.662   8.482   4.796
    1STR    H22 4227  16.550   8.353   4.758
    1STR    H23 4228  16.476   8.746   4.479
    1STR    H27 4229  16.274   8.790   4.592
    1STR    H28 4230  14.441   8.537   4.832
    1STR    H29 4231  14.210   8.508   4.886
    1STR    H2A 4232  13.931   8.655   4.713
    1STR    H2B 4233  13.991   8.581   4.860
    1STR    H2C 4234  13.946   8.477   4.727
    1STR   BCK1 4235  13.957   8.619   8.707
    1STR    O03 4236  13.910   8.717   8.649
    1STR    N04 4237  14.079   8.567   8.683
    1STR    C05 4238  14.171   8.592   8.579
    1STR    C06 4239  14.312   8.597   8.606
    1STR    C07 4240  14.410   8.607   8.502
    1STR    N08 4241  14.549   8.605   8.530
    1STR    C09 4242  14.654   8.579   8.448
    1STR    O0A 4243  14.642   8.549   8.329
    1STR    O0B 4244  14.776   8.590   8.510
    1STR    C0C 4245  14.899   8.577   8.433
    1STR    C0D 4246  14.930   8.711   8.364
    1STR    C0E 4247  15.020   8.530   8.520
    1STR    O0F 4248  15.142   8.518   8.443
    1STR    C0G 4249  15.257   8.466   8.513
    1STR    C0H 4250  15.243   8.314   8.527
    1STR    C0I 4251  15.390   8.502   8.440
    1STR    O0J 4252  15.507   8.469   8.519
    1STR    C0K 4253  15.637   8.493   8.461
    1STR    C0M 4254  15.660   8.645   8.445
    1STR    C0N 4255  15.750   8.434   8.551
    1STR    O0O 4256  15.879   8.442   8.487
    1STR    C0P 4257  15.994   8.471   8.556
    1STR    O0Q 4258  16.001   8.499   8.675
    1STR    N0R 4259  16.098   8.466   8.472
    1STR    C0S 4260  16.234   8.499   8.479
    1STR    C0T 4261  16.297   8.510   8.354
    1STR    C0U 4262  16.429   8.555   8.343
    1STR    C0V 4263  16.504   8.587   8.458
    1STR    C0W 4264  16.637   8.657   8.433
    1STR    C0X 4265  16.451   8.562   8.588
    1STR    N0Y 4266  16.526   8.581   8.706
    1STR   BCK2 4267  16.657   8.558   8.734
    1STR    O10 4268  16.738   8.513   8.654
    1STR    C13 4269  16.313   8.523   8.596
    1STR    C14 4270  14.362   8.618   8.370
    1STR    C15 4271  14.225   8.612   8.341
    1STR    C16 4272  14.130   8.596   8.443
    1STR    C17 4273  13.985   8.576   8.401
    1STR    H1B 4274  14.104   8.495   8.748
    1STR    H1C 4275  14.345   8.590   8.708
    1STR    H1D 4276  14.579   8.624   8.624
    1STR    H1E 4277  14.884   8.501   8.356
    1STR    H1F 4278  14.946   8.791   8.436
    1STR    H1G 4279  15.019   8.703   8.302
    1STR    H1H 4280  14.848   8.741   8.299
    1STR    H1I 4281  14.994   8.435   8.565
    1STR    H1J 4282  15.035   8.601   8.602
    1STR    H1K 4283  15.262   8.512   8.612
    1STR    H1M 4284  15.230   8.267   8.429
    1STR    H1N 4285  15.159   8.285   8.589
    1STR    H1O 4286  15.332   8.271   8.573
    1STR    H1P 4287  15.394   8.451   8.343
    1STR    H1Q 4288  15.389   8.609   8.418
    1STR    H1R 4289  15.642   8.445   8.364
    1STR    H1S 4290  15.761   8.665   8.408
    1STR    H1T 4291  15.649   8.696   8.540
    1STR    H1U 4292  15.591   8.690   8.373
    1STR    H1V 4293  15.730   8.328   8.570
    1STR    H1W 4294  15.752   8.482   8.648
    1STR    H1X 4295  16.064   8.437   8.382
    1STR    H1Y 4296  16.244   8.489   8.262
    1STR    H1Z 4297  16.473   8.569   8.246
    1STR    H20 4298  16.663   8.723   8.516
    1STR    H21 4299  16.717   8.584   8.418
    1STR    H22 4300  16.632   8.719   8.343
    1STR    H23 4301  16.474   8.611   8.787
    1STR    H27 4302  16.266   8.510   8.692
    1STR    H28 4303  14.429   8.630   8.286
    1STR    H29 4304  14.193   8.617   8.238
    1STR    H2A 4305  13.934   8.506   8.467
    1STR    H2B 4306  13.979   8.535   8.300
    1STR    H2C 4307  13.932   8.671   8.402
    1STR   BCK1 4308  13.954   8.709  13.197
    1STR    O03 4309  13.913   8.748  13.305
    1STR    N04 4310  14.070   8.748  13.140
    1STR    C05 4311  14.163   8.848  13.180
    1STR    C06 4312  14.305   8.829  13.164
    1STR    C07 4313  14.402   8.929  13.197
    1STR    N08 4314  14.542   8.911  13.174
    1STR    C09 4315  14.648   8.986  13.213
    1STR    O0A 4316  14.639   9.083  13.288
    1STR    O0B 4317  14.770   8.943  13.163
    1STR    C0C 4318  14.893   9.009  13.203
    1STR    C0D 4319  14.932   8.961  13.344
    1STR    C0E 4320  15.013   8.990  13.104
    1STR    O0F 4321  15.135   9.051  13.151
    1STR    C0G 4322  15.252   9.042  13.066
    1STR    C0H 4323  15.239   9.144  12.952
    1STR    C0I 4324  15.384   9.066  13.147
    1STR    O0J 4325  15.505   9.036  13.072
    1STR    C0K 4326  15.632   9.055  13.139
    1STR    C0M 4327  15.648   8.953  13.252
    1STR    C0N 4328  15.753   9.041  13.041
    1STR    O0O 4329  15.877   9.078  13.104
    1STR    C0P 4330  15.991   9.001  13.098
    1STR    O0Q 4331  15.999   8.888  13.053
    1STR    N0R 4332  16.093   9.071  13.149
    1STR    C0S 4333  16.230   9.050  13.173
    1STR    C0T 4334  16.301   9.166  13.207
    1STR    C0U 4335  16.436   9.161  13.245
    1STR    C0V 4336  16.505   9.039  13.249
    1STR    C0W 4337  16.646   9.041  13.306
    1STR    C0X 4338  16.440   8.919  13.209
    1STR    N0Y 4339  16.510   8.797  13.221
    1STR   BCK2 4340  16.633   8.767  13.174
    1STR    O10 4341  16.693   8.835  13.091
    1STR    C13 4342  16.301   8.926  13.172
    1STR    C14 4343  14.352   9.050  13.249
    1STR    C15 4344  14.214   9.073  13.263
    1STR    C16 4345  14.120   8.976  13.226
    1STR    C17 4346  13.974   9.019  13.229
    1STR    H1B 4347  14.093   8.697  13.057
    1STR    H1C 4348  14.339   8.734  13.125
    1STR    H1D 4349  14.570   8.832  13.120
    1STR    H1E 4350  14.874   9.117  13.209
    1STR    H1F 4351  14.952   8.854  13.345
    1STR    H1G 4352  15.022   9.012  13.379
    1STR    H1H 4353  14.853   8.981  13.416
    1STR    H1I 4354  14.985   9.032  13.007
    1STR    H1J 4355  15.030   8.883  13.088
    1STR    H1K 4356  15.258   8.941  13.025
    1STR    H1M 4357  15.227   9.245  12.992
    1STR    H1N 4358  15.155   9.123  12.887
    1STR    H1O 4359  15.329   9.144  12.890
    1STR    H1P 4360  15.387   9.169  13.182
    1STR    H1Q 4361  15.380   9.004  13.236
    1STR    H1R 4362  15.634   9.156  13.180
    1STR    H1S 4363  15.746   8.961  13.298
    1STR    H1T 4364  15.639   8.851  13.214
    1STR    H1U 4365  15.575   8.966  13.332
    1STR    H1V 4366  15.739   9.107  12.956
    1STR    H1W 4367  15.758   8.940  13.001
    1STR    H1X 4368  16.058   9.162  13.174
    1STR    H1Y 4369  16.253   9.263  13.208
    1STR    H1Z 4370  16.486   9.252  13.274
    1STR    H20 4371  16.663   8.955  13.372
    1STR    H21 4372  16.720   9.039  13.226
    1STR    H22 4373  16.664   9.130  13.366
    1STR    H23 4374  16.468   8.725  13.278
    1STR    H27 4375  16.248   8.836  13.144
    1STR    H28 4376  14.416   9.132  13.278
    1STR    H29 4377  14.181   9.168  13.301
    1STR    H2A 4378  13.916   8.970  13.151
    1STR    H2B 4379  13.964   9.126  13.214
    1STR    H2C 4380  13.930   8.995  13.326
    1STR   BCK1 4381  13.944  13.000   0.069
    1STR    O03 4382  13.899  13.096   0.007
    1STR    N04 4383  14.075  12.971   0.052
    1STR    C05 4384  14.167  12.869   0.084
    1STR    C06 4385  14.306  12.904   0.093
    1STR    C07 4386  14.410  12.809   0.112
    1STR    N08 4387  14.547  12.847   0.114
    1STR    C09 4388  14.659  12.772   0.118
    1STR    O0A 4389  14.660  12.649   0.120
    1STR    O0B 4390  14.775  12.845   0.119
    1STR    C0C 4391  14.903  12.776   0.118
    1STR    C0D 4392  14.935  12.728  17.415
    1STR    C0E 4393  15.019  12.862   0.174
    1STR    O0F 4394  15.142  12.786   0.180
    1STR    C0G 4395  15.256  12.851   0.238
    1STR    C0H 4396  15.242  12.852   0.391
    1STR    C0I 4397  15.387  12.778   0.197
    1STR    O0J 4398  15.505  12.849   0.240
    1STR    C0K 4399  15.632  12.789   0.211
    1STR    C0M 4400  15.660  12.793   0.060
    1STR    C0N 4401  15.746  12.862   0.287
    1STR    O0O 4402  15.870  12.788   0.280
    1STR    C0P 4403  15.989  12.848   0.254
    1STR    O0Q 4404  16.005  12.967   0.230
    1STR    N0R 4405  16.085  12.756   0.256
    1STR    C0S 4406  16.222  12.758   0.223
    1STR    C0T 4407  16.280  12.632   0.197
    1STR    C0U 4408  16.412  12.622   0.149
    1STR    C0V 4409  16.491  12.737   0.130
    1STR    C0W 4410  16.622  12.719   0.055
    1STR    C0X 4411  16.441  12.864   0.169
    1STR    N0Y 4412  16.515  12.982   0.155
    1STR   BCK2 4413  16.642  13.020   0.178
    1STR    O10 4414  16.677  13.133   0.146
    1STR    C13 4415  16.305  12.873   0.211
    1STR    C14 4416  14.371  12.674   0.125
    1STR    C15 4417  14.236  12.636   0.115
    1STR    C16 4418  14.135  12.730   0.091
    1STR    C17 4419  13.997  12.673   0.066
    1STR    H1B 4420  14.115  13.047  -0.000
    1STR    H1C 4421  14.333  13.008   0.084
    1STR    H1D 4422  14.568  12.945   0.110
    1STR    H1E 4423  14.895  12.689   0.183
    1STR    H1F 4424  14.946  12.811  17.346
    1STR    H1G 4425  15.028  12.671  17.414
    1STR    H1H 4426  14.857  12.662  17.377
    1STR    H1I 4427  14.992  12.897   0.274
    1STR    H1J 4428  15.033  12.951   0.113
    1STR    H1K 4429  15.263  12.954   0.200
    1STR    H1M 4430  15.228  12.751   0.430
    1STR    H1N 4431  15.157  12.913   0.424
    1STR    H1O 4432  15.331  12.894   0.438
    1STR    H1P 4433  15.387  12.677   0.238
    1STR    H1Q 4434  15.388  12.767   0.088
    1STR    H1R 4435  15.631  12.685   0.245
    1STR    H1S 4436  15.761  12.756   0.038
    1STR    H1T 4437  15.655  12.896   0.022
    1STR    H1U 4438  15.591  12.733   0.002
    1STR    H1V 4439  15.720  12.871   0.393
    1STR    H1W 4440  15.758  12.964   0.250
    1STR    H1X 4441  16.046  12.667   0.281
    1STR    H1Y 4442  16.223  12.541   0.207
    1STR    H1Z 4443  16.451  12.525   0.123
    1STR    H20 4444  16.653  12.810   0.005
    1STR    H21 4445  16.701  12.686   0.123
    1STR    H22 4446  16.611  12.643  17.417
    1STR    H23 4447  16.463  13.061   0.120
    1STR    H27 4448  16.262  12.970   0.234
    1STR    H28 4449  14.441  12.594   0.141
    1STR    H29 4450  14.212  12.531   0.122
    1STR    H2A 4451  13.941  12.668   0.159
    1STR    H2B 4452  14.003  12.571   0.027
    1STR    H2C 4453  13.943  12.731  17.432
    1STR   BCK1 4454  13.954  13.053   4.339
    1STR    O03 4455  13.904  13.164   4.357
    1STR    N04 4456  14.075  13.031   4.283
    1STR    C05 4457  14.166  13.118   4.217
    1STR    C06 4458  14.308  13.103   4.233
    1STR    C07 4459  14.403  13.181   4.159
    1STR    N08 4460  14.544  13.160   4.172
    1STR    C09 4461  14.648  13.209   4.099
    1STR    O0A 4462  14.635  13.284   4.002
    1STR    O0B 4463  14.772  13.166   4.142
    1STR    C0C 4464  14.893  13.217   4.080
    1STR    C0D 4465  14.925  13.355   4.140
    1STR    C0E 4466  15.016  13.122   4.094
    1STR    O0F 4467  15.138  13.176   4.036
    1STR    C0G 4468  15.255  13.091   4.038
    1STR    C0H 4469  15.243  12.988   3.924
    1STR    C0I 4470  15.388  13.173   4.022
    1STR    O0J 4471  15.506  13.093   4.046
    1STR    C0K 4472  15.635  13.156   4.033
    1STR    C0M 4473  15.653  13.263   4.142
    1STR    C0N 4474  15.752  13.052   4.045
    1STR    O0O 4475  15.881  13.111   4.019
    1STR    C0P 4476  15.991  13.083   4.095
    1STR    O0Q 4477  15.993  13.016   4.198
    1STR    N0R 4478  16.098  13.141   4.040
    1STR    C0S 4479  16.235  13.156   4.073
    1STR    C0T 4480  16.308  13.234   3.981
    1STR    C0U 4481  16.441  13.269   4.006
    1STR    C0V 4482  16.507  13.226   4.121
    1STR    C0W 4483  16.645  13.285   4.148
    1STR    C0X 4484  16.442  13.136   4.211
    1STR    N0Y 4485  16.511  13.087   4.325
    1STR   BCK2 4486  16.636  13.035   4.331
    1STR    O10 4487  16.705  13.012   4.232
    1STR    C13 4488  16.304  13.105   4.187
    1STR    C14 4489  14.351  13.279   4.072
    1STR    C15 4490  14.213  13.294   4.053
    1STR    C16 4491  14.120  13.213   4.121
    1STR    C17 4492  13.974  13.228   4.081
    1STR    H1B 4493  14.104  12.935   4.290
    1STR    H1C 4494  14.344  13.030   4.303
    1STR    H1D 4495  14.576  13.100   4.246
    1STR    H1E 4496  14.875  13.230   3.973
    1STR    H1F 4497  14.945  13.349   4.247
    1STR    H1G 4498  15.013  13.399   4.093
    1STR    H1H 4499  14.843  13.425   4.125
    1STR    H1I 4500  14.991  13.027   4.045
    1STR    H1J 4501  15.033  13.099   4.199
    1STR    H1K 4502  15.260  13.040   4.134
    1STR    H1M 4503  15.230  13.037   3.828
    1STR    H1N 4504  15.159  12.921   3.939
    1STR    H1O 4505  15.332  12.927   3.918
    1STR    H1P 4506  15.392  13.217   3.922
    1STR    H1Q 4507  15.384  13.256   4.093
    1STR    H1R 4508  15.642  13.203   3.935
    1STR    H1S 4509  15.753  13.306   4.138
    1STR    H1T 4510  15.641  13.220   4.241
    1STR    H1U 4511  15.583  13.346   4.132
    1STR    H1V 4512  15.737  12.973   3.971
    1STR    H1W 4513  15.749  13.003   4.142
    1STR    H1X 4514  16.069  13.186   3.954
    1STR    H1Y 4515  16.262  13.271   3.891
    1STR    H1Z 4516  16.493  13.332   3.935
    1STR    H20 4517  16.665  13.292   4.255
    1STR    H21 4518  16.722  13.224   4.101
    1STR    H22 4519  16.652  13.385   4.107
    1STR    H23 4520  16.462  13.089   4.413
    1STR    H27 4521  16.250  13.042   4.256
    1STR    H28 4522  14.414  13.345   4.015
    1STR    H29 4523  14.178  13.368   3.982
    1STR    H2A 4524  13.922  13.133   4.086
    1STR    H2B 4525  13.965  13.264   3.979
    1STR    H2C 4526  13.925  13.300   4.146
    1STR   BCK1 4527  13.944  12.976   8.847
    1STR    O03 4528  13.910  12.917   8.949
    1STR    N04 4529  14.058  13.048   8.833
    1STR    C05 4530  14.157  13.082   8.929
    1STR    C06 4531  14.297  13.082   8.894
    1STR    C07 4532  14.401  13.119   8.987
    1STR    N08 4533  14.539  13.126   8.951
    1STR    C09 4534  14.649  13.137   9.029
    1STR    O0A 4535  14.647  13.134   9.151
    1STR    O0B 4536  14.768  13.152   8.959
    1STR    C0C 4537  14.894  13.158   9.030
    1STR    C0D 4538  14.935  13.016   9.073
    1STR    C0E 4539  15.011  13.226   8.951
    1STR    O0F 4540  15.134  13.227   9.026
    1STR    C0G 4541  15.250  13.290   8.966
    1STR    C0H 4542  15.236  13.443   8.978
    1STR    C0I 4543  15.382  13.242   9.033
    1STR    O0J 4544  15.501  13.287   8.963
    1STR    C0K 4545  15.628  13.250   9.020
    1STR    C0M 4546  15.651  13.099   9.009
    1STR    C0N 4547  15.747  13.323   8.950
    1STR    O0O 4548  15.868  13.307   9.025
    1STR    C0P 4549  15.986  13.266   8.971
    1STR    O0Q 4550  16.006  13.235   8.854
    1STR    N0R 4551  16.078  13.265   9.068
    1STR    C0S 4552  16.213  13.229   9.081
    1STR    C0T 4553  16.262  13.237   9.212
    1STR    C0U 4554  16.394  13.204   9.242
    1STR    C0V 4555  16.484  13.164   9.142
    1STR    C0W 4556  16.626  13.139   9.188
    1STR    C0X 4557  16.441  13.155   9.006
    1STR    N0Y 4558  16.526  13.133   8.895
    1STR   BCK2 4559  16.647  13.083   8.860
    1STR    O10 4560  16.687  13.110   8.747
    1STR    C13 4561  16.304  13.188   8.978
    1STR    C14 4562  14.359  13.156   9.117
    1STR    C15 4563  14.223  13.160   9.152
    1STR    C16 4564  14.123  13.128   9.059
    1STR    C17 4565  13.979  13.153   9.102
    1STR    H1B 4566  14.072  13.084   8.740
    1STR    H1C 4567  14.326  13.053   8.795
    1STR    H1D 4568  14.562  13.121   8.853
    1STR    H1E 4569  14.879  13.218   9.120
    1STR    H1F 4570  14.952  12.951   8.987
    1STR    H1G 4571  15.027  13.018   9.132
    1STR    H1H 4572  14.859  12.970   9.135
    1STR    H1I 4573  14.981  13.328   8.926
    1STR    H1J 4574  15.027  13.174   8.856
    1STR    H1K 4575  15.255  13.262   8.860
    1STR    H1M 4576  15.224  13.473   9.083
    1STR    H1N 4577  15.150  13.481   8.923
    1STR    H1O 4578  15.325  13.493   8.940
    1STR    H1P 4579  15.385  13.276   9.137
    1STR    H1Q 4580  15.380  13.133   9.037
    1STR    H1R 4581  15.629  13.280   9.125
    1STR    H1S 4582  15.750  13.072   9.044
    1STR    H1T 4583  15.644  13.066   8.905
    1STR    H1U 4584  15.580  13.041   9.068
    1STR    H1V 4585  15.726  13.430   8.944
    1STR    H1W 4586  15.759  13.290   8.847
    1STR    H1X 4587  16.034  13.298   9.152
    1STR    H1Y 4588  16.198  13.268   9.294
    1STR    H1Z 4589  16.428  13.211   9.344
    1STR    H20 4590  16.644  13.032   9.190
    1STR    H21 4591  16.697  13.190   9.124
    1STR    H22 4592  16.643  13.175   9.289
    1STR    H23 4593  16.486  13.167   8.809
    1STR    H27 4594  16.266  13.183   8.877
    1STR    H28 4595  14.428  13.185   9.194
    1STR    H29 4596  14.196  13.191   9.251
    1STR    H2A 4597  13.918  13.186   9.018
    1STR    H2B 4598  13.974  13.230   9.178
    1STR    H2C 4599  13.935  13.062   9.144
    1STR   BCK1 4600  13.955  12.964  13.102
    1STR    O03 4601  13.917  13.024  13.002
    1STR    N04 4602  14.076  12.905  13.114
    1STR    C05 4603  14.172  12.877  13.015
    1STR    C06 4604  14.311  12.898  13.039
    1STR    C07 4605  14.412  12.857  12.947
    1STR    N08 4606  14.550  12.873  12.975
    1STR    C09 4607  14.656  12.809  12.921
    1STR    O0A 4608  14.647  12.718  12.838
    1STR    O0B 4609  14.777  12.853  12.969
    1STR    C0C 4610  14.901  12.803  12.912
    1STR    C0D 4611  14.932  12.881  12.783
    1STR    C0E 4612  15.020  12.811  13.012
    1STR    O0F 4613  15.142  12.758  12.955
    1STR    C0G 4614  15.258  12.752  13.041
    1STR    C0H 4615  15.243  12.632  13.135
    1STR    C0I 4616  15.389  12.741  12.958
    1STR    O0J 4617  15.507  12.752  13.041
    1STR    C0K 4618  15.635  12.740  12.976
    1STR    C0M 4619  15.660  12.863  12.887
    1STR    C0N 4620  15.750  12.729  13.081
    1STR    O0O 4621  15.877  12.701  13.020
    1STR    C0P 4622  15.993  12.758  13.063
    1STR    O0Q 4623  16.002  12.843  13.151
    1STR    N0R 4624  16.096  12.708  12.995
    1STR    C0S 4625  16.235  12.736  12.990
    1STR    C0T 4626  16.307  12.672  12.887
    1STR    C0U 4627  16.442  12.702  12.864
    1STR    C0V 4628  16.510  12.797  12.944
    1STR    C0W 4629  16.648  12.839  12.897
    1STR    C0X 4630  16.444  12.856  13.055
    1STR    N0Y 4631  16.504  12.956  13.134
    1STR   BCK2 4632  16.625  12.981  13.188
    1STR    O10 4633  16.641  13.090  13.242
    1STR    C13 4634  16.306  12.826  13.074
    1STR    C14 4635  14.368  12.799  12.826
    1STR    C15 4636  14.232  12.776  12.801
    1STR    C16 4637  14.134  12.811  12.895
    1STR    C17 4638  13.991  12.769  12.866
    1STR    H1B 4639  14.094  12.869  13.206
    1STR    H1C 4640  14.341  12.945  13.132
    1STR    H1D 4641  14.577  12.940  13.045
    1STR    H1E 4642  14.888  12.698  12.887
    1STR    H1F 4643  14.947  12.987  12.803
    1STR    H1G 4644  15.023  12.843  12.736
    1STR    H1H 4645  14.851  12.871  12.711
    1STR    H1I 4646  14.994  12.754  13.101
    1STR    H1J 4647  15.036  12.914  13.043
    1STR    H1K 4648  15.264  12.845  13.099
    1STR    H1M 4649  15.229  12.539  13.079
    1STR    H1N 4650  15.159  12.643  13.203
    1STR    H1O 4651  15.332  12.620  13.197
    1STR    H1P 4652  15.390  12.646  12.904
    1STR    H1Q 4653  15.389  12.820  12.883
    1STR    H1R 4654  15.636  12.649  12.916
    1STR    H1S 4655  15.760  12.860  12.844
    1STR    H1T 4656  15.652  12.955  12.944
    1STR    H1U 4657  15.590  12.869  12.803
    1STR    H1V 4658  15.729  12.648  13.151
    1STR    H1W 4659  15.755  12.820  13.141
    1STR    H1X 4660  16.063  12.637  12.931
    1STR    H1Y 4661  16.259  12.601  12.822
    1STR    H1Z 4662  16.493  12.655  12.781
    1STR    H20 4663  16.669  12.943  12.922
    1STR    H21 4664  16.725  12.775  12.941
    1STR    H22 4665  16.657  12.831  12.789
    1STR    H23 4666  16.441  13.031  13.158
    1STR    H27 4667  16.252  12.875  13.154
    1STR    H28 4668  14.438  12.769  12.749
    1STR    H29 4669  14.203  12.727  12.709
    1STR    H2A 4670  13.939  12.739  12.958
    1STR    H2B 4671  13.988  12.683  12.799
    1STR    H2C 4672  13.936  12.850  12.820
    1STR   BCK1 4673  17.334   0.854  17.329
    1STR    O03 4674  17.427   0.795  17.383
    1STR    N04 4675  17.313   0.983  17.365
    1STR    C05 4676  17.213   1.081  17.353
    1STR    C06 4677  17.250   1.220  17.346
    1STR    C07 4678  17.155   1.327  17.350
    1STR    N08 4679  17.194   1.464  17.346
    1STR    C09 4680  17.119   1.578  17.351
    1STR    O0A 4681  16.997   1.579  17.361
    1STR    O0B 4682  17.193   1.694  17.344
    1STR    C0C 4683  17.125   1.823  17.354
    1STR    C0D 4684  17.092   1.854   0.061
    1STR    C0E 4685  17.204   1.941  17.289
    1STR    O0F 4686  17.129   2.065  17.293
    1STR    C0G 4687  17.187   2.181  17.228
    1STR    C0H 4688  17.172   2.165  17.076
    1STR    C0I 4689  17.118   2.313  17.275
    1STR    O0J 4690  17.182   2.432  17.223
    1STR    C0K 4691  17.123   2.559  17.256
    1STR    C0M 4692  17.143   2.588  17.406
    1STR    C0N 4693  17.183   2.676  17.172
    1STR    O0O 4694  17.104   2.796  17.183
    1STR    C0P 4695  17.159   2.921  17.190
    1STR    O0Q 4696  17.279   2.946  17.193
    1STR    N0R 4697  17.061   3.012  17.199
    1STR    C0S 4698  17.059   3.149  17.230
    1STR    C0T 4699  16.950   3.190  17.309
    1STR    C0U 4700  16.940   3.322  17.356
    1STR    C0V 4701  17.036   3.418  17.321
    1STR    C0W 4702  17.033   3.551  17.395
    1STR    C0X 4703  17.140   3.385  17.230
    1STR    N0Y 4704  17.236   3.482  17.195
    1STR   BCK2 4705  17.227   3.607  17.146
    1STR    O10 4706  17.324   3.681  17.154
    1STR    C13 4707  17.153   3.248  17.190
    1STR    C14 4708  17.018   1.289  17.361
    1STR    C15 4709  16.980   1.154  17.371
    1STR    C16 4710  17.075   1.051  17.370
    1STR    C17 4711  17.024   0.911  17.399
    1STR    H1B 4712  17.393   1.012  17.419
    1STR    H1C 4713  17.354   1.245  17.339
    1STR    H1D 4714  17.292   1.484  17.340
    1STR    H1E 4715  17.031   1.816  17.298
    1STR    H1F 4716  17.182   1.864   0.121
    1STR    H1G 4717  17.036   1.947   0.069
    1STR    H1H 4718  17.031   1.776   0.105
    1STR    H1I 4719  17.228   1.915  17.186
    1STR    H1J 4720  17.300   1.955  17.341
    1STR    H1K 4721  17.293   2.187  17.255
    1STR    H1M 4722  17.067   2.150  17.048
    1STR    H1N 4723  17.229   2.081  17.037
    1STR    H1O 4724  17.208   2.254  17.024
    1STR    H1P 4725  17.013   2.311  17.247
    1STR    H1Q 4726  17.120   2.315  17.384
    1STR    H1R 4727  17.016   2.555  17.234
    1STR    H1S 4728  17.108   2.688  17.431
    1STR    H1T 4729  17.249   2.584  17.432
    1STR    H1U 4730  17.089   2.519   0.030
    1STR    H1V 4731  17.186   2.648  17.067
    1STR    H1W 4732  17.287   2.695  17.201
    1STR    H1X 4733  16.972   2.966  17.192
    1STR    H1Y 4734  16.875   3.119  17.341
    1STR    H1Z 4735  16.860   3.348  17.423
    1STR    H20 4736  17.132   3.573  17.436
    1STR    H21 4737  17.003   3.633  17.331
    1STR    H22 4738  16.964   3.549   0.039
    1STR    H23 4739  17.331   3.457  17.215
    1STR    H27 4740  17.237   3.218  17.128
    1STR    H28 4741  16.938   1.360  17.364
    1STR    H29 4742  16.876   1.131  17.382
    1STR    H2A 4743  17.001   0.860  17.306
    1STR    H2B 4744  16.932   0.914   0.018
    1STR    H2C 4745  17.096   0.852   0.016
    1STR   BCK1 4746  17.425   0.874   4.330
    1STR    O03 4747   0.089   0.810   4.337
    1STR    N04 4748  17.407   0.999   4.381
    1STR    C05 4749   0.049   1.086   4.460
    1STR    C06 4750   0.034   1.230   4.451
    1STR    C07 4751   0.109   1.324   4.530
    1STR    N08 4752   0.089   1.466   4.523
    1STR    C09 4753   0.147   1.569   4.592
    1STR    O0A 4754   0.234   1.553   4.677
    1STR    O0B 4755   0.099   1.695   4.559
    1STR    C0C 4756   0.158   1.816   4.617
    1STR    C0D 4757   0.291   1.846   4.546
    1STR    C0E 4758   0.065   1.943   4.615
    1STR    O0F 4759   0.126   2.066   4.662
    1STR    C0G 4760   0.041   2.184   4.671
    1STR    C0H 4761  17.395   2.172   4.798
    1STR    C0I 4762   0.121   2.320   4.674
    1STR    O0J 4763   0.036   2.438   4.655
    1STR    C0K 4764   0.096   2.570   4.659
    1STR    C0M 4765   0.201   2.584   4.546
    1STR    C0N 4766  17.430   2.685   4.643
    1STR    O0O 4767   0.045   2.819   4.648
    1STR    C0P 4768  17.430   2.926   4.580
    1STR    O0Q 4769  17.337   2.918   4.500
    1STR    N0R 4770   0.052   3.040   4.614
    1STR    C0S 4771   0.045   3.176   4.576
    1STR    C0T 4772   0.128   3.261   4.652
    1STR    C0U 4773   0.144   3.396   4.620
    1STR    C0V 4774   0.076   3.454   4.511
    1STR    C0W 4775   0.114   3.596   4.473
    1STR    C0X 4776  17.421   3.377   4.437
    1STR    N0Y 4777  17.353   3.435   4.327
    1STR   BCK2 4778  17.290   3.555   4.316
    1STR    O10 4779  17.266   3.629   4.411
    1STR    C13 4780  17.410   3.236   4.469
    1STR    C14 4781   0.205   1.268   4.618
    1STR    C15 4782   0.219   1.129   4.632
    1STR    C16 4783   0.140   1.039   4.559
    1STR    C17 4784   0.155   0.893   4.599
    1STR    H1B 4785  17.318   1.037   4.354
    1STR    H1C 4786  17.403   1.269   4.380
    1STR    H1D 4787   0.021   1.499   4.457
    1STR    H1E 4788   0.180   1.795   4.722
    1STR    H1F 4789   0.276   1.867   4.440
    1STR    H1G 4790   0.340   1.933   4.591
    1STR    H1H 4791   0.361   1.763   4.554
    1STR    H1I 4792  17.417   1.920   4.675
    1STR    H1J 4793   0.029   1.959   4.513
    1STR    H1K 4794  17.417   2.187   4.583
    1STR    H1M 4795   0.017   2.161   4.887
    1STR    H1N 4796  17.327   2.088   4.794
    1STR    H1O 4797  17.334   2.262   4.812
    1STR    H1P 4798   0.176   2.329   4.768
    1STR    H1Q 4799   0.196   2.316   4.595
    1STR    H1R 4800   0.146   2.583   4.755
    1STR    H1S 4801   0.241   2.686   4.544
    1STR    H1T 4802   0.155   2.565   4.449
    1STR    H1U 4803   0.285   2.517   4.559
    1STR    H1V 4804  17.357   2.678   4.724
    1STR    H1W 4805  17.373   2.672   4.551
    1STR    H1X 4806   0.120   3.018   4.684
    1STR    H1Y 4807   0.185   3.223   4.735
    1STR    H1Z 4808   0.212   3.457   4.677
    1STR    H20 4809   0.110   3.611   4.365
    1STR    H21 4810   0.048   3.668   4.521
    1STR    H22 4811   0.216   3.619   4.504
    1STR    H23 4812  17.352   3.381   4.242
    1STR    H27 4813  17.343   3.173   4.412
    1STR    H28 4814   0.269   1.328   4.680
    1STR    H29 4815   0.291   1.093   4.704
    1STR    H2A 4816   0.061   0.839   4.591
    1STR    H2B 4817   0.189   0.883   4.702
    1STR    H2C 4818   0.230   0.844   4.536
    1STR   BCK1 4819  17.318   0.870   8.564
    1STR    O03 4820  17.213   0.884   8.503
    1STR    N04 4821  17.410   0.969   8.575
    1STR    C05 4822  17.426   1.080   8.489
    1STR    C06 4823  17.428   1.217   8.532
    1STR    C07 4824   0.014   1.326   8.441
    1STR    N08 4825   0.022   1.463   8.482
    1STR    C09 4826   0.022   1.576   8.406
    1STR    O0A 4827   0.002   1.577   8.285
    1STR    O0B 4828   0.046   1.694   8.476
    1STR    C0C 4829   0.044   1.822   8.406
    1STR    C0D 4830  17.338   1.862   8.379
    1STR    C0E 4831   0.120   1.939   8.477
    1STR    O0F 4832   0.111   2.063   8.401
    1STR    C0G 4833   0.177   2.180   8.454
    1STR    C0H 4834   0.328   2.169   8.426
    1STR    C0I 4835   0.119   2.311   8.389
    1STR    O0J 4836   0.162   2.435   8.450
    1STR    C0K 4837   0.105   2.557   8.396
    1STR    C0M 4838  17.395   2.564   8.429
    1STR    C0N 4839   0.171   2.689   8.449
    1STR    O0O 4840   0.124   2.802   8.373
    1STR    C0P 4841   0.102   2.926   8.428
    1STR    O0Q 4842   0.106   2.953   8.547
    1STR    N0R 4843   0.080   3.014   8.329
    1STR    C0S 4844   0.067   3.154   8.325
    1STR    C0T 4845   0.145   3.218   8.227
    1STR    C0U 4846   0.139   3.357   8.209
    1STR    C0V 4847   0.053   3.437   8.286
    1STR    C0W 4848   0.068   3.587   8.268
    1STR    C0X 4849  17.405   3.377   8.381
    1STR    N0Y 4850  17.317   3.451   8.463
    1STR   BCK2 4851  17.240   3.563   8.458
    1STR    O10 4852  17.185   3.599   8.561
    1STR    C13 4853  17.418   3.235   8.402
    1STR    C14 4854   0.036   1.290   8.306
    1STR    C15 4855   0.036   1.157   8.263
    1STR    C16 4856   0.014   1.052   8.353
    1STR    C17 4857   0.028   0.909   8.302
    1STR    H1B 4858   0.047   0.949   8.638
    1STR    H1C 4859  17.411   1.238   8.636
    1STR    H1D 4860   0.029   1.482   8.580
    1STR    H1E 4861   0.093   1.807   8.309
    1STR    H1F 4862  17.283   1.879   8.471
    1STR    H1G 4863  17.333   1.954   8.320
    1STR    H1H 4864  17.285   1.786   8.321
    1STR    H1I 4865   0.224   1.911   8.490
    1STR    H1J 4866   0.078   1.955   8.576
    1STR    H1K 4867   0.160   2.187   8.561
    1STR    H1M 4868   0.348   2.156   8.319
    1STR    H1N 4869   0.373   2.085   8.478
    1STR    H1O 4870   0.381   2.259   8.458
    1STR    H1P 4871   0.144   2.312   8.282
    1STR    H1Q 4872   0.011   2.302   8.394
    1STR    H1R 4873   0.119   2.556   8.288
    1STR    H1S 4874  17.353   2.660   8.398
    1STR    H1T 4875  17.379   2.555   8.537
    1STR    H1U 4876  17.337   2.487   8.379
    1STR    H1V 4877   0.280   2.683   8.438
    1STR    H1W 4878   0.152   2.702   8.556
    1STR    H1X 4879   0.088   2.968   8.240
    1STR    H1Y 4880   0.214   3.162   8.166
    1STR    H1Z 4881   0.204   3.403   8.136
    1STR    H20 4882   0.002   3.622   8.188
    1STR    H21 4883   0.045   3.641   8.360
    1STR    H22 4884   0.170   3.614   8.241
    1STR    H23 4885  17.304   3.410   8.554
    1STR    H27 4886  17.357   3.186   8.476
    1STR    H28 4887   0.058   1.363   8.230
    1STR    H29 4888   0.056   1.135   8.159
    1STR    H2A 4889   0.090   0.850   8.370
    1STR    H2B 4890   0.076   0.906   8.204
    1STR    H2C 4891  17.370   0.862   8.294
    1STR   BCK1 4892  17.298   0.865  13.028
    1STR    O03 4893  17.354   0.806  13.120
    1STR    N04 4894  17.253   0.993  13.034
    1STR    C05 4895  17.239   1.084  13.141
    1STR    C06 4896  17.254   1.226  13.118
    1STR    C07 4897  17.226   1.325  13.217
    1STR    N08 4898  17.237   1.464  13.191
    1STR    C09 4899  17.183   1.570  13.257
    1STR    O0A 4900  17.108   1.559  13.353
    1STR    O0B 4901  17.220   1.693  13.205
    1STR    C0C 4902  17.179   1.816  13.271
    1STR    C0D 4903  17.271   1.844  13.391
    1STR    C0E 4904  17.176   1.939  13.174
    1STR    O0F 4905  17.133   2.062  13.238
    1STR    C0G 4906  17.118   2.178  13.153
    1STR    C0H 4907  16.988   2.164  13.072
    1STR    C0I 4908  17.115   2.312  13.234
    1STR    O0J 4909  17.116   2.429  13.148
    1STR    C0K 4910  17.108   2.559  13.211
    1STR    C0M 4911  17.237   2.587  13.290
    1STR    C0N 4912  17.088   2.672  13.105
    1STR    O0O 4913  17.065   2.800  13.167
    1STR    C0P 4914  17.100   2.917  13.106
    1STR    O0Q 4915  17.158   2.926  12.998
    1STR    N0R 4916  17.066   3.020  13.184
    1STR    C0S 4917  17.087   3.159  13.177
    1STR    C0T 4918  17.069   3.228  13.299
    1STR    C0U 4919  17.094   3.365  13.309
    1STR    C0V 4920  17.134   3.439  13.196
    1STR    C0W 4921  17.174   3.585  13.216
    1STR    C0X 4922  17.143   3.376  13.070
    1STR    N0Y 4923  17.181   3.454  12.960
    1STR   BCK2 4924  17.106   3.548  12.899
    1STR    O10 4925  16.983   3.547  12.897
    1STR    C13 4926  17.123   3.235  13.062
    1STR    C14 4927  17.188   1.278  13.345
    1STR    C15 4928  17.172   1.141  13.370
    1STR    C16 4929  17.194   1.044  13.270
    1STR    C17 4930  17.160   0.901  13.307
    1STR    H1B 4931  17.223   1.026  12.944
    1STR    H1C 4932  17.286   1.258  13.020
    1STR    H1D 4933  17.292   1.493  13.112
    1STR    H1E 4934  17.077   1.803  13.308
    1STR    H1F 4935  17.374   1.858  13.359
    1STR    H1G 4936  17.240   1.934  13.444
    1STR    H1H 4937  17.269   1.761  13.462
    1STR    H1I 4938  17.109   1.915  13.091
    1STR    H1J 4939  17.275   1.954  13.131
    1STR    H1K 4940  17.203   2.184  13.085
    1STR    H1M 4941  16.902   2.151  13.138
    1STR    H1N 4942  16.990   2.080  13.003
    1STR    H1O 4943  16.969   2.254  13.013
    1STR    H1P 4944  17.028   2.314  13.300
    1STR    H1Q 4945  17.203   2.314  13.299
    1STR    H1R 4946  17.022   2.561  13.278
    1STR    H1S 4947  17.236   2.688  13.331
    1STR    H1T 4948  17.325   2.578  13.226
    1STR    H1U 4949  17.249   2.519  13.375
    1STR    H1V 4950  17.001   2.650  13.042
    1STR    H1W 4951  17.174   2.677  13.038
    1STR    H1X 4952  17.018   2.986  13.265
    1STR    H1Y 4953  17.040   3.175  13.389
    1STR    H1Z 4954  17.085   3.414  13.405
    1STR    H20 4955  17.279   3.599  13.192
    1STR    H21 4956  17.115   3.651  13.153
    1STR    H22 4957  17.160   3.617  13.319
    1STR    H23 4958  17.276   3.447  12.928
    1STR    H27 4959  17.136   3.185  12.967
    1STR    H28 4960  17.169   1.346  13.427
    1STR    H29 4961  17.140   1.110  13.468
    1STR    H2A 4962  17.117   0.847  13.222
    1STR    H2B 4963  17.087   0.897  13.387
    1STR    H2C 4964  17.250   0.849  13.341
    1STR   BCK1 4965   0.010   5.242  17.306
    1STR    O03 4966   0.101   5.185  17.247
    1STR    N04 4967   0.021   5.362  17.370
    1STR    C05 4968   0.131   5.449  17.392
    1STR    C06 4969   0.111   5.592  17.400
    1STR    C07 4970   0.217   5.687  17.424
    1STR    N08 4971   0.194   5.828  17.438
    1STR    C09 4972   0.282   5.932   0.000
    1STR    O0A 4973   0.402   5.920  17.421
    1STR    O0B 4974   0.224   6.057   0.025
    1STR    C0C 4975   0.305   6.179   0.020
    1STR    C0D 4976   0.329   6.215  17.312
    1STR    C0E 4977   0.244   6.303   0.096
    1STR    O0F 4978   0.319   6.427   0.078
    1STR    C0G 4979   0.273   6.546   0.148
    1STR    C0H 4980   0.318   6.536   0.295
    1STR    C0I 4981   0.326   6.680   0.084
    1STR    O0J 4982   0.259   6.801   0.131
    1STR    C0K 4983   0.301   6.929   0.075
    1STR    C0M 4984   0.272   6.933  17.364
    1STR    C0N 4985   0.228   7.053   0.141
    1STR    O0O 4986   0.273   7.181   0.089
    1STR    C0P 4987   0.188   7.288   0.069
    1STR    O0Q 4988   0.066   7.285   0.078
    1STR    N0R 4989   0.260   7.398   0.042
    1STR    C0S 4990   0.233   7.535   0.015
    1STR    C0T 4991   0.340   7.621   0.045
    1STR    C0U 4992   0.336   7.757   0.011
    1STR    C0V 4993   0.226   7.812  17.385
    1STR    C0W 4994   0.241   7.956  17.336
    1STR    C0X 4995   0.110   7.733  17.359
    1STR    N0Y 4996   0.002   7.788  17.286
    1STR   BCK2 4997  17.378   7.907  17.299
    1STR    O10 4998  17.391   7.984  17.393
    1STR    C13 4999   0.116   7.593  17.394
    1STR    C14 5000   0.347   5.633  17.436
    1STR    C15 5001   0.369   5.495  17.433
    1STR    C16 5002   0.264   5.403  17.416
    1STR    C17 5003   0.300   5.257  17.434
    1STR    H1B 5004  17.372   5.393  17.406
    1STR    H1C 5005   0.011   5.630  17.388
    1STR    H1D 5006   0.099   5.859   0.009
    1STR    H1E 5007   0.402   6.158   0.066
    1STR    H1F 5008   0.236   6.237  17.261
    1STR    H1G 5009   0.394   6.303  17.304
    1STR    H1H 5010   0.379   6.134  17.260
    1STR    H1I 5011   0.240   6.279   0.203
    1STR    H1J 5012   0.142   6.319   0.064
    1STR    H1K 5013   0.164   6.550   0.144
    1STR    H1M 5014   0.427   6.524   0.302
    1STR    H1N 5015   0.273   6.452   0.347
    1STR    H1O 5016   0.292   6.626   0.350
    1STR    H1P 5017   0.434   6.689   0.101
    1STR    H1Q 5018   0.313   6.671  17.416
    1STR    H1R 5019   0.408   6.941   0.092
    1STR    H1S 5020   0.296   7.031  17.323
    1STR    H1T 5021   0.167   6.914  17.345
    1STR    H1U 5022   0.332   6.861  17.309
    1STR    H1V 5023   0.248   7.053   0.249
    1STR    H1W 5024   0.120   7.043   0.131
    1STR    H1X 5025   0.357   7.374   0.046
    1STR    H1Y 5026   0.429   7.584   0.094
    1STR    H1Z 5027   0.422   7.819   0.033
    1STR    H20 5028   0.192   7.970  17.239
    1STR    H21 5029   0.198   8.025  17.408
    1STR    H22 5030   0.345   7.982  17.322
    1STR    H23 5031  17.407   7.732  17.210
    1STR    H27 5032   0.033   7.528  17.372
    1STR    H28 5033   0.433   5.695   0.013
    1STR    H29 5034   0.470   5.459   0.007
    1STR    H2A 5035   0.218   5.200   0.038
    1STR    H2B 5036   0.386   5.245   0.061
    1STR    H2C 5037   0.328   5.212  17.338
    1STR   BCK1 5038  17.318   5.217   4.250
    1STR    O03 5039  17.221   5.204   4.324
    1STR    N04 5040  17.352   5.334   4.192
    1STR    C05 5041  17.269   5.445   4.169
    1STR    C06 5042  17.309   5.581   4.195
    1STR    C07 5043  17.226   5.693   4.159
    1STR    N08 5044  17.268   5.828   4.177
    1STR    C09 5045  17.218   5.942   4.122
    1STR    O0A 5046  17.126   5.943   4.041
    1STR    O0B 5047  17.278   6.059   4.164
    1STR    C0C 5048  17.221   6.188   4.127
    1STR    C0D 5049  17.110   6.222   4.228
    1STR    C0E 5050  17.323   6.305   4.115
    1STR    O0F 5051  17.258   6.429   4.075
    1STR    C0G 5052  17.341   6.544   4.050
    1STR    C0H 5053  17.409   6.527   3.913
    1STR    C0I 5054  17.258   6.677   4.053
    1STR    O0J 5055  17.339   6.796   4.043
    1STR    C0K 5056  17.271   6.924   4.038
    1STR    C0M 5057  17.205   6.952   4.174
    1STR    C0N 5058  17.367   7.041   4.002
    1STR    O0O 5059  17.298   7.159   3.957
    1STR    C0P 5060  17.313   7.282   4.015
    1STR    O0Q 5061  17.380   7.306   4.115
    1STR    N0R 5062  17.237   7.372   3.951
    1STR    C0S 5063  17.192   7.500   3.988
    1STR    C0T 5064  17.052   7.517   3.985
    1STR    C0U 5065  16.992   7.636   4.029
    1STR    C0V 5066  17.072   7.744   4.073
    1STR    C0W 5067  17.002   7.857   4.147
    1STR    C0X 5068  17.212   7.737   4.062
    1STR    N0Y 5069  17.291   7.846   4.102
    1STR   BCK2 5070  17.287   7.979   4.076
    1STR    O10 5071  17.352   8.055   4.147
    1STR    C13 5072  17.272   7.612   4.025
    1STR    C14 5073  17.101   5.663   4.102
    1STR    C15 5074  17.062   5.532   4.073
    1STR    C16 5075  17.146   5.424   4.101
    1STR    C17 5076  17.103   5.287   4.050
    1STR    H1B 5077   0.001   5.333   4.145
    1STR    H1C 5078  17.404   5.598   4.242
    1STR    H1D 5079  17.346   5.846   4.238
    1STR    H1E 5080  17.175   6.179   4.028
    1STR    H1F 5081  17.150   6.234   4.329
    1STR    H1G 5082  17.059   6.314   4.200
    1STR    H1H 5083  17.034   6.143   4.231
    1STR    H1I 5084  17.399   6.278   4.042
    1STR    H1J 5085  17.374   6.320   4.210
    1STR    H1K 5086  17.417   6.551   4.128
    1STR    H1M 5087  17.335   6.512   3.834
    1STR    H1N 5088   0.037   6.442   3.911
    1STR    H1O 5089   0.027   6.616   3.887
    1STR    H1P 5090  17.185   6.675   3.972
    1STR    H1Q 5091  17.201   6.679   4.145
    1STR    H1R 5092  17.194   6.919   3.961
    1STR    H1S 5093  17.161   7.052   4.176
    1STR    H1T 5094  17.278   6.947   4.255
    1STR    H1U 5095  17.124   6.883   4.197
    1STR    H1V 5096  17.432   7.010   3.920
    1STR    H1W 5097  17.434   7.063   4.085
    1STR    H1X 5098  17.193   7.330   3.871
    1STR    H1Y 5099  16.988   7.435   3.955
    1STR    H1Z 5100  16.885   7.642   4.034
    1STR    H20 5101  17.053   7.877   4.241
    1STR    H21 5102  16.998   7.948   4.089
    1STR    H22 5103  16.899   7.831   4.172
    1STR    H23 5104  17.364   7.825   4.169
    1STR    H27 5105  17.380   7.601   4.025
    1STR    H28 5106  17.029   5.740   4.077
    1STR    H29 5107  16.967   5.515   4.024
    1STR    H2A 5108  17.188   5.233   4.009
    1STR    H2B 5109  17.029   5.295   3.971
    1STR    H2C 5110  17.060   5.228   4.131
    1STR   BCK1 5111  17.363   5.230   8.716
    1STR    O03 5112   0.020   5.167   8.757
    1STR    N04 5113  17.331   5.357   8.755
    1STR    C05 5114  17.384   5.445   8.854
    1STR    C06 5115  17.378   5.588   8.836
    1STR    C07 5116  17.422   5.684   8.934
    1STR    N08 5117  17.411   5.825   8.916
    1STR    C09 5118  17.426   5.928   9.004
    1STR    O0A 5119   0.013   5.913   9.123
    1STR    O0B 5120  17.408   6.054   8.949
    1STR    C0C 5121  17.431   6.175   9.028
    1STR    C0D 5122   0.142   6.203   9.036
    1STR    C0E 5123  17.355   6.302   8.975
    1STR    O0F 5124  17.380   6.425   9.049
    1STR    C0G 5125  17.304   6.543   9.011
    1STR    C0H 5126  17.162   6.530   9.070
    1STR    C0I 5127  17.368   6.678   9.058
    1STR    O0J 5128  17.303   6.794   8.999
    1STR    C0K 5129  17.348   6.927   9.037
    1STR    C0M 5130   0.054   6.948   8.994
    1STR    C0N 5131  17.259   7.040   8.974
    1STR    O0O 5132  17.298   7.173   9.013
    1STR    C0P 5133  17.276   7.282   8.931
    1STR    O0Q 5134  17.234   7.277   8.816
    1STR    N0R 5135  17.310   7.395   8.994
    1STR    C0S 5136  17.315   7.532   8.960
    1STR    C0T 5137  17.362   7.617   9.063
    1STR    C0U 5138  17.382   7.754   9.041
    1STR    C0V 5139  17.355   7.812   8.916
    1STR    C0W 5140  17.392   7.958   8.894
    1STR    C0X 5141  17.301   7.733   8.811
    1STR    N0Y 5142  17.281   7.795   8.686
    1STR   BCK2 5143  17.198   7.897   8.656
    1STR    O10 5144  17.108   7.936   8.729
    1STR    C13 5145  17.284   7.592   8.834
    1STR    C14 5146   0.039   5.630   9.052
    1STR    C15 5147   0.043   5.492   9.074
    1STR    C16 5148  17.434   5.400   8.980
    1STR    C17 5149  17.431   5.255   9.025
    1STR    H1B 5150  17.256   5.394   8.700
    1STR    H1C 5151  17.338   5.626   8.743
    1STR    H1D 5152  17.387   5.858   8.824
    1STR    H1E 5153  17.395   6.157   9.130
    1STR    H1F 5154   0.185   6.223   8.938
    1STR    H1G 5155   0.162   6.291   9.098
    1STR    H1H 5156   0.196   6.119   9.080
    1STR    H1I 5157  17.248   6.279   8.977
    1STR    H1J 5158  17.381   6.318   8.870
    1STR    H1K 5159  17.298   6.547   8.902
    1STR    H1M 5160  17.166   6.517   9.178
    1STR    H1N 5161  17.108   6.445   9.028
    1STR    H1O 5162  17.104   6.619   9.049
    1STR    H1P 5163  17.366   6.685   9.167
    1STR    H1Q 5164   0.033   6.677   9.029
    1STR    H1R 5165  17.342   6.936   9.146
    1STR    H1S 5166   0.087   7.050   9.015
    1STR    H1T 5167   0.065   6.933   8.886
    1STR    H1U 5168   0.123   6.882   9.045
    1STR    H1V 5169  17.155   7.026   9.004
    1STR    H1W 5170  17.260   7.031   8.865
    1STR    H1X 5171  17.338   7.373   9.088
    1STR    H1Y 5172  17.386   7.578   9.160
    1STR    H1Z 5173  17.421   7.815   9.121
    1STR    H20 5174   0.013   7.968   8.804
    1STR    H21 5175  17.303   8.019   8.883
    1STR    H22 5176   0.010   7.999   8.977
    1STR    H23 5177  17.345   7.770   8.613
    1STR    H27 5178  17.247   7.530   8.754
    1STR    H28 5179   0.078   5.692   9.130
    1STR    H29 5180   0.084   5.456   9.168
    1STR    H2A 5181  17.344   5.202   8.986
    1STR    H2B 5182  17.425   5.247   9.134
    1STR    H2C 5183   0.081   5.203   8.994
    1STR   BCK1 5184  17.372   5.241  12.913
    1STR    O03 5185  17.312   5.253  12.807
    1STR    N04 5186   0.012   5.338  12.964
    1STR    C05 5187   0.076   5.444  12.896
    1STR    C06 5188   0.063   5.583  12.930
    1STR    C07 5189   0.140   5.686  12.865
    1STR    N08 5190   0.132   5.825  12.900
    1STR    C09 5191   0.181   5.935  12.836
    1STR    O0A 5192   0.235   5.931  12.726
    1STR    O0B 5193   0.164   6.056  12.904
    1STR    C0C 5194   0.204   6.182  12.841
    1STR    C0D 5195   0.099   6.221  12.736
    1STR    C0E 5196   0.229   6.303  12.939
    1STR    O0F 5197   0.262   6.427  12.869
    1STR    C0G 5198   0.289   6.546  12.948
    1STR    C0H 5199   0.431   6.535  13.005
    1STR    C0I 5200   0.274   6.676  12.862
    1STR    O0J 5201   0.273   6.801  12.937
    1STR    C0K 5202   0.252   6.924  12.862
    1STR    C0M 5203   0.108   6.927  12.807
    1STR    C0N 5204   0.273   7.056  12.945
    1STR    O0O 5205   0.267   7.174  12.862
    1STR    C0P 5206   0.204   7.290  12.899
    1STR    O0Q 5207   0.135   7.305  12.999
    1STR    N0R 5208   0.233   7.388  12.812
    1STR    C0S 5209   0.205   7.526  12.803
    1STR    C0T 5210   0.308   7.604  12.748
    1STR    C0U 5211   0.293   7.743  12.730
    1STR    C0V 5212   0.174   7.809  12.765
    1STR    C0W 5213   0.176   7.960  12.753
    1STR    C0X 5214   0.063   7.735  12.815
    1STR    N0Y 5215  17.382   7.794  12.858
    1STR   BCK2 5216  17.301   7.900  12.834
    1STR    O10 5217  17.207   7.918  12.910
    1STR    C13 5218   0.083   7.593  12.837
    1STR    C14 5219   0.232   5.643  12.766
    1STR    C15 5220   0.247   5.508  12.733
    1STR    C16 5221   0.172   5.408  12.798
    1STR    C17 5222   0.203   5.263  12.766
    1STR    H1B 5223   0.044   5.319  13.058
    1STR    H1C 5224  17.433   5.610  13.007
    1STR    H1D 5225   0.083   5.849  12.985
    1STR    H1E 5226   0.299   6.164  12.789
    1STR    H1F 5227   0.002   6.240  12.782
    1STR    H1G 5228   0.128   6.311  12.682
    1STR    H1H 5229   0.086   6.143  12.661
    1STR    H1I 5230   0.311   6.276  13.006
    1STR    H1J 5231   0.141   6.319  13.001
    1STR    H1K 5232   0.217   6.552  13.029
    1STR    H1M 5233   0.505   6.522  12.926
    1STR    H1N 5234   0.442   6.452  13.074
    1STR    H1O 5235   0.458   6.626  13.060
    1STR    H1P 5236   0.353   6.680  12.787
    1STR    H1Q 5237   0.180   6.667  12.807
    1STR    H1R 5238   0.323   6.927  12.780
    1STR    H1S 5239   0.087   7.022  12.758
    1STR    H1T 5240   0.036   6.915  12.887
    1STR    H1U 5241   0.090   6.850  12.732
    1STR    H1V 5242   0.371   7.054  12.993
    1STR    H1W 5243   0.201   7.062  13.027
    1STR    H1X 5244   0.295   7.352  12.742
    1STR    H1Y 5245   0.403   7.560  12.721
    1STR    H1Z 5246   0.377   7.799  12.692
    1STR    H20 5247   0.136   7.989  12.656
    1STR    H21 5248   0.118   8.006  12.832
    1STR    H22 5249   0.277   8.000  12.760
    1STR    H23 5250  17.338   7.742  12.933
    1STR    H27 5251   0.003   7.534  12.879
    1STR    H28 5252   0.296   5.712  12.713
    1STR    H29 5253   0.320   5.480  12.658
    1STR    H2A 5254   0.216   5.205  12.858
    1STR    H2B 5255   0.294   5.253  12.708
    1STR    H2C 5256   0.121   5.219  12.709
    1STR   BCK1 5257  17.324   9.577  17.338
    1STR    O03 5258  17.432   9.522  17.355
    1STR    N04 5259  17.312   9.704  17.383
    1STR    C05 5260  17.211   9.799  17.412
    1STR    C06 5261  17.239   9.939  17.396
    1STR    C07 5262  17.150  10.042   0.001
    1STR    N08 5263  17.182  10.181  17.427
    1STR    C09 5264  17.110  10.292   0.019
    1STR    O0A 5265  16.998  10.289   0.069
    1STR    O0B 5266  17.176  10.410  17.431
    1STR    C0C 5267  17.113  10.538   0.025
    1STR    C0D 5268  17.132  10.567   0.175
    1STR    C0E 5269  17.165  10.657  17.378
    1STR    O0F 5270  17.095  10.780  17.408
    1STR    C0G 5271  17.128  10.896  17.328
    1STR    C0H 5272  17.062  10.882  17.190
    1STR    C0I 5273  17.081  11.028  17.396
    1STR    O0J 5274  17.124  11.146  17.324
    1STR    C0K 5275  17.082  11.274  17.374
    1STR    C0M 5276  17.151  11.304   0.068
    1STR    C0N 5277  17.113  11.389  17.272
    1STR    O0O 5278  17.049  11.512  17.312
    1STR    C0P 5279  17.105  11.633  17.288
    1STR    O0Q 5280  17.211  11.654  17.231
    1STR    N0R 5281  17.027  11.728  17.341
    1STR    C0S 5282  17.043  11.865  17.365
    1STR    C0T 5283  16.984  11.911   0.044
    1STR    C0U 5284  16.993  12.045   0.081
    1STR    C0V 5285  17.055  12.140  17.438
    1STR    C0W 5286  17.057  12.282   0.053
    1STR    C0X 5287  17.107  12.101  17.311
    1STR    N0Y 5288  17.144  12.192  17.209
    1STR   BCK2 5289  17.181  12.322  17.202
    1STR    O10 5290  17.216  12.393  17.295
    1STR    C13 5291  17.104  11.961  17.279
    1STR    C14 5292  17.030   9.999   0.063
    1STR    C15 5293  17.002   9.862   0.081
    1STR    C16 5294  17.092   9.762   0.039
    1STR    C17 5295  17.059   9.619   0.077
    1STR    H1B 5296  17.404   9.735  17.408
    1STR    H1C 5297  17.332   9.968  17.350
    1STR    H1D 5298  17.271  10.204  17.388
    1STR    H1E 5299  17.006  10.529   0.005
    1STR    H1F 5300  17.237  10.579   0.201
    1STR    H1G 5301  17.081  10.660   0.202
    1STR    H1H 5302  17.090  10.488   0.237
    1STR    H1I 5303  17.152  10.631  17.274
    1STR    H1J 5304  17.272  10.671  17.394
    1STR    H1K 5305  17.237  10.902  17.317
    1STR    H1M 5306  16.955  10.868  17.199
    1STR    H1N 5307  17.102  10.797  17.134
    1STR    H1O 5308  17.079  10.971  17.130
    1STR    H1P 5309  16.972  11.028  17.405
    1STR    H1Q 5310  17.120  11.030   0.058
    1STR    H1R 5311  16.973  11.272  17.389
    1STR    H1S 5312  17.127  11.405   0.103
    1STR    H1T 5313  17.260  11.299   0.057
    1STR    H1U 5314  17.122  11.236   0.147
    1STR    H1V 5315  17.075  11.363  17.173
    1STR    H1W 5316  17.220  11.402  17.262
    1STR    H1X 5317  16.945  11.685  17.380
    1STR    H1Y 5318  16.934  11.842   0.111
    1STR    H1Z 5319  16.950  12.075   0.175
    1STR    H20 5320  17.161  12.311   0.073
    1STR    H21 5321  17.011  12.352  17.425
    1STR    H22 5322  17.006  12.290   0.149
    1STR    H23 5323  17.139  12.153  17.116
    1STR    H27 5324  17.146  11.926  17.186
    1STR    H28 5325  16.957  10.068   0.102
    1STR    H29 5326  16.911   9.835   0.132
    1STR    H2A 5327  17.011   9.569  17.434
    1STR    H2B 5328  16.991   9.616   0.162
    1STR    H2C 5329  17.149   9.565   0.106
    1STR   BCK1 5330   0.010   9.599   4.295
    1STR    O03 5331   0.114   9.536   4.279
    1STR    N04 5332   0.001   9.722   4.352
    1STR    C05 5333   0.097   9.809   4.414
    1STR    C06 5334   0.080   9.952   4.410
    1STR    C07 5335   0.170  10.046   4.472
    1STR    N08 5336   0.148  10.188   4.472
    1STR    C09 5337   0.223  10.291   4.519
    1STR    O0A 5338   0.335  10.276   4.567
    1STR    O0B 5339   0.165  10.417   4.507
    1STR    C0C 5340   0.239  10.538   4.544
    1STR    C0D 5341   0.340  10.570   4.432
    1STR    C0E 5342   0.149  10.664   4.574
    1STR    O0F 5343   0.223  10.787   4.598
    1STR    C0G 5344   0.147  10.906   4.635
    1STR    C0H 5345   0.109  10.895   4.783
    1STR    C0I 5346   0.223  11.041   4.609
    1STR    O0J 5347   0.138  11.160   4.616
    1STR    C0K 5348   0.198  11.291   4.596
    1STR    C0M 5349   0.258  11.300   4.455
    1STR    C0N 5350   0.095  11.409   4.614
    1STR    O0O 5351   0.152  11.541   4.596
    1STR    C0P 5352   0.081  11.647   4.543
    1STR    O0Q 5353  17.409  11.640   4.494
    1STR    N0R 5354   0.152  11.760   4.555
    1STR    C0S 5355   0.136  11.896   4.519
    1STR    C0T 5356   0.231  11.982   4.578
    1STR    C0U 5357   0.239  12.118   4.543
    1STR    C0V 5358   0.152  12.173   4.447
    1STR    C0W 5359   0.182  12.316   4.403
    1STR    C0X 5360   0.047  12.095   4.391
    1STR    N0Y 5361  17.402  12.151   4.293
    1STR   BCK2 5362  17.337  12.270   4.289
    1STR    O10 5363  17.327  12.347   4.385
    1STR    C13 5364   0.043  11.955   4.427
    1STR    C14 5365   0.283   9.990   4.535
    1STR    C15 5366   0.301   9.851   4.544
    1STR    C16 5367   0.209   9.761   4.489
    1STR    C17 5368   0.233   9.615   4.522
    1STR    H1B 5369  17.348   9.759   4.346
    1STR    H1C 5370  17.434   9.991   4.358
    1STR    H1D 5371   0.061  10.220   4.433
    1STR    H1E 5372   0.296  10.516   4.635
    1STR    H1F 5373   0.290  10.592   4.338
    1STR    H1G 5374   0.401  10.657   4.459
    1STR    H1H 5375   0.409  10.487   4.415
    1STR    H1I 5376   0.088  10.640   4.661
    1STR    H1J 5377   0.081  10.679   4.491
    1STR    H1K 5378   0.056  10.909   4.574
    1STR    H1M 5379   0.197  10.883   4.846
    1STR    H1N 5380   0.043  10.810   4.803
    1STR    H1O 5381   0.056  10.984   4.817
    1STR    H1P 5382   0.306  11.050   4.679
    1STR    H1Q 5383   0.268  11.035   4.510
    1STR    H1R 5384   0.278  11.304   4.670
    1STR    H1S 5385   0.298  11.400   4.436
    1STR    H1T 5386   0.183  11.280   4.379
    1STR    H1U 5387   0.341  11.232   4.440
    1STR    H1V 5388   0.053  11.405   4.715
    1STR    H1W 5389   0.010  11.395   4.547
    1STR    H1X 5390   0.237  11.739   4.603
    1STR    H1Y 5391   0.302  11.945   4.650
    1STR    H1Z 5392   0.315  12.179   4.587
    1STR    H20 5393   0.160  12.330   4.297
    1STR    H21 5394   0.123  12.387   4.460
    1STR    H22 5395   0.287  12.340   4.416
    1STR    H23 5396  17.387  12.095   4.210
    1STR    H27 5397  17.408  11.891   4.382
    1STR    H28 5398   0.359  10.050   4.583
    1STR    H29 5399   0.388   9.814   4.597
    1STR    H2A 5400   0.139   9.560   4.534
    1STR    H2B 5401   0.288   9.604   4.615
    1STR    H2C 5402   0.293   9.567   4.444
    1STR   BCK1 5403  17.305   9.589   8.594
    1STR    O03 5404  17.183   9.599   8.582
    1STR    N04 5405  17.390   9.691   8.570
    1STR    C05 5406  17.364   9.803   8.488
    1STR    C06 5407  17.380   9.939   8.530
    1STR    C07 5408  17.361  10.050   8.440
    1STR    N08 5409  17.383  10.185   8.478
    1STR    C09 5410  17.355  10.300   8.411
    1STR    O0A 5411  17.293  10.304   8.305
    1STR    O0B 5412  17.401  10.416   8.471
    1STR    C0C 5413  17.374  10.545   8.409
    1STR    C0D 5414  17.228  10.585   8.436
    1STR    C0E 5415   0.031  10.660   8.451
    1STR    O0F 5416  17.438  10.784   8.384
    1STR    C0G 5417   0.080  10.900   8.410
    1STR    C0H 5418   0.210  10.887   8.331
    1STR    C0I 5419   0.004  11.031   8.371
    1STR    O0J 5420   0.068  11.153   8.416
    1STR    C0K 5421   0.001  11.277   8.383
    1STR    C0M 5422  17.308  11.288   8.460
    1STR    C0N 5423   0.086  11.404   8.414
    1STR    O0O 5424   0.025  11.519   8.352
    1STR    C0P 5425   0.027  11.644   8.406
    1STR    O0Q 5426   0.063  11.674   8.519
    1STR    N0R 5427  17.425  11.730   8.313
    1STR    C0S 5428  17.410  11.869   8.300
    1STR    C0T 5429  17.437  11.916   8.170
    1STR    C0U 5430  17.408  12.048   8.135
    1STR    C0V 5431  17.350  12.137   8.227
    1STR    C0W 5432  17.307  12.269   8.167
    1STR    C0X 5433  17.327  12.097   8.362
    1STR    N0Y 5434  17.259  12.175   8.459
    1STR   BCK2 5435  17.221  12.302   8.488
    1STR    O10 5436  17.139  12.317   8.578
    1STR    C13 5437  17.359  11.962   8.396
    1STR    C14 5438  17.325  10.017   8.307
    1STR    C15 5439  17.310   9.884   8.265
    1STR    C16 5440  17.333   9.777   8.352
    1STR    C17 5441  17.329   9.636   8.295
    1STR    H1B 5442   0.046   9.673   8.594
    1STR    H1C 5443  17.408   9.958   8.633
    1STR    H1D 5444  17.426  10.203   8.568
    1STR    H1E 5445  17.386  10.533   8.301
    1STR    H1F 5446  17.209  10.600   8.542
    1STR    H1G 5447  17.203  10.678   8.384
    1STR    H1H 5448  17.158  10.509   8.400
    1STR    H1I 5449   0.133  10.631   8.427
    1STR    H1J 5450   0.026  10.675   8.559
    1STR    H1K 5451   0.101  10.905   8.517
    1STR    H1M 5452   0.191  10.875   8.224
    1STR    H1N 5453   0.270  10.802   8.363
    1STR    H1O 5454   0.272  10.977   8.342
    1STR    H1P 5455  17.430  11.034   8.262
    1STR    H1Q 5456  17.344  11.024   8.414
    1STR    H1R 5457  17.421  11.277   8.275
    1STR    H1S 5458  17.262  11.385   8.443
    1STR    H1T 5459  17.325  11.277   8.567
    1STR    H1U 5460  17.235  11.213   8.429
    1STR    H1V 5461   0.186  11.393   8.373
    1STR    H1W 5462   0.098  11.419   8.521
    1STR    H1X 5463  17.406  11.677   8.229
    1STR    H1Y 5464   0.037  11.850   8.095
    1STR    H1Z 5465  17.427  12.079   8.034
    1STR    H20 5466  17.207  12.295   8.201
    1STR    H21 5467  17.379  12.347   8.193
    1STR    H22 5468  17.302  12.266   8.058
    1STR    H23 5469  17.223  12.119   8.535
    1STR    H27 5470  17.340  11.924   8.495
    1STR    H28 5471  17.309  10.091   8.231
    1STR    H29 5472  17.285   9.865   8.162
    1STR    H2A 5473  17.414   9.579   8.330
    1STR    H2B 5474  17.332   9.637   8.187
    1STR    H2C 5475  17.238   9.585   8.327
    1STR   BCK1 5476  17.310   9.584  13.055
    1STR    O03 5477  17.385   9.522  13.129
    1STR    N04 5478  17.269   9.711  13.075
    1STR    C05 5479  17.283   9.802  13.184
    1STR    C06 5480  17.290   9.944  13.161
    1STR    C07 5481  17.292  10.042  13.266
    1STR    N08 5482  17.293  10.183  13.241
    1STR    C09 5483  17.264  10.287  13.323
    1STR    O0A 5484  17.225  10.274  13.439
    1STR    O0B 5485  17.280  10.412  13.265
    1STR    C0C 5486  17.262  10.534  13.343
    1STR    C0D 5487  17.388  10.561  13.426
    1STR    C0E 5488  17.226  10.659  13.255
    1STR    O0F 5489  17.208  10.782  13.330
    1STR    C0G 5490  17.164  10.899  13.257
    1STR    C0H 5491  17.014  10.885  13.227
    1STR    C0I 5492  17.191  11.033  13.332
    1STR    O0J 5493  17.163  11.150  13.250
    1STR    C0K 5494  17.178  11.281  13.309
    1STR    C0M 5495  17.325  11.308  13.344
    1STR    C0N 5496  17.127  11.393  13.212
    1STR    O0O 5497  17.130  11.525  13.271
    1STR    C0P 5498  17.145  11.638  13.196
    1STR    O0Q 5499  17.165  11.641  13.075
    1STR    N0R 5500  17.138  11.746  13.274
    1STR    C0S 5501  17.157  11.885  13.255
    1STR    C0T 5502  17.168  11.960  13.374
    1STR    C0U 5503  17.195  12.098  13.372
    1STR    C0V 5504  17.211  12.166  13.250
    1STR    C0W 5505  17.253  12.312  13.253
    1STR    C0X 5506  17.193  12.096  13.128
    1STR    N0Y 5507  17.211  12.169  13.009
    1STR   BCK2 5508  17.129  12.264  12.958
    1STR    O10 5509  17.018  12.289  13.003
    1STR    C13 5510  17.169  11.955  13.131
    1STR    C14 5511  17.293   9.992  13.398
    1STR    C15 5512  17.286   9.855  13.424
    1STR    C16 5513  17.277   9.760  13.320
    1STR    C17 5514  17.255   9.616  13.364
    1STR    H1B 5515  17.219   9.747  12.996
    1STR    H1C 5516  17.291   9.979  13.059
    1STR    H1D 5517  17.319  10.214  13.149
    1STR    H1E 5518  17.178  10.518  13.411
    1STR    H1F 5519   0.035  10.577  13.363
    1STR    H1G 5520  17.375  10.650  13.488
    1STR    H1H 5521  17.410  10.478  13.493
    1STR    H1I 5522  17.135  10.636  13.200
    1STR    H1J 5523  17.304  10.674  13.181
    1STR    H1K 5524  17.220  10.904  13.163
    1STR    H1M 5525  16.957  10.872  13.320
    1STR    H1N 5526  16.992  10.801  13.162
    1STR    H1O 5527  16.976  10.975  13.178
    1STR    H1P 5528  17.131  11.037  13.424
    1STR    H1Q 5529  17.295  11.035  13.364
    1STR    H1R 5530  17.118  11.286  13.400
    1STR    H1S 5531  17.339  11.409  13.380
    1STR    H1T 5532  17.389  11.296  13.256
    1STR    H1U 5533  17.362  11.241  13.421
    1STR    H1V 5534  17.024  11.373  13.182
    1STR    H1W 5535  17.185  11.392  13.120
    1STR    H1X 5536  17.118  11.717  13.368
    1STR    H1Y 5537  17.158  11.912  13.471
    1STR    H1Z 5538  17.207  12.151  13.465
    1STR    H20 5539  17.350  12.323  13.204
    1STR    H21 5540  17.181  12.374  13.201
    1STR    H22 5541  17.262  12.350  13.355
    1STR    H23 5542  17.300  12.159  12.962
    1STR    H27 5543  17.160  11.900  13.038
    1STR    H28 5544  17.299  10.058  13.483
    1STR    H29 5545  17.284   9.822  13.527
    1STR    H2A 5546  17.190   9.563  13.294
    1STR    H2B 5547  17.207   9.611  13.461
    1STR    H2C 5548  17.350   9.564  13.371
    1STR   BCK1 5549  17.428  13.961  17.268
    1STR    O03 5550   0.063  13.907  17.188
    1STR    N04 5551   0.013  14.080  17.331
    1STR    C05 5552   0.123  14.170  17.326
    1STR    C06 5553   0.103  14.312  17.342
    1STR    C07 5554   0.209  14.409  17.339
    1STR    N08 5555   0.189  14.549  17.361
    1STR    C09 5556   0.271  14.655  17.335
    1STR    O0A 5557   0.378  14.644  17.276
    1STR    O0B 5558   0.224  14.778  17.380
    1STR    C0C 5559   0.297  14.901  17.350
    1STR    C0D 5560   0.267  14.939  17.203
    1STR    C0E 5561   0.266  15.024   0.004
    1STR    O0F 5562   0.329  15.148  17.402
    1STR    C0G 5563   0.310  15.267   0.043
    1STR    C0H 5564   0.401  15.257   0.166
    1STR    C0I 5565   0.341  15.399  17.403
    1STR    O0J 5566   0.297  15.523   0.028
    1STR    C0K 5567   0.317  15.648  17.397
    1STR    C0M 5568   0.233  15.650  17.269
    1STR    C0N 5569   0.281  15.776   0.041
    1STR    O0O 5570   0.311  15.900  17.411
    1STR    C0P 5571   0.229  16.011  17.414
    1STR    O0Q 5572   0.117  16.015   0.024
    1STR    N0R 5573   0.290  16.115  17.356
    1STR    C0S 5574   0.258  16.251  17.332
    1STR    C0T 5575   0.369  16.336  17.312
    1STR    C0U 5576   0.351  16.472  17.284
    1STR    C0V 5577   0.224  16.530  17.274
    1STR    C0W 5578   0.220  16.680  17.251
    1STR    C0X 5579   0.107  16.449  17.292
    1STR    N0Y 5580  17.415  16.500  17.296
    1STR   BCK2 5581  17.336  16.602  17.254
    1STR    O10 5582  17.222  16.606  17.298
    1STR    C13 5583   0.128  16.310  17.323
    1STR    C14 5584   0.339  14.357  17.317
    1STR    C15 5585   0.362  14.219  17.307
    1STR    C16 5586   0.258  14.126  17.316
    1STR    C17 5587   0.300  13.980  17.323
    1STR    H1B 5588  17.375  14.108  17.388
    1STR    H1C 5589   0.002  14.348  17.356
    1STR    H1D 5590   0.103  14.577  17.402
    1STR    H1E 5591   0.403  14.881  17.358
    1STR    H1F 5592   0.162  14.960  17.188
    1STR    H1G 5593   0.324  15.028  17.174
    1STR    H1H 5594   0.296  14.859  17.135
    1STR    H1I 5595   0.298  14.998   0.105
    1STR    H1J 5596   0.158  15.039   0.009
    1STR    H1K 5597   0.206  15.272   0.074
    1STR    H1M 5598   0.506  15.244   0.138
    1STR    H1N 5599   0.375  15.173   0.231
    1STR    H1O 5600   0.395  15.347   0.227
    1STR    H1P 5601   0.448  15.406  17.382
    1STR    H1Q 5602   0.291  15.390  17.307
    1STR    H1R 5603   0.423  15.656  17.371
    1STR    H1S 5604   0.240  15.747  17.219
    1STR    H1T 5605   0.127  15.634  17.292
    1STR    H1U 5606   0.264  15.576  17.196
    1STR    H1V 5607   0.338  15.777   0.134
    1STR    H1W 5608   0.176  15.774   0.070
    1STR    H1X 5609   0.383  16.087  17.329
    1STR    H1Y 5610   0.470  16.298  17.320
    1STR    H1Z 5611   0.439  16.534  17.271
    1STR    H20 5612   0.198  16.700  17.146
    1STR    H21 5613   0.144  16.727  17.314
    1STR    H22 5614   0.315  16.727  17.274
    1STR    H23 5615  17.354  16.441  17.350
    1STR    H27 5616   0.043  16.246  17.340
    1STR    H28 5617   0.426  14.421  17.312
    1STR    H29 5618   0.464  14.185  17.294
    1STR    H2A 5619   0.232  13.922  17.385
    1STR    H2B 5620   0.399  13.970  17.367
    1STR    H2C 5621   0.304  13.937  17.223
    1STR   BCK1 5622  17.339  13.929   4.247
    1STR    O03 5623  17.416  13.871   4.322
    1STR    N04 5624  17.315  14.060   4.272
    1STR    C05 5625  17.223  14.161   4.235
    1STR    C06 5626  17.264  14.298   4.237
    1STR    C07 5627  17.174  14.408   4.215
    1STR    N08 5628  17.217  14.544   4.220
    1STR    C09 5629  17.145  14.659   4.206
    1STR    O0A 5630  17.024  14.662   4.186
    1STR    O0B 5631  17.220  14.775   4.217
    1STR    C0C 5632  17.153  14.904   4.210
    1STR    C0D 5633  17.088  14.936   4.346
    1STR    C0E 5634  17.244  15.022   4.164
    1STR    O0F 5635  17.170  15.146   4.151
    1STR    C0G 5636  17.240  15.261   4.100
    1STR    C0H 5637  17.257  15.245   3.948
    1STR    C0I 5638  17.162  15.393   4.131
    1STR    O0J 5639  17.235  15.512   4.093
    1STR    C0K 5640  17.169  15.640   4.114
    1STR    C0M 5641  17.156  15.669   4.264
    1STR    C0N 5642  17.245  15.757   4.044
    1STR    O0O 5643  17.163  15.875   4.034
    1STR    C0P 5644  17.210  16.000   4.063
    1STR    O0Q 5645  17.322  16.028   4.104
    1STR    N0R 5646  17.111  16.089   4.045
    1STR    C0S 5647  17.095  16.223   4.083
    1STR    C0T 5648  16.970  16.255   4.139
    1STR    C0U 5649  16.944  16.383   4.189
    1STR    C0V 5650  17.041  16.485   4.181
    1STR    C0W 5651  17.016  16.613   4.260
    1STR    C0X 5652  17.162  16.462   4.112
    1STR    N0Y 5653  17.258  16.564   4.102
    1STR   BCK2 5654  17.252  16.692   4.060
    1STR    O10 5655  17.344  16.768   4.087
    1STR    C13 5656  17.191  16.328   4.069
    1STR    C14 5657  17.039  14.373   4.191
    1STR    C15 5658  16.996  14.240   4.191
    1STR    C16 5659  17.085  14.134   4.216
    1STR    C17 5660  17.023  13.996   4.231
    1STR    H1B 5661  17.382  14.089   4.342
    1STR    H1C 5662  17.368  14.320   4.256
    1STR    H1D 5663  17.314  14.563   4.238
    1STR    H1E 5664  17.073  14.897   4.135
    1STR    H1F 5665  17.163  14.947   4.425
    1STR    H1G 5666  17.032  15.029   4.341
    1STR    H1H 5667  17.018  14.858   4.376
    1STR    H1I 5668  17.290  14.995   4.069
    1STR    H1J 5669  17.326  15.036   4.235
    1STR    H1K 5670  17.337  15.269   4.148
    1STR    H1M 5671  17.161  15.231   3.899
    1STR    H1N 5672  17.321  15.161   3.922
    1STR    H1O 5673  17.303  15.334   3.905
    1STR    H1P 5674  17.065  15.391   4.081
    1STR    H1Q 5675  17.141  15.395   4.238
    1STR    H1R 5676  17.070  15.634   4.069
    1STR    H1S 5677  17.116  15.769   4.281
    1STR    H1T 5678  17.254  15.665   4.313
    1STR    H1U 5679  17.090  15.599   4.315
    1STR    H1V 5680  17.273  15.728   3.943
    1STR    H1W 5681  17.339  15.778   4.096
    1STR    H1X 5682  17.029  16.043   4.009
    1STR    H1Y 5683  16.894  16.180   4.149
    1STR    H1Z 5684  16.850  16.402   4.239
    1STR    H20 5685  17.106  16.643   4.312
    1STR    H21 5686  16.983  16.695   4.196
    1STR    H22 5687  16.938  16.599   4.335
    1STR    H23 5688  17.350  16.542   4.136
    1STR    H27 5689  17.287  16.305   4.024
    1STR    H28 5690  16.963  14.446   4.173
    1STR    H29 5691  16.891  14.220   4.176
    1STR    H2A 5692  17.024  13.945   4.135
    1STR    H2B 5693  16.919  14.003   4.264
    1STR    H2C 5694  17.075  13.936   4.305
    1STR   BCK1 5695  17.403  13.954   8.705
    1STR    O03 5696   0.066  13.890   8.725
    1STR    N04 5697  17.380  14.080   8.753
    1STR    C05 5698   0.011  14.167   8.841
    1STR    C06 5699  -0.000  14.310   8.828
    1STR    C07 5700   0.064  14.404   8.916
    1STR    N08 5701   0.047  14.546   8.904
    1STR    C09 5702   0.089  14.649   8.983
    1STR    O0A 5703   0.156  14.633   9.085
    1STR    O0B 5704   0.052  14.775   8.939
    1STR    C0C 5705   0.098  14.896   9.008
    1STR    C0D 5706   0.243  14.925   8.966
    1STR    C0E 5707   0.008  15.023   8.985
    1STR    O0F 5708   0.057  15.146   9.045
    1STR    C0G 5709  17.412  15.264   9.036
    1STR    C0H 5710  17.301  15.251   9.141
    1STR    C0I 5711   0.049  15.400   9.056
    1STR    O0J 5712  17.409  15.517   9.021
    1STR    C0K 5713   0.025  15.650   9.038
    1STR    C0M 5714   0.150  15.667   8.950
    1STR    C0N 5715  17.362  15.763   9.003
    1STR    O0O 5716  17.413  15.898   9.022
    1STR    C0P 5717  17.368  16.005   8.947
    1STR    O0Q 5718  17.292  15.998   8.851
    1STR    N0R 5719  17.422  16.119   8.993
    1STR    C0S 5720  17.422  16.256   8.955
    1STR    C0T 5721   0.056  16.339   9.041
    1STR    C0U 5722   0.077  16.474   9.012
    1STR    C0V 5723   0.021  16.533   8.897
    1STR    C0W 5724   0.065  16.675   8.865
    1STR    C0X 5725  17.375  16.458   8.813
    1STR    N0Y 5726  17.319  16.517   8.697
    1STR   BCK2 5727  17.257  16.638   8.682
    1STR    O10 5728  17.223  16.710   8.775
    1STR    C13 5729  17.359  16.317   8.842
    1STR    C14 5730   0.146  14.349   9.017
    1STR    C15 5731   0.157  14.210   9.034
    1STR    C16 5732   0.088  14.119   8.952
    1STR    C17 5733   0.096  13.974   8.994
    1STR    H1B 5734  17.295  14.118   8.715
    1STR    H1C 5735  17.379  14.349   8.748
    1STR    H1D 5736  17.434  14.580   8.826
    1STR    H1E 5737   0.098  14.876   9.116
    1STR    H1F 5738   0.251  14.945   8.859
    1STR    H1G 5739   0.283  15.012   9.019
    1STR    H1H 5740   0.309  14.841   8.989
    1STR    H1I 5741  17.349  15.000   9.024
    1STR    H1J 5742  17.436  15.039   8.878
    1STR    H1K 5743  17.369  15.267   8.936
    1STR    H1M 5744  17.342  15.239   9.241
    1STR    H1N 5745  17.235  15.167   9.121
    1STR    H1O 5746  17.238  15.341   9.141
    1STR    H1P 5747   0.083  15.408   9.159
    1STR    H1Q 5748   0.139  15.397   8.994
    1STR    H1R 5749   0.054  15.661   9.143
    1STR    H1S 5750   0.189  15.768   8.958
    1STR    H1T 5751   0.126  15.649   8.845
    1STR    H1U 5752   0.231  15.600   8.979
    1STR    H1V 5753  17.274  15.753   9.067
    1STR    H1W 5754  17.327  15.751   8.901
    1STR    H1X 5755   0.037  16.097   9.074
    1STR    H1Y 5756   0.103  16.299   9.130
    1STR    H1Z 5757   0.139  16.533   9.078
    1STR    H20 5758   0.072  16.691   8.757
    1STR    H21 5759  17.434  16.747   8.906
    1STR    H22 5760   0.163  16.697   8.907
    1STR    H23 5761  17.327  16.465   8.611
    1STR    H27 5762  17.299  16.255   8.777
    1STR    H28 5763   0.202  14.410   9.086
    1STR    H29 5764   0.218  14.174   9.115
    1STR    H2A 5765   0.003  13.921   8.974
    1STR    H2B 5766   0.115  13.964   9.101
    1STR    H2C 5767   0.178  13.924   8.942
    1STR   BCK1 5768  17.337  13.957  12.916
    1STR    O03 5769  17.248  13.969  12.832
    1STR    N04 5770  17.427  14.054  12.944
    1STR    C05 5771   0.024  14.163  12.861
    1STR    C06 5772   0.020  14.301  12.902
    1STR    C07 5773   0.067  14.407  12.817
    1STR    N08 5774   0.069  14.545  12.857
    1STR    C09 5775   0.088  14.656  12.782
    1STR    O0A 5776   0.097  14.655  12.659
    1STR    O0B 5777   0.096  14.775  12.853
    1STR    C0C 5778   0.110  14.903  12.783
    1STR    C0D 5779  17.414  14.943  12.724
    1STR    C0E 5780   0.169  15.021  12.867
    1STR    O0F 5781   0.176  15.145  12.792
    1STR    C0G 5782   0.229  15.263  12.856
    1STR    C0H 5783   0.382  15.252  12.862
    1STR    C0I 5784   0.186  15.393  12.780
    1STR    O0J 5785   0.213  15.518  12.850
    1STR    C0K 5786   0.168  15.640  12.786
    1STR    C0M 5787   0.015  15.645  12.786
    1STR    C0N 5788   0.221  15.771  12.852
    1STR    O0O 5789   0.190  15.886  12.770
    1STR    C0P 5790   0.149  16.007  12.821
    1STR    O0Q 5791   0.120  16.029  12.938
    1STR    N0R 5792   0.150  16.099  12.724
    1STR    C0S 5793   0.130  16.239  12.720
    1STR    C0T 5794   0.222  16.310  12.641
    1STR    C0U 5795   0.212  16.449  12.626
    1STR    C0V 5796   0.109  16.522  12.688
    1STR    C0W 5797   0.118  16.673  12.676
    1STR    C0X 5798   0.008  16.455  12.762
    1STR    N0Y 5799  17.343  16.521  12.830
    1STR   BCK2 5800  17.263  16.630  12.815
    1STR    O10 5801  17.188  16.658  12.908
    1STR    C13 5802   0.024  16.313  12.781
    1STR    C14 5803   0.120  14.368  12.692
    1STR    C15 5804   0.127  14.234  12.652
    1STR    C16 5805   0.082  14.131  12.736
    1STR    C17 5806   0.104  13.987  12.692
    1STR    H1B 5807   0.047  14.035  13.023
    1STR    H1C 5808  17.419  14.325  12.999
    1STR    H1D 5809   0.054  14.566  12.954
    1STR    H1E 5810   0.180  14.887  12.700
    1STR    H1F 5811  17.340  14.960  12.802
    1STR    H1G 5812  17.422  15.034  12.665
    1STR    H1H 5813  17.375  14.866  12.657
    1STR    H1I 5814   0.268  14.993  12.903
    1STR    H1J 5815   0.107  15.037  12.956
    1STR    H1K 5816   0.189  15.269  12.958
    1STR    H1M 5817   0.424  15.238  12.762
    1STR    H1N 5818   0.415  15.168  12.923
    1STR    H1O 5819   0.426  15.342  12.905
    1STR    H1P 5820   0.234  15.395  12.682
    1STR    H1Q 5821   0.079  15.384  12.762
    1STR    H1R 5822   0.205  15.639  12.683
    1STR    H1S 5823  17.419  15.741  12.747
    1STR    H1T 5824  17.416  15.636  12.887
    1STR    H1U 5825  17.409  15.568  12.724
    1STR    H1V 5826   0.329  15.767  12.864
    1STR    H1W 5827   0.180  15.783  12.953
    1STR    H1X 5828   0.183  16.057  12.639
    1STR    H1Y 5829   0.304  16.259  12.593
    1STR    H1Z 5830   0.287  16.501  12.568
    1STR    H20 5831   0.065  16.707  12.587
    1STR    H21 5832   0.077  16.722  12.764
    1STR    H22 5833   0.221  16.706  12.667
    1STR    H23 5834  17.316  16.476  12.915
    1STR    H27 5835  17.393  16.258  12.841
    1STR    H28 5836   0.160  14.439  12.622
    1STR    H29 5837   0.170  14.210  12.556
    1STR    H2A 5838   0.147  13.928  12.773
    1STR    H2B 5839   0.172  13.981  12.607
    1STR    H2C 5840   0.009  13.942  12.663
    1STR   BCK1 5841   4.209   0.862  17.372
    1STR    O03 5842   4.254   0.808   0.032
    1STR    N04 5843   4.166   0.991  17.366
    1STR    C05 5844   4.137   1.086   0.028
    1STR    C06 5845   4.160   1.225   0.006
    1STR    C07 5846   4.115   1.327   0.097
    1STR    N08 5847   4.134   1.466   0.072
    1STR    C09 5848   4.069   1.574   0.124
    1STR    O0A 5849   3.975   1.565   0.202
    1STR    O0B 5850   4.118   1.695   0.080
    1STR    C0C 5851   4.064   1.820   0.133
    1STR    C0D 5852   4.130   1.849   0.270
    1STR    C0E 5853   4.082   1.941   0.037
    1STR    O0F 5854   4.026   2.065   0.089
    1STR    C0G 5855   4.029   2.180   0.002
    1STR    C0H 5856   3.919   2.165  17.335
    1STR    C0I 5857   4.008   2.314   0.081
    1STR    O0J 5858   4.025   2.431  17.438
    1STR    C0K 5859   4.004   2.561   0.058
    1STR    C0M 5860   4.114   2.589   0.162
    1STR    C0N 5861   4.004   2.675  17.391
    1STR    O0O 5862   3.964   2.801   0.008
    1STR    C0P 5863   4.010   2.920  17.400
    1STR    O0Q 5864   4.091   2.934  17.308
    1STR    N0R 5865   3.957   3.021   0.031
    1STR    C0S 5866   3.979   3.160   0.035
    1STR    C0T 5867   3.939   3.223   0.155
    1STR    C0U 5868   3.962   3.360   0.176
    1STR    C0V 5869   4.020   3.440   0.076
    1STR    C0W 5870   4.053   3.584   0.109
    1STR    C0X 5871   4.052   3.382  17.390
    1STR    N0Y 5872   4.104   3.464  17.288
    1STR   BCK2 5873   4.030   3.556  17.224
    1STR    O10 5874   3.979   3.526  17.117
    1STR    C13 5875   4.035   3.242  17.372
    1STR    C14 5876   4.050   1.283   0.214
    1STR    C15 5877   4.026   1.147   0.238
    1STR    C16 5878   4.066   1.048   0.146
    1STR    C17 5879   4.024   0.906   0.177
    1STR    H1B 5880   4.148   1.021  17.272
    1STR    H1C 5881   4.212   1.256  17.357
    1STR    H1D 5882   4.205   1.493   0.006
    1STR    H1E 5883   3.957   1.807   0.149
    1STR    H1F 5884   4.237   1.863   0.261
    1STR    H1G 5885   4.088   1.940   0.314
    1STR    H1H 5886   4.112   1.768   0.340
    1STR    H1I 5887   4.034   1.916  17.382
    1STR    H1J 5888   4.188   1.956   0.015
    1STR    H1K 5889   4.127   2.186  17.394
    1STR    H1M 5890   3.821   2.151  17.381
    1STR    H1N 5891   3.937   2.081  17.269
    1STR    H1O 5892   3.914   2.255  17.273
    1STR    H1P 5893   3.908   2.315   0.126
    1STR    H1Q 5894   4.079   2.316   0.164
    1STR    H1R 5895   3.907   2.561   0.107
    1STR    H1S 5896   4.105   2.690   0.202
    1STR    H1T 5897   4.213   2.581   0.117
    1STR    H1U 5898   4.110   2.521   0.247
    1STR    H1V 5899   3.933   2.652  17.311
    1STR    H1W 5900   4.102   2.683  17.344
    1STR    H1X 5901   3.893   2.984   0.098
    1STR    H1Y 5902   3.895   3.166   0.235
    1STR    H1Z 5903   3.935   3.403   0.271
    1STR    H20 5904   4.160   3.602   0.093
    1STR    H21 5905   3.997   3.653   0.047
    1STR    H22 5906   4.031   3.608   0.213
    1STR    H23 5907   4.164   3.414  17.224
    1STR    H27 5908   4.063   3.195  17.279
    1STR    H28 5909   4.015   1.352   0.289
    1STR    H29 5910   3.973   1.119   0.328
    1STR    H2A 5911   3.995   0.852   0.087
    1STR    H2B 5912   3.938   0.904   0.244
    1STR    H2C 5913   4.105   0.853   0.226
    1STR   BCK1 5914   4.373   0.880   4.254
    1STR    O03 5915   4.471   0.821   4.209
    1STR    N04 5916   4.377   1.001   4.316
    1STR    C05 5917   4.484   1.089   4.353
    1STR    C06 5918   4.464   1.232   4.357
    1STR    C07 5919   4.566   1.326   4.395
    1STR    N08 5920   4.543   1.467   4.405
    1STR    C09 5921   4.629   1.571   4.425
    1STR    O0A 5922   4.751   1.557   4.432
    1STR    O0B 5923   4.570   1.696   4.436
    1STR    C0C 5924   4.651   1.818   4.447
    1STR    C0D 5925   4.707   1.852   4.308
    1STR    C0E 5926   4.576   1.943   4.508
    1STR    O0F 5927   4.653   2.067   4.505
    1STR    C0G 5928   4.594   2.186   4.565
    1STR    C0H 5929   4.608   2.176   4.717
    1STR    C0I 5930   4.658   2.320   4.513
    1STR    O0J 5931   4.582   2.440   4.546
    1STR    C0K 5932   4.633   2.570   4.503
    1STR    C0M 5933   4.640   2.575   4.350
    1STR    C0N 5934   4.545   2.691   4.553
    1STR    O0O 5935   4.596   2.821   4.512
    1STR    C0P 5936   4.514   2.928   4.479
    1STR    O0Q 5937   4.393   2.923   4.466
    1STR    N0R 5938   4.589   3.039   4.466
    1STR    C0S 5939   4.565   3.176   4.436
    1STR    C0T 5940   4.668   3.262   4.478
    1STR    C0U 5941   4.668   3.398   4.443
    1STR    C0V 5942   4.566   3.453   4.364
    1STR    C0W 5943   4.587   3.596   4.315
    1STR    C0X 5944   4.455   3.373   4.325
    1STR    N0Y 5945   4.355   3.428   4.241
    1STR   BCK2 5946   4.289   3.547   4.247
    1STR    O10 5947   4.292   3.623   4.343
    1STR    C13 5948   4.457   3.233   4.361
    1STR    C14 5949   4.692   1.270   4.427
    1STR    C15 5950   4.714   1.132   4.428
    1STR    C16 5951   4.611   1.041   4.396
    1STR    C17 5952   4.644   0.894   4.420
    1STR    H1B 5953   4.284   1.035   4.337
    1STR    H1C 5954   4.367   1.270   4.330
    1STR    H1D 5955   4.449   1.499   4.396
    1STR    H1E 5956   4.735   1.796   4.513
    1STR    H1F 5957   4.627   1.874   4.237
    1STR    H1G 5958   4.772   1.940   4.313
    1STR    H1H 5959   4.767   1.770   4.268
    1STR    H1I 5960   4.549   1.919   4.611
    1STR    H1J 5961   4.483   1.959   4.454
    1STR    H1K 5962   4.488   2.189   4.538
    1STR    H1M 5963   4.712   2.164   4.747
    1STR    H1N 5964   4.552   2.091   4.759
    1STR    H1O 5965   4.570   2.266   4.766
    1STR    H1P 5966   4.760   2.329   4.552
    1STR    H1Q 5967   4.667   2.312   4.405
    1STR    H1R 5968   4.733   2.583   4.544
    1STR    H1S 5969   4.671   2.674   4.316
    1STR    H1T 5970   4.542   2.556   4.306
    1STR    H1U 5971   4.711   2.504   4.308
    1STR    H1V 5972   4.541   2.691   4.662
    1STR    H1W 5973   4.442   2.679   4.519
    1STR    H1X 5974   4.684   3.016   4.488
    1STR    H1Y 5975   4.751   3.225   4.536
    1STR    H1Z 5976   4.751   3.459   4.474
    1STR    H20 5977   4.548   3.609   4.214
    1STR    H21 5978   4.537   3.666   4.382
    1STR    H22 5979   4.692   3.622   4.312
    1STR    H23 5980   4.329   3.372   4.161
    1STR    H27 5981   4.376   3.168   4.330
    1STR    H28 5982   4.777   1.331   4.455
    1STR    H29 5983   4.811   1.095   4.456
    1STR    H2A 5984   4.556   0.839   4.452
    1STR    H2B 5985   4.719   0.883   4.497
    1STR    H2C 5986   4.684   0.849   4.329
    1STR   BCK1 5987   4.233   0.860   8.609
    1STR    O03 5988   4.118   0.858   8.653
    1STR    N04 5989   4.290   0.971   8.558
    1STR    C05 5990   4.223   1.084   8.506
    1STR    C06 5991   4.255   1.220   8.541
    1STR    C07 5992   4.191   1.332   8.477
    1STR    N08 5993   4.227   1.467   8.505
    1STR    C09 5994   4.185   1.583   8.446
    1STR    O0A 5995   4.102   1.587   8.356
    1STR    O0B 5996   4.242   1.699   8.496
    1STR    C0C 5997   4.195   1.828   8.449
    1STR    C0D 5998   4.065   1.864   8.524
    1STR    C0E 5999   4.298   1.945   8.458
    1STR    O0F 6000   4.244   2.069   8.406
    1STR    C0G 6001   4.331   2.184   8.400
    1STR    C0H 6002   4.426   2.168   8.280
    1STR    C0I 6003   4.250   2.318   8.386
    1STR    O0J 6004   4.332   2.437   8.399
    1STR    C0K 6005   4.267   2.565   8.381
    1STR    C0M 6006   4.167   2.590   8.496
    1STR    C0N 6007   4.369   2.683   8.376
    1STR    O0O 6008   4.315   2.802   8.314
    1STR    C0P 6009   4.307   2.923   8.377
    1STR    O0Q 6010   4.338   2.946   8.493
    1STR    N0R 6011   4.254   3.012   8.292
    1STR    C0S 6012   4.195   3.139   8.307
    1STR    C0T 6013   4.079   3.158   8.230
    1STR    C0U 6014   4.001   3.273   8.244
    1STR    C0V 6015   4.039   3.376   8.332
    1STR    C0W 6016   3.934   3.482   8.361
    1STR    C0X 6017   4.165   3.370   8.397
    1STR    N0Y 6018   4.208   3.476   8.480
    1STR   BCK2 6019   4.204   3.611   8.470
    1STR    O10 6020   4.230   3.679   8.569
    1STR    C13 6021   4.239   3.247   8.390
    1STR    C14 6022   4.091   1.301   8.382
    1STR    C15 6023   4.061   1.169   8.345
    1STR    C16 6024   4.129   1.061   8.403
    1STR    C17 6025   4.102   0.923   8.345
    1STR    H1B 6026   4.388   0.963   8.537
    1STR    H1C 6027   4.330   1.237   8.616
    1STR    H1D 6028   4.293   1.484   8.578
    1STR    H1E 6029   4.171   1.819   8.342
    1STR    H1F 6030   4.083   1.877   8.630
    1STR    H1G 6031   4.023   1.957   8.485
    1STR    H1H 6032   3.990   1.787   8.511
    1STR    H1I 6033   4.387   1.917   8.402
    1STR    H1J 6034   4.329   1.959   8.561
    1STR    H1K 6035   4.389   2.190   8.492
    1STR    H1M 6036   4.370   2.154   8.187
    1STR    H1N 6037   4.493   2.082   8.291
    1STR    H1O 6038   4.489   2.256   8.267
    1STR    H1P 6039   4.197   2.319   8.291
    1STR    H1Q 6040   4.173   2.318   8.464
    1STR    H1R 6041   4.214   2.563   8.286
    1STR    H1S 6042   4.125   2.691   8.489
    1STR    H1T 6043   4.217   2.582   8.593
    1STR    H1U 6044   4.083   2.521   8.494
    1STR    H1V 6045   4.454   2.653   8.314
    1STR    H1W 6046   4.411   2.704   8.474
    1STR    H1X 6047   4.242   2.968   8.202
    1STR    H1Y 6048   4.044   3.081   8.163
    1STR    H1Z 6049   3.908   3.281   8.189
    1STR    H20 6050   3.951   3.532   8.456
    1STR    H21 6051   3.929   3.556   8.282
    1STR    H22 6052   3.835   3.436   8.369
    1STR    H23 6053   4.250   3.449   8.567
    1STR    H27 6054   4.330   3.235   8.446
    1STR    H28 6055   4.033   1.376   8.331
    1STR    H29 6056   3.987   1.152   8.268
    1STR    H2A 6057   4.195   0.868   8.332
    1STR    H2B 6058   4.054   0.928   8.248
    1STR    H2C 6059   4.036   0.866   8.412
    1STR   BCK1 6060   4.262   0.874  13.074
    1STR    O03 6061   4.353   0.812  13.127
    1STR    N04 6062   4.224   1.000  13.108
    1STR    C05 6063   4.264   1.088  13.213
    1STR    C06 6064   4.263   1.231  13.192
    1STR    C07 6065   4.292   1.326  13.295
    1STR    N08 6066   4.285   1.467  13.274
    1STR    C09 6067   4.284   1.571  13.362
    1STR    O0A 6068   4.285   1.556  13.484
    1STR    O0B 6069   4.278   1.696  13.303
    1STR    C0C 6070   4.285   1.818  13.384
    1STR    C0D 6071   4.431   1.845  13.422
    1STR    C0E 6072   4.221   1.943  13.315
    1STR    O0F 6073   4.230   2.066  13.392
    1STR    C0G 6074   4.163   2.183  13.338
    1STR    C0H 6075   4.012   2.169  13.364
    1STR    C0I 6076   4.215   2.318  13.398
    1STR    O0J 6077   4.162   2.434  13.328
    1STR    C0K 6078   4.197   2.566  13.375
    1STR    C0M 6079   4.348   2.589  13.362
    1STR    C0N 6080   4.120   2.678  13.296
    1STR    O0O 6081   4.146   2.811  13.345
    1STR    C0P 6082   4.140   2.921  13.263
    1STR    O0Q 6083   4.121   2.919  13.142
    1STR    N0R 6084   4.159   3.033  13.335
    1STR    C0S 6085   4.171   3.171  13.305
    1STR    C0T 6086   4.204   3.252  13.416
    1STR    C0U 6087   4.229   3.389  13.402
    1STR    C0V 6088   4.219   3.451  13.276
    1STR    C0W 6089   4.260   3.597  13.264
    1STR    C0X 6090   4.178   3.376  13.163
    1STR    N0Y 6091   4.173   3.442  13.038
    1STR   BCK2 6092   4.091   3.542  13.001
    1STR    O10 6093   3.995   3.580  13.066
    1STR    C13 6094   4.157   3.235  13.178
    1STR    C14 6095   4.329   1.274  13.421
    1STR    C15 6096   4.328   1.136  13.445
    1STR    C16 6097   4.293   1.043  13.345
    1STR    C17 6098   4.281   0.898  13.389
    1STR    H1B 6099   4.156   1.037  13.044
    1STR    H1C 6100   4.238   1.268  13.094
    1STR    H1D 6101   4.280   1.500  13.179
    1STR    H1E 6102   4.229   1.800  13.477
    1STR    H1F 6103   4.493   1.863  13.334
    1STR    H1G 6104   4.439   1.933  13.486
    1STR    H1H 6105   4.475   1.762  13.477
    1STR    H1I 6106   4.117   1.919  13.294
    1STR    H1J 6107   4.269   1.958  13.218
    1STR    H1K 6108   4.182   2.187  13.230
    1STR    H1M 6109   3.991   2.156  13.470
    1STR    H1N 6110   3.968   2.084  13.311
    1STR    H1O 6111   3.959   2.258  13.330
    1STR    H1P 6112   4.189   2.324  13.504
    1STR    H1Q 6113   4.324   2.318  13.393
    1STR    H1R 6114   4.169   2.574  13.481
    1STR    H1S 6115   4.375   2.691  13.390
    1STR    H1T 6116   4.381   2.575  13.258
    1STR    H1U 6117   4.407   2.523  13.425
    1STR    H1V 6118   4.013   2.661  13.303
    1STR    H1W 6119   4.144   2.671  13.190
    1STR    H1X 6120   4.167   3.008  13.432
    1STR    H1Y 6121   4.214   3.209  13.515
    1STR    H1Z 6122   4.258   3.447  13.488
    1STR    H20 6123   4.338   3.608  13.187
    1STR    H21 6124   4.176   3.659  13.235
    1STR    H22 6125   4.300   3.637  13.357
    1STR    H23 6126   4.246   3.419  12.972
    1STR    H27 6127   4.131   3.175  13.092
    1STR    H28 6128   4.357   1.337  13.504
    1STR    H29 6129   4.353   1.101  13.544
    1STR    H2A 6130   4.201   0.847  13.337
    1STR    H2B 6131   4.259   0.891  13.496
    1STR    H2C 6132   4.376   0.846  13.373
    1STR   BCK1 6133   4.314   5.243  17.279
    1STR    O03 6134   4.269   5.255  17.166
    1STR    N04 6135   4.386   5.339  17.343
    1STR    C05 6136   4.463   5.444  17.285
    1STR    C06 6137   4.445   5.584  17.315
    1STR    C07 6138   4.535   5.686  17.265
    1STR    N08 6139   4.522   5.825  17.298
    1STR    C09 6140   4.585   5.934  17.245
    1STR    O0A 6141   4.662   5.928  17.149
    1STR    O0B 6142   4.555   6.056  17.306
    1STR    C0C 6143   4.609   6.181  17.252
    1STR    C0D 6144   4.529   6.220  17.126
    1STR    C0E 6145   4.613   6.303  17.352
    1STR    O0F 6146   4.659   6.427  17.291
    1STR    C0G 6147   4.669   6.547  17.373
    1STR    C0H 6148   4.796   6.536   0.019
    1STR    C0I 6149   4.671   6.678  17.286
    1STR    O0J 6150   4.654   6.802  17.360
    1STR    C0K 6151   4.648   6.926  17.284
    1STR    C0M 6152   4.522   6.928  17.197
    1STR    C0N 6153   4.648   7.057  17.372
    1STR    O0O 6154   4.657   7.177  17.291
    1STR    C0P 6155   4.583   7.291  17.316
    1STR    O0Q 6156   4.494   7.301  17.399
    1STR    N0R 6157   4.627   7.392  17.239
    1STR    C0S 6158   4.595   7.529  17.225
    1STR    C0T 6159   4.702   7.611  17.184
    1STR    C0U 6160   4.685   7.748  17.162
    1STR    C0V 6161   4.559   7.810  17.179
    1STR    C0W 6162   4.556   7.961  17.162
    1STR    C0X 6163   4.446   7.732  17.217
    1STR    N0Y 6164   4.318   7.786  17.245
    1STR   BCK2 6165   4.236   7.891  17.216
    1STR    O10 6166   4.132   7.899  17.280
    1STR    C13 6167   4.468   7.592  17.242
    1STR    C14 6168   4.643   5.640  17.186
    1STR    C15 6169   4.662   5.504  17.158
    1STR    C16 6170   4.575   5.406  17.208
    1STR    C17 6171   4.609   5.260  17.183
    1STR    H1B 6172   4.404   5.320   0.000
    1STR    H1C 6173   4.362   5.613  17.378
    1STR    H1D 6174   4.457   5.850  17.370
    1STR    H1E 6175   4.712   6.163  17.222
    1STR    H1F 6176   4.425   6.240  17.150
    1STR    H1G 6177   4.571   6.309  17.080
    1STR    H1H 6178   4.533   6.141  17.051
    1STR    H1I 6179   4.678   6.277  17.436
    1STR    H1J 6180   4.514   6.319  17.394
    1STR    H1K 6181   4.581   6.552  17.438
    1STR    H1M 6182   4.885   6.523  17.397
    1STR    H1N 6183   4.792   6.453   0.089
    1STR    H1O 6184   4.810   6.627   0.078
    1STR    H1P 6185   4.765   6.682  17.230
    1STR    H1Q 6186   4.592   6.668  17.213
    1STR    H1R 6187   4.737   6.931  17.220
    1STR    H1S 6188   4.511   7.024  17.146
    1STR    H1T 6189   4.433   6.914  17.258
    1STR    H1U 6190   4.522   6.852  17.119
    1STR    H1V 6191   4.734   7.056  17.439
    1STR    H1W 6192   4.560   7.060  17.436
    1STR    H1X 6193   4.705   7.359  17.184
    1STR    H1Y 6194   4.801   7.570  17.171
    1STR    H1Z 6195   4.770   7.808  17.134
    1STR    H20 6196   4.521   7.985  17.062
    1STR    H21 6197   4.491   8.007  17.236
    1STR    H22 6198   4.654   8.005  17.174
    1STR    H23 6199   4.266   7.729  17.310
    1STR    H27 6200   4.386   7.529  17.274
    1STR    H28 6201   4.717   5.707  17.146
    1STR    H29 6202   4.747   5.475  17.098
    1STR    H2A 6203   4.605   5.203  17.276
    1STR    H2B 6204   4.709   5.248  17.142
    1STR    H2C 6205   4.538   5.216  17.113
    1STR   BCK1 6206   4.249   5.213   4.251
    1STR    O03 6207   4.350   5.157   4.290
    1STR    N04 6208   4.232   5.342   4.289
    1STR    C05 6209   4.130   5.439   4.295
    1STR    C06 6210   4.164   5.579   4.284
    1STR    C07 6211   4.069   5.685   4.304
    1STR    N08 6212   4.106   5.822   4.296
    1STR    C09 6213   4.031   5.935   4.310
    1STR    O0A 6214   3.911   5.935   4.334
    1STR    O0B 6215   4.103   6.053   4.296
    1STR    C0C 6216   4.036   6.181   4.315
    1STR    C0D 6217   4.023   6.212   4.465
    1STR    C0E 6218   4.106   6.301   4.241
    1STR    O0F 6219   4.032   6.425   4.256
    1STR    C0G 6220   4.080   6.541   4.184
    1STR    C0H 6221   4.045   6.525   4.035
    1STR    C0I 6222   4.018   6.673   4.240
    1STR    O0J 6223   4.074   6.792   4.179
    1STR    C0K 6224   4.020   6.920   4.221
    1STR    C0M 6225   4.061   6.948   4.366
    1STR    C0N 6226   4.068   7.037   4.130
    1STR    O0O 6227   3.992   7.157   4.154
    1STR    C0P 6228   4.047   7.282   4.147
    1STR    O0Q 6229   4.165   7.307   4.123
    1STR    N0R 6230   3.954   7.374   4.177
    1STR    C0S 6231   3.962   7.511   4.206
    1STR    C0T 6232   3.874   7.556   4.307
    1STR    C0U 6233   3.881   7.689   4.354
    1STR    C0V 6234   3.970   7.782   4.297
    1STR    C0W 6235   3.990   7.912   4.372
    1STR    C0X 6236   4.046   7.746   4.182
    1STR    N0Y 6237   4.127   7.836   4.111
    1STR   BCK2 6238   4.115   7.963   4.066
    1STR    O10 6239   4.198   8.005   3.986
    1STR    C13 6240   4.046   7.608   4.143
    1STR    C14 6241   3.938   5.645   4.337
    1STR    C15 6242   3.903   5.510   4.350
    1STR    C16 6243   3.997   5.407   4.333
    1STR    C17 6244   3.953   5.266   4.366
    1STR    H1B 6245   4.318   5.371   4.332
    1STR    H1C 6246   4.266   5.605   4.260
    1STR    H1D 6247   4.203   5.844   4.277
    1STR    H1E 6248   3.936   6.174   4.272
    1STR    H1F 6249   4.120   6.222   4.513
    1STR    H1G 6250   3.968   6.304   4.481
    1STR    H1H 6251   3.968   6.133   4.517
    1STR    H1I 6252   4.115   6.275   4.136
    1STR    H1J 6253   4.207   6.314   4.280
    1STR    H1K 6254   4.188   6.547   4.196
    1STR    H1M 6255   3.938   6.511   4.021
    1STR    H1N 6256   4.097   6.441   3.989
    1STR    H1O 6257   4.074   6.615   3.979
    1STR    H1P 6258   3.910   6.671   4.226
    1STR    H1Q 6259   4.035   6.675   4.347
    1STR    H1R 6260   3.911   6.915   4.214
    1STR    H1S 6261   4.030   7.048   4.397
    1STR    H1T 6262   4.170   6.943   4.378
    1STR    H1U 6263   4.017   6.879   4.437
    1STR    H1V 6264   4.055   7.011   4.025
    1STR    H1W 6265   4.175   7.055   4.144
    1STR    H1X 6266   3.865   7.330   4.191
    1STR    H1Y 6267   3.806   7.488   4.355
    1STR    H1Z 6268   3.819   7.718   4.437
    1STR    H20 6269   4.090   7.952   4.357
    1STR    H21 6270   3.916   7.987   4.343
    1STR    H22 6271   3.978   7.896   4.479
    1STR    H23 6272   4.211   7.796   4.073
    1STR    H27 6273   4.109   7.575   4.062
    1STR    H28 6274   3.859   5.716   4.355
    1STR    H29 6275   3.801   5.485   4.379
    1STR    H2A 6276   3.919   5.215   4.276
    1STR    H2B 6277   3.869   5.267   4.437
    1STR    H2C 6278   4.033   5.209   4.413
    1STR   BCK1 6279   4.356   5.237   8.678
    1STR    O03 6280   4.461   5.174   8.676
    1STR    N04 6281   4.342   5.362   8.732
    1STR    C05 6282   4.430   5.448   8.805
    1STR    C06 6283   4.414   5.591   8.798
    1STR    C07 6284   4.495   5.685   8.870
    1STR    N08 6285   4.474   5.827   8.866
    1STR    C09 6286   4.540   5.930   8.927
    1STR    O0A 6287   4.638   5.915   8.999
    1STR    O0B 6288   4.487   6.056   8.902
    1STR    C0C 6289   4.552   6.177   8.953
    1STR    C0D 6290   4.675   6.208   8.865
    1STR    C0E 6291   4.459   6.303   8.963
    1STR    O0F 6292   4.526   6.427   9.002
    1STR    C0G 6293   4.443   6.545   9.022
    1STR    C0H 6294   4.374   6.533   9.159
    1STR    C0I 6295   4.522   6.681   9.014
    1STR    O0J 6296   4.437   6.798   9.004
    1STR    C0K 6297   4.498   6.931   8.999
    1STR    C0M 6298   4.587   6.943   8.874
    1STR    C0N 6299   4.391   7.047   8.997
    1STR    O0O 6300   4.448   7.180   8.993
    1STR    C0P 6301   4.386   7.286   8.930
    1STR    O0Q 6302   4.285   7.279   8.862
    1STR    N0R 6303   4.453   7.400   8.955
    1STR    C0S 6304   4.442   7.536   8.918
    1STR    C0T 6305   4.530   7.622   8.988
    1STR    C0U 6306   4.542   7.757   8.954
    1STR    C0V 6307   4.467   7.813   8.850
    1STR    C0W 6308   4.502   7.956   8.809
    1STR    C0X 6309   4.369   7.735   8.782
    1STR    N0Y 6310   4.295   7.792   8.675
    1STR   BCK2 6311   4.230   7.911   8.667
    1STR    O10 6312   4.210   7.986   8.762
    1STR    C13 6313   4.360   7.595   8.816
    1STR    C14 6314   4.598   5.629   8.949
    1STR    C15 6315   4.614   5.490   8.961
    1STR    C16 6316   4.529   5.400   8.895
    1STR    C17 6317   4.548   5.254   8.932
    1STR    H1B 6318   4.250   5.399   8.713
    1STR    H1C 6319   4.336   5.630   8.734
    1STR    H1D 6320   4.398   5.860   8.810
    1STR    H1E 6321   4.588   6.156   9.054
    1STR    H1F 6322   4.645   6.230   8.762
    1STR    H1G 6323   4.729   6.295   8.903
    1STR    H1H 6324   4.745   6.125   8.863
    1STR    H1I 6325   4.380   6.280   9.034
    1STR    H1J 6326   4.410   6.319   8.867
    1STR    H1K 6327   4.368   6.548   8.943
    1STR    H1M 6328   4.448   6.522   9.239
    1STR    H1N 6329   4.306   6.449   9.164
    1STR    H1O 6330   4.316   6.623   9.181
    1STR    H1P 6331   4.589   6.690   9.099
    1STR    H1Q 6332   4.587   6.676   8.926
    1STR    H1R 6333   4.560   6.944   9.088
    1STR    H1S 6334   4.628   7.044   8.866
    1STR    H1T 6335   4.529   6.923   8.784
    1STR    H1U 6336   4.672   6.875   8.876
    1STR    H1V 6337   4.329   7.041   9.086
    1STR    H1W 6338   4.323   7.033   8.913
    1STR    H1X 6339   4.528   7.378   9.018
    1STR    H1Y 6340   4.592   7.584   9.067
    1STR    H1Z 6341   4.614   7.818   9.007
    1STR    H20 6342   4.491   7.970   8.701
    1STR    H21 6343   4.438   8.027   8.860
    1STR    H22 6344   4.605   7.980   8.834
    1STR    H23 6345   4.289   7.737   8.591
    1STR    H27 6346   4.291   7.531   8.763
    1STR    H28 6347   4.667   5.689   9.006
    1STR    H29 6348   4.692   5.453   9.027
    1STR    H2A 6349   4.453   5.200   8.932
    1STR    H2B 6350   4.590   5.243   9.032
    1STR    H2C 6351   4.617   5.205   8.863
    1STR   BCK1 6352   4.231   5.234  12.938
    1STR    O03 6353   4.117   5.247  12.894
    1STR    N04 6354   4.323   5.332  12.935
    1STR    C05 6355   4.323   5.443  12.847
    1STR    C06 6356   4.331   5.580  12.890
    1STR    C07 6357   4.340   5.689  12.796
    1STR    N08 6358   4.353   5.825  12.837
    1STR    C09 6359   4.341   5.939  12.763
    1STR    O0A 6360   4.303   5.940  12.646
    1STR    O0B 6361   4.374   6.055  12.830
    1STR    C0C 6362   4.362   6.184  12.762
    1STR    C0D 6363   4.213   6.224  12.756
    1STR    C0E 6364   4.447   6.300  12.823
    1STR    O0F 6365   4.429   6.423  12.749
    1STR    C0G 6366   4.502   6.540  12.793
    1STR    C0H 6367   4.648   6.528  12.744
    1STR    C0I 6368   4.436   6.670  12.737
    1STR    O0J 6369   4.487   6.793  12.793
    1STR    C0K 6370   4.424   6.916  12.747
    1STR    C0M 6371   4.280   6.924  12.798
    1STR    C0N 6372   4.498   7.046  12.791
    1STR    O0O 6373   4.443   7.159  12.721
    1STR    C0P 6374   4.432   7.284  12.775
    1STR    O0Q 6375   4.455   7.314  12.891
    1STR    N0R 6376   4.397   7.370  12.679
    1STR    C0S 6377   4.387   7.510  12.670
    1STR    C0T 6378   4.453   7.567  12.560
    1STR    C0U 6379   4.447   7.705  12.536
    1STR    C0V 6380   4.372   7.790  12.619
    1STR    C0W 6381   4.386   7.938  12.590
    1STR    C0X 6382   4.297   7.737  12.728
    1STR    N0Y 6383   4.220   7.816  12.818
    1STR   BCK2 6384   4.147   7.930  12.821
    1STR    O10 6385   4.101   7.966  12.929
    1STR    C13 6386   4.310   7.596  12.754
    1STR    C14 6387   4.340   5.654  12.659
    1STR    C15 6388   4.335   5.520  12.617
    1STR    C16 6389   4.330   5.415  12.708
    1STR    C17 6390   4.337   5.273  12.655
    1STR    H1B 6391   4.409   5.311  12.983
    1STR    H1C 6392   4.330   5.600  12.996
    1STR    H1D 6393   4.375   5.844  12.933
    1STR    H1E 6394   4.397   6.170  12.659
    1STR    H1F 6395   4.172   6.240  12.856
    1STR    H1G 6396   4.200   6.317  12.699
    1STR    H1H 6397   4.153   6.148  12.706
    1STR    H1I 6398   4.552   6.270  12.822
    1STR    H1J 6399   4.419   6.315  12.927
    1STR    H1K 6400   4.500   6.546  12.902
    1STR    H1M 6401   4.652   6.515  12.636
    1STR    H1N 6402   4.699   6.444  12.790
    1STR    H1O 6403   4.704   6.618  12.769
    1STR    H1P 6404   4.446   6.672  12.628
    1STR    H1Q 6405   4.329   6.662  12.757
    1STR    H1R 6406   4.425   6.915  12.638
    1STR    H1S 6407   4.235   7.020  12.773
    1STR    H1T 6408   4.277   6.914  12.907
    1STR    H1U 6409   4.215   6.847  12.755
    1STR    H1V 6410   4.604   7.040  12.767
    1STR    H1W 6411   4.492   7.060  12.899
    1STR    H1X 6412   4.388   7.320  12.592
    1STR    H1Y 6413   4.512   7.506  12.494
    1STR    H1Z 6414   4.502   7.745  12.453
    1STR    H20 6415   4.307   7.969  12.521
    1STR    H21 6416   4.381   7.998  12.681
    1STR    H22 6417   4.481   7.961  12.542
    1STR    H23 6418   4.213   7.775  12.910
    1STR    H27 6419   4.258   7.552  12.838
    1STR    H28 6420   4.348   5.727  12.581
    1STR    H29 6421   4.338   5.500  12.511
    1STR    H2A 6422   4.409   5.214  12.712
    1STR    H2B 6423   4.368   5.270  12.551
    1STR    H2C 6424   4.239   5.225  12.662
    1STR   BCK1 6425   4.218   9.582  17.397
    1STR    O03 6426   4.283   9.522   0.042
    1STR    N04 6427   4.175   9.710  17.409
    1STR    C05 6428   4.173   9.802   0.078
    1STR    C06 6429   4.184   9.943   0.054
    1STR    C07 6430   4.169  10.042   0.157
    1STR    N08 6431   4.176  10.182   0.131
    1STR    C09 6432   4.132  10.288   0.205
    1STR    O0A 6433   4.071  10.276   0.311
    1STR    O0B 6434   4.161  10.411   0.150
    1STR    C0C 6435   4.128  10.534   0.221
    1STR    C0D 6436   4.234  10.562   0.328
    1STR    C0E 6437   4.112  10.658   0.127
    1STR    O0F 6438   4.078  10.781   0.196
    1STR    C0G 6439   4.051  10.898   0.115
    1STR    C0H 6440   3.911  10.884   0.053
    1STR    C0I 6441   4.060  11.032   0.195
    1STR    O0J 6442   4.050  11.148   0.109
    1STR    C0K 6443   4.051  11.279   0.171
    1STR    C0M 6444   4.188  11.307   0.234
    1STR    C0N 6445   4.018  11.392   0.068
    1STR    O0O 6446   4.006  11.521   0.130
    1STR    C0P 6447   4.034  11.637   0.062
    1STR    O0Q 6448   4.078  11.644  17.388
    1STR    N0R 6449   4.009  11.742   0.141
    1STR    C0S 6450   4.030  11.881   0.129
    1STR    C0T 6451   4.024  11.952   0.251
    1STR    C0U 6452   4.050  12.090   0.256
    1STR    C0V 6453   4.081  12.162   0.139
    1STR    C0W 6454   4.122  12.308   0.152
    1STR    C0X 6455   4.079  12.096   0.014
    1STR    N0Y 6456   4.111  12.173  17.341
    1STR   BCK2 6457   4.033  12.266  17.283
    1STR    O10 6458   3.913  12.279  17.305
    1STR    C13 6459   4.057  11.955   0.010
    1STR    C14 6460   4.147   9.994   0.288
    1STR    C15 6461   4.135   9.857   0.314
    1STR    C16 6462   4.144   9.761   0.212
    1STR    C17 6463   4.114   9.618   0.252
    1STR    H1B 6464   4.135   9.744  17.323
    1STR    H1C 6465   4.204   9.977  17.394
    1STR    H1D 6466   4.220  10.212   0.045
    1STR    H1E 6467   4.032  10.520   0.271
    1STR    H1F 6468   4.333  10.577   0.284
    1STR    H1G 6469   4.210  10.651   0.386
    1STR    H1H 6470   4.242  10.479   0.399
    1STR    H1I 6471   4.034  10.634   0.054
    1STR    H1J 6472   4.204  10.673   0.071
    1STR    H1K 6473   4.126  10.903   0.035
    1STR    H1M 6474   3.835  10.871   0.130
    1STR    H1N 6475   3.904  10.800  17.424
    1STR    H1O 6476   3.885  10.974  17.436
    1STR    H1P 6477   3.982  11.035   0.271
    1STR    H1Q 6478   4.156  11.033   0.248
    1STR    H1R 6479   3.974  11.282   0.249
    1STR    H1S 6480   4.193  11.408   0.274
    1STR    H1T 6481   4.268  11.297   0.160
    1STR    H1U 6482   4.211  11.240   0.317
    1STR    H1V 6483   3.924  11.370   0.017
    1STR    H1W 6484   4.095  11.395  17.430
    1STR    H1X 6485   3.972  11.710   0.229
    1STR    H1Y 6486   4.002  11.902   0.344
    1STR    H1Z 6487   4.049  12.141   0.352
    1STR    H20 6488   4.225  12.320   0.117
    1STR    H21 6489   4.058  12.372   0.092
    1STR    H22 6490   4.117  12.343   0.255
    1STR    H23 6491   4.207  12.171  17.310
    1STR    H27 6492   4.061  11.903  17.355
    1STR    H28 6493   4.138  10.061   0.372
    1STR    H29 6494   4.115   9.826   0.416
    1STR    H2A 6495   4.062   9.564   0.173
    1STR    H2B 6496   4.051   9.613   0.340
    1STR    H2C 6497   4.207   9.566   0.275
    1STR   BCK1 6498   4.363   9.603   4.212
    1STR    O03 6499   4.448   9.547   4.145
    1STR    N04 6500   4.379   9.722   4.275
    1STR    C05 6501   4.490   9.811   4.287
    1STR    C06 6502   4.470   9.954   4.298
    1STR    C07 6503   4.577  10.049   4.311
    1STR    N08 6504   4.556  10.189   4.329
    1STR    C09 6505   4.643  10.294   4.320
    1STR    O0A 6506   4.760  10.283   4.286
    1STR    O0B 6507   4.588  10.419   4.353
    1STR    C0C 6508   4.666  10.541   4.338
    1STR    C0D 6509   4.671  10.578   4.188
    1STR    C0E 6510   4.617  10.665   4.422
    1STR    O0F 6511   4.688  10.789   4.394
    1STR    C0G 6512   4.652  10.908   4.469
    1STR    C0H 6513   4.715  10.898   4.609
    1STR    C0I 6514   4.698  11.041   4.398
    1STR    O0J 6515   4.640  11.164   4.453
    1STR    C0K 6516   4.674  11.291   4.390
    1STR    C0M 6517   4.622  11.293   4.246
    1STR    C0N 6518   4.617  11.417   4.464
    1STR    O0O 6519   4.657  11.542   4.404
    1STR    C0P 6520   4.574  11.652   4.394
    1STR    O0Q 6521   4.455  11.654   4.424
    1STR    N0R 6522   4.642  11.759   4.349
    1STR    C0S 6523   4.612  11.894   4.319
    1STR    C0T 6524   4.723  11.979   4.311
    1STR    C0U 6525   4.708  12.115   4.279
    1STR    C0V 6526   4.581  12.172   4.253
    1STR    C0W 6527   4.579  12.321   4.226
    1STR    C0X 6528   4.464  12.091   4.260
    1STR    N0Y 6529   4.331  12.139   4.249
    1STR   BCK2 6530   4.255  12.242   4.201
    1STR    O10 6531   4.137  12.241   4.233
    1STR    C13 6532   4.483  11.952   4.294
    1STR    C14 6533   4.708   9.995   4.311
    1STR    C15 6534   4.731   9.858   4.305
    1STR    C16 6535   4.625   9.765   4.299
    1STR    C17 6536   4.663   9.619   4.313
    1STR    H1B 6537   4.294   9.753   4.319
    1STR    H1C 6538   4.369   9.991   4.296
    1STR    H1D 6539   4.463  10.220   4.351
    1STR    H1E 6540   4.769  10.520   4.370
    1STR    H1F 6541   4.571  10.599   4.150
    1STR    H1G 6542   4.733  10.666   4.172
    1STR    H1H 6543   4.713  10.497   4.129
    1STR    H1I 6544   4.626  10.640   4.528
    1STR    H1J 6545   4.510  10.680   4.404
    1STR    H1K 6546   4.543  10.912   4.479
    1STR    H1M 6547   4.824  10.886   4.603
    1STR    H1N 6548   4.676  10.814   4.666
    1STR    H1O 6549   4.696  10.988   4.667
    1STR    H1P 6550   4.806  11.048   4.400
    1STR    H1Q 6551   4.670  11.032   4.294
    1STR    H1R 6552   4.783  11.300   4.389
    1STR    H1S 6553   4.640  11.390   4.199
    1STR    H1T 6554   4.515  11.275   4.243
    1STR    H1U 6555   4.671  11.219   4.182
    1STR    H1V 6556   4.652  11.418   4.568
    1STR    H1W 6557   4.508  11.411   4.470
    1STR    H1X 6558   4.738  11.732   4.337
    1STR    H1Y 6559   4.822  11.943   4.331
    1STR    H1Z 6560   4.796  12.177   4.275
    1STR    H20 6561   4.564  12.337   4.119
    1STR    H21 6562   4.500  12.369   4.283
    1STR    H22 6563   4.672  12.369   4.253
    1STR    H23 6564   4.266  12.077   4.293
    1STR    H27 6565   4.397  11.887   4.302
    1STR    H28 6566   4.795  10.058   4.320
    1STR    H29 6567   4.832   9.822   4.310
    1STR    H2A 6568   4.586   9.562   4.364
    1STR    H2B 6569   4.755   9.608   4.371
    1STR    H2C 6570   4.682   9.575   4.215
    1STR   BCK1 6571   4.240   9.576   8.609
    1STR    O03 6572   4.158   9.557   8.698
    1STR    N04 6573   4.259   9.696   8.550
    1STR    C05 6574   4.171   9.806   8.546
    1STR    C06 6575   4.214   9.941   8.566
    1STR    C07 6576   4.126  10.053   8.548
    1STR    N08 6577   4.169  10.188   8.560
    1STR    C09 6578   4.110  10.301   8.512
    1STR    O0A 6579   4.008  10.301   8.443
    1STR    O0B 6580   4.175  10.418   8.545
    1STR    C0C 6581   4.111  10.547   8.517
    1STR    C0D 6582   4.015  10.580   8.632
    1STR    C0E 6583   4.211  10.664   8.492
    1STR    O0F 6584   4.141  10.788   8.461
    1STR    C0G 6585   4.220  10.903   8.425
    1STR    C0H 6586   4.269  10.886   8.280
    1STR    C0I 6587   4.138  11.035   8.439
    1STR    O0J 6588   4.217  11.154   8.417
    1STR    C0K 6589   4.148  11.282   8.423
    1STR    C0M 6590   4.102  11.311   8.566
    1STR    C0N 6591   4.238  11.399   8.372
    1STR    O0O 6592   4.162  11.517   8.340
    1STR    C0P 6593   4.191  11.641   8.388
    1STR    O0Q 6594   4.281  11.667   8.467
    1STR    N0R 6595   4.102  11.729   8.341
    1STR    C0S 6596   4.069  11.860   8.381
    1STR    C0T 6597   3.932  11.883   8.404
    1STR    C0U 6598   3.886  12.006   8.453
    1STR    C0V 6599   3.976  12.112   8.476
    1STR    C0W 6600   3.924  12.232   8.554
    1STR    C0X 6601   4.112  12.099   8.439
    1STR    N0Y 6602   4.201  12.206   8.460
    1STR   BCK2 6603   4.197  12.337   8.427
    1STR    O10 6604   4.276  12.414   8.481
    1STR    C13 6605   4.159  11.970   8.398
    1STR    C14 6606   3.991  10.023   8.517
    1STR    C15 6607   3.948   9.891   8.494
    1STR    C16 6608   4.037   9.783   8.504
    1STR    C17 6609   3.986   9.647   8.461
    1STR    H1B 6610   4.339   9.700   8.489
    1STR    H1C 6611   4.317   9.959   8.594
    1STR    H1D 6612   4.254  10.207   8.609
    1STR    H1E 6613   4.053  10.537   8.425
    1STR    H1F 6614   4.068  10.593   8.726
    1STR    H1G 6615   3.961  10.672   8.612
    1STR    H1H 6616   3.941  10.501   8.646
    1STR    H1I 6617   4.276  10.637   8.410
    1STR    H1J 6618   4.274  10.679   8.579
    1STR    H1K 6619   4.306  10.910   8.493
    1STR    H1M 6620   4.186  10.871   8.212
    1STR    H1N 6621   4.337  10.801   8.269
    1STR    H1O 6622   4.324  10.975   8.247
    1STR    H1P 6623   4.054  11.033   8.368
    1STR    H1Q 6624   4.094  11.037   8.538
    1STR    H1R 6625   4.061  11.276   8.357
    1STR    H1S 6626   4.060  11.411   8.574
    1STR    H1T 6627   4.186  11.306   8.636
    1STR    H1U 6628   4.026  11.241   8.601
    1STR    H1V 6629   4.290  11.369   8.281
    1STR    H1W 6630   4.317  11.421   8.445
    1STR    H1X 6631   4.040  11.685   8.276
    1STR    H1Y 6632   3.861  11.803   8.390
    1STR    H1Z 6633   3.782  12.017   8.477
    1STR    H20 6634   3.997  12.262   8.629
    1STR    H21 6635   3.904  12.317   8.489
    1STR    H22 6636   3.832  12.209   8.606
    1STR    H23 6637   4.283  12.185   8.514
    1STR    H27 6638   4.264  11.954   8.378
    1STR    H28 6639   3.916  10.100   8.507
    1STR    H29 6640   3.845   9.874   8.465
    1STR    H2A 6641   4.062   9.593   8.405
    1STR    H2B 6642   3.899   9.655   8.397
    1STR    H2C 6643   3.958   9.587   8.548
    1STR   BCK1 6644   4.299   9.592  13.074
    1STR    O03 6645   4.398   9.528  13.107
    1STR    N04 6646   4.270   9.718  13.116
    1STR    C05 6647   4.331   9.806  13.212
    1STR    C06 6648   4.322   9.948  13.196
    1STR    C07 6649   4.374  10.044  13.291
    1STR    N08 6650   4.361  10.185  13.275
    1STR    C09 6651   4.387  10.288  13.361
    1STR    O0A 6652   4.429  10.272  13.475
    1STR    O0B 6653   4.361  10.414  13.309
    1STR    C0C 6654   4.393  10.535  13.385
    1STR    C0D 6655   4.544  10.564  13.373
    1STR    C0E 6656   4.310  10.662  13.343
    1STR    O0F 6657   4.345  10.785  13.412
    1STR    C0G 6658   4.264  10.902  13.385
    1STR    C0H 6659   4.132  10.889  13.463
    1STR    C0I 6660   4.334  11.038  13.422
    1STR    O0J 6661   4.262  11.155  13.372
    1STR    C0K 6662   4.312  11.288  13.403
    1STR    C0M 6663   4.451  11.308  13.341
    1STR    C0N 6664   4.215  11.400  13.349
    1STR    O0O 6665   4.259  11.535  13.381
    1STR    C0P 6666   4.228  11.643  13.302
    1STR    O0Q 6667   4.170  11.638  13.194
    1STR    N0R 6668   4.271  11.756  13.359
    1STR    C0S 6669   4.276  11.893  13.324
    1STR    C0T 6670   4.341  11.975  13.419
    1STR    C0U 6671   4.365  12.111  13.394
    1STR    C0V 6672   4.324  12.171  13.274
    1STR    C0W 6673   4.371  12.314  13.248
    1STR    C0X 6674   4.248  12.097  13.179
    1STR    N0Y 6675   4.205  12.159  13.059
    1STR   BCK2 6676   4.144  12.278  13.040
    1STR    O10 6677   4.099  12.348  13.131
    1STR    C13 6678   4.228  11.957  13.204
    1STR    C14 6679   4.441   9.989  13.403
    1STR    C15 6680   4.448   9.850  13.423
    1STR    C16 6681   4.391   9.759  13.333
    1STR    C17 6682   4.392   9.614  13.377
    1STR    H1B 6683   4.191   9.756  13.068
    1STR    H1C 6684   4.274   9.987  13.107
    1STR    H1D 6685   4.325  10.218  13.187
    1STR    H1E 6686   4.370  10.516  13.490
    1STR    H1F 6687   4.573  10.583  13.270
    1STR    H1G 6688   4.572  10.651  13.433
    1STR    H1H 6689   4.603  10.480  13.410
    1STR    H1I 6690   4.205  10.639  13.360
    1STR    H1J 6691   4.321  10.678  13.236
    1STR    H1K 6692   4.243  10.906  13.278
    1STR    H1M 6693   4.150  10.877  13.570
    1STR    H1N 6694   4.072  10.805  13.429
    1STR    H1O 6695   4.071  10.979  13.450
    1STR    H1P 6696   4.346  11.046  13.530
    1STR    H1Q 6697   4.434  11.037  13.380
    1STR    H1R 6698   4.319  11.298  13.511
    1STR    H1S 6699   4.487  11.409  13.358
    1STR    H1T 6700   4.449  11.291  13.233
    1STR    H1U 6701   4.526  11.241  13.384
    1STR    H1V 6702   4.116  11.387  13.393
    1STR    H1W 6703   4.202  11.390  13.242
    1STR    H1X 6704   4.311  11.733  13.448
    1STR    H1Y 6705   4.377  11.934  13.512
    1STR    H1Z 6706   4.419  12.169  13.467
    1STR    H20 6707   4.392  12.330  13.142
    1STR    H21 6708   4.296  12.386  13.281
    1STR    H22 6709   4.464  12.335  13.302
    1STR    H23 6710   4.223  12.108  12.974
    1STR    H27 6711   4.176  11.896  13.132
    1STR    H28 6712   4.488  10.051  13.478
    1STR    H29 6713   4.497   9.814  13.513
    1STR    H2A 6714   4.302   9.561  13.345
    1STR    H2B 6715   4.396   9.605  13.486
    1STR    H2C 6716   4.480   9.563  13.337
    1STR   BCK1 6717   4.279  13.960  17.273
    1STR    O03 6718   4.207  13.972  17.175
    1STR    N04 6719   4.364  14.056  17.316
    1STR    C05 6720   4.418  14.163  17.241
    1STR    C06 6721   4.408  14.302  17.277
    1STR    C07 6722   4.475  14.407  17.204
    1STR    N08 6723   4.470  14.545  17.241
    1STR    C09 6724   4.507  14.656  17.171
    1STR    O0A 6725   4.544  14.653  17.054
    1STR    O0B 6726   4.500  14.776  17.242
    1STR    C0C 6727   4.531  14.902  17.175
    1STR    C0D 6728   4.411  14.942  17.086
    1STR    C0E 6729   4.569  15.022  17.269
    1STR    O0F 6730   4.592  15.146  17.196
    1STR    C0G 6731   4.630  15.264  17.270
    1STR    C0H 6732   4.778  15.254  17.308
    1STR    C0I 6733   4.604  15.395  17.187
    1STR    O0J 6734   4.614  15.520  17.261
    1STR    C0K 6735   4.583  15.642  17.189
    1STR    C0M 6736   4.434  15.646  17.155
    1STR    C0N 6737   4.618  15.773  17.268
    1STR    O0O 6738   4.604  15.891  17.184
    1STR    C0P 6739   4.547  16.008  17.227
    1STR    O0Q 6740   4.489  16.024  17.333
    1STR    N0R 6741   4.567  16.104  17.135
    1STR    C0S 6742   4.541  16.243  17.129
    1STR    C0T 6743   4.639  16.320  17.065
    1STR    C0U 6744   4.624  16.458  17.049
    1STR    C0V 6745   4.509  16.525  17.095
    1STR    C0W 6746   4.511  16.676  17.084
    1STR    C0X 6747   4.403  16.452  17.155
    1STR    N0Y 6748   4.287  16.512  17.209
    1STR   BCK2 6749   4.204  16.617  17.189
    1STR    O10 6750   4.117  16.638  17.273
    1STR    C13 6751   4.423  16.310  17.174
    1STR    C14 6752   4.553  14.365  17.093
    1STR    C15 6753   4.565  14.230  17.058
    1STR    C16 6754   4.501  14.129  17.131
    1STR    C17 6755   4.529  13.984  17.094
    1STR    H1B 6756   4.408  14.037  17.404
    1STR    H1C 6757   4.348  14.328  17.363
    1STR    H1D 6758   4.434  14.568  17.332
    1STR    H1E 6759   4.617  14.885  17.109
    1STR    H1F 6760   4.322  14.960  17.145
    1STR    H1G 6761   4.433  15.033  17.030
    1STR    H1H 6762   4.388  14.864  17.013
    1STR    H1I 6763   4.659  14.995  17.325
    1STR    H1J 6764   4.490  15.038  17.342
    1STR    H1K 6765   4.569  15.270  17.361
    1STR    H1M 6766   4.841  15.241  17.220
    1STR    H1N 6767   4.798  15.170  17.375
    1STR    H1O 6768   4.812  15.344  17.359
    1STR    H1P 6769   4.672  15.398  17.101
    1STR    H1Q 6770   4.503  15.386  17.145
    1STR    H1R 6771   4.642  15.643  17.097
    1STR    H1S 6772   4.407  15.742  17.110
    1STR    H1T 6773   4.373  15.636  17.245
    1STR    H1U 6774   4.404  15.569  17.084
    1STR    H1V 6775   4.722  15.770  17.302
    1STR    H1W 6776   4.557  15.782  17.358
    1STR    H1X 6777   4.622  16.067  17.060
    1STR    H1Y 6778   4.731  16.274  17.030
    1STR    H1Z 6779   4.704  16.514  17.003
    1STR    H20 6780   4.466  16.708  16.990
    1STR    H21 6781   4.459  16.723  17.168
    1STR    H22 6782   4.613  16.715  17.086
    1STR    H23 6783   4.250  16.461  17.289
    1STR    H27 6784   4.347  16.251  17.223
    1STR    H28 6785   4.609  14.435  17.033
    1STR    H29 6786   4.628  14.204  16.974
    1STR    H2A 6787   4.554  13.926  17.183
    1STR    H2B 6788   4.612  13.976  17.025
    1STR    H2C 6789   4.441  13.940  17.047
    1STR   BCK1 6790   4.242  13.938   4.264
    1STR    O03 6791   4.352  13.885   4.269
    1STR    N04 6792   4.233  14.065   4.310
    1STR    C05 6793   4.136  14.158   4.353
    1STR    C06 6794   4.160  14.299   4.336
    1STR    C07 6795   4.078  14.401   4.394
    1STR    N08 6796   4.106  14.540   4.378
    1STR    C09 6797   4.038  14.650   4.420
    1STR    O0A 6798   3.933  14.646   4.484
    1STR    O0B 6799   4.098  14.769   4.385
    1STR    C0C 6800   4.040  14.896   4.427
    1STR    C0D 6801   4.078  14.925   4.573
    1STR    C0E 6802   4.079  15.017   4.335
    1STR    O0F 6803   4.014  15.140   4.375
    1STR    C0G 6804   4.036  15.256   4.291
    1STR    C0H 6805   3.952  15.241   4.163
    1STR    C0I 6806   3.998  15.389   4.364
    1STR    O0J 6807   4.032  15.506   4.287
    1STR    C0K 6808   3.997  15.635   4.342
    1STR    C0M 6809   4.084  15.665   4.465
    1STR    C0N 6810   4.016  15.749   4.236
    1STR    O0O 6811   3.962  15.873   4.284
    1STR    C0P 6812   4.013  15.994   4.248
    1STR    O0Q 6813   4.108  16.012   4.173
    1STR    N0R 6814   3.946  16.091   4.312
    1STR    C0S 6815   3.965  16.229   4.328
    1STR    C0T 6816   3.922  16.279   4.453
    1STR    C0U 6817   3.936  16.414   4.484
    1STR    C0V 6818   3.988  16.506   4.392
    1STR    C0W 6819   3.997  16.649   4.442
    1STR    C0X 6820   4.026  16.463   4.261
    1STR    N0Y 6821   4.053  16.550   4.152
    1STR   BCK2 6822   4.092  16.679   4.139
    1STR    O10 6823   4.139  16.751   4.226
    1STR    C13 6824   4.017  16.322   4.233
    1STR    C14 6825   3.969  14.355   4.472
    1STR    C15 6826   3.944  14.218   4.492
    1STR    C16 6827   4.027  14.120   4.435
    1STR    C17 6828   4.000  13.976   4.474
    1STR    H1B 6829   4.327  14.096   4.326
    1STR    H1C 6830   4.245  14.329   4.277
    1STR    H1D 6831   4.189  14.565   4.327
    1STR    H1E 6832   3.931  14.887   4.421
    1STR    H1F 6833   4.185  14.937   4.586
    1STR    H1G 6834   4.030  15.017   4.608
    1STR    H1H 6835   4.045  14.845   4.640
    1STR    H1I 6836   4.052  14.991   4.233
    1STR    H1J 6837   4.187  15.031   4.337
    1STR    H1K 6838   4.142  15.262   4.266
    1STR    H1M 6839   3.847  15.228   4.186
    1STR    H1N 6840   3.984  15.157   4.102
    1STR    H1O 6841   3.961  15.331   4.101
    1STR    H1P 6842   3.891  15.389   4.387
    1STR    H1Q 6843   4.050  15.391   4.460
    1STR    H1R 6844   3.892  15.633   4.370
    1STR    H1S 6845   4.065  15.765   4.503
    1STR    H1T 6846   4.190  15.659   4.441
    1STR    H1U 6847   4.064  15.596   4.548
    1STR    H1V 6848   3.964  15.724   4.144
    1STR    H1W 6849   4.121  15.760   4.211
    1STR    H1X 6850   3.872  16.050   4.366
    1STR    H1Y 6851   3.879  16.213   4.527
    1STR    H1Z 6852   3.904  16.447   4.582
    1STR    H20 6853   4.102  16.678   4.451
    1STR    H21 6854   3.945  16.718   4.375
    1STR    H22 6855   3.954  16.661   4.541
    1STR    H23 6856   4.036  16.510   4.062
    1STR    H27 6857   4.048  16.283   4.137
    1STR    H28 6858   3.902  14.423   4.523
    1STR    H29 6859   3.862  14.190   4.555
    1STR    H2A 6860   3.948  13.924   4.393
    1STR    H2B 6861   3.938  13.969   4.563
    1STR    H2C 6862   4.093  13.923   4.496
    1STR   BCK1 6863   4.375  13.958   8.640
    1STR    O03 6864   4.477  13.896   8.615
    1STR    N04 6865   4.370  14.081   8.698
    1STR    C05 6866   4.471  14.168   8.751
    1STR    C06 6867   4.452  14.312   8.750
    1STR    C07 6868   4.547  14.406   8.804
    1STR    N08 6869   4.524  14.547   8.807
    1STR    C09 6870   4.605  14.651   8.844
    1STR    O0A 6871   4.722  14.637   8.877
    1STR    O0B 6872   4.545  14.777   8.841
    1STR    C0C 6873   4.622  14.898   8.869
    1STR    C0D 6874   4.708  14.931   8.745
    1STR    C0E 6875   4.537  15.023   8.911
    1STR    O0F 6876   4.613  15.147   8.925
    1STR    C0G 6877   4.542  15.266   8.971
    1STR    C0H 6878   4.524  15.255   9.124
    1STR    C0I 6879   4.615  15.401   8.935
    1STR    O0J 6880   4.533  15.520   8.953
    1STR    C0K 6881   4.590  15.651   8.924
    1STR    C0M 6882   4.631  15.659   8.776
    1STR    C0N 6883   4.491  15.770   8.954
    1STR    O0O 6884   4.547  15.901   8.927
    1STR    C0P 6885   4.471  16.007   8.881
    1STR    O0Q 6886   4.354  16.001   8.846
    1STR    N0R 6887   4.544  16.120   8.884
    1STR    C0S 6888   4.526  16.256   8.849
    1STR    C0T 6889   4.624  16.342   8.902
    1STR    C0U 6890   4.629  16.478   8.867
    1STR    C0V 6891   4.536  16.533   8.777
    1STR    C0W 6892   4.562  16.676   8.731
    1STR    C0X 6893   4.428  16.454   8.728
    1STR    N0Y 6894   4.337  16.510   8.635
    1STR   BCK2 6895   4.271  16.629   8.635
    1STR    O10 6896   4.267  16.706   8.730
    1STR    C13 6897   4.426  16.314   8.764
    1STR    C14 6898   4.665  14.350   8.857
    1STR    C15 6899   4.685  14.212   8.863
    1STR    C16 6900   4.589  14.121   8.816
    1STR    C17 6901   4.616  13.975   8.847
    1STR    H1B 6902   4.277  14.118   8.700
    1STR    H1C 6903   4.362  14.351   8.706
    1STR    H1D 6904   4.433  14.580   8.779
    1STR    H1E 6905   4.691  14.876   8.951
    1STR    H1F 6906   4.646  14.953   8.658
    1STR    H1G 6907   4.771  15.018   8.764
    1STR    H1H 6908   4.774  14.849   8.719
    1STR    H1I 6909   4.488  15.000   9.006
    1STR    H1J 6910   4.458  15.039   8.838
    1STR    H1K 6911   4.445  15.269   8.923
    1STR    H1M 6912   4.620  15.244   9.174
    1STR    H1N 6913   4.462  15.171   9.152
    1STR    H1O 6914   4.477  15.345   9.164
    1STR    H1P 6915   4.707  15.410   8.994
    1STR    H1Q 6916   4.647  15.394   8.831
    1STR    H1R 6917   4.679  15.664   8.986
    1STR    H1S 6918   4.668  15.758   8.751
    1STR    H1T 6919   4.546  15.638   8.711
    1STR    H1U 6920   4.711  15.589   8.751
    1STR    H1V 6921   4.463  15.768   9.060
    1STR    H1W 6922   4.398  15.757   8.899
    1STR    H1X 6923   4.634  16.098   8.923
    1STR    H1Y 6924   4.700  16.306   8.969
    1STR    H1Z 6925   4.708  16.540   8.906
    1STR    H20 6926   4.533  16.690   8.626
    1STR    H21 6927   4.507  16.747   8.792
    1STR    H22 6928   4.668  16.701   8.738
    1STR    H23 6929   4.318  16.454   8.553
    1STR    H27 6930   4.349  16.250   8.724
    1STR    H28 6931   4.744  14.411   8.898
    1STR    H29 6932   4.776  14.175   8.909
    1STR    H2A 6933   4.524  13.920   8.867
    1STR    H2B 6934   4.679  13.964   8.935
    1STR    H2C 6935   4.669  13.928   8.764
    1STR   BCK1 6936   4.226  13.945  12.964
    1STR    O03 6937   4.104  13.953  12.973
    1STR    N04 6938   4.303  14.050  12.927
    1STR    C05 6939   4.260  14.162  12.853
    1STR    C06 6940   4.282  14.299  12.893
    1STR    C07 6941   4.245  14.410  12.810
    1STR    N08 6942   4.273  14.546  12.845
    1STR    C09 6943   4.238  14.661  12.782
    1STR    O0A 6944   4.165  14.666  12.683
    1STR    O0B 6945   4.290  14.776  12.838
    1STR    C0C 6946   4.255  14.906  12.781
    1STR    C0D 6947   4.113  14.945  12.827
    1STR    C0E 6948   4.355  15.021  12.811
    1STR    O0F 6949   4.314  15.145  12.749
    1STR    C0G 6950   4.399  15.260  12.763
    1STR    C0H 6951   4.518  15.247  12.666
    1STR    C0I 6952   4.320  15.392  12.735
    1STR    O0J 6953   4.392  15.513  12.771
    1STR    C0K 6954   4.325  15.639  12.745
    1STR    C0M 6955   4.202  15.653  12.836
    1STR    C0N 6956   4.417  15.763  12.766
    1STR    O0O 6957   4.359  15.879  12.704
    1STR    C0P 6958   4.359  16.004  12.760
    1STR    O0Q 6959   4.393  16.033  12.874
    1STR    N0R 6960   4.315  16.089  12.667
    1STR    C0S 6961   4.286  16.226  12.655
    1STR    C0T 6962   4.270  16.267  12.522
    1STR    C0U 6963   4.220  16.394  12.491
    1STR    C0V 6964   4.183  16.484  12.592
    1STR    C0W 6965   4.103  16.603  12.544
    1STR    C0X 6966   4.210  16.454  12.729
    1STR    N0Y 6967   4.172  16.538  12.836
    1STR   BCK2 6968   4.153  16.670  12.862
    1STR    O10 6969   4.096  16.700  12.966
    1STR    C13 6970   4.260  16.322  12.758
    1STR    C14 6971   4.184  14.378  12.686
    1STR    C15 6972   4.164  14.246  12.645
    1STR    C16 6973   4.204  14.138  12.725
    1STR    C17 6974   4.192  13.998  12.667
    1STR    H1B 6975   4.402  14.035  12.933
    1STR    H1C 6976   4.329  14.317  12.989
    1STR    H1D 6977   4.327  14.562  12.928
    1STR    H1E 6978   4.253  14.895  12.672
    1STR    H1F 6979   4.108  14.959  12.935
    1STR    H1G 6980   4.081  15.038  12.780
    1STR    H1H 6981   4.040  14.869  12.800
    1STR    H1I 6982   4.454  14.992  12.774
    1STR    H1J 6983   4.365  15.035  12.918
    1STR    H1K 6984   4.436  15.265  12.866
    1STR    H1M 6985   4.483  15.235  12.563
    1STR    H1N 6986   4.581  15.161  12.690
    1STR    H1O 6987   4.581  15.336  12.669
    1STR    H1P 6988   4.292  15.396  12.630
    1STR    H1Q 6989   4.227  15.387  12.792
    1STR    H1R 6990   4.294  15.639  12.640
    1STR    H1S 6991   4.157  15.752  12.824
    1STR    H1T 6992   4.230  15.643  12.941
    1STR    H1U 6993   4.124  15.581  12.813
    1STR    H1V 6994   4.514  15.746  12.719
    1STR    H1W 6995   4.438  15.780  12.872
    1STR    H1X 6996   4.300  16.035  12.584
    1STR    H1Y 6997   4.291  16.200  12.440
    1STR    H1Z 6998   4.203  16.419  12.387
    1STR    H20 6999   4.030  16.634  12.619
    1STR    H21 7000   4.169  16.686  12.519
    1STR    H22 7001   4.046  16.579  12.454
    1STR    H23 7002   4.153  16.489  12.921
    1STR    H27 7003   4.275  16.291  12.860
    1STR    H28 7004   4.152  14.452  12.616
    1STR    H29 7005   4.119  14.227  12.549
    1STR    H2A 7006   4.283  13.941  12.685
    1STR    H2B 7007   4.175  14.000  12.560
    1STR    H2C 7008   4.109  13.945  12.713
    1STR   BCK1 7009   8.601   0.871  17.425
    1STR    O03 7010   8.684   0.810   0.050
    1STR    N04 7011   8.560   0.998   0.011
    1STR    C05 7012   8.585   1.087   0.119
    1STR    C06 7013   8.589   1.229   0.096
    1STR    C07 7014   8.602   1.326   0.202
    1STR    N08 7015   8.600   1.466   0.178
    1STR    C09 7016   8.582   1.570   0.264
    1STR    O0A 7017   8.559   1.557   0.384
    1STR    O0B 7018   8.590   1.695   0.204
    1STR    C0C 7019   8.580   1.817   0.284
    1STR    C0D 7020   8.716   1.845   0.351
    1STR    C0E 7021   8.533   1.942   0.202
    1STR    O0F 7022   8.524   2.064   0.279
    1STR    C0G 7023   8.471   2.181   0.211
    1STR    C0H 7024   8.318   2.167   0.203
    1STR    C0I 7025   8.508   2.316   0.282
    1STR    O0J 7026   8.470   2.432   0.203
    1STR    C0K 7027   8.492   2.564   0.258
    1STR    C0M 7028   8.643   2.589   0.275
    1STR    C0N 7029   8.431   2.676   0.167
    1STR    O0O 7030   8.443   2.808   0.223
    1STR    C0P 7031   8.451   2.920   0.145
    1STR    O0Q 7032   8.456   2.921   0.022
    1STR    N0R 7033   8.454   3.030   0.222
    1STR    C0S 7034   8.471   3.168   0.199
    1STR    C0T 7035   8.490   3.245   0.315
    1STR    C0U 7036   8.517   3.383   0.308
    1STR    C0V 7037   8.523   3.449   0.184
    1STR    C0W 7038   8.566   3.595   0.181
    1STR    C0X 7039   8.496   3.377   0.065
    1STR    N0Y 7040   8.505   3.447  17.383
    1STR   BCK2 7041   8.424   3.545  17.338
    1STR    O10 7042   8.318   3.576  17.391
    1STR    C13 7043   8.473   3.236   0.073
    1STR    C14 7044   8.618   1.275   0.333
    1STR    C15 7045   8.612   1.137   0.358
    1STR    C16 7046   8.592   1.043   0.254
    1STR    C17 7047   8.573   0.899   0.298
    1STR    H1B 7048   8.500   1.034  17.378
    1STR    H1C 7049   8.580   1.265  17.435
    1STR    H1D 7050   8.614   1.498   0.084
    1STR    H1E 7051   8.506   1.801   0.363
    1STR    H1F 7052   8.794   1.862   0.277
    1STR    H1G 7053   8.710   1.933   0.414
    1STR    H1H 7054   8.747   1.762   0.414
    1STR    H1I 7055   8.435   1.918   0.159
    1STR    H1J 7056   8.600   1.957   0.117
    1STR    H1K 7057   8.513   2.186   0.111
    1STR    H1M 7058   8.274   2.154   0.302
    1STR    H1N 7059   8.287   2.083   0.141
    1STR    H1O 7060   8.273   2.256   0.159
    1STR    H1P 7061   8.460   2.321   0.380
    1STR    H1Q 7062   8.615   2.317   0.300
    1STR    H1R 7063   8.444   2.570   0.356
    1STR    H1S 7064   8.662   2.691   0.309
    1STR    H1T 7065   8.695   2.577   0.180
    1STR    H1U 7066   8.689   2.523   0.348
    1STR    H1V 7067   8.325   2.656   0.151
    1STR    H1W 7068   8.477   2.673   0.068
    1STR    H1X 7069   8.444   3.002   0.318
    1STR    H1Y 7070   8.488   3.199   0.413
    1STR    H1Z 7071   8.536   3.437   0.399
    1STR    H20 7072   8.656   3.606   0.121
    1STR    H21 7073   8.488   3.657   0.137
    1STR    H22 7074   8.587   3.633   0.281
    1STR    H23 7075   8.588   3.431  17.328
    1STR    H27 7076   8.456   3.179  17.422
    1STR    H28 7077   8.632   1.339   0.418
    1STR    H29 7078   8.621   1.103   0.460
    1STR    H2A 7079   8.502   0.847   0.234
    1STR    H2B 7080   8.535   0.893   0.400
    1STR    H2C 7081   8.669   0.846   0.296
    1STR   BCK1 7082   8.690   0.884   4.212
    1STR    O03 7083   8.658   0.899   4.094
    1STR    N04 7084   8.755   0.978   4.285
    1STR    C05 7085   8.840   1.082   4.240
    1STR    C06 7086   8.820   1.223   4.265
    1STR    C07 7087   8.918   1.324   4.232
    1STR    N08 7088   8.901   1.464   4.260
    1STR    C09 7089   8.976   1.572   4.222
    1STR    O0A 7090   9.073   1.564   4.148
    1STR    O0B 7091   8.935   1.695   4.274
    1STR    C0C 7092   9.001   1.819   4.233
    1STR    C0D 7093   8.953   1.857   4.092
    1STR    C0E 7094   8.983   1.943   4.330
    1STR    O0F 7095   9.041   2.067   4.279
    1STR    C0G 7096   9.034   2.186   4.361
    1STR    C0H 7097   9.140   2.177   4.472
    1STR    C0I 7098   9.054   2.318   4.277
    1STR    O0J 7099   9.020   2.442   4.347
    1STR    C0K 7100   9.031   2.568   4.272
    1STR    C0M 7101   8.928   2.569   4.158
    1STR    C0N 7102   9.008   2.697   4.359
    1STR    O0O 7103   9.030   2.819   4.284
    1STR    C0P 7104   8.950   2.931   4.296
    1STR    O0Q 7105   8.846   2.938   4.360
    1STR    N0R 7106   9.006   3.034   4.231
    1STR    C0S 7107   8.973   3.171   4.210
    1STR    C0T 7108   9.084   3.254   4.183
    1STR    C0U 7109   9.066   3.391   4.157
    1STR    C0V 7110   8.938   3.451   4.157
    1STR    C0W 7111   8.935   3.601   4.136
    1STR    C0X 7112   8.823   3.371   4.181
    1STR    N0Y 7113   8.691   3.423   4.193
    1STR   BCK2 7114   8.611   3.527   4.155
    1STR    O10 7115   8.500   3.532   4.207
    1STR    C13 7116   8.844   3.231   4.210
    1STR    C14 7117   9.038   1.276   4.174
    1STR    C15 7118   9.060   1.139   4.150
    1STR    C16 7119   8.964   1.043   4.185
    1STR    C17 7120   9.000   0.896   4.167
    1STR    H1B 7121   8.761   0.956   4.383
    1STR    H1C 7122   8.727   1.253   4.312
    1STR    H1D 7123   8.822   1.490   4.316
    1STR    H1E 7124   9.108   1.799   4.227
    1STR    H1F 7125   8.846   1.878   4.091
    1STR    H1G 7126   9.004   1.945   4.055
    1STR    H1H 7127   8.972   1.777   4.020
    1STR    H1I 7128   9.029   1.918   4.426
    1STR    H1J 7129   8.877   1.959   4.349
    1STR    H1K 7130   8.934   2.192   4.406
    1STR    H1M 7131   9.240   2.164   4.429
    1STR    H1N 7132   9.122   2.093   4.539
    1STR    H1O 7133   9.142   2.267   4.532
    1STR    H1P 7134   9.157   2.324   4.242
    1STR    H1Q 7135   8.992   2.309   4.188
    1STR    H1R 7136   9.132   2.574   4.231
    1STR    H1S 7137   8.929   2.665   4.107
    1STR    H1T 7138   8.828   2.554   4.196
    1STR    H1U 7139   8.948   2.494   4.082
    1STR    H1V 7140   9.077   2.697   4.444
    1STR    H1W 7141   8.908   2.696   4.403
    1STR    H1X 7142   9.094   3.005   4.192
    1STR    H1Y 7143   9.184   3.215   4.183
    1STR    H1Z 7144   9.154   3.452   4.139
    1STR    H20 7145   8.909   3.622   4.032
    1STR    H21 7146   8.863   3.648   4.203
    1STR    H22 7147   9.032   3.647   4.155
    1STR    H23 7148   8.633   3.365   4.251
    1STR    H27 7149   8.759   3.168   4.232
    1STR    H28 7150   9.119   1.341   4.147
    1STR    H29 7151   9.155   1.109   4.108
    1STR    H2A 7152   8.980   0.840   4.258
    1STR    H2B 7153   9.105   0.883   4.142
    1STR    H2C 7154   8.941   0.853   4.086
    1STR   BCK1 7155   8.616   0.851   8.608
    1STR    O03 7156   8.705   0.793   8.670
    1STR    N04 7157   8.594   0.981   8.640
    1STR    C05 7158   8.496   1.080   8.619
    1STR    C06 7159   8.535   1.219   8.614
    1STR    C07 7160   8.440   1.327   8.609
    1STR    N08 7161   8.481   1.464   8.608
    1STR    C09 7162   8.407   1.578   8.605
    1STR    O0A 7163   8.285   1.580   8.602
    1STR    O0B 7164   8.482   1.694   8.605
    1STR    C0C 7165   8.414   1.823   8.608
    1STR    C0D 7166   8.368   1.854   8.752
    1STR    C0E 7167   8.499   1.941   8.551
    1STR    O0F 7168   8.423   2.065   8.548
    1STR    C0G 7169   8.486   2.181   8.488
    1STR    C0H 7170   8.483   2.165   8.335
    1STR    C0I 7171   8.413   2.313   8.530
    1STR    O0J 7172   8.481   2.432   8.482
    1STR    C0K 7173   8.419   2.559   8.511
    1STR    C0M 7174   8.427   2.588   8.662
    1STR    C0N 7175   8.486   2.676   8.432
    1STR    O0O 7176   8.404   2.795   8.436
    1STR    C0P 7177   8.456   2.921   8.450
    1STR    O0Q 7178   8.575   2.947   8.466
    1STR    N0R 7179   8.357   3.010   8.450
    1STR    C0S 7180   8.351   3.146   8.484
    1STR    C0T 7181   8.236   3.184   8.556
    1STR    C0U 7182   8.220   3.315   8.605
    1STR    C0V 7183   8.317   3.413   8.580
    1STR    C0W 7184   8.307   3.544   8.656
    1STR    C0X 7185   8.427   3.384   8.495
    1STR    N0Y 7186   8.523   3.483   8.468
    1STR   BCK2 7187   8.514   3.609   8.421
    1STR    O10 7188   8.610   3.684   8.434
    1STR    C13 7189   8.446   3.248   8.453
    1STR    C14 7190   8.304   1.290   8.606
    1STR    C15 7191   8.264   1.156   8.613
    1STR    C16 7192   8.357   1.051   8.623
    1STR    C17 7193   8.301   0.913   8.647
    1STR    H1B 7194   8.669   1.010   8.700
    1STR    H1C 7195   8.640   1.243   8.617
    1STR    H1D 7196   8.580   1.483   8.612
    1STR    H1E 7197   8.325   1.816   8.545
    1STR    H1F 7198   8.453   1.865   8.820
    1STR    H1G 7199   8.312   1.948   8.755
    1STR    H1H 7200   8.303   1.776   8.791
    1STR    H1I 7201   8.531   1.915   8.451
    1STR    H1J 7202   8.589   1.955   8.611
    1STR    H1K 7203   8.589   2.188   8.523
    1STR    H1M 7204   8.382   2.150   8.299
    1STR    H1N 7205   8.543   2.081   8.301
    1STR    H1O 7206   8.523   2.254   8.287
    1STR    H1P 7207   8.311   2.311   8.492
    1STR    H1Q 7208   8.407   2.315   8.638
    1STR    H1R 7209   8.314   2.554   8.480
    1STR    H1S 7210   8.389   2.688   8.684
    1STR    H1T 7211   8.530   2.584   8.697
    1STR    H1U 7212   8.368   2.519   8.721
    1STR    H1V 7213   8.498   2.648   8.328
    1STR    H1W 7214   8.586   2.696   8.470
    1STR    H1X 7215   8.270   2.964   8.433
    1STR    H1Y 7216   8.160   3.111   8.580
    1STR    H1Z 7217   8.134   3.338   8.666
    1STR    H20 7218   8.403   3.568   8.702
    1STR    H21 7219   8.277   3.627   8.593
    1STR    H22 7220   8.233   3.538   8.737
    1STR    H23 7221   8.618   3.460   8.493
    1STR    H27 7222   8.534   3.221   8.396
    1STR    H28 7223   8.224   1.362   8.602
    1STR    H29 7224   8.158   1.134   8.615
    1STR    H2A 7225   8.286   0.861   8.552
    1STR    H2B 7226   8.204   0.917   8.697
    1STR    H2C 7227   8.367   0.854   8.711
    1STR   BCK1 7228   8.697   0.874  13.056
    1STR    O03 7229   8.800   0.810  13.069
    1STR    N04 7230   8.676   0.999  13.106
    1STR    C05 7231   8.755   1.086  13.189
    1STR    C06 7232   8.741   1.229  13.178
    1STR    C07 7233   8.813   1.323  13.261
    1STR    N08 7234   8.793   1.465  13.252
    1STR    C09 7235   8.846   1.568  13.325
    1STR    O0A 7236   8.925   1.553  13.417
    1STR    O0B 7237   8.801   1.695  13.288
    1STR    C0C 7238   8.856   1.816  13.351
    1STR    C0D 7239   8.994   1.846  13.290
    1STR    C0E 7240   8.763   1.942  13.340
    1STR    O0F 7241   8.820   2.066  13.393
    1STR    C0G 7242   8.735   2.184  13.395
    1STR    C0H 7243   8.638   2.172  13.514
    1STR    C0I 7244   8.814   2.320  13.404
    1STR    O0J 7245   8.731   2.437  13.379
    1STR    C0K 7246   8.790   2.570  13.388
    1STR    C0M 7247   8.902   2.585  13.285
    1STR    C0N 7248   8.684   2.684  13.365
    1STR    O0O 7249   8.738   2.818  13.375
    1STR    C0P 7250   8.686   2.925  13.304
    1STR    O0Q 7251   8.599   2.918  13.219
    1STR    N0R 7252   8.746   3.039  13.343
    1STR    C0S 7253   8.742   3.176  13.306
    1STR    C0T 7254   8.822   3.259  13.385
    1STR    C0U 7255   8.839   3.395  13.354
    1STR    C0V 7256   8.776   3.453  13.242
    1STR    C0W 7257   8.816   3.595  13.206
    1STR    C0X 7258   8.685   3.376  13.164
    1STR    N0Y 7259   8.622   3.434  13.051
    1STR   BCK2 7260   8.558   3.553  13.039
    1STR    O10 7261   8.529   3.627  13.132
    1STR    C13 7262   8.672   3.236  13.196
    1STR    C14 7263   8.903   1.268  13.354
    1STR    C15 7264   8.916   1.129  13.369
    1STR    C16 7265   8.841   1.038  13.292
    1STR    C17 7266   8.853   0.893  13.333
    1STR    H1B 7267   8.589   1.037  13.075
    1STR    H1C 7268   8.674   1.268  13.104
    1STR    H1D 7269   8.731   1.499  13.181
    1STR    H1E 7270   8.870   1.795  13.457
    1STR    H1F 7271   8.988   1.866  13.183
    1STR    H1G 7272   9.040   1.932  13.338
    1STR    H1H 7273   9.062   1.762  13.304
    1STR    H1I 7274   8.670   1.920  13.392
    1STR    H1J 7275   8.736   1.958  13.236
    1STR    H1K 7276   8.678   2.187  13.302
    1STR    H1M 7277   8.693   2.160  13.608
    1STR    H1N 7278   8.571   2.087  13.504
    1STR    H1O 7279   8.577   2.261  13.523
    1STR    H1P 7280   8.861   2.328  13.502
    1STR    H1Q 7281   8.895   2.316  13.331
    1STR    H1R 7282   8.832   2.582  13.488
    1STR    H1S 7283   8.943   2.686  13.286
    1STR    H1T 7284   8.865   2.566  13.184
    1STR    H1U 7285   8.986   2.518  13.303
    1STR    H1V 7286   8.605   2.676  13.440
    1STR    H1W 7287   8.635   2.671  13.269
    1STR    H1X 7288   8.810   3.017  13.418
    1STR    H1Y 7289   8.875   3.221  13.471
    1STR    H1Z 7290   8.905   3.455  13.415
    1STR    H20 7291   8.817   3.610  13.098
    1STR    H21 7292   8.747   3.667  13.251
    1STR    H22 7293   8.916   3.618  13.242
    1STR    H23 7294   8.625   3.381  12.966
    1STR    H27 7295   8.608   3.173  13.135
    1STR    H28 7296   8.964   1.328  13.418
    1STR    H29 7297   8.984   1.092  13.445
    1STR    H2A 7298   8.759   0.840  13.321
    1STR    H2B 7299   8.882   0.883  13.438
    1STR    H2C 7300   8.931   0.843  13.274
    1STR   BCK1 7301   8.605   5.236  17.284
    1STR    O03 7302   8.505   5.249  17.214
    1STR    N04 7303   8.698   5.333  17.300
    1STR    C05 7304   8.721   5.443  17.214
    1STR    C06 7305   8.721   5.580  17.256
    1STR    C07 7306   8.755   5.688  17.166
    1STR    N08 7307   8.761   5.825  17.206
    1STR    C09 7308   8.768   5.937  17.130
    1STR    O0A 7309   8.758   5.937  17.008
    1STR    O0B 7310   8.786   6.055  17.201
    1STR    C0C 7311   8.790   6.183  17.130
    1STR    C0D 7312   8.646   6.223  17.091
    1STR    C0E 7313   8.859   6.301  17.207
    1STR    O0F 7314   8.857   6.424  17.131
    1STR    C0G 7315   8.918   6.542  17.188
    1STR    C0H 7316   9.071   6.531  17.173
    1STR    C0I 7317   8.866   6.672  17.118
    1STR    O0J 7318   8.902   6.797  17.184
    1STR    C0K 7319   8.849   6.919  17.125
    1STR    C0M 7320   8.697   6.925  17.146
    1STR    C0N 7321   8.911   7.051  17.183
    1STR    O0O 7322   8.870   7.165  17.105
    1STR    C0P 7323   8.840   7.287  17.159
    1STR    O0Q 7324   8.832   7.312  17.278
    1STR    N0R 7325   8.827   7.377  17.060
    1STR    C0S 7326   8.812   7.517  17.057
    1STR    C0T 7327   8.896   7.585  16.966
    1STR    C0U 7328   8.888   7.724  16.950
    1STR    C0V 7329   8.794   7.801  17.022
    1STR    C0W 7330   8.807   7.951  17.007
    1STR    C0X 7331   8.701   7.737  17.108
    1STR    N0Y 7332   8.605   7.808  17.185
    1STR   BCK2 7333   8.527   7.918  17.177
    1STR    O10 7334   8.463   7.950  17.277
    1STR    C13 7335   8.715   7.595  17.127
    1STR    C14 7336   8.789   5.650  17.034
    1STR    C15 7337   8.792   5.516  16.992
    1STR    C16 7338   8.761   5.413  17.081
    1STR    C17 7339   8.777   5.269  17.033
    1STR    H1B 7340   8.769   5.312  17.368
    1STR    H1C 7341   8.695   5.603  17.358
    1STR    H1D 7342   8.760   5.845  17.304
    1STR    H1E 7343   8.847   6.168  17.038
    1STR    H1F 7344   8.584   6.240  17.178
    1STR    H1G 7345   8.647   6.315  17.032
    1STR    H1H 7346   8.599   6.147  17.029
    1STR    H1I 7347   8.962   6.272  17.228
    1STR    H1J 7348   8.810   6.316  17.303
    1STR    H1K 7349   8.892   6.548  17.294
    1STR    H1M 7350   9.099   6.517  17.069
    1STR    H1N 7351   9.112   6.447  17.229
    1STR    H1O 7352   9.121   6.621  17.210
    1STR    H1P 7353   8.900   6.674  17.015
    1STR    H1Q 7354   8.757   6.664  17.115
    1STR    H1R 7355   8.872   6.918  17.018
    1STR    H1S 7356   8.657   7.021  17.112
    1STR    H1T 7357   8.673   6.916  17.252
    1STR    H1U 7358   8.644   6.848  17.091
    1STR    H1V 7359   9.020   7.046  17.181
    1STR    H1W 7360   8.884   7.063  17.288
    1STR    H1X 7361   8.844   7.333  16.972
    1STR    H1Y 7362   8.970   7.531  16.910
    1STR    H1Z 7363   8.957   7.772  16.883
    1STR    H20 7364   8.746   7.985  16.923
    1STR    H21 7365   8.776   8.003  17.098
    1STR    H22 7366   8.910   7.980  16.987
    1STR    H23 7367   8.586   7.765  17.274
    1STR    H27 7368   8.649   7.543  17.196
    1STR    H28 7369   8.818   5.723  16.959
    1STR    H29 7370   8.820   5.494  16.891
    1STR    H2A 7371   8.832   5.210  17.106
    1STR    H2B 7372   8.833   5.264  16.939
    1STR    H2C 7373   8.680   5.223  17.018
    1STR   BCK1 7374   8.565   5.221   4.302
    1STR    O03 7375   8.619   5.165   4.397
    1STR    N04 7376   8.521   5.350   4.304
    1STR    C05 7377   8.505   5.444   4.409
    1STR    C06 7378   8.525   5.584   4.385
    1STR    C07 7379   8.495   5.686   4.482
    1STR    N08 7380   8.510   5.825   4.456
    1STR    C09 7381   8.451   5.931   4.517
    1STR    O0A 7382   8.368   5.921   4.606
    1STR    O0B 7383   8.493   6.054   4.469
    1STR    C0C 7384   8.446   6.178   4.529
    1STR    C0D 7385   8.528   6.207   4.657
    1STR    C0E 7386   8.451   6.301   4.432
    1STR    O0F 7387   8.402   6.423   4.492
    1STR    C0G 7388   8.393   6.540   4.406
    1STR    C0H 7389   8.270   6.525   4.315
    1STR    C0I 7390   8.383   6.673   4.487
    1STR    O0J 7391   8.390   6.790   4.402
    1STR    C0K 7392   8.377   6.921   4.464
    1STR    C0M 7393   8.499   6.948   4.553
    1STR    C0N 7394   8.364   7.034   4.357
    1STR    O0O 7395   8.335   7.162   4.418
    1STR    C0P 7396   8.375   7.280   4.361
    1STR    O0Q 7397   8.442   7.291   4.259
    1STR    N0R 7398   8.333   7.382   4.437
    1STR    C0S 7399   8.356   7.521   4.435
    1STR    C0T 7400   8.329   7.587   4.557
    1STR    C0U 7401   8.354   7.725   4.572
    1STR    C0V 7402   8.402   7.801   4.464
    1STR    C0W 7403   8.439   7.947   4.489
    1STR    C0X 7404   8.421   7.740   4.337
    1STR    N0Y 7405   8.462   7.819   4.228
    1STR   BCK2 7406   8.384   7.913   4.172
    1STR    O10 7407   8.310   7.880   4.080
    1STR    C13 7408   8.401   7.599   4.325
    1STR    C14 7409   8.449   5.641   4.608
    1STR    C15 7410   8.427   5.505   4.634
    1STR    C16 7411   8.451   5.407   4.536
    1STR    C17 7412   8.410   5.265   4.571
    1STR    H1B 7413   8.493   5.381   4.213
    1STR    H1C 7414   8.563   5.615   4.289
    1STR    H1D 7415   8.572   5.852   4.382
    1STR    H1E 7416   8.342   6.164   4.558
    1STR    H1F 7417   8.633   6.222   4.635
    1STR    H1G 7418   8.491   6.297   4.707
    1STR    H1H 7419   8.519   6.125   4.729
    1STR    H1I 7420   8.391   6.276   4.345
    1STR    H1J 7421   8.553   6.316   4.398
    1STR    H1K 7422   8.483   6.546   4.345
    1STR    H1M 7423   8.179   6.511   4.374
    1STR    H1N 7424   8.279   6.441   4.247
    1STR    H1O 7425   8.256   6.614   4.254
    1STR    H1P 7426   8.291   6.675   4.545
    1STR    H1Q 7427   8.465   6.675   4.559
    1STR    H1R 7428   8.287   6.921   4.525
    1STR    H1S 7429   8.496   7.050   4.594
    1STR    H1T 7430   8.592   6.940   4.496
    1STR    H1U 7431   8.506   6.881   4.638
    1STR    H1V 7432   8.283   7.012   4.287
    1STR    H1W 7433   8.455   7.041   4.297
    1STR    H1X 7434   8.278   7.347   4.513
    1STR    H1Y 7435   8.293   7.533   4.643
    1STR    H1Z 7436   8.337   7.771   4.668
    1STR    H20 7437   8.544   7.962   4.465
    1STR    H21 7438   8.380   8.014   4.428
    1STR    H22 7439   8.425   7.975   4.594
    1STR    H23 7440   8.519   7.771   4.161
    1STR    H27 7441   8.419   7.550   4.230
    1STR    H28 7442   8.427   5.710   4.688
    1STR    H29 7443   8.388   5.476   4.730
    1STR    H2A 7444   8.371   5.212   4.484
    1STR    H2B 7445   8.332   5.263   4.646
    1STR    H2C 7446   8.496   5.210   4.610
    1STR   BCK1 7447   8.731   5.241   8.597
    1STR    O03 7448   8.825   5.183   8.544
    1STR    N04 7449   8.740   5.361   8.661
    1STR    C05 7450   8.849   5.449   8.688
    1STR    C06 7451   8.829   5.592   8.695
    1STR    C07 7452   8.934   5.687   8.724
    1STR    N08 7453   8.911   5.828   8.736
    1STR    C09 7454   8.999   5.932   8.746
    1STR    O0A 7455   9.121   5.919   8.736
    1STR    O0B 7456   8.940   6.057   8.765
    1STR    C0C 7457   9.021   6.179   8.766
    1STR    C0D 7458   9.058   6.214   8.621
    1STR    C0E 7459   8.955   6.303   8.837
    1STR    O0F 7460   9.031   6.427   8.824
    1STR    C0G 7461   8.980   6.546   8.891
    1STR    C0H 7462   9.013   6.536   9.041
    1STR    C0I 7463   9.037   6.680   8.831
    1STR    O0J 7464   8.966   6.801   8.873
    1STR    C0K 7465   9.012   6.930   8.822
    1STR    C0M 7466   8.997   6.934   8.669
    1STR    C0N 7467   8.933   7.052   8.882
    1STR    O0O 7468   8.980   7.181   8.834
    1STR    C0P 7469   8.896   7.288   8.809
    1STR    O0Q 7470   8.774   7.284   8.810
    1STR    N0R 7471   8.969   7.399   8.787
    1STR    C0S 7472   8.943   7.535   8.759
    1STR    C0T 7473   9.049   7.621   8.794
    1STR    C0U 7474   9.047   7.757   8.759
    1STR    C0V 7475   8.940   7.813   8.688
    1STR    C0W 7476   8.957   7.956   8.639
    1STR    C0X 7477   8.826   7.733   8.657
    1STR    N0Y 7478   8.721   7.788   8.579
    1STR   BCK2 7479   8.656   7.907   8.588
    1STR    O10 7480   8.665   7.983   8.684
    1STR    C13 7481   8.830   7.593   8.692
    1STR    C14 7482   9.063   5.632   8.743
    1STR    C15 7483   9.084   5.494   8.742
    1STR    C16 7484   8.980   5.402   8.719
    1STR    C17 7485   9.015   5.256   8.739
    1STR    H1B 7486   8.649   5.394   8.690
    1STR    H1C 7487   8.730   5.631   8.677
    1STR    H1D 7488   8.816   5.859   8.740
    1STR    H1E 7489   9.114   6.157   8.820
    1STR    H1F 7490   8.970   6.236   8.561
    1STR    H1G 7491   9.123   6.302   8.618
    1STR    H1H 7492   9.112   6.133   8.573
    1STR    H1I 7493   8.942   6.279   8.942
    1STR    H1J 7494   8.855   6.319   8.796
    1STR    H1K 7495   8.871   6.549   8.878
    1STR    H1M 7496   9.120   6.524   9.056
    1STR    H1N 7497   8.963   6.452   9.088
    1STR    H1O 7498   8.982   6.626   9.094
    1STR    H1P 7499   9.143   6.689   8.856
    1STR    H1Q 7500   9.032   6.671   8.723
    1STR    H1R 7501   9.117   6.942   8.848
    1STR    H1S 7502   9.024   7.032   8.630
    1STR    H1T 7503   8.894   6.914   8.640
    1STR    H1U 7504   9.062   6.862   8.619
    1STR    H1V 7505   8.943   7.053   8.990
    1STR    H1W 7506   8.826   7.042   8.862
    1STR    H1X 7507   9.066   7.375   8.798
    1STR    H1Y 7508   9.136   7.584   8.846
    1STR    H1Z 7509   9.132   7.819   8.785
    1STR    H20 7510   8.913   7.970   8.540
    1STR    H21 7511   8.911   8.026   8.708
    1STR    H22 7512   9.062   7.982   8.629
    1STR    H23 7513   8.691   7.733   8.500
    1STR    H27 7514   8.748   7.528   8.666
    1STR    H28 7515   9.149   5.693   8.765
    1STR    H29 7516   9.184   5.457   8.761
    1STR    H2A 7517   8.931   5.200   8.779
    1STR    H2B 7518   9.097   5.244   8.810
    1STR    H2C 7519   9.047   5.211   8.645
    1STR   BCK1 7520   8.597   5.219  12.971
    1STR    O03 7521   8.492   5.211  13.035
    1STR    N04 7522   8.640   5.333  12.914
    1STR    C05 7523   8.561   5.445  12.879
    1STR    C06 7524   8.599   5.581  12.909
    1STR    C07 7525   8.523   5.693  12.861
    1STR    N08 7526   8.562   5.829  12.884
    1STR    C09 7527   8.516   5.943  12.826
    1STR    O0A 7528   8.428   5.945  12.740
    1STR    O0B 7529   8.574   6.059  12.872
    1STR    C0C 7530   8.520   6.189  12.831
    1STR    C0D 7531   8.402   6.223  12.922
    1STR    C0E 7532   8.623   6.306  12.827
    1STR    O0F 7533   8.562   6.429  12.782
    1STR    C0G 7534   8.647   6.545  12.763
    1STR    C0H 7535   8.726   6.527  12.632
    1STR    C0I 7536   8.564   6.677  12.759
    1STR    O0J 7537   8.647   6.796  12.757
    1STR    C0K 7538   8.580   6.924  12.747
    1STR    C0M 7539   8.501   6.953  12.876
    1STR    C0N 7540   8.681   7.041  12.720
    1STR    O0O 7541   8.618   7.160  12.667
    1STR    C0P 7542   8.621   7.280  12.732
    1STR    O0Q 7543   8.670   7.301  12.842
    1STR    N0R 7544   8.556   7.372  12.659
    1STR    C0S 7545   8.503   7.497  12.694
    1STR    C0T 7546   8.364   7.510  12.677
    1STR    C0U 7547   8.297   7.627  12.715
    1STR    C0V 7548   8.367   7.737  12.768
    1STR    C0W 7549   8.284   7.849  12.829
    1STR    C0X 7550   8.509   7.735  12.771
    1STR    N0Y 7551   8.581   7.846  12.819
    1STR   BCK2 7552   8.574   7.979  12.797
    1STR    O10 7553   8.635   8.055  12.870
    1STR    C13 7554   8.575   7.611  12.740
    1STR    C14 7555   8.404   5.663  12.790
    1STR    C15 7556   8.369   5.532  12.757
    1STR    C16 7557   8.448   5.423  12.797
    1STR    C17 7558   8.411   5.286  12.743
    1STR    H1B 7559   8.733   5.330  12.876
    1STR    H1C 7560   8.688   5.598  12.967
    1STR    H1D 7561   8.635   5.846  12.950
    1STR    H1E 7562   8.483   6.180  12.729
    1STR    H1F 7563   8.433   6.236  13.026
    1STR    H1G 7564   8.354   6.316  12.890
    1STR    H1H 7565   8.326   6.145  12.920
    1STR    H1I 7566   8.705   6.278  12.760
    1STR    H1J 7567   8.667   6.321  12.926
    1STR    H1K 7568   8.717   6.552  12.848
    1STR    H1M 7569   8.659   6.513  12.548
    1STR    H1N 7570   8.794   6.443  12.636
    1STR    H1O 7571   8.786   6.616  12.611
    1STR    H1P 7572   8.498   6.676  12.673
    1STR    H1Q 7573   8.500   6.679  12.847
    1STR    H1R 7574   8.511   6.920  12.662
    1STR    H1S 7575   8.459   7.054  12.874
    1STR    H1T 7576   8.566   6.947  12.963
    1STR    H1U 7577   8.418   6.884  12.891
    1STR    H1V 7578   8.753   7.008  12.645
    1STR    H1W 7579   8.739   7.063  12.809
    1STR    H1X 7580   8.527   7.334  12.571
    1STR    H1Y 7581   8.306   7.427  12.639
    1STR    H1Z 7582   8.189   7.631  12.708
    1STR    H20 7583   8.341   7.906  12.903
    1STR    H21 7584   8.199   7.807  12.882
    1STR    H22 7585   8.247   7.916  12.752
    1STR    H23 7586   8.653   7.825  12.887
    1STR    H27 7587   8.683   7.604  12.751
    1STR    H28 7588   8.337   5.739  12.755
    1STR    H29 7589   8.281   5.515  12.697
    1STR    H2A 7590   8.501   5.232  12.712
    1STR    H2B 7591   8.347   5.293  12.656
    1STR    H2C 7592   8.360   5.228  12.819
    1STR   BCK1 7593   8.633   9.590  17.435
    1STR    O03 7594   8.728   9.527   0.040
    1STR    N04 7595   8.600   9.717   0.032
    1STR    C05 7596   8.648   9.805   0.134
    1STR    C06 7597   8.644   9.948   0.114
    1STR    C07 7598   8.682  10.043   0.215
    1STR    N08 7599   8.673  10.185   0.195
    1STR    C09 7600   8.682  10.288   0.284
    1STR    O0A 7601   8.700  10.273   0.405
    1STR    O0B 7602   8.669  10.414   0.227
    1STR    C0C 7603   8.685  10.535   0.308
    1STR    C0D 7604   8.836  10.563   0.327
    1STR    C0E 7605   8.614  10.661   0.248
    1STR    O0F 7606   8.633  10.784   0.324
    1STR    C0G 7607   8.560  10.902   0.280
    1STR    C0H 7608   8.414  10.889   0.326
    1STR    C0I 7609   8.620  11.037   0.332
    1STR    O0J 7610   8.559  11.154   0.269
    1STR    C0K 7611   8.600  11.286   0.311
    1STR    C0M 7612   8.749  11.308   0.279
    1STR    C0N 7613   8.516  11.398   0.241
    1STR    O0O 7614   8.550  11.532   0.284
    1STR    C0P 7615   8.534  11.641   0.202
    1STR    O0Q 7616   8.500  11.637   0.084
    1STR    N0R 7617   8.562  11.754   0.269
    1STR    C0S 7618   8.571  11.891   0.236
    1STR    C0T 7619   8.612  11.975   0.343
    1STR    C0U 7620   8.634  12.112   0.324
    1STR    C0V 7621   8.614  12.172   0.198
    1STR    C0W 7622   8.654  12.318   0.181
    1STR    C0X 7623   8.565  12.094   0.090
    1STR    N0Y 7624   8.551  12.158  17.405
    1STR   BCK2 7625   8.470  12.260  17.372
    1STR    O10 7626   8.379  12.302   0.003
    1STR    C13 7627   8.546  11.953   0.109
    1STR    C14 7628   8.732   9.990   0.336
    1STR    C15 7629   8.735   9.852   0.359
    1STR    C16 7630   8.690   9.760   0.262
    1STR    C17 7631   8.684   9.615   0.307
    1STR    H1B 7632   8.527   9.754  17.414
    1STR    H1C 7633   8.609   9.985   0.020
    1STR    H1D 7634   8.655  10.218   0.102
    1STR    H1E 7635   8.642  10.517   0.406
    1STR    H1F 7636   8.886  10.582   0.232
    1STR    H1G 7637   8.851  10.651   0.391
    1STR    H1H 7638   8.886  10.479   0.376
    1STR    H1I 7639   8.507  10.639   0.242
    1STR    H1J 7640   8.648  10.678   0.146
    1STR    H1K 7641   8.564  10.906   0.171
    1STR    H1M 7642   8.408  10.876   0.434
    1STR    H1N 7643   8.363  10.805   0.280
    1STR    H1O 7644   8.357  10.978   0.300
    1STR    H1P 7645   8.608  11.044   0.440
    1STR    H1Q 7646   8.727  11.037   0.312
    1STR    H1R 7647   8.585  11.295   0.419
    1STR    H1S 7648   8.779  11.410   0.303
    1STR    H1T 7649   8.768  11.294   0.172
    1STR    H1U 7650   8.815  11.242   0.335
    1STR    H1V 7651   8.410  11.383   0.262
    1STR    H1W 7652   8.526  11.390   0.133
    1STR    H1X 7653   8.582  11.731   0.364
    1STR    H1Y 7654   8.630  11.934   0.441
    1STR    H1Z 7655   8.669  12.171   0.407
    1STR    H20 7656   8.721  12.328   0.095
    1STR    H21 7657   8.566  12.380   0.163
    1STR    H22 7658   8.706  12.357   0.268
    1STR    H23 7659   8.617  12.131  17.333
    1STR    H27 7660   8.514  11.892   0.027
    1STR    H28 7661   8.767  10.053   0.416
    1STR    H29 7662   8.770   9.817   0.455
    1STR    H2A 7663   8.600   9.563   0.263
    1STR    H2B 7664   8.673   9.607   0.415
    1STR    H2C 7665   8.777   9.563   0.281
    1STR   BCK1 7666   8.660   9.602   4.195
    1STR    O03 7667   8.605   9.614   4.086
    1STR    N04 7668   8.737   9.698   4.251
    1STR    C05 7669   8.807   9.804   4.187
    1STR    C06 7670   8.792   9.944   4.219
    1STR    C07 7671   8.874  10.046   4.160
    1STR    N08 7672   8.864  10.185   4.194
    1STR    C09 7673   8.919  10.295   4.134
    1STR    O0A 7674   8.982  10.290   4.029
    1STR    O0B 7675   8.897  10.416   4.199
    1STR    C0C 7676   8.943  10.542   4.139
    1STR    C0D 7677   8.846  10.581   4.026
    1STR    C0E 7678   8.960  10.663   4.239
    1STR    O0F 7679   8.997  10.787   4.172
    1STR    C0G 7680   9.018  10.906   4.252
    1STR    C0H 7681   9.155  10.896   4.321
    1STR    C0I 7682   9.010  11.037   4.165
    1STR    O0J 7683   9.003  11.162   4.241
    1STR    C0K 7684   8.987  11.285   4.165
    1STR    C0M 7685   8.850  11.287   4.097
    1STR    C0N 7686   9.000  11.416   4.250
    1STR    O0O 7687   9.000  11.535   4.167
    1STR    C0P 7688   8.932  11.651   4.200
    1STR    O0Q 7689   8.855  11.664   4.294
    1STR    N0R 7690   8.968  11.750   4.116
    1STR    C0S 7691   8.938  11.888   4.105
    1STR    C0T 7692   9.044  11.967   4.056
    1STR    C0U 7693   9.028  12.105   4.037
    1STR    C0V 7694   8.906  12.169   4.065
    1STR    C0W 7695   8.906  12.320   4.052
    1STR    C0X 7696   8.794  12.094   4.110
    1STR    N0Y 7697   8.669  12.152   4.147
    1STR   BCK2 7698   8.588  12.258   4.120
    1STR    O10 7699   8.490  12.272   4.191
    1STR    C13 7700   8.814  11.953   4.133
    1STR    C14 7701   8.972  10.002   4.068
    1STR    C15 7702   8.989   9.866   4.037
    1STR    C16 7703   8.909   9.767   4.097
    1STR    C17 7704   8.941   9.622   4.067
    1STR    H1B 7705   8.765   9.679   4.346
    1STR    H1C 7706   8.717   9.971   4.291
    1STR    H1D 7707   8.809  10.210   4.274
    1STR    H1E 7708   9.041  10.524   4.095
    1STR    H1F 7709   8.746  10.600   4.064
    1STR    H1G 7710   8.881  10.671   3.975
    1STR    H1H 7711   8.840  10.502   3.951
    1STR    H1I 7712   9.036  10.637   4.313
    1STR    H1J 7713   8.867  10.679   4.293
    1STR    H1K 7714   8.939  10.912   4.327
    1STR    H1M 7715   9.235  10.883   4.248
    1STR    H1N 7716   9.160  10.812   4.391
    1STR    H1O 7717   9.177  10.986   4.378
    1STR    H1P 7718   9.095  11.041   4.097
    1STR    H1Q 7719   8.921  11.027   4.103
    1STR    H1R 7720   9.066  11.288   4.089
    1STR    H1S 7721   8.833  11.383   4.047
    1STR    H1T 7722   8.770  11.275   4.170
    1STR    H1U 7723   8.839  11.211   4.021
    1STR    H1V 7724   9.094  11.415   4.305
    1STR    H1W 7725   8.922  11.421   4.326
    1STR    H1X 7726   9.037  11.715   4.053
    1STR    H1Y 7727   9.140  11.924   4.035
    1STR    H1Z 7728   9.112  12.163   4.003
    1STR    H20 7729   8.869  12.349   3.953
    1STR    H21 7730   8.845  12.367   4.129
    1STR    H22 7731   9.006  12.362   4.061
    1STR    H23 7732   8.622  12.098   4.218
    1STR    H27 7733   8.733  11.892   4.171
    1STR    H28 7734   9.041  10.070   4.020
    1STR    H29 7735   9.067   9.838   3.968
    1STR    H2A 7736   8.948   9.564   4.160
    1STR    H2B 7737   9.036   9.611   4.015
    1STR    H2C 7738   8.863   9.578   4.005
    1STR   BCK1 7739   8.606   9.574   8.615
    1STR    O03 7740   8.712   9.519   8.640
    1STR    N04 7741   8.592   9.702   8.657
    1STR    C05 7742   8.490   9.798   8.678
    1STR    C06 7743   8.520   9.938   8.663
    1STR    C07 7744   8.428  10.042   8.699
    1STR    N08 7745   8.462  10.180   8.688
    1STR    C09 7746   8.389  10.292   8.713
    1STR    O0A 7747   8.273  10.290   8.752
    1STR    O0B 7748   8.457  10.410   8.690
    1STR    C0C 7749   8.393  10.538   8.718
    1STR    C0D 7750   8.399  10.568   8.869
    1STR    C0E 7751   8.451  10.657   8.636
    1STR    O0F 7752   8.380  10.780   8.660
    1STR    C0G 7753   8.419  10.896   8.583
    1STR    C0H 7754   8.365  10.881   8.440
    1STR    C0I 7755   8.365  11.028   8.647
    1STR    O0J 7756   8.414  11.146   8.578
    1STR    C0K 7757   8.367  11.274   8.625
    1STR    C0M 7758   8.426  11.304   8.764
    1STR    C0N 7759   8.405  11.389   8.526
    1STR    O0O 7760   8.338  11.511   8.561
    1STR    C0P 7761   8.395  11.633   8.544
    1STR    O0Q 7762   8.506  11.655   8.498
    1STR    N0R 7763   8.311  11.726   8.590
    1STR    C0S 7764   8.324  11.863   8.618
    1STR    C0T 7765   8.254  11.907   8.731
    1STR    C0U 7766   8.259  12.041   8.771
    1STR    C0V 7767   8.329  12.137   8.696
    1STR    C0W 7768   8.327  12.278   8.754
    1STR    C0X 7769   8.392  12.100   8.573
    1STR    N0Y 7770   8.436  12.193   8.475
    1STR   BCK2 7771   8.470  12.323   8.473
    1STR    O10 7772   8.499  12.393   8.569
    1STR    C13 7773   8.393  11.961   8.539
    1STR    C14 7774   8.304  10.000   8.751
    1STR    C15 7775   8.273   9.864   8.767
    1STR    C16 7776   8.365   9.763   8.734
    1STR    C17 7777   8.328   9.621   8.771
    1STR    H1B 7778   8.683   9.732   8.689
    1STR    H1C 7779   8.617   9.965   8.626
    1STR    H1D 7780   8.555  10.203   8.656
    1STR    H1E 7781   8.288  10.529   8.689
    1STR    H1F 7782   8.502  10.579   8.903
    1STR    H1G 7783   8.346  10.660   8.892
    1STR    H1H 7784   8.352  10.489   8.927
    1STR    H1I 7785   8.447  10.631   8.530
    1STR    H1J 7786   8.557  10.671   8.661
    1STR    H1K 7787   8.528  10.902   8.581
    1STR    H1M 7788   8.256  10.867   8.440
    1STR    H1N 7789   8.409  10.797   8.387
    1STR    H1O 7790   8.386  10.971   8.381
    1STR    H1P 7791   8.256  11.027   8.647
    1STR    H1Q 7792   8.396  11.030   8.751
    1STR    H1R 7793   8.258  11.271   8.632
    1STR    H1S 7794   8.399  11.404   8.797
    1STR    H1T 7795   8.535  11.300   8.762
    1STR    H1U 7796   8.391  11.235   8.841
    1STR    H1V 7797   8.376  11.362   8.425
    1STR    H1W 7798   8.514  11.403   8.525
    1STR    H1X 7799   8.226  11.683   8.621
    1STR    H1Y 7800   8.197  11.838   8.791
    1STR    H1Z 7801   8.207  12.070   8.861
    1STR    H20 7802   8.429  12.307   8.781
    1STR    H21 7803   8.285  12.349   8.683
    1STR    H22 7804   8.269  12.284   8.845
    1STR    H23 7805   8.436  12.155   8.382
    1STR    H27 7806   8.443  11.927   8.450
    1STR    H28 7807   8.228  10.069   8.782
    1STR    H29 7808   8.177   9.838   8.810
    1STR    H2A 7809   8.285   9.570   8.685
    1STR    H2B 7810   8.254   9.619   8.851
    1STR    H2C 7811   8.414   9.565   8.807
    1STR   BCK1 7812   8.725   9.597  13.024
    1STR    O03 7813   8.830   9.534  13.014
    1STR    N04 7814   8.714   9.721  13.080
    1STR    C05 7815   8.807   9.808  13.146
    1STR    C06 7816   8.790   9.951  13.141
    1STR    C07 7817   8.877  10.045  13.207
    1STR    N08 7818   8.855  10.187  13.206
    1STR    C09 7819   8.928  10.290  13.258
    1STR    O0A 7820   9.035  10.275  13.316
    1STR    O0B 7821   8.871  10.416  13.241
    1STR    C0C 7822   8.942  10.537  13.284
    1STR    C0D 7823   9.052  10.569  13.181
    1STR    C0E 7824   8.851  10.663  13.306
    1STR    O0F 7825   8.922  10.787  13.336
    1STR    C0G 7826   8.843  10.905  13.367
    1STR    C0H 7827   8.793  10.894  13.512
    1STR    C0I 7828   8.921  11.041  13.347
    1STR    O0J 7829   8.835  11.159  13.349
    1STR    C0K 7830   8.896  11.291  13.334
    1STR    C0M 7831   8.968  11.301  13.199
    1STR    C0N 7832   8.791  11.408  13.345
    1STR    O0O 7833   8.849  11.540  13.332
    1STR    C0P 7834   8.781  11.646  13.275
    1STR    O0Q 7835   8.672  11.639  13.219
    1STR    N0R 7836   8.850  11.760  13.292
    1STR    C0S 7837   8.837  11.896  13.255
    1STR    C0T 7838   8.929  11.982  13.318
    1STR    C0U 7839   8.938  12.117  13.284
    1STR    C0V 7840   8.856  12.172  13.184
    1STR    C0W 7841   8.887  12.315  13.141
    1STR    C0X 7842   8.753  12.095  13.124
    1STR    N0Y 7843   8.672  12.151  13.022
    1STR   BCK2 7844   8.607  12.270  13.017
    1STR    O10 7845   8.593  12.346  13.112
    1STR    C13 7846   8.747  11.954  13.159
    1STR    C14 7847   8.987   9.989  13.277
    1STR    C15 7848   9.004   9.850  13.286
    1STR    C16 7849   8.914   9.760  13.227
    1STR    C17 7850   8.937   9.614  13.262
    1STR    H1B 7851   8.621   9.758  13.069
    1STR    H1C 7852   8.707   9.990  13.084
    1STR    H1D 7853   8.772  10.220  13.160
    1STR    H1E 7854   8.991  10.515  13.379
    1STR    H1F 7855   9.010  10.591  13.083
    1STR    H1G 7856   9.110  10.656  13.212
    1STR    H1H 7857   9.122  10.486  13.170
    1STR    H1I 7858   8.782  10.640  13.388
    1STR    H1J 7859   8.789  10.679  13.218
    1STR    H1K 7860   8.758  10.908  13.299
    1STR    H1M 7861   8.876  10.882  13.581
    1STR    H1N 7862   8.726  10.809  13.526
    1STR    H1O 7863   8.738  10.984  13.541
    1STR    H1P 7864   8.998  11.050  13.424
    1STR    H1Q 7865   8.973  11.035  13.252
    1STR    H1R 7866   8.969  11.304  13.414
    1STR    H1S 7867   9.008  11.402  13.184
    1STR    H1T 7868   8.899  11.281  13.117
    1STR    H1U 7869   9.052  11.233  13.190
    1STR    H1V 7870   8.741  11.403  13.442
    1STR    H1W 7871   8.712  11.394  13.270
    1STR    H1X 7872   8.932  11.738  13.346
    1STR    H1Y 7873   8.997  11.945  13.393
    1STR    H1Z 7874   9.013  12.179  13.331
    1STR    H20 7875   8.870  12.329  13.034
    1STR    H21 7876   8.827  12.387  13.196
    1STR    H22 7877   8.992  12.340  13.159
    1STR    H23 7878   8.662  12.095  12.939
    1STR    H27 7879   8.675  11.890  13.112
    1STR    H28 7880   9.060  10.049  13.328
    1STR    H29 7881   9.087   9.813  13.344
    1STR    H2A 7882   8.843   9.560  13.269
    1STR    H2B 7883   8.987   9.603  13.358
    1STR    H2C 7884   9.000   9.566  13.187
    1STR   BCK1 7885   8.586  13.951  17.309
    1STR    O03 7886   8.467  13.963  17.284
    1STR    N04 7887   8.675  14.051  17.292
    1STR    C05 7888   8.659  14.162  17.207
    1STR    C06 7889   8.672  14.299  17.250
    1STR    C07 7890   8.664  14.409  17.158
    1STR    N08 7891   8.683  14.545  17.197
    1STR    C09 7892   8.659  14.659  17.127
    1STR    O0A 7893   8.606  14.662  17.017
    1STR    O0B 7894   8.701  14.775  17.189
    1STR    C0C 7895   8.680  14.904  17.124
    1STR    C0D 7896   8.532  14.945  17.139
    1STR    C0E 7897   8.772  15.019  17.174
    1STR    O0F 7898   8.745  15.143  17.104
    1STR    C0G 7899   8.824  15.259  17.137
    1STR    C0H 7900   8.962  15.247  17.069
    1STR    C0I 7901   8.751  15.389  17.091
    1STR    O0J 7902   8.810  15.512  17.141
    1STR    C0K 7903   8.745  15.635  17.103
    1STR    C0M 7904   8.607  15.645  17.171
    1STR    C0N 7905   8.826  15.763  17.139
    1STR    O0O 7906   8.767  15.877  17.075
    1STR    C0P 7907   8.765  16.002  17.129
    1STR    O0Q 7908   8.799  16.032  17.243
    1STR    N0R 7909   8.725  16.088  17.035
    1STR    C0S 7910   8.716  16.228  17.023
    1STR    C0T 7911   8.762  16.278  16.901
    1STR    C0U 7912   8.744  16.412  16.868
    1STR    C0V 7913   8.677  16.501  16.954
    1STR    C0W 7914   8.657  16.639  16.897
    1STR    C0X 7915   8.629  16.456  17.081
    1STR    N0Y 7916   8.550  16.531  17.173
    1STR   BCK2 7917   8.499  16.654  17.199
    1STR    O10 7918   8.414  16.663  17.286
    1STR    C13 7919   8.653  16.318  17.114
    1STR    C14 7920   8.642  14.376  17.022
    1STR    C15 7921   8.631  14.243  16.979
    1STR    C16 7922   8.642  14.136  17.069
    1STR    C17 7923   8.643  13.995  17.013
    1STR    H1B 7924   8.769  14.031  17.324
    1STR    H1C 7925   8.689  14.319  17.355
    1STR    H1D 7926   8.718  14.563  17.289
    1STR    H1E 7927   8.701  14.891  17.018
    1STR    H1F 7928   8.504  14.960  17.244
    1STR    H1G 7929   8.512  15.037  17.085
    1STR    H1H 7930   8.465  14.869  17.098
    1STR    H1I 7931   8.876  14.990  17.159
    1STR    H1J 7932   8.759  15.034  17.281
    1STR    H1K 7933   8.836  15.265  17.245
    1STR    H1M 7934   8.951  15.234  16.961
    1STR    H1N 7935   9.019  15.162  17.107
    1STR    H1O 7936   9.021  15.337  17.086
    1STR    H1P 7937   8.747  15.392  16.982
    1STR    H1Q 7938   8.648  15.382  17.125
    1STR    H1R 7939   8.732  15.635  16.994
    1STR    H1S 7940   8.561  15.742  17.151
    1STR    H1T 7941   8.617  15.636  17.279
    1STR    H1U 7942   8.537  15.570  17.136
    1STR    H1V 7943   8.929  15.754  17.104
    1STR    H1W 7944   8.832  15.777  17.247
    1STR    H1X 7945   8.708  16.037  16.950
    1STR    H1Y 7946   8.811  16.213  16.829
    1STR    H1Z 7947   8.780  16.446  16.772
    1STR    H20 7948   8.551  16.665  16.897
    1STR    H21 7949   8.716  16.711  16.953
    1STR    H22 7950   8.689  16.647  16.793
    1STR    H23 7951   8.513  16.473  17.246
    1STR    H27 7952   8.618  16.278  17.208
    1STR    H28 7953   8.635  14.450  16.944
    1STR    H29 7954   8.616  14.223  16.874
    1STR    H2A 7955   8.724  13.937  17.057
    1STR    H2B 7956   8.657  13.994  16.905
    1STR    H2C 7957   8.548  13.945  17.035
    1STR   BCK1 7958   8.585  13.944   4.328
    1STR    O03 7959   8.657  13.883   4.407
    1STR    N04 7960   8.543  14.072   4.346
    1STR    C05 7961   8.551  14.163   4.455
    1STR    C06 7962   8.559  14.305   4.432
    1STR    C07 7963   8.555  14.403   4.537
    1STR    N08 7964   8.559  14.543   4.511
    1STR    C09 7965   8.523  14.648   4.590
    1STR    O0A 7966   8.476  14.635   4.703
    1STR    O0B 7967   8.544  14.772   4.533
    1STR    C0C 7968   8.520  14.894   4.609
    1STR    C0D 7969   8.640  14.922   4.702
    1STR    C0E 7970   8.492  15.019   4.518
    1STR    O0F 7971   8.468  15.142   4.591
    1STR    C0G 7972   8.430  15.259   4.514
    1STR    C0H 7973   8.283  15.245   4.472
    1STR    C0I 7974   8.450  15.393   4.592
    1STR    O0J 7975   8.429  15.509   4.508
    1STR    C0K 7976   8.438  15.641   4.568
    1STR    C0M 7977   8.583  15.668   4.614
    1STR    C0N 7978   8.395  15.753   4.468
    1STR    O0O 7979   8.392  15.884   4.529
    1STR    C0P 7980   8.412  15.998   4.456
    1STR    O0Q 7981   8.442  16.002   4.338
    1STR    N0R 7982   8.398  16.105   4.535
    1STR    C0S 7983   8.418  16.244   4.519
    1STR    C0T 7984   8.422  16.318   4.639
    1STR    C0U 7985   8.450  16.456   4.639
    1STR    C0V 7986   8.470  16.525   4.519
    1STR    C0W 7987   8.512  16.671   4.525
    1STR    C0X 7988   8.457  16.457   4.395
    1STR    N0Y 7989   8.480  16.532   4.278
    1STR   BCK2 7990   8.399  16.626   4.226
    1STR    O10 7991   8.283  16.643   4.261
    1STR    C13 7992   8.434  16.315   4.396
    1STR    C14 7993   8.548  14.353   4.668
    1STR    C15 7994   8.538  14.216   4.695
    1STR    C16 7995   8.536  14.121   4.591
    1STR    C17 7996   8.511  13.977   4.633
    1STR    H1B 7997   8.497  14.107   4.264
    1STR    H1C 7998   8.568  14.339   4.330
    1STR    H1D 7999   8.591  14.573   4.421
    1STR    H1E 8000   8.431  14.879   4.671
    1STR    H1F 8001   8.731  14.938   4.645
    1STR    H1G 8002   8.622  15.011   4.762
    1STR    H1H 8003   8.656  14.839   4.770
    1STR    H1I 8004   8.405  14.995   4.455
    1STR    H1J 8005   8.576  15.034   4.450
    1STR    H1K 8006   8.493  15.264   4.425
    1STR    H1M 8007   8.218  15.232   4.559
    1STR    H1N 8008   8.266  15.161   4.405
    1STR    H1O 8009   8.249  15.335   4.420
    1STR    H1P 8010   8.383  15.397   4.678
    1STR    H1Q 8011   8.552  15.394   4.632
    1STR    H1R 8012   8.371  15.645   4.654
    1STR    H1S 8013   8.593  15.769   4.652
    1STR    H1T 8014   8.653  15.657   4.531
    1STR    H1U 8015   8.614  15.601   4.694
    1STR    H1V 8016   8.294  15.732   4.430
    1STR    H1W 8017   8.460  15.754   4.381
    1STR    H1X 8018   8.371  16.075   4.627
    1STR    H1Y 8019   8.409  16.269   4.734
    1STR    H1Z 8020   8.457  16.508   4.734
    1STR    H20 8021   8.611  16.683   4.480
    1STR    H21 8022   8.442  16.734   4.471
    1STR    H22 8023   8.518  16.708   4.627
    1STR    H23 8024   8.572  16.526   4.238
    1STR    H27 8025   8.430  16.261   4.302
    1STR    H28 8026   8.548  14.419   4.754
    1STR    H29 8027   8.529  14.184   4.797
    1STR    H2A 8028   8.451  13.924   4.559
    1STR    H2B 8029   8.457  13.972   4.727
    1STR    H2C 8030   8.606  13.925   4.646
    1STR   BCK1 8031   8.713  13.963   8.558
    1STR    O03 8032   8.792  13.908   8.483
    1STR    N04 8033   8.735  14.082   8.621
    1STR    C05 8034   8.846  14.172   8.622
    1STR    C06 8035   8.826  14.313   8.636
    1STR    C07 8036   8.934  14.409   8.639
    1STR    N08 8037   8.914  14.549   8.659
    1STR    C09 8038   8.997  14.655   8.640
    1STR    O0A 8039   9.109  14.644   8.590
    1STR    O0B 8040   8.947  14.778   8.681
    1STR    C0C 8041   9.022  14.902   8.655
    1STR    C0D 8042   9.006  14.939   8.507
    1STR    C0E 8043   8.984  15.024   8.746
    1STR    O0F 8044   9.051  15.148   8.709
    1STR    C0G 8045   9.025  15.268   8.789
    1STR    C0H 8046   9.106  15.257   8.919
    1STR    C0I 8047   9.062  15.400   8.712
    1STR    O0J 8048   9.012  15.523   8.773
    1STR    C0K 8049   9.038  15.649   8.705
    1STR    C0M 8050   8.966  15.651   8.570
    1STR    C0N 8051   8.993  15.776   8.786
    1STR    O0O 8052   9.028  15.901   8.720
    1STR    C0P 8053   8.945  16.011   8.718
    1STR    O0Q 8054   8.830  16.014   8.761
    1STR    N0R 8055   9.009  16.116   8.665
    1STR    C0S 8056   8.978  16.252   8.638
    1STR    C0T 8057   9.089  16.337   8.622
    1STR    C0U 8058   9.072  16.473   8.593
    1STR    C0V 8059   8.944  16.530   8.577
    1STR    C0W 8060   8.940  16.679   8.552
    1STR    C0X 8061   8.828  16.449   8.591
    1STR    N0Y 8062   8.695  16.498   8.589
    1STR   BCK2 8063   8.617  16.600   8.545
    1STR    O10 8064   8.501  16.603   8.585
    1STR    C13 8065   8.848  16.310   8.623
    1STR    C14 8066   9.064  14.357   8.626
    1STR    C15 8067   9.087  14.219   8.617
    1STR    C16 8068   8.981  14.126   8.620
    1STR    C17 8069   9.022  13.980   8.629
    1STR    H1B 8070   8.655  14.112   8.673
    1STR    H1C 8071   8.725  14.350   8.644
    1STR    H1D 8072   8.824  14.579   8.693
    1STR    H1E 8073   9.128  14.881   8.674
    1STR    H1F 8074   8.902  14.960   8.483
    1STR    H1G 8075   9.065  15.027   8.482
    1STR    H1H 8076   9.040  14.858   8.442
    1STR    H1I 8077   9.008  14.999   8.850
    1STR    H1J 8078   8.876  15.040   8.742
    1STR    H1K 8079   8.919  15.272   8.812
    1STR    H1M 8080   9.212  15.245   8.899
    1STR    H1N 8081   9.074  15.174   8.981
    1STR    H1O 8082   9.094  15.348   8.979
    1STR    H1P 8083   9.170  15.407   8.700
    1STR    H1Q 8084   9.020  15.391   8.612
    1STR    H1R 8085   9.146  15.657   8.689
    1STR    H1S 8086   8.978  15.748   8.521
    1STR    H1T 8087   8.859  15.635   8.583
    1STR    H1U 8088   9.004  15.577   8.500
    1STR    H1V 8089   9.042  15.777   8.884
    1STR    H1W 8090   8.886  15.772   8.807
    1STR    H1X 8091   9.103  16.089   8.643
    1STR    H1Y 8092   9.189  16.300   8.635
    1STR    H1Z 8093   9.160  16.535   8.583
    1STR    H20 8094   8.922  16.698   8.446
    1STR    H21 8095   8.863  16.727   8.612
    1STR    H22 8096   9.035  16.727   8.576
    1STR    H23 8097   8.632  16.438   8.640
    1STR    H27 8098   8.762  16.245   8.637
    1STR    H28 8099   9.152  14.420   8.626
    1STR    H29 8100   9.189  14.184   8.610
    1STR    H2A 8101   8.950  13.922   8.688
    1STR    H2B 8102   9.119  13.969   8.679
    1STR    H2C 8103   9.031  13.936   8.530
    1STR   BCK1 8104   8.601  13.935  12.968
    1STR    O03 8105   8.537  13.908  13.070
    1STR    N04 8106   8.605  14.058  12.913
    1STR    C05 8107   8.515  14.165  12.929
    1STR    C06 8108   8.559  14.301  12.940
    1STR    C07 8109   8.468  14.412  12.938
    1STR    N08 8110   8.511  14.548  12.943
    1STR    C09 8111   8.444  14.660  12.906
    1STR    O0A 8112   8.332  14.659  12.856
    1STR    O0B 8113   8.513  14.777  12.928
    1STR    C0C 8114   8.446  14.905  12.910
    1STR    C0D 8115   8.367  14.938  13.038
    1STR    C0E 8116   8.541  15.023  12.872
    1STR    O0F 8117   8.467  15.147  12.851
    1STR    C0G 8118   8.541  15.262  12.805
    1STR    C0H 8119   8.571  15.245  12.655
    1STR    C0I 8120   8.461  15.394  12.830
    1STR    O0J 8121   8.538  15.513  12.798
    1STR    C0K 8122   8.470  15.640  12.812
    1STR    C0M 8123   8.445  15.670  12.961
    1STR    C0N 8124   8.552  15.757  12.750
    1STR    O0O 8125   8.472  15.875  12.731
    1STR    C0P 8126   8.512  16.000  12.768
    1STR    O0Q 8127   8.617  16.027  12.825
    1STR    N0R 8128   8.416  16.088  12.739
    1STR    C0S 8129   8.394  16.221  12.779
    1STR    C0T 8130   8.263  16.250  12.822
    1STR    C0U 8131   8.230  16.376  12.873
    1STR    C0V 8132   8.325  16.480  12.877
    1STR    C0W 8133   8.290  16.605  12.956
    1STR    C0X 8134   8.453  16.460  12.819
    1STR    N0Y 8135   8.547  16.564  12.821
    1STR   BCK2 8136   8.542  16.693  12.782
    1STR    O10 8137   8.630  16.770  12.819
    1STR    C13 8138   8.489  16.328  12.776
    1STR    C14 8139   8.330  14.380  12.931
    1STR    C15 8140   8.286  14.248  12.918
    1STR    C16 8141   8.376  14.141  12.914
    1STR    C17 8142   8.319  14.003  12.884
    1STR    H1B 8143   8.674  14.067  12.840
    1STR    H1C 8144   8.665  14.321  12.949
    1STR    H1D 8145   8.604  14.567  12.976
    1STR    H1E 8146   8.375  14.896  12.827
    1STR    H1F 8147   8.433  14.951  13.123
    1STR    H1G 8148   8.310  15.031  13.025
    1STR    H1H 8149   8.295  14.860  13.061
    1STR    H1I 8150   8.595  14.996  12.781
    1STR    H1J 8151   8.615  15.038  12.950
    1STR    H1K 8152   8.635  15.269  12.861
    1STR    H1M 8153   8.480  15.231  12.598
    1STR    H1N 8154   8.637  15.161  12.635
    1STR    H1O 8155   8.621  15.334  12.616
    1STR    H1P 8156   8.369  15.392  12.771
    1STR    H1Q 8157   8.431  15.396  12.934
    1STR    H1R 8158   8.375  15.635  12.759
    1STR    H1S 8159   8.403  15.770  12.975
    1STR    H1T 8160   8.538  15.665  13.018
    1STR    H1U 8161   8.375  15.600  13.006
    1STR    H1V 8162   8.590  15.728  12.652
    1STR    H1W 8163   8.641  15.779  12.810
    1STR    H1X 8164   8.340  16.043  12.691
    1STR    H1Y 8165   8.188  16.173  12.823
    1STR    H1Z 8166   8.131  16.392  12.913
    1STR    H20 8167   8.375  16.638  13.015
    1STR    H21 8168   8.258  16.686  12.891
    1STR    H22 8169   8.208  16.586  13.026
    1STR    H23 8170   8.636  16.543  12.862
    1STR    H27 8171   8.589  16.308  12.740
    1STR    H28 8172   8.254  14.456  12.933
    1STR    H29 8173   8.180  14.230  12.908
    1STR    H2A 8174   8.382  13.949  12.814
    1STR    H2B 8175   8.220  14.010  12.839
    1STR    H2C 8176   8.310  13.945  12.976
    1STR   BCK1 8177  13.034   0.873  17.429
    1STR    O03 8178  13.136   0.810   0.013
    1STR    N04 8179  13.008   0.999   0.035
    1STR    C05 8180  13.076   1.086   0.126
    1STR    C06 8181  13.066   1.229   0.112
    1STR    C07 8182  13.126   1.324   0.203
    1STR    N08 8183  13.109   1.466   0.189
    1STR    C09 8184  13.146   1.568   0.271
    1STR    O0A 8185  13.205   1.553   0.378
    1STR    O0B 8186  13.113   1.695   0.224
    1STR    C0C 8187  13.154   1.816   0.296
    1STR    C0D 8188  13.302   1.845   0.265
    1STR    C0E 8189  13.066   1.942   0.266
    1STR    O0F 8190  13.110   2.065   0.330
    1STR    C0G 8191  13.026   2.183   0.313
    1STR    C0H 8192  12.906   2.170   0.408
    1STR    C0I 8193  13.100   2.319   0.340
    1STR    O0J 8194  13.023   2.436   0.299
    1STR    C0K 8195  13.077   2.569   0.322
    1STR    C0M 8196  13.208   2.587   0.244
    1STR    C0N 8197  12.976   2.682   0.280
    1STR    O0O 8198  13.025   2.816   0.304
    1STR    C0P 8199  12.986   2.924   0.227
    1STR    O0Q 8200  12.916   2.917   0.126
    1STR    N0R 8201  13.036   3.037   0.278
    1STR    C0S 8202  13.037   3.174   0.241
    1STR    C0T 8203  13.109   3.257   0.330
    1STR    C0U 8204  13.130   3.393   0.303
    1STR    C0V 8205  13.080   3.452   0.186
    1STR    C0W 8206  13.125   3.594   0.155
    1STR    C0X 8207  12.998   3.376   0.097
    1STR    N0Y 8208  12.947   3.437  17.420
    1STR   BCK2 8209  12.885   3.556  17.403
    1STR    O10 8210  12.847   3.628   0.054
    1STR    C13 8211  12.980   3.236   0.125
    1STR    C14 8212  13.202   1.269   0.308
    1STR    C15 8213  13.212   1.130   0.326
    1STR    C16 8214  13.147   1.039   0.241
    1STR    C17 8215  13.153   0.893   0.283
    1STR    H1B 8216  12.925   1.037  17.433
    1STR    H1C 8217  13.009   1.268   0.029
    1STR    H1D 8218  13.062   1.499   0.107
    1STR    H1E 8219  13.145   1.796   0.403
    1STR    H1F 8220  13.317   1.865   0.159
    1STR    H1G 8221  13.337   1.932   0.321
    1STR    H1H 8222  13.366   1.761   0.293
    1STR    H1I 8223  12.964   1.919   0.297
    1STR    H1J 8224  13.062   1.958   0.158
    1STR    H1K 8225  12.991   2.186   0.210
    1STR    H1M 8226  12.938   2.158   0.512
    1STR    H1N 8227  12.842   2.086   0.383
    1STR    H1O 8228  12.843   2.260   0.404
    1STR    H1P 8229  13.126   2.327   0.446
    1STR    H1Q 8230  13.195   2.317   0.286
    1STR    H1R 8231  13.098   2.580   0.429
    1STR    H1S 8232  13.246   2.689   0.255
    1STR    H1T 8233  13.192   2.570   0.137
    1STR    H1U 8234  13.287   2.520   0.278
    1STR    H1V 8235  12.883   2.670   0.336
    1STR    H1W 8236  12.949   2.670   0.175
    1STR    H1X 8237  13.085   3.015   0.363
    1STR    H1Y 8238  13.151   3.217   0.421
    1STR    H1Z 8239  13.189   3.451   0.371
    1STR    H20 8240  13.138   3.610   0.048
    1STR    H21 8241  13.053   3.666   0.193
    1STR    H22 8242  13.222   3.616   0.202
    1STR    H23 8243  12.958   3.385  17.334
    1STR    H27 8244  12.923   3.175   0.057
    1STR    H28 8245  13.255   1.330   0.379
    1STR    H29 8246  13.268   1.093   0.411
    1STR    H2A 8247  13.060   0.841   0.259
    1STR    H2B 8248  13.166   0.884   0.391
    1STR    H2C 8249  13.237   0.843   0.236
    1STR   BCK1 8250  12.985   0.873   4.190
    1STR    O03 8251  12.901   0.886   4.101
    1STR    N04 8252  13.072   0.970   4.226
    1STR    C05 8253  13.116   1.079   4.147
    1STR    C06 8254  13.109   1.218   4.186
    1STR    C07 8255  13.165   1.324   4.106
    1STR    N08 8256  13.164   1.462   4.146
    1STR    C09 8257  13.190   1.574   4.072
    1STR    O0A 8258  13.210   1.572   3.951
    1STR    O0B 8259  13.193   1.693   4.144
    1STR    C0C 8260  13.214   1.821   4.074
    1STR    C0D 8261  13.083   1.861   4.003
    1STR    C0E 8262  13.265   1.940   4.163
    1STR    O0F 8263  13.278   2.064   4.087
    1STR    C0G 8264  13.325   2.182   4.156
    1STR    C0H 8265  13.478   2.171   4.174
    1STR    C0I 8266  13.289   2.313   4.077
    1STR    O0J 8267  13.310   2.438   4.149
    1STR    C0K 8268  13.270   2.560   4.081
    1STR    C0M 8269  13.117   2.565   4.068
    1STR    C0N 8270  13.316   2.692   4.153
    1STR    O0O 8271  13.292   2.808   4.070
    1STR    C0P 8272  13.244   2.927   4.118
    1STR    O0Q 8273  13.203   2.947   4.232
    1STR    N0R 8274  13.253   3.022   4.023
    1STR    C0S 8275  13.230   3.161   4.019
    1STR    C0T 8276  13.326   3.235   3.947
    1STR    C0U 8277  13.314   3.374   3.932
    1STR    C0V 8278  13.205   3.444   3.985
    1STR    C0W 8279  13.211   3.595   3.974
    1STR    C0X 8280  13.101   3.374   4.053
    1STR    N0Y 8281  12.990   3.438   4.113
    1STR   BCK2 8282  12.909   3.546   4.098
    1STR    O10 8283  12.827   3.569   4.186
    1STR    C13 8284  13.118   3.232   4.072
    1STR    C14 8285  13.229   1.285   3.986
    1STR    C15 8286  13.238   1.151   3.948
    1STR    C16 8287  13.185   1.048   4.027
    1STR    C17 8288  13.210   0.904   3.985
    1STR    H1B 8289  13.126   0.951   4.309
    1STR    H1C 8290  13.060   1.242   4.280
    1STR    H1D 8291  13.140   1.484   4.241
    1STR    H1E 8292  13.290   1.804   3.998
    1STR    H1F 8293  13.003   1.879   4.074
    1STR    H1G 8294  13.097   1.952   3.944
    1STR    H1H 8295  13.050   1.783   3.934
    1STR    H1I 8296  13.361   1.913   4.206
    1STR    H1J 8297  13.196   1.956   4.246
    1STR    H1K 8298  13.277   2.189   4.254
    1STR    H1M 8299  13.528   2.158   4.078
    1STR    H1N 8300  13.506   2.088   4.238
    1STR    H1O 8301  13.518   2.262   4.220
    1STR    H1P 8302  13.344   2.315   3.983
    1STR    H1Q 8303  13.184   2.304   4.049
    1STR    H1R 8304  13.316   2.560   3.982
    1STR    H1S 8305  13.085   2.661   4.026
    1STR    H1T 8306  13.070   2.555   4.165
    1STR    H1U 8307  13.078   2.488   4.002
    1STR    H1V 8308  13.423   2.688   4.173
    1STR    H1W 8309  13.268   2.702   4.250
    1STR    H1X 8310  13.295   2.982   3.941
    1STR    H1Y 8311  13.413   3.186   3.905
    1STR    H1Z 8312  13.392   3.427   3.879
    1STR    H20 8313  13.161   3.628   3.883
    1STR    H21 8314  13.166   3.643   4.060
    1STR    H22 8315  13.314   3.630   3.969
    1STR    H23 8316  12.956   3.389   4.195
    1STR    H27 8317  13.044   3.176   4.126
    1STR    H28 8318  13.276   1.356   3.921
    1STR    H29 8319  13.290   1.126   3.856
    1STR    H2A 8320  13.246   0.845   4.069
    1STR    H2B 8321  13.285   0.898   3.906
    1STR    H2C 8322  13.118   0.859   3.948
    1STR   BCK1 8323  12.945   0.857   8.657
    1STR    O03 8324  13.053   0.804   8.679
    1STR    N04 8325  12.940   0.992   8.660
    1STR    C05 8326  12.859   1.083   8.732
    1STR    C06 8327  12.880   1.224   8.714
    1STR    C07 8328  12.813   1.325   8.791
    1STR    N08 8329  12.836   1.464   8.771
    1STR    C09 8330  12.772   1.572   8.821
    1STR    O0A 8331  12.675   1.566   8.896
    1STR    O0B 8332  12.826   1.692   8.780
    1STR    C0C 8333  12.772   1.818   8.830
    1STR    C0D 8334  12.828   1.847   8.970
    1STR    C0E 8335  12.798   1.938   8.734
    1STR    O0F 8336  12.738   2.062   8.781
    1STR    C0G 8337  12.749   2.177   8.695
    1STR    C0H 8338  12.649   2.162   8.579
    1STR    C0I 8339  12.722   2.310   8.773
    1STR    O0J 8340  12.746   2.427   8.691
    1STR    C0K 8341  12.719   2.556   8.749
    1STR    C0M 8342  12.821   2.585   8.861
    1STR    C0N 8343  12.725   2.669   8.642
    1STR    O0O 8344  12.681   2.795   8.696
    1STR    C0P 8345  12.727   2.914   8.650
    1STR    O0Q 8346  12.809   2.930   8.561
    1STR    N0R 8347  12.671   3.012   8.722
    1STR    C0S 8348  12.693   3.151   8.732
    1STR    C0T 8349  12.663   3.205   8.858
    1STR    C0U 8350  12.681   3.341   8.884
    1STR    C0V 8351  12.725   3.430   8.784
    1STR    C0W 8352  12.739   3.574   8.829
    1STR    C0X 8353  12.749   3.382   8.652
    1STR    N0Y 8354  12.768   3.466   8.539
    1STR   BCK2 8355  12.808   3.593   8.518
    1STR    O10 8356  12.863   3.667   8.599
    1STR    C13 8357  12.736   3.240   8.630
    1STR    C14 8358  12.724   1.278   8.890
    1STR    C15 8359  12.702   1.141   8.910
    1STR    C16 8360  12.768   1.043   8.833
    1STR    C17 8361  12.741   0.898   8.868
    1STR    H1B 8362  13.030   1.028   8.636
    1STR    H1C 8363  12.951   1.257   8.639
    1STR    H1D 8364  12.912   1.490   8.711
    1STR    H1E 8365  12.663   1.808   8.838
    1STR    H1F 8366  12.936   1.860   8.969
    1STR    H1G 8367  12.785   1.939   9.011
    1STR    H1H 8368  12.804   1.767   9.040
    1STR    H1I 8369  12.758   1.913   8.636
    1STR    H1J 8370  12.906   1.953   8.721
    1STR    H1K 8371  12.851   2.183   8.656
    1STR    H1M 8372  12.548   2.149   8.616
    1STR    H1N 8373  12.673   2.078   8.514
    1STR    H1O 8374  12.649   2.252   8.517
    1STR    H1P 8375  12.619   2.310   8.809
    1STR    H1Q 8376  12.786   2.312   8.860
    1STR    H1R 8377  12.618   2.555   8.791
    1STR    H1S 8378  12.808   2.686   8.900
    1STR    H1T 8379  12.923   2.579   8.823
    1STR    H1U 8380  12.812   2.517   8.945
    1STR    H1V 8381  12.661   2.645   8.557
    1STR    H1W 8382  12.826   2.679   8.602
    1STR    H1X 8383  12.606   2.973   8.787
    1STR    H1Y 8384  12.627   3.142   8.939
    1STR    H1Z 8385  12.659   3.378   8.984
    1STR    H20 8386  12.845   3.601   8.828
    1STR    H21 8387  12.683   3.641   8.764
    1STR    H22 8388  12.705   3.590   8.931
    1STR    H23 8389  12.742   3.423   8.452
    1STR    H27 8390  12.757   3.199   8.532
    1STR    H28 8391  12.671   1.345   8.956
    1STR    H29 8392  12.633   1.111   8.988
    1STR    H2A 8393  12.697   0.846   8.783
    1STR    H2B 8394  12.670   0.889   8.950
    1STR    H2C 8395  12.832   0.848   8.899
    1STR   BCK1 8396  13.092   0.880  12.984
    1STR    O03 8397  13.191   0.820  12.945
    1STR    N04 8398  13.093   1.001  13.046
    1STR    C05 8399  13.199   1.088  13.088
    1STR    C06 8400  13.179   1.231  13.091
    1STR    C07 8401  13.280   1.325  13.134
    1STR    N08 8402  13.257   1.467  13.142
    1STR    C09 8403  13.342   1.570  13.169
    1STR    O0A 8404  13.462   1.556  13.186
    1STR    O0B 8405  13.281   1.696  13.174
    1STR    C0C 8406  13.362   1.817  13.192
    1STR    C0D 8407  13.429   1.851  13.058
    1STR    C0E 8408  13.283   1.943  13.246
    1STR    O0F 8409  13.359   2.067  13.249
    1STR    C0G 8410  13.295   2.186  13.304
    1STR    C0H 8411  13.297   2.175  13.457
    1STR    C0I 8412  13.363   2.320  13.258
    1STR    O0J 8413  13.284   2.440  13.285
    1STR    C0K 8414  13.338   2.570  13.247
    1STR    C0M 8415  13.358   2.576  13.095
    1STR    C0N 8416  13.246   2.690  13.290
    1STR    O0O 8417  13.299   2.821  13.255
    1STR    C0P 8418  13.219   2.927  13.217
    1STR    O0Q 8419  13.099   2.922  13.194
    1STR    N0R 8420  13.293   3.039  13.210
    1STR    C0S 8421  13.271   3.176  13.177
    1STR    C0T 8422  13.373   3.262  13.223
    1STR    C0U 8423  13.375   3.398  13.188
    1STR    C0V 8424  13.276   3.453  13.105
    1STR    C0W 8425  13.298   3.595  13.057
    1STR    C0X 8426  13.166   3.373  13.062
    1STR    N0Y 8427  13.069   3.428  12.974
    1STR   BCK2 8428  13.003   3.547  12.978
    1STR    O10 8429  13.003   3.624  13.073
    1STR    C13 8430  13.166   3.233  13.098
    1STR    C14 8431  13.404   1.270  13.172
    1STR    C15 8432  13.425   1.131  13.174
    1STR    C16 8433  13.324   1.040  13.137
    1STR    C17 8434  13.355   0.894  13.162
    1STR    H1B 8435  13.000   1.036  13.062
    1STR    H1C 8436  13.084   1.270  13.059
    1STR    H1D 8437  13.163   1.499  13.126
    1STR    H1E 8438  13.440   1.795  13.265
    1STR    H1F 8439  13.356   1.873  12.981
    1STR    H1G 8440  13.494   1.938  13.068
    1STR    H1H 8441  13.492   1.769  13.023
    1STR    H1I 8442  13.247   1.919  13.346
    1STR    H1J 8443  13.194   1.958  13.184
    1STR    H1K 8444  13.192   2.188  13.268
    1STR    H1M 8445  13.399   2.164  13.495
    1STR    H1N 8446  13.239   2.091  13.494
    1STR    H1O 8447  13.255   2.265  13.503
    1STR    H1P 8448  13.462   2.330  13.305
    1STR    H1Q 8449  13.381   2.312  13.151
    1STR    H1R 8450  13.435   2.583  13.297
    1STR    H1S 8451  13.392   2.676  13.065
    1STR    H1T 8452  13.265   2.557  13.043
    1STR    H1U 8453  13.433   2.506  13.060
    1STR    H1V 8454  13.232   2.689  13.398
    1STR    H1W 8455  13.146   2.678  13.248
    1STR    H1X 8456  13.387   3.017  13.239
    1STR    H1Y 8457  13.453   3.225  13.285
    1STR    H1Z 8458  13.456   3.459  13.222
    1STR    H20 8459  13.264   3.609  12.954
    1STR    H21 8460  13.246   3.666  13.121
    1STR    H22 8461  13.404   3.621  13.058
    1STR    H23 8462  13.046   3.372  12.894
    1STR    H27 8463  13.087   3.169  13.064
    1STR    H28 8464  13.487   1.330  13.204
    1STR    H29 8465  13.520   1.094  13.207
    1STR    H2A 8466  13.266   0.838  13.191
    1STR    H2B 8467  13.427   0.882  13.243
    1STR    H2C 8468  13.399   0.849  13.073
    1STR   BCK1 8469  12.950   5.222  17.330
    1STR    O03 8470  12.831   5.224  17.361
    1STR    N04 8471  13.015   5.330  17.282
    1STR    C05 8472  12.957   5.443  17.221
    1STR    C06 8473  12.985   5.579  17.258
    1STR    C07 8474  12.931   5.691  17.185
    1STR    N08 8475  12.963   5.826  17.216
    1STR    C09 8476  12.922   5.942  17.157
    1STR    O0A 8477  12.841   5.947  17.065
    1STR    O0B 8478  12.980   6.057  17.208
    1STR    C0C 8479  12.937   6.187  17.157
    1STR    C0D 8480  12.802   6.225  17.222
    1STR    C0E 8481  13.040   6.303  17.174
    1STR    O0F 8482  12.990   6.427  17.118
    1STR    C0G 8483  13.078   6.542  17.120
    1STR    C0H 8484  13.182   6.527  17.008
    1STR    C0I 8485  12.998   6.675  17.103
    1STR    O0J 8486  13.076   6.795  17.126
    1STR    C0K 8487  13.010   6.922  17.106
    1STR    C0M 8488  12.900   6.942  17.211
    1STR    C0N 8489  13.109   7.044  17.113
    1STR    O0O 8490  13.053   7.161  17.051
    1STR    C0P 8491  13.050   7.285  17.109
    1STR    O0Q 8492  13.086   7.313  17.223
    1STR    N0R 8493  12.999   7.370  17.020
    1STR    C0S 8494  12.952   7.503  17.017
    1STR    C0T 8495  12.879   7.533  16.901
    1STR    C0U 8496  12.808   7.653  16.889
    1STR    C0V 8497  12.809   7.748  16.992
    1STR    C0W 8498  12.703   7.856  16.983
    1STR    C0X 8499  12.897   7.732  17.103
    1STR    N0Y 8500  12.906   7.829  17.205
    1STR   BCK2 8501  12.902   7.964  17.213
    1STR    O10 8502  12.888   8.017  17.323
    1STR    C13 8503  12.964   7.605  17.117
    1STR    C14 8504  12.845   5.659  17.077
    1STR    C15 8505  12.819   5.527  17.038
    1STR    C16 8506  12.877   5.419  17.106
    1STR    C17 8507  12.856   5.280  17.048
    1STR    H1B 8508  13.115   5.319  17.271
    1STR    H1C 8509  13.049   5.597  17.342
    1STR    H1D 8510  13.027   5.843  17.292
    1STR    H1E 8511  12.921   6.177  17.049
    1STR    H1F 8512  12.812   6.238  17.329
    1STR    H1G 8513  12.764   6.318  17.180
    1STR    H1H 8514  12.727   6.148  17.204
    1STR    H1I 8515  13.133   6.274  17.125
    1STR    H1J 8516  13.063   6.317  17.280
    1STR    H1K 8517  13.128   6.547  17.217
    1STR    H1M 8518  13.133   6.515  16.911
    1STR    H1N 8519  13.247   6.442  17.023
    1STR    H1O 8520  13.245   6.616  17.002
    1STR    H1P 8521  12.954   6.678  17.003
    1STR    H1Q 8522  12.914   6.673  17.172
    1STR    H1R 8523  12.966   6.922  17.006
    1STR    H1S 8524  12.856   7.042  17.203
    1STR    H1T 8525  12.940   6.932  17.312
    1STR    H1U 8526  12.818   6.871  17.199
    1STR    H1V 8527  13.200   7.019  17.058
    1STR    H1W 8528  13.140   7.064  17.216
    1STR    H1X 8529  12.984   7.319  16.935
    1STR    H1Y 8530  12.870   7.462  16.820
    1STR    H1Z 8531  12.745   7.669  16.803
    1STR    H20 8532  12.680   7.899  17.081
    1STR    H21 8533  12.734   7.935  16.915
    1STR    H22 8534  12.610   7.814  16.946
    1STR    H23 8535  12.917   7.792  17.298
    1STR    H27 8536  13.024   7.584  17.204
    1STR    H28 8537  12.797   5.734  17.016
    1STR    H29 8538  12.756   5.510  16.952
    1STR    H2A 8539  12.950   5.225  17.047
    1STR    H2B 8540  12.820   5.284  16.946
    1STR    H2C 8541  12.783   5.225  17.108
    1STR   BCK1 8542  12.971   5.227   4.350
    1STR    O03 8543  13.059   5.165   4.408
    1STR    N04 8544  12.933   5.355   4.380
    1STR    C05 8545  12.967   5.444   4.486
    1STR    C06 8546  12.968   5.587   4.464
    1STR    C07 8547  12.992   5.683   4.568
    1STR    N08 8548  12.987   5.824   4.546
    1STR    C09 8549  12.979   5.928   4.634
    1STR    O0A 8550  12.971   5.913   4.756
    1STR    O0B 8551  12.979   6.054   4.575
    1STR    C0C 8552  12.979   6.175   4.656
    1STR    C0D 8553  13.122   6.203   4.706
    1STR    C0E 8554  12.922   6.301   4.582
    1STR    O0F 8555  12.924   6.424   4.660
    1STR    C0G 8556  12.862   6.541   4.601
    1STR    C0H 8557  12.710   6.527   4.614
    1STR    C0I 8558  12.909   6.676   4.666
    1STR    O0J 8559  12.861   6.792   4.592
    1STR    C0K 8560  12.892   6.925   4.643
    1STR    C0M 8561  13.043   6.949   4.641
    1STR    C0N 8562  12.820   7.036   4.559
    1STR    O0O 8563  12.842   7.169   4.611
    1STR    C0P 8564  12.841   7.280   4.530
    1STR    O0Q 8565  12.831   7.279   4.407
    1STR    N0R 8566  12.853   7.391   4.604
    1STR    C0S 8567  12.867   7.529   4.576
    1STR    C0T 8568  12.895   7.609   4.689
    1STR    C0U 8569  12.921   7.747   4.678
    1STR    C0V 8570  12.917   7.810   4.552
    1STR    C0W 8571  12.959   7.956   4.543
    1STR    C0X 8572  12.882   7.736   4.436
    1STR    N0Y 8573  12.883   7.803   4.313
    1STR   BCK2 8574  12.801   7.903   4.272
    1STR    O10 8575  12.700   7.938   4.333
    1STR    C13 8576  12.860   7.595   4.449
    1STR    C14 8577  13.021   5.631   4.696
    1STR    C15 8578  13.019   5.493   4.721
    1STR    C16 8579  12.989   5.400   4.620
    1STR    C17 8580  12.975   5.256   4.665
    1STR    H1B 8581  12.868   5.391   4.313
    1STR    H1C 8582  12.949   5.623   4.365
    1STR    H1D 8583  12.989   5.856   4.451
    1STR    H1E 8584  12.916   6.158   4.744
    1STR    H1F 8585  13.191   6.221   4.623
    1STR    H1G 8586  13.124   6.291   4.771
    1STR    H1H 8587  13.161   6.119   4.765
    1STR    H1I 8588  12.819   6.278   4.553
    1STR    H1J 8589  12.977   6.317   4.490
    1STR    H1K 8590  12.890   6.545   4.496
    1STR    H1M 8591  12.680   6.514   4.718
    1STR    H1N 8592  12.670   6.443   4.557
    1STR    H1O 8593  12.660   6.617   4.576
    1STR    H1P 8594  12.874   6.681   4.769
    1STR    H1Q 8595  13.018   6.676   4.669
    1STR    H1R 8596  12.855   6.932   4.746
    1STR    H1S 8597  13.067   7.051   4.672
    1STR    H1T 8598  13.084   6.935   4.540
    1STR    H1U 8599  13.097   6.882   4.708
    1STR    H1V 8600  12.713   7.019   4.557
    1STR    H1W 8601  12.853   7.031   4.455
    1STR    H1X 8602  12.855   7.366   4.701
    1STR    H1Y 8603  12.901   7.566   4.788
    1STR    H1Z 8604  12.946   7.803   4.766
    1STR    H20 8605  13.041   7.967   4.473
    1STR    H21 8606  12.876   8.018   4.509
    1STR    H22 8607  12.993   7.995   4.639
    1STR    H23 8608  12.959   7.783   4.251
    1STR    H27 8609  12.837   7.536   4.361
    1STR    H28 8610  13.045   5.695   4.780
    1STR    H29 8611  13.038   5.459   4.822
    1STR    H2A 8612  12.897   5.204   4.609
    1STR    H2B 8613  12.946   5.250   4.770
    1STR    H2C 8614  13.069   5.203   4.654
    1STR   BCK1 8615  13.040   5.244   8.563
    1STR    O03 8616  13.000   5.258   8.448
    1STR    N04 8617  13.109   5.339   8.630
    1STR    C05 8618  13.190   5.444   8.578
    1STR    C06 8619  13.172   5.584   8.606
    1STR    C07 8620  13.265   5.685   8.563
    1STR    N08 8621  13.251   5.825   8.593
    1STR    C09 8622  13.319   5.934   8.546
    1STR    O0A 8623  13.404   5.927   8.458
    1STR    O0B 8624  13.284   6.056   8.604
    1STR    C0C 8625  13.343   6.181   8.555
    1STR    C0D 8626  13.275   6.219   8.422
    1STR    C0E 8627  13.338   6.303   8.654
    1STR    O0F 8628  13.389   6.427   8.596
    1STR    C0G 8629  13.392   6.547   8.679
    1STR    C0H 8630  13.512   6.537   8.775
    1STR    C0I 8631  13.402   6.678   8.593
    1STR    O0J 8632  13.377   6.803   8.665
    1STR    C0K 8633  13.379   6.927   8.589
    1STR    C0M 8634  13.261   6.929   8.491
    1STR    C0N 8635  13.369   7.057   8.677
    1STR    O0O 8636  13.383   7.178   8.599
    1STR    C0P 8637  13.307   7.292   8.619
    1STR    O0Q 8638  13.211   7.300   8.694
    1STR    N0R 8639  13.356   7.393   8.546
    1STR    C0S 8640  13.324   7.530   8.529
    1STR    C0T 8641  13.433   7.612   8.494
    1STR    C0U 8642  13.416   7.750   8.471
    1STR    C0V 8643  13.290   7.811   8.481
    1STR    C0W 8644  13.287   7.961   8.463
    1STR    C0X 8645  13.175   7.733   8.512
    1STR    N0Y 8646  13.045   7.787   8.533
    1STR   BCK2 8647  12.964   7.891   8.499
    1STR    O10 8648  12.857   7.899   8.557
    1STR    C13 8649  13.196   7.593   8.539
    1STR    C14 8650  13.378   5.639   8.491
    1STR    C15 8651  13.398   5.502   8.465
    1STR    C16 8652  13.307   5.405   8.509
    1STR    C17 8653  13.342   5.259   8.487
    1STR    H1B 8654  13.123   5.319   8.728
    1STR    H1C 8655  13.084   5.613   8.662
    1STR    H1D 8656  13.179   5.851   8.659
    1STR    H1E 8657  13.449   6.161   8.534
    1STR    H1F 8658  13.169   6.239   8.436
    1STR    H1G 8659  13.321   6.308   8.379
    1STR    H1H 8660  13.285   6.139   8.348
    1STR    H1I 8661  13.396   6.278   8.743
    1STR    H1J 8662  13.236   6.319   8.687
    1STR    H1K 8663  13.300   6.552   8.736
    1STR    H1M 8664  13.606   6.524   8.720
    1STR    H1N 8665  13.503   6.453   8.844
    1STR    H1O 8666  13.522   6.627   8.835
    1STR    H1P 8667  13.499   6.683   8.544
    1STR    H1Q 8668  13.329   6.668   8.513
    1STR    H1R 8669  13.473   6.932   8.534
    1STR    H1S 8670  13.255   7.025   8.439
    1STR    H1T 8671  13.166   6.914   8.544
    1STR    H1U 8672  13.269   6.853   8.414
    1STR    H1V 8673  13.449   7.057   8.752
    1STR    H1W 8674  13.276   7.059   8.734
    1STR    H1X 8675  13.438   7.362   8.497
    1STR    H1Y 8676  13.533   7.572   8.487
    1STR    H1Z 8677  13.503   7.809   8.447
    1STR    H20 8678  13.257   7.985   8.361
    1STR    H21 8679  13.219   8.008   8.534
    1STR    H22 8680  13.385   8.006   8.478
    1STR    H23 8681  12.990   7.729   8.595
    1STR    H27 8682  13.112   7.530   8.566
    1STR    H28 8683  13.455   5.705   8.456
    1STR    H29 8684  13.487   5.473   8.412
    1STR    H2A 8685  13.331   5.202   8.580
    1STR    H2B 8686  13.444   5.246   8.452
    1STR    H2C 8687  13.275   5.215   8.413
    1STR   BCK1 8688  12.971   5.212  12.969
    1STR    O03 8689  13.069   5.155  13.016
    1STR    N04 8690  12.952   5.341  13.005
    1STR    C05 8691  12.851   5.440  13.001
    1STR    C06 8692  12.887   5.579  12.992
    1STR    C07 8693  12.792   5.686  13.003
    1STR    N08 8694  12.831   5.823  12.997
    1STR    C09 8695  12.756   5.936  13.005
    1STR    O0A 8696  12.634   5.937  13.019
    1STR    O0B 8697  12.829   6.054  12.996
    1STR    C0C 8698  12.762   6.182  13.008
    1STR    C0D 8699  12.736   6.213  13.157
    1STR    C0E 8700  12.837   6.301  12.941
    1STR    O0F 8701  12.762   6.425  12.949
    1STR    C0G 8702  12.816   6.541  12.881
    1STR    C0H 8703  12.793   6.526  12.730
    1STR    C0I 8704  12.750   6.673  12.932
    1STR    O0J 8705  12.810   6.792  12.876
    1STR    C0K 8706  12.753   6.920  12.914
    1STR    C0M 8707  12.782   6.948  13.062
    1STR    C0N 8708  12.808   7.038  12.827
    1STR    O0O 8709  12.729   7.157  12.845
    1STR    C0P 8710  12.784   7.282  12.846
    1STR    O0Q 8711  12.904   7.308  12.834
    1STR    N0R 8712  12.688   7.373  12.867
    1STR    C0S 8713  12.691   7.510  12.899
    1STR    C0T 8714  12.594   7.551  12.992
    1STR    C0U 8715  12.594   7.683  13.041
    1STR    C0V 8716  12.686   7.778  12.994
    1STR    C0W 8717  12.693   7.908  13.073
    1STR    C0X 8718  12.773   7.746  12.886
    1STR    N0Y 8719  12.856   7.838  12.819
    1STR   BCK2 8720  12.850   7.968  12.779
    1STR    O10 8721  12.932   8.007  12.698
    1STR    C13 8722  12.779   7.608  12.845
    1STR    C14 8723  12.658   5.647  13.023
    1STR    C15 8724  12.620   5.512  13.034
    1STR    C16 8725  12.715   5.409  13.026
    1STR    C17 8726  12.666   5.268  13.057
    1STR    H1B 8727  13.035   5.370  13.054
    1STR    H1C 8728  12.991   5.604  12.978
    1STR    H1D 8729  12.928   5.843  12.987
    1STR    H1E 8730  12.665   6.175  12.958
    1STR    H1F 8731  12.828   6.223  13.213
    1STR    H1G 8732  12.680   6.306  13.168
    1STR    H1H 8733  12.677   6.134  13.204
    1STR    H1I 8734  12.855   6.275  12.837
    1STR    H1J 8735  12.935   6.315  12.988
    1STR    H1K 8736  12.923   6.548  12.902
    1STR    H1M 8737  12.688   6.511  12.707
    1STR    H1N 8738  12.849   6.442  12.688
    1STR    H1O 8739  12.826   6.615  12.677
    1STR    H1P 8740  12.643   6.671  12.909
    1STR    H1Q 8741  12.758   6.675  13.041
    1STR    H1R 8742  12.645   6.915  12.898
    1STR    H1S 8743  12.748   7.048  13.090
    1STR    H1T 8744  12.889   6.944  13.083
    1STR    H1U 8745  12.732   6.878  13.129
    1STR    H1V 8746  12.804   7.011  12.721
    1STR    H1W 8747  12.913   7.056  12.850
    1STR    H1X 8748  12.599   7.327  12.871
    1STR    H1Y 8749  12.523   7.481  13.032
    1STR    H1Z 8750  12.523   7.710  13.118
    1STR    H20 8751  12.791   7.954  13.063
    1STR    H21 8752  12.616   7.977  13.042
    1STR    H22 8753  12.678   7.888  13.179
    1STR    H23 8754  12.939   7.797  12.779
    1STR    H27 8755  12.850   7.577  12.770
    1STR    H28 8756  12.578   5.718  13.033
    1STR    H29 8757  12.517   5.489  13.053
    1STR    H2A 8758  12.639   5.218  12.965
    1STR    H2B 8759  12.578   5.271  13.121
    1STR    H2C 8760  12.741   5.210  13.110
    1STR   BCK1 8761  13.069   9.598  17.406
    1STR    O03 8762  13.174   9.535  17.408
    1STR    N04 8763  13.052   9.722   0.019
    1STR    C05 8764  13.137   9.808   0.095
    1STR    C06 8765  13.122   9.952   0.087
    1STR    C07 8766  13.200  10.045   0.164
    1STR    N08 8767  13.180  10.187   0.158
    1STR    C09 8768  13.241  10.290   0.223
    1STR    O0A 8769  13.333  10.275   0.303
    1STR    O0B 8770  13.191  10.416   0.194
    1STR    C0C 8771  13.252  10.537   0.249
    1STR    C0D 8772  13.381  10.568   0.171
    1STR    C0E 8773  13.158  10.663   0.251
    1STR    O0F 8774  13.222  10.787   0.296
    1STR    C0G 8775  13.138  10.905   0.309
    1STR    C0H 8776  13.058  10.893   0.440
    1STR    C0I 8777  13.217  11.041   0.307
    1STR    O0J 8778  13.132  11.158   0.292
    1STR    C0K 8779  13.193  11.291   0.292
    1STR    C0M 8780  13.291  11.304   0.175
    1STR    C0N 8781  13.086  11.406   0.282
    1STR    O0O 8782  13.142  11.539   0.283
    1STR    C0P 8783  13.084  11.646   0.217
    1STR    O0Q 8784  12.988  11.638   0.141
    1STR    N0R 8785  13.148  11.760   0.248
    1STR    C0S 8786  13.140  11.896   0.210
    1STR    C0T 8787  13.225  11.981   0.284
    1STR    C0U 8788  13.239  12.117   0.251
    1STR    C0V 8789  13.168  12.173   0.144
    1STR    C0W 8790  13.206  12.316   0.104
    1STR    C0X 8791  13.072  12.096   0.072
    1STR    N0Y 8792  13.002  12.153  17.403
    1STR   BCK2 8793  12.938  12.273  17.393
    1STR    O10 8794  12.916  12.348   0.048
    1STR    C13 8795  13.062  11.956   0.105
    1STR    C14 8796  13.299   9.989   0.248
    1STR    C15 8797  13.313   9.850   0.261
    1STR    C16 8798  13.232   9.760   0.190
    1STR    C17 8799  13.248   9.614   0.229
    1STR    H1B 8800  12.962   9.759  17.437
    1STR    H1C 8801  13.048   9.991   0.019
    1STR    H1D 8802  13.108  10.221   0.096
    1STR    H1E 8803  13.280  10.516   0.353
    1STR    H1F 8804  13.360  10.589   0.066
    1STR    H1G 8805  13.432  10.655   0.213
    1STR    H1H 8806  13.451  10.484   0.175
    1STR    H1I 8807  13.074  10.640   0.316
    1STR    H1J 8808  13.117  10.679   0.152
    1STR    H1K 8809  13.069  10.908   0.224
    1STR    H1M 8810  13.124  10.881   0.525
    1STR    H1N 8811  12.989  10.809   0.439
    1STR    H1O 8812  12.998  10.983   0.457
    1STR    H1P 8813  13.277  11.050   0.398
    1STR    H1Q 8814  13.288  11.036   0.225
    1STR    H1R 8815  13.247  11.304   0.386
    1STR    H1S 8816  13.332  11.405   0.170
    1STR    H1T 8817  13.241  11.285   0.080
    1STR    H1U 8818  13.376  11.237   0.183
    1STR    H1V 8819  13.017  11.399   0.366
    1STR    H1W 8820  13.025  11.392   0.192
    1STR    H1X 8821  13.219  11.738   0.316
    1STR    H1Y 8822  13.284  11.943   0.366
    1STR    H1Z 8823  13.309  12.177   0.307
    1STR    H20 8824  13.199  12.330  17.437
    1STR    H21 8825  13.140  12.387   0.154
    1STR    H22 8826  13.308  12.339   0.133
    1STR    H23 8827  12.999  12.099  17.319
    1STR    H27 8828  12.994  11.892   0.050
    1STR    H28 8829  13.365  10.049   0.308
    1STR    H29 8830  13.387   9.813   0.330
    1STR    H2A 8831  13.153   9.561   0.224
    1STR    H2B 8832  13.284   9.604   0.331
    1STR    H2C 8833  13.320   9.565   0.163
    1STR   BCK1 8834  12.955   9.595   4.212
    1STR    O03 8835  12.846   9.609   4.157
    1STR    N04 8836  13.049   9.693   4.216
    1STR    C05 8837  13.058   9.803   4.128
    1STR    C06 8838  13.063   9.940   4.171
    1STR    C07 8839  13.081  10.049   4.078
    1STR    N08 8840  13.092  10.185   4.119
    1STR    C09 8841  13.087  10.299   4.044
    1STR    O0A 8842  13.060  10.299   3.924
    1STR    O0B 8843  13.114  10.416   4.113
    1STR    C0C 8844  13.108  10.544   4.043
    1STR    C0D 8845  12.960  10.584   4.024
    1STR    C0E 8846  13.187  10.660   4.110
    1STR    O0F 8847  13.175  10.784   4.036
    1STR    C0G 8848  13.245  10.901   4.085
    1STR    C0H 8849  13.394  10.889   4.049
    1STR    C0I 8850  13.183  11.031   4.023
    1STR    O0J 8851  13.229  11.155   4.083
    1STR    C0K 8852  13.169  11.277   4.032
    1STR    C0M 8853  13.021  11.284   4.072
    1STR    C0N 8854  13.239  11.408   4.081
    1STR    O0O 8855  13.188  11.522   4.007
    1STR    C0P 8856  13.170  11.646   4.062
    1STR    O0Q 8857  13.181  11.674   4.180
    1STR    N0R 8858  13.143  11.733   3.963
    1STR    C0S 8859  13.131  11.873   3.958
    1STR    C0T 8860  13.205  11.935   3.856
    1STR    C0U 8861  13.199  12.074   3.836
    1STR    C0V 8862  13.117  12.156   3.917
    1STR    C0W 8863  13.132  12.305   3.896
    1STR    C0X 8864  13.034  12.098   4.016
    1STR    N0Y 8865  12.950  12.173   4.102
    1STR   BCK2 8866  12.874  12.286   4.100
    1STR    O10 8867  12.823  12.322   4.205
    1STR    C13 8868  13.046  11.956   4.038
    1STR    C14 8869  13.095  10.013   3.942
    1STR    C15 8870  13.093   9.879   3.900
    1STR    C16 8871  13.077   9.774   3.992
    1STR    C17 8872  13.088   9.632   3.940
    1STR    H1B 8873  13.130   9.672   4.273
    1STR    H1C 8874  13.052   9.962   4.276
    1STR    H1D 8875  13.105  10.204   4.217
    1STR    H1E 8876  13.152  10.530   3.944
    1STR    H1F 8877  12.911  10.600   4.120
    1STR    H1G 8878  12.953  10.676   3.966
    1STR    H1H 8879  12.905  10.508   3.970
    1STR    H1I 8880  13.292  10.631   4.118
    1STR    H1J 8881  13.151  10.676   4.212
    1STR    H1K 8882  13.232  10.907   4.193
    1STR    H1M 8883  13.408  10.876   3.942
    1STR    H1N 8884  13.441  10.805   4.099
    1STR    H1O 8885  13.448  10.979   4.079
    1STR    H1P 8886  13.203  11.033   3.915
    1STR    H1Q 8887  13.075  11.023   4.034
    1STR    H1R 8888  13.178  11.276   3.923
    1STR    H1S 8889  12.978  11.380   4.043
    1STR    H1T 8890  13.011  11.275   4.180
    1STR    H1U 8891  12.961  11.207   4.025
    1STR    H1V 8892  13.347  11.403   4.064
    1STR    H1W 8893  13.225  11.422   4.188
    1STR    H1X 8894  13.145  11.686   3.875
    1STR    H1Y 8895  13.270  11.877   3.792
    1STR    H1Z 8896  13.261  12.118   3.760
    1STR    H20 8897  13.063  12.339   3.818
    1STR    H21 8898  13.115  12.360   3.988
    1STR    H22 8899  13.233  12.330   3.862
    1STR    H23 8900  12.940  12.133   4.194
    1STR    H27 8901  12.988  11.908   4.116
    1STR    H28 8902  13.111  10.086   3.865
    1STR    H29 8903  13.106   9.858   3.795
    1STR    H2A 8904  13.154   9.573   4.004
    1STR    H2B 8905  13.130   9.628   3.839
    1STR    H2C 8906  12.990   9.585   3.938
    1STR   BCK1 8907  12.937   9.582   8.671
    1STR    O03 8908  12.996   9.523   8.760
    1STR    N04 8909  12.893   9.710   8.679
    1STR    C05 8910  12.883   9.802   8.787
    1STR    C06 8911  12.897   9.943   8.763
    1STR    C07 8912  12.875  10.042   8.864
    1STR    N08 8913  12.884  10.182   8.838
    1STR    C09 8914  12.834  10.288   8.907
    1STR    O0A 8915  12.764  10.277   9.008
    1STR    O0B 8916  12.868  10.411   8.854
    1STR    C0C 8917  12.829  10.535   8.922
    1STR    C0D 8918  12.928  10.562   9.037
    1STR    C0E 8919  12.821  10.658   8.826
    1STR    O0F 8920  12.782  10.781   8.893
    1STR    C0G 8921  12.762  10.898   8.809
    1STR    C0H 8922  12.628  10.884   8.736
    1STR    C0I 8923  12.764  11.032   8.890
    1STR    O0J 8924  12.761  11.149   8.804
    1STR    C0K 8925  12.756  11.279   8.866
    1STR    C0M 8926  12.888  11.307   8.940
    1STR    C0N 8927  12.731  11.393   8.761
    1STR    O0O 8928  12.712  11.521   8.823
    1STR    C0P 8929  12.746  11.638   8.760
    1STR    O0Q 8930  12.799  11.646   8.650
    1STR    N0R 8931  12.715  11.741   8.839
    1STR    C0S 8932  12.737  11.880   8.831
    1STR    C0T 8933  12.722  11.950   8.952
    1STR    C0U 8934  12.748  12.088   8.961
    1STR    C0V 8935  12.785  12.161   8.846
    1STR    C0W 8936  12.825  12.307   8.864
    1STR    C0X 8937  12.790  12.097   8.720
    1STR    N0Y 8938  12.824  12.173   8.607
    1STR   BCK2 8939  12.749  12.271   8.554
    1STR    O10 8940  12.633  12.253   8.519
    1STR    C13 8941  12.771  11.955   8.714
    1STR    C14 8942  12.843   9.995   8.993
    1STR    C15 8943  12.828   9.858   9.019
    1STR    C16 8944  12.845   9.762   8.918
    1STR    C17 8945  12.813   9.619   8.957
    1STR    H1B 8946  12.859   9.743   8.591
    1STR    H1C 8947  12.924   9.976   8.664
    1STR    H1D 8948  12.934  10.211   8.756
    1STR    H1E 8949  12.730  10.521   8.965
    1STR    H1F 8950  13.029  10.577   9.001
    1STR    H1G 8951  12.899  10.652   9.093
    1STR    H1H 8952  12.929  10.480   9.109
    1STR    H1I 8953  12.750  10.634   8.747
    1STR    H1J 8954  12.918  10.673   8.778
    1STR    H1K 8955  12.844  10.903   8.736
    1STR    H1M 8956  12.546  10.870   8.806
    1STR    H1N 8957  12.627  10.800   8.666
    1STR    H1O 8958  12.606  10.974   8.677
    1STR    H1P 8959  12.681  11.034   8.960
    1STR    H1Q 8960  12.855  11.034   8.951
    1STR    H1R 8961  12.674  11.281   8.938
    1STR    H1S 8962  12.890  11.408   8.980
    1STR    H1T 8963  12.973  11.298   8.872
    1STR    H1U 8964  12.904  11.240   9.024
    1STR    H1V 8965  12.642  11.371   8.703
    1STR    H1W 8966  12.814  11.397   8.690
    1STR    H1X 8967  12.670  11.708   8.922
    1STR    H1Y 8968  12.695  11.899   9.043
    1STR    H1Z 8969  12.741  12.137   9.057
    1STR    H20 8970  12.929  12.321   8.833
    1STR    H21 8971  12.763  12.374   8.805
    1STR    H22 8972  12.818  12.339   8.968
    1STR    H23 8973  12.905  12.147   8.553
    1STR    H27 8974  12.780  11.904   8.619
    1STR    H28 8975  12.828  10.063   9.076
    1STR    H29 8976  12.800   9.828   9.119
    1STR    H2A 8977  12.766   9.565   8.874
    1STR    H2B 8978  12.743   9.615   9.041
    1STR    H2C 8979  12.904   9.567   8.987
    1STR   BCK1 8980  13.087   9.602  12.941
    1STR    O03 8981  13.177   9.545  12.879
    1STR    N04 8982  13.100   9.722  13.005
    1STR    C05 8983  13.211   9.810  13.023
    1STR    C06 8984  13.191   9.953  13.032
    1STR    C07 8985  13.298  10.048  13.051
    1STR    N08 8986  13.275  10.189  13.067
    1STR    C09 8987  13.363  10.293  13.065
    1STR    O0A 8988  13.483  10.281  13.040
    1STR    O0B 8989  13.307  10.417  13.093
    1STR    C0C 8990  13.386  10.540  13.084
    1STR    C0D 8991  13.403  10.576  12.935
    1STR    C0E 8992  13.330  10.664  13.163
    1STR    O0F 8993  13.403  10.788  13.141
    1STR    C0G 8994  13.361  10.907  13.214
    1STR    C0H 8995  13.414  10.896  13.358
    1STR    C0I 8996  13.411  11.040  13.147
    1STR    O0J 8997  13.347  11.161  13.197
    1STR    C0K 8998  13.385  11.289  13.139
    1STR    C0M 8999  13.349  11.292  12.989
    1STR    C0N 9000  13.317  11.413  13.208
    1STR    O0O 9001  13.360  11.541  13.152
    1STR    C0P 9002  13.274  11.648  13.136
    1STR    O0Q 9003  13.153  11.646  13.152
    1STR    N0R 9004  13.345  11.758  13.105
    1STR    C0S 9005  13.318  11.895  13.080
    1STR    C0T 9006  13.426  11.981  13.108
    1STR    C0U 9007  13.421  12.117  13.074
    1STR    C0V 9008  13.309  12.173  13.011
    1STR    C0W 9009  13.323  12.316  12.962
    1STR    C0X 9010  13.193  12.093  12.987
    1STR    N0Y 9011  13.084  12.148  12.915
    1STR   BCK2 9012  13.020  12.267  12.929
    1STR    O10 9013  13.033  12.343  13.024
    1STR    C13 9014  13.200  11.953  13.021
    1STR    C14 9015  13.428   9.994  13.060
    1STR    C15 9016  13.450   9.856  13.056
    1STR    C16 9017  13.344   9.764  13.042
    1STR    C17 9018  13.382   9.618  13.059
    1STR    H1B 9019  13.013   9.754  13.043
    1STR    H1C 9020  13.090   9.991  13.023
    1STR    H1D 9021  13.181  10.219  13.082
    1STR    H1E 9022  13.486  10.518  13.125
    1STR    H1F 9023  13.307  10.598  12.888
    1STR    H1G 9024  13.467  10.664  12.924
    1STR    H1H 9025  13.451  10.495  12.880
    1STR    H1I 9026  13.331  10.639  13.270
    1STR    H1J 9027  13.226  10.679  13.136
    1STR    H1K 9028  13.252  10.910  13.215
    1STR    H1M 9029  13.522  10.885  13.360
    1STR    H1N 9030  13.370  10.812  13.412
    1STR    H1O 9031  13.390  10.987  13.415
    1STR    H1P 9032  13.519  11.049  13.158
    1STR    H1Q 9033  13.392  11.031  13.040
    1STR    H1R 9034  13.494  11.301  13.149
    1STR    H1S 9035  13.371  11.390  12.946
    1STR    H1T 9036  13.243  11.273  12.976
    1STR    H1U 9037  13.405  11.220  12.931
    1STR    H1V 9038  13.343  11.414  13.314
    1STR    H1W 9039  13.209  11.404  13.203
    1STR    H1X 9040  13.443  11.734  13.104
    1STR    H1Y 9041  13.516  11.943  13.154
    1STR    H1Z 9042  13.508  12.178  13.095
    1STR    H20 9043  13.272  12.330  12.866
    1STR    H21 9044  13.280  12.385  13.034
    1STR    H22 9045  13.427  12.343  12.946
    1STR    H23 9046  13.049  12.093  12.839
    1STR    H27 9047  13.116  11.888  13.000
    1STR    H28 9048  13.515  10.056  13.073
    1STR    H29 9049  13.551   9.820  13.066
    1STR    H2A 9050  13.301   9.561  13.106
    1STR    H2B 9051  13.470   9.606  13.123
    1STR    H2C 9052  13.406   9.573  12.962
    1STR   BCK1 9053  12.960  13.937  17.330
    1STR    O03 9054  12.868  13.923  17.411
    1STR    N04 9055  12.987  14.055  17.270
    1STR    C05 9056  12.901  14.166  17.255
    1STR    C06 9057  12.943  14.301  17.279
    1STR    C07 9058  12.858  14.413  17.249
    1STR    N08 9059  12.900  14.548  17.265
    1STR    C09 9060  12.845  14.662  17.214
    1STR    O0A 9061  12.748  14.663  17.139
    1STR    O0B 9062  12.909  14.779  17.252
    1STR    C0C 9063  12.849  14.908  17.218
    1STR    C0D 9064  12.744  14.942  17.325
    1STR    C0E 9065  12.950  15.025  17.201
    1STR    O0F 9066  12.883  15.149  17.165
    1STR    C0G 9067  12.965  15.264  17.135
    1STR    C0H 9068  13.026  15.247  16.995
    1STR    C0I 9069  12.882  15.396  17.142
    1STR    O0J 9070  12.963  15.516  17.127
    1STR    C0K 9071  12.894  15.643  17.127
    1STR    C0M 9072  12.836  15.672  17.266
    1STR    C0N 9073  12.988  15.760  17.084
    1STR    O0O 9074  12.916  15.878  17.043
    1STR    C0P 9075  12.936  16.001  17.100
    1STR    O0Q 9076  13.010  16.025  17.195
    1STR    N0R 9077  12.856  16.091  17.041
    1STR    C0S 9078  12.815  16.220  17.081
    1STR    C0T 9079  12.676  16.238  17.089
    1STR    C0U 9080  12.621  16.358  17.137
    1STR    C0V 9081  12.704  16.465  17.173
    1STR    C0W 9082  12.642  16.580  17.251
    1STR    C0X 9083  12.844  16.457  17.150
    1STR    N0Y 9084  12.927  16.566  17.183
    1STR   BCK2 9085  12.923  16.698  17.153
    1STR    O10 9086  12.994  16.775  17.216
    1STR    C13 9087  12.899  16.331  17.110
    1STR    C14 9088  12.728  14.383  17.202
    1STR    C15 9089  12.687  14.252  17.175
    1STR    C16 9090  12.774  14.144  17.197
    1STR    C17 9091  12.728  14.007  17.149
    1STR    H1B 9092  13.073  14.056  17.217
    1STR    H1C 9093  13.041  14.319  17.318
    1STR    H1D 9094  12.982  14.566  17.320
    1STR    H1E 9095  12.798  14.898  17.122
    1STR    H1F 9096  12.789  14.954  17.423
    1STR    H1G 9097  12.692  15.034  17.300
    1STR    H1H 9098  12.668  14.863  17.333
    1STR    H1I 9099  13.022  14.997  17.124
    1STR    H1J 9100  13.006  15.040  17.293
    1STR    H1K 9101  13.045  15.271  17.209
    1STR    H1M 9102  12.948  15.232  16.920
    1STR    H1N 9103  13.094  15.162  16.989
    1STR    H1O 9104  13.083  15.335  16.966
    1STR    H1P 9105  12.804  15.394  17.065
    1STR    H1Q 9106  12.830  15.398  17.237
    1STR    H1R 9107  12.813  15.638  17.053
    1STR    H1S 9108  12.793  15.772  17.270
    1STR    H1T 9109  12.913  15.667  17.342
    1STR    H1U 9110  12.757  15.602  17.294
    1STR    H1V 9111  13.048  15.729  16.999
    1STR    H1W 9112  13.060  15.782  17.163
    1STR    H1X 9113  12.806  16.050  16.964
    1STR    H1Y 9114  12.609  16.157  17.065
    1STR    H1Z 9115  12.515  16.365  17.151
    1STR    H20 9116  12.695  16.592  17.346
    1STR    H21 9117  12.646  16.675  17.199
    1STR    H22 9118  12.537  16.561  17.274
    1STR    H23 9119  13.004  16.545  17.244
    1STR    H27 9120  13.006  16.319  17.100
    1STR    H28 9121  12.654  14.460  17.183
    1STR    H29 9122  12.589  14.235  17.134
    1STR    H2A 9123  12.810  13.953  17.101
    1STR    H2B 9124  12.649  14.014  17.075
    1STR    H2C 9125  12.691  13.947  17.232
    1STR   BCK1 9126  13.009  13.950   4.355
    1STR    O03 9127  13.107  13.887   4.393
    1STR    N04 9128  12.978  14.077   4.396
    1STR    C05 9129  13.034  14.165   4.494
    1STR    C06 9130  13.028  14.308   4.476
    1STR    C07 9131  13.075  14.403   4.573
    1STR    N08 9132  13.062  14.545   4.556
    1STR    C09 9133  13.082  14.648   4.644
    1STR    O0A 9134  13.116  14.632   4.761
    1STR    O0B 9135  13.061  14.774   4.590
    1STR    C0C 9136  13.087  14.895   4.668
    1STR    C0D 9137  13.239  14.923   4.668
    1STR    C0E 9138  13.008  15.021   4.619
    1STR    O0F 9139  13.038  15.145   4.691
    1STR    C0G 9140  12.959  15.262   4.657
    1STR    C0H 9141  12.821  15.249   4.723
    1STR    C0I 9142  13.025  15.398   4.700
    1STR    O0J 9143  12.957  15.514   4.645
    1STR    C0K 9144  13.003  15.648   4.680
    1STR    C0M 9145  13.147  15.668   4.629
    1STR    C0N 9146  12.911  15.760   4.620
    1STR    O0O 9147  12.951  15.894   4.656
    1STR    C0P 9148  12.925  16.003   4.575
    1STR    O0Q 9149  12.875  15.998   4.463
    1STR    N0R 9150  12.963  16.116   4.636
    1STR    C0S 9151  12.970  16.253   4.602
    1STR    C0T 9152  13.031  16.334   4.701
    1STR    C0U 9153  13.057  16.470   4.678
    1STR    C0V 9154  13.021  16.531   4.556
    1STR    C0W 9155  13.071  16.673   4.534
    1STR    C0X 9156  12.949  16.458   4.458
    1STR    N0Y 9157  12.911  16.521   4.337
    1STR   BCK2 9158  12.850  16.641   4.317
    1STR    O10 9159  12.803  16.710   4.406
    1STR    C13 9160  12.928  16.317   4.481
    1STR    C14 9161  13.135  14.349   4.689
    1STR    C15 9162  13.141  14.211   4.711
    1STR    C16 9163  13.088  14.119   4.618
    1STR    C17 9164  13.087  13.974   4.662
    1STR    H1B 9165  12.901  14.115   4.344
    1STR    H1C 9166  12.984  14.346   4.385
    1STR    H1D 9167  13.033  14.578   4.466
    1STR    H1E 9168  13.057  14.876   4.771
    1STR    H1F 9169  13.276  14.942   4.568
    1STR    H1G 9170  13.262  15.010   4.730
    1STR    H1H 9171  13.295  14.839   4.709
    1STR    H1I 9172  12.902  14.999   4.627
    1STR    H1J 9173  13.028  15.037   4.513
    1STR    H1K 9174  12.947  15.266   4.549
    1STR    H1M 9175  12.830  15.236   4.831
    1STR    H1N 9176  12.764  15.164   4.685
    1STR    H1O 9177  12.761  15.338   4.706
    1STR    H1P 9178  13.028  15.405   4.809
    1STR    H1Q 9179  13.129  15.397   4.667
    1STR    H1R 9180  13.002  15.657   4.789
    1STR    H1S 9181  13.181  15.770   4.649
    1STR    H1T 9182  13.153  15.652   4.522
    1STR    H1U 9183  13.218  15.602   4.678
    1STR    H1V 9184  12.809  15.746   4.655
    1STR    H1W 9185  12.907  15.750   4.511
    1STR    H1X 9186  12.996  16.093   4.728
    1STR    H1Y 9187  13.063  16.292   4.795
    1STR    H1Z 9188  13.109  16.527   4.753
    1STR    H20 9189  13.095  16.690   4.429
    1STR    H21 9190  12.995  16.746   4.564
    1STR    H22 9191  13.161  16.693   4.591
    1STR    H23 9192  12.932  16.471   4.252
    1STR    H27 9193  12.879  16.257   4.406
    1STR    H28 9194  13.178  14.411   4.766
    1STR    H29 9195  13.184  14.175   4.803
    1STR    H2A 9196  12.999  13.921   4.626
    1STR    H2B 9197  13.085  13.966   4.771
    1STR    H2C 9198  13.176  13.922   4.628
    1STR   BCK1 9199  13.007  13.960   8.552
    1STR    O03 9200  12.942  13.972   8.449
    1STR    N04 9201  13.089  14.057   8.601
    1STR    C05 9202  13.149  14.163   8.530
    1STR    C06 9203  13.137  14.302   8.565
    1STR    C07 9204  13.211  14.407   8.497
    1STR    N08 9205  13.204  14.545   8.533
    1STR    C09 9206  13.248  14.655   8.466
    1STR    O0A 9207  13.295  14.651   8.353
    1STR    O0B 9208  13.235  14.776   8.535
    1STR    C0C 9209  13.272  14.902   8.470
    1STR    C0D 9210  13.160  14.941   8.372
    1STR    C0E 9211  13.302  15.022   8.567
    1STR    O0F 9212  13.331  15.146   8.496
    1STR    C0G 9213  13.362  15.265   8.573
    1STR    C0H 9214  13.507  15.254   8.623
    1STR    C0I 9215  13.343  15.395   8.488
    1STR    O0J 9216  13.347  15.520   8.563
    1STR    C0K 9217  13.322  15.643   8.489
    1STR    C0M 9218  13.176  15.646   8.442
    1STR    C0N 9219  13.348  15.774   8.571
    1STR    O0O 9220  13.340  15.892   8.487
    1STR    C0P 9221  13.278  16.009   8.526
    1STR    O0Q 9222  13.213  16.024   8.628
    1STR    N0R 9223  13.305  16.106   8.437
    1STR    C0S 9224  13.277  16.244   8.429
    1STR    C0T 9225  13.379  16.322   8.371
    1STR    C0U 9226  13.364  16.460   8.354
    1STR    C0V 9227  13.246  16.526   8.393
    1STR    C0W 9228  13.248  16.678   8.382
    1STR    C0X 9229  13.137  16.452   8.447
    1STR    N0Y 9230  13.018  16.512   8.495
    1STR   BCK2 9231  12.936  16.617   8.471
    1STR    O10 9232  12.845  16.637   8.550
    1STR    C13 9233  13.157  16.311   8.468
    1STR    C14 9234  13.297  14.364   8.393
    1STR    C15 9235  13.311  14.228   8.359
    1STR    C16 9236  13.240  14.128   8.427
    1STR    C17 9237  13.270  13.983   8.393
    1STR    H1B 9238  13.125  14.038   8.693
    1STR    H1C 9239  13.071  14.329   8.646
    1STR    H1D 9240  13.160  14.568   8.620
    1STR    H1E 9241  13.363  14.884   8.413
    1STR    H1F 9242  13.066  14.960   8.423
    1STR    H1G 9243  13.187  15.032   8.317
    1STR    H1H 9244  13.143  14.863   8.297
    1STR    H1I 9245  13.387  14.995   8.630
    1STR    H1J 9246  13.217  15.038   8.633
    1STR    H1K 9247  13.294  15.271   8.658
    1STR    H1M 9248  13.577  15.241   8.540
    1STR    H1N 9249  13.521  15.171   8.692
    1STR    H1O 9250  13.537  15.345   8.677
    1STR    H1P 9251  13.418  15.398   8.409
    1STR    H1Q 9252  13.247  15.386   8.438
    1STR    H1R 9253  13.388  15.645   8.403
    1STR    H1S 9254  13.153  15.742   8.394
    1STR    H1T 9255  13.108  15.635   8.526
    1STR    H1U 9256  13.153  15.569   8.369
    1STR    H1V 9257  13.449  15.771   8.613
    1STR    H1W 9258  13.280  15.782   8.656
    1STR    H1X 9259  13.366  16.069   8.366
    1STR    H1Y 9260  13.473  16.277   8.340
    1STR    H1Z 9261  13.446  16.517   8.312
    1STR    H20 9262  13.208  16.708   8.286
    1STR    H21 9263  13.192  16.724   8.463
    1STR    H22 9264  13.350  16.717   8.389
    1STR    H23 9265  12.978  16.461   8.572
    1STR    H27 9266  13.079  16.252   8.512
    1STR    H28 9267  13.358  14.433   8.337
    1STR    H29 9268  13.380  14.202   8.280
    1STR    H2A 9269  13.288  13.925   8.484
    1STR    H2B 9270  13.359  13.974   8.330
    1STR    H2C 9271  13.186  13.939   8.340
    1STR   BCK1 9272  12.963  13.936  12.980
    1STR    O03 9273  13.073  13.883  12.992
    1STR    N04 9274  12.952  14.063  13.025
    1STR    C05 9275  12.853  14.158  13.060
    1STR    C06 9276  12.879  14.298  13.043
    1STR    C07 9277  12.793  14.401  13.093
    1STR    N08 9278  12.823  14.539  13.079
    1STR    C09 9279  12.753  14.650  13.115
    1STR    O0A 9280  12.643  14.647  13.169
    1STR    O0B 9281  12.816  14.769  13.084
    1STR    C0C 9282  12.755  14.896  13.121
    1STR    C0D 9283  12.781  14.926  13.270
    1STR    C0E 9284  12.802  15.016  13.032
    1STR    O0F 9285  12.734  15.140  13.066
    1STR    C0G 9286  12.763  15.256  12.985
    1STR    C0H 9287  12.690  15.241  12.850
    1STR    C0I 9288  12.719  15.388  13.055
    1STR    O0J 9289  12.759  15.506  12.980
    1STR    C0K 9290  12.719  15.635  13.032
    1STR    C0M 9291  12.796  15.664  13.162
    1STR    C0N 9292  12.745  15.749  12.929
    1STR    O0O 9293  12.686  15.872  12.973
    1STR    C0P 9294  12.740  15.994  12.943
    1STR    O0Q 9295  12.842  16.014  12.878
    1STR    N0R 9296  12.666  16.089  13.001
    1STR    C0S 9297  12.683  16.227  13.022
    1STR    C0T 9298  12.630  16.274  13.143
    1STR    C0U 9299  12.641  16.409  13.178
    1STR    C0V 9300  12.699  16.503  13.091
    1STR    C0W 9301  12.704  16.645  13.144
    1STR    C0X 9302  12.746  16.462  12.962
    1STR    N0Y 9303  12.779  16.552  12.857
    1STR   BCK2 9304  12.817  16.682  12.848
    1STR    O10 9305  12.858  16.752  12.939
    1STR    C13 9306  12.741  16.322  12.932
    1STR    C14 9307  12.677  14.357  13.162
    1STR    C15 9308  12.650  14.220  13.180
    1STR    C16 9309  12.737  14.120  13.132
    1STR    C17 9310  12.707  13.977  13.171
    1STR    H1B 9311  13.046  14.094  13.047
    1STR    H1C 9312  12.970  14.327  12.993
    1STR    H1D 9313  12.910  14.564  13.035
    1STR    H1E 9314  12.647  14.887  13.106
    1STR    H1F 9315  12.887  14.937  13.291
    1STR    H1G 9316  12.731  15.018  13.300
    1STR    H1H 9317  12.742  14.846  13.333
    1STR    H1I 9318  12.784  14.991  12.928
    1STR    H1J 9319  12.910  15.030  13.043
    1STR    H1K 9320  12.870  15.262  12.968
    1STR    H1M 9321  12.583  15.228  12.865
    1STR    H1N 9322  12.727  15.157  12.791
    1STR    H1O 9323  12.704  15.331  12.789
    1STR    H1P 9324  12.611  15.388  13.069
    1STR    H1Q 9325  12.763  15.390  13.154
    1STR    H1R 9326  12.612  15.632  13.053
    1STR    H1S 9327  12.773  15.765  13.199
    1STR    H1T 9328  12.903  15.659  13.146
    1STR    H1U 9329  12.770  15.596  13.243
    1STR    H1V 9330  12.702  15.723  12.833
    1STR    H1W 9331  12.852  15.762  12.912
    1STR    H1X 9332  12.587  16.047  13.047
    1STR    H1Y 9333  12.582  16.207  13.212
    1STR    H1Z 9334  12.602  16.441  13.273
    1STR    H20 9335  12.808  16.674  13.160
    1STR    H21 9336  12.656  16.715  13.076
    1STR    H22 9337  12.656  16.656  13.241
    1STR    H23 9338  12.768  16.513  12.765
    1STR    H27 9339  12.779  16.285  12.837
    1STR    H28 9340  12.606  14.425  13.205
    1STR    H29 9341  12.562  14.192  13.236
    1STR    H2A 9342  12.657  13.926  13.089
    1STR    H2B 9343  12.641  13.973  13.258
    1STR    H2C 9344  12.798  13.923  13.197
    1STR   BCK1 9345   0.055  17.395   0.905
    1STR    O03 9346   0.123  17.297   0.874
    1STR    N04 9347  17.411  17.400   1.009
    1STR    C05 9348  17.372  17.297   1.095
    1STR    C06 9349  17.375  17.317   1.236
    1STR    C07 9350  17.330  17.217   1.327
    1STR    N08 9351  17.330  17.243   1.466
    1STR    C09 9352  17.296  17.164   1.569
    1STR    O0A 9353  17.260  17.047   1.560
    1STR    O0B 9354  17.305  17.229   1.688
    1STR    C0C 9355  17.279  17.158   1.811
    1STR    C0D 9356  17.404  17.078   1.851
    1STR    C0E 9357  17.235  17.254   1.923
    1STR    O0F 9358  17.207  17.178   2.042
    1STR    C0G 9359  17.164  17.253   2.156
    1STR    C0H 9360  17.015  17.287   2.141
    1STR    C0I 9361  17.190  17.170   2.283
    1STR    O0J 9362  17.160  17.249   2.398
    1STR    C0K 9363  17.175  17.184   2.525
    1STR    C0M 9364  17.324  17.172   2.561
    1STR    C0N 9365  17.100  17.270   2.629
    1STR    O0O 9366  17.094  17.205   2.756
    1STR    C0P 9367  17.170  17.246   2.858
    1STR    O0Q 9368  17.255  17.334   2.854
    1STR    N0R 9369  17.137  17.174   2.966
    1STR    C0S 9370  17.185  17.173   3.097
    1STR    C0T 9371  17.122  17.084   3.186
    1STR    C0U 9372  17.168  17.069   3.318
    1STR    C0V 9373  17.278  17.144   3.364
    1STR    C0W 9374  17.332  17.111   3.502
    1STR    C0X 9375  17.339  17.239   3.279
    1STR    N0Y 9376   0.011  17.312   3.320
    1STR   BCK2 9377   0.024  17.390   3.428
    1STR    O10 9378  17.375  17.414   3.509
    1STR    C13 9379  17.293  17.252   3.145
    1STR    C14 9380  17.281  17.096   1.272
    1STR    C15 9381  17.276  17.076   1.133
    1STR    C16 9382  17.318  17.176   1.044
    1STR    C17 9383  17.299  17.151   0.896
    1STR    H1B 9384  17.371   0.051   1.025
    1STR    H1C 9385  17.414  17.410   1.274
    1STR    H1D 9386  17.360  17.334   1.497
    1STR    H1E 9387  17.196  17.088   1.794
    1STR    H1F 9388   0.049  17.144   1.870
    1STR    H1G 9389  17.385  17.020   1.942
    1STR    H1H 9390  17.432  17.008   1.773
    1STR    H1I 9391  17.146  17.308   1.891
    1STR    H1J 9392  17.312  17.328   1.943
    1STR    H1K 9393  17.222  17.345   2.164
    1STR    H1M 9394  16.955  17.196   2.129
    1STR    H1N 9395  16.995  17.352   2.057
    1STR    H1O 9396  16.978  17.338   2.230
    1STR    H1P 9397  17.130  17.079   2.281
    1STR    H1Q 9398  17.294  17.139   2.284
    1STR    H1R 9399  17.129  17.086   2.522
    1STR    H1S 9400  17.336  17.126   2.660
    1STR    H1T 9401  17.372  17.270   2.565
    1STR    H1U 9402  17.379  17.110   2.491
    1STR    H1V 9403  16.997  17.285   2.595
    1STR    H1W 9404  17.143  17.370   2.636
    1STR    H1X 9405  17.064  17.110   2.944
    1STR    H1Y 9406  17.039  17.024   3.154
    1STR    H1Z 9407  17.119  16.998   3.383
    1STR    H20 9408  17.439  17.094   3.496
    1STR    H21 9409  17.312  17.190   3.573
    1STR    H22 9410  17.287  17.020   3.543
    1STR    H23 9411   0.092  17.309   3.261
    1STR    H27 9412  17.343  17.322   3.080
    1STR    H28 9413  17.245  17.016   1.334
    1STR    H29 9414  17.236  16.983   1.096
    1STR    H2A 9415  17.273  17.244   0.843
    1STR    H2B 9416  17.218  17.080   0.878
    1STR    H2C 9417  17.390  17.111   0.852
    1STR   BCK1 9418   0.084   0.062   5.261
    1STR    O03 9419   0.090   0.183   5.244
    1STR    N04 9420   0.140  17.439   5.364
    1STR    C05 9421   0.221   0.058   5.461
    1STR    C06 9422   0.190   0.044   5.599
    1STR    C07 9423   0.275   0.099   5.699
    1STR    N08 9424   0.244   0.079   5.835
    1STR    C09 9425   0.317   0.107   5.944
    1STR    O0A 9426   0.428   0.160   5.943
    1STR    O0B 9427   0.254   0.069   6.058
    1STR    C0C 9428   0.313   0.102   6.184
    1STR    C0D 9429   0.270   0.244   6.224
    1STR    C0E 9430   0.277  17.439   6.293
    1STR    O0F 9431   0.347   0.034   6.412
    1STR    C0G 9432   0.329  17.387   6.523
    1STR    C0H 9433   0.417  17.263   6.507
    1STR    C0I 9434   0.368   0.026   6.650
    1STR    O0J 9435   0.340  17.387   6.765
    1STR    C0K 9436   0.376   0.005   6.891
    1STR    C0M 9437   0.273   0.111   6.931
    1STR    C0N 9438   0.380  17.329   6.993
    1STR    O0O 9439   0.434  17.373   7.117
    1STR    C0P 9440   0.354  17.393   7.223
    1STR    O0Q 9441   0.232  17.378   7.224
    1STR    N0R 9442   0.429  17.434   7.326
    1STR    C0S 9443   0.393   0.033   7.455
    1STR    C0T 9444   0.487   0.108   7.527
    1STR    C0U 9445   0.458   0.156   7.656
    1STR    C0V 9446   0.334   0.128   7.716
    1STR    C0W 9447   0.303   0.187   7.853
    1STR    C0X 9448   0.241   0.046   7.648
    1STR    N0Y 9449   0.120   0.015   7.709
    1STR   BCK2 9450   0.099  17.366   7.807
    1STR    O10 9451   0.001  17.378   7.879
    1STR    C13 9452   0.270   0.000   7.517
    1STR    C14 9453   0.388   0.173   5.656
    1STR    C15 9454   0.421   0.184   5.520
    1STR    C16 9455   0.340   0.124   5.423
    1STR    C17 9456   0.388   0.130   5.278
    1STR    H1B 9457   0.129  17.339   5.365
    1STR    H1C 9458   0.101  17.430   5.627
    1STR    H1D 9459   0.157   0.035   5.858
    1STR    H1E 9460   0.422   0.099   6.175
    1STR    H1F 9461   0.162   0.251   6.236
    1STR    H1G 9462   0.317   0.274   6.317
    1STR    H1H 9463   0.301   0.316   6.148
    1STR    H1I 9464   0.305  17.339   6.259
    1STR    H1J 9465   0.169  17.438   6.310
    1STR    H1K 9466   0.224  17.359   6.532
    1STR    H1M 9467   0.522  17.290   6.493
    1STR    H1N 9468   0.387  17.202   6.421
    1STR    H1O 9469   0.411  17.199   6.595
    1STR    H1P 9470   0.473   0.054   6.646
    1STR    H1Q 9471   0.311   0.119   6.653
    1STR    H1R 9472   0.475   0.049   6.884
    1STR    H1S 9473   0.295   0.153   7.029
    1STR    H1T 9474   0.172   0.069   6.936
    1STR    H1U 9475   0.270   0.195   6.861
    1STR    H1V 9476   0.446  17.251   6.955
    1STR    H1W 9477   0.282  17.283   7.004
    1STR    H1X 9478   0.525   0.000   7.299
    1STR    H1Y 9479   0.583   0.134   7.484
    1STR    H1Z 9480   0.531   0.216   7.708
    1STR    H20 9481   0.197   0.205   7.866
    1STR    H21 9482   0.337   0.119   7.931
    1STR    H22 9483   0.354   0.282   7.866
    1STR    H23 9484   0.039   0.070   7.686
    1STR    H27 9485   0.197  17.380   7.466
    1STR    H28 9486   0.454   0.222   5.725
    1STR    H29 9487   0.510   0.238   5.492
    1STR    H2A 9488   0.362   0.038   5.224
    1STR    H2B 9489   0.496   0.140   5.273
    1STR    H2C 9490   0.343   0.215   5.227
    1STR   BCK1 9491   0.011   0.066   9.611
    1STR    O03 9492  17.399  17.402   9.571
    1STR    N04 9493  17.418   0.129   9.725
    1STR    C05 9494  17.309   0.111   9.812
    1STR    C06 9495  17.330   0.108   9.953
    1STR    C07 9496  17.222   0.105  10.045
    1STR    N08 9497  17.246   0.107  10.184
    1STR    C09 9498  17.162   0.135  10.286
    1STR    O0A 9499  17.044   0.166  10.273
    1STR    O0B 9500  17.224   0.125  10.408
    1STR    C0C 9501  17.148   0.142  10.529
    1STR    C0D 9502  17.079   0.010  10.565
    1STR    C0E 9503  17.237   0.192  10.646
    1STR    O0F 9504  17.159   0.210  10.765
    1STR    C0G 9505  17.229   0.259  10.880
    1STR    C0H 9506  17.249   0.411  10.866
    1STR    C0I 9507  17.148   0.226  11.008
    1STR    O0J 9508  17.223   0.264  11.124
    1STR    C0K 9509  17.160   0.242  11.251
    1STR    C0M 9510  17.163   0.092  11.286
    1STR    C0N 9511  17.237   0.324  11.357
    1STR    O0O 9512  17.173   0.319  11.485
    1STR    C0P 9513  17.230   0.254  11.589
    1STR    O0Q 9514  17.335   0.190  11.583
    1STR    N0R 9515  17.155   0.271  11.698
    1STR    C0S 9516  17.167   0.223  11.829
    1STR    C0T 9517  17.061   0.250  11.917
    1STR    C0U 9518  17.061   0.200  12.048
    1STR    C0V 9519  17.168   0.121  12.095
    1STR    C0W 9520  17.156   0.060  12.234
    1STR    C0X 9521  17.280   0.098  12.011
    1STR    N0Y 9522  17.387   0.018  12.050
    1STR   BCK2 9523   0.020   0.023  12.162
    1STR    O10 9524   0.009   0.110  12.249
    1STR    C13 9525  17.277   0.147  11.878
    1STR    C14 9526  17.091   0.101   9.992
    1STR    C15 9527  17.069   0.105   9.853
    1STR    C16 9528  17.177   0.112   9.763
    1STR    C17 9529  17.144   0.128   9.615
    1STR    H1B 9530   0.041   0.205   9.747
    1STR    H1C 9531  17.431   0.109   9.990
    1STR    H1D 9532  17.339   0.087  10.216
    1STR    H1E 9533  17.071   0.219  10.513
    1STR    H1F 9534  17.151  17.370  10.583
    1STR    H1G 9535  17.018   0.021  10.655
    1STR    H1H 9536  17.012  17.417  10.484
    1STR    H1I 9537  17.284   0.286  10.616
    1STR    H1J 9538  17.317   0.120  10.664
    1STR    H1K 9539  17.325   0.209  10.888
    1STR    H1M 9540  17.154   0.463  10.853
    1STR    H1N 9541  17.313   0.437  10.782
    1STR    H1O 9542  17.296   0.452  10.955
    1STR    H1P 9543  17.052   0.278  11.005
    1STR    H1Q 9544  17.127   0.119  11.009
    1STR    H1R 9545  17.057   0.277  11.248
    1STR    H1S 9546  17.120   0.075  11.385
    1STR    H1T 9547  17.265   0.055  11.288
    1STR    H1U 9548  17.106   0.032  11.216
    1STR    H1V 9549  17.239   0.429  11.326
    1STR    H1W 9550  17.341   0.293  11.362
    1STR    H1X 9551  17.075   0.328  11.677
    1STR    H1Y 9552  16.976   0.309  11.885
    1STR    H1Z 9553  16.977   0.220  12.113
    1STR    H20 9554  17.205  17.403  12.238
    1STR    H21 9555  17.202   0.125  12.308
    1STR    H22 9556  17.052   0.045  12.262
    1STR    H23 9557  17.419  17.389  11.984
    1STR    H27 9558  17.361   0.126  11.813
    1STR    H28 9559  17.004   0.097  10.055
    1STR    H29 9560  16.967   0.106   9.817
    1STR    H2A 9561  17.214   0.197   9.567
    1STR    H2B 9562  17.044   0.167   9.600
    1STR    H2C 9563  17.151   0.031   9.565
    1STR   BCK1 9564   0.130  17.437  13.992
    1STR    O03 9565   0.251  17.422  13.978
    1STR    N04 9566   0.057  17.378  14.087
    1STR    C05 9567   0.100  17.281  14.177
    1STR    C06 9568   0.085  17.301  14.317
    1STR    C07 9569   0.122  17.201  14.410
    1STR    N08 9570   0.101  17.222  14.547
    1STR    C09 9571   0.144  17.151  14.653
    1STR    O0A 9572   0.220  17.054  14.647
    1STR    O0B 9573   0.095  17.199  14.769
    1STR    C0C 9574   0.132  17.138  14.893
    1STR    C0D 9575   0.270  17.191  14.937
    1STR    C0E 9576   0.025  17.162  15.001
    1STR    O0F 9577   0.065  17.095  15.121
    1STR    C0G 9578  17.417  17.109  15.232
    1STR    C0H 9579  17.300  17.010  15.218
    1STR    C0I 9580   0.058  17.082  15.361
    1STR    O0J 9581  17.416  17.110  15.474
    1STR    C0K 9582   0.035  17.082  15.601
    1STR    C0M 9583   0.140  17.188  15.638
    1STR    C0N 9584  17.361  17.079  15.705
    1STR    O0O 9585  17.410  17.027  15.828
    1STR    C0P 9586  17.426  17.104  15.936
    1STR    O0Q 9587  17.399  17.223  15.945
    1STR    N0R 9588   0.036  17.027  16.032
    1STR    C0S 9589   0.072  17.050  16.165
    1STR    C0T 9590   0.123  16.939  16.233
    1STR    C0U 9591   0.157  16.947  16.369
    1STR    C0V 9592   0.137  17.067  16.440
    1STR    C0W 9593   0.164  17.060  16.589
    1STR    C0X 9594   0.089  17.183  16.374
    1STR    N0Y 9595   0.054  17.300  16.443
    1STR   BCK2 9596   0.109  17.371  16.543
    1STR    O10 9597   0.044   0.020  16.596
    1STR    C13 9598   0.056  17.172  16.236
    1STR    C14 9599   0.175  17.080  14.359
    1STR    C15 9600   0.189  17.059  14.221
    1STR    C16 9601   0.150  17.157  14.129
    1STR    C17 9602   0.159  17.125  13.981
    1STR    H1B 9603  17.399  17.401  14.086
    1STR    H1C 9604   0.044  17.395  14.351
    1STR    H1D 9605   0.047  17.301  14.575
    1STR    H1E 9606   0.139  17.030  14.879
    1STR    H1F 9607   0.267  17.299  14.954
    1STR    H1G 9608   0.303  17.143  15.029
    1STR    H1H 9609   0.346  17.171  14.861
    1STR    H1I 9610  17.369  17.124  14.967
    1STR    H1J 9611   0.013  17.269  15.019
    1STR    H1K 9612  17.380  17.211  15.238
    1STR    H1M 9613  17.337  16.908  15.208
    1STR    H1N 9614  17.238  17.032  15.131
    1STR    H1O 9615  17.236  17.014  15.306
    1STR    H1P 9616   0.092  16.978  15.362
    1STR    H1Q 9617   0.147  17.144  15.361
    1STR    H1R 9618   0.081  16.983  15.599
    1STR    H1S 9619   0.182  17.169  15.736
    1STR    H1T 9620   0.095  17.288  15.640
    1STR    H1U 9621   0.223  17.190  15.568
    1STR    H1V 9622  17.282  17.013  15.670
    1STR    H1W 9623  17.315  17.177  15.717
    1STR    H1X 9624   0.048  16.934  15.997
    1STR    H1Y 9625   0.136  16.844  16.184
    1STR    H1Z 9626   0.194  16.860  16.420
    1STR    H20 9627   0.268  17.085  16.607
    1STR    H21 9628   0.099  17.128  16.644
    1STR    H22 9629   0.147  16.960  16.629
    1STR    H23 9630  17.407  17.342  16.415
    1STR    H27 9631   0.015  17.258  16.184
    1STR    H28 9632   0.205  16.999  14.424
    1STR    H29 9633   0.229  16.965  14.186
    1STR    H2A 9634   0.073  17.166  13.927
    1STR    H2B 9635   0.160  17.018  13.964
    1STR    H2C 9636   0.250  17.167  13.939
    1STR   BCK1 9637   0.078   4.419   0.880
    1STR    O03 9638  17.431   4.487   0.826
    1STR    N04 9639   0.131   4.443   1.001
    1STR    C05 9640   0.107   4.547   1.092
    1STR    C06 9641   0.101   4.517   1.231
    1STR    C07 9642   0.089   4.618   1.330
    1STR    N08 9643   0.091   4.585   1.467
    1STR    C09 9644   0.113   4.664   1.573
    1STR    O0A 9645   0.139   4.784   1.566
    1STR    O0B 9646   0.105   4.596   1.690
    1STR    C0C 9647   0.115   4.668   1.814
    1STR    C0D 9648  17.416   4.722   1.852
    1STR    C0E 9649   0.173   4.579   1.926
    1STR    O0F 9650   0.186   4.658   2.045
    1STR    C0G 9651   0.241   4.592   2.159
    1STR    C0H 9652   0.394   4.585   2.144
    1STR    C0I 9653   0.202   4.672   2.285
    1STR    O0J 9654   0.250   4.605   2.401
    1STR    C0K 9655   0.224   4.669   2.526
    1STR    C0M 9656   0.077   4.646   2.567
    1STR    C0N 9657   0.322   4.609   2.628
    1STR    O0O 9658   0.317   4.676   2.754
    1STR    C0P 9659   0.256   4.620   2.859
    1STR    O0Q 9660   0.194   4.514   2.856
    1STR    N0R 9661   0.271   4.697   2.967
    1STR    C0S 9662   0.225   4.681   3.098
    1STR    C0T 9663   0.235   4.791   3.186
    1STR    C0U 9664   0.186   4.782   3.318
    1STR    C0V 9665   0.126   4.664   3.365
    1STR    C0W 9666   0.064   4.664   3.504
    1STR    C0X 9667   0.120   4.550   3.280
    1STR    N0Y 9668   0.056   4.432   3.317
    1STR   BCK2 9669   0.078   4.346   3.416
    1STR    O10 9670   0.011   4.244   3.422
    1STR    C13 9671   0.169   4.561   3.148
    1STR    C14 9672   0.077   4.752   1.285
    1STR    C15 9673   0.086   4.783   1.148
    1STR    C16 9674   0.104   4.683   1.052
    1STR    C17 9675   0.129   4.728   0.909
    1STR    H1B 9676   0.200   4.375   1.027
    1STR    H1C 9677   0.107   4.413   1.262
    1STR    H1D 9678   0.076   4.489   1.493
    1STR    H1E 9679   0.183   4.752   1.803
    1STR    H1F 9680  17.344   4.641   1.866
    1STR    H1G 9681  17.420   4.780   1.944
    1STR    H1H 9682  17.377   4.788   1.774
    1STR    H1I 9683   0.270   4.541   1.895
    1STR    H1J 9684   0.108   4.493   1.945
    1STR    H1K 9685   0.200   4.492   2.168
    1STR    H1M 9686   0.437   4.684   2.131
    1STR    H1N 9687   0.425   4.523   2.060
    1STR    H1O 9688   0.439   4.541   2.233
    1STR    H1P 9689   0.243   4.773   2.279
    1STR    H1Q 9690   0.094   4.683   2.288
    1STR    H1R 9691   0.244   4.776   2.518
    1STR    H1S 9692   0.057   4.690   2.665
    1STR    H1T 9693   0.055   4.540   2.575
    1STR    H1U 9694   0.007   4.691   2.497
    1STR    H1V 9695   0.424   4.618   2.591
    1STR    H1W 9696   0.305   4.501   2.639
    1STR    H1X 9697   0.323   4.780   2.945
    1STR    H1Y 9698   0.278   4.884   3.153
    1STR    H1Z 9699   0.192   4.869   3.382
    1STR    H20 9700  17.419   4.596   3.510
    1STR    H21 9701   0.138   4.632   3.578
    1STR    H22 9702   0.029   4.763   3.532
    1STR    H23 9703  17.426   4.398   3.253
    1STR    H27 9704   0.162   4.474   3.085
    1STR    H28 9705   0.063   4.834   1.353
    1STR    H29 9706   0.081   4.887   1.118
    1STR    H2A 9707   0.197   4.661   0.857
    1STR    H2B 9708   0.174   4.828   0.906
    1STR    H2C 9709   0.035   4.733   0.854
    1STR   BCK1 9710   0.011   4.345   5.263
    1STR    O03 9711   0.031   4.230   5.226
    1STR    N04 9712  17.379   4.379   5.371
    1STR    C05 9713  17.301   4.299   5.455
    1STR    C06 9714  17.313   4.313   5.596
    1STR    C07 9715  17.230   4.241   5.687
    1STR    N08 9716  17.242   4.261   5.826
    1STR    C09 9717  17.169   4.213   5.928
    1STR    O0A 9718  17.074   4.137   5.917
    1STR    O0B 9719  17.213   4.260   6.048
    1STR    C0C 9720  17.152   4.212   6.170
    1STR    C0D 9721  17.214   4.077   6.208
    1STR    C0E 9722  17.166   4.315   6.285
    1STR    O0F 9723  17.103   4.265   6.403
    1STR    C0G 9724  17.107   4.351   6.518
    1STR    C0H 9725  16.999   4.459   6.504
    1STR    C0I 9726  17.083   4.266   6.645
    1STR    O0J 9727  17.099   4.348   6.761
    1STR    C0K 9728  17.078   4.285   6.887
    1STR    C0M 9729  17.198   4.195   6.923
    1STR    C0N 9730  17.060   4.396   6.992
    1STR    O0O 9731  17.024   4.344   7.120
    1STR    C0P 9732  17.112   4.342   7.221
    1STR    O0Q 9733  17.230   4.377   7.214
    1STR    N0R 9734  17.051   4.297   7.332
    1STR    C0S 9735  17.097   4.273   7.462
    1STR    C0T 9736  17.004   4.219   7.553
    1STR    C0U 9737  17.042   4.185   7.684
    1STR    C0V 9738  17.175   4.206   7.727
    1STR    C0W 9739  17.213   4.155   7.865
    1STR    C0X 9740  17.268   4.269   7.640
    1STR    N0Y 9741  17.400   4.291   7.678
    1STR   BCK2 9742   0.007   4.355   7.786
    1STR    O10 9743  17.378   4.402   7.876
    1STR    C13 9744  17.229   4.299   7.508
    1STR    C14 9745  17.135   4.152   5.631
    1STR    C15 9746  17.121   4.139   5.492
    1STR    C16 9747  17.201   4.213   5.403
    1STR    C17 9748  17.172   4.202   5.255
    1STR    H1B 9749  17.383   4.478   5.392
    1STR    H1C 9750  17.388   4.380   5.635
    1STR    H1D 9751  17.316   4.322   5.858
    1STR    H1E 9752  17.045   4.198   6.153
    1STR    H1F 9753  17.321   4.086   6.227
    1STR    H1G 9754  17.167   4.037   6.298
    1STR    H1H 9755  17.200   4.004   6.129
    1STR    H1I 9756  17.121   4.409   6.254
    1STR    H1J 9757  17.272   4.335   6.304
    1STR    H1K 9758  17.205   4.397   6.526
    1STR    H1M 9759  16.900   4.415   6.491
    1STR    H1N 9760  17.017   4.525   6.419
    1STR    H1O 9761  16.995   4.521   6.593
    1STR    H1P 9762  16.984   4.221   6.643
    1STR    H1Q 9763  17.155   4.184   6.646
    1STR    H1R 9764  16.987   4.225   6.884
    1STR    H1S 9765  17.186   4.150   7.021
    1STR    H1T 9766  17.291   4.254   6.926
    1STR    H1U 9767  17.212   4.114   6.852
    1STR    H1V 9768  16.979   4.462   6.961
    1STR    H1W 9769  17.148   4.460   6.998
    1STR    H1X 9770  16.955   4.276   7.312
    1STR    H1Y 9771  16.902   4.199   7.523
    1STR    H1Z 9772  16.970   4.141   7.751
    1STR    H20 9773  17.312   4.110   7.863
    1STR    H21 9774  17.212   4.235   7.939
    1STR    H22 9775  17.144   4.078   7.900
    1STR    H23 9776   0.032   4.263   7.613
    1STR    H27 9777  17.301   4.343   7.441
    1STR    H28 9778  17.069   4.092   5.692
    1STR    H29 9779  17.046   4.072   5.453
    1STR    H2A 9780  17.186   4.297   5.204
    1STR    H2B 9781  17.069   4.171   5.237
    1STR    H2C 9782  17.238   4.128   5.209
    1STR   BCK1 9783   0.112   4.424   9.628
    1STR    O03 9784   0.197   4.512   9.615
    1STR    N04 9785   0.114   4.333   9.725
    1STR    C05 9786   0.214   4.317   9.820
    1STR    C06 9787   0.184   4.321   9.959
    1STR    C07 9788   0.284   4.300  10.057
    1STR    N08 9789   0.249   4.299  10.193
    1STR    C09 9790   0.327   4.293  10.302
    1STR    O0A 9791   0.450   4.295  10.301
    1STR    O0B 9792   0.254   4.286  10.416
    1STR    C0C 9793   0.322   4.281  10.542
    1STR    C0D 9794   0.360   4.424  10.584
    1STR    C0E 9795   0.236   4.212  10.649
    1STR    O0F 9796   0.313   4.202  10.768
    1STR    C0G 9797   0.249   4.139  10.879
    1STR    C0H 9798   0.256   3.986  10.862
    1STR    C0I 9799   0.323   4.184  11.006
    1STR    O0J 9800   0.255   4.131  11.120
    1STR    C0K 9801   0.315   4.156  11.246
    1STR    C0M 9802   0.289   4.302  11.289
    1STR    C0N 9803   0.254   4.055  11.346
    1STR    O0O 9804   0.324   4.056  11.470
    1STR    C0P 9805   0.274   4.121  11.576
    1STR    O0Q 9806   0.167   4.181  11.580
    1STR    N0R 9807   0.362   4.114  11.675
    1STR    C0S 9808   0.361   4.175  11.800
    1STR    C0T 9809   0.486   4.202  11.860
    1STR    C0U 9810   0.493   4.272  11.981
    1STR    C0V 9811   0.376   4.314  12.047
    1STR    C0W 9812   0.392   4.401  12.171
    1STR    C0X 9813   0.249   4.278  11.995
    1STR    N0Y 9814   0.133   4.315  12.061
    1STR   BCK2 9815   0.082   4.266  12.174
    1STR    O10 9816   0.003   4.334  12.239
    1STR    C13 9817   0.243   4.211  11.870
    1STR    C14 9818   0.416   4.276  10.012
    1STR    C15 9819   0.447   4.270   9.876
    1STR    C16 9820   0.347   4.287   9.779
    1STR    C17 9821   0.384   4.268   9.633
    1STR    H1B 9822   0.040   4.265   9.722
    1STR    H1C 9823   0.082   4.341   9.989
    1STR    H1D 9824   0.151   4.305  10.217
    1STR    H1E 9825   0.413   4.222  10.531
    1STR    H1F 9826   0.272   4.487  10.598
    1STR    H1G 9827   0.416   4.423  10.678
    1STR    H1H 9828   0.424   4.471  10.510
    1STR    H1I 9829   0.207   4.112  10.613
    1STR    H1J 9830   0.144   4.268  10.666
    1STR    H1K 9831   0.145   4.171  10.886
    1STR    H1M 9832   0.359   3.953  10.849
    1STR    H1N 9833   0.200   3.952  10.775
    1STR    H1O 9834   0.215   3.936  10.949
    1STR    H1P 9835   0.426   4.150  11.004
    1STR    H1Q 9836   0.325   4.292  11.010
    1STR    H1R 9837   0.423   4.137  11.241
    1STR    H1S 9838   0.332   4.322  11.388
    1STR    H1T 9839   0.183   4.322  11.296
    1STR    H1U 9840   0.334   4.374  11.221
    1STR    H1V 9841   0.263   3.955  11.305
    1STR    H1W 9842   0.147   4.073  11.359
    1STR    H1X 9843   0.444   4.062  11.648
    1STR    H1Y 9844   0.578   4.174  11.811
    1STR    H1Z 9845   0.590   4.297  12.022
    1STR    H20 9846   0.298   4.450  12.199
    1STR    H21 9847   0.428   4.342  12.254
    1STR    H22 9848   0.464   4.480  12.151
    1STR    H23 9849   0.079   4.391  12.022
    1STR    H27 9850   0.146   4.189  11.828
    1STR    H28 9851   0.498   4.260  10.080
    1STR    H29 9852   0.548   4.249   9.845
    1STR    H2A 9853   0.303   4.220   9.577
    1STR    H2B 9854   0.473   4.206   9.622
    1STR    H2C 9855   0.404   4.365   9.586
    1STR   BCK1 9856   0.056   4.456  13.964
    1STR    O03 9857  17.407   4.384  13.919
    1STR    N04 9858   0.052   4.519  14.083
    1STR    C05 9859  17.386   4.545  14.171
    1STR    C06 9860  17.404   4.528  14.311
    1STR    C07 9861  17.308   4.573  14.406
    1STR    N08 9862  17.331   4.561  14.545
    1STR    C09 9863  17.275   4.628  14.648
    1STR    O0A 9864  17.192   4.717  14.636
    1STR    O0B 9865  17.323   4.585  14.768
    1STR    C0C 9866  17.269   4.639  14.891
    1STR    C0D 9867  17.139   4.563  14.926
    1STR    C0E 9868  17.371   4.632  15.006
    1STR    O0F 9869  17.315   4.689  15.126
    1STR    C0G 9870  17.401   4.693  15.240
    1STR    C0H 9871   0.060   4.810  15.227
    1STR    C0I 9872  17.315   4.709  15.368
    1STR    O0J 9873  17.399   4.701  15.485
    1STR    C0K 9874  17.334   4.717  15.611
    1STR    C0M 9875  17.257   4.588  15.648
    1STR    C0N 9876   0.003   4.747  15.717
    1STR    O0O 9877  17.386   4.778  15.844
    1STR    C0P 9878  17.401   4.695  15.950
    1STR    O0Q 9879   0.017   4.586  15.946
    1STR    N0R 9880  17.346   4.750  16.058
    1STR    C0S 9881  17.331   4.704  16.189
    1STR    C0T 9882  17.248   4.780  16.275
    1STR    C0U 9883  17.224   4.738  16.407
    1STR    C0V 9884  17.283   4.620  16.458
    1STR    C0W 9885  17.245   4.574  16.597
    1STR    C0X 9886  17.371   4.546  16.376
    1STR    N0Y 9887  17.428   4.427  16.420
    1STR   BCK2 9888   0.061   4.404  16.530
    1STR    O10 9889   0.105   4.492  16.604
    1STR    C13 9890  17.393   4.588  16.242
    1STR    C14 9891  17.190   4.633  14.355
    1STR    C15 9892  17.170   4.649  14.218
    1STR    C16 9893  17.268   4.608  14.125
    1STR    C17 9894  17.245   4.641  13.978
    1STR    H1B 9895   0.140   4.561  14.107
    1STR    H1C 9896   0.055   4.482  14.347
    1STR    H1D 9897  17.400   4.494  14.575
    1STR    H1E 9898  17.244   4.744  14.875
    1STR    H1F 9899  17.159   4.457  14.943
    1STR    H1G 9900  17.094   4.604  15.017
    1STR    H1H 9901  17.065   4.572  14.847
    1STR    H1I 9902   0.021   4.687  14.977
    1STR    H1J 9903  17.400   4.529  15.025
    1STR    H1K 9904   0.015   4.599  15.249
    1STR    H1M 9905   0.008   4.904  15.214
    1STR    H1N 9906   0.128   4.797  15.142
    1STR    H1O 9907   0.122   4.818  15.316
    1STR    H1P 9908  17.262   4.804  15.366
    1STR    H1Q 9909  17.240   4.630  15.371
    1STR    H1R 9910  17.265   4.801  15.608
    1STR    H1S 9911  17.212   4.597  15.747
    1STR    H1T 9912  17.324   4.502  15.650
    1STR    H1U 9913  17.177   4.567  15.578
    1STR    H1V 9914   0.061   4.834  15.685
    1STR    H1W 9915   0.074   4.665  15.723
    1STR    H1X 9916  17.306   4.840  16.036
    1STR    H1Y 9917  17.200   4.869  16.240
    1STR    H1Z 9918  17.158   4.796  16.470
    1STR    H20 9919  17.239   4.465  16.602
    1STR    H21 9920  17.319   4.608  16.670
    1STR    H22 9921  17.147   4.612  16.627
    1STR    H23 9922  17.417   4.346  16.361
    1STR    H27 9923   0.019   4.529  16.180
    1STR    H28 9924  17.112   4.668  14.421
    1STR    H29 9925  17.080   4.698  14.183
    1STR    H2A 9926  17.337   4.676  13.931
    1STR    H2B 9927  17.171   4.719  13.966
    1STR    H2C 9928  17.211   4.552  13.925
    1STR   BCK1 9929   0.091   8.679   0.911
    1STR    O03 9930   0.187   8.605   0.888
    1STR    N04 9931   0.003   8.661   1.010
    1STR    C05 9932  17.434   8.552   1.097
    1STR    C06 9933  17.430   8.573   1.237
    1STR    C07 9934  17.414   8.465   1.329
    1STR    N08 9935  17.406   8.491   1.467
    1STR    C09 9936  17.403   8.406   1.571
    1STR    O0A 9937  17.412   8.284   1.562
    1STR    O0B 9938  17.388   8.472   1.689
    1STR    C0C 9939  17.387   8.397   1.812
    1STR    C0D 9940   0.092   8.366   1.854
    1STR    C0E 9941  17.312   8.473   1.923
    1STR    O0F 9942  17.311   8.393   2.042
    1STR    C0G 9943  17.244   8.450   2.154
    1STR    C0H 9944  17.092   8.431   2.140
    1STR    C0I 9945  17.297   8.382   2.282
    1STR    O0J 9946  17.243   8.447   2.397
    1STR    C0K 9947  17.278   8.392   2.523
    1STR    C0M 9948  17.423   8.429   2.560
    1STR    C0N 9949  17.178   8.448   2.627
    1STR    O0O 9950  17.191   8.383   2.752
    1STR    C0P 9951  17.250   8.443   2.857
    1STR    O0Q 9952  17.302   8.554   2.856
    1STR    N0R 9953  17.240   8.362   2.962
    1STR    C0S 9954  17.283   8.372   3.095
    1STR    C0T 9955  17.246   8.266   3.180
    1STR    C0U 9956  17.291   8.262   3.312
    1STR    C0V 9957  17.374   8.363   3.363
    1STR    C0W 9958  17.432   8.343   3.502
    1STR    C0X 9959  17.408   8.474   3.282
    1STR    N0Y 9960   0.056   8.573   3.328
    1STR   BCK2 9961   0.046   8.648   3.438
    1STR    O10 9962  17.392   8.647   3.516
    1STR    C13 9963  17.363   8.477   3.147
    1STR    C14 9964  17.403   8.335   1.275
    1STR    C15 9965  17.404   8.314   1.136
    1STR    C16 9966  17.418   8.421   1.047
    1STR    C17 9967  17.408   8.391   0.898
    1STR    H1B 9968  17.374   8.734   1.018
    1STR    H1C 9969   0.001   8.674   1.275
    1STR    H1D 9970  17.404   8.587   1.497
    1STR    H1E 9971  17.334   8.303   1.796
    1STR    H1F 9972   0.149   8.457   1.872
    1STR    H1G 9973   0.094   8.306   1.945
    1STR    H1H 9974   0.144   8.309   1.777
    1STR    H1I 9975  17.210   8.493   1.889
    1STR    H1J 9976  17.359   8.569   1.942
    1STR    H1K 9977  17.268   8.557   2.162
    1STR    H1M 9978  17.067   8.325   2.128
    1STR    H1N 9979  17.052   8.484   2.055
    1STR    H1O 9980  17.040   8.467   2.229
    1STR    H1P 9981  17.271   8.276   2.281
    1STR    H1Q 9982  17.406   8.388   2.283
    1STR    H1R 9983  17.267   8.283   2.521
    1STR    H1S 9984   0.009   8.390   2.659
    1STR    H1T 9985  17.435   8.537   2.564
    1STR    H1U 9986   0.055   8.389   2.490
    1STR    H1V 9987  17.077   8.430   2.592
    1STR    H1W 9988  17.188   8.556   2.636
    1STR    H1X 9989  17.191   8.279   2.937
    1STR    H1Y 9990  17.185   8.185   3.144
    1STR    H1Z 9991  17.264   8.178   3.374
    1STR    H20 9992   0.100   8.355   3.498
    1STR    H21 9993  17.391   8.413   3.574
    1STR    H22 9994  17.412   8.243   3.541
    1STR    H23 9995   0.135   8.595   3.270
    1STR    H27 9996  17.391   8.560   3.084
    1STR    H28 9997  17.390   8.248   1.337
    1STR    H29 9998  17.393   8.213   1.099
    1STR    H2A 9999  17.356   8.471   0.845
    1STR    H2B10000  17.353   8.299   0.879
    1STR    H2C10001   0.068   8.381   0.855
    1STR   BCK110002   0.082   8.769   5.252
    1STR    O0310003   0.037   8.879   5.220
    1STR    N0410004   0.150   8.745   5.364
    1STR    C0510005   0.193   8.839   5.458
    1STR    C0610006   0.169   8.815   5.596
    1STR    C0710007   0.220   8.903   5.696
    1STR    N0810008   0.200   8.873   5.832
    1STR    C0910009   0.262   8.924   5.940
    1STR    O0A10010   0.350   9.010   5.937
    1STR    O0B10011   0.215   8.869   6.055
    1STR    C0C10012   0.261   8.922   6.181
    1STR    C0D10013   0.172   9.041   6.220
    1STR    C0E10014   0.262   8.813   6.290
    1STR    O0F10015   0.316   8.871   6.408
    1STR    C0G10016   0.328   8.784   6.521
    1STR    C0H10017   0.453   8.697   6.505
    1STR    C0I10018   0.338   8.873   6.646
    1STR    O0J10019   0.341   8.790   6.762
    1STR    C0K10020   0.355   8.859   6.886
    1STR    C0M10021   0.220   8.919   6.928
    1STR    C0N10022   0.406   8.755   6.988
    1STR    O0O10023   0.441   8.817   7.112
    1STR    C0P10024   0.359   8.808   7.218
    1STR    O0Q10025   0.250   8.753   7.218
    1STR    N0R10026   0.414   8.871   7.321
    1STR    C0S10027   0.366   8.891   7.451
    1STR    C0T10028   0.430   8.989   7.531
    1STR    C0U10029   0.384   9.016   7.661
    1STR    C0V10030   0.275   8.945   7.715
    1STR    C0W10031   0.223   8.983   7.853
    1STR    C0X10032   0.214   8.842   7.639
    1STR    N0Y10033   0.107   8.769   7.690
    1STR   BCK210034   0.105   8.683   7.792
    1STR    O1010035   0.001   8.626   7.822
    1STR    C1310036   0.259   8.817   7.508
    1STR    C1410037   0.290   9.018   5.654
    1STR    C1510038   0.316   9.041   5.518
    1STR    C1610039   0.272   8.950   5.420
    1STR    C1710040   0.316   8.974   5.276
    1STR    H1B10041   0.180   8.650   5.375
    1STR    H1C10042   0.113   8.728   5.625
    1STR    H1D10043   0.133   8.802   5.856
    1STR    H1E10044   0.364   8.956   6.171
    1STR    H1F10045   0.068   9.011   6.233
    1STR    H1G10046   0.206   9.086   6.313
    1STR    H1H10047   0.175   9.119   6.143
    1STR    H1I10048   0.322   8.729   6.256
    1STR    H1J10049   0.161   8.776   6.308
    1STR    H1K10050   0.239   8.722   6.530
    1STR    H1M10051   0.543   8.757   6.492
    1STR    H1N10052   0.446   8.629   6.420
    1STR    H1O10053   0.468   8.635   6.594
    1STR    H1P10054   0.427   8.936   6.641
    1STR    H1Q10055   0.252   8.940   6.649
    1STR    H1R10056   0.430   8.938   6.878
    1STR    H1S10057   0.227   8.968   7.025
    1STR    H1T10058   0.143   8.842   6.937
    1STR    H1U10059   0.184   8.994   6.858
    1STR    H1V10060   0.495   8.707   6.949
    1STR    H1W10061   0.333   8.675   7.002
    1STR    H1X10062   0.503   8.912   7.297
    1STR    H1Y10063   0.512   9.046   7.492
    1STR    H1Z10064   0.432   9.094   7.719
    1STR    H2010065   0.116   8.967   7.861
    1STR    H2110066   0.272   8.923   7.930
    1STR    H2210067   0.242   9.089   7.875
    1STR    H2310068   0.020   8.773   7.639
    1STR    H2710069   0.211   8.739   7.452
    1STR    H2810070   0.327   9.092   5.723
    1STR    H2910071   0.374   9.127   5.489
    1STR    H2A10072   0.332   8.880   5.224
    1STR    H2B10073   0.410   9.029   5.273
    1STR    H2C10074   0.241   9.031   5.223
    1STR   BCK110075  -0.000   8.757   9.618
    1STR    O0310076  17.414   8.644   9.577
    1STR    N0410077  17.389   8.812   9.729
    1STR    C0510078  17.287   8.767   9.814
    1STR    C0610079  17.306   8.771   9.955
    1STR    C0710080  17.201   8.740  10.046
    1STR    N0810081  17.222   8.750  10.185
    1STR    C0910082  17.134   8.749  10.287
    1STR    O0A10083  17.012   8.738  10.274
    1STR    O0B10084  17.195   8.762  10.408
    1STR    C0C10085  17.118   8.753  10.530
    1STR    C0D10086  17.097   8.605  10.566
    1STR    C0E10087  17.184   8.830  10.646
    1STR    O0F10088  17.105   8.821  10.765
    1STR    C0G10089  17.153   8.891  10.880
    1STR    C0H10090  17.120   9.040  10.866
    1STR    C0I10091  17.089   8.832  11.008
    1STR    O0J10092  17.146   8.893  11.124
    1STR    C0K10093  17.095   8.851  11.251
    1STR    C0M10094  17.149   8.711  11.285
    1STR    C0N10095  17.139   8.954  11.357
    1STR    O0O10096  17.081   8.927  11.485
    1STR    C0P10097  17.156   8.884  11.588
    1STR    O0Q10098  17.276   8.857  11.582
    1STR    N0R10099  17.080   8.876  11.698
    1STR    C0S10100  17.107   8.833  11.828
    1STR    C0T10101  16.999   8.830  11.919
    1STR    C0U10102  17.015   8.782  12.050
    1STR    C0V10103  17.140   8.734  12.094
    1STR    C0W10104  17.147   8.672  12.233
    1STR    C0X10105  17.252   8.741  12.007
    1STR    N0Y10106  17.378   8.691  12.043
    1STR   BCK210107   0.009   8.711  12.155
    1STR    O1010108  17.419   8.789  12.245
    1STR    C1310109  17.234   8.789  11.875
    1STR    C1410110  17.077   8.700   9.991
    1STR    C1510111  17.057   8.696   9.852
    1STR    C1610112  17.160   8.732   9.763
    1STR    C1710113  17.127   8.736   9.615
    1STR    H1B10114  17.431   8.900   9.752
    1STR    H1C10115  17.402   8.801   9.994
    1STR    H1D10116  17.316   8.762  10.218
    1STR    H1E10117  17.020   8.798  10.513
    1STR    H1F10118  17.192   8.555  10.584
    1STR    H1G10119  17.036   8.594  10.655
    1STR    H1H10120  17.046   8.551  10.486
    1STR    H1I10121  17.196   8.934  10.616
    1STR    H1J10122  17.284   8.790  10.665
    1STR    H1K10123  17.261   8.877  10.888
    1STR    H1M10124  17.013   9.056  10.852
    1STR    H1N10125  17.172   9.087  10.781
    1STR    H1O10126  17.151   9.095  10.955
    1STR    H1P10127  16.981   8.848  11.005
    1STR    H1Q10128  17.106   8.725  11.009
    1STR    H1R10129  16.986   8.849  11.248
    1STR    H1S10130  17.115   8.679  11.384
    1STR    H1T10131  17.258   8.710  11.287
    1STR    H1U10132  17.115   8.635  11.215
    1STR    H1V10133  17.106   9.053  11.327
    1STR    H1W10134  17.248   8.960  11.362
    1STR    H1X10135  16.986   8.905  11.678
    1STR    H1Y10136  16.901   8.863  11.889
    1STR    H1Z10137  16.930   8.778  12.116
    1STR    H2010138  17.219   8.590  12.236
    1STR    H2110139  17.176   8.747  12.306
    1STR    H2210140  17.051   8.630  12.263
    1STR    H2310141  17.425   8.635  11.975
    1STR    H2710142  17.319   8.791  11.809
    1STR    H2810143  16.993   8.672  10.053
    1STR    H2910144  16.959   8.668   9.814
    1STR    H2A10145  17.177   8.820   9.566
    1STR    H2B10146  17.020   8.749   9.598
    1STR    H2C10147  17.158   8.644   9.566
    1STR   BCK110148   0.133   8.748  13.991
    1STR    O0310149   0.252   8.773  13.977
    1STR    N0410150   0.083   8.669  14.086
    1STR    C0510151   0.156   8.594  14.178
    1STR    C0610152   0.134   8.609  14.317
    1STR    C0710153   0.203   8.529  14.412
    1STR    N0810154   0.175   8.544  14.549
    1STR    C0910155   0.240   8.495  14.655
    1STR    O0A10156   0.344   8.431  14.650
    1STR    O0B10157   0.176   8.525  14.770
    1STR    C0C10158   0.231   8.481  14.895
    1STR    C0D10159   0.340   8.580  14.939
    1STR    C0E10160   0.121   8.468  15.001
    1STR    O0F10161   0.180   8.419  15.121
    1STR    C0G10162   0.091   8.402  15.231
    1STR    C0H10163   0.016   8.268  15.216
    1STR    C0I10164   0.174   8.405  15.360
    1STR    O0J10165   0.085   8.407  15.471
    1STR    C0K10166   0.146   8.397  15.599
    1STR    C0M10167   0.214   8.530  15.638
    1STR    C0N10168   0.035   8.360  15.699
    1STR    O0O10169   0.093   8.317  15.821
    1STR    C0P10170   0.094   8.396  15.929
    1STR    O0Q10171   0.038   8.504  15.942
    1STR    N0R10172   0.169   8.335  16.020
    1STR    C0S10173   0.207   8.368  16.150
    1STR    C0T10174   0.305   8.285  16.206
    1STR    C0U10175   0.346   8.303  16.339
    1STR    C0V10176   0.288   8.402  16.419
    1STR    C0W10177   0.328   8.400  16.564
    1STR    C0X10178   0.189   8.490  16.366
    1STR    N0Y10179   0.111   8.580  16.441
    1STR   BCK210180   0.121   8.656  16.552
    1STR    O1010181   0.022   8.716  16.589
    1STR    C1310182   0.151   8.471  16.230
    1STR    C1410183   0.294   8.433  14.363
    1STR    C1510184   0.315   8.415  14.225
    1STR    C1610185   0.245   8.493  14.132
    1STR    C1710186   0.264   8.463  13.984
    1STR    H1B10187  17.423   8.657  14.083
    1STR    H1C10188   0.064   8.684  14.350
    1STR    H1D10189   0.096   8.601  14.575
    1STR    H1E10190   0.275   8.382  14.882
    1STR    H1F10191   0.300   8.680  14.954
    1STR    H1G10192   0.387   8.547  15.032
    1STR    H1H10193   0.420   8.587  14.864
    1STR    H1I10194   0.044   8.399  14.965
    1STR    H1J10195   0.073   8.564  15.018
    1STR    H1K10196   0.020   8.485  15.235
    1STR    H1M10197   0.086   8.185  15.207
    1STR    H1N10198  17.391   8.267  15.129
    1STR    H1O10199  17.394   8.249  15.304
    1STR    H1P10200   0.241   8.319  15.364
    1STR    H1Q10201   0.237   8.494  15.360
    1STR    H1R10202   0.220   8.316  15.599
    1STR    H1S10203   0.258   8.523  15.738
    1STR    H1T10204   0.142   8.611  15.640
    1STR    H1U10205   0.294   8.557  15.570
    1STR    H1V10206  17.418   8.275  15.660
    1STR    H1W10207  17.403   8.441  15.712
    1STR    H1X10208   0.203   8.248  15.983
    1STR    H1Y10209   0.349   8.204  16.149
    1STR    H1Z10210   0.420   8.236  16.380
    1STR    H2010211   0.395   8.483  16.585
    1STR    H2110212   0.238   8.403  16.625
    1STR    H2210213   0.383   8.310  16.590
    1STR    H2310214   0.019   8.595  16.404
    1STR    H2710215   0.075   8.534  16.187
    1STR    H2810216   0.349   8.368  14.429
    1STR    H2910217   0.384   8.340  14.192
    1STR    H2A10218   0.170   8.472  13.929
    1STR    H2B10219   0.301   8.362  13.969
    1STR    H2C10220   0.336   8.533  13.941
    1STR   BCK110221   0.060  13.147   0.879
    1STR    O0310222  17.402  13.187   0.817
    1STR    N0410223   0.097  13.187   1.001
    1STR    C0510224   0.042  13.280   1.090
    1STR    C0610225   0.045  13.252   1.229
    1STR    C0710226   0.000  13.346   1.327
    1STR    N0810227   0.012  13.318   1.464
    1STR    C0910228   0.005  13.401   1.570
    1STR    O0A10229  17.427  13.522   1.562
    1STR    O0B10230   0.021  13.336   1.688
    1STR    C0C10231   0.004  13.407   1.812
    1STR    C0D10232  17.295  13.411   1.848
    1STR    C0E10233   0.088  13.345   1.925
    1STR    O0F10234   0.072  13.424   2.044
    1STR    C0G10235   0.146  13.382   2.158
    1STR    C0H10236   0.293  13.427   2.144
    1STR    C0I10237   0.082  13.443   2.285
    1STR    O0J10238   0.150  13.395   2.401
    1STR    C0K10239   0.104  13.446   2.526
    1STR    C0M10240  17.414  13.375   2.567
    1STR    C0N10241   0.216  13.422   2.629
    1STR    O0O10242   0.188  13.482   2.755
    1STR    C0P10243   0.153  13.406   2.860
    1STR    O0Q10244   0.133  13.285   2.855
    1STR    N0R10245   0.142  13.482   2.970
    1STR    C0S10246   0.106  13.449   3.101
    1STR    C0T10247   0.084  13.553   3.193
    1STR    C0U10248   0.043  13.526   3.325
    1STR    C0V10249   0.021  13.394   3.368
    1STR    C0W10250  17.405  13.372   3.508
    1STR    C0X10251   0.047  13.287   3.279
    1STR    N0Y10252   0.019  13.153   3.308
    1STR   BCK210253   0.057  13.069   3.404
    1STR    O1010254   0.022  12.952   3.396
    1STR    C1310255   0.089  13.315   3.147
    1STR    C1410256  17.384  13.467   1.280
    1STR    C1510257  17.382  13.497   1.143
    1STR    C1610258  17.434  13.407   1.048
    1STR    C1710259   0.002  13.457   0.904
    1STR    H1B10260   0.180  13.139   1.033
    1STR    H1C10261   0.086  13.158   1.262
    1STR    H1D10262   0.031  13.223   1.492
    1STR    H1E10263   0.040  13.510   1.799
    1STR    H1F10264  17.254  13.311   1.863
    1STR    H1G10265  17.278  13.469   1.939
    1STR    H1H10266  17.237  13.459   1.769
    1STR    H1I10267   0.192  13.342   1.895
    1STR    H1J10268   0.057  13.242   1.944
    1STR    H1K10269   0.142  13.273   2.168
    1STR    H1M10270   0.299  13.535   2.131
    1STR    H1N10271   0.343  13.380   2.060
    1STR    H1O10272   0.350  13.402   2.234
    1STR    H1P10273   0.086  13.552   2.280
    1STR    H1Q10274  17.417  13.415   2.288
    1STR    H1R10275   0.087  13.554   2.519
    1STR    H1S10276  17.380  13.408   2.665
    1STR    H1T10277  17.428  13.267   2.573
    1STR    H1U10278  17.332  13.394   2.498
    1STR    H1V10279   0.309  13.466   2.592
    1STR    H1W10280   0.237  13.315   2.638
    1STR    H1X10281   0.161  13.578   2.949
    1STR    H1Y10282   0.096  13.656   3.163
    1STR    H1Z10283   0.024  13.608   3.392
    1STR    H2010284  17.342  13.282   3.511
    1STR    H2110285   0.045  13.360   3.580
    1STR    H2210286  17.343  13.456   3.539
    1STR    H2310287  17.406  13.104   3.238
    1STR    H2710288   0.107  13.233   3.081
    1STR    H2810289  17.344  13.541   1.347
    1STR    H2910290  17.343  13.593   1.111
    1STR    H2A10291   0.088  13.415   0.853
    1STR    H2B10292   0.011  13.565   0.901
    1STR    H2C10293  17.351  13.429   0.850
    1STR   BCK110294   0.035  13.043   5.266
    1STR    O0310295   0.085  12.936   5.232
    1STR    N0410296  17.394  13.060   5.372
    1STR    C0510297  17.339  12.963   5.456
    1STR    C0610298  17.346  12.981   5.597
    1STR    C0710299  17.284  12.890   5.688
    1STR    N0810300  17.289  12.914   5.827
    1STR    C0910301  17.238  12.845   5.930
    1STR    O0A10302  17.177  12.739   5.919
    1STR    O0B10303  17.262  12.905   6.049
    1STR    C0C10304  17.221  12.841   6.171
    1STR    C0D10305  17.326  12.735   6.210
    1STR    C0E10306  17.199  12.943   6.284
    1STR    O0F10307  17.156  12.875   6.403
    1STR    C0G10308  17.130  12.957   6.517
    1STR    C0H10309  16.992  13.022   6.503
    1STR    C0I10310  17.138  12.870   6.644
    1STR    O0J10311  17.125  12.953   6.760
    1STR    C0K10312  17.126  12.886   6.886
    1STR    C0M10313  17.269  12.842   6.922
    1STR    C0N10314  17.071  12.985   6.990
    1STR    O0O10315  17.053  12.924   7.118
    1STR    C0P10316  17.136  12.949   7.220
    1STR    O0Q10317  17.237  13.018   7.214
    1STR    N0R10318  17.091  12.886   7.328
    1STR    C0S10319  17.140  12.877   7.459
    1STR    C0T10320  17.063  12.801   7.549
    1STR    C0U10321  17.107  12.780   7.681
    1STR    C0V10322  17.229  12.833   7.726
    1STR    C0W10323  17.279  12.792   7.863
    1STR    C0X10324  17.305  12.916   7.639
    1STR    N0Y10325  17.428  12.970   7.679
    1STR   BCK210326   0.014  13.046   7.785
    1STR    O1010327  17.371  13.084   7.867
    1STR    C1310328  17.261  12.935   7.506
    1STR    C1410329  17.217  12.779   5.632
    1STR    C1510330  17.208  12.761   5.493
    1STR    C1610331  17.266  12.853   5.404
    1STR    C1710332  17.242  12.833   5.256
    1STR    H1B10333  17.371  13.156   5.390
    1STR    H1C10334  17.400  13.066   5.636
    1STR    H1D10335  17.338  12.996   5.858
    1STR    H1E10336  17.126  12.790   6.154
    1STR    H1F10337  17.423  12.781   6.229
    1STR    H1G10338  17.296  12.682   6.300
    1STR    H1H10339  17.339  12.661   6.132
    1STR    H1I10340  17.124  13.015   6.253
    1STR    H1J10341  17.291  12.998   6.304
    1STR    H1K10342  17.207  13.034   6.525
    1STR    H1M10343  16.914  12.946   6.490
    1STR    H1N10344  16.986  13.090   6.418
    1STR    H1O10345  16.967  13.079   6.592
    1STR    H1P10346  17.059  12.794   6.642
    1STR    H1Q10347  17.233  12.817   6.645
    1STR    H1R10348  17.060  12.799   6.883
    1STR    H1S10349  17.272  12.795   7.020
    1STR    H1T10350  17.336  12.928   6.926
    1STR    H1U10351  17.310  12.770   6.851
    1STR    H1V10352  16.973  13.020   6.958
    1STR    H1W10353  17.133  13.074   6.997
    1STR    H1X10354  17.006  12.838   7.308
    1STR    H1Y10355  16.969  12.757   7.519
    1STR    H1Z10356  17.048  12.719   7.748
    1STR    H2010357  17.382  12.759   7.857
    1STR    H2110358  17.271  12.874   7.935
    1STR    H2210359  17.221  12.710   7.904
    1STR    H2310360   0.066  12.955   7.618
    1STR    H2710361  17.320  12.996   7.439
    1STR    H2810362  17.168  12.705   5.693
    1STR    H2910363  17.153  12.676   5.455
    1STR    H2A10364  17.232  12.929   5.204
    1STR    H2B10365  17.151  12.777   5.238
    1STR    H2C10366  17.325  12.778   5.211
    1STR   BCK110367   0.093  13.148   9.625
    1STR    O0310368   0.133  13.263   9.611
    1STR    N0410369   0.130  13.068   9.725
    1STR    C0510370   0.226  13.098   9.822
    1STR    C0610371   0.194  13.092   9.960
    1STR    C0710372   0.291  13.119  10.059
    1STR    N0810373   0.257  13.106  10.195
    1STR    C0910374   0.333  13.122  10.305
    1STR    O0A10375   0.450  13.157  10.305
    1STR    O0B10376   0.264  13.094  10.418
    1STR    C0C10377   0.328  13.114  10.545
    1STR    C0D10378   0.316  13.261  10.585
    1STR    C0E10379   0.270  13.020  10.652
    1STR    O0F10380   0.347  13.039  10.772
    1STR    C0G10381   0.310  12.958  10.883
    1STR    C0H10382   0.369  12.817  10.866
    1STR    C0I10383   0.365  13.026  11.010
    1STR    O0J10384   0.321  12.954  11.124
    1STR    C0K10385   0.368  13.002  11.250
    1STR    C0M10386   0.291  13.128  11.291
    1STR    C0N10387   0.348  12.887  11.351
    1STR    O0O10388   0.411  12.916  11.475
    1STR    C0P10389   0.340  12.956  11.581
    1STR    O0Q10390   0.218  12.971  11.582
    1STR    N0R10391   0.422  12.980  11.683
    1STR    C0S10392   0.395  13.031  11.810
    1STR    C0T10393   0.503  13.089  11.880
    1STR    C0U10394   0.484  13.148  12.006
    1STR    C0V10395   0.357  13.148  12.066
    1STR    C0W10396   0.339  13.220  12.199
    1STR    C0X10397   0.249  13.083  12.001
    1STR    N0Y10398   0.125  13.078  12.063
    1STR   BCK210399   0.090  13.000  12.166
    1STR    O1010400  17.432  13.030  12.234
    1STR    C1310401   0.268  13.027  11.873
    1STR    C1410402   0.421  13.156  10.016
    1STR    C1510403   0.454  13.160   9.880
    1STR    C1610404   0.359  13.128   9.782
    1STR    C1710405   0.404  13.123   9.637
    1STR    H1B10406   0.092  12.975   9.723
    1STR    H1C10407   0.093  13.066   9.988
    1STR    H1D10408   0.163  13.080  10.218
    1STR    H1E10409   0.434  13.088  10.536
    1STR    H1F10410   0.212  13.291  10.598
    1STR    H1G10411   0.368  13.280  10.679
    1STR    H1H10412   0.361  13.326  10.510
    1STR    H1I10413   0.277  12.917  10.618
    1STR    H1J10414   0.165  13.042  10.670
    1STR    H1K10415   0.202  12.952  10.892
    1STR    H1M10416   0.478  12.821  10.853
    1STR    H1N10417   0.327  12.764  10.780
    1STR    H1O10418   0.349  12.756  10.954
    1STR    H1P10419   0.474  13.030  11.006
    1STR    H1Q10420   0.329  13.129  11.013
    1STR    H1R10421   0.475  13.023  11.244
    1STR    H1S10422   0.323  13.163  11.389
    1STR    H1T10423   0.184  13.109  11.297
    1STR    H1U10424   0.306  13.211  11.222
    1STR    H1V10425   0.394  12.796  11.312
    1STR    H1W10426   0.242  12.864  11.363
    1STR    H1X10427   0.517  12.963  11.657
    1STR    H1Y10428   0.602  13.092  11.836
    1STR    H1Z10429   0.567  13.195  12.056
    1STR    H2010430   0.236  13.255  12.211
    1STR    H2110431   0.362  13.153  12.281
    1STR    H2210432   0.404  13.306  12.205
    1STR    H2310433   0.053  13.141  12.032
    1STR    H2710434   0.185  12.979  11.823
    1STR    H2810435   0.500  13.181  10.085
    1STR    H2910436   0.555  13.186   9.851
    1STR    H2A10437   0.353  13.043   9.583
    1STR    H2B10438   0.511  13.103   9.630
    1STR    H2C10439   0.383  13.218   9.588
    1STR   BCK110440   0.024  13.161  13.967
    1STR    O0310441  17.398  13.067  13.925
    1STR    N0410442   0.003  13.226  14.083
    1STR    C0510443  17.334  13.224  14.170
    1STR    C0610444  17.354  13.216  14.311
    1STR    C0710445  17.248  13.232  14.405
    1STR    N0810446  17.273  13.228  14.544
    1STR    C0910447  17.197  13.273  14.646
    1STR    O0A10448  17.089  13.329  14.633
    1STR    O0B10449  17.256  13.250  14.767
    1STR    C0C10450  17.185  13.283  14.889
    1STR    C0D10451  17.089  13.168  14.924
    1STR    C0E10452  17.283  13.312  15.006
    1STR    O0F10453  17.210  13.346  15.125
    1STR    C0G10454  17.289  13.379  15.240
    1STR    C0H10455  17.342  13.523  15.226
    1STR    C0I10456  17.203  13.364  15.368
    1STR    O0J10457  17.284  13.386  15.484
    1STR    C0K10458  17.219  13.377  15.611
    1STR    C0M10459  17.190  13.230  15.646
    1STR    C0N10460  17.311  13.442  15.717
    1STR    O0O10461  17.248  13.450  15.845
    1STR    C0P10462  17.290  13.376  15.949
    1STR    O0Q10463  17.379  13.291  15.944
    1STR    N0R10464  17.221  13.409  16.058
    1STR    C0S10465  17.223  13.360  16.190
    1STR    C0T10466  17.123  13.408  16.277
    1STR    C0U10467  17.113  13.360  16.409
    1STR    C0V10468  17.203  13.262  16.457
    1STR    C0W10469  17.180  13.206  16.596
    1STR    C0X10470  17.307  13.216  16.373
    1STR    N0Y10471  17.393  13.114  16.414
    1STR   BCK210472   0.028  13.106  16.525
    1STR    O1010473   0.047  13.199  16.603
    1STR    C1310474  17.315  13.264  16.240
    1STR    C1410475  17.118  13.252  14.352
    1STR    C1510476  17.096  13.261  14.214
    1STR    C1610477  17.203  13.249  14.123
    1STR    C1710478  17.173  13.272  13.975
    1STR    H1B10479   0.077  13.290  14.106
    1STR    H1C10480   0.014  13.199  14.348
    1STR    H1D10481  17.360  13.189  14.575
    1STR    H1E10482  17.127  13.374  14.873
    1STR    H1F10483  17.143  13.075  14.942
    1STR    H1G10484  17.032  13.191  15.014
    1STR    H1H10485  17.017  13.151  14.844
    1STR    H1I10486  17.349  13.393  14.976
    1STR    H1J10487  17.346  13.224  15.024
    1STR    H1K10488  17.373  13.309  15.248
    1STR    H1M10489  17.260  13.594  15.213
    1STR    H1N10490  17.410  13.534  15.142
    1STR    H1O10491  17.397  13.552  15.315
    1STR    H1P10492  17.120  13.435  15.365
    1STR    H1Q10493  17.160  13.264  15.370
    1STR    H1R10494  17.125  13.434  15.608
    1STR    H1S10495  17.145  13.222  15.745
    1STR    H1T10496  17.282  13.172  15.649
    1STR    H1U10497  17.121  13.183  15.576
    1STR    H1V10498  17.335  13.543  15.686
    1STR    H1W10499  17.406  13.389  15.722
    1STR    H1X10500  17.155  13.482  16.037
    1STR    H1Y10501  17.051  13.481  16.244
    1STR    H1Z10502  17.034  13.396  16.472
    1STR    H2010503  17.205  13.100  16.601
    1STR    H2110504  17.241  13.259  16.669
    1STR    H2210505  17.075  13.215  16.626
    1STR    H2310506  17.404  13.036  16.352
    1STR    H2710507  17.394  13.227  16.176
    1STR    H2810508  17.032  13.263  14.417
    1STR    H2910509  16.996  13.280  14.178
    1STR    H2A10510  17.252  13.330  13.928
    1STR    H2B10511  17.080  13.327  13.962
    1STR    H2C10512  17.164  13.176  13.924
    1STR   BCK110513   4.482  17.420   0.912
    1STR    O0310514   4.597  17.380   0.897
    1STR    N0410515   4.399  17.376   1.007
    1STR    C0510516   4.422  17.271   1.097
    1STR    C0610517   4.410  17.292   1.237
    1STR    C0710518   4.426  17.185   1.329
    1STR    N0810519   4.410  17.209   1.467
    1STR    C0910520   4.436  17.129   1.572
    1STR    O0A10521   4.488  17.018   1.565
    1STR    O0B10522   4.399  17.187   1.689
    1STR    C0C10523   4.423  17.118   1.812
    1STR    C0D10524   4.569  17.139   1.855
    1STR    C0E10525   4.325  17.164   1.922
    1STR    O0F10526   4.350  17.089   2.041
    1STR    C0G10527   4.267  17.121   2.153
    1STR    C0H10528   4.132  17.050   2.138
    1STR    C0I10529   4.340  17.076   2.281
    1STR    O0J10530   4.267  17.120   2.395
    1STR    C0K10531   4.319  17.080   2.522
    1STR    C0M10532   4.443  17.163   2.558
    1STR    C0N10533   4.207  17.099   2.626
    1STR    O0O10534   4.245  17.040   2.749
    1STR    C0P10535   4.276  17.114   2.857
    1STR    O0Q10536   4.274  17.237   2.863
    1STR    N0R10537   4.309  17.031   2.955
    1STR    C0S10538   4.349  17.050   3.087
    1STR    C0T10539   4.375  16.933   3.160
    1STR    C0U10540   4.411  16.939   3.295
    1STR    C0V10541   4.420  17.062   3.362
    1STR    C0W10542   4.448  17.055   3.510
    1STR    C0X10543   4.395  17.183   3.292
    1STR    N0Y10544   4.385  17.308   3.356
    1STR   BCK210545   4.453  17.369   3.455
    1STR    O1010546   4.405   0.029   3.507
    1STR    C1310547   4.359  17.175   3.154
    1STR    C1410548   4.454  17.057   1.277
    1STR    C1510549   4.464  17.035   1.139
    1STR    C1610550   4.445  17.140   1.048
    1STR    C1710551   4.447  17.108   0.899
    1STR    H1B10552   4.308  17.420   1.008
    1STR    H1C10553   4.390  17.392   1.272
    1STR    H1D10554   4.375  17.299   1.496
    1STR    H1E10555   4.406  17.011   1.797
    1STR    H1F10556   4.591  17.245   1.873
    1STR    H1G10557   4.591  17.085   1.947
    1STR    H1H10558   4.638  17.103   1.779
    1STR    H1I10559   4.222  17.148   1.887
    1STR    H1J10560   4.336  17.271   1.940
    1STR    H1K10561   4.253  17.229   2.159
    1STR    H1M10562   4.145  16.942   2.128
    1STR    H1N10563   4.076  17.085   2.052
    1STR    H1O10564   4.070  17.067   2.227
    1STR    H1P10565   4.352  16.967   2.281
    1STR    H1Q10566   4.441  17.119   2.281
    1STR    H1R10567   4.345  16.974   2.519
    1STR    H1S10568   4.481  17.136   2.657
    1STR    H1T10569   4.419  17.269   2.561
    1STR    H1U10570   4.525  17.149   2.488
    1STR    H1V10571   4.117  17.049   2.592
    1STR    H1W10572   4.181  17.205   2.637
    1STR    H1X10573   4.302  16.936   2.923
    1STR    H1Y10574   4.367  16.836   3.114
    1STR    H1Z10575   4.429  16.847   3.349
    1STR    H2010576   4.556  17.063   3.525
    1STR    H2110577   4.396  17.135   3.563
    1STR    H2210578   4.416  16.961   3.554
    1STR    H2310579   4.308  17.366   3.326
    1STR    H2710580   4.338  17.266   3.100
    1STR    H2810581   4.467  16.971   1.341
    1STR    H2910582   4.484  16.935   1.103
    1STR    H2A10583   4.372  17.166   0.846
    1STR    H2B10584   4.426  17.003   0.881
    1STR    H2C10585   4.545  17.131   0.857
    1STR   BCK110586   4.442   0.051   5.246
    1STR    O0310587   4.366   0.136   5.199
    1STR    N0410588   4.504   0.061   5.364
    1STR    C0510589   4.504   0.166   5.456
    1STR    C0610590   4.491   0.138   5.594
    1STR    C0710591   4.502   0.239   5.693
    1STR    N0810592   4.496   0.206   5.830
    1STR    C0910593   4.536   0.277   5.937
    1STR    O0A10594   4.587   0.388   5.931
    1STR    O0B10595   4.513   0.211   6.053
    1STR    C0C10596   4.537   0.278   6.177
    1STR    C0D10597   4.413   0.360   6.216
    1STR    C0E10598   4.575   0.178   6.288
    1STR    O0F10599   4.606   0.251   6.407
    1STR    C0G10600   4.646   0.175   6.520
    1STR    C0H10601   4.794   0.135   6.505
    1STR    C0I10602   4.625   0.261   6.646
    1STR    O0J10603   4.657   0.185   6.762
    1STR    C0K10604   4.646   0.254   6.886
    1STR    C0M10605   4.498   0.262   6.928
    1STR    C0N10606   4.729   0.174   6.988
    1STR    O0O10607   4.739   0.242   7.113
    1STR    C0P10608   4.667   0.202   7.218
    1STR    O0Q10609   4.584   0.111   7.216
    1STR    N0R10610   4.698   0.276   7.325
    1STR    C0S10611   4.648   0.273   7.456
    1STR    C0T10612   4.679   0.382   7.541
    1STR    C0U10613   4.629   0.386   7.672
    1STR    C0V10614   4.547   0.283   7.722
    1STR    C0W10615   4.487   0.297   7.861
    1STR    C0X10616   4.520   0.170   7.640
    1STR    N0Y10617   4.437   0.067   7.682
    1STR   BCK210618   4.452  17.420   7.782
    1STR    O1010619   4.368  17.332   7.799
    1STR    C1310620   4.570   0.167   7.508
    1STR    C1410621   4.521   0.372   5.649
    1STR    C1510622   4.537   0.402   5.513
    1STR    C1610623   4.532   0.300   5.416
    1STR    C1710624   4.565   0.338   5.273
    1STR    H1B10625   4.561  17.422   5.385
    1STR    H1C10626   4.474   0.036   5.625
    1STR    H1D10627   4.460   0.115   5.855
    1STR    H1E10628   4.622   0.346   6.167
    1STR    H1F10629   4.326   0.296   6.229
    1STR    H1G10630   4.430   0.415   6.308
    1STR    H1H10631   4.389   0.433   6.138
    1STR    H1I10632   4.662   0.120   6.256
    1STR    H1J10633   4.494   0.108   6.306
    1STR    H1K10634   4.584   0.086   6.529
    1STR    H1M10635   4.857   0.222   6.492
    1STR    H1N10636   4.810   0.068   6.420
    1STR    H1O10637   4.829   0.082   6.594
    1STR    H1P10638   4.687   0.351   6.640
    1STR    H1Q10639   4.521   0.294   6.649
    1STR    H1R10640   4.688   0.354   6.878
    1STR    H1S10641   4.487   0.310   7.026
    1STR    H1T10642   4.453   0.163   6.936
    1STR    H1U10643   4.438   0.321   6.858
    1STR    H1V10644   4.830   0.161   6.950
    1STR    H1W10645   4.689   0.073   7.000
    1STR    H1X10646   4.766   0.346   7.302
    1STR    H1Y10647   4.739   0.464   7.506
    1STR    H1Z10648   4.651   0.472   7.734
    1STR    H2010649   4.390   0.248   7.867
    1STR    H2110650   4.553   0.253   7.936
    1STR    H2210651   4.472   0.402   7.887
    1STR    H2310652   4.357   0.046   7.625
    1STR    H2710653   4.547   0.082   7.447
    1STR    H2810654   4.527   0.455   5.718
    1STR    H2910655   4.556   0.504   5.483
    1STR    H2A10656   4.618   0.258   5.221
    1STR    H2B10657   4.630   0.426   5.270
    1STR    H2C10658   4.474   0.362   5.218
    1STR   BCK110659   4.362   0.004   9.619
    1STR    O0310660   4.365  17.328   9.580
    1STR    N0410661   4.297   0.047   9.728
    1STR    C0510662   4.209  17.419   9.813
    1STR    C0610663   4.224  17.430   9.954
    1STR    C0710664   4.130  17.373  10.045
    1STR    N0810665   4.147  17.390  10.184
    1STR    C0910666   4.064  17.359  10.286
    1STR    O0A10667   3.954  17.307  10.274
    1STR    O0B10668   4.117  17.393  10.407
    1STR    C0C10669   4.047  17.359  10.528
    1STR    C0D10670   4.079  17.213  10.565
    1STR    C0E10671   4.083   0.015  10.644
    1STR    O0F10672   4.011  17.419  10.763
    1STR    C0G10673   4.032   0.062  10.877
    1STR    C0H10674   3.950   0.191  10.863
    1STR    C0I10675   3.992  17.425  11.005
    1STR    O0J10676   4.024   0.062  11.121
    1STR    C0K10677   3.991   0.004  11.247
    1STR    C0M10678   4.089  17.332  11.283
    1STR    C0N10679   3.996   0.117  11.353
    1STR    O0O10680   3.951   0.073  11.481
    1STR    C0P10681   4.037   0.054  11.582
    1STR    O0Q10682   4.159   0.065  11.574
    1STR    N0R10683   3.969   0.022  11.692
    1STR    C0S10684   4.010  17.430  11.822
    1STR    C0T10685   3.910  17.391  11.913
    1STR    C0U10686   3.943  17.351  12.044
    1STR    C0V10687   4.076  17.351  12.088
    1STR    C0W10688   4.106  17.294  12.226
    1STR    C0X10689   4.178  17.398  12.001
    1STR    N0Y10690   4.313  17.401  12.038
    1STR   BCK210691   4.368   0.017  12.146
    1STR    O1010692   4.307   0.071  12.237
    1STR    C1310693   4.144  17.434  11.868
    1STR    C1410694   4.022  17.300   9.989
    1STR    C1510695   4.005  17.290   9.850
    1STR    C1610696   4.096  17.351   9.761
    1STR    C1710697   4.064  17.345   9.613
    1STR    H1B10698   4.316   0.144   9.750
    1STR    H1C10699   4.309   0.044   9.993
    1STR    H1D10700   4.232  17.432  10.216
    1STR    H1E10701   3.940  17.369  10.511
    1STR    H1F10702   4.185  17.199  10.585
    1STR    H1G10703   4.024  17.183  10.655
    1STR    H1H10704   4.049  17.145  10.486
    1STR    H1I10705   4.059   0.117  10.614
    1STR    H1J10706   4.191   0.012  10.663
    1STR    H1K10707   4.138   0.086  10.886
    1STR    H1M10708   3.844   0.169  10.850
    1STR    H1N10709   3.982   0.252  10.779
    1STR    H1O10710   3.960   0.253  10.953
    1STR    H1P10711   3.885  17.402  11.002
    1STR    H1Q10712   4.044  17.329  11.006
    1STR    H1R10713   3.889  17.405  11.244
    1STR    H1S10714   4.067  17.290  11.381
    1STR    H1T10715   4.192  17.369  11.286
    1STR    H1U10716   4.085  17.249  11.212
    1STR    H1V10717   3.931   0.198  11.322
    1STR    H1W10718   4.096   0.161  11.358
    1STR    H1X10719   3.870   0.020  11.673
    1STR    H1Y10720   3.806  17.388  11.884
    1STR    H1Z10721   3.865  17.318  12.111
    1STR    H2010722   4.201  17.241  12.226
    1STR    H2110723   4.110  17.374  12.300
    1STR    H2210724   4.029  17.224  12.258
    1STR    H2310725   4.379  17.363  11.973
    1STR    H2710726   4.223   0.026  11.802
    1STR    H2810727   3.948  17.252  10.051
    1STR    H2910728   3.920  17.237   9.812
    1STR    H2A10729   4.092  17.438   9.563
    1STR    H2B10730   3.957  17.331   9.596
    1STR    H2C10731   4.118  17.263   9.566
    1STR   BCK110732   4.484   0.053  13.990
    1STR    O0310733   4.587   0.118  13.976
    1STR    N0410734   4.464  17.403  14.087
    1STR    C0510735   4.558  17.362  14.181
    1STR    C0610736   4.529  17.371  14.320
    1STR    C0710737   4.622  17.324  14.417
    1STR    N0810738   4.588  17.330  14.554
    1STR    C0910739   4.664  17.306  14.662
    1STR    O0A10740   4.784  17.281  14.659
    1STR    O0B10741   4.592  17.314  14.776
    1STR    C0C10742   4.658  17.294  14.902
    1STR    C0D10743   4.727  17.425  14.944
    1STR    C0E10744   4.559  17.245  15.010
    1STR    O0F10745   4.632  17.220  15.131
    1STR    C0G10746   4.555  17.172  15.241
    1STR    C0H10747   4.530  17.021  15.223
    1STR    C0I10748   4.634  17.199  15.371
    1STR    O0J10749   4.554  17.163  15.484
    1STR    C0K10750   4.617  17.174  15.612
    1STR    C0M10751   4.629  17.322  15.653
    1STR    C0N10752   4.530  17.094  15.712
    1STR    O0O10753   4.597  17.072  15.836
    1STR    C0P10754   4.568  17.144  15.945
    1STR    O0Q10755   4.483  17.233  15.951
    1STR    N0R10756   4.648  17.107  16.045
    1STR    C0S10757   4.670  17.166  16.170
    1STR    C0T10758   4.797  17.151  16.227
    1STR    C0U10759   4.833  17.225  16.340
    1STR    C0V10760   4.742  17.313  16.402
    1STR    C0W10761   4.802  17.415  16.495
    1STR    C0X10762   4.606  17.314  16.359
    1STR    N0Y10763   4.499  17.386  16.417
    1STR   BCK210764   4.457  17.436  16.534
    1STR    O1010765   4.352   0.058  16.532
    1STR    C1310766   4.574  17.243  16.240
    1STR    C1410767   4.743  17.267  14.371
    1STR    C1510768   4.770  17.256  14.234
    1STR    C1610769   4.677  17.300  14.138
    1STR    C1710770   4.708  17.275  13.991
    1STR    H1B10771   4.375  17.356  14.084
    1STR    H1C10772   4.436  17.416  14.351
    1STR    H1D10773   4.494  17.356  14.578
    1STR    H1E10774   4.734  17.216  14.891
    1STR    H1F10775   4.655   0.066  14.958
    1STR    H1G10776   4.781  17.412  15.038
    1STR    H1H10777   4.799   0.017  14.869
    1STR    H1I10778   4.511  17.154  14.975
    1STR    H1J10779   4.481  17.319  15.027
    1STR    H1K10780   4.460  17.225  15.247
    1STR    H1M10781   4.624  16.966  15.212
    1STR    H1N10782   4.468  17.000  15.137
    1STR    H1O10783   4.478  16.980  15.310
    1STR    H1P10784   4.728  17.144  15.370
    1STR    H1Q10785   4.660  17.305  15.375
    1STR    H1R10786   4.716  17.128  15.608
    1STR    H1S10787   4.671  17.331  15.753
    1STR    H1T10788   4.531  17.370  15.655
    1STR    H1U10789   4.693  17.379  15.586
    1STR    H1V10790   4.509  16.996  15.670
    1STR    H1W10791   4.433  17.142  15.726
    1STR    H1X10792   4.709  17.033  16.016
    1STR    H1Y10793   4.872  17.089  16.179
    1STR    H1Z10794   4.935  17.219  16.376
    1STR    H2010795   4.741   0.065  16.501
    1STR    H2110796   4.821  17.374  16.594
    1STR    H2210797   4.898   0.008  16.456
    1STR    H2310798   4.423  17.401  16.353
    1STR    H2710799   4.474  17.249  16.200
    1STR    H2810800   4.818  17.229  14.438
    1STR    H2910801   4.863  17.211  14.202
    1STR    H2A10802   4.618  17.249  13.936
    1STR    H2B10803   4.779  17.193  13.979
    1STR    H2C10804   4.752  17.365  13.946
    1STR   BCK110805   4.433   4.456   0.881
    1STR    O0310806   4.333   4.401   0.835
    1STR    N0410807   4.442   4.515   1.001
    1STR    C0510808   4.343   4.559   1.090
    1STR    C0610809   4.358   4.537   1.230
    1STR    C0710810   4.274   4.600   1.326
    1STR    N0810811   4.295   4.582   1.464
    1STR    C0910812   4.256   4.658   1.568
    1STR    O0A10813   4.195   4.764   1.557
    1STR    O0B10814   4.294   4.606   1.688
    1STR    C0C10815   4.252   4.670   1.811
    1STR    C0D10816   4.110   4.623   1.847
    1STR    C0E10817   4.351   4.641   1.927
    1STR    O0F10818   4.309   4.709   2.046
    1STR    C0G10819   4.394   4.694   2.161
    1STR    C0H10820   4.515   4.786   2.147
    1STR    C0I10821   4.313   4.727   2.288
    1STR    O0J10822   4.393   4.702   2.404
    1STR    C0K10823   4.333   4.732   2.531
    1STR    C0M10824   4.231   4.623   2.568
    1STR    C0N10825   4.446   4.739   2.636
    1STR    O0O10826   4.397   4.783   2.763
    1STR    C0P10827   4.394   4.700   2.869
    1STR    O0Q10828   4.426   4.582   2.867
    1STR    N0R10829   4.351   4.767   2.976
    1STR    C0S10830   4.327   4.726   3.108
    1STR    C0T10831   4.257   4.816   3.192
    1STR    C0U10832   4.225   4.780   3.324
    1STR    C0V10833   4.263   4.655   3.376
    1STR    C0W10834   4.217   4.617   3.516
    1STR    C0X10835   4.339   4.566   3.297
    1STR    N0Y10836   4.376   4.440   3.343
    1STR   BCK210837   4.447   4.409   3.451
    1STR    O1010838   4.503   4.489   3.525
    1STR    C1310839   4.368   4.602   3.163
    1STR    C1410840   4.170   4.682   1.278
    1STR    C1510841   4.153   4.704   1.140
    1STR    C1610842   4.239   4.645   1.046
    1STR    C1710843   4.223   4.684   0.900
    1STR    H1B10844   4.536   4.540   1.024
    1STR    H1C10845   4.438   4.473   1.264
    1STR    H1D10846   4.349   4.502   1.494
    1STR    H1E10847   4.251   4.778   1.796
    1STR    H1F10848   4.106   4.515   1.864
    1STR    H1G10849   4.075   4.672   1.938
    1STR    H1H10850   4.039   4.648   1.768
    1STR    H1I10851   4.451   4.675   1.897
    1STR    H1J10852   4.358   4.534   1.945
    1STR    H1K10853   4.426   4.590   2.169
    1STR    H1M10854   4.485   4.890   2.134
    1STR    H1N10855   4.579   4.759   2.062
    1STR    H1O10856   4.578   4.782   2.236
    1STR    H1P10857   4.281   4.832   2.286
    1STR    H1Q10858   4.223   4.666   2.291
    1STR    H1R10859   4.284   4.829   2.527
    1STR    H1S10860   4.189   4.641   2.667
    1STR    H1T10861   4.278   4.525   2.571
    1STR    H1U10862   4.148   4.618   2.498
    1STR    H1V10863   4.521   4.811   2.604
    1STR    H1W10864   4.498   4.643   2.643
    1STR    H1X10865   4.330   4.863   2.953
    1STR    H1Y10866   4.225   4.912   3.156
    1STR    H1Z10867   4.169   4.849   3.385
    1STR    H2010868   4.194   4.511   3.522
    1STR    H2110869   4.294   4.639   3.589
    1STR    H2210870   4.126   4.671   3.544
    1STR    H2310871   4.352   4.361   3.285
    1STR    H2710872   4.424   4.533   3.102
    1STR    H2810873   4.101   4.732   1.344
    1STR    H2910874   4.074   4.771   1.107
    1STR    H2A10875   4.319   4.703   0.853
    1STR    H2B10876   4.163   4.774   0.889
    1STR    H2C10877   4.173   4.603   0.845
    1STR   BCK110878   4.430   4.313   5.265
    1STR    O0310879   4.509   4.223   5.238
    1STR    N0410880   4.343   4.311   5.367
    1STR    C0510881   4.315   4.205   5.454
    1STR    C0610882   4.316   4.226   5.595
    1STR    C0710883   4.281   4.123   5.687
    1STR    N0810884   4.278   4.149   5.825
    1STR    C0910885   4.255   4.066   5.929
    1STR    O0A10886   4.236   3.945   5.920
    1STR    O0B10887   4.256   4.132   6.048
    1STR    C0C10888   4.238   4.059   6.170
    1STR    C0D10889   4.373   3.996   6.211
    1STR    C0E10890   4.181   4.148   6.282
    1STR    O0F10891   4.164   4.070   6.401
    1STR    C0G10892   4.111   4.139   6.514
    1STR    C0H10893   3.959   4.152   6.500
    1STR    C0I10894   4.148   4.060   6.642
    1STR    O0J10895   4.108   4.134   6.757
    1STR    C0K10896   4.132   4.072   6.884
    1STR    C0M10897   4.281   4.079   6.920
    1STR    C0N10898   4.046   4.148   6.987
    1STR    O0O10899   4.047   4.082   7.114
    1STR    C0P10900   4.117   4.131   7.217
    1STR    O0Q10901   4.190   4.230   7.214
    1STR    N0R10902   4.093   4.055   7.324
    1STR    C0S10903   4.140   4.059   7.456
    1STR    C0T10904   4.085   3.963   7.543
    1STR    C0U10905   4.131   3.953   7.675
    1STR    C0V10906   4.232   4.038   7.723
    1STR    C0W10907   4.287   4.010   7.862
    1STR    C0X10908   4.284   4.140   7.639
    1STR    N0Y10909   4.388   4.223   7.682
    1STR   BCK210910   4.391   4.302   7.790
    1STR    O1010911   4.299   4.317   7.869
    1STR    C1310912   4.238   4.148   7.505
    1STR    C1410913   4.246   3.997   5.633
    1STR    C1510914   4.243   3.975   5.494
    1STR    C1610915   4.275   4.078   5.404
    1STR    C1710916   4.259   4.051   5.255
    1STR    H1B10917   4.292   4.396   5.380
    1STR    H1C10918   4.344   4.323   5.633
    1STR    H1D10919   4.296   4.243   5.856
    1STR    H1E10920   4.166   3.978   6.153
    1STR    H1F10921   4.448   4.073   6.230
    1STR    H1G10922   4.362   3.937   6.302
    1STR    H1H10923   4.411   3.930   6.133
    1STR    H1I10924   4.086   4.190   6.250
    1STR    H1J10925   4.249   4.232   6.302
    1STR    H1K10926   4.157   4.238   6.522
    1STR    H1M10927   3.912   4.054   6.488
    1STR    H1N10928   3.930   4.214   6.415
    1STR    H1O10929   3.916   4.198   6.589
    1STR    H1P10930   4.100   3.962   6.641
    1STR    H1Q10931   4.256   4.043   6.643
    1STR    H1R10932   4.098   3.968   6.881
    1STR    H1S10933   4.299   4.036   7.019
    1STR    H1T10934   4.315   4.183   6.924
    1STR    H1U10935   4.344   4.025   6.850
    1STR    H1V10936   3.942   4.150   6.953
    1STR    H1W10937   4.076   4.252   6.996
    1STR    H1X10938   4.028   3.982   7.300
    1STR    H1Y10939   4.009   3.894   7.510
    1STR    H1Z10940   4.089   3.877   7.740
    1STR    H2010941   4.396   4.003   7.857
    1STR    H2110942   4.260   4.088   7.933
    1STR    H2210943   4.251   3.916   7.903
    1STR    H2310944   4.469   4.228   7.624
    1STR    H2710945   4.280   4.223   7.440
    1STR    H2810946   4.218   3.913   5.694
    1STR    H2910947   4.214   3.878   5.456
    1STR    H2A10948   4.222   4.140   5.203
    1STR    H2B10949   4.187   3.971   5.238
    1STR    H2C10950   4.354   4.021   5.212
    1STR   BCK110951   4.440   4.415   9.622
    1STR    O0310952   4.424   4.534   9.600
    1STR    N0410953   4.505   4.366   9.728
    1STR    C0510954   4.574   4.441   9.823
    1STR    C0610955   4.545   4.424   9.961
    1STR    C0710956   4.618   4.495  10.060
    1STR    N0810957   4.591   4.471  10.196
    1STR    C0910958   4.661   4.507  10.304
    1STR    O0A10959   4.766   4.572  10.302
    1STR    O0B10960   4.603   4.463  10.418
    1STR    C0C10961   4.658   4.503  10.544
    1STR    C0D10962   4.597   4.638  10.584
    1STR    C0E10963   4.635   4.396  10.652
    1STR    O0F10964   4.701   4.440  10.771
    1STR    C0G10965   4.694   4.352  10.882
    1STR    C0H10966   4.797   4.239  10.866
    1STR    C0I10967   4.723   4.436  11.008
    1STR    O0J10968   4.708   4.354  11.123
    1STR    C0K10969   4.736   4.417  11.248
    1STR    C0M10970   4.617   4.506  11.289
    1STR    C0N10971   4.762   4.305  11.349
    1STR    O0O10972   4.811   4.357  11.472
    1STR    C0P10973   4.730   4.370  11.578
    1STR    O0Q10974   4.611   4.339  11.579
    1STR    N0R10975   4.798   4.422  11.680
    1STR    C0S10976   4.755   4.456  11.808
    1STR    C0T10977   4.836   4.544  11.883
    1STR    C0U10978   4.798   4.585  12.012
    1STR    C0V10979   4.678   4.538  12.070
    1STR    C0W10980   4.636   4.590  12.206
    1STR    C0X10981   4.599   4.445  11.999
    1STR    N0Y10982   4.483   4.392  12.054
    1STR   BCK210983   4.473   4.309  12.158
    1STR    O1010984   4.364   4.270  12.197
    1STR    C1310985   4.637   4.406  11.868
    1STR    C1410986   4.716   4.587  10.017
    1STR    C1510987   4.747   4.602   9.881
    1STR    C1610988   4.679   4.528   9.783
    1STR    C1710989   4.725   4.540   9.639
    1STR    H1B10990   4.512   4.266   9.732
    1STR    H1C10991   4.467   4.356   9.989
    1STR    H1D10992   4.510   4.417  10.219
    1STR    H1E10993   4.766   4.515  10.535
    1STR    H1F10994   4.489   4.631  10.596
    1STR    H1G10995   4.639   4.674  10.677
    1STR    H1H10996   4.617   4.714  10.508
    1STR    H1I10997   4.676   4.301  10.618
    1STR    H1J10998   4.528   4.381  10.670
    1STR    H1K10999   4.593   4.310  10.891
    1STR    H1M11000   4.898   4.280  10.852
    1STR    H1N11001   4.776   4.175  10.780
    1STR    H1O11002   4.799   4.175  10.954
    1STR    H1P11003   4.823   4.478  11.002
    1STR    H1Q11004   4.653   4.520  11.011
    1STR    H1R11005   4.827   4.477  11.239
    1STR    H1S11006   4.635   4.552  11.387
    1STR    H1T11007   4.525   4.448  11.297
    1STR    H1U11008   4.599   4.588  11.219
    1STR    H1V11009   4.838   4.237  11.310
    1STR    H1W11010   4.673   4.243  11.363
    1STR    H1X11011   4.893   4.442  11.654
    1STR    H1Y11012   4.928   4.583  11.842
    1STR    H1Z11013   4.860   4.655  12.067
    1STR    H2011014   4.527   4.596  12.214
    1STR    H2111015   4.672   4.524  12.285
    1STR    H2211016   4.675   4.690  12.224
    1STR    H2311017   4.395   4.411  12.009
    1STR    H2711018   4.575   4.336  11.815
    1STR    H2811019   4.772   4.648  10.086
    1STR    H2911020   4.825   4.671   9.852
    1STR    H2A11021   4.715   4.446   9.586
    1STR    H2B11022   4.830   4.569   9.634
    1STR    H2C11023   4.666   4.616   9.587
    1STR   BCK111024   4.365   4.417  13.973
    1STR    O0311025   4.324   4.310  13.931
    1STR    N0411026   4.325   4.477  14.086
    1STR    C0511027   4.218   4.448  14.172
    1STR    C0611028   4.238   4.448  14.313
    1STR    C0711029   4.130   4.434  14.405
    1STR    N0811030   4.154   4.439  14.544
    1STR    C0911031   4.067   4.456  14.646
    1STR    O0A11032   3.946   4.472  14.633
    1STR    O0B11033   4.130   4.455  14.767
    1STR    C0C11034   4.052   4.462  14.889
    1STR    C0D11035   4.001   4.322  14.924
    1STR    C0E11036   4.134   4.523  15.005
    1STR    O0F11037   4.054   4.531  15.124
    1STR    C0G11038   4.116   4.589  15.239
    1STR    C0H11039   4.116   4.742  15.226
    1STR    C0I11040   4.041   4.545  15.367
    1STR    O0J11041   4.110   4.593  15.484
    1STR    C0K11042   4.051   4.562  15.610
    1STR    C0M11043   4.073   4.414  15.645
    1STR    C0N11044   4.116   4.654  15.717
    1STR    O0O11045   4.053   4.640  15.845
    1STR    C0P11046   4.118   4.583  15.948
    1STR    O0Q11047   4.229   4.532  15.942
    1STR    N0R11048   4.042   4.590  16.057
    1STR    C0S11049   4.060   4.543  16.188
    1STR    C0T11050   3.952   4.560  16.278
    1STR    C0U11051   3.958   4.509  16.409
    1STR    C0V11052   4.073   4.442  16.455
    1STR    C0W11053   4.068   4.379  16.593
    1STR    C0X11054   4.185   4.429  16.369
    1STR    N0Y11055   4.301   4.361  16.407
    1STR   BCK211056   4.374   4.372  16.519
    1STR    O1011057   4.355   4.456  16.607
    1STR    C1311058   4.177   4.479  16.236
    1STR    C1411059   4.001   4.415  14.351
    1STR    C1511060   3.980   4.416  14.212
    1STR    C1611061   4.086   4.434  14.122
    1STR    C1711062   4.053   4.446  13.974
    1STR    H1B11063   4.381   4.558  14.110
    1STR    H1C11064   4.339   4.460  14.351
    1STR    H1D11065   4.249   4.431  14.576
    1STR    H1E11066   3.966   4.528  14.872
    1STR    H1F11067   4.083   4.252  14.943
    1STR    H1G11068   3.939   4.325  15.014
    1STR    H1H11069   3.939   4.281  14.844
    1STR    H1I11070   4.168   4.622  14.976
    1STR    H1J11071   4.223   4.463  15.024
    1STR    H1K11072   4.219   4.552  15.248
    1STR    H1M11073   4.015   4.780  15.212
    1STR    H1N11074   4.176   4.776  15.141
    1STR    H1O11075   4.158   4.789  15.315
    1STR    H1P11076   3.938   4.583  15.365
    1STR    H1Q11077   4.034   4.437  15.369
    1STR    H1R11078   3.944   4.584  15.608
    1STR    H1S11079   4.033   4.391  15.744
    1STR    H1T11080   4.180   4.390  15.647
    1STR    H1U11081   4.025   4.347  15.575
    1STR    H1V11082   4.104   4.758  15.686
    1STR    H1W11083   4.223   4.636  15.722
    1STR    H1X11084   3.956   4.638  16.037
    1STR    H1Y11085   3.861   4.609  16.246
    1STR    H1Z11086   3.873   4.521  16.474
    1STR    H2011087   4.127   4.287  16.597
    1STR    H2111088   4.108   4.449  16.667
    1STR    H2211089   3.966   4.354  16.622
    1STR    H2311090   4.339   4.296  16.340
    1STR    H2711091   4.262   4.467  16.171
    1STR    H2811092   3.915   4.402  14.414
    1STR    H2911093   3.879   4.405  14.175
    1STR    H2A11094   4.116   4.521  13.926
    1STR    H2B11095   3.950   4.475  13.959
    1STR    H2C11096   4.070   4.350  13.925
    1STR   BCK111097   4.493   8.730   0.914
    1STR    O0311098   4.615   8.729   0.900
    1STR    N0411099   4.428   8.661   1.007
    1STR    C0511100   4.483   8.571   1.098
    1STR    C0611101   4.465   8.589   1.237
    1STR    C0711102   4.515   8.495   1.331
    1STR    N0811103   4.491   8.514   1.468
    1STR    C0911104   4.543   8.450   1.574
    1STR    O0A11105   4.631   8.365   1.568
    1STR    O0B11106   4.488   8.493   1.690
    1STR    C0C11107   4.533   8.438   1.814
    1STR    C0D11108   4.662   8.509   1.858
    1STR    C0E11109   4.423   8.448   1.922
    1STR    O0F11110   4.471   8.387   2.041
    1STR    C0G11111   4.381   8.389   2.152
    1STR    C0H11112   4.279   8.275   2.138
    1STR    C0I11113   4.464   8.373   2.281
    1STR    O0J11114   4.379   8.392   2.394
    1STR    C0K11115   4.440   8.371   2.521
    1STR    C0M11116   4.531   8.489   2.557
    1STR    C0N11117   4.327   8.355   2.624
    1STR    O0O11118   4.382   8.307   2.746
    1STR    C0P11119   4.390   8.385   2.855
    1STR    O0Q11120   4.348   8.500   2.866
    1STR    N0R11121   4.451   8.314   2.949
    1STR    C0S11122   4.485   8.339   3.082
    1STR    C0T11123   4.553   8.235   3.148
    1STR    C0U11124   4.584   8.245   3.284
    1STR    C0V11125   4.547   8.358   3.358
    1STR    C0W11126   4.570   8.350   3.507
    1STR    C0X11127   4.483   8.468   3.294
    1STR    N0Y11128   4.432   8.579   3.364
    1STR   BCK211129   4.474   8.655   3.467
    1STR    O1011130   4.398   8.739   3.513
    1STR    C1311131   4.452   8.456   3.156
    1STR    C1411132   4.583   8.382   1.281
    1STR    C1511133   4.600   8.362   1.143
    1STR    C1611134   4.548   8.455   1.051
    1STR    C1711135   4.561   8.423   0.903
    1STR    H1B11136   4.328   8.671   1.006
    1STR    H1C11137   4.413   8.677   1.272
    1STR    H1D11138   4.427   8.586   1.496
    1STR    H1E11139   4.554   8.331   1.800
    1STR    H1F11140   4.645   8.616   1.874
    1STR    H1G11141   4.700   8.467   1.951
    1STR    H1H11142   4.740   8.499   1.783
    1STR    H1I11143   4.333   8.397   1.886
    1STR    H1J11144   4.397   8.552   1.939
    1STR    H1K11145   4.330   8.486   2.157
    1STR    H1M11146   4.328   8.179   2.128
    1STR    H1N11147   4.214   8.289   2.051
    1STR    H1O11148   4.214   8.271   2.225
    1STR    H1P11149   4.511   8.275   2.283
    1STR    H1Q11150   4.544   8.447   2.281
    1STR    H1R11151   4.498   8.279   2.519
    1STR    H1S11152   4.575   8.476   2.656
    1STR    H1T11153   4.475   8.583   2.559
    1STR    H1U11154   4.614   8.501   2.488
    1STR    H1V11155   4.256   8.280   2.589
    1STR    H1W11156   4.271   8.447   2.636
    1STR    H1X11157   4.475   8.224   2.913
    1STR    H1Y11158   4.580   8.145   3.095
    1STR    H1Z11159   4.633   8.162   3.332
    1STR    H2011160   4.669   8.390   3.529
    1STR    H2111161   4.493   8.405   3.562
    1STR    H2211162   4.568   8.247   3.542
    1STR    H2311163   4.342   8.612   3.333
    1STR    H2711164   4.399   8.537   3.106
    1STR    H2811165   4.623   8.306   1.346
    1STR    H2911166   4.651   8.274   1.109
    1STR    H2A11167   4.471   8.453   0.849
    1STR    H2B11168   4.576   8.317   0.886
    1STR    H2C11169   4.646   8.477   0.860
    1STR   BCK111170   4.432   8.782   5.242
    1STR    O0311171   4.339   8.839   5.185
    1STR    N0411172   4.479   8.814   5.363
    1STR    C0511173   4.443   8.915   5.453
    1STR    C0611174   4.440   8.886   5.592
    1STR    C0711175   4.415   8.986   5.690
    1STR    N0811176   4.420   8.954   5.827
    1STR    C0911177   4.432   9.036   5.933
    1STR    O0A11178   4.442   9.158   5.926
    1STR    O0B11179   4.433   8.968   6.050
    1STR    C0C11180   4.433   9.040   6.174
    1STR    C0D11181   4.288   9.076   6.211
    1STR    C0E11182   4.502   8.961   6.287
    1STR    O0F11183   4.504   9.041   6.405
    1STR    C0G11184   4.568   8.983   6.519
    1STR    C0H11185   4.721   8.996   6.505
    1STR    C0I11186   4.518   9.057   6.645
    1STR    O0J11187   4.575   8.996   6.762
    1STR    C0K11188   4.540   9.056   6.887
    1STR    C0M11189   4.398   9.014   6.928
    1STR    C0N11190   4.646   9.009   6.989
    1STR    O0O11191   4.631   9.075   7.115
    1STR    C0P11192   4.579   9.009   7.220
    1STR    O0Q11193   4.534   8.895   7.216
    1STR    N0R11194   4.584   9.087   7.329
    1STR    C0S11195   4.541   9.063   7.460
    1STR    C0T11196   4.538   9.172   7.549
    1STR    C0U11197   4.491   9.156   7.681
    1STR    C0V11198   4.446   9.031   7.727
    1STR    C0W11199   4.385   9.022   7.866
    1STR    C0X11200   4.453   8.919   7.640
    1STR    N0Y11201   4.402   8.793   7.673
    1STR   BCK211202   4.430   8.708   7.772
    1STR    O1011203   4.375   8.598   7.772
    1STR    C1311204   4.500   8.937   7.508
    1STR    C1411205   4.385   9.116   5.644
    1STR    C1511206   4.389   9.147   5.507
    1STR    C1611207   4.422   9.049   5.412
    1STR    C1711208   4.440   9.097   5.268
    1STR    H1B11209   4.555   8.754   5.392
    1STR    H1C11210   4.460   8.785   5.624
    1STR    H1D11211   4.418   8.857   5.854
    1STR    H1E11212   4.490   9.133   6.162
    1STR    H1F11213   4.227   8.987   6.226
    1STR    H1G11214   4.285   9.135   6.303
    1STR    H1H11215   4.241   9.136   6.133
    1STR    H1I11216   4.603   8.936   6.256
    1STR    H1J11217   4.449   8.867   6.305
    1STR    H1K11218   4.540   8.878   6.529
    1STR    H1M11219   4.750   9.100   6.491
    1STR    H1N11220   4.759   8.939   6.420
    1STR    H1O11221   4.771   8.958   6.594
    1STR    H1P11222   4.546   9.162   6.640
    1STR    H1Q11223   4.410   9.052   6.649
    1STR    H1R11224   4.546   9.165   6.879
    1STR    H1S11225   4.372   9.054   7.026
    1STR    H1T11226   4.390   8.905   6.934
    1STR    H1U11227   4.323   9.049   6.858
    1STR    H1V11228   4.745   9.032   6.952
    1STR    H1W11229   4.643   8.900   6.999
    1STR    H1X11230   4.623   9.177   7.307
    1STR    H1Y11231   4.570   9.271   7.518
    1STR    H1Z11232   4.487   9.242   7.747
    1STR    H2011233   4.308   8.945   7.870
    1STR    H2111234   4.462   8.998   7.939
    1STR    H2211235   4.338   9.116   7.895
    1STR    H2311236   4.338   8.752   7.607
    1STR    H2711237   4.503   8.851   7.443
    1STR    H2811238   4.360   9.196   5.712
    1STR    H2911239   4.371   9.249   5.477
    1STR    H2A11240   4.516   9.038   5.217
    1STR    H2B11241   4.471   9.201   5.265
    1STR    H2C11242   4.346   9.088   5.214
    1STR   BCK111243   4.379   8.695   9.622
    1STR    O0311244   4.411   8.582   9.586
    1STR    N0411245   4.304   8.723   9.730
    1STR    C0511246   4.234   8.636   9.814
    1STR    C0611247   4.244   8.652   9.955
    1STR    C0711248   4.168   8.572  10.046
    1STR    N0811249   4.178   8.594  10.185
    1STR    C0911250   4.112   8.537  10.288
    1STR    O0A11251   4.029   8.448  10.277
    1STR    O0B11252   4.149   8.590  10.408
    1STR    C0C11253   4.095   8.535  10.529
    1STR    C0D11254   4.175   8.409  10.568
    1STR    C0E11255   4.095   8.639  10.644
    1STR    O0F11256   4.039   8.581  10.762
    1STR    C0G11257   4.031   8.666  10.877
    1STR    C0H11258   3.909   8.759  10.863
    1STR    C0I11259   4.019   8.579  11.004
    1STR    O0J11260   4.024   8.663  11.120
    1STR    C0K11261   4.012   8.597  11.247
    1STR    C0M11262   4.143   8.525  11.282
    1STR    C0N11263   3.978   8.705  11.352
    1STR    O0O11264   3.949   8.648  11.479
    1STR    C0P11265   4.036   8.658  11.581
    1STR    O0Q11266   4.149   8.707  11.574
    1STR    N0R11267   3.981   8.605  11.690
    1STR    C0S11268   4.028   8.587  11.821
    1STR    C0T11269   3.941   8.524  11.912
    1STR    C0U11270   3.982   8.495  12.043
    1STR    C0V11271   4.111   8.529  12.087
    1STR    C0W11272   4.154   8.481  12.224
    1STR    C0X11273   4.199   8.599  12.000
    1STR    N0Y11274   4.328   8.634  12.038
    1STR   BCK211275   4.367   8.704  12.146
    1STR    O1011276   4.293   8.749  12.232
    1STR    C1311277   4.157   8.626  11.867
    1STR    C1411278   4.083   8.474   9.990
    1STR    C1511279   4.071   8.459   9.851
    1STR    C1611280   4.143   8.540   9.763
    1STR    C1711281   4.115   8.526   9.614
    1STR    H1B11282   4.297   8.822   9.749
    1STR    H1C11283   4.312   8.726   9.994
    1STR    H1D11284   4.243   8.664  10.217
    1STR    H1E11285   3.991   8.507  10.512
    1STR    H1F11286   4.279   8.432  10.587
    1STR    H1G11287   4.133   8.363  10.658
    1STR    H1H11288   4.170   8.334  10.489
    1STR    H1I11289   4.037   8.726  10.613
    1STR    H1J11290   4.197   8.673  10.663
    1STR    H1K11291   4.123   8.725  10.885
    1STR    H1M11292   3.818   8.702  10.850
    1STR    H1N11293   3.919   8.827  10.778
    1STR    H1O11294   3.898   8.821  10.952
    1STR    H1P11295   3.927   8.522  11.002
    1STR    H1Q11296   4.101   8.508  11.006
    1STR    H1R11297   3.929   8.526  11.243
    1STR    H1S11298   4.136   8.478  11.381
    1STR    H1T11299   4.226   8.595  11.286
    1STR    H1U11300   4.167   8.446  11.212
    1STR    H1V11301   3.889   8.760  11.320
    1STR    H1W11302   4.058   8.780  11.358
    1STR    H1X11303   3.888   8.572  11.670
    1STR    H1Y11304   3.842   8.495  11.882
    1STR    H1Z11305   3.914   8.444  12.110
    1STR    H2011306   4.255   8.439  12.220
    1STR    H2111307   4.153   8.562  12.297
    1STR    H2211308   4.089   8.402  12.262
    1STR    H2311309   4.403   8.610  11.975
    1STR    H2711310   4.225   8.676  11.800
    1STR    H2811311   4.023   8.409  10.051
    1STR    H2911312   4.002   8.385   9.813
    1STR    H2A11313   4.120   8.622   9.563
    1STR    H2B11314   4.016   8.485   9.596
    1STR    H2C11315   4.188   8.458   9.569
    1STR   BCK111316   4.464   8.787  13.988
    1STR    O0311317   4.535   8.887  13.973
    1STR    N0411318   4.480   8.698  14.086
    1STR    C0511319   4.581   8.700  14.182
    1STR    C0611320   4.550   8.700  14.320
    1STR    C0711321   4.652   8.697  14.419
    1STR    N0811322   4.616   8.692  14.555
    1STR    C0911323   4.694   8.695  14.664
    1STR    O0A11324   4.816   8.710  14.663
    1STR    O0B11325   4.622   8.679  14.777
    1STR    C0C11326   4.689   8.684  14.904
    1STR    C0D11327   4.708   8.831  14.946
    1STR    C0E11328   4.613   8.604  15.011
    1STR    O0F11329   4.691   8.605  15.130
    1STR    C0G11330   4.637   8.534  15.241
    1STR    C0H11331   4.664   8.383  15.224
    1STR    C0I11332   4.704   8.588  15.368
    1STR    O0J11333   4.645   8.527  15.482
    1STR    C0K11334   4.702   8.562  15.608
    1STR    C0M11335   4.655   8.702  15.650
    1STR    C0N11336   4.656   8.454  15.708
    1STR    O0O11337   4.725   8.466  15.832
    1STR    C0P11338   4.665   8.522  15.938
    1STR    O0Q11339   4.550   8.564  15.942
    1STR    N0R11340   4.752   8.527  16.039
    1STR    C0S11341   4.741   8.585  16.165
    1STR    C0T11342   4.860   8.627  16.227
    1STR    C0U11343   4.857   8.696  16.349
    1STR    C0V11344   4.734   8.722  16.413
    1STR    C0W11345   4.737   8.809  16.538
    1STR    C0X11346   4.614   8.671  16.358
    1STR    N0Y11347   4.493   8.692  16.422
    1STR   BCK211348   4.446   8.630  16.531
    1STR    O1011349   4.357   8.682  16.596
    1STR    C1311350   4.618   8.606  16.232
    1STR    C1411351   4.786   8.695  14.375
    1STR    C1511352   4.818   8.692  14.238
    1STR    C1611353   4.717   8.691  14.141
    1STR    C1711354   4.757   8.677  13.995
    1STR    H1B11355   4.417   8.620  14.084
    1STR    H1C11356   4.446   8.704  14.349
    1STR    H1D11357   4.519   8.685  14.578
    1STR    H1E11358   4.787   8.637  14.894
    1STR    H1F11359   4.613   8.882  14.959
    1STR    H1G11360   4.763   8.837  15.040
    1STR    H1H11361   4.766   8.885  14.871
    1STR    H1I11362   4.598   8.502  14.975
    1STR    H1J11363   4.514   8.647  15.028
    1STR    H1K11364   4.530   8.552  15.249
    1STR    H1M11365   4.771   8.364  15.211
    1STR    H1N11366   4.612   8.342  15.138
    1STR    H1O11367   4.631   8.328  15.312
    1STR    H1P11368   4.812   8.569  15.365
    1STR    H1Q11369   4.691   8.696  15.372
    1STR    H1R11370   4.811   8.559  15.602
    1STR    H1S11371   4.694   8.729  15.749
    1STR    H1T11372   4.546   8.707  15.657
    1STR    H1U11373   4.688   8.780  15.582
    1STR    H1V11374   4.680   8.355  15.668
    1STR    H1W11375   4.548   8.455  15.721
    1STR    H1X11376   4.841   8.488  16.012
    1STR    H1Y11377   4.956   8.611  16.179
    1STR    H1Z11378   4.949   8.732  16.393
    1STR    H2011379   4.637   8.840  16.570
    1STR    H2111380   4.786   8.757  16.619
    1STR    H2211381   4.793   8.900  16.518
    1STR    H2311382   4.432   8.765  16.388
    1STR    H2711383   4.526   8.571  16.188
    1STR    H2811384   4.870   8.694  14.443
    1STR    H2911385   4.922   8.689  14.208
    1STR    H2A11386   4.686   8.616  13.940
    1STR    H2B11387   4.855   8.629  13.986
    1STR    H2C11388   4.763   8.775  13.948
    1STR   BCK111389   4.403  13.172   0.886
    1STR    O0311390   4.321  13.091   0.842
    1STR    N0411391   4.393  13.236   1.003
    1STR    C0511392   4.285  13.252   1.091
    1STR    C0611393   4.303  13.238   1.232
    1STR    C0711394   4.202  13.273   1.326
    1STR    N0811395   4.227  13.263   1.464
    1STR    C0911396   4.163  13.322   1.567
    1STR    O0A11397   4.069  13.400   1.555
    1STR    O0B11398   4.215  13.287   1.688
    1STR    C0C11399   4.153  13.333   1.810
    1STR    C0D11400   4.035  13.241   1.846
    1STR    C0E11401   4.256  13.340   1.926
    1STR    O0F11402   4.192  13.390   2.045
    1STR    C0G11403   4.277  13.405   2.160
    1STR    C0H11404   4.359  13.534   2.146
    1STR    C0I11405   4.190  13.409   2.288
    1STR    O0J11406   4.274  13.412   2.405
    1STR    C0K11407   4.207  13.419   2.531
    1STR    C0M11408   4.149  13.281   2.567
    1STR    C0N11409   4.311  13.463   2.637
    1STR    O0O11410   4.251  13.485   2.765
    1STR    C0P11411   4.277  13.405   2.870
    1STR    O0Q11412   4.347  13.304   2.866
    1STR    N0R11413   4.215  13.452   2.978
    1STR    C0S11414   4.208  13.404   3.110
    1STR    C0T11415   4.118  13.470   3.196
    1STR    C0U11416   4.099  13.426   3.328
    1STR    C0V11417   4.170  13.315   3.378
    1STR    C0W11418   4.138  13.264   3.518
    1STR    C0X11419   4.265  13.250   3.295
    1STR    N0Y11420   4.333  13.136   3.338
    1STR   BCK211421   4.409  13.120   3.447
    1STR    O1011422   4.446  13.210   3.522
    1STR    C1311423   4.282  13.295   3.161
    1STR    C1411424   4.078  13.317   1.274
    1STR    C1511425   4.058  13.331   1.136
    1STR    C1611426   4.160  13.301   1.044
    1STR    C1711427   4.134  13.330   0.897
    1STR    H1B11428   4.476  13.287   1.027
    1STR    H1C11429   4.399  13.203   1.267
    1STR    H1D11430   4.303  13.206   1.495
    1STR    H1E11431   4.116  13.435   1.795
    1STR    H1F11432   4.068  13.139   1.863
    1STR    H1G11433   3.985  13.276   1.936
    1STR    H1H11434   3.961  13.240   1.766
    1STR    H1I11435   4.338  13.406   1.897
    1STR    H1J11436   4.298  13.242   1.945
    1STR    H1K11437   4.343  13.319   2.168
    1STR    H1M11438   4.295  13.620   2.133
    1STR    H1N11439   4.428  13.530   2.062
    1STR    H1O11440   4.419  13.551   2.236
    1STR    H1P11441   4.124  13.496   2.286
    1STR    H1Q11442   4.126  13.320   2.290
    1STR    H1R11443   4.128  13.494   2.528
    1STR    H1S11444   4.103  13.283   2.666
    1STR    H1T11445   4.226  13.205   2.569
    1STR    H1U11446   4.071  13.249   2.497
    1STR    H1V11447   4.357  13.557   2.606
    1STR    H1W11448   4.393  13.391   2.643
    1STR    H1X11449   4.165  13.536   2.956
    1STR    H1Y11450   4.060  13.555   3.162
    1STR    H1Z11451   4.028  13.476   3.392
    1STR    H2011452   4.143  13.156   3.522
    1STR    H2111453   4.210  13.305   3.590
    1STR    H2211454   4.038  13.293   3.549
    1STR    H2311455   4.329  13.055   3.279
    1STR    H2711456   4.352  13.243   3.098
    1STR    H2811457   3.997  13.344   1.339
    1STR    H2911458   3.963  13.369   1.101
    1STR    H2A11459   4.222  13.374   0.850
    1STR    H2B11460   4.052  13.401   0.884
    1STR    H2C11461   4.109  13.238   0.845
    1STR   BCK111462   4.464  13.045   5.271
    1STR    O0311463   4.569  12.984   5.253
    1STR    N0411464   4.376  13.017   5.368
    1STR    C0511465   4.380  12.909   5.456
    1STR    C0611466   4.373  12.930   5.597
    1STR    C0711467   4.369  12.822   5.689
    1STR    N0811468   4.358  12.847   5.827
    1STR    C0911469   4.366  12.763   5.931
    1STR    O0A11470   4.392  12.643   5.923
    1STR    O0B11471   4.343  12.826   6.049
    1STR    C0C11472   4.351  12.753   6.172
    1STR    C0D11473   4.499  12.742   6.214
    1STR    C0E11474   4.266  12.818   6.282
    1STR    O0F11475   4.275  12.739   6.401
    1STR    C0G11476   4.201  12.788   6.513
    1STR    C0H11477   4.054  12.748   6.499
    1STR    C0I11478   4.263  12.727   6.641
    1STR    O0J11479   4.200  12.784   6.756
    1STR    C0K11480   4.244  12.734   6.882
    1STR    C0M11481   4.382  12.791   6.918
    1STR    C0N11482   4.138  12.774   6.986
    1STR    O0O11483   4.165  12.710   7.111
    1STR    C0P11484   4.210  12.778   7.216
    1STR    O0Q11485   4.232  12.899   7.220
    1STR    N0R11486   4.226  12.693   7.317
    1STR    C0S11487   4.269  12.708   7.449
    1STR    C0T11488   4.269  12.591   7.526
    1STR    C0U11489   4.306  12.594   7.661
    1STR    C0V11490   4.343  12.715   7.723
    1STR    C0W11491   4.373  12.709   7.871
    1STR    C0X11492   4.345  12.836   7.648
    1STR    N0Y11493   4.362  12.962   7.708
    1STR   BCK211494   4.436  13.008   7.809
    1STR    O1011495   4.407  13.116   7.861
    1STR    C1311496   4.308  12.830   7.511
    1STR    C1411497   4.373  12.691   5.636
    1STR    C1511498   4.378  12.669   5.497
    1STR    C1611499   4.379  12.776   5.407
    1STR    C1711500   4.373  12.745   5.258
    1STR    H1B11501   4.297  13.079   5.373
    1STR    H1C11502   4.372  13.032   5.633
    1STR    H1D11503   4.343  12.942   5.856
    1STR    H1E11504   4.312  12.652   6.156
    1STR    H1F11505   4.543  12.840   6.232
    1STR    H1G11506   4.509  12.683   6.306
    1STR    H1H11507   4.558  12.692   6.138
    1STR    H1I11508   4.162  12.825   6.248
    1STR    H1J11509   4.300  12.920   6.301
    1STR    H1K11510   4.210  12.896   6.520
    1STR    H1M11511   4.043  12.640   6.488
    1STR    H1N11512   4.006  12.795   6.413
    1STR    H1O11513   3.997  12.777   6.588
    1STR    H1P11514   4.252  12.618   6.640
    1STR    H1Q11515   4.370  12.748   6.642
    1STR    H1R11516   4.248  12.625   6.878
    1STR    H1S11517   4.414  12.756   7.016
    1STR    H1T11518   4.379  12.900   6.922
    1STR    H1U11519   4.459  12.761   6.848
    1STR    H1V11520   4.040  12.741   6.953
    1STR    H1W11521   4.132  12.883   6.996
    1STR    H1X11522   4.201  12.601   7.287
    1STR    H1Y11523   4.238  12.496   7.485
    1STR    H1Z11524   4.304  12.503   7.719
    1STR    H2011525   4.480  12.702   7.885
    1STR    H2111526   4.333  12.796   7.922
    1STR    H2211527   4.328  12.621   7.918
    1STR    H2311528   4.302  13.035   7.672
    1STR    H2711529   4.307  12.921   7.452
    1STR    H2811530   4.370  12.603   5.698
    1STR    H2911531   4.378  12.567   5.461
    1STR    H2A11532   4.312  12.817   5.205
    1STR    H2B11533   4.331  12.646   5.240
    1STR    H2C11534   4.474  12.747   5.216
    1STR   BCK111535   4.442  13.127   9.610
    1STR    O0311536   4.384  13.228   9.572
    1STR    N0411537   4.510  13.118   9.725
    1STR    C0511538   4.536  13.218   9.818
    1STR    C0611539   4.516  13.193   9.957
    1STR    C0711540   4.552  13.288  10.056
    1STR    N0811541   4.537  13.256  10.192
    1STR    C0911542   4.592  13.316  10.299
    1STR    O0A11543   4.667  13.413  10.295
    1STR    O0B11544   4.554  13.256  10.415
    1STR    C0C11545   4.592  13.314  10.540
    1STR    C0D11546   4.488  13.421  10.579
    1STR    C0E11547   4.607  13.207  10.650
    1STR    O0F11548   4.653  13.272  10.768
    1STR    C0G11549   4.677  13.188  10.881
    1STR    C0H11550   4.812  13.118  10.865
    1STR    C0I11551   4.675  13.277  11.006
    1STR    O0J11552   4.689  13.196  11.122
    1STR    C0K11553   4.694  13.266  11.247
    1STR    C0M11554   4.551  13.307  11.288
    1STR    C0N11555   4.758  13.170  11.349
    1STR    O0O11556   4.784  13.235  11.473
    1STR    C0P11557   4.704  13.214  11.578
    1STR    O0Q11558   4.603  13.144  11.577
    1STR    N0R11559   4.750  13.282  11.683
    1STR    C0S11560   4.701  13.293  11.813
    1STR    C0T11561   4.752  13.396  11.895
    1STR    C0U11562   4.703  13.415  12.026
    1STR    C0V11563   4.604  13.330  12.078
    1STR    C0W11564   4.548  13.359  12.217
    1STR    C0X11565   4.555  13.222  12.000
    1STR    N0Y11566   4.456  13.137  12.047
    1STR   BCK211567   4.461  13.050  12.148
    1STR    O1011568   4.363  12.981  12.173
    1STR    C1311569   4.603  13.206  11.868
    1STR    C1411570   4.602  13.413  10.012
    1STR    C1511571   4.625  13.438   9.876
    1STR    C1611572   4.595  13.341   9.779
    1STR    C1711573   4.636  13.371   9.636
    1STR    H1B11574   4.552  13.028   9.741
    1STR    H1C11575   4.474  13.098   9.986
    1STR    H1D11576   4.481  13.176  10.217
    1STR    H1E11577   4.690  13.362  10.530
    1STR    H1F11578   4.389  13.377  10.592
    1STR    H1G11579   4.516  13.470  10.672
    1STR    H1H11580   4.481  13.498  10.502
    1STR    H1I11581   4.679  13.132  10.617
    1STR    H1J11582   4.512  13.157  10.668
    1STR    H1K11583   4.597  13.115  10.890
    1STR    H1M11584   4.893  13.190  10.852
    1STR    H1N11585   4.814  13.049  10.780
    1STR    H1O11586   4.835  13.058  10.954
    1STR    H1P11587   4.755  13.352  11.001
    1STR    H1Q11588   4.581  13.332  11.010
    1STR    H1R11589   4.757  13.354  11.238
    1STR    H1S11590   4.552  13.356  11.386
    1STR    H1T11591   4.486  13.220  11.297
    1STR    H1U11592   4.506  13.376  11.218
    1STR    H1V11593   4.853  13.134  11.310
    1STR    H1W11594   4.697  13.080  11.361
    1STR    H1X11595   4.832  13.335  11.659
    1STR    H1Y11596   4.827  13.464  11.858
    1STR    H1Z11597   4.742  13.496  12.085
    1STR    H2011598   4.443  13.330  12.224
    1STR    H2111599   4.604  13.305  12.292
    1STR    H2211600   4.553  13.466  12.240
    1STR    H2311601   4.371  13.131  11.993
    1STR    H2711602   4.565  13.124  11.810
    1STR    H2811603   4.628  13.491  10.082
    1STR    H2911604   4.668  13.533   9.847
    1STR    H2A11605   4.668  13.281   9.584
    1STR    H2B11606   4.720  13.441   9.632
    1STR    H2C11607   4.553  13.416   9.581
    1STR   BCK111608   4.358  13.105  13.976
    1STR    O0311609   4.344  12.990  13.936
    1STR    N0411610   4.303  13.155  14.087
    1STR    C0511611   4.206  13.101  14.172
    1STR    C0611612   4.223  13.108  14.313
    1STR    C0711613   4.122  13.067  14.405
    1STR    N0811614   4.141  13.080  14.544
    1STR    C0911615   4.054  13.067  14.646
    1STR    O0A11616   3.935  13.040  14.633
    1STR    O0B11617   4.113  13.088  14.767
    1STR    C0C11618   4.037  13.069  14.888
    1STR    C0D11619   4.037  12.920  14.925
    1STR    C0E11620   4.093  13.155  15.004
    1STR    O0F11621   4.014  13.135  15.123
    1STR    C0G11622   4.053  13.211  15.238
    1STR    C0H11623   4.001  13.355  15.224
    1STR    C0I11624   3.997  13.144  15.366
    1STR    O0J11625   4.045  13.212  15.482
    1STR    C0K11626   4.000  13.163  15.608
    1STR    C0M11627   4.072  13.032  15.644
    1STR    C0N11628   4.029  13.272  15.714
    1STR    O0O11629   3.976  13.238  15.842
    1STR    C0P11630   4.056  13.204  15.944
    1STR    O0Q11631   4.178  13.191  15.937
    1STR    N0R11632   3.983  13.185  16.054
    1STR    C0S11633   4.018  13.146  16.184
    1STR    C0T11634   3.912  13.124  16.275
    1STR    C0U11635   3.938  13.078  16.405
    1STR    C0V11636   4.069  13.054  16.449
    1STR    C0W11637   4.088  12.992  16.586
    1STR    C0X11638   4.178  13.084  16.363
    1STR    N0Y11639   4.312  13.067  16.401
    1STR   BCK211640   4.374  13.119  16.508
    1STR    O1011641   4.318  13.179  16.599
    1STR    C1311642   4.151  13.126  16.230
    1STR    C1411643   4.003  13.014  14.349
    1STR    C1511644   3.984  13.007  14.210
    1STR    C1611645   4.082  13.053  14.121
    1STR    C1711646   4.049  13.053  13.973
    1STR    H1B11647   4.337  13.247  14.110
    1STR    H1C11648   4.316  13.148  14.352
    1STR    H1D11649   4.233  13.104  14.576
    1STR    H1E11650   3.934  13.102  14.871
    1STR    H1F11651   4.137  12.883  14.943
    1STR    H1G11652   3.977  12.902  15.014
    1STR    H1H11653   3.993  12.860  14.844
    1STR    H1I11654   4.091  13.260  14.975
    1STR    H1J11655   4.197  13.129  15.024
    1STR    H1K11656   4.162  13.212  15.247
    1STR    H1M11657   3.892  13.356  15.211
    1STR    H1N11658   4.045  13.407  15.140
    1STR    H1O11659   4.023  13.413  15.314
    1STR    H1P11660   3.888  13.145  15.363
    1STR    H1Q11661   4.028  13.040  15.367
    1STR    H1R11662   3.892  13.147  15.605
    1STR    H1S11663   4.042  12.997  15.743
    1STR    H1T11664   4.180  13.046  15.646
    1STR    H1U11665   4.050  12.952  15.574
    1STR    H1V11666   3.983  13.366  15.683
    1STR    H1W11667   4.136  13.293  15.719
    1STR    H1X11668   3.886  13.202  16.035
    1STR    H1Y11669   3.810  13.140  16.245
    1STR    H1Z11670   3.855  13.059  16.472
    1STR    H2011671   4.176  12.928  16.589
    1STR    H2111672   4.099  13.070  16.662
    1STR    H2211673   4.003  12.930  16.614
    1STR    H2311674   4.372  13.020  16.336
    1STR    H2711675   4.234  13.145  16.164
    1STR    H2811676   3.922  12.977  14.411
    1STR    H2911677   3.890  12.969  14.173
    1STR    H2A11678   4.091  13.141  13.924
    1STR    H2B11679   3.942  13.055  13.957
    1STR    H2C11680   4.089  12.964  13.925
    1STR   BCK111681   8.852   0.038   0.907
    1STR    O0311682   8.967   0.078   0.894
    1STR    N0411683   8.812  17.394   1.004
    1STR    C0511684   8.894  17.331   1.097
    1STR    C0611685   8.869  17.344   1.236
    1STR    C0711686   8.948  17.275   1.332
    1STR    N0811687   8.918  17.288   1.469
    1STR    C0911688   8.988  17.248   1.576
    1STR    O0A11689   9.101  17.199   1.572
    1STR    O0B11690   8.920  17.269   1.691
    1STR    C0C11691   8.981  17.234   1.816
    1STR    C0D11692   9.076  17.347   1.860
    1STR    C0E11693   8.873  17.206   1.922
    1STR    O0F11694   8.938  17.166   2.043
    1STR    C0G11695   8.852  17.137   2.153
    1STR    C0H11696   8.796  16.995   2.137
    1STR    C0I11697   8.934  17.150   2.283
    1STR    O0J11698   8.845  17.139   2.394
    1STR    C0K11699   8.906  17.135   2.522
    1STR    C0M11700   8.956  17.275   2.563
    1STR    C0N11701   8.799  17.083   2.620
    1STR    O0O11702   8.859  17.044   2.743
    1STR    C0P11703   8.853  17.122   2.852
    1STR    O0Q11704   8.791  17.228   2.862
    1STR    N0R11705   8.929  17.066   2.945
    1STR    C0S11706   8.968  17.109   3.073
    1STR    C0T11707   9.080  17.045   3.126
    1STR    C0U11708   9.130  17.084   3.250
    1STR    C0V11709   9.069  17.186   3.326
    1STR    C0W11710   9.141  17.221   3.453
    1STR    C0X11711   8.948  17.246   3.279
    1STR    N0Y11712   8.861  17.334   3.346
    1STR   BCK211713   8.842  17.406   3.458
    1STR    O1011714   8.738   0.030   3.465
    1STR    C1311715   8.902  17.207   3.150
    1STR    C1411716   9.052  17.192   1.284
    1STR    C1511717   9.076  17.176   1.147
    1STR    C1611718   8.996  17.243   1.052
    1STR    C1711719   9.020  17.214   0.905
    1STR    H1B11720   8.715  17.369   1.001
    1STR    H1C11721   8.790  17.410   1.268
    1STR    H1D11722   8.832  17.333   1.494
    1STR    H1E11723   9.038  17.142   1.803
    1STR    H1F11724   9.023   0.001   1.875
    1STR    H1G11725   9.126  17.321   1.953
    1STR    H1H11726   9.153  17.364   1.785
    1STR    H1I11727   8.807  17.128   1.887
    1STR    H1J11728   8.813  17.295   1.939
    1STR    H1K11729   8.771  17.210   2.157
    1STR    H1M11730   8.876  16.921   2.128
    1STR    H1N11731   8.731  16.985   2.050
    1STR    H1O11732   8.736  16.967   2.224
    1STR    H1P11733   9.012  17.074   2.286
    1STR    H1Q11734   8.984  17.247   2.284
    1STR    H1R11735   8.989  17.065   2.522
    1STR    H1S11736   8.999  17.274   2.663
    1STR    H1T11737   8.875  17.347   2.564
    1STR    H1U11738   9.033  17.313   2.496
    1STR    H1V11739   8.752  16.994   2.579
    1STR    H1W11740   8.719  17.156   2.635
    1STR    H1X11741   8.968  16.980   2.911
    1STR    H1Y11742   9.131  16.966   3.072
    1STR    H1Z11743   9.219  17.035   3.287
    1STR    H2011744   9.154  17.328   3.461
    1STR    H2111745   9.090  17.176   3.537
    1STR    H2211746   9.243  17.181   3.454
    1STR    H2311747   8.777  17.351   3.293
    1STR    H2711748   8.813  17.253   3.109
    1STR    H2811749   9.115  17.136   1.351
    1STR    H2911750   9.155  17.110   1.115
    1STR    H2A11751   8.926  17.210   0.850
    1STR    H2B11752   9.070  17.118   0.891
    1STR    H2C11753   9.082  17.291   0.861
    1STR   BCK111754   8.800   0.057   5.247
    1STR    O0311755   8.799  17.380   5.212
    1STR    N0411756   8.760   0.085   5.373
    1STR    C0511757   8.731   0.196   5.453
    1STR    C0611758   8.746   0.179   5.594
    1STR    C0711759   8.699   0.273   5.689
    1STR    N0811760   8.713   0.248   5.827
    1STR    C0911761   8.687   0.326   5.933
    1STR    O0A11762   8.645   0.441   5.926
    1STR    O0B11763   8.712   0.263   6.051
    1STR    C0C11764   8.682   0.329   6.175
    1STR    C0D11765   8.533   0.310   6.209
    1STR    C0E11766   8.772   0.277   6.289
    1STR    O0F11767   8.746   0.351   6.409
    1STR    C0G11768   8.826   0.318   6.522
    1STR    C0H11769   8.964   0.383   6.508
    1STR    C0I11770   8.754   0.369   6.650
    1STR    O0J11771   8.827   0.327   6.766
    1STR    C0K11772   8.774   0.370   6.892
    1STR    C0M11773   8.652   0.285   6.929
    1STR    C0N11774   8.887   0.354   6.996
    1STR    O0O11775   8.849   0.409   7.122
    1STR    C0P11776   8.828   0.330   7.229
    1STR    O0Q11777   8.834   0.208   7.229
    1STR    N0R11778   8.798   0.406   7.335
    1STR    C0S11779   8.766   0.373   7.467
    1STR    C0T11780   8.710   0.473   7.548
    1STR    C0U11781   8.671   0.446   7.680
    1STR    C0V11782   8.686   0.317   7.735
    1STR    C0W11783   8.632   0.290   7.874
    1STR    C0X11784   8.748   0.216   7.657
    1STR    N0Y11785   8.765   0.087   7.706
    1STR   BCK211786   8.830   0.048   7.816
    1STR    O1011787   8.896   0.122   7.889
    1STR    C1311788   8.785   0.244   7.523
    1STR    C1411789   8.633   0.388   5.639
    1STR    C1511790   8.620   0.409   5.501
    1STR    C1611791   8.667   0.315   5.407
    1STR    C1711792   8.641   0.345   5.261
    1STR    H1B11793   8.745  17.437   5.418
    1STR    H1C11794   8.795   0.089   5.629
    1STR    H1D11795   8.749   0.158   5.855
    1STR    H1E11796   8.703   0.435   6.164
    1STR    H1F11797   8.508   0.205   6.223
    1STR    H1G11798   8.508   0.363   6.301
    1STR    H1H11799   8.470   0.350   6.130
    1STR    H1I11800   8.877   0.288   6.259
    1STR    H1J11801   8.755   0.170   6.306
    1STR    H1K11802   8.835   0.210   6.531
    1STR    H1M11803   8.956   0.491   6.495
    1STR    H1N11804   9.020   0.343   6.424
    1STR    H1O11805   9.024   0.366   6.597
    1STR    H1P11806   8.745   0.478   6.647
    1STR    H1Q11807   8.653   0.329   6.652
    1STR    H1R11808   8.747   0.475   6.887
    1STR    H1S11809   8.614   0.312   7.028
    1STR    H1T11810   8.677   0.179   6.932
    1STR    H1U11811   8.569   0.298   6.860
    1STR    H1V11812   8.975   0.407   6.963
    1STR    H1W11813   8.917   0.249   7.004
    1STR    H1X11814   8.797   0.503   7.310
    1STR    H1Y11815   8.696   0.573   7.510
    1STR    H1Z11816   8.626   0.524   7.739
    1STR    H2011817   8.593   0.188   7.882
    1STR    H2111818   8.710   0.302   7.949
    1STR    H2211819   8.550   0.357   7.899
    1STR    H2311820   8.732   0.011   7.649
    1STR    H2711821   8.829   0.165   7.465
    1STR    H2811822   8.590   0.462   5.704
    1STR    H2911823   8.569   0.498   5.468
    1STR    H2A11824   8.731   0.385   5.215
    1STR    H2B11825   8.563   0.421   5.250
    1STR    H2C11826   8.608   0.257   5.207
    1STR   BCK111827   8.768  17.396   9.622
    1STR    O0311828   8.829  17.294   9.591
    1STR    N0411829   8.685  17.407   9.727
    1STR    C0511830   8.640  17.306   9.813
    1STR    C0611831   8.645  17.326   9.954
    1STR    C0711832   8.592  17.230  10.046
    1STR    N0811833   8.595  17.255  10.185
    1STR    C0911834   8.553  17.179  10.288
    1STR    O0A11835   8.507  17.066  10.278
    1STR    O0B11836   8.569  17.243  10.407
    1STR    C0C11837   8.536  17.174  10.529
    1STR    C0D11838   8.654  17.083  10.569
    1STR    C0E11839   8.500  17.272  10.643
    1STR    O0F11840   8.467  17.199  10.761
    1STR    C0G11841   8.430  17.277  10.875
    1STR    C0H11842   8.284  17.323  10.861
    1STR    C0I11843   8.449  17.192  11.003
    1STR    O0J11844   8.425  17.273  11.118
    1STR    C0K11845   8.435  17.207  11.245
    1STR    C0M11846   8.582  17.182  11.281
    1STR    C0N11847   8.367  17.298  11.349
    1STR    O0O11848   8.356  17.234  11.476
    1STR    C0P11849   8.435  17.270  11.579
    1STR    O0Q11850   8.526  17.352  11.574
    1STR    N0R11851   8.398  17.201  11.687
    1STR    C0S11852   8.447  17.197  11.818
    1STR    C0T11853   8.378  17.112  11.907
    1STR    C0U11854   8.423  17.095  12.039
    1STR    C0V11855   8.538  17.161  12.085
    1STR    C0W11856   8.591  17.125  12.222
    1STR    C0X11857   8.605  17.253  12.000
    1STR    N0Y11858   8.722  17.319  12.040
    1STR   BCK211859   8.740  17.396  12.148
    1STR    O1011860   8.653  17.425  12.229
    1STR    C1311861   8.560  17.268  11.866
    1STR    C1411862   8.537  17.112   9.991
    1STR    C1511863   8.530  17.092   9.852
    1STR    C1611864   8.578  17.189   9.763
    1STR    C1711865   8.556  17.166   9.614
    1STR    H1B11866   8.651   0.060   9.743
    1STR    H1C11867   8.689  17.416   9.992
    1STR    H1D11868   8.633  17.343  10.216
    1STR    H1E11869   8.448  17.112  10.513
    1STR    H1F11870   8.744  17.141  10.589
    1STR    H1G11871   8.630  17.027  10.660
    1STR    H1H11872   8.676  17.011  10.491
    1STR    H1I11873   8.416  17.334  10.611
    1STR    H1J11874   8.584  17.339  10.663
    1STR    H1K11875   8.496  17.364  10.884
    1STR    H1M11876   8.217  17.237  10.849
    1STR    H1N11877   8.269  17.389  10.777
    1STR    H1O11878   8.251  17.377  10.950
    1STR    H1P11879   8.381  17.106  11.001
    1STR    H1Q11880   8.550  17.152  11.004
    1STR    H1R11881   8.381  17.112  11.242
    1STR    H1S11882   8.591  17.136  11.380
    1STR    H1T11883   8.638  17.276  11.285
    1STR    H1U11884   8.633  17.116  11.211
    1STR    H1V11885   8.265  17.320  11.316
    1STR    H1W11886   8.417  17.394  11.356
    1STR    H1X11887   8.321  17.141  11.665
    1STR    H1Y11888   8.291  17.057  11.876
    1STR    H1Z11889   8.371  17.027  12.104
    1STR    H2011890   8.697  17.103  12.216
    1STR    H2111891   8.575  17.206  12.294
    1STR    H2211892   8.542  17.037  12.263
    1STR    H2311893   8.802  17.312  11.980
    1STR    H2711894   8.613  17.335  11.799
    1STR    H2811895   8.495  17.034  10.052
    1STR    H2911896   8.484  17.002   9.815
    1STR    H2A11897   8.536  17.259   9.562
    1STR    H2B11898   8.472  17.100   9.597
    1STR    H2C11899   8.645  17.120   9.570
    1STR   BCK111900   8.806   0.064  13.985
    1STR    O0311901   8.826   0.184  13.968
    1STR    N0411902   8.856  17.434  14.087
    1STR    C0511903   8.944   0.043  14.183
    1STR    C0611904   8.913   0.032  14.321
    1STR    C0711905   9.004   0.077  14.421
    1STR    N0811906   8.972   0.060  14.557
    1STR    C0911907   9.046   0.083  14.666
    1STR    O0A11908   9.160   0.129  14.665
    1STR    O0B11909   8.980   0.049  14.779
    1STR    C0C11910   9.041   0.077  14.906
    1STR    C0D11911   9.010   0.222  14.946
    1STR    C0E11912   8.996  17.417  15.013
    1STR    O0F11913   9.069   0.005  15.133
    1STR    C0G11914   9.044  17.360  15.244
    1STR    C0H11915   9.121  17.229  15.227
    1STR    C0I11916   9.089  17.435  15.370
    1STR    O0J11917   9.055  17.358  15.485
    1STR    C0K11918   9.095  17.413  15.611
    1STR    C0M11919   9.001   0.088  15.652
    1STR    C0N11920   9.091  17.297  15.712
    1STR    O0O11921   9.149  17.335  15.836
    1STR    C0P11922   9.071  17.363  15.942
    1STR    O0Q11923   8.949  17.359  15.944
    1STR    N0R11924   9.149  17.398  16.044
    1STR    C0S11925   9.117   0.002  16.173
    1STR    C0T11926   9.217   0.070  16.245
    1STR    C0U11927   9.190   0.122  16.373
    1STR    C0V11928   9.064   0.105  16.432
    1STR    C0W11929   9.038   0.168  16.568
    1STR    C0X11930   8.965   0.030  16.364
    1STR    N0Y11931   8.842   0.008  16.425
    1STR   BCK211932   8.816  17.363  16.525
    1STR    O1011933   8.717  17.380  16.594
    1STR    C1311934   8.991  17.420  16.235
    1STR    C1411935   9.124   0.137  14.377
    1STR    C1511936   9.157   0.145  14.242
    1STR    C1611937   9.070   0.095  14.144
    1STR    C1711938   9.116   0.096  13.999
    1STR    H1B11939   8.834  17.336  14.088
    1STR    H1C11940   8.819  17.429  14.349
    1STR    H1D11941   8.881   0.023  14.579
    1STR    H1E11942   9.150   0.065  14.897
    1STR    H1F11943   8.903   0.238  14.958
    1STR    H1G11944   9.059   0.248  15.040
    1STR    H1H11945   9.046   0.292  14.870
    1STR    H1I11946   9.016  17.315  14.979
    1STR    H1J11947   8.889  17.425  15.031
    1STR    H1K11948   8.937  17.341  15.253
    1STR    H1M11949   9.228  17.247  15.214
    1STR    H1N11950   9.086  17.171  15.141
    1STR    H1O11951   9.109  17.165  15.315
    1STR    H1P11952   9.197   0.014  15.366
    1STR    H1Q11953   9.040   0.093  15.374
    1STR    H1R11954   9.198   0.009  15.604
    1STR    H1S11955   9.028   0.127  15.750
    1STR    H1T11956   8.898   0.053  15.657
    1STR    H1U11957   9.005   0.171  15.582
    1STR    H1V11958   9.150  17.213  15.674
    1STR    H1W11959   8.989  17.259  15.724
    1STR    H1X11960   9.246  17.396  16.018
    1STR    H1Y11961   9.314   0.087  16.202
    1STR    H1Z11962   9.267   0.177  16.425
    1STR    H2011963   8.932   0.189  16.583
    1STR    H2111964   9.071   0.102  16.647
    1STR    H2211965   9.091   0.263  16.578
    1STR    H2311966   8.763   0.064  16.397
    1STR    H2711967   8.914  17.365  16.184
    1STR    H2811968   9.197   0.177  14.446
    1STR    H2911969   9.252   0.189  14.213
    1STR    H2A11970   9.079   0.009  13.945
    1STR    H2B11971   9.225   0.095  13.992
    1STR    H2C11972   9.080   0.186  13.948
    1STR   BCK111973   8.736   4.434   0.890
    1STR    O0311974   8.679   4.334   0.848
    1STR    N0411975   8.708   4.497   1.005
    1STR    C0511976   8.598   4.485   1.091
    1STR    C0611977   8.619   4.479   1.232
    1STR    C0711978   8.511   4.484   1.325
    1STR    N0811979   8.535   4.484   1.464
    1STR    C0911980   8.454   4.518   1.566
    1STR    O0A11981   8.339   4.559   1.553
    1STR    O0B11982   8.515   4.503   1.687
    1STR    C0C11983   8.441   4.527   1.809
    1STR    C0D11984   8.361   4.400   1.844
    1STR    C0E11985   8.534   4.568   1.926
    1STR    O0F11986   8.457   4.593   2.045
    1STR    C0G11987   8.531   4.636   2.159
    1STR    C0H11988   8.564   4.785   2.146
    1STR    C0I11989   8.448   4.610   2.287
    1STR    O0J11990   8.525   4.642   2.404
    1STR    C0K11991   8.461   4.624   2.531
    1STR    C0M11992   8.452   4.475   2.566
    1STR    C0N11993   8.544   4.701   2.636
    1STR    O0O11994   8.480   4.701   2.764
    1STR    C0P11995   8.531   4.633   2.868
    1STR    O0Q11996   8.630   4.560   2.863
    1STR    N0R11997   8.458   4.656   2.977
    1STR    C0S11998   8.467   4.607   3.109
    1STR    C0T11999   8.362   4.642   3.196
    1STR    C0U12000   8.358   4.593   3.328
    1STR    C0V12001   8.460   4.508   3.376
    1STR    C0W12002   8.443   4.447   3.515
    1STR    C0X12003   8.570   4.476   3.292
    1STR    N0Y12004   8.668   4.386   3.333
    1STR   BCK212005   8.739   4.382   3.446
    1STR    O1012006   8.751   4.475   3.526
    1STR    C1312007   8.571   4.525   3.159
    1STR    C1412008   8.379   4.489   1.272
    1STR    C1512009   8.357   4.494   1.133
    1STR    C1612010   8.465   4.495   1.043
    1STR    C1712011   8.434   4.513   0.895
    1STR    H1B12012   8.775   4.568   1.028
    1STR    H1C12013   8.720   4.474   1.269
    1STR    H1D12014   8.626   4.456   1.496
    1STR    H1E12015   8.371   4.609   1.793
    1STR    H1F12016   8.426   4.315   1.862
    1STR    H1G12017   8.301   4.416   1.934
    1STR    H1H12018   8.292   4.373   1.764
    1STR    H1I12019   8.588   4.658   1.896
    1STR    H1J12020   8.608   4.490   1.944
    1STR    H1K12021   8.623   4.578   2.168
    1STR    H1M12022   8.474   4.845   2.133
    1STR    H1N12023   8.630   4.806   2.062
    1STR    H1O12024   8.614   4.822   2.235
    1STR    H1P12025   8.356   4.669   2.285
    1STR    H1Q12026   8.418   4.505   2.289
    1STR    H1R12027   8.361   4.668   2.528
    1STR    H1S12028   8.408   4.461   2.665
    1STR    H1T12029   8.551   4.429   2.568
    1STR    H1U12030   8.390   4.419   2.496
    1STR    H1V12031   8.555   4.805   2.606
    1STR    H1W12032   8.645   4.661   2.642
    1STR    H1X12033   8.383   4.719   2.956
    1STR    H1Y12034   8.281   4.706   3.164
    1STR    H1Z12035   8.275   4.618   3.392
    1STR    H2012036   8.483   4.346   3.518
    1STR    H2112037   8.496   4.507   3.588
    1STR    H2212038   8.339   4.441   3.543
    1STR    H2312039   8.689   4.311   3.269
    1STR    H2712040   8.653   4.498   3.094
    1STR    H2812041   8.293   4.490   1.336
    1STR    H2912042   8.256   4.502   1.097
    1STR    H2A12043   8.507   4.578   0.847
    1STR    H2B12044   8.336   4.558   0.881
    1STR    H2C12045   8.434   4.416   0.844
    1STR   BCK112046   8.846   4.350   5.272
    1STR    O0312047   8.965   4.326   5.257
    1STR    N0412048   8.769   4.296   5.367
    1STR    C0512049   8.806   4.196   5.457
    1STR    C0612050   8.792   4.216   5.597
    1STR    C0712051   8.821   4.113   5.690
    1STR    N0812052   8.802   4.135   5.828
    1STR    C0912053   8.839   4.061   5.933
    1STR    O0A12054   8.905   3.958   5.926
    1STR    O0B12055   8.794   4.113   6.049
    1STR    C0C12056   8.826   4.048   6.173
    1STR    C0D12057   8.968   4.090   6.216
    1STR    C0E12058   8.722   4.081   6.282
    1STR    O0F12059   8.757   4.011   6.401
    1STR    C0G12060   8.670   4.032   6.513
    1STR    C0H12061   8.546   3.943   6.498
    1STR    C0I12062   8.748   3.997   6.641
    1STR    O0J12063   8.670   4.032   6.755
    1STR    C0K12064   8.726   3.999   6.882
    1STR    C0M12065   8.839   4.097   6.918
    1STR    C0N12066   8.613   4.005   6.986
    1STR    O0O12067   8.657   3.950   7.109
    1STR    C0P12068   8.679   4.026   7.217
    1STR    O0Q12069   8.662   4.147   7.225
    1STR    N0R12070   8.724   3.946   7.314
    1STR    C0S12071   8.760   3.968   7.447
    1STR    C0T12072   8.802   3.853   7.516
    1STR    C0U12073   8.836   3.861   7.652
    1STR    C0V12074   8.827   3.982   7.722
    1STR    C0W12075   8.852   3.976   7.870
    1STR    C0X12076   8.788   4.101   7.654
    1STR    N0Y12077   8.763   4.222   7.721
    1STR   BCK212078   8.823   4.290   7.819
    1STR    O1012079   8.766   4.386   7.869
    1STR    C1312080   8.754   4.092   7.516
    1STR    C1412081   8.865   3.989   5.639
    1STR    C1512082   8.877   3.967   5.501
    1STR    C1612083   8.846   4.069   5.409
    1STR    C1712084   8.851   4.037   5.261
    1STR    H1B12085   8.674   4.327   5.367
    1STR    H1C12086   8.759   4.313   5.632
    1STR    H1D12087   8.755   4.219   5.856
    1STR    H1E12088   8.824   3.940   6.158
    1STR    H1F12089   8.975   4.197   6.233
    1STR    H1G12090   8.997   4.039   6.309
    1STR    H1H12091   9.042   4.063   6.141
    1STR    H1I12092   8.623   4.051   6.247
    1STR    H1J12093   8.719   4.189   6.300
    1STR    H1K12094   8.641   4.137   6.519
    1STR    H1M12095   8.573   3.838   6.488
    1STR    H1N12096   8.485   3.970   6.412
    1STR    H1O12097   8.482   3.952   6.586
    1STR    H1P12098   8.774   3.891   6.642
    1STR    H1Q12099   8.842   4.053   6.641
    1STR    H1R12100   8.765   3.897   6.879
    1STR    H1S12101   8.880   4.075   7.017
    1STR    H1T12102   8.802   4.200   6.921
    1STR    H1U12103   8.922   4.093   6.848
    1STR    H1V12104   8.529   3.945   6.951
    1STR    H1W12105   8.574   4.106   6.997
    1STR    H1X12106   8.728   3.852   7.280
    1STR    H1Y12107   8.807   3.757   7.468
    1STR    H1Z12108   8.865   3.771   7.704
    1STR    H2012109   8.958   3.993   7.888
    1STR    H2112110   8.792   4.049   7.925
    1STR    H2212111   8.828   3.878   7.911
    1STR    H2312112   8.680   4.271   7.692
    1STR    H2712113   8.721   4.180   7.463
    1STR    H2812114   8.888   3.905   5.703
    1STR    H2912115   8.910   3.871   5.465
    1STR    H2A12116   8.770   4.085   5.207
    1STR    H2B12117   8.844   3.930   5.243
    1STR    H2C12118   8.946   4.072   5.218
    1STR   BCK112119   8.799   4.416   9.603
    1STR    O0312120   8.716   4.490   9.552
    1STR    N0412121   8.856   4.435   9.723
    1STR    C0512122   8.842   4.540   9.814
    1STR    C0612123   8.833   4.510   9.953
    1STR    C0712124   8.830   4.613  10.052
    1STR    N0812125   8.828   4.579  10.189
    1STR    C0912126   8.858   4.656  10.295
    1STR    O0A12127   8.894   4.773  10.289
    1STR    O0B12128   8.844   4.588  10.411
    1STR    C0C12129   8.859   4.658  10.536
    1STR    C0D12130   8.725   4.724  10.574
    1STR    C0E12131   8.910   4.565  10.648
    1STR    O0F12132   8.929   4.642  10.766
    1STR    C0G12133   8.980   4.572  10.880
    1STR    C0H12134   9.131   4.552  10.865
    1STR    C0I12135   8.947   4.655  11.005
    1STR    O0J12136   8.989   4.583  11.122
    1STR    C0K12137   8.969   4.650  11.246
    1STR    C0M12138   8.821   4.639  11.288
    1STR    C0N12139   9.062   4.581  11.349
    1STR    O0O12140   9.062   4.650  11.474
    1STR    C0P12141   8.997   4.599  11.579
    1STR    O0Q12142   8.927   4.498  11.576
    1STR    N0R12143   9.018   4.675  11.687
    1STR    C0S12144   8.970   4.664  11.818
    1STR    C0T12145   8.988   4.774  11.905
    1STR    C0U12146   8.938   4.770  12.036
    1STR    C0V12147   8.870   4.657  12.084
    1STR    C0W12148   8.808   4.662  12.223
    1STR    C0X12149   8.856   4.543  12.001
    1STR    N0Y12150   8.784   4.430  12.039
    1STR   BCK212151   8.802   4.343  12.139
    1STR    O1012152   8.729   4.246  12.148
    1STR    C1312153   8.905   4.549  11.868
    1STR    C1412154   8.829   4.747  10.007
    1STR    C1512155   8.841   4.778   9.871
    1STR    C1612156   8.851   4.676   9.774
    1STR    C1712157   8.878   4.719   9.631
    1STR    H1B12158   8.921   4.362   9.748
    1STR    H1C12159   8.830   4.407   9.984
    1STR    H1D12160   8.805   4.485  10.214
    1STR    H1E12161   8.934   4.737  10.525
    1STR    H1F12162   8.647   4.649  10.588
    1STR    H1G12163   8.734   4.781  10.666
    1STR    H1H12164   8.692   4.793  10.496
    1STR    H1I12165   9.003   4.519  10.616
    1STR    H1J12166   8.838   4.484  10.666
    1STR    H1K12167   8.930   4.475  10.889
    1STR    H1M12168   9.183   4.647  10.851
    1STR    H1N12169   9.157   4.488  10.780
    1STR    H1O12170   9.173   4.504  10.954
    1STR    H1P12171   8.997   4.752  11.000
    1STR    H1Q12172   8.840   4.674  11.009
    1STR    H1R12173   8.998   4.755  11.239
    1STR    H1S12174   8.804   4.684  11.386
    1STR    H1T12175   8.790   4.534  11.295
    1STR    H1U12176   8.754   4.689  11.218
    1STR    H1V12177   9.164   4.582  11.311
    1STR    H1W12178   9.036   4.476  11.360
    1STR    H1X12179   9.076   4.754  11.664
    1STR    H1Y12180   9.038   4.863  11.871
    1STR    H1Z12181   8.950   4.856  12.100
    1STR    H2012182   8.718   4.601  12.229
    1STR    H2112183   8.879   4.626  12.298
    1STR    H2212184   8.780   4.764  12.250
    1STR    H2312185   8.710   4.400  11.977
    1STR    H2712186   8.892   4.462  11.806
    1STR    H2812187   8.823   4.830  10.075
    1STR    H2912188   8.845   4.881   9.841
    1STR    H2A12189   8.941   4.646   9.579
    1STR    H2B12190   8.931   4.814   9.628
    1STR    H2C12191   8.785   4.731   9.576
    1STR   BCK112192   8.727   4.352  13.980
    1STR    O0312193   8.741   4.236  13.942
    1STR    N0412194   8.658   4.390  14.089
    1STR    C0512195   8.576   4.314  14.174
    1STR    C0612196   8.589   4.327  14.315
    1STR    C0712197   8.502   4.260  14.406
    1STR    N0812198   8.515   4.280  14.545
    1STR    C0912199   8.439   4.238  14.647
    1STR    O0A12200   8.337   4.171  14.635
    1STR    O0B12201   8.486   4.280  14.767
    1STR    C0C12202   8.421   4.237  14.889
    1STR    C0D12203   8.471   4.097  14.926
    1STR    C0E12204   8.444   4.338  15.004
    1STR    O0F12205   8.377   4.293  15.123
    1STR    C0G12206   8.387   4.378  15.237
    1STR    C0H12207   8.288   4.495  15.223
    1STR    C0I12208   8.357   4.296  15.365
    1STR    O0J12209   8.380   4.376  15.481
    1STR    C0K12210   8.354   4.315  15.607
    1STR    C0M12211   8.466   4.216  15.643
    1STR    C0N12212   8.344   4.427  15.712
    1STR    O0O12213   8.305   4.378  15.840
    1STR    C0P12214   8.393   4.370  15.942
    1STR    O0Q12215   8.512   4.397  15.935
    1STR    N0R12216   8.328   4.329  16.052
    1STR    C0S12217   8.372   4.303  16.182
    1STR    C0T12218   8.276   4.253  16.272
    1STR    C0U12219   8.313   4.217  16.403
    1STR    C0V12220   8.446   4.230  16.447
    1STR    C0W12221   8.481   4.176  16.585
    1STR    C0X12222   8.543   4.288  16.361
    1STR    N0Y12223   8.676   4.303  16.399
    1STR   BCK212224   8.727   4.363  16.507
    1STR    O1012225   8.661   4.413  16.598
    1STR    C1312226   8.505   4.321  16.228
    1STR    C1412227   8.401   4.178  14.349
    1STR    C1512228   8.386   4.166  14.211
    1STR    C1612229   8.471   4.235  14.122
    1STR    C1712230   8.440   4.226  13.973
    1STR    H1B12231   8.668   4.488  14.110
    1STR    H1C12232   8.668   4.389  14.354
    1STR    H1D12233   8.594   4.333  14.577
    1STR    H1E12234   8.313   4.233  14.872
    1STR    H1F12235   8.579   4.097  14.945
    1STR    H1G12236   8.421   4.061  15.016
    1STR    H1H12237   8.451   4.025  14.847
    1STR    H1I12238   8.406   4.436  14.974
    1STR    H1J12239   8.551   4.349  15.023
    1STR    H1K12240   8.489   4.416  15.246
    1STR    H1M12241   8.186   4.459  15.210
    1STR    H1N12242   8.312   4.559  15.139
    1STR    H1O12243   8.290   4.557  15.313
    1STR    H1P12244   8.254   4.259  15.362
    1STR    H1Q12245   8.422   4.208  15.366
    1STR    H1R12246   8.258   4.263  15.604
    1STR    H1S12247   8.450   4.172  15.741
    1STR    H1T12248   8.563   4.266  15.646
    1STR    H1U12249   8.473   4.133  15.572
    1STR    H1V12250   8.268   4.499  15.681
    1STR    H1W12251   8.438   4.484  15.718
    1STR    H1X12252   8.231   4.315  16.032
    1STR    H1Y12253   8.174   4.239  16.243
    1STR    H1Z12254   8.238   4.176  16.470
    1STR    H2012255   8.578   4.127  16.583
    1STR    H2112256   8.483   4.256  16.659
    1STR    H2212257   8.408   4.102  16.619
    1STR    H2312258   8.746   4.271  16.333
    1STR    H2712259   8.580   4.361  16.162
    1STR    H2812260   8.332   4.122  14.411
    1STR    H2912261   8.306   4.104  14.172
    1STR    H2A12262   8.460   4.321  13.923
    1STR    H2B12263   8.335   4.201  13.956
    1STR    H2C12264   8.501   4.148  13.927
    1STR   BCK112265   8.836   8.782   0.911
    1STR    O0312266   8.929   8.861   0.898
    1STR    N0412267   8.830   8.689   1.007
    1STR    C0512268   8.929   8.663   1.101
    1STR    C0612269   8.899   8.669   1.240
    1STR    C0712270   8.997   8.637   1.338
    1STR    N0812271   8.963   8.640   1.474
    1STR    C0912272   9.041   8.627   1.582
    1STR    O0A12273   9.163   8.619   1.580
    1STR    O0B12274   8.968   8.626   1.696
    1STR    C0C12275   9.035   8.615   1.822
    1STR    C0D12276   9.085   8.754   1.865
    1STR    C0E12277   8.943   8.553   1.928
    1STR    O0F12278   9.019   8.537   2.048
    1STR    C0G12279   8.950   8.479   2.158
    1STR    C0H12280   8.945   8.326   2.141
    1STR    C0I12281   9.026   8.517   2.287
    1STR    O0J12282   8.953   8.470   2.400
    1STR    C0K12283   9.015   8.489   2.526
    1STR    C0M12284   9.003   8.636   2.570
    1STR    C0N12285   8.944   8.394   2.624
    1STR    O0O12286   9.014   8.386   2.749
    1STR    C0P12287   8.972   8.456   2.855
    1STR    O0Q12288   8.872   8.527   2.859
    1STR    N0R12289   9.060   8.440   2.953
    1STR    C0S12290   9.066   8.504   3.077
    1STR    C0T12291   9.194   8.523   3.133
    1STR    C0U12292   9.210   8.596   3.252
    1STR    C0V12293   9.098   8.649   3.319
    1STR    C0W12294   9.122   8.738   3.439
    1STR    C0X12295   8.967   8.621   3.270
    1STR    N0Y12296   8.855   8.668   3.338
    1STR   BCK212297   8.808   8.626   3.456
    1STR    O1012298   8.737   8.701   3.521
    1STR    C1312299   8.953   8.552   3.148
    1STR    C1412300   9.126   8.600   1.292
    1STR    C1512301   9.155   8.592   1.155
    1STR    C1612302   9.057   8.620   1.059
    1STR    C1712303   9.091   8.599   0.912
    1STR    H1B12304   8.749   8.629   1.004
    1STR    H1C12305   8.800   8.699   1.270
    1STR    H1D12306   8.866   8.653   1.498
    1STR    H1E12307   9.121   8.549   1.811
    1STR    H1F12308   9.003   8.824   1.878
    1STR    H1G12309   9.140   8.748   1.959
    1STR    H1H12310   9.153   8.796   1.790
    1STR    H1I12311   8.907   8.456   1.893
    1STR    H1J12312   8.856   8.616   1.946
    1STR    H1K12313   8.849   8.520   2.166
    1STR    H1M12314   9.045   8.284   2.129
    1STR    H1N12315   8.886   8.297   2.055
    1STR    H1O12316   8.899   8.279   2.228
    1STR    H1P12317   9.127   8.475   2.285
    1STR    H1Q12318   9.037   8.626   2.291
    1STR    H1R12319   9.121   8.460   2.521
    1STR    H1S12320   9.047   8.652   2.669
    1STR    H1T12321   8.899   8.667   2.576
    1STR    H1U12322   9.054   8.704   2.502
    1STR    H1V12323   8.943   8.293   2.582
    1STR    H1W12324   8.840   8.422   2.638
    1STR    H1X12325   9.135   8.379   2.927
    1STR    H1Y12326   9.282   8.486   3.083
    1STR    H1Z12327   9.309   8.613   3.291
    1STR    H2012328   9.034   8.798   3.464
    1STR    H2112329   9.149   8.678   3.526
    1STR    H2212330   9.203   8.807   3.419
    1STR    H2312331   8.804   8.744   3.298
    1STR    H2712332   8.853   8.535   3.108
    1STR    H2812333   9.206   8.575   1.360
    1STR    H2912334   9.254   8.562   1.124
    1STR    H2A12335   9.006   8.559   0.857
    1STR    H2B12336   9.174   8.529   0.901
    1STR    H2C12337   9.121   8.694   0.867
    1STR   BCK112338   8.784   8.817   5.245
    1STR    O0312339   8.691   8.752   5.198
    1STR    N0412340   8.784   8.879   5.364
    1STR    C0512341   8.680   8.912   5.452
    1STR    C0612342   8.697   8.893   5.592
    1STR    C0712343   8.604   8.945   5.687
    1STR    N0812344   8.627   8.930   5.826
    1STR    C0912345   8.577   9.001   5.929
    1STR    O0A12346   8.502   9.097   5.917
    1STR    O0B12347   8.621   8.955   6.049
    1STR    C0C12348   8.572   9.013   6.171
    1STR    C0D12349   8.437   8.947   6.207
    1STR    C0E12350   8.673   8.997   6.287
    1STR    O0F12351   8.623   9.059   6.406
    1STR    C0G12352   8.708   9.055   6.521
    1STR    C0H12353   8.817   9.163   6.507
    1STR    C0I12354   8.624   9.078   6.649
    1STR    O0J12355   8.707   9.064   6.765
    1STR    C0K12356   8.644   9.084   6.891
    1STR    C0M12357   8.557   8.963   6.928
    1STR    C0N12358   8.755   9.106   6.997
    1STR    O0O12359   8.700   9.142   7.124
    1STR    C0P12360   8.709   9.059   7.230
    1STR    O0Q12361   8.756   8.946   7.227
    1STR    N0R12362   8.658   9.119   7.337
    1STR    C0S12363   8.640   9.075   7.469
    1STR    C0T12364   8.562   9.156   7.554
    1STR    C0U12365   8.535   9.117   7.687
    1STR    C0V12366   8.586   8.996   7.738
    1STR    C0W12367   8.545   8.953   7.878
    1STR    C0X12368   8.670   8.916   7.656
    1STR    N0Y12369   8.719   8.794   7.701
    1STR   BCK212370   8.792   8.767   7.810
    1STR    O1012371   8.842   8.852   7.884
    1STR    C1312372   8.694   8.955   7.522
    1STR    C1412373   8.491   9.013   5.637
    1STR    C1512374   8.473   9.032   5.499
    1STR    C1612375   8.567   8.984   5.406
    1STR    C1712376   8.547   9.019   5.259
    1STR    H1B12377   8.875   8.914   5.389
    1STR    H1C12378   8.784   8.840   5.627
    1STR    H1D12379   8.690   8.858   5.856
    1STR    H1E12380   8.556   9.120   6.156
    1STR    H1F12381   8.447   8.840   6.224
    1STR    H1G12382   8.395   8.992   6.298
    1STR    H1H12383   8.364   8.962   6.128
    1STR    H1I12384   8.767   9.044   6.257
    1STR    H1J12385   8.694   8.892   6.305
    1STR    H1K12386   8.755   8.957   6.529
    1STR    H1M12387   8.772   9.262   6.494
    1STR    H1N12388   8.883   9.145   6.422
    1STR    H1O12389   8.879   9.167   6.596
    1STR    H1P12390   8.579   9.177   6.646
    1STR    H1Q12391   8.543   9.006   6.651
    1STR    H1R12392   8.582   9.175   6.888
    1STR    H1S12393   8.513   8.975   7.027
    1STR    H1T12394   8.617   8.872   6.930
    1STR    H1U12395   8.475   8.948   6.858
    1STR    H1V12396   8.819   9.188   6.965
    1STR    H1W12397   8.819   9.018   7.003
    1STR    H1X12398   8.625   9.211   7.315
    1STR    H1Y12399   8.519   9.249   7.519
    1STR    H1Z12400   8.472   9.179   7.748
    1STR    H2012401   8.532   8.844   7.883
    1STR    H2112402   8.621   8.981   7.950
    1STR    H2212403   8.450   8.998   7.907
    1STR    H2312404   8.702   8.713   7.643
    1STR    H2712405   8.757   8.892   7.461
    1STR    H2812406   8.416   9.054   5.703
    1STR    H2912407   8.387   9.088   5.465
    1STR    H2A12408   8.641   9.048   5.213
    1STR    H2B12409   8.478   9.102   5.247
    1STR    H2C12410   8.506   8.933   5.206
    1STR   BCK112411   8.803   8.675   9.627
    1STR    O0312412   8.893   8.595   9.604
    1STR    N0412413   8.716   8.664   9.728
    1STR    C0512414   8.699   8.556   9.815
    1STR    C0612415   8.697   8.577   9.956
    1STR    C0712416   8.674   8.471  10.048
    1STR    N0812417   8.668   8.497  10.186
    1STR    C0912418   8.657   8.413  10.290
    1STR    O0A12419   8.655   8.290  10.281
    1STR    O0B12420   8.648   8.479  10.408
    1STR    C0C12421   8.640   8.404  10.531
    1STR    C0D12422   8.782   8.361  10.572
    1STR    C0E12423   8.572   8.485  10.642
    1STR    O0F12424   8.564   8.406  10.761
    1STR    C0G12425   8.503   8.468  10.874
    1STR    C0H12426   8.350   8.460  10.860
    1STR    C0I12427   8.550   8.395  11.002
    1STR    O0J12428   8.501   8.464  11.117
    1STR    C0K12429   8.532   8.405  11.243
    1STR    C0M12430   8.679   8.431  11.280
    1STR    C0N12431   8.437   8.469  11.347
    1STR    O0O12432   8.446   8.403  11.473
    1STR    C0P12433   8.508   8.460  11.577
    1STR    O0Q12434   8.569   8.567  11.575
    1STR    N0R12435   8.493   8.381  11.683
    1STR    C0S12436   8.538   8.388  11.815
    1STR    C0T12437   8.494   8.286  11.901
    1STR    C0U12438   8.539   8.280  12.034
    1STR    C0V12439   8.629   8.375  12.083
    1STR    C0W12440   8.686   8.352  12.222
    1STR    C0X12441   8.671   8.483  12.001
    1STR    N0Y12442   8.765   8.576  12.045
    1STR   BCK212443   8.760   8.653  12.154
    1STR    O1012444   8.666   8.659  12.232
    1STR    C1312445   8.626   8.488  11.866
    1STR    C1412446   8.653   8.342   9.994
    1STR    C1512447   8.653   8.320   9.855
    1STR    C1612448   8.673   8.426   9.765
    1STR    C1712449   8.661   8.397   9.616
    1STR    H1B12450   8.653   8.742   9.737
    1STR    H1C12451   8.715   8.677   9.993
    1STR    H1D12452   8.673   8.593  10.216
    1STR    H1E12453   8.580   8.315  10.514
    1STR    H1F12454   8.847   8.447  10.591
    1STR    H1G12455   8.779   8.301  10.663
    1STR    H1H12456   8.829   8.300  10.495
    1STR    H1I12457   8.472   8.514  10.609
    1STR    H1J12458   8.627   8.577  10.662
    1STR    H1K12459   8.535   8.572  10.882
    1STR    H1M12460   8.317   8.357  10.848
    1STR    H1N12461   8.314   8.518  10.775
    1STR    H1O12462   8.301   8.501  10.949
    1STR    H1P12463   8.516   8.291  11.001
    1STR    H1Q12464   8.659   8.392  11.003
    1STR    H1R12465   8.512   8.298  11.240
    1STR    H1S12466   8.702   8.390  11.378
    1STR    H1T12467   8.700   8.538  11.284
    1STR    H1U12468   8.748   8.386  11.210
    1STR    H1V12469   8.334   8.459  11.312
    1STR    H1W12470   8.454   8.577  11.356
    1STR    H1X12471   8.438   8.301  11.658
    1STR    H1Y12472   8.426   8.210  11.867
    1STR    H1Z12473   8.506   8.199  12.097
    1STR    H2012474   8.795   8.357  12.218
    1STR    H2112475   8.650   8.427  12.293
    1STR    H2212476   8.659   8.255  12.262
    1STR    H2312477   8.846   8.591  11.987
    1STR    H2712478   8.660   8.568  11.802
    1STR    H2812479   8.634   8.256  10.056
    1STR    H2912480   8.635   8.220   9.818
    1STR    H2A12481   8.615   8.480   9.564
    1STR    H2B12482   8.600   8.308   9.598
    1STR    H2C12483   8.760   8.378   9.573
    1STR   BCK112484   8.800   8.769  13.977
    1STR    O0312485   8.765   8.884  13.949
    1STR    N0412486   8.869   8.737  14.087
    1STR    C0512487   8.922   8.825  14.181
    1STR    C0612488   8.896   8.804  14.319
    1STR    C0712489   8.955   8.886  14.419
    1STR    N0812490   8.933   8.858  14.555
    1STR    C0912491   8.998   8.904  14.663
    1STR    O0A12492   9.094   8.981  14.659
    1STR    O0B12493   8.947   8.853  14.777
    1STR    C0C12494   8.996   8.901  14.903
    1STR    C0D12495   8.918   9.027  14.942
    1STR    C0E12496   8.988   8.792  15.011
    1STR    O0F12497   9.047   8.845  15.130
    1STR    C0G12498   9.052   8.757  15.242
    1STR    C0H12499   9.170   8.659  15.225
    1STR    C0I12500   9.070   8.844  15.367
    1STR    O0J12501   9.066   8.761  15.483
    1STR    C0K12502   9.085   8.828  15.607
    1STR    C0M12503   8.956   8.900  15.649
    1STR    C0N12504   9.127   8.721  15.709
    1STR    O0O12505   9.167   8.779  15.833
    1STR    C0P12506   9.085   8.778  15.938
    1STR    O0Q12507   8.972   8.731  15.939
    1STR    N0R12508   9.145   8.838  16.041
    1STR    C0S12509   9.099   8.863  16.171
    1STR    C0T12510   9.169   8.958  16.248
    1STR    C0U12511   9.125   8.991  16.378
    1STR    C0V12512   9.012   8.928  16.434
    1STR    C0W12513   8.964   8.971  16.571
    1STR    C0X12514   8.945   8.828  16.360
    1STR    N0Y12515   8.835   8.761  16.413
    1STR   BCK212516   8.832   8.676  16.516
    1STR    O1012517   8.726   8.625  16.550
    1STR    C1312518   8.987   8.797  16.229
    1STR    C1412519   9.036   8.994  14.376
    1STR    C1512520   9.065   9.013  14.240
    1STR    C1612521   9.011   8.928  14.142
    1STR    C1712522   9.056   8.947  13.998
    1STR    H1B12523   8.891   8.639  14.096
    1STR    H1C12524   8.831   8.723  14.348
    1STR    H1D12525   8.860   8.794  14.578
    1STR    H1E12526   9.102   8.927  14.893
    1STR    H1F12527   8.812   9.005  14.955
    1STR    H1G12528   8.955   9.068  15.035
    1STR    H1H12529   8.928   9.104  14.866
    1STR    H1I12530   9.042   8.703  14.977
    1STR    H1J12531   8.884   8.763  15.029
    1STR    H1K12532   8.958   8.702  15.251
    1STR    H1M12533   9.264   8.712  15.212
    1STR    H1N12534   9.157   8.592  15.140
    1STR    H1O12535   9.180   8.596  15.314
    1STR    H1P12536   9.164   8.899  15.362
    1STR    H1Q12537   8.989   8.918  15.370
    1STR    H1R12538   9.167   8.900  15.599
    1STR    H1S12539   8.967   8.948  15.746
    1STR    H1T12540   8.873   8.829  15.657
    1STR    H1U12541   8.926   8.978  15.579
    1STR    H1V12542   9.212   8.665  15.670
    1STR    H1W12543   9.047   8.647  15.723
    1STR    H1X12544   9.236   8.871  16.016
    1STR    H1Y12545   9.255   9.009  16.209
    1STR    H1Z12546   9.179   9.065  16.435
    1STR    H2012547   8.855   8.963  16.579
    1STR    H2112548   9.008   8.908  16.649
    1STR    H2212549   8.990   9.075  16.592
    1STR    H2312550   8.746   8.770  16.365
    1STR    H2712551   8.934   8.722  16.174
    1STR    H2812552   9.081   9.063  14.445
    1STR    H2912553   9.130   9.094  14.211
    1STR    H2A12554   9.062   8.852  13.946
    1STR    H2B12555   9.154   8.993  13.994
    1STR    H2C12556   8.986   9.012  13.945
    1STR   BCK112557   8.721  13.124   0.894
    1STR    O0312558   8.689  13.013   0.853
    1STR    N0412559   8.675  13.182   1.006
    1STR    C0512560   8.571  13.143   1.092
    1STR    C0612561   8.590  13.146   1.233
    1STR    C0712562   8.484  13.121   1.325
    1STR    N0812563   8.506  13.129   1.464
    1STR    C0912564   8.418  13.135   1.566
    1STR    O0A12565   8.296  13.134   1.553
    1STR    O0B12566   8.480  13.143   1.687
    1STR    C0C12567   8.402  13.140   1.808
    1STR    C0D12568   8.369  12.994   1.844
    1STR    C0E12569   8.475  13.211   1.925
    1STR    O0F12570   8.394  13.208   2.044
    1STR    C0G12571   8.448  13.274   2.159
    1STR    C0H12572   8.428  13.426   2.145
    1STR    C0I12573   8.379  13.221   2.287
    1STR    O0J12574   8.441  13.277   2.403
    1STR    C0K12575   8.387  13.239   2.530
    1STR    C0M12576   8.429  13.095   2.565
    1STR    C0N12577   8.439  13.338   2.636
    1STR    O0O12578   8.379  13.317   2.765
    1STR    C0P12579   8.450  13.267   2.868
    1STR    O0Q12580   8.567  13.230   2.862
    1STR    N0R12581   8.374  13.265   2.977
    1STR    C0S12582   8.398  13.220   3.108
    1STR    C0T12583   8.289  13.225   3.198
    1STR    C0U12584   8.302  13.176   3.329
    1STR    C0V12585   8.423  13.120   3.374
    1STR    C0W12586   8.426  13.057   3.513
    1STR    C0X12587   8.536  13.120   3.288
    1STR    N0Y12588   8.658  13.063   3.324
    1STR   BCK212589   8.730  13.079   3.436
    1STR    O1012590   8.704  13.159   3.525
    1STR    C1312591   8.521  13.168   3.155
    1STR    C1412592   8.357  13.089   1.270
    1STR    C1512593   8.336  13.087   1.131
    1STR    C1612594   8.441  13.115   1.041
    1STR    C1712595   8.407  13.123   0.893
    1STR    H1B12596   8.722  13.267   1.029
    1STR    H1C12597   8.688  13.169   1.271
    1STR    H1D12598   8.601  13.134   1.496
    1STR    H1E12599   8.308  13.193   1.792
    1STR    H1F12600   8.460  12.936   1.863
    1STR    H1G12601   8.307  12.989   1.934
    1STR    H1H12602   8.314  12.945   1.764
    1STR    H1I12603   8.495  13.314   1.896
    1STR    H1J12604   8.571  13.163   1.944
    1STR    H1K12605   8.555  13.251   2.167
    1STR    H1M12606   8.322  13.450   2.132
    1STR    H1N12607   8.482  13.468   2.061
    1STR    H1O12608   8.462  13.478   2.235
    1STR    H1P12609   8.273  13.245   2.285
    1STR    H1Q12610   8.387  13.112   2.289
    1STR    H1R12611   8.278  13.246   2.527
    1STR    H1S12612   8.392  13.067   2.664
    1STR    H1T12613   8.537  13.085   2.567
    1STR    H1U12614   8.389  13.022   2.495
    1STR    H1V12615   8.414  13.440   2.606
    1STR    H1W12616   8.548  13.335   2.642
    1STR    H1X12617   8.283  13.302   2.957
    1STR    H1Y12618   8.194  13.265   3.168
    1STR    H1Z12619   8.216  13.178   3.395
    1STR    H2012620   8.493  12.972   3.516
    1STR    H2112621   8.459  13.130   3.586
    1STR    H2212622   8.327  13.022   3.542
    1STR    H2312623   8.702  13.004   3.256
    1STR    H2712624   8.606  13.165   3.089
    1STR    H2812625   8.272  13.066   1.333
    1STR    H2912626   8.237  13.065   1.094
    1STR    H2A12627   8.462  13.203   0.845
    1STR    H2B12628   8.301  13.141   0.878
    1STR    H2C12629   8.433  13.029   0.845
    1STR   BCK112630   8.853  13.100   5.269
    1STR    O0312631   8.974  13.115   5.255
    1STR    N0412632   8.797  13.025   5.365
    1STR    C0512633   8.864  12.944   5.457
    1STR    C0612634   8.843  12.961   5.596
    1STR    C0712635   8.905  12.876   5.691
    1STR    N0812636   8.879  12.892   5.828
    1STR    C0912637   8.939  12.837   5.934
    1STR    O0A12638   9.038  12.764   5.929
    1STR    O0B12639   8.878  12.872   6.049
    1STR    C0C12640   8.929  12.824   6.174
    1STR    C0D12641   9.047  12.912   6.218
    1STR    C0E12642   8.819  12.819   6.281
    1STR    O0F12643   8.874  12.765   6.401
    1STR    C0G12644   8.784  12.755   6.511
    1STR    C0H12645   8.698  12.629   6.497
    1STR    C0I12646   8.868  12.752   6.640
    1STR    O0J12647   8.780  12.760   6.752
    1STR    C0K12648   8.842  12.746   6.880
    1STR    C0M12649   8.919  12.874   6.917
    1STR    C0N12650   8.730  12.717   6.981
    1STR    O0O12651   8.788  12.673   7.103
    1STR    C0P12652   8.791  12.751   7.212
    1STR    O0Q12653   8.738  12.861   7.224
    1STR    N0R12654   8.862  12.687   7.304
    1STR    C0S12655   8.897  12.716   7.436
    1STR    C0T12656   8.983  12.623   7.496
    1STR    C0U12657   9.018  12.636   7.631
    1STR    C0V12658   8.965  12.739   7.709
    1STR    C0W12659   8.994  12.731   7.857
    1STR    C0X12660   8.881  12.839   7.651
    1STR    N0Y12661   8.814  12.938   7.724
    1STR   BCK212662   8.838  13.014   7.832
    1STR    O1012663   8.748  13.085   7.875
    1STR    C1312664   8.848  12.825   7.513
    1STR    C1412665   8.988  12.772   5.642
    1STR    C1512666   9.008  12.753   5.504
    1STR    C1612667   8.944  12.837   5.411
    1STR    C1712668   8.961  12.806   5.263
    1STR    H1B12669   8.697  13.022   5.363
    1STR    H1C12670   8.780  13.042   5.629
    1STR    H1D12671   8.805  12.955   5.854
    1STR    H1E12672   8.965  12.721   6.160
    1STR    H1F12673   9.016  13.015   6.234
    1STR    H1G12674   9.091  12.875   6.311
    1STR    H1H12675   9.126  12.912   6.143
    1STR    H1I12676   8.737  12.757   6.245
    1STR    H1J12677   8.779  12.919   6.298
    1STR    H1K12678   8.721  12.844   6.515
    1STR    H1M12679   8.761  12.540   6.487
    1STR    H1N12680   8.633  12.633   6.410
    1STR    H1O12681   8.635  12.615   6.584
    1STR    H1P12682   8.928  12.660   6.643
    1STR    H1Q12683   8.938  12.835   6.640
    1STR    H1R12684   8.910  12.661   6.878
    1STR    H1S12685   8.963  12.865   7.017
    1STR    H1T12686   8.852  12.960   6.919
    1STR    H1U12687   9.000  12.896   6.848
    1STR    H1V12688   8.668  12.636   6.944
    1STR    H1W12689   8.664  12.803   6.994
    1STR    H1X12690   8.894  12.600   7.266
    1STR    H1Y12691   9.023  12.539   7.440
    1STR    H1Z12692   9.082  12.561   7.675
    1STR    H2012693   9.080  12.794   7.880
    1STR    H2112694   8.906  12.761   7.914
    1STR    H2212695   9.018  12.630   7.888
    1STR    H2312696   8.722  12.960   7.690
    1STR    H2712697   8.782  12.896   7.467
    1STR    H2812698   9.038  12.702   5.707
    1STR    H2912699   9.070  12.672   5.470
    1STR    H2A12700   8.868  12.823   5.208
    1STR    H2B12701   8.990  12.702   5.247
    1STR    H2C12702   9.039  12.869   5.220
    1STR   BCK112703   8.785  13.146   9.601
    1STR    O0312704   8.689  13.192   9.541
    1STR    N0412705   8.827  13.183   9.723
    1STR    C0512706   8.777  13.280   9.812
    1STR    C0612707   8.779  13.251   9.951
    1STR    C0712708   8.741  13.348  10.049
    1STR    N0812709   8.750  13.318  10.186
    1STR    C0912710   8.750  13.401  10.292
    1STR    O0A12711   8.743  13.523  10.284
    1STR    O0B12712   8.760  13.334  10.409
    1STR    C0C12713   8.750  13.407  10.533
    1STR    C0D12714   8.602  13.423  10.570
    1STR    C0E12715   8.829  13.337  10.646
    1STR    O0F12716   8.820  13.417  10.765
    1STR    C0G12717   8.891  13.369  10.879
    1STR    C0H12718   9.040  13.402  10.864
    1STR    C0I12719   8.832  13.435  11.005
    1STR    O0J12720   8.896  13.382  11.121
    1STR    C0K12721   8.854  13.437  11.247
    1STR    C0M12722   8.719  13.376  11.288
    1STR    C0N12723   8.964  13.403  11.349
    1STR    O0O12724   8.941  13.466  11.475
    1STR    C0P12725   8.899  13.393  11.580
    1STR    O0Q12726   8.870  13.274  11.576
    1STR    N0R12727   8.894  13.470  11.689
    1STR    C0S12728   8.856  13.440  11.821
    1STR    C0T12729   8.841  13.547  11.912
    1STR    C0U12730   8.797  13.524  12.044
    1STR    C0V12731   8.766  13.393  12.088
    1STR    C0W12732   8.708  13.376  12.227
    1STR    C0X12733   8.785  13.284  12.000
    1STR    N0Y12734   8.749  13.153  12.030
    1STR   BCK212735   8.783  13.068  12.127
    1STR    O1012736   8.740  12.954  12.122
    1STR    C1312737   8.829  13.309  11.868
    1STR    C1412738   8.694  13.473  10.002
    1STR    C1512739   8.695  13.503   9.865
    1STR    C1612740   8.739  13.410   9.770
    1STR    C1712741   8.751  13.459   9.627
    1STR    H1B12742   8.907  13.131   9.754
    1STR    H1C12743   8.812  13.154   9.984
    1STR    H1D12744   8.761  13.222  10.213
    1STR    H1E12745   8.794  13.506  10.521
    1STR    H1F12746   8.554  13.326  10.585
    1STR    H1G12747   8.590  13.481  10.661
    1STR    H1H12748   8.548  13.476  10.491
    1STR    H1I12749   8.933  13.326  10.615
    1STR    H1J12750   8.789  13.237  10.664
    1STR    H1K12751   8.877  13.261  10.888
    1STR    H1M12752   9.056  13.509  10.851
    1STR    H1N12753   9.086  13.350  10.780
    1STR    H1O12754   9.095  13.372  10.954
    1STR    H1P12755   8.845  13.543  11.000
    1STR    H1Q12756   8.725  13.416  11.008
    1STR    H1R12757   8.846  13.545  11.239
    1STR    H1S12758   8.688  13.412  11.386
    1STR    H1T12759   8.725  13.267  11.294
    1STR    H1U12760   8.639  13.401  11.218
    1STR    H1V12761   9.060  13.440  11.312
    1STR    H1W12762   8.976  13.295  11.358
    1STR    H1X12763   8.921  13.565  11.669
    1STR    H1Y12764   8.860  13.649  11.881
    1STR    H1Z12765   8.783  13.608  12.110
    1STR    H2012766   8.640  13.291  12.231
    1STR    H2112767   8.787  13.360  12.300
    1STR    H2212768   8.651  13.464  12.257
    1STR    H2312769   8.691  13.107  11.961
    1STR    H2712770   8.841  13.225  11.802
    1STR    H2812771   8.659  13.549  10.069
    1STR    H2912772   8.663  13.602   9.834
    1STR    H2A12773   8.835  13.411   9.575
    1STR    H2B12774   8.769  13.567   9.623
    1STR    H2C12775   8.659  13.439   9.572
    1STR   BCK112776   8.749  13.046  13.983
    1STR    O0312777   8.792  12.937  13.949
    1STR    N0412778   8.670  13.068  14.090
    1STR    C0512779   8.609  12.975  14.175
    1STR    C0612780   8.617  12.992  14.316
    1STR    C0712781   8.550  12.906  14.406
    1STR    N0812782   8.557  12.929  14.545
    1STR    C0912783   8.500  12.864  14.648
    1STR    O0A12784   8.430  12.764  14.637
    1STR    O0B12785   8.529  12.922  14.768
    1STR    C0C12786   8.482  12.861  14.890
    1STR    C0D12787   8.578  12.747  14.929
    1STR    C0E12788   8.469  12.964  15.004
    1STR    O0F12789   8.421  12.899  15.122
    1STR    C0G12790   8.401  12.983  15.236
    1STR    C0H12791   8.268  13.059  15.223
    1STR    C0I12792   8.401  12.895  15.364
    1STR    O0J12793   8.395  12.979  15.480
    1STR    C0K12794   8.391  12.912  15.606
    1STR    C0M12795   8.530  12.858  15.642
    1STR    C0N12796   8.344  13.015  15.711
    1STR    O0O12797   8.322  12.955  15.838
    1STR    C0P12798   8.407  12.975  15.940
    1STR    O0Q12799   8.512  13.038  15.934
    1STR    N0R12800   8.358  12.916  16.049
    1STR    C0S12801   8.406  12.903  16.180
    1STR    C0T12802   8.326  12.831  16.270
    1STR    C0U12803   8.369  12.806  16.401
    1STR    C0V12804   8.494  12.853  16.445
    1STR    C0W12805   8.542  12.808  16.582
    1STR    C0X12806   8.574  12.932  16.359
    1STR    N0Y12807   8.699  12.979  16.398
    1STR   BCK212808   8.730  13.054  16.505
    1STR    O1012809   8.649  13.095  16.588
    1STR    C1312810   8.530  12.955  16.226
    1STR    C1412811   8.475  12.799  14.351
    1STR    C1512812   8.465  12.782  14.212
    1STR    C1612813   8.529  12.870  14.123
    1STR    C1712814   8.503  12.852  13.974
    1STR    H1B12815   8.654  13.166  14.108
    1STR    H1C12816   8.677  13.074  14.354
    1STR    H1D12817   8.612  13.007  14.577
    1STR    H1E12818   8.383  12.819  14.873
    1STR    H1F12819   8.679  12.784  14.948
    1STR    H1G12820   8.543  12.696  15.019
    1STR    H1H12821   8.584  12.672  14.850
    1STR    H1I12822   8.400  13.042  14.973
    1STR    H1J12823   8.565  13.011  15.023
    1STR    H1K12824   8.484  13.054  15.245
    1STR    H1M12825   8.185  12.990  15.210
    1STR    H1N12826   8.269  13.127  15.138
    1STR    H1O12827   8.248  13.118  15.312
    1STR    H1P12828   8.317  12.826  15.362
    1STR    H1Q12829   8.492  12.835  15.365
    1STR    H1R12830   8.319  12.831  15.603
    1STR    H1S12831   8.530  12.810  15.740
    1STR    H1T12832   8.604  12.938  15.646
    1STR    H1U12833   8.566  12.783  15.571
    1STR    H1V12834   8.249  13.058  15.678
    1STR    H1W12835   8.413  13.099  15.717
    1STR    H1X12836   8.270  12.873  16.028
    1STR    H1Y12837   8.230  12.791  16.240
    1STR    H1Z12838   8.307  12.747  16.467
    1STR    H2012839   8.643  12.768  16.574
    1STR    H2112840   8.541  12.889  16.654
    1STR    H2212841   8.479  12.729  16.624
    1STR    H2312842   8.777  12.960  16.337
    1STR    H2712843   8.593  13.012  16.159
    1STR    H2812844   8.422  12.728  14.412
    1STR    H2912845   8.404  12.701  14.174
    1STR    H2A12846   8.499  12.949  13.923
    1STR    H2B12847   8.408  12.802  13.957
    1STR    H2C12848   8.582  12.793  13.930
    1STR   BCK112849  13.176   0.068   0.908
    1STR    O0312850  13.229   0.178   0.893
    1STR    N0412851  13.206  17.424   1.007
    1STR    C0512852  13.305   0.004   1.103
    1STR    C0612853  13.273  -0.000   1.241
    1STR    C0712854  13.373   0.015   1.340
    1STR    N0812855  13.339   0.005   1.476
    1STR    C0912856  13.416   0.017   1.586
    1STR    O0A12857  13.535   0.045   1.585
    1STR    O0B12858  13.345  17.434   1.699
    1STR    C0C12859  13.410   0.007   1.826
    1STR    C0D12860  13.410   0.156   1.867
    1STR    C0E12861  13.345  17.358   1.933
    1STR    O0F12862  13.423  17.370   2.052
    1STR    C0G12863  13.379  17.293   2.163
    1STR    C0H12864  13.426  17.147   2.146
    1STR    C0I12865  13.439  17.356   2.290
    1STR    O0J12866  13.389  17.287   2.404
    1STR    C0K12867  13.441  17.331   2.530
    1STR    C0M12868  13.375   0.023   2.571
    1STR    C0N12869  13.411  17.217   2.630
    1STR    O0O12870  13.477  17.240   2.754
    1STR    C0P12871  13.409  17.287   2.860
    1STR    O0Q12872  13.289  17.314   2.861
    1STR    N0R12873  13.493  17.305   2.961
    1STR    C0S12874  13.472  17.359   3.088
    1STR    C0T12875  13.584  17.412   3.155
    1STR    C0U12876  13.570   0.035   3.280
    1STR    C0V12877  13.443   0.046   3.340
    1STR    C0W12878  13.430   0.123   3.470
    1STR    C0X12879  13.331  17.426   3.278
    1STR    N0Y12880  13.207  17.431   3.341
    1STR   BCK212881  13.168  17.359   3.446
    1STR    O1012882  13.072  17.396   3.513
    1STR    C1312883  13.345  17.365   3.151
    1STR    C1412884  13.506   0.037   1.296
    1STR    C1512885  13.539   0.038   1.160
    1STR    C1612886  13.440   0.018   1.063
    1STR    C1712887  13.483   0.010   0.917
    1STR    H1B12888  13.157  17.336   1.006
    1STR    H1C12889  13.170  17.425   1.270
    1STR    H1D12890  13.243  17.426   1.499
    1STR    H1E12891  13.514  17.414   1.816
    1STR    H1F12892  13.309   0.193   1.879
    1STR    H1G12893  13.463   0.170   1.961
    1STR    H1H12894  13.460   0.217   1.792
    1STR    H1I12895  13.344  17.255   1.898
    1STR    H1J12896  13.242  17.388   1.950
    1STR    H1K12897  13.270  17.296   2.171
    1STR    H1M12898  13.535  17.142   2.133
    1STR    H1N12899  13.380  17.099   2.060
    1STR    H1O12900  13.401  17.088   2.234
    1STR    H1P12901  13.548  17.351   2.286
    1STR    H1Q12902  13.412   0.021   2.293
    1STR    H1R12903  13.549  17.343   2.523
    1STR    H1S12904  13.410   0.055   2.670
    1STR    H1T12905  13.266   0.013   2.578
    1STR    H1U12906  13.397   0.104   2.502
    1STR    H1V12907  13.449  17.123   2.590
    1STR    H1W12908  13.303  17.203   2.643
    1STR    H1X12909  13.587  17.278   2.936
    1STR    H1Y12910  13.683  17.407   3.111
    1STR    H1Z12911  13.657   0.077   3.328
    1STR    H2012912  13.332   0.170   3.479
    1STR    H2112913  13.445   0.057   3.555
    1STR    H2212914  13.504   0.203   3.476
    1STR    H2312915  13.138   0.056   3.307
    1STR    H2712916  13.259  17.322   3.104
    1STR    H2812917  13.588   0.052   1.365
    1STR    H2912918  13.642   0.053   1.131
    1STR    H2A12919  13.423  17.377   0.863
    1STR    H2B12920  13.587  17.419   0.909
    1STR    H2C12921  13.473   0.107   0.869
    1STR   BCK112922  13.112   0.087   5.249
    1STR    O0312923  13.040  17.438   5.206
    1STR    N0412924  13.095   0.152   5.365
    1STR    C0512925  12.985   0.156   5.452
    1STR    C0612926  13.005   0.146   5.593
    1STR    C0712927  12.900   0.169   5.686
    1STR    N0812928  12.924   0.163   5.825
    1STR    C0912929  12.853   0.213   5.928
    1STR    O0A12930  12.749   0.278   5.915
    1STR    O0B12931  12.909   0.185   6.048
    1STR    C0C12932  12.842   0.223   6.170
    1STR    C0D12933  12.737   0.117   6.206
    1STR    C0E12934  12.942   0.244   6.286
    1STR    O0F12935  12.873   0.284   6.406
    1STR    C0G12936  12.954   0.311   6.520
    1STR    C0H12937  13.019   0.449   6.507
    1STR    C0I12938  12.868   0.303   6.648
    1STR    O0J12939  12.950   0.318   6.765
    1STR    C0K12940  12.884   0.315   6.892
    1STR    C0M12941  12.843   0.171   6.927
    1STR    C0N12942  12.981   0.371   6.997
    1STR    O0O12943  12.919   0.385   7.125
    1STR    C0P12944  12.956   0.308   7.230
    1STR    O0Q12945  13.037   0.217   7.225
    1STR    N0R12946  12.889   0.347   7.339
    1STR    C0S12947  12.887   0.298   7.470
    1STR    C0T12948  12.791   0.353   7.557
    1STR    C0U12949  12.777   0.307   7.689
    1STR    C0V12950  12.859   0.203   7.738
    1STR    C0W12951  12.833   0.149   7.878
    1STR    C0X12952  12.960   0.149   7.654
    1STR    N0Y12953  13.040   0.043   7.696
    1STR   BCK212954  13.115   0.032   7.806
    1STR    O1012955  13.141   0.124   7.883
    1STR    C1312956  12.972   0.196   7.521
    1STR    C1412957  12.772   0.198   5.634
    1STR    C1512958  12.751   0.209   5.496
    1STR    C1612959  12.856   0.190   5.404
    1STR    C1712960  12.828   0.215   5.257
    1STR    H1B12961  13.173   0.211   5.389
    1STR    H1C12962  13.103   0.122   5.629
    1STR    H1D12963  13.008   0.116   5.856
    1STR    H1E12964  12.791   0.319   6.154
    1STR    H1F12965  12.783   0.019   6.223
    1STR    H1G12966  12.682   0.144   6.296
    1STR    H1H12967  12.663   0.105   6.126
    1STR    H1I12968  13.014   0.320   6.257
    1STR    H1J12969  12.997   0.152   6.305
    1STR    H1K12970  13.032   0.234   6.529
    1STR    H1M12971  12.943   0.527   6.494
    1STR    H1N12972  13.088   0.455   6.422
    1STR    H1O12973  13.076   0.474   6.596
    1STR    H1P12974  12.791   0.380   6.646
    1STR    H1Q12975  12.816   0.207   6.650
    1STR    H1R12976  12.796   0.379   6.889
    1STR    H1S12977  12.798   0.166   7.026
    1STR    H1T12978  12.930   0.105   6.929
    1STR    H1U12979  12.771   0.129   6.857
    1STR    H1V12980  13.014   0.471   6.967
    1STR    H1W12981  13.072   0.311   7.003
    1STR    H1X12982  12.828   0.424   7.317
    1STR    H1Y12983  12.724   0.431   7.524
    1STR    H1Z12984  12.701   0.349   7.753
    1STR    H2012985  12.850   0.042   7.882
    1STR    H2112986  12.899   0.197   7.950
    1STR    H2212987  12.730   0.167   7.908
    1STR    H2312988  13.045  17.403   7.635
    1STR    H2712989  13.047   0.153   7.457
    1STR    H2812990  12.687   0.214   5.698
    1STR    H2912991  12.652   0.234   5.460
    1STR    H2A12992  12.910   0.268   5.210
    1STR    H2B12993  12.738   0.276   5.243
    1STR    H2C12994  12.812   0.120   5.205
    1STR   BCK112995  13.194  17.413   9.629
    1STR    O0312996  13.306  17.365   9.613
    1STR    N0412997  13.110  17.375   9.726
    1STR    C0512998  13.126  17.269   9.815
    1STR    C0612999  13.116  17.291   9.955
    1STR    C0713000  13.125  17.183  10.048
    1STR    N0813001  13.111  17.208  10.186
    1STR    C0913002  13.130  17.126  10.291
    1STR    O0A13003  13.172  17.011  10.283
    1STR    O0B13004  13.097  17.186  10.408
    1STR    C0C13005  13.116  17.114  10.531
    1STR    C0D13006  13.263  17.123  10.574
    1STR    C0E13007  13.022  17.168  10.641
    1STR    O0F13008  13.041  17.091  10.761
    1STR    C0G13009  12.962  17.130  10.873
    1STR    C0H13010  12.821  17.070  10.858
    1STR    C0I13011  13.031  17.078  11.000
    1STR    O0J13012  12.961  17.128  11.115
    1STR    C0K13013  13.010  17.083  11.241
    1STR    C0M13014  13.140  17.157  11.278
    1STR    C0N13015  12.900  17.111  11.346
    1STR    O0O13016  12.933  17.050  11.470
    1STR    C0P13017  12.970  17.123  11.576
    1STR    O0Q13018  12.978  17.245  11.582
    1STR    N0R13019  12.997  17.038  11.675
    1STR    C0S13020  13.037  17.055  11.808
    1STR    C0T13021  13.054  16.937  11.882
    1STR    C0U13022  13.091  16.942  12.017
    1STR    C0V13023  13.111  17.065  12.082
    1STR    C0W13024  13.140  17.058  12.230
    1STR    C0X13025  13.096  17.187  12.010
    1STR    N0Y13026  13.095  17.312  12.074
    1STR   BCK213027  13.167  17.368  12.172
    1STR    O1013028  13.126   0.031  12.225
    1STR    C1313029  13.059  17.180  11.873
    1STR    C1413030  13.144  17.053   9.996
    1STR    C1513031  13.152  17.031   9.858
    1STR    C1613032  13.140  17.137   9.767
    1STR    C1713033  13.139  17.105   9.618
    1STR    H1B13034  13.023  17.426   9.729
    1STR    H1C13035  13.103  17.392   9.991
    1STR    H1D13036  13.083  17.300  10.215
    1STR    H1E13037  13.090  17.009  10.516
    1STR    H1F13038  13.293  17.226  10.592
    1STR    H1G13039  13.280  17.067  10.666
    1STR    H1H13040  13.329  17.082  10.498
    1STR    H1I13041  12.918  17.160  10.607
    1STR    H1J13042  13.042  17.274  10.660
    1STR    H1K13043  12.956  17.238  10.879
    1STR    H1M13044  12.825  16.961  10.848
    1STR    H1N13045  12.767  17.110  10.772
    1STR    H1O13046  12.760  17.092  10.947
    1STR    H1P13047  13.034  16.969  11.000
    1STR    H1Q13048  13.134  17.113  11.001
    1STR    H1R13049  13.027  16.976  11.238
    1STR    H1S13050  13.176  17.126  11.376
    1STR    H1T13051  13.124  17.265  11.281
    1STR    H1U13052  13.221  17.137  11.208
    1STR    H1V13053  12.806  17.068  11.312
    1STR    H1W13054  12.881  17.218  11.356
    1STR    H1X13055  12.982  16.944  11.644
    1STR    H1Y13056  13.037  16.840  11.837
    1STR    H1Z13057  13.101  16.850  12.072
    1STR    H2013058  13.248  17.060  12.244
    1STR    H2113059  13.093  17.141  12.283
    1STR    H2213060  13.103  16.966  12.275
    1STR    H2313061  13.024  17.376  12.042
    1STR    H2713062  13.045  17.271  11.817
    1STR    H2813063  13.151  16.966  10.059
    1STR    H2913064  13.164  16.930   9.822
    1STR    H2A13065  13.069  17.168   9.565
    1STR    H2B13066  13.110  17.001   9.600
    1STR    H2C13067  13.239  17.120   9.576
    1STR   BCK113068  13.162   0.049  13.967
    1STR    O0313069  13.092   0.140  13.923
    1STR    N0413070  13.226   0.052  14.084
    1STR    C0513071  13.236   0.157  14.176
    1STR    C0613072  13.221   0.129  14.315
    1STR    C0713073  13.242   0.228  14.414
    1STR    N0813074  13.233   0.195  14.551
    1STR    C0913075  13.278   0.263  14.658
    1STR    O0A13076  13.338   0.370  14.653
    1STR    O0B13077  13.249   0.199  14.773
    1STR    C0C13078  13.279   0.263  14.898
    1STR    C0D13079  13.162   0.354  14.937
    1STR    C0E13080  13.309   0.159  15.009
    1STR    O0F13081  13.345   0.230  15.128
    1STR    C0G13082  13.380   0.150  15.240
    1STR    C0H13083  13.523   0.098  15.225
    1STR    C0I13084  13.366   0.238  15.366
    1STR    O0J13085  13.391   0.159  15.482
    1STR    C0K13086  13.385   0.229  15.607
    1STR    C0M13087  13.239   0.250  15.648
    1STR    C0N13088  13.461   0.142  15.709
    1STR    O0O13089  13.477   0.210  15.834
    1STR    C0P13090  13.402   0.177  15.939
    1STR    O0Q13091  13.311   0.094  15.937
    1STR    N0R13092  13.439   0.249  16.045
    1STR    C0S13093  13.389   0.250  16.176
    1STR    C0T13094  13.428   0.357  16.259
    1STR    C0U13095  13.378   0.368  16.391
    1STR    C0V13096  13.290   0.271  16.442
    1STR    C0W13097  13.231   0.291  16.581
    1STR    C0X13098  13.255   0.159  16.362
    1STR    N0Y13099  13.166   0.061  16.406
    1STR   BCK213100  13.179  17.415  16.508
    1STR    O1013101  13.090  17.334  16.529
    1STR    C1313102  13.304   0.151  16.230
    1STR    C1413103  13.273   0.359  14.370
    1STR    C1513104  13.291   0.387  14.234
    1STR    C1613105  13.277   0.286  14.137
    1STR    C1713106  13.313   0.322  13.994
    1STR    H1B13107  13.279  17.409  14.104
    1STR    H1C13108  13.194   0.029  14.345
    1STR    H1D13109  13.189   0.108  14.576
    1STR    H1E13110  13.370   0.323  14.888
    1STR    H1F13111  13.070   0.298  14.951
    1STR    H1G13112  13.183   0.408  15.030
    1STR    H1H13113  13.145   0.430  14.860
    1STR    H1I13114  13.390   0.095  14.976
    1STR    H1J13115  13.222   0.096  15.027
    1STR    H1K13116  13.310   0.067  15.250
    1STR    H1M13117  13.594   0.180  15.212
    1STR    H1N13118  13.534   0.031  15.140
    1STR    H1O13119  13.554   0.043  15.314
    1STR    H1P13120  13.435   0.322  15.361
    1STR    H1Q13121  13.265   0.280  15.369
    1STR    H1R13122  13.437   0.325  15.599
    1STR    H1S13123  13.232   0.299  15.746
    1STR    H1T13124  13.186   0.155  15.656
    1STR    H1U13125  13.184   0.313  15.578
    1STR    H1V13126  13.561   0.121  15.671
    1STR    H1W13127  13.413   0.045  15.721
    1STR    H1X13128  13.513   0.312  16.022
    1STR    H1Y13129  13.494   0.435  16.223
    1STR    H1Z13130  13.407   0.452  16.452
    1STR    H2013131  13.131   0.248  16.588
    1STR    H2113132  13.294   0.242  16.656
    1STR    H2213133  13.224   0.396  16.606
    1STR    H2313134  13.083   0.045  16.352
    1STR    H2713135  13.275   0.066  16.170
    1STR    H2813136  13.286   0.441  14.439
    1STR    H2913137  13.320   0.487  14.205
    1STR    H2A13138  13.358   0.237  13.942
    1STR    H2B13139  13.386   0.403  13.990
    1STR    H2C13140  13.225   0.354  13.939
    1STR   BCK113141  13.080   4.371   0.897
    1STR    O0313142  13.076   4.255   0.858
    1STR    N0413143  13.019   4.418   1.007
    1STR    C0513144  12.927   4.355   1.092
    1STR    C0613145  12.943   4.365   1.233
    1STR    C0713146  12.846   4.313   1.324
    1STR    N0813147  12.864   4.329   1.464
    1STR    C0913148  12.779   4.305   1.566
    1STR    O0A13149  12.665   4.261   1.553
    1STR    O0B13150  12.834   4.334   1.687
    1STR    C0C13151  12.762   4.306   1.808
    1STR    C0D13152  12.781   4.158   1.845
    1STR    C0E13153  12.806   4.398   1.924
    1STR    O0F13154  12.730   4.368   2.042
    1STR    C0G13155  12.759   4.449   2.157
    1STR    C0H13156  12.687   4.584   2.144
    1STR    C0I13157  12.712   4.375   2.285
    1STR    O0J13158  12.751   4.449   2.401
    1STR    C0K13159  12.712   4.395   2.528
    1STR    C0M13160  12.801   4.274   2.563
    1STR    C0N13161  12.727   4.507   2.633
    1STR    O0O13162  12.678   4.467   2.761
    1STR    C0P13163  12.763   4.441   2.862
    1STR    O0Q13164  12.885   4.442   2.855
    1STR    N0R13165  12.693   4.414   2.972
    1STR    C0S13166  12.731   4.379   3.102
    1STR    C0T13167  12.629   4.346   3.193
    1STR    C0U13168  12.659   4.304   3.324
    1STR    C0V13169  12.792   4.295   3.368
    1STR    C0W13170  12.818   4.236   3.505
    1STR    C0X13171  12.897   4.336   3.281
    1STR    N0Y13172  13.032   4.332   3.318
    1STR   BCK213173  13.090   4.386   3.426
    1STR    O1013174  13.031   4.440   3.519
    1STR    C1313175  12.865   4.374   3.148
    1STR    C1413176  12.733   4.248   1.269
    1STR    C1513177  12.715   4.239   1.130
    1STR    C1613178  12.809   4.294   1.041
    1STR    C1713179  12.777   4.291   0.892
    1STR    H1B13180  13.043   4.513   1.028
    1STR    H1C13181  13.031   4.414   1.272
    1STR    H1D13182  12.952   4.365   1.496
    1STR    H1E13183  12.655   4.324   1.791
    1STR    H1F13184  12.886   4.134   1.864
    1STR    H1G13185  12.724   4.132   1.934
    1STR    H1H13186  12.746   4.092   1.765
    1STR    H1I13187  12.790   4.502   1.894
    1STR    H1J13188  12.912   4.387   1.943
    1STR    H1K13189  12.866   4.464   2.166
    1STR    H1M13190  12.580   4.571   2.130
    1STR    H1N13191  12.724   4.642   2.059
    1STR    H1O13192  12.702   4.645   2.233
    1STR    H1P13193  12.604   4.361   2.283
    1STR    H1Q13194  12.756   4.276   2.286
    1STR    H1R13195  12.607   4.365   2.524
    1STR    H1S13196  12.775   4.235   2.662
    1STR    H1T13197  12.906   4.302   2.566
    1STR    H1U13198  12.790   4.192   2.493
    1STR    H1V13199  12.669   4.593   2.602
    1STR    H1W13200  12.830   4.542   2.638
    1STR    H1X13201  12.594   4.420   2.954
    1STR    H1Y13202  12.525   4.350   3.164
    1STR    H1Z13203  12.579   4.276   3.391
    1STR    H2013204  12.912   4.180   3.507
    1STR    H2113205  12.824   4.315   3.580
    1STR    H2213206  12.739   4.167   3.535
    1STR    H2313207  13.096   4.292   3.252
    1STR    H2713208  12.946   4.402   3.082
    1STR    H2813209  12.657   4.204   1.330
    1STR    H2913210  12.626   4.191   1.092
    1STR    H2A13211  12.810   4.382   0.843
    1STR    H2B13212  12.670   4.282   0.876
    1STR    H2C13213  12.825   4.205   0.845
    1STR   BCK113214  13.206   4.408   5.271
    1STR    O0313215  13.315   4.463   5.257
    1STR    N0413216  13.179   4.320   5.367
    1STR    C0513217  13.269   4.269   5.460
    1STR    C0613218  13.242   4.280   5.599
    1STR    C0713219  13.330   4.224   5.696
    1STR    N0813220  13.298   4.233   5.833
    1STR    C0913221  13.372   4.203   5.940
    1STR    O0A13222  13.490   4.168   5.937
    1STR    O0B13223  13.301   4.216   6.055
    1STR    C0C13224  13.365   4.190   6.181
    1STR    C0D13225  13.445   4.315   6.223
    1STR    C0E13226  13.263   4.149   6.288
    1STR    O0F13227  13.333   4.118   6.409
    1STR    C0G13228  13.252   4.077   6.519
    1STR    C0H13229  13.215   3.929   6.502
    1STR    C0I13230  13.332   4.099   6.649
    1STR    O0J13231  13.248   4.071   6.761
    1STR    C0K13232  13.311   4.075   6.890
    1STR    C0M13233  13.338   4.221   6.931
    1STR    C0N13234  13.215   4.005   6.989
    1STR    O0O13235  13.279   3.974   7.112
    1STR    C0P13236  13.262   4.051   7.221
    1STR    O0Q13237  13.190   4.151   7.226
    1STR    N0R13238  13.338   4.004   7.320
    1STR    C0S13239  13.368   4.060   7.445
    1STR    C0T13240  13.487   4.019   7.507
    1STR    C0U13241  13.533   4.085   7.622
    1STR    C0V13242  13.460   4.191   7.680
    1STR    C0W13243  13.534   4.275   7.782
    1STR    C0X13244  13.331   4.223   7.629
    1STR    N0Y13245  13.244   4.323   7.675
    1STR   BCK213246  13.208   4.386   7.787
    1STR    O1013247  13.128   4.478   7.776
    1STR    C1313248  13.288   4.157   7.510
    1STR    C1413249  13.445   4.157   5.649
    1STR    C1513250  13.472   4.144   5.512
    1STR    C1613251  13.383   4.197   5.417
    1STR    C1713252  13.411   4.171   5.270
    1STR    H1B13253  13.086   4.281   5.364
    1STR    H1C13254  13.154   4.333   5.631
    1STR    H1D13255  13.206   4.266   5.857
    1STR    H1E13256  13.435   4.107   6.169
    1STR    H1F13257  13.379   4.401   6.237
    1STR    H1G13258  13.498   4.297   6.317
    1STR    H1H13259  13.519   4.341   6.148
    1STR    H1I13260  13.208   4.062   6.253
    1STR    H1J13261  13.191   4.229   6.305
    1STR    H1K13262  13.162   4.138   6.525
    1STR    H1M13263  13.304   3.866   6.491
    1STR    H1N13264  13.152   3.912   6.415
    1STR    H1O13265  13.160   3.892   6.589
    1STR    H1P13266  13.421   4.035   6.650
    1STR    H1Q13267  13.367   4.202   6.652
    1STR    H1R13268  13.404   4.019   6.887
    1STR    H1S13269  13.381   4.226   7.031
    1STR    H1T13270  13.245   4.279   6.932
    1STR    H1U13271  13.407   4.271   6.864
    1STR    H1V13272  13.183   3.910   6.945
    1STR    H1W13273  13.124   4.063   7.003
    1STR    H1X13274  13.387   3.921   7.292
    1STR    H1Y13275  13.549   3.943   7.462
    1STR    H1Z13276  13.629   4.058   7.662
    1STR    H2013277  13.501   4.379   7.778
    1STR    H2113278  13.521   4.236   7.883
    1STR    H2213279  13.640   4.276   7.761
    1STR    H2313280  13.183   4.358   7.603
    1STR    H2713281  13.194   4.185   7.466
    1STR    H2813282  13.516   4.111   5.716
    1STR    H2913283  13.560   4.091   5.480
    1STR    H2A13284  13.319   4.153   5.214
    1STR    H2B13285  13.474   4.083   5.256
    1STR    H2C13286  13.462   4.256   5.225
    1STR   BCK113287  13.163   4.456   9.603
    1STR    O0313288  13.061   4.409   9.554
    1STR    N0413289  13.174   4.513   9.724
    1STR    C0513290  13.078   4.563   9.812
    1STR    C0613291  13.091   4.540   9.952
    1STR    C0713292  13.012   4.609  10.048
    1STR    N0813293  13.032   4.588  10.186
    1STR    C0913294  13.000   4.668  10.290
    1STR    O0A13295  12.947   4.778  10.279
    1STR    O0B13296  13.033   4.612  10.410
    1STR    C0C13297  12.997   4.678  10.533
    1STR    C0D13298  12.852   4.643  10.569
    1STR    C0E13299  13.094   4.641  10.647
    1STR    O0F13300  13.058   4.712  10.767
    1STR    C0G13301  13.141   4.690  10.881
    1STR    C0H13302  13.270   4.772  10.867
    1STR    C0I13303  13.064   4.730  11.009
    1STR    O0J13304  13.142   4.699  11.125
    1STR    C0K13305  13.084   4.733  11.251
    1STR    C0M13306  12.974   4.633  11.289
    1STR    C0N13307  13.198   4.732  11.356
    1STR    O0O13308  13.152   4.780  11.483
    1STR    C0P13309  13.142   4.698  11.589
    1STR    O0Q13310  13.164   4.578  11.588
    1STR    N0R13311  13.104   4.769  11.696
    1STR    C0S13312  13.077   4.731  11.828
    1STR    C0T13313  13.012   4.825  11.911
    1STR    C0U13314  12.977   4.792  12.043
    1STR    C0V13315  13.007   4.665  12.096
    1STR    C0W13316  12.957   4.631  12.236
    1STR    C0X13317  13.077   4.571  12.017
    1STR    N0Y13318  13.107   4.443  12.064
    1STR   BCK213319  13.176   4.409  12.173
    1STR    O1013320  13.236   4.487  12.246
    1STR    C1313321  13.110   4.604  11.883
    1STR    C1413322  12.914   4.699   9.999
    1STR    C1513323  12.899   4.722   9.862
    1STR    C1613324  12.981   4.657   9.768
    1STR    C1713325  12.967   4.696   9.622
    1STR    H1B13326  13.270   4.531   9.749
    1STR    H1C13327  13.166   4.470   9.986
    1STR    H1D13328  13.079   4.504  10.215
    1STR    H1E13329  13.005   4.786  10.518
    1STR    H1F13330  12.840   4.536  10.585
    1STR    H1G13331  12.821   4.694  10.660
    1STR    H1H13332  12.783   4.673  10.490
    1STR    H1I13333  13.196   4.666  10.617
    1STR    H1J13334  13.092   4.533  10.665
    1STR    H1K13335  13.165   4.584  10.889
    1STR    H1M13336  13.248   4.878  10.854
    1STR    H1N13337  13.331   4.740  10.783
    1STR    H1O13338  13.332   4.762  10.956
    1STR    H1P13339  13.041   4.837  11.006
    1STR    H1Q13340  12.969   4.677  11.011
    1STR    H1R13341  13.043   4.834  11.247
    1STR    H1S13342  12.933   4.654  11.387
    1STR    H1T13343  13.013   4.531  11.291
    1STR    H1U13344  12.890   4.635  11.219
    1STR    H1V13345  13.278   4.797  11.323
    1STR    H1W13346  13.242   4.632  11.364
    1STR    H1X13347  13.091   4.866  11.672
    1STR    H1Y13348  12.987   4.923  11.873
    1STR    H1Z13349  12.925   4.865  12.103
    1STR    H2013350  12.928   4.526  12.242
    1STR    H2113351  13.035   4.649  12.309
    1STR    H2213352  12.870   4.690  12.262
    1STR    H2313353  13.079   4.366  12.006
    1STR    H2713354  13.162   4.531  11.823
    1STR    H2813355  12.850   4.753  10.066
    1STR    H2913356  12.826   4.794   9.829
    1STR    H2A13357  13.065   4.710   9.576
    1STR    H2B13358  12.913   4.790   9.610
    1STR    H2C13359  12.913   4.619   9.567
    1STR   BCK113360  13.141   4.313  13.984
    1STR    O0313361  13.213   4.218  13.955
    1STR    N0413362  13.056   4.316  14.087
    1STR    C0513363  13.021   4.212  14.174
    1STR    C0613364  13.023   4.233  14.315
    1STR    C0713365  12.981   4.132  14.406
    1STR    N0813366  12.981   4.158  14.545
    1STR    C0913367  12.951   4.077  14.649
    1STR    O0A13368  12.922   3.958  14.639
    1STR    O0B13369  12.957   4.143  14.768
    1STR    C0C13370  12.934   4.071  14.890
    1STR    C0D13371  13.063   3.997  14.931
    1STR    C0E13372  12.884   4.164  15.003
    1STR    O0F13373  12.861   4.087  15.121
    1STR    C0G13374  12.814   4.160  15.235
    1STR    C0H13375  12.663   4.186  15.221
    1STR    C0I13376  12.844   4.078  15.362
    1STR    O0J13377  12.811   4.156  15.478
    1STR    C0K13378  12.829   4.092  15.604
    1STR    C0M13379  12.978   4.087  15.641
    1STR    C0N13380  12.749   4.174  15.708
    1STR    O0O13381  12.746   4.108  15.835
    1STR    C0P13382  12.819   4.152  15.938
    1STR    O0Q13383  12.900   4.245  15.934
    1STR    N0R13384  12.790   4.079  16.045
    1STR    C0S13385  12.837   4.080  16.176
    1STR    C0T13386  12.777   3.988  16.265
    1STR    C0U13387  12.823   3.975  16.397
    1STR    C0V13388  12.929   4.053  16.444
    1STR    C0W13389  12.985   4.021  16.582
    1STR    C0X13390  12.987   4.152  16.359
    1STR    N0Y13391  13.095   4.229  16.402
    1STR   BCK213392  13.103   4.308  16.510
    1STR    O1013393  13.011   4.328  16.589
    1STR    C1313394  12.942   4.162  16.225
    1STR    C1413395  12.938   4.009  14.352
    1STR    C1513396  12.934   3.988  14.213
    1STR    C1613397  12.972   4.089  14.124
    1STR    C1713398  12.954   4.063  13.975
    1STR    H1B13399  13.011   4.405  14.102
    1STR    H1C13400  13.058   4.327  14.353
    1STR    H1D13401  13.006   4.250  14.576
    1STR    H1E13402  12.855   3.997  14.873
    1STR    H1F13403  13.144   4.067  14.950
    1STR    H1G13404  13.047   3.938  15.021
    1STR    H1H13405  13.095   3.928  14.853
    1STR    H1I13406  12.793   4.214  14.970
    1STR    H1J13407  12.958   4.242  15.022
    1STR    H1K13408  12.868   4.255  15.243
    1STR    H1M13409  12.608   4.092  15.209
    1STR    H1N13410  12.640   4.250  15.136
    1STR    H1O13411  12.624   4.235  15.310
    1STR    H1P13412  12.789   3.984  15.361
    1STR    H1Q13413  12.950   4.052  15.364
    1STR    H1R13414  12.787   3.991  15.601
    1STR    H1S13415  12.993   4.042  15.739
    1STR    H1T13416  13.021   4.187  15.645
    1STR    H1U13417  13.036   4.028  15.570
    1STR    H1V13418  12.646   4.183  15.674
    1STR    H1W13419  12.788   4.275  15.716
    1STR    H1X13420  12.719   4.011  16.022
    1STR    H1Y13421  12.696   3.924  16.232
    1STR    H1Z13422  12.777   3.901  16.461
    1STR    H2013423  13.092   4.004  16.575
    1STR    H2113424  12.965   4.101  16.653
    1STR    H2213425  12.941   3.931  16.623
    1STR    H2313426  13.177   4.230  16.343
    1STR    H2713427  12.988   4.235  16.160
    1STR    H2813428  12.905   3.927  14.413
    1STR    H2913429  12.898   3.893  14.176
    1STR    H2A13430  12.924   4.154  13.923
    1STR    H2B13431  12.876   3.988  13.957
    1STR    H2C13432  13.047   4.027  13.931
    1STR   BCK113433  13.161   8.779   0.905
    1STR    O0313434  13.158   8.900   0.886
    1STR    N0413435  13.222   8.721   1.008
    1STR    C0513436  13.299   8.786   1.103
    1STR    C0613437  13.270   8.772   1.241
    1STR    C0713438  13.350   8.834   1.341
    1STR    N0813439  13.321   8.812   1.476
    1STR    C0913440  13.393   8.843   1.585
    1STR    O0A13441  13.501   8.901   1.584
    1STR    O0B13442  13.331   8.803   1.699
    1STR    C0C13443  13.389   8.838   1.825
    1STR    C0D13444  13.338   8.978   1.865
    1STR    C0E13445  13.357   8.733   1.932
    1STR    O0F13446  13.426   8.771   2.051
    1STR    C0G13447  13.412   8.684   2.163
    1STR    C0H13448  13.506   8.563   2.146
    1STR    C0I13449  13.447   8.765   2.288
    1STR    O0J13450  13.425   8.685   2.404
    1STR    C0K13451  13.458   8.745   2.528
    1STR    C0M13452  13.348   8.845   2.569
    1STR    C0N13453  13.474   8.631   2.630
    1STR    O0O13454  13.528   8.679   2.752
    1STR    C0P13455  13.449   8.700   2.858
    1STR    O0Q13456  13.328   8.680   2.860
    1STR    N0R13457  13.521   8.747   2.959
    1STR    C0S13458  13.482   8.787   3.087
    1STR    C0T13459  13.570   8.870   3.160
    1STR    C0U13460  13.535   8.916   3.288
    1STR    C0V13461  13.412   8.878   3.347
    1STR    C0W13462  13.374   8.935   3.482
    1STR    C0X13463  13.327   8.789   3.278
    1STR    N0Y13464  13.208   8.744   3.335
    1STR   BCK213465  13.195   8.663   3.440
    1STR    O1013466  13.084   8.630   3.479
    1STR    C1313467  13.361   8.746   3.148
    1STR    C1413468  13.458   8.914   1.298
    1STR    C1513469  13.489   8.927   1.162
    1STR    C1613470  13.413   8.861   1.064
    1STR    C1713471  13.459   8.869   0.919
    1STR    H1B13472  13.217   8.621   1.011
    1STR    H1C13473  13.184   8.712   1.270
    1STR    H1D13474  13.236   8.764   1.500
    1STR    H1E13475  13.497   8.841   1.816
    1STR    H1F13476  13.230   8.979   1.877
    1STR    H1G13477  13.383   9.010   1.959
    1STR    H1H13478  13.364   9.052   1.789
    1STR    H1I13479  13.390   8.635   1.898
    1STR    H1J13480  13.249   8.727   1.950
    1STR    H1K13481  13.308   8.650   2.172
    1STR    H1M13482  13.609   8.596   2.133
    1STR    H1N13483  13.479   8.501   2.061
    1STR    H1O13484  13.502   8.499   2.234
    1STR    H1P13485  13.551   8.798   2.283
    1STR    H1Q13486  13.385   8.855   2.291
    1STR    H1R13487  13.554   8.797   2.520
    1STR    H1S13488  13.370   8.889   2.667
    1STR    H1T13489  13.251   8.795   2.577
    1STR    H1U13490  13.338   8.927   2.499
    1STR    H1V13491  13.543   8.556   2.590
    1STR    H1W13492  13.379   8.578   2.644
    1STR    H1X13493  13.618   8.758   2.933
    1STR    H1Y13494  13.664   8.901   3.118
    1STR    H1Z13495  13.602   8.981   3.342
    1STR    H2013496  13.266   8.948   3.490
    1STR    H2113497  13.406   8.868   3.562
    1STR    H2213498  13.420   9.033   3.499
    1STR    H2313499  13.121   8.767   3.289
    1STR    H2713500  13.294   8.679   3.096
    1STR    H2813501  13.521   8.968   1.366
    1STR    H2913502  13.575   8.986   1.133
    1STR    H2A13503  13.439   8.776   0.866
    1STR    H2B13504  13.567   8.887   0.913
    1STR    H2C13505  13.409   8.951   0.868
    1STR   BCK113506  13.089   8.784   5.252
    1STR    O0313507  13.041   8.679   5.210
    1STR    N0413508  13.053   8.845   5.366
    1STR    C0513509  12.945   8.822   5.452
    1STR    C0613510  12.965   8.820   5.593
    1STR    C0713511  12.857   8.813   5.685
    1STR    N0813512  12.881   8.817   5.824
    1STR    C0913513  12.796   8.841   5.926
    1STR    O0A13514  12.677   8.867   5.913
    1STR    O0B13515  12.858   8.834   6.047
    1STR    C0C13516  12.781   8.848   6.169
    1STR    C0D13517  12.718   8.712   6.204
    1STR    C0E13518  12.868   8.901   6.285
    1STR    O0F13519  12.789   8.915   6.404
    1STR    C0G13520  12.856   8.968   6.519
    1STR    C0H13521  12.869   9.121   6.506
    1STR    C0I13522  12.777   8.931   6.647
    1STR    O0J13523  12.850   8.973   6.764
    1STR    C0K13524  12.788   8.947   6.890
    1STR    C0M13525  12.799   8.798   6.925
    1STR    C0N13526  12.860   9.033   6.996
    1STR    O0O13527  12.797   9.025   7.125
    1STR    C0P13528  12.857   8.963   7.228
    1STR    O0Q13529  12.964   8.903   7.222
    1STR    N0R13530  12.782   8.976   7.337
    1STR    C0S13531  12.796   8.928   7.468
    1STR    C0T13532  12.689   8.952   7.557
    1STR    C0U13533  12.692   8.902   7.689
    1STR    C0V13534  12.802   8.827   7.735
    1STR    C0W13535  12.793   8.765   7.874
    1STR    C0X13536  12.914   8.807   7.650
    1STR    N0Y13537  13.025   8.731   7.688
    1STR   BCK213538  13.098   8.739   7.800
    1STR    O1013539  13.085   8.825   7.887
    1STR    C1313540  12.909   8.857   7.517
    1STR    C1413541  12.726   8.804   5.631
    1STR    C1513542  12.704   8.807   5.492
    1STR    C1613543  12.812   8.818   5.403
    1STR    C1713544  12.779   8.832   5.255
    1STR    H1B13545  13.113   8.923   5.389
    1STR    H1C13546  13.066   8.826   5.630
    1STR    H1D13547  12.975   8.801   5.856
    1STR    H1E13548  12.701   8.920   6.152
    1STR    H1F13549  12.794   8.636   6.222
    1STR    H1G13550  12.657   8.720   6.294
    1STR    H1H13551  12.654   8.676   6.124
    1STR    H1I13552  12.910   8.997   6.256
    1STR    H1J13553  12.951   8.834   6.304
    1STR    H1K13554  12.955   8.923   6.528
    1STR    H1M13555  12.771   9.167   6.493
    1STR    H1N13556  12.931   9.150   6.421
    1STR    H1O13557  12.914   9.164   6.595
    1STR    H1P13558  12.678   8.977   6.645
    1STR    H1Q13559  12.761   8.823   6.649
    1STR    H1R13560  12.683   8.977   6.888
    1STR    H1S13561  12.757   8.778   7.024
    1STR    H1T13562  12.903   8.765   6.928
    1STR    H1U13563  12.745   8.734   6.855
    1STR    H1V13564  12.858   9.138   6.966
    1STR    H1W13565  12.966   9.007   7.002
    1STR    H1X13566  12.700   9.030   7.317
    1STR    H1Y13567  12.602   9.007   7.526
    1STR    H1Z13568  12.608   8.918   7.754
    1STR    H2013569  12.846   8.669   7.878
    1STR    H2113570  12.838   8.832   7.947
    1STR    H2213571  12.690   8.746   7.902
    1STR    H2313572  13.059   8.664   7.622
    1STR    H2713573  12.993   8.839   7.452
    1STR    H2813574  12.639   8.796   5.694
    1STR    H2913575  12.603   8.802   5.456
    1STR    H2A13576  12.846   8.903   5.206
    1STR    H2B13577  12.678   8.867   5.239
    1STR    H2C13578  12.790   8.736   5.205
    1STR   BCK113579  13.211   8.721   9.632
    1STR    O0313580  13.332   8.712   9.617
    1STR    N0413581  13.141   8.659   9.727
    1STR    C0513582  13.189   8.564   9.817
    1STR    C0613583  13.173   8.584   9.957
    1STR    C0713584  13.215   8.486  10.051
    1STR    N0813585  13.193   8.506  10.188
    1STR    C0913586  13.240   8.438  10.294
    1STR    O0A13587  13.320   8.345  10.287
    1STR    O0B13588  13.188   8.484  10.410
    1STR    C0C13589  13.228   8.425  10.534
    1STR    C0D13590  13.363   8.485  10.577
    1STR    C0E13591  13.120   8.444  10.641
    1STR    O0F13592  13.163   8.379  10.761
    1STR    C0G13593  13.074   8.389  10.872
    1STR    C0H13594  12.962   8.284  10.858
    1STR    C0I13595  13.156   8.365  11.001
    1STR    O0J13596  13.073   8.390  11.114
    1STR    C0K13597  13.133   8.365  11.241
    1STR    C0M13598  13.232   8.476  11.278
    1STR    C0N13599  13.019   8.357  11.345
    1STR    O0O13600  13.070   8.306  11.467
    1STR    C0P13601  13.083   8.383  11.576
    1STR    O0Q13602  13.050   8.501  11.586
    1STR    N0R13603  13.138   8.309  11.671
    1STR    C0S13604  13.172   8.333  11.804
    1STR    C0T13605  13.230   8.224  11.872
    1STR    C0U13606  13.262   8.233  12.008
    1STR    C0V13607  13.235   8.350  12.080
    1STR    C0W13608  13.259   8.343  12.229
    1STR    C0X13609  13.181   8.464  12.015
    1STR    N0Y13610  13.141   8.580  12.083
    1STR   BCK213611  13.190   8.653  12.184
    1STR    O1013612  13.122   8.743  12.231
    1STR    C1313613  13.149   8.453  11.876
    1STR    C1413614  13.274   8.367  10.000
    1STR    C1513615  13.289   8.347   9.862
    1STR    C1613616  13.245   8.443   9.770
    1STR    C1713617  13.255   8.411   9.622
    1STR    H1B13618  13.042   8.677   9.726
    1STR    H1C13619  13.128   8.675   9.991
    1STR    H1D13620  13.135   8.583  10.215
    1STR    H1E13621  13.241   8.317  10.519
    1STR    H1F13622  13.355   8.593  10.594
    1STR    H1G13623  13.398   8.440  10.670
    1STR    H1H13624  13.440   8.468  10.502
    1STR    H1I13625  13.026   8.401  10.606
    1STR    H1J13626  13.103   8.550  10.659
    1STR    H1K13627  13.031   8.489  10.878
    1STR    H1M13628  13.004   8.183  10.848
    1STR    H1N13629  12.899   8.303  10.771
    1STR    H1O13630  12.898   8.284  10.946
    1STR    H1P13631  13.195   8.263  11.002
    1STR    H1Q13632  13.242   8.432  11.001
    1STR    H1R13633  13.183   8.268  11.239
    1STR    H1S13634  13.275   8.459  11.376
    1STR    H1T13635  13.184   8.573  11.280
    1STR    H1U13636  13.316   8.482  11.208
    1STR    H1V13637  12.943   8.287  11.310
    1STR    H1W13638  12.969   8.453  11.357
    1STR    H1X13639  13.155   8.217  11.636
    1STR    H1Y13640  13.249   8.130  11.821
    1STR    H1Z13641  13.303   8.147  12.058
    1STR    H2013642  13.362   8.373  12.249
    1STR    H2113643  13.189   8.406  12.284
    1STR    H2213644  13.247   8.242  12.267
    1STR    H2313645  13.053   8.619  12.053
    1STR    H2713646  13.105   8.537  11.825
    1STR    H2813647  13.308   8.288  10.065
    1STR    H2913648  13.334   8.255   9.827
    1STR    H2A13649  13.168   8.448   9.568
    1STR    H2B13650  13.261   8.304   9.605
    1STR    H2C13651  13.344   8.457   9.579
    1STR   BCK113652  13.155   8.780  13.963
    1STR    O0313653  13.066   8.843  13.908
    1STR    N0413654  13.207   8.807  14.083
    1STR    C0513655  13.178   8.910  14.174
    1STR    C0613656  13.173   8.881  14.313
    1STR    C0713657  13.156   8.982  14.411
    1STR    N0813658  13.159   8.950  14.548
    1STR    C0913659  13.177   9.030  14.654
    1STR    O0A13660  13.197   9.151  14.647
    1STR    O0B13661  13.173   8.962  14.771
    1STR    C0C13662  13.179   9.034  14.895
    1STR    C0D13663  13.037   9.081  14.932
    1STR    C0E13664  13.241   8.948  15.007
    1STR    O0F13665  13.250   9.028  15.126
    1STR    C0G13666  13.309   8.965  15.240
    1STR    C0H13667  13.462   8.965  15.225
    1STR    C0I13668  13.266   9.042  15.365
    1STR    O0J13669  13.317   8.977  15.482
    1STR    C0K13670  13.287   9.040  15.607
    1STR    C0M13671  13.143   9.009  15.648
    1STR    C0N13672  13.388   8.984  15.709
    1STR    O0O13673  13.379   9.051  15.835
    1STR    C0P13674  13.322   8.991  15.940
    1STR    O0Q13675  13.266   8.882  15.936
    1STR    N0R13676  13.333   9.068  16.048
    1STR    C0S13677  13.289   9.049  16.180
    1STR    C0T13678  13.294   9.159  16.268
    1STR    C0U13679  13.246   9.147  16.400
    1STR    C0V13680  13.191   9.026  16.447
    1STR    C0W13681  13.131   9.022  16.586
    1STR    C0X13682  13.190   8.913  16.361
    1STR    N0Y13683  13.132   8.792  16.397
    1STR   BCK213684  13.159   8.706  16.496
    1STR    O1013685  13.095   8.601  16.503
    1STR    C1313686  13.238   8.926  16.229
    1STR    C1413687  13.137   9.114  14.365
    1STR    C1513688  13.144   9.146  14.229
    1STR    C1613689  13.168   9.046  14.133
    1STR    C1713690  13.190   9.092  13.989
    1STR    H1B13691  13.279   8.742  14.110
    1STR    H1C13692  13.185   8.778  14.344
    1STR    H1D13693  13.149   8.853  14.574
    1STR    H1E13694  13.243   9.121  14.883
    1STR    H1F13695  12.970   8.996  14.947
    1STR    H1G13696  13.038   9.139  15.024
    1STR    H1H13697  12.995   9.144  14.854
    1STR    H1I13698  13.340   8.915  14.976
    1STR    H1J13699  13.181   8.859  15.025
    1STR    H1K13700  13.273   8.862  15.249
    1STR    H1M13701  13.500   9.066  15.211
    1STR    H1N13702  13.496   8.905  15.140
    1STR    H1O13703  13.510   8.924  15.314
    1STR    H1P13704  13.302   9.145  15.360
    1STR    H1Q13705  13.157   9.047  15.369
    1STR    H1R13706  13.303   9.148  15.599
    1STR    H1S13707  13.120   9.052  15.746
    1STR    H1T13708  13.125   8.902  15.655
    1STR    H1U13709  13.070   9.050  15.578
    1STR    H1V13710  13.490   8.999  15.672
    1STR    H1W13711  13.377   8.876  15.719
    1STR    H1X13712  13.381   9.154  16.027
    1STR    H1Y13713  13.332   9.254  16.236
    1STR    H1Z13714  13.248   9.233  16.465
    1STR    H2013715  13.048   8.951  16.591
    1STR    H2113716  13.206   8.992  16.659
    1STR    H2213717  13.091   9.119  16.615
    1STR    H2313718  13.062   8.755  16.334
    1STR    H2713719  13.234   8.839  16.165
    1STR    H2813720  13.119   9.196  14.433
    1STR    H2913721  13.134   9.249  14.198
    1STR    H2A13722  13.261   9.028  13.938
    1STR    H2B13723  13.230   9.193  13.986
    1STR    H2C13724  13.096   9.091  13.935
    1STR   BCK113725  13.094  13.061   0.902
    1STR    O0313726  13.119  12.947   0.865
    1STR    N0413727  13.021  13.093   1.009
    1STR    C0513728  12.946  13.010   1.094
    1STR    C0613729  12.957  13.025   1.235
    1STR    C0713730  12.877  12.950   1.326
    1STR    N0813731  12.888  12.971   1.465
    1STR    C0913732  12.818  12.920   1.567
    1STR    O0A13733  12.727  12.838   1.556
    1STR    O0B13734  12.859  12.968   1.688
    1STR    C0C13735  12.800  12.918   1.809
    1STR    C0D13736  12.869  12.786   1.847
    1STR    C0E13737  12.809  13.021   1.924
    1STR    O0F13738  12.749  12.968   2.043
    1STR    C0G13739  12.748  13.054   2.157
    1STR    C0H13740  12.634  13.156   2.143
    1STR    C0I13741  12.729  12.968   2.284
    1STR    O0J13742  12.741  13.051   2.400
    1STR    C0K13743  12.723  12.986   2.527
    1STR    C0M13744  12.847  12.903   2.562
    1STR    C0N13745  12.698  13.097   2.632
    1STR    O0O13746  12.665  13.043   2.760
    1STR    C0P13747  12.753  13.045   2.861
    1STR    O0Q13748  12.869  13.086   2.855
    1STR    N0R13749  12.694  12.997   2.971
    1STR    C0S13750  12.741  12.975   3.101
    1STR    C0T13751  12.650  12.917   3.192
    1STR    C0U13752  12.689  12.885   3.323
    1STR    C0V13753  12.820  12.912   3.367
    1STR    C0W13754  12.860  12.861   3.505
    1STR    C0X13755  12.912  12.977   3.280
    1STR    N0Y13756  13.043  13.005   3.318
    1STR   BCK213757  13.087  13.071   3.426
    1STR    O1013758  13.015  13.117   3.514
    1STR    C1313759  12.871  13.006   3.147
    1STR    C1413760  12.786  12.857   1.270
    1STR    C1513761  12.772  12.843   1.131
    1STR    C1613762  12.849  12.920   1.042
    1STR    C1713763  12.821  12.908   0.894
    1STR    H1B13764  13.020  13.192   1.030
    1STR    H1C13765  13.029  13.095   1.274
    1STR    H1D13766  12.959  13.035   1.497
    1STR    H1E13767  12.694  12.899   1.792
    1STR    H1F13768  12.975  12.800   1.866
    1STR    H1G13769  12.824  12.743   1.937
    1STR    H1H13770  12.859  12.712   1.768
    1STR    H1I13771  12.759  13.113   1.893
    1STR    H1J13772  12.914  13.047   1.943
    1STR    H1K13773  12.844  13.105   2.166
    1STR    H1M13774  12.538  13.107   2.130
    1STR    H1N13775  12.649  13.223   2.059
    1STR    H1O13776  12.627  13.218   2.232
    1STR    H1P13777  12.632  12.918   2.282
    1STR    H1Q13778  12.805  12.890   2.286
    1STR    H1R13779  12.635  12.922   2.524
    1STR    H1S13780  12.837  12.858   2.661
    1STR    H1T13781  12.936  12.966   2.566
    1STR    H1U13782  12.865  12.822   2.492
    1STR    H1V13783  12.614  13.159   2.600
    1STR    H1W13784  12.784  13.165   2.638
    1STR    H1X13785  12.599  12.971   2.951
    1STR    H1Y13786  12.549  12.894   3.162
    1STR    H1Z13787  12.619  12.838   3.390
    1STR    H2013788  12.960  12.818   3.501
    1STR    H2113789  12.859  12.941   3.578
    1STR    H2213790  12.793  12.783   3.541
    1STR    H2313791  13.116  12.978   3.254
    1STR    H2713792  12.942  13.053   3.080
    1STR    H2813793  12.722  12.795   1.331
    1STR    H2913794  12.699  12.773   1.093
    1STR    H2A13795  12.831  13.004   0.843
    1STR    H2B13796  12.719  12.873   0.876
    1STR    H2C13797  12.889  12.836   0.848
    1STR   BCK113798  13.189  13.146   5.268
    1STR    O0313799  13.269  13.238   5.254
    1STR    N0413800  13.196  13.055   5.366
    1STR    C0513801  13.297  13.046   5.461
    1STR    C0613802  13.267  13.048   5.599
    1STR    C0713803  13.368  13.034   5.698
    1STR    N0813804  13.333  13.032   5.834
    1STR    C0913805  13.411  13.029   5.943
    1STR    O0A13806  13.533  13.036   5.942
    1STR    O0B13807  13.338  13.019   6.056
    1STR    C0C13808  13.405  13.018   6.183
    1STR    C0D13809  13.436  13.162   6.225
    1STR    C0E13810  13.323  12.944   6.289
    1STR    O0F13811  13.401  12.938   6.409
    1STR    C0G13812  13.341  12.871   6.519
    1STR    C0H13813  13.355  12.719   6.502
    1STR    C0I13814  13.412  12.920   6.647
    1STR    O0J13815  13.347  12.864   6.761
    1STR    C0K13816  13.406  12.893   6.887
    1STR    C0M13817  13.372  13.037   6.929
    1STR    C0N13818  13.351  12.789   6.986
    1STR    O0O13819  13.421  12.795   7.110
    1STR    C0P13820  13.367  12.857   7.216
    1STR    O0Q13821  13.257  12.911   7.219
    1STR    N0R13822  13.456  12.856   7.315
    1STR    C0S13823  13.450  12.917   7.441
    1STR    C0T13824  13.573  12.949   7.502
    1STR    C0U13825  13.575  13.017   7.625
    1STR    C0V13826  13.455  13.051   7.691
    1STR    C0W13827  13.465  13.137   7.816
    1STR    C0X13828  13.331  13.010   7.636
    1STR    N0Y13829  13.212  13.041   7.701
    1STR   BCK213830  13.160  12.992   7.814
    1STR    O1013831  13.075  13.055   7.875
    1STR    C1313832  13.329  12.947   7.510
    1STR    C1413833  13.501  13.018   5.653
    1STR    C1513834  13.532  13.013   5.517
    1STR    C1613835  13.431  13.024   5.420
    1STR    C1713836  13.470  13.007   5.274
    1STR    H1B13837  13.126  12.983   5.364
    1STR    H1C13838  13.164  13.062   5.629
    1STR    H1D13839  13.235  13.032   5.857
    1STR    H1E13840  13.499  12.963   6.172
    1STR    H1F13841  13.345  13.221   6.238
    1STR    H1G13842  13.492  13.164   6.319
    1STR    H1H13843  13.498  13.212   6.151
    1STR    H1I13844  13.300  12.843   6.254
    1STR    H1J13845  13.228  12.995   6.307
    1STR    H1K13846  13.235  12.899   6.527
    1STR    H1M13847  13.460  12.691   6.490
    1STR    H1N13848  13.301  12.682   6.416
    1STR    H1O13849  13.317  12.667   6.590
    1STR    H1P13850  13.517  12.892   6.644
    1STR    H1Q13851  13.408  13.029   6.651
    1STR    H1R13852  13.515  12.880   6.881
    1STR    H1S13853  13.414  13.060   7.027
    1STR    H1T13854  13.264  13.051   6.936
    1STR    H1U13855  13.412  13.111   6.860
    1STR    H1V13856  13.366  12.689   6.945
    1STR    H1W13857  13.243  12.800   6.999
    1STR    H1X13858  13.541  12.809   7.289
    1STR    H1Y13859  13.666  12.926   7.454
    1STR    H1Z13860  13.670  13.046   7.668
    1STR    H2013861  13.370  13.185   7.841
    1STR    H2113862  13.498  13.076   7.900
    1STR    H2213863  13.538  13.216   7.803
    1STR    H2313864  13.154  13.113   7.660
    1STR    H2713865  13.235  12.921   7.465
    1STR    H2813866  13.584  13.008   5.721
    1STR    H2913867  13.635  12.999   5.486
    1STR    H2A13868  13.392  12.954   5.219
    1STR    H2B13869  13.562  12.950   5.263
    1STR    H2C13870  13.485  13.104   5.227
    1STR   BCK113871  13.131  13.176   9.605
    1STR    O0313872  13.046  13.101   9.560
    1STR    N0413873  13.125  13.239   9.724
    1STR    C0513874  13.018  13.261   9.812
    1STR    C0613875  13.036  13.245   9.952
    1STR    C0713876  12.937  13.286  10.046
    1STR    N0813877  12.961  13.274  10.185
    1STR    C0913878  12.902  13.338  10.288
    1STR    O0A13879  12.815  13.424  10.275
    1STR    O0B13880  12.952  13.299  10.408
    1STR    C0C13881  12.895  13.350  10.531
    1STR    C0D13882  12.769  13.268  10.566
    1STR    C0E13883  12.997  13.348  10.646
    1STR    O0F13884  12.938  13.402  10.766
    1STR    C0G13885  13.024  13.410  10.880
    1STR    C0H13886  13.117  13.532  10.867
    1STR    C0I13887  12.938  13.422  11.008
    1STR    O0J13888  13.021  13.419  11.125
    1STR    C0K13889  12.956  13.430  11.251
    1STR    C0M13890  12.886  13.298  11.288
    1STR    C0N13891  13.063  13.466  11.357
    1STR    O0O13892  13.005  13.494  11.485
    1STR    C0P13893  13.024  13.412  11.590
    1STR    O0Q13894  13.085  13.305  11.586
    1STR    N0R13895  12.966  13.464  11.698
    1STR    C0S13896  12.954  13.418  11.830
    1STR    C0T13897  12.869  13.490  11.916
    1STR    C0U13898  12.847  13.447  12.048
    1STR    C0V13899  12.910  13.332  12.098
    1STR    C0W13900  12.875  13.284  12.238
    1STR    C0X13901  13.001  13.261  12.016
    1STR    N0Y13902  13.063  13.144  12.060
    1STR   BCK213903  13.137  13.124  12.169
    1STR    O1013904  13.180  13.212  12.243
    1STR    C1313905  13.021  13.304  11.882
    1STR    C1413906  12.817  13.340   9.995
    1STR    C1513907  12.797  13.355   9.857
    1STR    C1613908  12.897  13.318   9.765
    1STR    C1713909  12.873  13.350   9.618
    1STR    H1B13910  13.212  13.284   9.748
    1STR    H1C13911  13.129  13.203   9.987
    1STR    H1D13912  13.033  13.211  10.215
    1STR    H1E13913  12.865  13.454  10.515
    1STR    H1F13914  12.794  13.163  10.583
    1STR    H1G13915  12.722  13.306  10.657
    1STR    H1H13916  12.695  13.273  10.486
    1STR    H1I13917  13.084  13.407  10.617
    1STR    H1J13918  13.032  13.246  10.665
    1STR    H1K13919  13.083  13.319  10.889
    1STR    H1M13920  13.060  13.624  10.854
    1STR    H1N13921  13.185  13.523  10.782
    1STR    H1O13922  13.178  13.544  10.956
    1STR    H1P13923  12.879  13.514  11.006
    1STR    H1Q13924  12.867  13.339  11.011
    1STR    H1R13925  12.883  13.512  11.248
    1STR    H1S13926  12.840  13.304  11.386
    1STR    H1T13927  12.957  13.216  11.290
    1STR    H1U13928  12.806  13.273  11.218
    1STR    H1V13929  13.116  13.556  11.326
    1STR    H1W13930  13.139  13.387  11.363
    1STR    H1X13931  12.922  13.552  11.676
    1STR    H1Y13932  12.816  13.577  11.881
    1STR    H1Z13933  12.778  13.502  12.111
    1STR    H2013934  12.873  13.175  12.242
    1STR    H2113935  12.948  13.320  12.310
    1STR    H2213936  12.776  13.319  12.268
    1STR    H2313937  13.053  13.063  12.001
    1STR    H2713938  13.089  13.248  11.819
    1STR    H2813939  12.737  13.371  10.061
    1STR    H2913940  12.705  13.400   9.823
    1STR    H2A13941  12.964  13.389   9.571
    1STR    H2B13942  12.795  13.425   9.605
    1STR    H2C13943  12.842  13.260   9.565
    1STR   BCK113944  13.176  13.040  13.989
    1STR    O0313945  13.276  12.971  13.969
    1STR    N0413946  13.088  13.019  14.088
    1STR    C0513947  13.084  12.910  14.176
    1STR    C0613948  13.079  12.932  14.316
    1STR    C0713949  13.068  12.824  14.408
    1STR    N0813950  13.059  12.850  14.546
    1STR    C0913951  13.059  12.765  14.650
    1STR    O0A13952  13.075  12.644  14.642
    1STR    O0B13953  13.041  12.830  14.768
    1STR    C0C13954  13.044  12.755  14.891
    1STR    C0D13955  13.190  12.732  14.933
    1STR    C0E13956  12.964  12.827  15.002
    1STR    O0F13957  12.967  12.748  15.120
    1STR    C0G13958  12.898  12.801  15.233
    1STR    C0H13959  12.747  12.774  15.219
    1STR    C0I13960  12.955  12.735  15.360
    1STR    O0J13961  12.897  12.797  15.475
    1STR    C0K13962  12.936  12.743  15.601
    1STR    C0M13963  13.078  12.789  15.638
    1STR    C0N13964  12.833  12.791  15.706
    1STR    O0O13965  12.854  12.725  15.830
    1STR    C0P13966  12.905  12.790  15.936
    1STR    O0Q13967  12.941  12.908  15.938
    1STR    N0R13968  12.910  12.705  16.038
    1STR    C0S13969  12.952  12.719  16.171
    1STR    C0T13970  12.932  12.607  16.253
    1STR    C0U13971  12.970  12.610  16.388
    1STR    C0V13972  13.029  12.725  16.445
    1STR    C0W13973  13.069  12.715  16.590
    1STR    C0X13974  13.050  12.840  16.364
    1STR    N0Y13975  13.109  12.959  16.410
    1STR   BCK213976  13.128  13.003  16.534
    1STR    O1013977  13.060  13.099  16.569
    1STR    C1313978  13.011  12.835  16.227
    1STR    C1413979  13.062  12.693  14.354
    1STR    C1513980  13.065  12.671  14.216
    1STR    C1613981  13.073  12.779  14.126
    1STR    C1713982  13.065  12.748  13.977
    1STR    H1B13983  13.015  13.088  14.094
    1STR    H1C13984  13.085  13.033  14.353
    1STR    H1D13985  13.051  12.946  14.576
    1STR    H1E13986  12.996  12.659  14.875
    1STR    H1F13987  13.242  12.826  14.951
    1STR    H1G13988  13.195  12.672  15.024
    1STR    H1H13989  13.245  12.677  14.856
    1STR    H1I13990  12.862  12.842  14.968
    1STR    H1J13991  13.007  12.926  15.021
    1STR    H1K13992  12.916  12.909  15.241
    1STR    H1M13993  12.728  12.667  15.207
    1STR    H1N13994  12.704  12.825  15.134
    1STR    H1O13995  12.694  12.807  15.308
    1STR    H1P13996  12.934  12.628  15.359
    1STR    H1Q13997  13.063  12.747  15.361
    1STR    H1R13998  12.932  12.634  15.598
    1STR    H1S13999  13.107  12.751  15.736
    1STR    H1T14000  13.084  12.898  15.643
    1STR    H1U14001  13.153  12.754  15.568
    1STR    H1V14002  12.733  12.766  15.672
    1STR    H1W14003  12.835  12.900  15.716
    1STR    H1X14004  12.874  12.616  16.010
    1STR    H1Y14005  12.888  12.516  16.215
    1STR    H1Z14006  12.955  12.522  16.449
    1STR    H2014007  13.177  12.705  16.595
    1STR    H2114008  13.036  12.801  16.648
    1STR    H2214009  13.026  12.628  16.639
    1STR    H2314010  13.117  13.034  16.343
    1STR    H2714011  13.026  12.922  16.164
    1STR    H2814012  13.053  12.606  14.417
    1STR    H2914013  13.058  12.570  14.179
    1STR    H2A14014  13.009  12.825  13.924
    1STR    H2B14015  13.016  12.653  13.959
    1STR    H2C14016  13.166  12.742  13.935
    1HEX    C0114017   0.301  17.328  16.762
    1HEX    C0214018   0.220  17.410  16.864
    1HEX    C0314019   0.081  17.354  16.892
    1HEX    O0414020   0.054  17.235  16.875
    1HEX    O0514021  17.438   0.008  16.941
    1HEX    C0614022  17.303  17.414  16.969
    1HEX    C0714023  17.275  17.391  17.121
    1HEX    C0814024  17.259   0.089  17.195
    1HEX    O0914025  17.219   0.215  17.138
    1HEX    C0A14026  17.227   0.325  17.224
    1HEX    O0B14027  17.242   0.312  17.346
    1HEX    C0C14028  17.221   0.467  17.163
    1HEX    C0D14029  17.266   0.578  17.265
    1HEX    C0F14030  17.146  17.300  17.130
    1HEX    O0G14031  17.181  17.160  17.126
    1HEX    C0H14032  17.154  17.080  17.020
    1HEX    O0I14033  17.076  17.109  16.930
    1HEX    C0J14034  17.238  16.950  17.015
    1HEX    C0K14035  17.232  16.854  17.139
    1HEX    C0N14036  17.389  17.303  17.189
    1HEX    O0O14037   0.074  17.361  17.231
    1HEX    C0P14038   0.097  17.430  17.356
    1HEX    C0Q14039   0.044  17.380   0.055
    1HEX    C0R14040   0.098  17.236   0.080
    1HEX    O0S14041   0.240  17.221   0.052
    1HEX    C0T14042   0.335  17.229   0.150
    1HEX    O0U14043   0.313  17.256   0.268
    1HEX    C0V14044   0.477  17.191   0.104
    1HEX    C0W14045   0.570  17.310   0.066
    1HEX    C0Y14046   0.104   0.034   0.162
    1HEX    O0Z14047   0.063  17.439   0.293
    1HEX    C1014048   0.123   0.059   0.397
    1HEX    O1114049   0.212   0.144   0.388
    1HEX    C1214050   0.066   0.015   0.532
    1HEX    C1314051   0.157   0.050   0.652
    1HEX    C1514052  17.327  17.400   0.057
    1HEX    O1614053  17.240  17.358   0.164
    1HEX    C1714054  17.127  17.290   0.129
    1HEX    O1814055  17.123  17.202   0.043
    1HEX    C1914056  16.996  17.338   0.195
    1HEX    C1A14057  16.898  17.394   0.088
    1HEX    H1D14058   0.407  17.342  16.782
    1HEX    H1E14059   0.282  17.222  16.778
    1HEX    H1F14060   0.213   0.075  16.836
    1HEX    H1G14061   0.270  17.406  16.961
    1HEX    H1H14062  17.272  17.327  16.910
    1HEX    H1I14063  17.240   0.054  16.932
    1HEX    H1J14064  17.360   0.115  17.223
    1HEX    H1K14065  17.201   0.075  17.286
    1HEX    H1M14066  17.120   0.485  17.128
    1HEX    H1N14067  17.286   0.469  17.075
    1HEX    H1O14068  17.371   0.563  17.290
    1HEX    H1P14069  17.213   0.565  17.359
    1HEX    H1R14070  17.072  17.327  17.053
    1HEX    H1S14071  17.094  17.316  17.224
    1HEX    H1T14072  17.340  16.981  16.997
    1HEX    H1U14073  17.207  16.895  16.926
    1HEX    H1V14074  17.136  16.803  17.141
    1HEX    H1W14075  17.238  16.911  17.232
    1HEX    H1Y14076  17.418  17.229  17.115
    1HEX    H1Z14077  17.352  17.237  17.267
    1HEX    H2014078   0.076   0.096  17.346
    1HEX    H2114079   0.206  17.430  17.362
    1HEX    H2214080   0.045  17.165   0.016
    1HEX    H2314081   0.075  17.204   0.182
    1HEX    H2414082   0.469  17.120   0.021
    1HEX    H2514083   0.521  17.136   0.186
    1HEX    H2614084   0.521  17.405   0.086
    1HEX    H2714085   0.590  17.308  17.398
    1HEX    H2914086   0.075   0.138   0.144
    1HEX    H2A14087   0.213   0.033   0.156
    1HEX    H2B14088   0.046  17.348   0.528
    1HEX    H2C14089  17.410   0.066   0.540
    1HEX    H2D14090   0.218   0.137   0.631
    1HEX    H2E14091   0.227  17.409   0.673
    1HEX    H2G14092  17.285  17.361  17.407
    1HEX    H2H14093  17.309   0.067   0.049
    1HEX    H2I14094  17.017  17.410   0.274
    1HEX    H2J14095  16.951  17.251   0.243
    1HEX    H2K14096  16.908  17.337  17.436
    1HEX    H2M14097  16.926   0.057   0.062
    1STR    S0014098   0.277  17.366  16.583
    1STR    S0E14099  17.241   0.755  17.218
    1STR    S0M14100  17.368  16.728  17.136
    1STR    S0X14101   0.732  17.308   0.156
    1STR    S1414102   0.058   0.091   0.801
    1STR    S1B14103  16.718  17.394   0.129
    1HEX    C0114104   0.221  17.301   3.606
    1HEX    C0214105   0.210  17.355   3.750
    1HEX    C0314106   0.069  17.337   3.804
    1HEX    O0414107   0.014  17.227   3.799
    1HEX    O0514108   0.015   0.011   3.853
    1HEX    C0614109  17.315   0.017   3.877
    1HEX    C0714110  17.273  17.437   4.025
    1HEX    C0814111  17.293   0.131   4.107
    1HEX    O0914112  17.241   0.264   4.081
    1HEX    C0A14113  17.267   0.360   4.181
    1HEX    O0B14114  17.301   0.329   4.296
    1HEX    C0C14115  17.258   0.511   4.144
    1HEX    C0D14116  17.319   0.605   4.256
    1HEX    C0F14117  17.126  17.383   4.024
    1HEX    O0G14118  17.125  17.239   4.007
    1HEX    C0H14119  17.091  17.179   3.891
    1HEX    O0I14120  17.033  17.234   3.798
    1HEX    C0J14121  17.135  17.031   3.879
    1HEX    C0K14122  17.112  16.944   4.005
    1HEX    C0N14123  17.359  17.323   4.095
    1HEX    O0O14124   0.055  17.345   4.137
    1HEX    C0P14125   0.099  17.423   4.251
    1HEX    C0Q14126   0.067  17.379   4.397
    1HEX    C0R14127   0.131  17.239   4.423
    1HEX    O0S14128   0.272  17.233   4.388
    1HEX    C0T14129   0.372  17.245   4.481
    1HEX    O0U14130   0.355  17.267   4.601
    1HEX    C0V14131   0.514  17.221   4.426
    1HEX    C0W14132   0.606  17.347   4.420
    1HEX    C0Y14133   0.133   0.040   4.493
    1HEX    O0Z14134   0.090   0.005   4.623
    1HEX    C1014135   0.139   0.064   4.730
    1HEX    O1114136   0.227   0.150   4.733
    1HEX    C1214137   0.068   0.012   4.854
    1HEX    C1314138   0.136   0.054   4.985
    1HEX    C1514139  17.352  17.394   4.420
    1HEX    O1614140  17.282  17.341   4.534
    1HEX    C1714141  17.162  17.281   4.511
    1HEX    O1814142  17.137  17.207   4.416
    1HEX    C1914143  17.050  17.320   4.609
    1HEX    C1A14144  16.935  17.398   4.538
    1HEX    H1D14145   0.321  17.260   3.589
    1HEX    H1E14146   0.152  17.217   3.592
    1HEX    H1F14147   0.240   0.020   3.756
    1HEX    H1G14148   0.274  17.298   3.817
    1HEX    H1H14149  17.265  17.384   3.812
    1HEX    H1I14150  17.279   0.113   3.841
    1HEX    H1J14151  17.399   0.152   4.096
    1HEX    H1K14152  17.271   0.107   4.211
    1HEX    H1M14153  17.154   0.535   4.125
    1HEX    H1N14154  17.312   0.526   4.051
    1HEX    H1O14155  17.426   0.585   4.266
    1HEX    H1P14156  17.277   0.576   4.353
    1HEX    H1R14157  17.065  17.433   3.948
    1HEX    H1S14158  17.076  17.404   4.119
    1HEX    H1T14159  17.240  17.029   3.851
    1HEX    H1U14160  17.080  16.988   3.795
    1HEX    H1V14161  17.013  16.966   4.046
    1HEX    H1W14162  17.183  16.970   4.083
    1HEX    H1Y14163  17.369  17.243   4.021
    1HEX    H1Z14164  17.302  17.265   4.168
    1HEX    H2014165   0.078   0.088   4.241
    1HEX    H2114166   0.208  17.420   4.240
    1HEX    H2214167   0.079  17.164   4.363
    1HEX    H2314168   0.116  17.209   4.527
    1HEX    H2414169   0.507  17.172   4.329
    1HEX    H2514170   0.560  17.148   4.493
    1HEX    H2614171   0.607  17.398   4.516
    1HEX    H2714172   0.567  17.418   4.347
    1HEX    H2914173   0.103   0.143   4.473
    1HEX    H2A14174   0.242   0.039   4.487
    1HEX    H2B14175   0.065  17.344   4.846
    1HEX    H2C14176  17.406   0.048   4.851
    1HEX    H2D14177   0.129   0.162   4.998
    1HEX    H2E14178   0.243   0.030   4.983
    1HEX    H2G14179  17.297  17.363   4.334
    1HEX    H2H14180  17.330   0.060   4.424
    1HEX    H2I14181  17.093  17.378   4.691
    1HEX    H2J14182  17.013  17.228   4.653
    1HEX    H2K14183  16.947  17.396   4.430
    1HEX    H2M14184  16.938   0.063   4.567
    1STR    S0014185   0.185  17.423   3.477
    1STR    S0E14186  17.295   0.790   4.246
    1STR    S0M14187  17.118  16.762   3.972
    1STR    S0X14188   0.780  17.305   4.372
    1STR    S1414189   0.056  17.405   5.123
    1STR    S1B14190  16.768  17.334   4.577
    1HEX    C0114191   0.271  17.288   8.030
    1HEX    C0214192   0.202  17.282   8.169
    1HEX    C0314193   0.050  17.278   8.170
    1HEX    O0414194  17.430  17.174   8.145
    1HEX    O0514195  17.436  17.393   8.216
    1HEX    C0614196  17.299  17.397   8.253
    1HEX    C0714197  17.280  17.392   8.407
    1HEX    C0814198  17.298   0.097   8.468
    1HEX    O0914199  17.235   0.222   8.434
    1HEX    C0A14200  17.255   0.328   8.525
    1HEX    O0B14201  17.282   0.311   8.644
    1HEX    C0C14202  17.249   0.472   8.468
    1HEX    C0D14203  17.223   0.587   8.573
    1HEX    C0F14204  17.141  17.322   8.434
    1HEX    O0G14205  17.162  17.179   8.449
    1HEX    C0H14206  17.104  17.084   8.373
    1HEX    O0I14207  17.014  17.104   8.292
    1HEX    C0J14208  17.170  16.944   8.387
    1HEX    C0K14209  17.163  16.875   8.527
    1HEX    C0N14210  17.387  17.298   8.477
    1HEX    O0O14211   0.075  17.350   8.517
    1HEX    C0P14212   0.094  17.424   8.640
    1HEX    C0Q14213   0.045  17.371   8.779
    1HEX    C0R14214   0.102  17.228   8.802
    1HEX    O0S14215   0.242  17.213   8.769
    1HEX    C0T14216   0.341  17.223   8.862
    1HEX    O0U14217   0.325  17.258   8.979
    1HEX    C0V14218   0.479  17.176   8.812
    1HEX    C0W14219   0.583  17.288   8.779
    1HEX    C0Y14220   0.106   0.028   8.884
    1HEX    O0Z14221   0.066  -0.000   9.018
    1HEX    C1014222   0.119   0.074   9.117
    1HEX    O1114223   0.202   0.163   9.102
    1HEX    C1214224   0.062   0.040   9.255
    1HEX    C1314225   0.169   0.036   9.368
    1HEX    C1514226  17.328  17.384   8.790
    1HEX    O1614227  17.249  17.315   8.888
    1HEX    C1714228  17.136  17.248   8.846
    1HEX    O1814229  17.126  17.190   8.738
    1HEX    C1914230  17.017  17.255   8.942
    1HEX    C1A14231  16.895  17.337   8.888
    1HEX    H1D14232   0.229  17.188   8.020
    1HEX    H1E14233   0.224  17.384   8.012
    1HEX    H1F14234   0.232  17.368   8.228
    1HEX    H1G14235   0.236  17.196   8.226
    1HEX    H1H14236  17.244  17.316   8.203
    1HEX    H1I14237  17.255   0.048   8.212
    1HEX    H1J14238  17.402   0.122   8.448
    1HEX    H1K14239  17.286   0.087   8.575
    1HEX    H1M14240  17.170   0.473   8.393
    1HEX    H1N14241  17.342   0.490   8.416
    1HEX    H1O14242  17.195   0.545   8.669
    1HEX    H1P14243  17.136   0.646   8.543
    1HEX    H1R14244  17.067  17.344   8.356
    1HEX    H1S14245  17.096  17.358   8.527
    1HEX    H1T14246  17.274  16.955   8.356
    1HEX    H1U14247  17.124  16.880   8.312
    1HEX    H1V14248  17.060  16.869   8.562
    1HEX    H1W14249  17.217  16.934   8.601
    1HEX    H1Y14250  17.408  17.217   8.407
    1HEX    H1Z14251  17.350  17.239   8.560
    1HEX    H2014252   0.064   0.087   8.628
    1HEX    H2114253   0.203  17.432   8.644
    1HEX    H2214254   0.047  17.157   8.740
    1HEX    H2314255   0.084  17.196   8.905
    1HEX    H2414256   0.466  17.109   8.728
    1HEX    H2514257   0.519  17.115   8.893
    1HEX    H2614258   0.548  17.385   8.815
    1HEX    H2714259   0.594  17.297   8.671
    1HEX    H2914260   0.078   0.131   8.862
    1HEX    H2A14261   0.215   0.026   8.879
    1HEX    H2B14262   0.011  17.384   9.250
    1HEX    H2C14263  17.426   0.115   9.277
    1HEX    H2D14264   0.264   0.072   9.328
    1HEX    H2E14265   0.186  17.374   9.401
    1HEX    H2G14266  17.281  17.365   8.696
    1HEX    H2H14267  17.305   0.050   8.806
    1HEX    H2I14268  17.054  17.303   9.033
    1HEX    H2J14269  16.987  17.154   8.970
    1HEX    H2K14270  16.928  17.413   8.817
    1HEX    H2M14271  16.851  17.392   8.971
    1STR    S0014272   0.225  17.259   7.856
    1STR    S0E14273  17.362   0.706   8.607
    1STR    S0M14274  17.234  16.703   8.521
    1STR    S0X14275   0.749  17.253   8.852
    1STR    S1414276   0.130   0.141   9.513
    1STR    S1B14277  16.758  17.242   8.808
    1HEX    C0114278   0.241  17.350  12.332
    1HEX    C0214279   0.199  17.324  12.480
    1HEX    C0314280   0.050  17.316  12.504
    1HEX    O0414281  17.427  17.214  12.476
    1HEX    O0514282   0.000  17.426  12.563
    1HEX    C0614283  17.302  17.433  12.595
    1HEX    C0714284  17.273  17.413  12.746
    1HEX    C0814285  17.282   0.111  12.821
    1HEX    O0914286  17.223   0.237  12.782
    1HEX    C0A14287  17.230   0.339  12.878
    1HEX    O0B14288  17.239   0.318  12.998
    1HEX    C0C14289  17.235   0.485  12.825
    1HEX    C0D14290  17.237   0.592  12.940
    1HEX    C0F14291  17.133  17.342  12.757
    1HEX    O0G14292  17.152  17.200  12.736
    1HEX    C0H14293  17.090  17.130  12.638
    1HEX    O0I14294  16.996  17.172  12.571
    1HEX    C0J14295  17.153  16.992  12.609
    1HEX    C0K14296  17.150  16.886  12.723
    1HEX    C0N14297  17.374  17.311  12.815
    1HEX    O0O14298   0.065  17.353  12.859
    1HEX    C0P14299   0.094  17.428  12.980
    1HEX    C0Q14300   0.050  17.381  13.123
    1HEX    C0R14301   0.106  17.238  13.149
    1HEX    O0S14302   0.246  17.223  13.117
    1HEX    C0T14303   0.345  17.230  13.211
    1HEX    O0U14304   0.327  17.262  13.328
    1HEX    C0V14305   0.484  17.187  13.162
    1HEX    C0W14306   0.588  17.300  13.135
    1HEX    C0Y14307   0.115   0.038  13.223
    1HEX    O0Z14308   0.075   0.007  13.355
    1HEX    C1014309   0.133   0.067  13.458
    1HEX    O1114310   0.226   0.148  13.452
    1HEX    C1214311   0.066   0.030  13.589
    1HEX    C1314312   0.151   0.059  13.714
    1HEX    C1514313  17.334  17.400  13.135
    1HEX    O1614314  17.254  17.369  13.250
    1HEX    C1714315  17.130  17.315  13.228
    1HEX    O1814316  17.109  17.226  13.146
    1HEX    C1914317  17.012  17.381  13.303
    1HEX    C1A14318  16.892  17.401  13.205
    1HEX    H1D14319   0.204  17.249  12.314
    1HEX    H1E14320   0.199   0.010  12.334
    1HEX    H1F14321   0.239  17.402  12.544
    1HEX    H1G14322   0.243  17.231  12.517
    1HEX    H1H14323  17.246  17.362  12.534
    1HEX    H1I14324  17.265   0.090  12.562
    1HEX    H1J14325  17.387   0.138  12.815
    1HEX    H1K14326  17.255   0.093  12.924
    1HEX    H1M14327  17.152   0.501  12.757
    1HEX    H1N14328  17.326   0.494  12.766
    1HEX    H1O14329  17.316   0.568  13.012
    1HEX    H1P14330  17.144   0.586  12.997
    1HEX    H1R14331  17.060  17.385  12.687
    1HEX    H1S14332  17.090  17.355  12.856
    1HEX    H1T14333  17.256  17.012  12.579
    1HEX    H1U14334  17.104  16.952  12.520
    1HEX    H1V14335  17.048  16.856  12.745
    1HEX    H1W14336  17.191  16.928  12.815
    1HEX    H1Y14337  17.395  17.235  12.740
    1HEX    H1Z14338  17.328  17.248  12.891
    1HEX    H2014339   0.069   0.093  12.968
    1HEX    H2114340   0.203  17.429  12.980
    1HEX    H2214341   0.051  17.166  13.088
    1HEX    H2314342   0.087  17.208  13.253
    1HEX    H2414343   0.474  17.121  13.076
    1HEX    H2514344   0.523  17.124  13.243
    1HEX    H2614345   0.569  17.387  13.200
    1HEX    H2714346   0.578  17.335  13.033
    1HEX    H2914347   0.088   0.142  13.203
    1HEX    H2A14348   0.224   0.035  13.216
    1HEX    H2B14349   0.040  17.364  13.585
    1HEX    H2C14350  17.413   0.085  13.592
    1HEX    H2D14351   0.203   0.155  13.707
    1HEX    H2E14352   0.229  17.423  13.725
    1HEX    H2G14353  17.284  17.356  13.050
    1HEX    H2H14354  17.315   0.067  13.124
    1HEX    H2I14355  17.045   0.035  13.346
    1HEX    H2J14356  16.983  17.316  13.385
    1HEX    H2K14357  16.857  17.302  13.172
    1HEX    H2M14358  16.927   0.010  13.114
    1STR    S0014359   0.139  17.339  12.179
    1STR    S0E14360  17.259   0.768  12.888
    1STR    S0M14361  17.248  16.736  12.677
    1STR    S0X14362   0.761  17.242  13.163
    1STR    S1414363   0.041   0.060  13.859
    1STR    S1B14364  16.746   0.057  13.264
    1HEX    C0114365   0.238   4.240  16.687
    1HEX    C0214366   0.193   4.249  16.835
    1HEX    C0314367   0.044   4.245  16.864
    1HEX    O0414368  17.418   4.143  16.846
    1HEX    O0514369  17.439   4.360  16.917
    1HEX    C0614370  17.302   4.375  16.949
    1HEX    C0714371  17.270   4.359  17.100
    1HEX    C0814372  17.295   4.494  17.177
    1HEX    O0914373  17.245   4.627  17.148
    1HEX    C0A14374  17.274   4.724  17.245
    1HEX    O0B14375  17.310   4.696  17.359
    1HEX    C0C14376  17.266   4.874  17.204
    1HEX    C0D14377  17.331   4.969  17.313
    1HEX    C0F14378  17.123   4.303  17.110
    1HEX    O0G14379  17.122   4.158  17.096
    1HEX    C0H14380  17.080   4.094  16.984
    1HEX    O0I14381  17.017   4.148  16.893
    1HEX    C0J14382  17.119   3.945  16.977
    1HEX    C0K14383  17.085   3.861  17.103
    1HEX    C0N14384  17.358   4.247  17.170
    1HEX    O0O14385   0.053   4.271  17.216
    1HEX    C0P14386   0.089   4.341  17.338
    1HEX    C0Q14387   0.059   4.284   0.041
    1HEX    C0R14388   0.139   4.152   0.064
    1HEX    O0S14389   0.279   4.161   0.033
    1HEX    C0T14390   0.373   4.165   0.130
    1HEX    O0U14391   0.351   4.181   0.250
    1HEX    C0V14392   0.517   4.143   0.080
    1HEX    C0W14393   0.604   4.272   0.083
    1HEX    C0Y14394   0.108   4.391   0.142
    1HEX    O0Z14395   0.082   4.351   0.276
    1HEX    C1014396   0.136   4.422   0.376
    1HEX    O1114397   0.209   4.520   0.363
    1HEX    C1214398   0.094   4.371   0.513
    1HEX    C1314399   0.196   4.409   0.622
    1HEX    C1514400  17.345   4.261   0.054
    1HEX    O1614401  17.275   4.254   0.179
    1HEX    C1714402  17.146   4.208   0.174
    1HEX    O1814403  17.099   4.143   0.081
    1HEX    C1914404  17.057   4.247   0.292
    1HEX    C1A14405  16.932   4.327   0.244
    1HEX    H1D14406   0.293   4.148  16.673
    1HEX    H1E14407   0.307   4.321  16.664
    1HEX    H1F14408   0.232   4.341  16.879
    1HEX    H1G14409   0.237   4.167  16.892
    1HEX    H1H14410  17.243   4.306  16.888
    1HEX    H1I14411  17.270   4.474  16.915
    1HEX    H1J14412  17.402   4.510  17.167
    1HEX    H1K14413  17.273   4.474  17.281
    1HEX    H1M14414  17.162   4.899  17.188
    1HEX    H1N14415  17.318   4.886  17.109
    1HEX    H1O14416  17.438   4.952  17.318
    1HEX    H1P14417  17.293   4.939  17.411
    1HEX    H1R14418  17.056   4.350  17.037
    1HEX    H1S14419  17.080   4.325  17.207
    1HEX    H1T14420  17.225   3.938  16.954
    1HEX    H1U14421  17.067   3.903  16.890
    1HEX    H1V14422  16.986   3.890  17.137
    1HEX    H1W14423  17.154   3.885  17.184
    1HEX    H1Y14424  17.369   4.166  17.098
    1HEX    H1Z14425  17.300   4.199  17.248
    1HEX    H2014426   0.057   4.445  17.335
    1HEX    H2114427   0.197   4.350  17.329
    1HEX    H2214428   0.097   4.074   0.000
    1HEX    H2314429   0.123   4.117   0.166
    1HEX    H2414430   0.513   4.099  17.420
    1HEX    H2514431   0.562   4.068   0.145
    1HEX    H2614432   0.604   4.313   0.184
    1HEX    H2714433   0.560   4.348   0.019
    1HEX    H2914434   0.062   4.488   0.124
    1HEX    H2A14435   0.216   4.406   0.130
    1HEX    H2B14436   0.086   4.262   0.505
    1HEX    H2C14437  17.435   4.410   0.537
    1HEX    H2D14438   0.192   4.516   0.641
    1HEX    H2E14439   0.296   4.388   0.586
    1HEX    H2G14440  17.324   4.167   0.004
    1HEX    H2H14441  17.293   4.340   0.002
    1HEX    H2I14442  17.115   4.305   0.364
    1HEX    H2J14443  17.026   4.155   0.342
    1HEX    H2K14444  16.932   4.334   0.135
    1HEX    H2M14445  16.934   4.430   0.279
    1STR    S0014446   0.109   4.242  16.557
    1STR    S0E14447  17.299   5.153  17.307
    1STR    S0M14448  17.082   3.678  17.078
    1STR    S0X14449   0.778   4.243   0.027
    1STR    S1414450   0.171   4.318   0.778
    1STR    S1B14451  16.770   4.253   0.289
    1HEX    C0114452   0.225   4.208   3.622
    1HEX    C0214453   0.210   4.236   3.773
    1HEX    C0314454   0.068   4.207   3.820
    1HEX    O0414455   0.025   4.091   3.820
    1HEX    O0514456   0.002   4.316   3.862
    1HEX    C0614457  17.305   4.304   3.900
    1HEX    C0714458  17.283   4.302   4.054
    1HEX    C0814459  17.299   4.448   4.111
    1HEX    O0914460  17.234   4.570   4.069
    1HEX    C0A14461  17.233   4.674   4.162
    1HEX    O0B14462  17.223   4.657   4.283
    1HEX    C0C14463  17.256   4.816   4.106
    1HEX    C0D14464  17.263   4.930   4.215
    1HEX    C0F14465  17.144   4.232   4.081
    1HEX    O0G14466  17.160   4.089   4.099
    1HEX    C0H14467  17.129   3.999   4.003
    1HEX    O0I14468  17.064   4.025   3.902
    1HEX    C0J14469  17.189   3.857   4.022
    1HEX    C0K14470  17.187   3.792   4.164
    1HEX    C0N14471  17.389   4.210   4.128
    1HEX    O0O14472   0.075   4.264   4.169
    1HEX    C0P14473   0.093   4.342   4.290
    1HEX    C0Q14474   0.040   4.293   4.429
    1HEX    C0R14475   0.094   4.149   4.455
    1HEX    O0S14476   0.235   4.135   4.425
    1HEX    C0T14477   0.332   4.144   4.521
    1HEX    O0U14478   0.312   4.173   4.639
    1HEX    C0V14479   0.473   4.109   4.472
    1HEX    C0W14480   0.571   4.229   4.455
    1HEX    C0Y14481   0.102   4.389   4.534
    1HEX    O0Z14482   0.061   4.357   4.666
    1HEX    C1014483   0.116   4.424   4.768
    1HEX    O1114484   0.202   4.512   4.757
    1HEX    C1214485   0.059   4.382   4.903
    1HEX    C1314486   0.157   4.403   5.022
    1HEX    C1514487  17.323   4.312   4.436
    1HEX    O1614488  17.238   4.258   4.538
    1HEX    C1714489  17.128   4.188   4.498
    1HEX    O1814490  17.130   4.105   4.407
    1HEX    C1914491  16.995   4.227   4.564
    1HEX    C1A14492  16.899   4.294   4.461
    1HEX    H1D14493   0.321   4.162   3.600
    1HEX    H1E14494   0.150   4.135   3.589
    1HEX    H1F14495   0.239   4.337   3.799
    1HEX    H1G14496   0.275   4.169   3.829
    1HEX    H1H14497  17.260   4.216   3.853
    1HEX    H1I14498  17.251   4.388   3.857
    1HEX    H1J14499  17.403   4.474   4.091
    1HEX    H1K14500  17.287   4.442   4.217
    1HEX    H1M14501  17.178   4.839   4.033
    1HEX    H1N14502  17.350   4.813   4.051
    1HEX    H1O14503  17.297   4.891   4.312
    1HEX    H1P14504  17.164   4.969   4.234
    1HEX    H1R14505  17.071   4.255   4.002
    1HEX    H1S14506  17.099   4.271   4.172
    1HEX    H1T14507  17.292   3.863   3.986
    1HEX    H1U14508  17.137   3.792   3.952
    1HEX    H1V14509  17.085   3.789   4.204
    1HEX    H1W14510  17.246   3.851   4.235
    1HEX    H1Y14511  17.413   4.128   4.060
    1HEX    H1Z14512  17.349   4.153   4.211
    1HEX    H2014513   0.063   4.445   4.275
    1HEX    H2114514   0.201   4.349   4.296
    1HEX    H2214515   0.041   4.078   4.392
    1HEX    H2314516   0.073   4.118   4.558
    1HEX    H2414517   0.466   4.051   4.381
    1HEX    H2514518   0.513   4.042   4.548
    1HEX    H2614519   0.532   4.320   4.501
    1HEX    H2714520   0.582   4.252   4.348
    1HEX    H2914521   0.075   4.493   4.513
    1HEX    H2A14522   0.211   4.386   4.529
    1HEX    H2B14523   0.028   4.278   4.898
    1HEX    H2C14524  17.409   4.441   4.917
    1HEX    H2D14525   0.236   4.473   4.994
    1HEX    H2E14526   0.207   4.310   5.048
    1HEX    H2G14527  17.278   4.283   4.343
    1HEX    H2H14528  17.304   4.419   4.440
    1HEX    H2I14529  17.012   4.290   4.651
    1HEX    H2J14530  16.950   4.134   4.600
    1HEX    H2K14531  16.921   4.254   4.362
    1HEX    H2M14532  16.920   4.401   4.454
    1STR    S0014533   0.211   4.362   3.525
    1STR    S0E14534  17.376   5.070   4.174
    1STR    S0M14535  17.254   3.618   4.157
    1STR    S0X14536   0.738   4.194   4.524
    1STR    S1414537   0.074   4.474   5.168
    1STR    S1B14538  16.718   4.273   4.490
    1HEX    C0114539   0.176   4.201   7.947
    1HEX    C0214540   0.183   4.254   8.091
    1HEX    C0314541   0.049   4.238   8.160
    1HEX    O0414542  17.434   4.127   8.162
    1HEX    O0514543   0.000   4.352   8.212
    1HEX    C0614544  17.302   4.359   8.245
    1HEX    C0714545  17.269   4.344   8.396
    1HEX    C0814546  17.288   4.482   8.471
    1HEX    O0914547  17.229   4.612   8.444
    1HEX    C0A14548  17.252   4.710   8.543
    1HEX    O0B14549  17.286   4.682   8.658
    1HEX    C0C14550  17.240   4.861   8.504
    1HEX    C0D14551  17.289   4.958   8.619
    1HEX    C0F14552  17.125   4.280   8.404
    1HEX    O0G14553  17.134   4.136   8.386
    1HEX    C0H14554  17.078   4.070   8.283
    1HEX    O0I14555  16.995   4.118   8.206
    1HEX    C0J14556  17.135   3.928   8.258
    1HEX    C0K14557  17.128   3.824   8.373
    1HEX    C0N14558  17.363   4.236   8.466
    1HEX    O0O14559   0.058   4.268   8.503
    1HEX    C0P14560   0.096   4.346   8.619
    1HEX    C0Q14561   0.060   4.301   8.764
    1HEX    C0R14562   0.121   4.159   8.788
    1HEX    O0S14563   0.261   4.149   8.750
    1HEX    C0T14564   0.364   4.160   8.840
    1HEX    O0U14565   0.350   4.188   8.959
    1HEX    C0V14566   0.504   4.127   8.784
    1HEX    C0W14567   0.601   4.248   8.765
    1HEX    C0Y14568   0.129   4.400   8.860
    1HEX    O0Z14569   0.086   4.367   8.990
    1HEX    C1014570   0.135   4.430   9.095
    1HEX    O1114571   0.224   4.515   9.095
    1HEX    C1214572   0.062   4.386   9.220
    1HEX    C1314573   0.128   4.434   9.350
    1HEX    C1514574  17.345   4.319   8.787
    1HEX    O1614575  17.271   4.265   8.898
    1HEX    C1714576  17.151   4.204   8.870
    1HEX    O1814577  17.132   4.132   8.772
    1HEX    C1914578  17.034   4.238   8.964
    1HEX    C1A14579  16.918   4.305   8.884
    1HEX    H1D14580   0.258   4.133   7.926
    1HEX    H1E14581   0.085   4.142   7.932
    1HEX    H1F14582   0.214   4.359   8.095
    1HEX    H1G14583   0.256   4.197   8.149
    1HEX    H1H14584  17.247   4.286   8.185
    1HEX    H1I14585  17.264   4.455   8.208
    1HEX    H1J14586  17.392   4.505   8.455
    1HEX    H1K14587  17.271   4.462   8.575
    1HEX    H1M14588  17.136   4.881   8.478
    1HEX    H1N14589  17.299   4.877   8.414
    1HEX    H1O14590  17.395   4.942   8.637
    1HEX    H1P14591  17.240   4.930   8.713
    1HEX    H1R14592  17.057   4.326   8.332
    1HEX    H1S14593  17.080   4.298   8.502
    1HEX    H1T14594  17.238   3.942   8.227
    1HEX    H1U14595  17.083   3.888   8.171
    1HEX    H1V14596  17.025   3.804   8.404
    1HEX    H1W14597  17.180   3.861   8.462
    1HEX    H1Y14598  17.376   4.155   8.394
    1HEX    H1Z14599  17.313   4.179   8.544
    1HEX    H2014600   0.071   4.451   8.608
    1HEX    H2114601   0.205   4.347   8.611
    1HEX    H2214602   0.066   4.086   8.729
    1HEX    H2314603   0.107   4.129   8.892
    1HEX    H2414604   0.493   4.070   8.692
    1HEX    H2514605   0.548   4.059   8.857
    1HEX    H2614606   0.598   4.314   8.852
    1HEX    H2714607   0.569   4.309   8.680
    1HEX    H2914608   0.102   4.503   8.839
    1HEX    H2A14609   0.238   4.396   8.853
    1HEX    H2B14610   0.056   4.277   9.219
    1HEX    H2C14611  17.400   4.424   9.213
    1HEX    H2D14612   0.139   4.543   9.351
    1HEX    H2E14613   0.228   4.393   9.360
    1HEX    H2G14614  17.289   4.294   8.699
    1HEX    H2H14615  17.326   4.427   8.795
    1HEX    H2I14616  17.068   4.300   9.047
    1HEX    H2J14617  16.999   4.144   9.007
    1HEX    H2K14618  16.903   4.252   8.790
    1HEX    H2M14619  16.946   4.407   8.857
    1STR    S0014620   0.173   4.331   7.819
    1STR    S0E14621  17.262   5.142   8.601
    1STR    S0M14622  17.207   3.665   8.320
    1STR    S0X14623   0.775   4.193   8.736
    1STR    S1414624   0.024   4.380   9.489
    1STR    S1B14625  16.753   4.313   8.967
    1HEX    C0114626   0.235   4.200  12.402
    1HEX    C0214627   0.169   4.174  12.539
    1HEX    C0314628   0.019   4.193  12.544
    1HEX    O0414629  17.383   4.097  12.526
    1HEX    O0514630  17.423   4.316  12.585
    1HEX    C0614631  17.286   4.343  12.617
    1HEX    C0714632  17.257   4.338  12.770
    1HEX    C0814633  17.285   4.478  12.835
    1HEX    O0914634  17.233   4.608  12.799
    1HEX    C0A14635  17.264   4.714  12.886
    1HEX    O0B14636  17.294   4.698  13.004
    1HEX    C0C14637  17.264   4.857  12.826
    1HEX    C0D14638  17.230   4.976  12.924
    1HEX    C0F14639  17.110   4.284  12.787
    1HEX    O0G14640  17.112   4.139  12.789
    1HEX    C0H14641  17.064   4.061  12.691
    1HEX    O0I14642  16.984   4.097  12.604
    1HEX    C0J14643  17.127   3.921  12.689
    1HEX    C0K14644  17.060   3.811  12.777
    1HEX    C0N14645  17.349   4.231  12.844
    1HEX    O0O14646   0.044   4.263  12.881
    1HEX    C0P14647   0.080   4.342  12.997
    1HEX    C0Q14648   0.043   4.296  13.142
    1HEX    C0R14649   0.101   4.153  13.165
    1HEX    O0S14650   0.240   4.142  13.126
    1HEX    C0T14651   0.342   4.150  13.216
    1HEX    O0U14652   0.329   4.173  13.336
    1HEX    C0V14653   0.481   4.120  13.156
    1HEX    C0W14654   0.599   4.204  13.214
    1HEX    C0Y14655   0.114   4.395  13.239
    1HEX    O0Z14656   0.079   4.371  13.375
    1HEX    C1014657   0.136   4.446  13.471
    1HEX    O1114658   0.222   4.532  13.451
    1HEX    C1214659   0.084   4.416  13.611
    1HEX    C1314660   0.196   4.388  13.714
    1HEX    C1514661  17.328   4.314  13.165
    1HEX    O1614662  17.258   4.239  13.265
    1HEX    C1714663  17.139   4.181  13.230
    1HEX    O1814664  17.111   4.137  13.119
    1HEX    C1914665  17.033   4.182  13.342
    1HEX    C1A14666  16.903   4.259  13.302
    1HEX    H1D14667   0.335   4.158  12.403
    1HEX    H1E14668   0.245   4.308  12.387
    1HEX    H1F14669   0.213   4.242  12.613
    1HEX    H1G14670   0.190   4.073  12.573
    1HEX    H1H14671  17.222   4.273  12.561
    1HEX    H1I14672  17.260   4.440  12.576
    1HEX    H1J14673  17.391   4.495  12.816
    1HEX    H1K14674  17.270   4.468  12.942
    1HEX    H1M14675  17.191   4.856  12.745
    1HEX    H1N14676  17.361   4.874  12.780
    1HEX    H1O14677  17.181   4.934  13.012
    1HEX    H1P14678  17.156   5.042  12.879
    1HEX    H1R14679  17.043   4.322  12.709
    1HEX    H1S14680  17.068   4.317  12.882
    1HEX    H1T14681  17.231   3.934  12.718
    1HEX    H1U14682  17.130   3.886  12.585
    1HEX    H1V14683  16.985   3.756  12.720
    1HEX    H1W14684  17.006   3.856  12.862
    1HEX    H1Y14685  17.358   4.146  12.776
    1HEX    H1Z14686  17.299   4.180  12.926
    1HEX    H2014687   0.054   4.447  12.986
    1HEX    H2114688   0.189   4.344  12.990
    1HEX    H2214689   0.044   4.082  13.105
    1HEX    H2314690   0.086   4.123  13.269
    1HEX    H2414691   0.475   4.128  13.048
    1HEX    H2514692   0.498   4.014  13.178
    1HEX    H2614693   0.559   4.297  13.172
    1HEX    H2714694   0.671   4.127  13.189
    1HEX    H2914695   0.088   4.498  13.215
    1HEX    H2A14696   0.222   4.390  13.228
    1HEX    H2B14697   0.016   4.331  13.606
    1HEX    H2C14698   0.024   4.502  13.642
    1HEX    H2D14699   0.293   4.407  13.667
    1HEX    H2E14700   0.197   4.283  13.742
    1HEX    H2G14701  17.273   4.307  13.074
    1HEX    H2H14702  17.310   4.419  13.191
    1HEX    H2I14703  17.079   4.231  13.428
    1HEX    H2J14704  17.010   4.080  13.372
    1HEX    H2K14705  16.923   4.326  13.218
    1HEX    H2M14706  16.871   4.324  13.384
    1STR    S0014707   0.155   4.132  12.254
    1STR    S0E14708  17.366   5.084  12.990
    1STR    S0M14709  17.185   3.690  12.836
    1STR    S0X14710   0.735   4.283  13.117
    1STR    S1414711   0.192   4.491  13.865
    1STR    S1B14712  16.759   4.155  13.256
    1HEX    C0114713   0.289   8.642  16.788
    1HEX    C0214714   0.202   8.704  16.899
    1HEX    C0314715   0.062   8.646  16.904
    1HEX    O0414716   0.039   8.528  16.878
    1HEX    O0514717  17.413   8.735  16.952
    1HEX    C0614718  17.280   8.694  16.980
    1HEX    C0714719  17.258   8.670  17.132
    1HEX    C0814720  17.241   8.808  17.208
    1HEX    O0914721  17.205   8.936  17.152
    1HEX    C0A14722  17.215   9.045  17.240
    1HEX    O0B14723  17.238   9.030  17.360
    1HEX    C0C14724  17.202   9.189  17.183
    1HEX    C0D14725  17.249   9.299  17.285
    1HEX    C0F14726  17.131   8.577  17.146
    1HEX    O0G14727  17.166   8.436  17.148
    1HEX    C0H14728  17.136   8.352  17.047
    1HEX    O0I14729  17.063   8.380  16.953
    1HEX    C0J14730  17.209   8.215  17.051
    1HEX    C0K14731  17.228   8.142  17.188
    1HEX    C0N14732  17.376   8.583  17.194
    1HEX    O0O14733   0.063   8.642  17.228
    1HEX    C0P14734   0.094   8.711  17.351
    1HEX    C0Q14735   0.044   8.662   0.052
    1HEX    C0R14736   0.097   8.518   0.078
    1HEX    O0S14737   0.238   8.502   0.048
    1HEX    C0T14738   0.335   8.508   0.145
    1HEX    O0U14739   0.316   8.539   0.262
    1HEX    C0V14740   0.476   8.467   0.097
    1HEX    C0W14741   0.576   8.582   0.066
    1HEX    C0Y14742   0.108   8.757   0.156
    1HEX    O0Z14743   0.067   8.724   0.288
    1HEX    C1014744   0.129   8.782   0.392
    1HEX    O1114745   0.220   8.865   0.383
    1HEX    C1214746   0.069   8.739   0.525
    1HEX    C1314747   0.158   8.774   0.647
    1HEX    C1514748  17.328   8.685   0.060
    1HEX    O1614749  17.242   8.643   0.168
    1HEX    C1714750  17.126   8.577   0.134
    1HEX    O1814751  17.118   8.491   0.047
    1HEX    C1914752  16.998   8.627   0.204
    1HEX    C1A14753  16.897   8.686   0.100
    1HEX    H1D14754   0.394   8.653  16.814
    1HEX    H1E14755   0.271   8.535  16.785
    1HEX    H1F14756   0.198   8.812  16.892
    1HEX    H1G14757   0.245   8.679  16.996
    1HEX    H1H14758  17.254   8.606  16.921
    1HEX    H1I14759  17.213   8.772  16.944
    1HEX    H1J14760  17.341   8.832  17.242
    1HEX    H1K14761  17.179   8.794  17.296
    1HEX    H1M14762  17.098   9.204  17.154
    1HEX    H1N14763  17.261   9.195  17.091
    1HEX    H1O14764  17.357   9.292  17.297
    1HEX    H1P14765  17.209   9.276  17.384
    1HEX    H1R14766  17.056   8.600  17.069
    1HEX    H1S14767  17.079   8.597  17.240
    1HEX    H1T14768  17.306   8.229  17.003
    1HEX    H1U14769  17.153   8.150  16.984
    1HEX    H1V14770  17.135   8.140  17.244
    1HEX    H1W14771  17.300   8.196  17.250
    1HEX    H1Y14772  17.401   8.509  17.119
    1HEX    H1Z14773  17.345   8.517  17.275
    1HEX    H2014774   0.075   8.817  17.340
    1HEX    H2114775   0.203   8.708  17.353
    1HEX    H2214776   0.043   8.447   0.016
    1HEX    H2314777   0.076   8.488   0.181
    1HEX    H2414778   0.467   8.399   0.012
    1HEX    H2514779   0.516   8.407   0.179
    1HEX    H2614780   0.539   8.677   0.105
    1HEX    H2714781   0.585   8.595  17.398
    1HEX    H2914782   0.081   8.861   0.138
    1HEX    H2A14783   0.217   8.754   0.150
    1HEX    H2B14784   0.049   8.632   0.522
    1HEX    H2C14785  17.413   8.790   0.532
    1HEX    H2D14786   0.213   8.867   0.630
    1HEX    H2E14787   0.232   8.697   0.664
    1HEX    H2G14788  17.282   8.647  17.411
    1HEX    H2H14789  17.310   8.792   0.054
    1HEX    H2I14790  17.022   8.699   0.282
    1HEX    H2J14791  16.954   8.540   0.254
    1HEX    H2K14792  16.901   8.627   0.008
    1HEX    H2M14793  16.926   8.787   0.073
    1STR    S0014794   0.269   8.713  16.620
    1STR    S0E14795  17.204   9.477  17.257
    1STR    S0M14796  17.287   7.968  17.162
    1STR    S0X14797   0.744   8.551   0.137
    1STR    S1414798   0.053   8.800   0.795
    1STR    S1B14799  16.718   8.690   0.149
    1HEX    C0114800   0.251   8.606   3.627
    1HEX    C0214801   0.224   8.658   3.769
    1HEX    C0314802   0.081   8.633   3.813
    1HEX    O0414803   0.032   8.520   3.808
    1HEX    O0514804   0.019   8.745   3.855
    1HEX    C0614805  17.319   8.743   3.875
    1HEX    C0714806  17.275   8.725   4.023
    1HEX    C0814807  17.291   8.858   4.105
    1HEX    O0914808  17.246   8.992   4.074
    1HEX    C0A14809  17.271   9.088   4.174
    1HEX    O0B14810  17.302   9.058   4.289
    1HEX    C0C14811  17.265   9.239   4.135
    1HEX    C0D14812  17.329   9.331   4.246
    1HEX    C0F14813  17.129   8.667   4.019
    1HEX    O0G14814  17.133   8.523   4.000
    1HEX    C0H14815  17.093   8.463   3.885
    1HEX    O0I14816  17.025   8.518   3.799
    1HEX    C0J14817  17.147   8.320   3.864
    1HEX    C0K14818  17.163   8.230   3.990
    1HEX    C0N14819  17.358   8.613   4.097
    1HEX    O0O14820   0.056   8.629   4.138
    1HEX    C0P14821   0.101   8.701   4.255
    1HEX    C0Q14822   0.071   8.648   4.399
    1HEX    C0R14823   0.148   8.516   4.426
    1HEX    O0S14824   0.288   8.521   4.392
    1HEX    C0T14825   0.384   8.528   4.488
    1HEX    O0U14826   0.364   8.546   4.608
    1HEX    C0V14827   0.526   8.506   4.435
    1HEX    C0W14828   0.614   8.633   4.435
    1HEX    C0Y14829   0.123   8.757   4.497
    1HEX    O0Z14830   0.089   8.718   4.629
    1HEX    C1014831   0.139   8.784   4.733
    1HEX    O1114832   0.222   8.875   4.729
    1HEX    C1214833   0.078   8.734   4.863
    1HEX    C1314834   0.169   8.758   4.984
    1HEX    C1514835  17.357   8.628   4.414
    1HEX    O1614836  17.286   8.630   4.538
    1HEX    C1714837  17.156   8.586   4.533
    1HEX    O1814838  17.111   8.513   4.445
    1HEX    C1914839  17.063   8.641   4.641
    1HEX    C1A14840  16.945   8.721   4.579
    1HEX    H1D14841   0.357   8.588   3.613
    1HEX    H1E14842   0.202   8.509   3.614
    1HEX    H1F14843   0.248   8.764   3.778
    1HEX    H1G14844   0.286   8.605   3.841
    1HEX    H1H14845  17.274   8.667   3.811
    1HEX    H1I14846  17.279   8.837   3.836
    1HEX    H1J14847  17.398   8.876   4.105
    1HEX    H1K14848  17.258   8.837   4.206
    1HEX    H1M14849  17.161   9.265   4.117
    1HEX    H1N14850  17.318   9.252   4.041
    1HEX    H1O14851  17.436   9.310   4.254
    1HEX    H1P14852  17.288   9.303   4.344
    1HEX    H1R14853  17.067   8.717   3.944
    1HEX    H1S14854  17.078   8.685   4.114
    1HEX    H1T14855  17.243   8.329   3.813
    1HEX    H1U14856  17.080   8.271   3.793
    1HEX    H1V14857  17.072   8.233   4.051
    1HEX    H1W14858  17.243   8.269   4.053
    1HEX    H1Y14859  17.366   8.528   4.028
    1HEX    H1Z14860  17.297   8.570   4.175
    1HEX    H2014861   0.075   8.806   4.250
    1HEX    H2114862   0.209   8.703   4.243
    1HEX    H2214863   0.105   8.436   4.365
    1HEX    H2314864   0.133   8.484   4.529
    1HEX    H2414865   0.520   8.461   4.336
    1HEX    H2514866   0.571   8.431   4.500
    1HEX    H2614867   0.616   8.678   4.534
    1HEX    H2714868   0.571   8.708   4.368
    1HEX    H2914869   0.080   8.855   4.477
    1HEX    H2A14870   0.231   8.768   4.489
    1HEX    H2B14871   0.061   8.627   4.850
    1HEX    H2C14872  17.421   8.782   4.876
    1HEX    H2D14873   0.170   8.864   5.009
    1HEX    H2E14874   0.272   8.731   4.960
    1HEX    H2G14875  17.336   8.531   4.368
    1HEX    H2H14876  17.307   8.705   4.357
    1HEX    H2I14877  17.120   8.700   4.713
    1HEX    H2J14878  17.026   8.554   4.695
    1HEX    H2K14879  16.939   8.702   4.472
    1HEX    H2M14880  16.961   8.828   4.590
    1STR    S0014881   0.193   8.716   3.494
    1STR    S0E14882  17.306   9.516   4.236
    1STR    S0M14883  17.197   8.054   3.946
    1STR    S0X14884   0.787   8.598   4.380
    1STR    S1414885   0.112   8.658   5.125
    1STR    S1B14886  16.782   8.679   4.653
    1HEX    C0114887   0.210   8.508   7.994
    1HEX    C0214888   0.191   8.566   8.136
    1HEX    C0314889   0.048   8.552   8.184
    1HEX    O0414890  17.433   8.442   8.186
    1HEX    O0514891  17.433   8.669   8.224
    1HEX    C0614892  17.296   8.671   8.264
    1HEX    C0714893  17.274   8.672   8.418
    1HEX    C0814894  17.296   8.817   8.474
    1HEX    O0914895  17.230   8.940   8.440
    1HEX    C0A14896  17.235   9.042   8.535
    1HEX    O0B14897  17.237   9.022   8.656
    1HEX    C0C14898  17.247   9.187   8.481
    1HEX    C0D14899  17.232   9.302   8.588
    1HEX    C0F14900  17.131   8.610   8.444
    1HEX    O0G14901  17.143   8.467   8.464
    1HEX    C0H14902  17.101   8.374   8.375
    1HEX    O0I14903  17.024   8.396   8.282
    1HEX    C0J14904  17.172   8.238   8.391
    1HEX    C0K14905  17.122   8.142   8.504
    1HEX    C0N14906  17.376   8.576   8.492
    1HEX    O0O14907   0.065   8.626   8.530
    1HEX    C0P14908   0.087   8.704   8.650
    1HEX    C0Q14909   0.038   8.656   8.791
    1HEX    C0R14910   0.092   8.512   8.815
    1HEX    O0S14911   0.232   8.497   8.779
    1HEX    C0T14912   0.333   8.507   8.870
    1HEX    O0U14913   0.319   8.537   8.988
    1HEX    C0V14914   0.471   8.471   8.813
    1HEX    C0W14915   0.566   8.590   8.779
    1HEX    C0Y14916   0.104   8.752   8.894
    1HEX    O0Z14917   0.063   8.722   9.027
    1HEX    C1014918   0.116   8.794   9.127
    1HEX    O1114919   0.199   8.884   9.114
    1HEX    C1214920   0.059   8.755   9.264
    1HEX    C1314921   0.163   8.761   9.379
    1HEX    C1514922  17.322   8.675   8.804
    1HEX    O1614923  17.242   8.614   8.906
    1HEX    C1714924  17.134   8.540   8.867
    1HEX    O1814925  17.133   8.466   8.769
    1HEX    C1914926  17.004   8.563   8.947
    1HEX    C1A14927  16.902   8.648   8.866
    1HEX    H1D14928   0.290   8.435   7.994
    1HEX    H1E14929   0.121   8.454   7.960
    1HEX    H1F14930   0.221   8.671   8.141
    1HEX    H1G14931   0.253   8.512   8.207
    1HEX    H1H14932  17.242   8.588   8.217
    1HEX    H1I14933  17.250   8.760   8.220
    1HEX    H1J14934  17.400   8.841   8.451
    1HEX    H1K14935  17.288   8.808   8.581
    1HEX    H1M14936  17.173   9.200   8.401
    1HEX    H1N14937  17.344   9.194   8.433
    1HEX    H1O14938  17.224   9.262   8.689
    1HEX    H1P14939  17.138   9.355   8.572
    1HEX    H1R14940  17.060   8.634   8.365
    1HEX    H1S14941  17.087   8.650   8.535
    1HEX    H1T14942  17.278   8.260   8.405
    1HEX    H1U14943  17.166   8.186   8.295
    1HEX    H1V14944  17.022   8.106   8.482
    1HEX    H1W14945  17.117   8.194   8.599
    1HEX    H1Y14946  17.395   8.492   8.426
    1HEX    H1Z14947  17.334   8.522   8.577
    1HEX    H2014948   0.060   8.808   8.636
    1HEX    H2114949   0.196   8.710   8.653
    1HEX    H2214950   0.036   8.441   8.754
    1HEX    H2314951   0.075   8.481   8.919
    1HEX    H2414952   0.456   8.407   8.726
    1HEX    H2514953   0.518   8.407   8.888
    1HEX    H2614954   0.516   8.686   8.792
    1HEX    H2714955   0.595   8.584   8.674
    1HEX    H2914956   0.077   8.855   8.873
    1HEX    H2A14957   0.212   8.748   8.888
    1HEX    H2B14958   0.016   8.655   9.257
    1HEX    H2C14959  17.416   8.823   9.282
    1HEX    H2D14960   0.254   8.810   9.344
    1HEX    H2E14961   0.192   8.660   9.410
    1HEX    H2G14962  17.272   8.654   8.711
    1HEX    H2H14963  17.303   8.782   8.816
    1HEX    H2I14964  17.027   8.608   9.043
    1HEX    H2J14965  16.963   8.465   8.967
    1HEX    H2K14966  16.924   8.642   8.759
    1HEX    H2M14967  16.914   8.753   8.892
    1STR    S0014968   0.250   8.638   7.874
    1STR    S0E14969  17.369   9.426   8.595
    1STR    S0M14970  17.235   7.995   8.517
    1STR    S0X14971   0.719   8.586   8.880
    1STR    S1414972   0.104   8.855   9.524
    1STR    S1B14973  16.723   8.606   8.887
    1HEX    C0114974   0.239   8.641  12.329
    1HEX    C0214975   0.199   8.607  12.475
    1HEX    C0314976   0.049   8.598  12.501
    1HEX    O0414977  17.426   8.497  12.472
    1HEX    O0514978   0.001   8.708  12.563
    1HEX    C0614979  17.303   8.714  12.597
    1HEX    C0714980  17.276   8.691  12.748
    1HEX    C0814981  17.279   8.828  12.826
    1HEX    O0914982  17.225   8.957  12.789
    1HEX    C0A14983  17.238   9.058  12.886
    1HEX    O0B14984  17.258   9.034  13.005
    1HEX    C0C14985  17.233   9.207  12.840
    1HEX    C0D14986  17.251   9.309  12.959
    1HEX    C0F14987  17.140   8.611  12.759
    1HEX    O0G14988  17.166   8.469  12.743
    1HEX    C0H14989  17.117   8.395  12.641
    1HEX    O0I14990  17.028   8.432  12.565
    1HEX    C0J14991  17.190   8.261  12.618
    1HEX    C0K14992  17.190   8.156  12.734
    1HEX    C0N14993  17.383   8.592  12.814
    1HEX    O0O14994   0.072   8.638  12.856
    1HEX    C0P14995   0.100   8.710  12.979
    1HEX    C0Q14996   0.055   8.659  13.120
    1HEX    C0R14997   0.113   8.517  13.145
    1HEX    O0S14998   0.254   8.504  13.111
    1HEX    C0T14999   0.353   8.513  13.204
    1HEX    O0U15000   0.337   8.545  13.322
    1HEX    C0V15001   0.493   8.472  13.154
    1HEX    C0W15002   0.594   8.588  13.128
    1HEX    C0Y15003   0.118   8.757  13.222
    1HEX    O0Z15004   0.076   8.725  13.353
    1HEX    C1015005   0.131   8.788  13.456
    1HEX    O1115006   0.222   8.870  13.451
    1HEX    C1215007   0.062   8.750  13.586
    1HEX    C1315008   0.142   8.788  13.712
    1HEX    C1515009  17.338   8.675  13.133
    1HEX    O1615010  17.257   8.630  13.242
    1HEX    C1715011  17.134   8.577  13.212
    1HEX    O1815012  17.110   8.507  13.114
    1HEX    C1915013  17.018   8.618  13.305
    1HEX    C1A15014  16.908   8.700  13.228
    1HEX    H1D15015   0.197   8.541  12.313
    1HEX    H1E15016   0.191   8.738  12.333
    1HEX    H1F15017   0.240   8.682  12.543
    1HEX    H1G15018   0.243   8.512  12.508
    1HEX    H1H15019  17.246   8.644  12.536
    1HEX    H1I15020  17.265   8.812  12.566
    1HEX    H1J15021  17.384   8.855  12.825
    1HEX    H1K15022  17.247   8.809  12.927
    1HEX    H1M15023  17.140   9.224  12.786
    1HEX    H1N15024  17.315   9.220  12.768
    1HEX    H1O15025  17.344   9.289  13.011
    1HEX    H1P15026  17.172   9.291  13.033
    1HEX    H1R15027  17.065   8.648  12.689
    1HEX    H1S15028  17.095   8.624  12.858
    1HEX    H1T15029  17.293   8.287  12.592
    1HEX    H1U15030  17.148   8.215  12.529
    1HEX    H1V15031  17.090   8.115  12.748
    1HEX    H1W15032  17.217   8.204  12.828
    1HEX    H1Y15033  17.405   8.518  12.738
    1HEX    H1Z15034  17.341   8.526  12.890
    1HEX    H2015035   0.075   8.815  12.970
    1HEX    H2115036   0.209   8.712  12.979
    1HEX    H2215037   0.059   8.445  13.084
    1HEX    H2315038   0.096   8.486  13.248
    1HEX    H2415039   0.483   8.408  13.066
    1HEX    H2515040   0.533   8.409  13.233
    1HEX    H2615041   0.584   8.667  13.202
    1HEX    H2715042   0.575   8.634  13.030
    1HEX    H2915043   0.090   8.860  13.201
    1HEX    H2A15044   0.227   8.755  13.217
    1HEX    H2B15045   0.043   8.643  13.584
    1HEX    H2C15046  17.406   8.800  13.585
    1HEX    H2D15047   0.181   8.890  13.707
    1HEX    H2E15048   0.228   8.722  13.723
    1HEX    H2G15049  17.292   8.638  13.044
    1HEX    H2H15050  17.317   8.782  13.130
    1HEX    H2I15051  17.056   8.674  13.391
    1HEX    H2J15052  16.975   8.526  13.344
    1HEX    H2K15053  16.920   8.687  13.120
    1HEX    H2M15054  16.921   8.806  13.246
    1STR    S0015055   0.155   8.619  12.167
    1STR    S0E15056  17.246   9.491  12.919
    1STR    S0M15057  17.308   8.016  12.702
    1STR    S0X15058   0.768   8.526  13.130
    1STR    S1415059   0.031   8.771  13.855
    1STR    S1B15060  16.733   8.657  13.265
    1HEX    C0115061   0.231  12.986  16.686
    1HEX    C0215062   0.185  12.959  16.832
    1HEX    C0315063   0.035  12.963  16.858
    1HEX    O0415064  17.405  12.864  16.836
    1HEX    O0515065  17.435  13.077  16.917
    1HEX    C0615066  17.298  13.094  16.953
    1HEX    C0715067  17.270  13.075  17.105
    1HEX    C0815068  17.295  13.210  17.181
    1HEX    O0915069  17.241  13.341  17.151
    1HEX    C0A15070  17.268  13.440  17.246
    1HEX    O0B15071  17.303  13.414  17.361
    1HEX    C0C15072  17.259  13.589  17.202
    1HEX    C0D15073  17.321  13.687  17.310
    1HEX    C0F15074  17.124  13.020  17.117
    1HEX    O0G15075  17.125  12.876  17.097
    1HEX    C0H15076  17.071  12.817  16.989
    1HEX    O0I15077  16.994  12.871  16.910
    1HEX    C0J15078  17.118  12.672  16.968
    1HEX    C0K15079  17.106  12.579  17.092
    1HEX    C0N15080  17.363  12.964  17.170
    1HEX    O0O15081   0.055  12.993  17.220
    1HEX    C0P15082   0.087  13.065  17.342
    1HEX    C0Q15083   0.052  13.011   0.045
    1HEX    C0R15084   0.120  12.872   0.066
    1HEX    O0S15085   0.260  12.871   0.029
    1HEX    C0T15086   0.360  12.878   0.122
    1HEX    O0U15087   0.345  12.891   0.243
    1HEX    C0V15088   0.502  12.863   0.061
    1HEX    C0W15089   0.610  12.952   0.129
    1HEX    C0Y15090   0.112  13.111   0.147
    1HEX    O0Z15091   0.083  13.073   0.281
    1HEX    C1015092   0.137  13.144   0.381
    1HEX    O1115093   0.211  13.242   0.366
    1HEX    C1215094   0.098  13.093   0.519
    1HEX    C1315095   0.194  13.145   0.627
    1HEX    C1515096  17.336  13.014   0.062
    1HEX    O1615097  17.270  12.968   0.181
    1HEX    C1715098  17.143  12.916   0.167
    1HEX    O1815099  17.100  12.860   0.066
    1HEX    C1915100  17.050  12.940   0.286
    1HEX    C1A15101  16.922  13.019   0.244
    1HEX    H1D15102   0.315  12.919  16.665
    1HEX    H1E15103   0.270  13.087  16.676
    1HEX    H1F15104   0.232  13.031  16.899
    1HEX    H1G15105   0.219  12.861  16.864
    1HEX    H1H15106  17.236  13.027  16.892
    1HEX    H1I15107  17.268  13.194  16.921
    1HEX    H1J15108  17.401  13.229  17.168
    1HEX    H1K15109  17.276  13.189  17.286
    1HEX    H1M15110  17.154  13.613  17.184
    1HEX    H1N15111  17.311  13.601  17.108
    1HEX    H1O15112  17.429  13.673  17.316
    1HEX    H1P15113  17.283  13.656  17.408
    1HEX    H1R15114  17.055  13.070  17.049
    1HEX    H1S15115  17.084  13.038  17.217
    1HEX    H1T15116  17.222  12.677  16.936
    1HEX    H1U15117  17.063  12.630  16.884
    1HEX    H1V15118  17.004  12.577  17.128
    1HEX    H1W15119  17.167  12.616  17.174
    1HEX    H1Y15120  17.380  12.890  17.092
    1HEX    H1Z15121  17.310  12.899  17.239
    1HEX    H2015122   0.058  13.169  17.337
    1HEX    H2115123   0.195  13.072  17.336
    1HEX    H2215124   0.070  12.798   0.004
    1HEX    H2315125   0.106  12.838   0.169
    1HEX    H2415126   0.494  12.885  17.395
    1HEX    H2515127   0.530  12.758   0.069
    1HEX    H2615128   0.569  13.051   0.151
    1HEX    H2715129   0.638  12.909   0.225
    1HEX    H2915130   0.075  13.212   0.130
    1HEX    H2A15131   0.221  13.117   0.135
    1HEX    H2B15132   0.099  12.984   0.515
    1HEX    H2C15133  17.435  13.124   0.540
    1HEX    H2D15134   0.182  13.252   0.641
    1HEX    H2E15135   0.297  13.130   0.592
    1HEX    H2G15136  17.291  12.963  17.420
    1HEX    H2H15137  17.303  13.118   0.052
    1HEX    H2I15138  17.105  12.996   0.362
    1HEX    H2J15139  17.024  12.844   0.330
    1HEX    H2K15140  16.930  13.051   0.140
    1HEX    H2M15141  16.910  13.110   0.302
    1STR    S0015142   0.111  12.958  16.551
    1STR    S0E15143  17.285  13.869  17.305
    1STR    S0M15144  17.155  12.405  17.052
    1STR    S0X15145   0.762  12.976   0.026
    1STR    S1415146   0.178  13.061   0.789
    1STR    S1B15147  16.765  12.923   0.256
    1HEX    C0115148   0.216  12.956   3.614
    1HEX    C0215149   0.214  12.974   3.767
    1HEX    C0315150   0.077  12.937   3.822
    1HEX    O0415151   0.041  12.819   3.824
    1HEX    O0515152   0.005  13.043   3.862
    1HEX    C0615153  17.308  13.024   3.898
    1HEX    C0715154  17.283  13.020   4.051
    1HEX    C0815155  17.289  13.167   4.109
    1HEX    O0915156  17.229  13.288   4.058
    1HEX    C0A15157  17.236  13.398   4.143
    1HEX    O0B15158  17.248  13.389   4.265
    1HEX    C0C15159  17.234  13.539   4.079
    1HEX    C0D15160  17.276  13.652   4.181
    1HEX    C0F15161  17.147  12.943   4.074
    1HEX    O0G15162  17.169  12.800   4.089
    1HEX    C0H15163  17.141  12.711   3.991
    1HEX    O0I15164  17.075  12.737   3.891
    1HEX    C0J15165  17.206  12.571   4.007
    1HEX    C0K15166  17.214  12.505   4.149
    1HEX    C0N15167  17.392  12.932   4.126
    1HEX    O0O15168   0.077  12.989   4.166
    1HEX    C0P15169   0.094  13.066   4.287
    1HEX    C0Q15170   0.044  13.016   4.427
    1HEX    C0R15171   0.100  12.873   4.452
    1HEX    O0S15172   0.241  12.861   4.421
    1HEX    C0T15173   0.338  12.869   4.517
    1HEX    O0U15174   0.319  12.896   4.635
    1HEX    C0V15175   0.480  12.835   4.466
    1HEX    C0W15176   0.568  12.955   4.422
    1HEX    C0Y15177   0.105  13.112   4.531
    1HEX    O0Z15178   0.064  13.078   4.663
    1HEX    C1015179   0.122  13.142   4.766
    1HEX    O1115180   0.209  13.229   4.756
    1HEX    C1215181   0.065  13.098   4.901
    1HEX    C1315182   0.158  13.128   5.020
    1HEX    C1515183  17.327  13.036   4.433
    1HEX    O1615184  17.240  12.987   4.536
    1HEX    C1715185  17.128  12.919   4.496
    1HEX    O1815186  17.127  12.833   4.408
    1HEX    C1915187  16.995  12.966   4.559
    1HEX    C1A15188  16.899  13.024   4.449
    1HEX    H1D15189   0.314  12.925   3.578
    1HEX    H1E15190   0.147  12.876   3.587
    1HEX    H1F15191   0.242  13.075   3.797
    1HEX    H1G15192   0.285  12.906   3.813
    1HEX    H1H15193  17.269  12.935   3.849
    1HEX    H1I15194  17.251  13.106   3.854
    1HEX    H1J15195  17.394  13.195   4.101
    1HEX    H1K15196  17.262  13.161   4.213
    1HEX    H1M15197  17.135  13.558   4.038
    1HEX    H1N15198  17.304  13.539   3.995
    1HEX    H1O15199  17.376  13.632   4.219
    1HEX    H1P15200  17.211  13.647   4.269
    1HEX    H1R15201  17.074  12.965   3.996
    1HEX    H1S15202  17.099  12.977   4.166
    1HEX    H1T15203  17.307  12.579   3.965
    1HEX    H1U15204  17.152  12.504   3.940
    1HEX    H1V15205  17.116  12.503   4.196
    1HEX    H1W15206  17.279  12.563   4.214
    1HEX    H1Y15207  17.418  12.850   4.059
    1HEX    H1Z15208  17.353  12.873   4.209
    1HEX    H2015209   0.063  13.169   4.273
    1HEX    H2115210   0.203  13.076   4.293
    1HEX    H2215211   0.047  12.801   4.389
    1HEX    H2315212   0.080  12.841   4.554
    1HEX    H2415213   0.470  12.763   4.385
    1HEX    H2515214   0.529  12.781   4.547
    1HEX    H2615215   0.512  13.048   4.431
    1HEX    H2715216   0.593  12.945   4.317
    1HEX    H2915217   0.077  13.216   4.512
    1HEX    H2A15218   0.214  13.110   4.526
    1HEX    H2B15219   0.041  12.992   4.896
    1HEX    H2C15220  17.411  13.151   4.911
    1HEX    H2D15221   0.227  13.209   4.997
    1HEX    H2E15222   0.221  13.042   5.043
    1HEX    H2G15223  17.283  13.003   4.341
    1HEX    H2H15224  17.308  13.143   4.432
    1HEX    H2I15225  17.013  13.037   4.639
    1HEX    H2J15226  16.949  12.878   4.604
    1HEX    H2K15227  16.915  12.969   4.356
    1HEX    H2M15228  16.926  13.127   4.427
    1STR    S0015229   0.169  13.111   3.528
    1STR    S0E15230  17.269  13.827   4.122
    1STR    S0M15231  17.279  12.331   4.136
    1STR    S0X15232   0.725  12.973   4.519
    1STR    S1415233   0.064  13.180   5.168
    1STR    S1B15234  16.718  13.019   4.484
    1HEX    C0115235   0.198  12.929   7.960
    1HEX    C0215236   0.192  12.985   8.104
    1HEX    C0315237   0.054  12.967   8.164
    1HEX    O0415238  17.439  12.857   8.163
    1HEX    O0515239   0.001  13.082   8.212
    1HEX    C0615240  17.303  13.087   8.246
    1HEX    C0715241  17.273  13.075   8.398
    1HEX    C0815242  17.300  13.213   8.469
    1HEX    O0915243  17.240  13.343   8.447
    1HEX    C0A15244  17.263  13.439   8.546
    1HEX    O0B15245  17.295  13.410   8.662
    1HEX    C0C15246  17.252  13.590   8.508
    1HEX    C0D15247  17.309  13.685   8.621
    1HEX    C0F15248  17.125  13.022   8.413
    1HEX    O0G15249  17.122  12.878   8.408
    1HEX    C0H15250  17.086  12.810   8.297
    1HEX    O0I15251  17.024  12.858   8.202
    1HEX    C0J15252  17.136  12.664   8.291
    1HEX    C0K15253  17.136  12.578   8.422
    1HEX    C0N15254  17.363  12.963   8.465
    1HEX    O0O15255   0.060  12.991   8.500
    1HEX    C0P15256   0.101  13.068   8.615
    1HEX    C0Q15257   0.066  13.023   8.760
    1HEX    C0R15258   0.127  12.881   8.784
    1HEX    O0S15259   0.268  12.872   8.748
    1HEX    C0T15260   0.369  12.882   8.840
    1HEX    O0U15261   0.354  12.906   8.959
    1HEX    C0V15262   0.511  12.856   8.783
    1HEX    C0W15263   0.604  12.980   8.772
    1HEX    C0Y15264   0.136  13.121   8.857
    1HEX    O0Z15265   0.091  13.086   8.986
    1HEX    C1015266   0.139  13.146   9.094
    1HEX    O1115267   0.226  13.232   9.097
    1HEX    C1215268   0.065  13.097   9.217
    1HEX    C1315269   0.127  13.145   9.348
    1HEX    C1515270  17.351  13.042   8.786
    1HEX    O1615271  17.279  12.979   8.893
    1HEX    C1715272  17.161  12.917   8.862
    1HEX    O1815273  17.142  12.851   8.760
    1HEX    C1915274  17.044  12.945   8.958
    1HEX    C1A15275  16.928  13.021   8.887
    1HEX    H1D15276   0.291  12.876   7.943
    1HEX    H1E15277   0.119  12.856   7.945
    1HEX    H1F15278   0.223  13.089   8.109
    1HEX    H1G15279   0.260  12.928   8.168
    1HEX    H1H15280  17.250  13.010   8.189
    1HEX    H1I15281  17.263  13.180   8.207
    1HEX    H1J15282  17.405  13.234   8.447
    1HEX    H1K15283  17.291  13.193   8.575
    1HEX    H1M15284  17.147  13.612   8.487
    1HEX    H1N15285  17.307  13.605   8.416
    1HEX    H1O15286  17.415  13.666   8.634
    1HEX    H1P15287  17.264  13.657   8.717
    1HEX    H1R15288  17.059  13.067   8.338
    1HEX    H1S15289  17.083  13.052   8.509
    1HEX    H1T15290  17.238  12.672   8.254
    1HEX    H1U15291  17.080  12.611   8.213
    1HEX    H1V15292  17.040  12.528   8.434
    1HEX    H1W15293  17.150  12.640   8.511
    1HEX    H1Y15294  17.370  12.882   8.393
    1HEX    H1Z15295  17.314  12.907   8.544
    1HEX    H2015296   0.079  13.173   8.604
    1HEX    H2115297   0.210  13.066   8.606
    1HEX    H2215298   0.073  12.808   8.724
    1HEX    H2315299   0.113  12.850   8.888
    1HEX    H2415300   0.502  12.804   8.688
    1HEX    H2515301   0.556  12.785   8.852
    1HEX    H2615302   0.604  13.037   8.865
    1HEX    H2715303   0.567  13.048   8.694
    1HEX    H2915304   0.109  13.225   8.837
    1HEX    H2A15305   0.244  13.117   8.851
    1HEX    H2B15306   0.064  12.988   9.212
    1HEX    H2C15307  17.402  13.130   9.208
    1HEX    H2D15308   0.123  13.254   9.355
    1HEX    H2E15309   0.233  13.117   9.353
    1HEX    H2G15310  17.294  13.026   8.697
    1HEX    H2H15311  17.334  13.148   8.803
    1HEX    H2I15312  17.079  12.998   9.046
    1HEX    H2J15313  17.008  12.847   8.992
    1HEX    H2K15314  16.925  12.996   8.780
    1HEX    H2M15315  16.946  13.129   8.891
    1STR    S0015316   0.178  13.056   7.831
    1STR    S0E15317  17.283  13.870   8.608
    1STR    S0M15318  17.269  12.451   8.411
    1STR    S0X15319   0.778  12.933   8.730
    1STR    S1415320   0.036  13.068   9.485
    1STR    S1B15321  16.760  12.989   8.954
    1HEX    C0115322   0.255  12.925  12.395
    1HEX    C0215323   0.192  12.911  12.535
    1HEX    C0315324   0.040  12.916  12.538
    1HEX    O0415325  17.413  12.816  12.514
    1HEX    O0515326  17.434  13.036  12.580
    1HEX    C0615327  17.296  13.051  12.612
    1HEX    C0715328  17.271  13.047  12.766
    1HEX    C0815329  17.295  13.189  12.830
    1HEX    O0915330  17.237  13.316  12.795
    1HEX    C0A15331  17.261  13.421  12.885
    1HEX    O0B15332  17.291  13.404  13.003
    1HEX    C0C15333  17.254  13.565  12.828
    1HEX    C0D15334  17.224  13.680  12.932
    1HEX    C0F15335  17.126  12.987  12.786
    1HEX    O0G15336  17.137  12.843  12.791
    1HEX    C0H15337  17.071  12.757  12.712
    1HEX    O0I15338  16.975  12.785  12.640
    1HEX    C0J15339  17.135  12.617  12.712
    1HEX    C0K15340  17.076  12.514  12.812
    1HEX    C0N15341  17.369  12.944  12.838
    1HEX    O0O15342   0.062  12.985  12.875
    1HEX    C0P15343   0.091  13.061  12.995
    1HEX    C0Q15344   0.052  13.008  13.138
    1HEX    C0R15345   0.114  12.866  13.156
    1HEX    O0S15346   0.255  12.862  13.120
    1HEX    C0T15347   0.355  12.865  13.214
    1HEX    O0U15348   0.337  12.876  13.335
    1HEX    C0V15349   0.498  12.856  13.156
    1HEX    C0W15350   0.569  12.994  13.154
    1HEX    C0Y15351   0.118  13.105  13.240
    1HEX    O0Z15352   0.078  13.079  13.374
    1HEX    C1015353   0.133  13.154  13.473
    1HEX    O1115354   0.220  13.239  13.456
    1HEX    C1215355   0.073  13.126  13.611
    1HEX    C1315356   0.180  13.113  13.723
    1HEX    C1515357  17.335  13.023  13.157
    1HEX    O1615358  17.259  12.944  13.250
    1HEX    C1715359  17.139  12.893  13.208
    1HEX    O1815360  17.115  12.854  13.094
    1HEX    C1915361  17.028  12.892  13.314
    1HEX    C1A15362  16.899  12.970  13.272
    1HEX    H1D15363   0.228  12.819  12.387
    1HEX    H1E15364   0.199  13.016  12.377
    1HEX    H1F15365   0.227  12.991  12.600
    1HEX    H1G15366   0.222  12.819  12.586
    1HEX    H1H15367  17.237  12.975  12.560
    1HEX    H1I15368  17.261  13.145  12.570
    1HEX    H1J15369  17.400  13.209  12.810
    1HEX    H1K15370  17.282  13.178  12.936
    1HEX    H1M15371  17.177  13.565  12.751
    1HEX    H1N15372  17.348  13.585  12.777
    1HEX    H1O15373  17.188  13.636  13.025
    1HEX    H1P15374  17.142  13.742  12.896
    1HEX    H1R15375  17.056  13.020  12.709
    1HEX    H1S15376  17.083  13.020  12.881
    1HEX    H1T15377  17.241  12.632  12.733
    1HEX    H1U15378  17.132  12.578  12.610
    1HEX    H1V15379  16.983  12.472  12.774
    1HEX    H1W15380  17.052  12.561  12.907
    1HEX    H1Y15381  17.383  12.861  12.769
    1HEX    H1Z15382  17.324  12.889  12.920
    1HEX    H2015383   0.061  13.164  12.986
    1HEX    H2115384   0.200  13.068  12.992
    1HEX    H2215385   0.062  12.795  13.092
    1HEX    H2315386   0.099  12.832  13.259
    1HEX    H2415387   0.494  12.811  13.057
    1HEX    H2515388   0.555  12.788  13.220
    1HEX    H2615389   0.575  13.035  13.255
    1HEX    H2715390   0.506  13.063  13.098
    1HEX    H2915391   0.092  13.209  13.217
    1HEX    H2A15392   0.227  13.101  13.233
    1HEX    H2B15393   0.014  13.035  13.606
    1HEX    H2C15394   0.004  13.207  13.632
    1HEX    H2D15395   0.277  13.140  13.683
    1HEX    H2E15396   0.188  13.010  13.756
    1HEX    H2G15397  17.284  13.018  13.063
    1HEX    H2H15398  17.315  13.126  13.185
    1HEX    H2I15399  17.070  12.938  13.403
    1HEX    H2J15400  17.003  12.789  13.341
    1HEX    H2K15401  16.924  13.049  13.201
    1HEX    H2M15402  16.859  13.022  13.359
    1STR    S0015403   0.199  12.881  12.227
    1STR    S0E15404  17.362  13.795  12.980
    1STR    S0M15405  17.194  12.375  12.841
    1STR    S0X15406   0.737  13.003  13.077
    1STR    S1415407   0.152  13.222  13.868
    1STR    S1B15408  16.761  12.872  13.200
    1HEX    C0115409   4.598  17.298  16.746
    1HEX    C0215410   4.546  17.282  16.890
    1HEX    C0315411   4.395  17.283  16.896
    1HEX    O0415412   4.330  17.185  16.862
    1HEX    O0515413   4.347  17.399  16.945
    1HEX    C0615414   4.208  17.413  16.971
    1HEX    C0715415   4.175  17.394  17.122
    1HEX    C0815416   4.179   0.094  17.195
    1HEX    O0915417   4.130   0.222  17.150
    1HEX    C0A15418   4.151   0.328  17.239
    1HEX    O0B15419   4.180   0.312  17.358
    1HEX    C0C15420   4.142   0.472  17.184
    1HEX    C0D15421   4.175   0.582  17.293
    1HEX    C0F15422   4.037  17.320  17.129
    1HEX    O0G15423   4.059  17.178  17.109
    1HEX    C0H15424   4.008  17.108  17.006
    1HEX    O0I15425   3.918  17.149  16.932
    1HEX    C0J15426   4.078  16.973  16.978
    1HEX    C0K15427   4.086  16.870  17.095
    1HEX    C0N15428   4.276  17.295  17.195
    1HEX    O0O15429   4.410  17.335  17.229
    1HEX    C0P15430   4.448  17.414  17.345
    1HEX    C0Q15431   4.411  17.369   0.050
    1HEX    C0R15432   4.468  17.226   0.076
    1HEX    O0S15433   4.609  17.213   0.044
    1HEX    C0T15434   4.706  17.221   0.139
    1HEX    O0U15435   4.688  17.250   0.257
    1HEX    C0V15436   4.846  17.180   0.090
    1HEX    C0W15437   4.946  17.297   0.064
    1HEX    C0Y15438   4.481   0.028   0.147
    1HEX    O0Z15439   4.440   0.001   0.280
    1HEX    C1015440   4.500   0.063   0.382
    1HEX    O1115441   4.594   0.141   0.373
    1HEX    C1215442   4.432   0.029   0.514
    1HEX    C1315443   4.519   0.056   0.638
    1HEX    C1515444   4.256  17.387   0.073
    1HEX    O1615445   4.184  17.317   0.175
    1HEX    C1715446   4.061  17.264   0.144
    1HEX    O1815447   4.029  17.223   0.032
    1HEX    C1915448   3.959  17.266   0.258
    1HEX    C1A15449   3.828  17.343   0.222
    1HEX    H1D15450   4.562  17.219  16.680
    1HEX    H1E15451   4.706  17.293  16.750
    1HEX    H1F15452   4.584  17.360  16.956
    1HEX    H1G15453   4.579  17.187  16.931
    1HEX    H1H15454   4.152  17.343  16.908
    1HEX    H1I15455   4.177   0.071  16.937
    1HEX    H1J15456   4.284   0.118  17.198
    1HEX    H1K15457   4.142   0.081  17.297
    1HEX    H1M15458   4.042   0.488  17.143
    1HEX    H1N15459   4.212   0.480  17.101
    1HEX    H1O15460   4.272   0.561  17.339
    1HEX    H1P15461   4.103   0.575  17.375
    1HEX    H1R15462   3.965  17.361  17.058
    1HEX    H1S15463   3.991  17.332  17.227
    1HEX    H1T15464   4.179  16.997  16.944
    1HEX    H1U15465   4.029  16.927  16.893
    1HEX    H1V15466   3.987  16.831  17.118
    1HEX    H1W15467   4.122  16.919  17.186
    1HEX    H1Y15468   4.293  17.213  17.125
    1HEX    H1Z15469   4.230  17.239  17.276
    1HEX    H2015470   4.424   0.079  17.333
    1HEX    H2115471   4.556  17.414  17.339
    1HEX    H2215472   4.413  17.155   0.015
    1HEX    H2315473   4.450  17.197   0.180
    1HEX    H2415474   4.838  17.115   0.003
    1HEX    H2515475   4.886  17.118   0.170
    1HEX    H2615476   4.919  17.386   0.121
    1HEX    H2715477   4.944  17.325  17.399
    1HEX    H2915478   4.455   0.132   0.124
    1HEX    H2A15479   4.589   0.023   0.139
    1HEX    H2B15480   4.401  17.365   0.511
    1HEX    H2C15481   4.341   0.090   0.516
    1HEX    H2D15482   4.575   0.149   0.629
    1HEX    H2E15483   4.592  17.416   0.650
    1HEX    H2G15484   4.204  17.371  17.421
    1HEX    H2H15485   4.236   0.053   0.090
    1HEX    H2I15486   4.007  17.315   0.343
    1HEX    H2J15487   3.938  17.164   0.290
    1HEX    H2K15488   3.845  17.408   0.136
    1HEX    H2M15489   3.798  17.409   0.303
    1STR    S0015490   4.550   0.019  16.678
    1STR    S0E15491   4.176   0.758  17.235
    1STR    S0M15492   4.200  16.729  17.055
    1STR    S0X15493   5.119  17.248   0.108
    1STR    S1415494   4.409   0.067   0.783
    1STR    S1B15495   3.682  17.237   0.182
    1HEX    C0115496   4.639  17.299   3.673
    1HEX    C0215497   4.572  17.395   3.774
    1HEX    C0315498   4.426  17.363   3.802
    1HEX    O0415499   4.380  17.250   3.785
    1HEX    O0515500   4.359   0.029   3.852
    1HEX    C0615501   4.220   0.018   3.878
    1HEX    C0715502   4.187  17.438   4.029
    1HEX    C0815503   4.209   0.133   4.107
    1HEX    O0915504   4.159   0.266   4.078
    1HEX    C0A15505   4.188   0.364   4.174
    1HEX    O0B15506   4.218   0.335   4.290
    1HEX    C0C15507   4.185   0.514   4.132
    1HEX    C0D15508   4.249   0.609   4.242
    1HEX    C0F15509   4.041  17.380   4.037
    1HEX    O0G15510   4.044  17.236   4.021
    1HEX    C0H15511   3.991  17.172   3.915
    1HEX    O0I15512   3.918  17.225   3.831
    1HEX    C0J15513   4.037  17.026   3.900
    1HEX    C0K15514   4.020  16.936   4.026
    1HEX    C0N15515   4.280  17.327   4.094
    1HEX    O0O15516   4.413  17.357   4.141
    1HEX    C0P15517   4.447  17.430   4.262
    1HEX    C0Q15518   4.406  17.381   4.405
    1HEX    C0R15519   4.473  17.242   4.430
    1HEX    O0S15520   4.614  17.238   4.396
    1HEX    C0T15521   4.715  17.251   4.489
    1HEX    O0U15522   4.697  17.273   4.609
    1HEX    C0V15523   4.858  17.230   4.434
    1HEX    C0W15524   4.952  17.354   4.446
    1HEX    C0Y15525   4.467   0.041   4.506
    1HEX    O0Z15526   4.432   0.004   4.638
    1HEX    C1015527   4.489   0.067   4.740
    1HEX    O1115528   4.569   0.161   4.732
    1HEX    C1215529   4.443   0.012   4.875
    1HEX    C1315530   4.547   0.039   4.984
    1HEX    C1515531   4.249  17.395   4.418
    1HEX    O1615532   4.167  17.351   4.527
    1HEX    C1715533   4.047  17.291   4.495
    1HEX    O1815534   4.035  17.205   4.408
    1HEX    C1915535   3.921  17.347   4.564
    1HEX    C1A15536   3.820  17.405   4.460
    1HEX    H1D15537   4.746  17.298   3.691
    1HEX    H1E15538   4.605  17.198   3.693
    1HEX    H1F15539   4.582   0.059   3.744
    1HEX    H1G15540   4.621  17.385   3.871
    1HEX    H1H15541   4.176  17.378   3.818
    1HEX    H1I15542   4.171   0.109   3.842
    1HEX    H1J15543   4.315   0.152   4.096
    1HEX    H1K15544   4.186   0.112   4.211
    1HEX    H1M15545   4.082   0.541   4.111
    1HEX    H1N15546   4.241   0.523   4.039
    1HEX    H1O15547   4.356   0.590   4.250
    1HEX    H1P15548   4.209   0.580   4.339
    1HEX    H1R15549   3.975  17.428   3.965
    1HEX    H1S15550   3.996  17.400   4.135
    1HEX    H1T15551   4.141  17.028   3.869
    1HEX    H1U15552   3.981  16.983   3.816
    1HEX    H1V15553   3.917  16.942   4.062
    1HEX    H1W15554   4.083  16.972   4.107
    1HEX    H1Y15555   4.297  17.253   4.016
    1HEX    H1Z15556   4.229  17.261   4.164
    1HEX    H2015557   4.423   0.096   4.254
    1HEX    H2115558   4.556  17.431   4.258
    1HEX    H2215559   4.422  17.166   4.369
    1HEX    H2315560   4.457  17.210   4.534
    1HEX    H2415561   4.852  17.194   4.332
    1HEX    H2515562   4.901  17.149   4.493
    1HEX    H2615563   4.955  17.389   4.550
    1HEX    H2715564   4.912  17.437   4.388
    1HEX    H2915565   4.433   0.143   4.488
    1HEX    H2A15566   4.576   0.044   4.497
    1HEX    H2B15567   4.429  17.345   4.862
    1HEX    H2C15568   4.347   0.056   4.900
    1HEX    H2D15569   4.550   0.146   5.008
    1HEX    H2E15570   4.647   0.013   4.947
    1HEX    H2G15571   4.201  17.360   4.329
    1HEX    H2H15572   4.228   0.062   4.416
    1HEX    H2I15573   3.949  17.421   4.640
    1HEX    H2J15574   3.876  17.264   4.618
    1HEX    H2K15575   3.826  17.346   4.368
    1HEX    H2M15576   3.849   0.066   4.432
    1STR    S0015577   4.617  17.334   3.494
    1STR    S0E15578   4.222   0.793   4.232
    1STR    S0M15579   4.057  16.759   3.989
    1STR    S0X15580   5.126  17.324   4.388
    1STR    S1415581   4.515  17.383   5.136
    1STR    S1B15582   3.642  17.409   4.507
    1HEX    C0115583   4.588  17.265   7.983
    1HEX    C0215584   4.572  17.303   8.132
    1HEX    C0315585   4.429  17.282   8.179
    1HEX    O0415586   4.379  17.169   8.177
    1HEX    O0515587   4.369  17.394   8.223
    1HEX    C0615588   4.232  17.390   8.261
    1HEX    C0715589   4.209  17.381   8.415
    1HEX    C0815590   4.214   0.084   8.479
    1HEX    O0915591   4.156   0.209   8.437
    1HEX    C0A15592   4.166   0.314   8.529
    1HEX    O0B15593   4.176   0.296   8.651
    1HEX    C0C15594   4.174   0.457   8.472
    1HEX    C0D15595   4.170   0.573   8.579
    1HEX    C0F15596   4.074  17.303   8.437
    1HEX    O0G15597   4.097  17.160   8.448
    1HEX    C0H15598   4.065  17.072   8.350
    1HEX    O0I15599   3.992  17.099   8.255
    1HEX    C0J15600   4.132  16.933   8.361
    1HEX    C0K15601   4.143  16.864   8.501
    1HEX    C0N15602   4.319  17.292   8.487
    1HEX    O0O15603   4.446  17.347   8.524
    1HEX    C0P15604   4.470  17.424   8.644
    1HEX    C0Q15605   4.424  17.377   8.786
    1HEX    C0R15606   4.473  17.232   8.810
    1HEX    O0S15607   4.614  17.217   8.782
    1HEX    C0T15608   4.708  17.222   8.880
    1HEX    O0U15609   4.686  17.246   8.998
    1HEX    C0V15610   4.849  17.191   8.830
    1HEX    C0W15611   4.938  17.315   8.803
    1HEX    C0Y15612   4.487   0.032   8.890
    1HEX    O0Z15613   4.444   0.000   9.021
    1HEX    C1015614   4.492   0.070   9.125
    1HEX    O1115615   4.576   0.159   9.117
    1HEX    C1215616   4.428   0.029   9.258
    1HEX    C1315617   4.522   0.042   9.380
    1HEX    C1515618   4.269  17.396   8.797
    1HEX    O1615619   4.197  17.349   8.911
    1HEX    C1715620   4.075  17.294   8.889
    1HEX    O1815621   4.046  17.223   8.793
    1HEX    C1915622   3.970  17.336   8.990
    1HEX    C1A15623   3.858  17.422   8.925
    1HEX    H1D15624   4.681  17.209   7.968
    1HEX    H1E15625   4.508  17.199   7.950
    1HEX    H1F15626   4.603  17.405   8.152
    1HEX    H1G15627   4.634  17.238   8.193
    1HEX    H1H15628   4.182  17.308   8.209
    1HEX    H1I15629   4.184   0.040   8.222
    1HEX    H1J15630   4.319   0.112   8.473
    1HEX    H1K15631   4.186   0.072   8.582
    1HEX    H1M15632   4.094   0.471   8.399
    1HEX    H1N15633   4.267   0.463   8.417
    1HEX    H1O15634   4.181   0.536   8.681
    1HEX    H1P15635   4.071   0.621   8.578
    1HEX    H1R15636   4.000  17.326   8.360
    1HEX    H1S15637   4.026  17.334   8.531
    1HEX    H1T15638   4.231  16.944   8.317
    1HEX    H1U15639   4.077  16.868   8.293
    1HEX    H1V15640   4.046  16.862   8.550
    1HEX    H1W15641   4.209  16.921   8.566
    1HEX    H1Y15642   4.342  17.210   8.419
    1HEX    H1Z15643   4.280  17.233   8.570
    1HEX    H2015644   4.442   0.089   8.631
    1HEX    H2115645   4.579  17.430   8.646
    1HEX    H2215646   4.419  17.163   8.746
    1HEX    H2315647   4.450  17.201   8.913
    1HEX    H2415648   4.842  17.128   8.741
    1HEX    H2515649   4.895  17.129   8.907
    1HEX    H2615650   4.888  17.408   8.830
    1HEX    H2715651   4.959  17.322   8.696
    1HEX    H2915652   4.461   0.136   8.869
    1HEX    H2A15653   4.596   0.028   8.886
    1HEX    H2B15654   4.391  17.367   9.250
    1HEX    H2C15655   4.340   0.093   9.269
    1HEX    H2D15656   4.609   0.103   9.354
    1HEX    H2E15657   4.562  17.385   9.409
    1HEX    H2G15658   4.220  17.357   8.711
    1HEX    H2H15659   4.248   0.063   8.794
    1HEX    H2I15660   4.019  17.391   9.071
    1HEX    H2J15661   3.929  17.245   9.034
    1HEX    H2K15662   3.877  -0.000   8.819
    1HEX    H2M15663   3.850   0.080   8.972
    1STR    S0015664   4.595  17.414   7.878
    1STR    S0E15665   4.298   0.705   8.559
    1STR    S0M15666   4.206  16.690   8.484
    1STR    S0X15667   5.099  17.306   8.892
    1STR    S1415668   4.442   0.123   9.524
    1STR    S1B15669   3.697  17.339   8.942
    1HEX    C0115670   4.519  17.282  12.302
    1HEX    C0215671   4.535  17.332  12.447
    1HEX    C0315672   4.403  17.317  12.521
    1HEX    O0415673   4.347  17.208  12.526
    1HEX    O0515674   4.356  17.433  12.571
    1HEX    C0615675   4.218   0.002  12.607
    1HEX    C0715676   4.190  17.432  12.759
    1HEX    C0815677   4.219   0.131  12.827
    1HEX    O0915678   4.154   0.258  12.802
    1HEX    C0A15679   4.165   0.355  12.902
    1HEX    O0B15680   4.186   0.328  13.020
    1HEX    C0C15681   4.156   0.504  12.860
    1HEX    C0D15682   4.199   0.603  12.976
    1HEX    C0F15683   4.043  17.380  12.776
    1HEX    O0G15684   4.040  17.235  12.770
    1HEX    C0H15685   4.004  17.168  12.659
    1HEX    O0I15686   3.943  17.217  12.564
    1HEX    C0J15687   4.056  17.023  12.651
    1HEX    C0K15688   4.069  16.941  12.784
    1HEX    C0N15689   4.281  17.320  12.827
    1HEX    O0O15690   4.417  17.349  12.863
    1HEX    C0P15691   4.454  17.425  12.980
    1HEX    C0Q15692   4.414  17.377  13.123
    1HEX    C0R15693   4.474  17.235  13.147
    1HEX    O0S15694   4.614  17.224  13.110
    1HEX    C0T15695   4.717  17.235  13.201
    1HEX    O0U15696   4.703  17.265  13.319
    1HEX    C0V15697   4.857  17.200  13.145
    1HEX    C0W15698   4.956  17.319  13.123
    1HEX    C0Y15699   4.483   0.035  13.221
    1HEX    O0Z15700   4.439   0.004  13.352
    1HEX    C1015701   4.490   0.068  13.456
    1HEX    O1115702   4.580   0.152  13.453
    1HEX    C1215703   4.419   0.027  13.583
    1HEX    C1315704   4.491   0.073  13.711
    1HEX    C1515705   4.258  17.397  13.147
    1HEX    O1615706   4.179  17.325  13.243
    1HEX    C1715707   4.063  17.265  13.199
    1HEX    O1815708   4.053  17.207  13.091
    1HEX    C1915709   3.939  17.283  13.288
    1HEX    C1A15710   3.829  17.367  13.215
    1HEX    H1D15711   4.592  17.204  12.280
    1HEX    H1E15712   4.421  17.236  12.288
    1HEX    H1F15713   4.569  17.436  12.452
    1HEX    H1G15714   4.609  17.272  12.501
    1HEX    H1H15715   4.162  17.367  12.551
    1HEX    H1I15716   4.181   0.097  12.568
    1HEX    H1J15717   4.323   0.153  12.804
    1HEX    H1K15718   4.213   0.114  12.934
    1HEX    H1M15719   4.054   0.525  12.827
    1HEX    H1N15720   4.221   0.519  12.773
    1HEX    H1O15721   4.304   0.586  13.001
    1HEX    H1P15722   4.145   0.577  13.067
    1HEX    H1R15723   3.975  17.425  12.704
    1HEX    H1S15724   4.004  17.407  12.874
    1HEX    H1T15725   4.154  17.031  12.605
    1HEX    H1U15726   3.994  16.968  12.580
    1HEX    H1V15727   3.973  16.897  12.810
    1HEX    H1W15728   4.098  17.004  12.868
    1HEX    H1Y15729   4.289  17.238  12.756
    1HEX    H1Z15730   4.232  17.265  12.907
    1HEX    H2015731   4.431   0.090  12.969
    1HEX    H2115732   4.562  17.424  12.974
    1HEX    H2215733   4.419  17.163  13.087
    1HEX    H2315734   4.459  17.204  13.251
    1HEX    H2415735   4.845  17.140  13.054
    1HEX    H2515736   4.900  17.133  13.219
    1HEX    H2615737   4.951  17.390  13.206
    1HEX    H2715738   4.928  17.374  13.033
    1HEX    H2915739   4.457   0.139  13.200
    1HEX    H2A15740   4.591   0.030  13.215
    1HEX    H2B15741   4.409  17.359  13.582
    1HEX    H2C15742   4.319   0.069  13.578
    1HEX    H2D15743   4.513   0.180  13.709
    1HEX    H2E15744   4.587   0.022  13.721
    1HEX    H2G15745   4.203  17.392  13.054
    1HEX    H2H15746   4.241   0.062  13.173
    1HEX    H2I15747   3.966  17.326  13.384
    1HEX    H2J15748   3.900  17.183  13.309
    1HEX    H2K15749   3.843  17.362  13.107
    1HEX    H2M15750   3.842   0.032  13.242
    1STR    S0015751   4.531  17.413  12.177
    1STR    S0E15752   4.173   0.785  12.951
    1STR    S0M15753   4.192  16.805  12.759
    1STR    S0X15754   5.130  17.260  13.104
    1STR    S1415755   4.385   0.034  13.853
    1STR    S1B15756   3.652  17.325  13.248
    1HEX    C0115757   4.596   4.273  16.692
    1HEX    C0215758   4.553   4.244  16.839
    1HEX    C0315759   4.403   4.239  16.862
    1HEX    O0415760   4.337   4.140  16.831
    1HEX    O0515761   4.356   4.349  16.925
    1HEX    C0615762   4.218   4.358  16.960
    1HEX    C0715763   4.193   4.346  17.113
    1HEX    C0815764   4.219   4.484  17.183
    1HEX    O0915765   4.167   4.615  17.148
    1HEX    C0A15766   4.192   4.718  17.240
    1HEX    O0B15767   4.212   4.700  17.360
    1HEX    C0C15768   4.199   4.862  17.182
    1HEX    C0D15769   4.161   4.981  17.279
    1HEX    C0F15770   4.048   4.289  17.131
    1HEX    O0G15771   4.049   4.145  17.128
    1HEX    C0H15772   3.997   4.070  17.029
    1HEX    O0I15773   3.923   4.112  16.941
    1HEX    C0J15774   4.046   3.924  17.030
    1HEX    C0K15775   3.971   3.827  17.125
    1HEX    C0N15776   4.290   4.237  17.178
    1HEX    O0O15777   4.420   4.273  17.228
    1HEX    C0P15778   4.447   4.347  17.350
    1HEX    C0Q15779   4.401   4.298   0.052
    1HEX    C0R15780   4.462   4.156   0.077
    1HEX    O0S15781   4.601   4.146   0.037
    1HEX    C0T15782   4.705   4.156   0.126
    1HEX    O0U15783   4.694   4.179   0.246
    1HEX    C0V15784   4.845   4.135   0.063
    1HEX    C0W15785   4.960   4.216   0.132
    1HEX    C0Y15786   4.464   4.397   0.154
    1HEX    O0Z15787   4.430   4.371   0.290
    1HEX    C1015788   4.489   4.446   0.386
    1HEX    O1115789   4.572   4.534   0.366
    1HEX    C1215790   4.442   4.413   0.528
    1HEX    C1315791   4.558   4.377   0.623
    1HEX    C1515792   4.244   4.315   0.060
    1HEX    O1615793   4.159   4.261   0.162
    1HEX    C1715794   4.029   4.229   0.126
    1HEX    O1815795   3.994   4.193   0.014
    1HEX    C1915796   3.924   4.246   0.236
    1HEX    C1A15797   3.814   4.353   0.206
    1HEX    H1D15798   4.556   4.173  16.675
    1HEX    H1E15799   4.553   4.373  16.696
    1HEX    H1F15800   4.594   4.319  16.906
    1HEX    H1G15801   4.594   4.149  16.874
    1HEX    H1H15802   4.160   4.283  16.905
    1HEX    H1I15803   4.181   4.453  16.923
    1HEX    H1J15804   4.325   4.502  17.167
    1HEX    H1K15805   4.201   4.470  17.288
    1HEX    H1M15806   4.132   4.864  17.096
    1HEX    H1N15807   4.300   4.877  17.142
    1HEX    H1O15808   4.105   4.939  17.363
    1HEX    H1P15809   4.092   5.049  17.229
    1HEX    H1R15810   3.978   4.330  17.057
    1HEX    H1S15811   4.007   4.318  17.227
    1HEX    H1T15812   4.153   3.926  17.054
    1HEX    H1U15813   4.041   3.886  16.928
    1HEX    H1V15814   3.905   3.762  17.067
    1HEX    H1W15815   3.905   3.882  17.192
    1HEX    H1Y15816   4.309   4.163  17.101
    1HEX    H1Z15817   4.242   4.172  17.251
    1HEX    H2015818   4.422   4.452  17.340
    1HEX    H2115819   4.556   4.350  17.350
    1HEX    H2215820   4.406   4.083   0.018
    1HEX    H2315821   4.449   4.127   0.181
    1HEX    H2415822   4.838   4.159  17.397
    1HEX    H2515823   4.868   4.028   0.068
    1HEX    H2615824   4.921   4.310   0.170
    1HEX    H2715825   4.994   4.161   0.219
    1HEX    H2915826   4.434   4.500   0.132
    1HEX    H2A15827   4.573   4.397   0.145
    1HEX    H2B15828   4.371   4.331   0.524
    1HEX    H2C15829   4.387   4.499   0.565
    1HEX    H2D15830   4.653   4.394   0.571
    1HEX    H2E15831   4.556   4.271   0.649
    1HEX    H2G15832   4.202   4.286  17.406
    1HEX    H2H15833   4.223   4.422   0.063
    1HEX    H2I15834   3.977   4.274   0.327
    1HEX    H2J15835   3.878   4.149   0.257
    1HEX    H2K15836   3.859   4.439   0.156
    1HEX    H2M15837   3.776   4.391   0.300
    1STR    S0015838   4.504   4.260  16.534
    1STR    S0E15839   4.294   5.086  17.356
    1STR    S0M15840   4.083   3.723  17.228
    1STR    S0X15841   5.107   4.256   0.026
    1STR    S1415842   4.570   4.476   0.778
    1STR    S1B15843   3.668   4.302   0.104
    1HEX    C0115844   4.597   4.218   3.608
    1HEX    C0215845   4.558   4.265   3.750
    1HEX    C0315846   4.419   4.225   3.794
    1HEX    O0415847   4.379   4.108   3.787
    1HEX    O0515848   4.350   4.329   3.846
    1HEX    C0615849   4.216   4.312   3.889
    1HEX    C0715850   4.202   4.303   4.044
    1HEX    C0815851   4.208   4.447   4.106
    1HEX    O0915852   4.142   4.569   4.063
    1HEX    C0A15853   4.158   4.679   4.149
    1HEX    O0B15854   4.193   4.668   4.266
    1HEX    C0C15855   4.135   4.822   4.091
    1HEX    C0D15856   4.180   4.935   4.192
    1HEX    C0F15857   4.070   4.221   4.073
    1HEX    O0G15858   4.098   4.078   4.079
    1HEX    C0H15859   4.061   3.991   3.982
    1HEX    O0I15860   3.983   4.018   3.891
    1HEX    C0J15861   4.133   3.854   3.986
    1HEX    C0K15862   4.150   3.782   4.124
    1HEX    C0N15863   4.317   4.215   4.109
    1HEX    O0O15864   4.442   4.275   4.148
    1HEX    C0P15865   4.462   4.348   4.271
    1HEX    C0Q15866   4.417   4.293   4.412
    1HEX    C0R15867   4.475   4.150   4.433
    1HEX    O0S15868   4.617   4.140   4.407
    1HEX    C0T15869   4.709   4.143   4.507
    1HEX    O0U15870   4.684   4.165   4.625
    1HEX    C0V15871   4.851   4.107   4.462
    1HEX    C0W15872   4.942   4.228   4.426
    1HEX    C0Y15873   4.479   4.388   4.517
    1HEX    O0Z15874   4.438   4.354   4.649
    1HEX    C1015875   4.495   4.417   4.752
    1HEX    O1115876   4.583   4.502   4.744
    1HEX    C1215877   4.433   4.376   4.886
    1HEX    C1315878   4.520   4.410   5.009
    1HEX    C1515879   4.261   4.304   4.425
    1HEX    O1615880   4.192   4.252   4.539
    1HEX    C1715881   4.067   4.199   4.521
    1HEX    O1815882   4.028   4.146   4.417
    1HEX    C1915883   3.970   4.218   4.638
    1HEX    C1A15884   3.843   4.299   4.597
    1HEX    H1D15885   4.621   4.112   3.610
    1HEX    H1E15886   4.687   4.271   3.575
    1HEX    H1F15887   4.566   4.373   3.757
    1HEX    H1G15888   4.628   4.224   3.823
    1HEX    H1H15889   4.171   4.225   3.840
    1HEX    H1I15890   4.159   4.397   3.852
    1HEX    H1J15891   4.311   4.478   4.094
    1HEX    H1K15892   4.186   4.437   4.211
    1HEX    H1M15893   4.030   4.833   4.064
    1HEX    H1N15894   4.193   4.830   3.999
    1HEX    H1O15895   4.287   4.925   4.210
    1HEX    H1P15896   4.134   4.916   4.289
    1HEX    H1R15897   3.991   4.244   4.000
    1HEX    H1S15898   4.028   4.250   4.169
    1HEX    H1T15899   4.230   3.868   3.939
    1HEX    H1U15900   4.077   3.789   3.919
    1HEX    H1V15901   4.055   3.779   4.178
    1HEX    H1W15902   4.220   3.838   4.187
    1HEX    H1Y15903   4.344   4.139   4.036
    1HEX    H1Z15904   4.284   4.152   4.191
    1HEX    H2015905   4.428   4.450   4.262
    1HEX    H2115906   4.570   4.358   4.274
    1HEX    H2215907   4.425   4.080   4.367
    1HEX    H2315908   4.452   4.115   4.534
    1HEX    H2415909   4.846   4.036   4.379
    1HEX    H2515910   4.895   4.052   4.545
    1HEX    H2615911   4.893   4.322   4.451
    1HEX    H2715912   4.958   4.230   4.318
    1HEX    H2915913   4.450   4.492   4.498
    1HEX    H2A15914   4.588   4.387   4.511
    1HEX    H2B15915   4.410   4.269   4.883
    1HEX    H2C15916   4.338   4.428   4.891
    1HEX    H2D15917   4.580   4.500   4.990
    1HEX    H2E15918   4.592   4.330   5.028
    1HEX    H2G15919   4.213   4.265   4.337
    1HEX    H2H15920   4.235   4.410   4.424
    1HEX    H2I15921   4.023   4.268   4.719
    1HEX    H2J15922   3.943   4.119   4.674
    1HEX    H2K15923   3.848   4.325   4.491
    1HEX    H2M15924   3.838   4.394   4.650
    1STR    S0015925   4.469   4.241   3.480
    1STR    S0E15926   4.143   5.112   4.152
    1STR    S0M15927   4.212   3.608   4.102
    1STR    S0X15928   5.105   4.221   4.512
    1STR    S1415929   4.417   4.445   5.155
    1STR    S1B15930   3.685   4.210   4.621
    1HEX    C0115931   4.590   4.230   7.974
    1HEX    C0215932   4.573   4.285   8.117
    1HEX    C0315933   4.431   4.262   8.168
    1HEX    O0415934   4.381   4.150   8.164
    1HEX    O0515935   4.373   4.375   8.214
    1HEX    C0615936   4.233   4.375   8.240
    1HEX    C0715937   4.196   4.360   8.390
    1HEX    C0815938   4.218   4.497   8.465
    1HEX    O0915939   4.164   4.629   8.439
    1HEX    C0A15940   4.186   4.725   8.540
    1HEX    O0B15941   4.212   4.695   8.656
    1HEX    C0C15942   4.181   4.876   8.501
    1HEX    C0D15943   4.244   4.969   8.613
    1HEX    C0F15944   4.050   4.303   8.396
    1HEX    O0G15945   4.051   4.159   8.380
    1HEX    C0H15946   4.020   4.099   8.263
    1HEX    O0I15947   3.961   4.153   8.171
    1HEX    C0J15948   4.072   3.954   8.247
    1HEX    C0K15949   4.100   3.870   8.375
    1HEX    C0N15950   4.284   4.248   8.460
    1HEX    O0O15951   4.419   4.275   8.502
    1HEX    C0P15952   4.454   4.351   8.620
    1HEX    C0Q15953   4.413   4.303   8.763
    1HEX    C0R15954   4.476   4.163   8.788
    1HEX    O0S15955   4.618   4.156   8.752
    1HEX    C0T15956   4.720   4.170   8.843
    1HEX    O0U15957   4.705   4.193   8.963
    1HEX    C0V15958   4.862   4.147   8.786
    1HEX    C0W15959   4.956   4.272   8.785
    1HEX    C0Y15960   4.478   4.402   8.862
    1HEX    O0Z15961   4.434   4.367   8.991
    1HEX    C1015962   4.486   4.425   9.097
    1HEX    O1115963   4.574   4.511   9.098
    1HEX    C1215964   4.421   4.372   9.223
    1HEX    C1315965   4.502   4.402   9.349
    1HEX    C1515966   4.256   4.322   8.781
    1HEX    O1615967   4.172   4.258   8.879
    1HEX    C1715968   4.055   4.202   8.833
    1HEX    O1815969   4.047   4.134   8.731
    1HEX    C1915970   3.926   4.240   8.910
    1HEX    C1A15971   3.825   4.317   8.818
    1HEX    H1D15972   4.693   4.196   7.959
    1HEX    H1E15973   4.528   4.142   7.961
    1HEX    H1F15974   4.599   4.390   8.124
    1HEX    H1G15975   4.638   4.231   8.186
    1HEX    H1H15976   4.186   4.298   8.179
    1HEX    H1I15977   4.192   4.468   8.201
    1HEX    H1J15978   4.324   4.517   8.451
    1HEX    H1K15979   4.200   4.477   8.570
    1HEX    H1M15980   4.078   4.903   8.481
    1HEX    H1N15981   4.236   4.888   8.407
    1HEX    H1O15982   4.351   4.948   8.621
    1HEX    H1P15983   4.203   4.941   8.710
    1HEX    H1R15984   3.984   4.351   8.322
    1HEX    H1S15985   4.004   4.324   8.493
    1HEX    H1T15986   4.165   3.962   8.189
    1HEX    H1U15987   4.001   3.902   8.183
    1HEX    H1V15988   4.009   3.859   8.434
    1HEX    H1W15989   4.173   3.919   8.440
    1HEX    H1Y15990   4.295   4.167   8.388
    1HEX    H1Z15991   4.231   4.190   8.536
    1HEX    H2015992   4.431   4.456   8.610
    1HEX    H2115993   4.563   4.351   8.616
    1HEX    H2215994   4.423   4.088   8.729
    1HEX    H2315995   4.462   4.132   8.892
    1HEX    H2415996   4.853   4.103   8.686
    1HEX    H2515997   4.907   4.070   8.849
    1HEX    H2615998   4.959   4.318   8.884
    1HEX    H2715999   4.918   4.348   8.717
    1HEX    H2916000   4.450   4.506   8.842
    1HEX    H2A16001   4.587   4.400   8.857
    1HEX    H2B16002   4.410   4.264   9.210
    1HEX    H2C16003   4.321   4.415   9.231
    1HEX    H2D16004   4.502   4.509   9.368
    1HEX    H2E16005   4.607   4.374   9.335
    1HEX    H2G16006   4.206   4.310   8.688
    1HEX    H2H16007   4.239   4.429   8.800
    1HEX    H2I16008   3.950   4.297   9.000
    1HEX    H2J16009   3.881   4.146   8.943
    1HEX    H2K16010   3.849   4.294   8.714
    1HEX    H2M16011   3.840   4.424   8.828
    1STR    S0016012   4.548   4.348   7.843
    1STR    S0E16013   4.221   5.154   8.602
    1STR    S0M16014   4.161   3.702   8.327
    1STR    S0X16015   5.131   4.232   8.734
    1STR    S1416016   4.431   4.309   9.488
    1STR    S1B16017   3.645   4.283   8.840
    1HEX    C0116018   4.561   4.124  12.360
    1HEX    C0216019   4.545   4.193  12.497
    1HEX    C0316020   4.401   4.187  12.545
    1HEX    O0416021   4.341   4.080  12.550
    1HEX    O0516022   4.353   4.307  12.585
    1HEX    C0616023   4.216   4.318  12.623
    1HEX    C0716024   4.192   4.318  12.777
    1HEX    C0816025   4.216   4.462  12.835
    1HEX    O0916026   4.151   4.587  12.802
    1HEX    C0A16027   4.167   4.691  12.895
    1HEX    O0B16028   4.187   4.673  13.015
    1HEX    C0C16029   4.165   4.835  12.838
    1HEX    C0D16030   4.143   4.950  12.943
    1HEX    C0F16031   4.049   4.257  12.802
    1HEX    O0G16032   4.058   4.114  12.818
    1HEX    C0H16033   4.012   4.024  12.728
    1HEX    O0I16034   3.932   4.048  12.639
    1HEX    C0J16035   4.080   3.885  12.739
    1HEX    C0K16036   4.026   3.788  12.848
    1HEX    C0N16037   4.292   4.220  12.852
    1HEX    O0O16038   4.424   4.266  12.887
    1HEX    C0P16039   4.453   4.346  13.004
    1HEX    C0Q16040   4.409   4.300  13.148
    1HEX    C0R16041   4.459   4.155  13.171
    1HEX    O0S16042   4.598   4.135  13.133
    1HEX    C0T16043   4.700   4.142  13.223
    1HEX    O0U16044   4.689   4.175  13.341
    1HEX    C0V16045   4.836   4.096  13.167
    1HEX    C0W16046   4.940   4.207  13.135
    1HEX    C0Y16047   4.478   4.395  13.249
    1HEX    O0Z16048   4.437   4.367  13.382
    1HEX    C1016049   4.488   4.440  13.483
    1HEX    O1116050   4.572   4.529  13.470
    1HEX    C1216051   4.427   4.404  13.618
    1HEX    C1316052   4.530   4.401  13.734
    1HEX    C1516053   4.254   4.324  13.166
    1HEX    O1616054   4.180   4.266  13.274
    1HEX    C1716055   4.070   4.191  13.243
    1HEX    O1816056   4.063   4.115  13.147
    1HEX    C1916057   3.947   4.216  13.331
    1HEX    C1A16058   3.837   4.292  13.252
    1HEX    H1D16059   4.634   4.044  12.366
    1HEX    H1E16060   4.468   4.077  12.327
    1HEX    H1F16061   4.577   4.297  12.493
    1HEX    H1G16062   4.606   4.144  12.572
    1HEX    H1H16063   4.158   4.239  12.574
    1HEX    H1I16064   4.176   4.410  12.580
    1HEX    H1J16065   4.320   4.485  12.812
    1HEX    H1K16066   4.208   4.452  12.942
    1HEX    H1M16067   4.088   4.839  12.761
    1HEX    H1N16068   4.260   4.849  12.786
    1HEX    H1O16069   4.121   4.909  13.041
    1HEX    H1P16070   4.054   5.007  12.917
    1HEX    H1R16071   3.979   4.284  12.722
    1HEX    H1S16072   4.005   4.297  12.893
    1HEX    H1T16073   4.186   3.905  12.756
    1HEX    H1U16074   4.074   3.838  12.641
    1HEX    H1V16075   3.926   3.752  12.823
    1HEX    H1W16076   4.018   3.838  12.945
    1HEX    H1Y16077   4.308   4.134  12.787
    1HEX    H1Z16078   4.249   4.169  12.938
    1HEX    H2016079   4.426   4.450  12.990
    1HEX    H2116080   4.562   4.349  13.003
    1HEX    H2216081   4.399   4.086  13.111
    1HEX    H2316082   4.443   4.125  13.275
    1HEX    H2416083   4.819   4.032  13.081
    1HEX    H2516084   4.876   4.031  13.245
    1HEX    H2616085   4.908   4.304  13.175
    1HEX    H2716086   4.949   4.220  13.027
    1HEX    H2916087   4.455   4.499  13.227
    1HEX    H2A16088   4.587   4.388  13.242
    1HEX    H2B16089   4.378   4.307  13.610
    1HEX    H2C16090   4.349   4.476  13.637
    1HEX    H2D16091   4.626   4.440  13.699
    1HEX    H2E16092   4.550   4.298  13.766
    1HEX    H2G16093   4.199   4.300  13.076
    1HEX    H2H16094   4.237   4.431  13.175
    1HEX    H2I16095   3.976   4.270  13.422
    1HEX    H2J16096   3.910   4.119  13.362
    1HEX    H2K16097   3.836   4.260  13.147
    1HEX    H2M16098   3.857   4.399  13.251
    1STR    S0016099   4.614   4.241  12.232
    1STR    S0E16100   4.283   5.069  12.968
    1STR    S0M16101   4.138   3.641  12.865
    1STR    S0X16102   5.107   4.166  13.203
    1STR    S1416103   4.481   4.502  13.878
    1STR    S1B16104   3.667   4.268  13.317
    1HEX    C0116105   4.612   8.566  16.750
    1HEX    C0216106   4.547   8.538  16.886
    1HEX    C0316107   4.397   8.559  16.889
    1HEX    O0416108   4.321   8.466  16.862
    1HEX    O0516109   4.361   8.679  16.938
    1HEX    C0616110   4.224   8.704  16.968
    1HEX    C0716111   4.189   8.681  17.118
    1HEX    C0816112   4.183   8.820  17.195
    1HEX    O0916113   4.141   8.950  17.148
    1HEX    C0A16114   4.154   9.054  17.242
    1HEX    O0B16115   4.172   9.034  17.362
    1HEX    C0C16116   4.153   9.201  17.190
    1HEX    C0D16117   4.159   9.307  17.307
    1HEX    C0F16118   4.055   8.598  17.123
    1HEX    O0G16119   4.085   8.457  17.112
    1HEX    C0H16120   4.035   8.376  17.015
    1HEX    O0I16121   3.940   8.405  16.943
    1HEX    C0J16122   4.114   8.244  16.996
    1HEX    C0K16123   4.120   8.144  17.115
    1HEX    C0N16124   4.294   8.586  17.191
    1HEX    O0O16125   4.426   8.631  17.225
    1HEX    C0P16126   4.459   8.704  17.345
    1HEX    C0Q16127   4.417   8.653   0.047
    1HEX    C0R16128   4.474   8.510   0.070
    1HEX    O0S16129   4.615   8.497   0.036
    1HEX    C0T16130   4.713   8.505   0.131
    1HEX    O0U16131   4.696   8.534   0.249
    1HEX    C0V16132   4.853   8.464   0.081
    1HEX    C0W16133   4.954   8.580   0.054
    1HEX    C0Y16134   4.485   8.750   0.147
    1HEX    O0Z16135   4.442   8.721   0.278
    1HEX    C1016136   4.498   8.786   0.381
    1HEX    O1116137   4.590   8.867   0.374
    1HEX    C1216138   4.427   8.752   0.511
    1HEX    C1316139   4.510   8.784   0.636
    1HEX    C1516140   4.262   8.671   0.067
    1HEX    O1616141   4.185   8.595   0.162
    1HEX    C1716142   4.063   8.544   0.121
    1HEX    O1816143   4.037   8.508   0.007
    1HEX    C1916144   3.955   8.538   0.230
    1HEX    C1A16145   3.823   8.614   0.193
    1HEX    H1D16146   4.713   8.527  16.750
    1HEX    H1E16147   4.618   8.674  16.736
    1HEX    H1F16148   4.590   8.604  16.962
    1HEX    H1G16149   4.567   8.436  16.919
    1HEX    H1H16150   4.162   8.643  16.902
    1HEX    H1I16151   4.200   8.806  16.937
    1HEX    H1J16152   4.287   8.844  17.212
    1HEX    H1K16153   4.134   8.805  17.291
    1HEX    H1M16154   4.065   9.216  17.127
    1HEX    H1N16155   4.240   9.212  17.126
    1HEX    H1O16156   4.244   9.286  17.372
    1HEX    H1P16157   4.071   9.296  17.370
    1HEX    H1R16158   3.983   8.631  17.047
    1HEX    H1S16159   4.004   8.613  17.218
    1HEX    H1T16160   4.215   8.272  16.968
    1HEX    H1U16161   4.073   8.194  16.908
    1HEX    H1V16162   4.023   8.095  17.128
    1HEX    H1W16163   4.139   8.197  17.208
    1HEX    H1Y16164   4.314   8.503  17.123
    1HEX    H1Z16165   4.250   8.529  17.273
    1HEX    H2016166   4.437   8.809  17.336
    1HEX    H2116167   4.568   8.704  17.342
    1HEX    H2216168   4.419   8.440   0.008
    1HEX    H2316169   4.456   8.479   0.173
    1HEX    H2416170   4.844   8.399  17.434
    1HEX    H2516171   4.893   8.402   0.160
    1HEX    H2616172   4.937   8.663   0.123
    1HEX    H2716173   4.940   8.620  17.393
    1HEX    H2916174   4.460   8.854   0.125
    1HEX    H2A16175   4.594   8.745   0.141
    1HEX    H2B16176   4.400   8.647   0.509
    1HEX    H2C16177   4.334   8.810   0.510
    1HEX    H2D16178   4.558   8.881   0.630
    1HEX    H2E16179   4.590   8.710   0.647
    1HEX    H2G16180   4.212   8.663  17.413
    1HEX    H2H16181   4.242   8.776   0.092
    1HEX    H2I16182   3.998   8.584   0.319
    1HEX    H2J16183   3.934   8.435   0.256
    1HEX    H2K16184   3.844   8.693   0.120
    1HEX    H2M16185   3.785   8.666   0.281
    1STR    S0016186   4.532   8.498  16.602
    1STR    S0E16187   4.169   9.486  17.259
    1STR    S0M16188   4.250   8.013  17.092
    1STR    S0X16189   5.128   8.522   0.072
    1STR    S1416190   4.399   8.778   0.780
    1STR    S1B16191   3.684   8.513   0.126
    1HEX    C0116192   4.654   8.620   3.696
    1HEX    C0216193   4.574   8.703   3.798
    1HEX    C0316194   4.428   8.662   3.810
    1HEX    O0416195   4.391   8.547   3.783
    1HEX    O0516196   4.352   8.761   3.858
    1HEX    C0616197   4.213   8.740   3.880
    1HEX    C0716198   4.180   8.718   4.030
    1HEX    C0816199   4.199   8.853   4.108
    1HEX    O0916200   4.151   8.986   4.076
    1HEX    C0A16201   4.180   9.085   4.171
    1HEX    O0B16202   4.212   9.058   4.286
    1HEX    C0C16203   4.177   9.234   4.126
    1HEX    C0D16204   4.245   9.330   4.232
    1HEX    C0F16205   4.035   8.658   4.037
    1HEX    O0G16206   4.040   8.514   4.032
    1HEX    C0H16207   4.000   8.441   3.926
    1HEX    O0I16208   3.933   8.483   3.833
    1HEX    C0J16209   4.055   8.296   3.927
    1HEX    C0K16210   3.950   8.185   3.952
    1HEX    C0N16211   4.277   8.609   4.094
    1HEX    O0O16212   4.409   8.642   4.143
    1HEX    C0P16213   4.440   8.713   4.265
    1HEX    C0Q16214   4.401   8.661   4.408
    1HEX    C0R16215   4.468   8.521   4.431
    1HEX    O0S16216   4.609   8.519   4.393
    1HEX    C0T16217   4.712   8.528   4.484
    1HEX    O0U16218   4.698   8.544   4.605
    1HEX    C0V16219   4.853   8.512   4.422
    1HEX    C0W16220   4.964   8.602   4.485
    1HEX    C0Y16221   4.462   8.760   4.510
    1HEX    O0Z16222   4.432   8.721   4.643
    1HEX    C1016223   4.490   8.788   4.744
    1HEX    O1116224   4.566   8.884   4.731
    1HEX    C1216225   4.452   8.733   4.881
    1HEX    C1316226   4.555   8.773   4.987
    1HEX    C1516227   4.244   8.672   4.421
    1HEX    O1616228   4.164   8.635   4.534
    1HEX    C1716229   4.044   8.574   4.508
    1HEX    O1816230   4.028   8.484   4.426
    1HEX    C1916231   3.921   8.632   4.581
    1HEX    C1A16232   3.817   8.691   4.479
    1HEX    H1D16233   4.760   8.628   3.720
    1HEX    H1E16234   4.629   8.515   3.709
    1HEX    H1F16235   4.580   8.810   3.778
    1HEX    H1G16236   4.615   8.687   3.898
    1HEX    H1H16237   4.176   8.657   3.819
    1HEX    H1I16238   4.160   8.827   3.842
    1HEX    H1J16239   4.305   8.872   4.101
    1HEX    H1K16240   4.172   8.833   4.211
    1HEX    H1M16241   4.073   9.262   4.109
    1HEX    H1N16242   4.228   9.242   4.030
    1HEX    H1O16243   4.352   9.314   4.234
    1HEX    H1P16244   4.210   9.301   4.331
    1HEX    H1R16245   3.969   8.699   3.960
    1HEX    H1S16246   3.987   8.684   4.132
    1HEX    H1T16247   4.139   8.289   3.996
    1HEX    H1U16248   4.098   8.280   3.828
    1HEX    H1V16249   3.937   8.124   3.862
    1HEX    H1W16250   3.853   8.232   3.970
    1HEX    H1Y16251   4.295   8.537   4.015
    1HEX    H1Z16252   4.228   8.542   4.164
    1HEX    H2016253   4.414   8.818   4.260
    1HEX    H2116254   4.549   8.717   4.262
    1HEX    H2216255   4.417   8.447   4.370
    1HEX    H2316256   4.456   8.489   4.534
    1HEX    H2416257   4.844   8.531   4.315
    1HEX    H2516258   4.881   8.407   4.432
    1HEX    H2616259   4.925   8.702   4.503
    1HEX    H2716260   4.991   8.563   4.583
    1HEX    H2916261   4.426   8.861   4.494
    1HEX    H2A16262   4.570   8.765   4.498
    1HEX    H2B16263   4.446   8.624   4.872
    1HEX    H2C16264   4.352   8.769   4.907
    1HEX    H2D16265   4.551   8.881   5.005
    1HEX    H2E16266   4.655   8.752   4.949
    1HEX    H2G16267   4.198   8.627   4.335
    1HEX    H2H16268   4.220   8.777   4.410
    1HEX    H2I16269   3.951   8.705   4.655
    1HEX    H2J16270   3.875   8.549   4.635
    1HEX    H2K16271   3.821   8.636   4.385
    1HEX    H2M16272   3.845   8.793   4.454
    1STR    S0016273   4.638   8.667   3.519
    1STR    S0E16274   4.213   9.514   4.226
    1STR    S0M16275   3.978   8.068   4.092
    1STR    S0X16276   5.118   8.618   4.383
    1STR    S1416277   4.535   8.685   5.146
    1STR    S1B16278   3.640   8.692   4.531
    1HEX    C0116279   4.582   8.580   7.979
    1HEX    C0216280   4.572   8.603   8.131
    1HEX    C0316281   4.432   8.572   8.182
    1HEX    O0416282   4.390   8.456   8.181
    1HEX    O0516283   4.364   8.680   8.225
    1HEX    C0616284   4.228   8.666   8.263
    1HEX    C0716285   4.206   8.660   8.417
    1HEX    C0816286   4.218   8.804   8.477
    1HEX    O0916287   4.155   8.927   8.435
    1HEX    C0A16288   4.163   9.033   8.525
    1HEX    O0B16289   4.169   9.018   8.647
    1HEX    C0C16290   4.175   9.175   8.465
    1HEX    C0D16291   4.187   9.290   8.572
    1HEX    C0F16292   4.069   8.587   8.443
    1HEX    O0G16293   4.088   8.444   8.459
    1HEX    C0H16294   4.054   8.354   8.363
    1HEX    O0I16295   3.984   8.380   8.266
    1HEX    C0J16296   4.119   8.214   8.379
    1HEX    C0K16297   4.120   8.146   8.520
    1HEX    C0N16298   4.314   8.569   8.489
    1HEX    O0O16299   4.442   8.624   8.526
    1HEX    C0P16300   4.464   8.702   8.646
    1HEX    C0Q16301   4.417   8.654   8.788
    1HEX    C0R16302   4.469   8.509   8.812
    1HEX    O0S16303   4.609   8.494   8.784
    1HEX    C0T16304   4.703   8.498   8.883
    1HEX    O0U16305   4.681   8.523   9.001
    1HEX    C0V16306   4.845   8.463   8.835
    1HEX    C0W16307   4.941   8.584   8.820
    1HEX    C0Y16308   4.482   8.749   8.891
    1HEX    O0Z16309   4.440   8.717   9.023
    1HEX    C1016310   4.493   8.783   9.126
    1HEX    O1116311   4.580   8.870   9.117
    1HEX    C1216312   4.430   8.743   9.259
    1HEX    C1316313   4.522   8.765   9.382
    1HEX    C1516314   4.262   8.673   8.801
    1HEX    O1616315   4.191   8.629   8.917
    1HEX    C1716316   4.070   8.569   8.899
    1HEX    O1816317   4.041   8.497   8.803
    1HEX    C1916318   3.964   8.605   9.003
    1HEX    C1A16319   3.851   8.690   8.938
    1HEX    H1D16320   4.680   8.541   7.952
    1HEX    H1E16321   4.510   8.504   7.948
    1HEX    H1F16322   4.601   8.704   8.160
    1HEX    H1G16323   4.638   8.535   8.184
    1HEX    H1H16324   4.183   8.579   8.214
    1HEX    H1I16325   4.173   8.751   8.222
    1HEX    H1J16326   4.322   8.832   8.463
    1HEX    H1K16327   4.198   8.795   8.583
    1HEX    H1M16328   4.091   9.193   8.398
    1HEX    H1N16329   4.265   9.174   8.403
    1HEX    H1O16330   4.230   9.255   8.665
    1HEX    H1P16331   4.087   9.326   8.598
    1HEX    H1R16332   3.996   8.610   8.365
    1HEX    H1S16333   4.023   8.623   8.535
    1HEX    H1T16334   4.221   8.223   8.341
    1HEX    H1U16335   4.067   8.148   8.308
    1HEX    H1V16336   4.019   8.143   8.562
    1HEX    H1W16337   4.180   8.205   8.589
    1HEX    H1Y16338   4.337   8.487   8.421
    1HEX    H1Z16339   4.276   8.513   8.573
    1HEX    H2016340   4.434   8.806   8.633
    1HEX    H2116341   4.573   8.709   8.649
    1HEX    H2216342   4.415   8.440   8.748
    1HEX    H2316343   4.446   8.478   8.914
    1HEX    H2416344   4.839   8.404   8.743
    1HEX    H2516345   4.884   8.396   8.911
    1HEX    H2616346   4.905   8.671   8.873
    1HEX    H2716347   4.947   8.612   8.715
    1HEX    H2916348   4.456   8.853   8.871
    1HEX    H2A16349   4.591   8.745   8.886
    1HEX    H2B16350   4.399   8.639   9.254
    1HEX    H2C16351   4.339   8.802   9.267
    1HEX    H2D16352   4.598   8.840   9.359
    1HEX    H2E16353   4.576   8.674   9.407
    1HEX    H2G16354   4.211   8.634   8.715
    1HEX    H2H16355   4.241   8.780   8.798
    1HEX    H2I16356   4.009   8.655   9.089
    1HEX    H2J16357   3.923   8.510   9.038
    1HEX    H2K16358   3.839   8.661   8.834
    1HEX    H2M16359   3.876   8.796   8.937
    1STR    S0016360   4.556   8.735   7.887
    1STR    S0E16361   4.289   9.435   8.519
    1STR    S0M16362   4.186   7.973   8.510
    1STR    S0X16363   5.111   8.543   8.879
    1STR    S1416364   4.430   8.828   9.526
    1STR    S1B16365   3.687   8.667   9.017
    1HEX    C0116366   4.542   8.563  12.312
    1HEX    C0216367   4.544   8.617  12.457
    1HEX    C0316368   4.407   8.601  12.521
    1HEX    O0416369   4.352   8.490  12.523
    1HEX    O0516370   4.356   8.715  12.570
    1HEX    C0616371   4.218   8.721  12.604
    1HEX    C0716372   4.187   8.710  12.755
    1HEX    C0816373   4.213   8.849  12.826
    1HEX    O0916374   4.153   8.980  12.802
    1HEX    C0A16375   4.172   9.076  12.903
    1HEX    O0B16376   4.198   9.047  13.020
    1HEX    C0C16377   4.164   9.227  12.865
    1HEX    C0D16378   4.216   9.322  12.980
    1HEX    C0F16379   4.041   8.653  12.768
    1HEX    O0G16380   4.044   8.509  12.754
    1HEX    C0H16381   3.987   8.442  12.652
    1HEX    O0I16382   3.907   8.492  12.573
    1HEX    C0J16383   4.040   8.299  12.629
    1HEX    C0K16384   4.032   8.195  12.745
    1HEX    C0N16385   4.279   8.600  12.824
    1HEX    O0O16386   4.414   8.630  12.861
    1HEX    C0P16387   4.452   8.707  12.978
    1HEX    C0Q16388   4.413   8.660  13.122
    1HEX    C0R16389   4.476   8.519  13.146
    1HEX    O0S16390   4.616   8.510  13.109
    1HEX    C0T16391   4.719   8.523  13.198
    1HEX    O0U16392   4.706   8.550  13.317
    1HEX    C0V16393   4.860   8.492  13.141
    1HEX    C0W16394   4.957   8.614  13.126
    1HEX    C0Y16395   4.481   8.759  13.219
    1HEX    O0Z16396   4.437   8.726  13.349
    1HEX    C1016397   4.487   8.787  13.455
    1HEX    O1116398   4.576   8.872  13.455
    1HEX    C1216399   4.416   8.740  13.580
    1HEX    C1316400   4.481   8.791  13.709
    1HEX    C1516401   4.257   8.680  13.144
    1HEX    O1616402   4.177   8.612  13.243
    1HEX    C1716403   4.065   8.547  13.199
    1HEX    O1816404   4.062   8.476  13.099
    1HEX    C1916405   3.934   8.578  13.274
    1HEX    C1A16406   3.829   8.645  13.179
    1HEX    H1D16407   4.629   8.501  12.293
    1HEX    H1E16408   4.456   8.499  12.296
    1HEX    H1F16409   4.575   8.722  12.461
    1HEX    H1G16410   4.614   8.560  12.517
    1HEX    H1H16411   4.164   8.645  12.547
    1HEX    H1I16412   4.179   8.815  12.564
    1HEX    H1J16413   4.317   8.871  12.805
    1HEX    H1K16414   4.203   8.831  12.932
    1HEX    H1M16415   4.060   9.250  12.839
    1HEX    H1N16416   4.223   9.242  12.774
    1HEX    H1O16417   4.323   9.304  12.996
    1HEX    H1P16418   4.169   9.294  13.074
    1HEX    H1R16419   3.974   8.700  12.696
    1HEX    H1S16420   3.999   8.676  12.866
    1HEX    H1T16421   4.144   8.310  12.598
    1HEX    H1U16422   3.987   8.259  12.543
    1HEX    H1V16423   3.929   8.179  12.778
    1HEX    H1W16424   4.087   8.231  12.833
    1HEX    H1Y16425   4.288   8.518  12.754
    1HEX    H1Z16426   4.229   8.544  12.904
    1HEX    H2016427   4.428   8.812  12.967
    1HEX    H2116428   4.560   8.707  12.971
    1HEX    H2216429   4.421   8.445  13.088
    1HEX    H2316430   4.462   8.489  13.251
    1HEX    H2416431   4.849   8.438  13.047
    1HEX    H2516432   4.904   8.422  13.212
    1HEX    H2616433   4.956   8.676  13.216
    1HEX    H2716434   4.923   8.678  13.045
    1HEX    H2916435   4.455   8.863  13.198
    1HEX    H2A16436   4.590   8.755  13.214
    1HEX    H2B16437   4.414   8.631  13.578
    1HEX    H2C16438   4.313   8.775  13.573
    1HEX    H2D16439   4.486   8.900  13.712
    1HEX    H2E16440   4.584   8.755  13.717
    1HEX    H2G16441   4.204   8.669  13.053
    1HEX    H2H16442   4.240   8.785  13.166
    1HEX    H2I16443   3.954   8.639  13.362
    1HEX    H2J16444   3.895   8.483  13.310
    1HEX    H2K16445   3.846   8.610  13.077
    1HEX    H2M16446   3.847   8.753  13.175
    1STR    S0016447   4.533   8.692  12.184
    1STR    S0E16448   4.190   9.506  12.964
    1STR    S0M16449   4.104   8.035  12.687
    1STR    S0X16450   5.131   8.561  13.091
    1STR    S1416451   4.384   8.728  13.850
    1STR    S1B16452   3.650   8.620  13.218
    1HEX    C0116453   4.500  12.932  16.667
    1HEX    C0216454   4.539  12.970  16.812
    1HEX    C0316455   4.415  12.948  16.896
    1HEX    O0416456   4.367  12.835  16.904
    1HEX    O0516457   4.360  13.061  16.942
    1HEX    C0616458   4.222  13.063  16.976
    1HEX    C0716459   4.193  13.054  17.129
    1HEX    C0816460   4.217  13.194  17.195
    1HEX    O0916461   4.160  13.322  17.159
    1HEX    C0A16462   4.183  13.428  17.248
    1HEX    O0B16463   4.208  13.412  17.367
    1HEX    C0C16464   4.183  13.571  17.188
    1HEX    C0D16465   4.149  13.689  17.286
    1HEX    C0F16466   4.047  12.997  17.145
    1HEX    O0G16467   4.051  12.852  17.148
    1HEX    C0H16468   3.999  12.773  17.052
    1HEX    O0I16469   3.922  12.809  16.964
    1HEX    C0J16470   4.057  12.630  17.055
    1HEX    C0K16471   3.990  12.526  17.149
    1HEX    C0N16472   4.289  12.949  17.199
    1HEX    O0O16473   4.422  12.986  17.240
    1HEX    C0P16474   4.452  13.064  17.358
    1HEX    C0Q16475   4.411  13.015   0.062
    1HEX    C0R16476   4.472  12.873   0.083
    1HEX    O0S16477   4.613  12.866   0.047
    1HEX    C0T16478   4.713  12.871   0.140
    1HEX    O0U16479   4.696  12.887   0.260
    1HEX    C0V16480   4.856  12.856   0.083
    1HEX    C0W16481   4.933  12.991   0.075
    1HEX    C0Y16482   4.477  13.113   0.162
    1HEX    O0Z16483   4.440  13.087   0.297
    1HEX    C1016484   4.494  13.162   0.394
    1HEX    O1116485   4.579  13.249   0.377
    1HEX    C1216486   4.439  13.130   0.533
    1HEX    C1316487   4.549  13.108   0.639
    1HEX    C1516488   4.255  13.032   0.078
    1HEX    O1616489   4.178  12.987   0.190
    1HEX    C1716490   4.057  12.927   0.165
    1HEX    O1816491   4.037  12.849   0.072
    1HEX    C1916492   3.939  12.973   0.253
    1HEX    C1A16493   3.828  13.039   0.166
    1HEX    H1D16494   4.544  12.837  16.638
    1HEX    H1E16495   4.392  12.916  16.662
    1HEX    H1F16496   4.572  13.073  16.822
    1HEX    H1G16497   4.618  12.905  16.850
    1HEX    H1H16498   4.171  12.984  16.922
    1HEX    H1I16499   4.180  13.155  16.936
    1HEX    H1J16500   4.322  13.215  17.177
    1HEX    H1K16501   4.201  13.181  17.302
    1HEX    H1M16502   4.110  13.570  17.107
    1HEX    H1N16503   4.280  13.588  17.141
    1HEX    H1O16504   4.104  13.647  17.376
    1HEX    H1P16505   4.072  13.753  17.243
    1HEX    H1R16506   3.980  13.034  17.066
    1HEX    H1S16507   4.003  13.031  17.238
    1HEX    H1T16508   4.162  12.641  17.081
    1HEX    H1U16509   4.056  12.591  16.953
    1HEX    H1V16510   3.905  12.478  17.100
    1HEX    H1W16511   3.951  12.573  17.240
    1HEX    H1Y16512   4.304  12.868  17.128
    1HEX    H1Z16513   4.242  12.888  17.276
    1HEX    H2016514   4.425  13.168  17.348
    1HEX    H2116515   4.561  13.068  17.355
    1HEX    H2216516   4.419  12.801   0.020
    1HEX    H2316517   4.457  12.840   0.186
    1HEX    H2416518   4.851  12.807  17.425
    1HEX    H2516519   4.911  12.788   0.148
    1HEX    H2616520   4.939  13.036   0.174
    1HEX    H2716521   4.873  13.059   0.015
    1HEX    H2916522   4.448  13.216   0.139
    1HEX    H2A16523   4.585  13.110   0.153
    1HEX    H2B16524   4.375  13.042   0.526
    1HEX    H2C16525   4.373  13.213   0.561
    1HEX    H2D16526   4.646  13.129   0.594
    1HEX    H2E16527   4.552  13.004   0.671
    1HEX    H2G16528   4.202  13.000  17.430
    1HEX    H2H16529   4.235  13.140   0.077
    1HEX    H2I16530   3.975  13.039   0.332
    1HEX    H2J16531   3.899  12.883   0.301
    1HEX    H2K16532   3.813  12.979   0.077
    1HEX    H2M16533   3.863  13.136   0.130
    1STR    S0016534   4.531  13.059  16.541
    1STR    S0E16535   4.286  13.800  17.346
    1STR    S0M16536   4.111  12.393  17.193
    1STR    S0X16537   5.102  12.989  -0.000
    1STR    S1416538   4.537  13.216   0.787
    1STR    S1B16539   3.663  13.065   0.245
    1HEX    C0116540   4.600  12.969   3.601
    1HEX    C0216541   4.559  12.977   3.750
    1HEX    C0316542   4.414  12.949   3.785
    1HEX    O0416543   4.366  12.836   3.771
    1HEX    O0516544   4.353  13.056   3.840
    1HEX    C0616545   4.218  13.047   3.882
    1HEX    C0716546   4.201  13.031   4.036
    1HEX    C0816547   4.203  13.174   4.105
    1HEX    O0916548   4.136  13.297   4.067
    1HEX    C0A16549   4.152  13.404   4.157
    1HEX    O0B16550   4.191  13.388   4.273
    1HEX    C0C16551   4.123  13.549   4.108
    1HEX    C0D16552   4.167  13.658   4.214
    1HEX    C0F16553   4.071  12.946   4.060
    1HEX    O0G16554   4.103  12.804   4.063
    1HEX    C0H16555   4.077  12.719   3.961
    1HEX    O0I16556   3.997  12.742   3.871
    1HEX    C0J16557   4.165  12.591   3.960
    1HEX    C0K16558   4.155  12.495   4.083
    1HEX    C0N16559   4.317  12.943   4.101
    1HEX    O0O16560   4.442  13.001   4.141
    1HEX    C0P16561   4.462  13.071   4.266
    1HEX    C0Q16562   4.417  13.014   4.405
    1HEX    C0R16563   4.475  12.871   4.426
    1HEX    O0S16564   4.617  12.861   4.399
    1HEX    C0T16565   4.709  12.863   4.499
    1HEX    O0U16566   4.685  12.887   4.617
    1HEX    C0V16567   4.851  12.823   4.455
    1HEX    C0W16568   4.948  12.941   4.425
    1HEX    C0Y16569   4.479  13.109   4.511
    1HEX    O0Z16570   4.438  13.075   4.642
    1HEX    C1016571   4.494  13.138   4.746
    1HEX    O1116572   4.584  13.222   4.738
    1HEX    C1216573   4.429  13.100   4.878
    1HEX    C1316574   4.517  13.131   5.002
    1HEX    C1516575   4.261  13.024   4.419
    1HEX    O1616576   4.190  12.966   4.530
    1HEX    C1716577   4.066  12.912   4.506
    1HEX    O1816578   4.029  12.863   4.399
    1HEX    C1916579   3.968  12.921   4.624
    1HEX    C1A16580   3.837  12.997   4.586
    1HEX    H1D16581   4.660  12.880   3.586
    1HEX    H1E16582   4.664  13.054   3.576
    1HEX    H1F16583   4.583  13.076   3.789
    1HEX    H1G16584   4.619  12.907   3.808
    1HEX    H1H16585   4.168  12.966   3.828
    1HEX    H1I16586   4.167  13.137   3.848
    1HEX    H1J16587   4.307  13.206   4.097
    1HEX    H1K16588   4.180  13.159   4.209
    1HEX    H1M16589   4.017  13.558   4.084
    1HEX    H1N16590   4.178  13.564   4.015
    1HEX    H1O16591   4.275  13.653   4.225
    1HEX    H1P16592   4.128  13.629   4.312
    1HEX    H1R16593   3.993  12.968   3.987
    1HEX    H1S16594   4.026  12.970   4.157
    1HEX    H1T16595   4.267  12.625   3.946
    1HEX    H1U16596   4.140  12.536   3.869
    1HEX    H1V16597   4.061  12.440   4.079
    1HEX    H1W16598   4.153  12.552   4.175
    1HEX    H1Y16599   4.344  12.868   4.027
    1HEX    H1Z16600   4.284  12.878   4.181
    1HEX    H2016601   4.429  13.174   4.258
    1HEX    H2116602   4.570  13.081   4.269
    1HEX    H2216603   4.424  12.801   4.359
    1HEX    H2316604   4.453  12.836   4.527
    1HEX    H2416605   4.845  12.755   4.371
    1HEX    H2516606   4.890  12.765   4.538
    1HEX    H2616607   4.911  13.034   4.469
    1HEX    H2716608   4.953  12.958   4.317
    1HEX    H2916609   4.451  13.213   4.492
    1HEX    H2A16610   4.588  13.107   4.506
    1HEX    H2B16611   4.403  12.995   4.875
    1HEX    H2C16612   4.336  13.157   4.882
    1HEX    H2D16613   4.574  13.223   4.988
    1HEX    H2E16614   4.590  13.051   5.016
    1HEX    H2G16615   4.213  12.989   4.329
    1HEX    H2H16616   4.234  13.130   4.423
    1HEX    H2I16617   4.018  12.973   4.705
    1HEX    H2J16618   3.946  12.821   4.660
    1HEX    H2K16619   3.849  13.048   4.490
    1HEX    H2M16620   3.815  13.076   4.658
    1STR    S0016621   4.468  12.962   3.475
    1STR    S0E16622   4.117  13.836   4.193
    1STR    S0M16623   4.296  12.372   4.091
    1STR    S0X16624   5.117  12.907   4.489
    1STR    S1416625   4.409  13.152   5.148
    1STR    S1B16626   3.686  12.893   4.572
    1HEX    C0116627   4.628  12.915   8.015
    1HEX    C0216628   4.576  13.014   8.122
    1HEX    C0316629   4.430  12.993   8.160
    1HEX    O0416630   4.376  12.883   8.148
    1HEX    O0516631   4.372  13.103   8.211
    1HEX    C0616632   4.232  13.104   8.235
    1HEX    C0716633   4.193  13.081   8.384
    1HEX    C0816634   4.210  13.215   8.465
    1HEX    O0916635   4.161  13.348   8.436
    1HEX    C0A16636   4.187  13.445   8.535
    1HEX    O0B16637   4.214  13.415   8.651
    1HEX    C0C16638   4.185  13.595   8.494
    1HEX    C0D16639   4.251  13.689   8.603
    1HEX    C0F16640   4.047  13.023   8.385
    1HEX    O0G16641   4.050  12.879   8.363
    1HEX    C0H16642   4.014  12.823   8.245
    1HEX    O0I16643   3.955  12.882   8.155
    1HEX    C0J16644   4.059  12.677   8.226
    1HEX    C0K16645   4.064  12.588   8.353
    1HEX    C0N16646   4.282  12.968   8.452
    1HEX    O0O16647   4.415  12.996   8.501
    1HEX    C0P16648   4.449  13.070   8.620
    1HEX    C0Q16649   4.409  13.022   8.764
    1HEX    C0R16650   4.475  12.883   8.790
    1HEX    O0S16651   4.616  12.878   8.756
    1HEX    C0T16652   4.717  12.892   8.848
    1HEX    O0U16653   4.700  12.915   8.967
    1HEX    C0V16654   4.860  12.871   8.792
    1HEX    C0W16655   4.955  12.996   8.800
    1HEX    C0Y16656   4.470  13.123   8.864
    1HEX    O0Z16657   4.432  13.086   8.995
    1HEX    C1016658   4.487  13.148   9.099
    1HEX    O1116659   4.571  13.238   9.093
    1HEX    C1216660   4.435  13.094   9.231
    1HEX    C1316661   4.535  13.114   9.345
    1HEX    C1516662   4.252  13.038   8.777
    1HEX    O1616663   4.169  12.991   8.885
    1HEX    C1716664   4.051  12.929   8.851
    1HEX    O1816665   4.043  12.843   8.764
    1HEX    C1916666   3.923  12.983   8.918
    1HEX    C1A16667   3.823  13.039   8.811
    1HEX    H1D16668   4.735  12.905   8.026
    1HEX    H1E16669   4.588  12.816   8.037
    1HEX    H1F16670   4.592  13.118   8.093
    1HEX    H1G16671   4.631  12.999   8.215
    1HEX    H1H16672   4.184  13.031   8.170
    1HEX    H1I16673   4.192  13.199   8.201
    1HEX    H1J16674   4.317  13.234   8.458
    1HEX    H1K16675   4.184  13.192   8.568
    1HEX    H1M16676   4.081  13.624   8.476
    1HEX    H1N16677   4.238  13.605   8.400
    1HEX    H1O16678   4.358  13.668   8.609
    1HEX    H1P16679   4.212  13.661   8.701
    1HEX    H1R16680   3.983  13.073   8.313
    1HEX    H1S16681   3.999  13.039   8.482
    1HEX    H1T16682   4.158  12.679   8.180
    1HEX    H1U16683   3.993  12.632   8.152
    1HEX    H1V16684   3.971  12.598   8.410
    1HEX    H1W16685   4.144  12.621   8.420
    1HEX    H1Y16686   4.298  12.892   8.376
    1HEX    H1Z16687   4.227  12.906   8.522
    1HEX    H2016688   4.428  13.176   8.612
    1HEX    H2116689   4.558  13.069   8.616
    1HEX    H2216690   4.424  12.807   8.730
    1HEX    H2316691   4.460  12.852   8.894
    1HEX    H2416692   4.853  12.833   8.690
    1HEX    H2516693   4.904  12.791   8.851
    1HEX    H2616694   4.958  13.034   8.902
    1HEX    H2716695   4.915  13.077   8.739
    1HEX    H2916696   4.438  13.225   8.845
    1HEX    H2A16697   4.579  13.124   8.856
    1HEX    H2B16698   4.416  12.987   9.217
    1HEX    H2C16699   4.340  13.142   9.253
    1HEX    H2D16700   4.542  13.220   9.371
    1HEX    H2E16701   4.635  13.086   9.312
    1HEX    H2G16702   4.204  13.005   8.687
    1HEX    H2H16703   4.231  13.145   8.777
    1HEX    H2I16704   3.948  13.057   8.994
    1HEX    H2J16705   3.877  12.899   8.970
    1HEX    H2K16706   3.832  12.980   8.720
    1HEX    H2M16707   3.851  13.141   8.784
    1STR    S0016708   4.597  12.952   7.838
    1STR    S0E16709   4.227  13.874   8.593
    1STR    S0M16710   4.086  12.409   8.313
    1STR    S0X16711   5.129  12.963   8.743
    1STR    S1416712   4.491  13.015   9.491
    1STR    S1B16713   3.643  13.040   8.854
    1HEX    C0116714   4.578  12.882  12.350
    1HEX    C0216715   4.560  12.932  12.495
    1HEX    C0316716   4.416  12.915  12.542
    1HEX    O0416717   4.364  12.804  12.544
    1HEX    O0516718   4.359  13.030  12.583
    1HEX    C0616719   4.222  13.030  12.622
    1HEX    C0716720   4.200  13.029  12.776
    1HEX    C0816721   4.221  13.174  12.834
    1HEX    O0916722   4.154  13.297  12.800
    1HEX    C0A16723   4.163  13.399  12.894
    1HEX    O0B16724   4.174  13.380  13.015
    1HEX    C0C16725   4.168  13.544  12.839
    1HEX    C0D16726   4.156  13.659  12.946
    1HEX    C0F16727   4.059  12.964  12.804
    1HEX    O0G16728   4.070  12.821  12.820
    1HEX    C0H16729   4.029  12.732  12.727
    1HEX    O0I16730   3.959  12.760  12.630
    1HEX    C0J16731   4.086  12.589  12.744
    1HEX    C0K16732   4.069  12.519  12.883
    1HEX    C0N16733   4.304  12.934  12.850
    1HEX    O0O16734   4.434  12.983  12.886
    1HEX    C0P16735   4.461  13.064  13.003
    1HEX    C0Q16736   4.416  13.018  13.146
    1HEX    C0R16737   4.467  12.873  13.171
    1HEX    O0S16738   4.607  12.858  13.139
    1HEX    C0T16739   4.703  12.864  13.234
    1HEX    O0U16740   4.685  12.889  13.353
    1HEX    C0V16741   4.844  12.832  13.181
    1HEX    C0W16742   4.933  12.955  13.147
    1HEX    C0Y16743   4.482  13.114  13.248
    1HEX    O0Z16744   4.439  13.084  13.381
    1HEX    C1016745   4.489  13.154  13.483
    1HEX    O1116746   4.574  13.243  13.474
    1HEX    C1216747   4.426  13.116  13.617
    1HEX    C1316748   4.524  13.122  13.737
    1HEX    C1516749   4.261  13.039  13.161
    1HEX    O1616750   4.188  12.983  13.271
    1HEX    C1716751   4.073  12.917  13.242
    1HEX    O1816752   4.056  12.844  13.144
    1HEX    C1916753   3.957  12.950  13.335
    1HEX    C1A16754   3.847  13.035  13.264
    1HEX    H1D16755   4.663  12.814  12.344
    1HEX    H1E16756   4.491  12.824  12.317
    1HEX    H1F16757   4.590  13.036  12.506
    1HEX    H1G16758   4.622  12.874  12.562
    1HEX    H1H16759   4.170  12.946  12.575
    1HEX    H1I16760   4.174  13.118  12.579
    1HEX    H1J16761   4.324  13.199  12.810
    1HEX    H1K16762   4.213  13.164  12.940
    1HEX    H1M16763   4.090  13.555  12.764
    1HEX    H1N16764   4.262  13.553  12.785
    1HEX    H1O16765   4.152  13.620  13.047
    1HEX    H1P16766   4.061  13.711  12.933
    1HEX    H1R16767   3.987  12.991  12.726
    1HEX    H1S16768   4.016  13.004  12.896
    1HEX    H1T16769   4.192  12.594  12.718
    1HEX    H1U16770   4.040  12.527  12.667
    1HEX    H1V16771   3.963  12.514  12.911
    1HEX    H1W16772   4.118  12.577  12.961
    1HEX    H1Y16773   4.322  12.849  12.783
    1HEX    H1Z16774   4.263  12.880  12.935
    1HEX    H2016775   4.432  13.167  12.988
    1HEX    H2116776   4.570  13.069  13.003
    1HEX    H2216777   4.411  12.804  13.108
    1HEX    H2316778   4.446  12.843  13.274
    1HEX    H2416779   4.833  12.767  13.094
    1HEX    H2516780   4.892  12.771  13.257
    1HEX    H2616781   4.880  13.049  13.161
    1HEX    H2716782   4.961  12.951  13.042
    1HEX    H2916783   4.458  13.218  13.227
    1HEX    H2A16784   4.591  13.108  13.243
    1HEX    H2B16785   4.384  13.015  13.609
    1HEX    H2C16786   4.342  13.183  13.631
    1HEX    H2D16787   4.615  13.175  13.709
    1HEX    H2E16788   4.555  13.022  13.768
    1HEX    H2G16789   4.208  13.011  13.072
    1HEX    H2H16790   4.242  13.146  13.168
    1HEX    H2I16791   3.995  13.001  13.424
    1HEX    H2J16792   3.916  12.855  13.370
    1HEX    H2K16793   3.868  13.047  13.158
    1HEX    H2M16794   3.845  13.136  13.306
    1STR    S0016795   4.607  13.020  12.235
    1STR    S0E16796   4.293  13.785  12.945
    1STR    S0M16797   4.138  12.347  12.880
    1STR    S0X16798   5.087  12.959  13.248
    1STR    S1416799   4.455  13.212  13.882
    1STR    S1B16800   3.680  12.963  13.282
    1HEX    C0116801   8.978  17.295  16.757
    1HEX    C0216802   8.909  17.276  16.894
    1HEX    C0316803   8.757  17.289  16.891
    1HEX    O0416804   8.687  17.192  16.863
    1HEX    O0516805   8.715  17.410  16.932
    1HEX    C0616806   8.577  17.431  16.960
    1HEX    C0716807   8.547  17.424  17.113
    1HEX    C0816808   8.575   0.123  17.180
    1HEX    O0916809   8.511   0.251  17.154
    1HEX    C0A16810   8.527   0.349  17.253
    1HEX    O0B16811   8.554   0.324  17.370
    1HEX    C0C16812   8.513   0.498  17.210
    1HEX    C0D16813   8.546   0.598  17.327
    1HEX    C0F16814   8.400  17.373  17.131
    1HEX    O0G16815   8.399  17.229  17.124
    1HEX    C0H16816   8.341  17.160  17.024
    1HEX    O0I16817   8.257  17.205  16.947
    1HEX    C0J16818   8.397  17.018  17.008
    1HEX    C0K16819   8.396  16.925  17.134
    1HEX    C0N16820   8.638  17.314  17.183
    1HEX    O0O16821   8.774  17.343  17.219
    1HEX    C0P16822   8.812  17.421  17.335
    1HEX    C0Q16823   8.774  17.375   0.039
    1HEX    C0R16824   8.834  17.233   0.064
    1HEX    O0S16825   8.974  17.221   0.029
    1HEX    C0T16826   9.075  17.231   0.121
    1HEX    O0U16827   9.059  17.261   0.239
    1HEX    C0V16828   9.215  17.193   0.069
    1HEX    C0W16829   9.315  17.310   0.045
    1HEX    C0Y16830   8.844   0.034   0.137
    1HEX    O0Z16831   8.801   0.004   0.268
    1HEX    C1016832   8.854   0.068   0.372
    1HEX    O1116833   8.945   0.151   0.367
    1HEX    C1216834   8.783   0.030   0.501
    1HEX    C1316835   8.860   0.071   0.627
    1HEX    C1516836   8.619  17.395   0.063
    1HEX    O1616837   8.544  17.325   0.164
    1HEX    C1716838   8.425  17.268   0.127
    1HEX    O1816839   8.406  17.211   0.020
    1HEX    C1916840   8.309  17.289   0.225
    1HEX    C1A16841   8.186  17.357   0.159
    1HEX    H1D16842   8.939  17.194  16.743
    1HEX    H1E16843   8.928  17.389  16.740
    1HEX    H1F16844   8.945  17.352  16.964
    1HEX    H1G16845   8.933  17.181  16.942
    1HEX    H1H16846   8.516  17.359  16.905
    1HEX    H1I16847   8.547   0.088  16.920
    1HEX    H1J16848   8.680   0.145  17.158
    1HEX    H1K16849   8.568   0.107  17.287
    1HEX    H1M16850   8.412   0.514  17.171
    1HEX    H1N16851   8.581   0.515  17.127
    1HEX    H1O16852   8.648   0.581  17.362
    1HEX    H1P16853   8.483   0.575  17.413
    1HEX    H1R16854   8.332  17.418  17.058
    1HEX    H1S16855   8.360  17.401  17.228
    1HEX    H1T16856   8.499  17.032  16.974
    1HEX    H1U16857   8.345  16.969  16.925
    1HEX    H1V16858   8.302  16.870  17.139
    1HEX    H1W16859   8.404  16.983  17.226
    1HEX    H1Y16860   8.645  17.230  17.114
    1HEX    H1Z16861   8.589  17.259  17.264
    1HEX    H2016862   8.789   0.086  17.323
    1HEX    H2116863   8.921  17.421  17.328
    1HEX    H2216864   8.779  17.160   0.004
    1HEX    H2316865   8.818  17.203   0.168
    1HEX    H2416866   9.205  17.130  17.421
    1HEX    H2516867   9.257  17.128   0.147
    1HEX    H2616868   9.306  17.386   0.123
    1HEX    H2716869   9.292  17.360  17.390
    1HEX    H2916870   8.818   0.137   0.115
    1HEX    H2A16871   8.952   0.029   0.130
    1HEX    H2B16872   8.766  17.363   0.499
    1HEX    H2C16873   8.686   0.079   0.498
    1HEX    H2D16874   8.893   0.175   0.625
    1HEX    H2E16875   8.950   0.010   0.638
    1HEX    H2G16876   8.564  17.385  17.412
    1HEX    H2H16877   8.602   0.060   0.085
    1HEX    H2I16878   8.345  17.347   0.310
    1HEX    H2J16879   8.282  17.191   0.264
    1HEX    H2K16880   8.203  17.371   0.052
    1HEX    H2M16881   8.170   0.018   0.199
    1STR    S0016882   8.940  17.257  16.583
    1STR    S0E16883   8.526   0.780  17.295
    1STR    S0M16884   8.535  16.806  17.121
    1STR    S0X16885   9.490  17.249   0.039
    1STR    S1416886   8.750   0.044   0.770
    1STR    S1B16887   8.029  17.263   0.174
    1HEX    C0116888   8.968  17.328   3.701
    1HEX    C0216889   8.902  17.371   3.833
    1HEX    C0316890   8.753  17.346   3.832
    1HEX    O0416891   8.708  17.235   3.803
    1HEX    O0516892   8.684   0.012   3.875
    1HEX    C0616893   8.546  17.437   3.906
    1HEX    C0716894   8.525  17.423   4.059
    1HEX    C0816895   8.548   0.123   4.129
    1HEX    O0916896   8.506   0.255   4.087
    1HEX    C0A16897   8.544   0.361   4.172
    1HEX    O0B16898   8.572   0.346   4.291
    1HEX    C0C16899   8.557   0.503   4.109
    1HEX    C0D16900   8.523   0.628   4.200
    1HEX    C0F16901   8.383  17.358   4.079
    1HEX    O0G16902   8.392  17.214   4.087
    1HEX    C0H16903   8.347  17.130   3.991
    1HEX    O0I16904   8.269  17.161   3.901
    1HEX    C0J16905   8.413  16.990   3.995
    1HEX    C0K16906   8.348  16.882   4.088
    1HEX    C0N16907   8.628  17.318   4.122
    1HEX    O0O16908   8.763  17.355   4.155
    1HEX    C0P16909   8.803  17.430   4.272
    1HEX    C0Q16910   8.766  17.385   4.418
    1HEX    C0R16911   8.824  17.243   4.443
    1HEX    O0S16912   8.963  17.232   4.402
    1HEX    C0T16913   9.068  17.238   4.490
    1HEX    O0U16914   9.057  17.252   4.612
    1HEX    C0V16915   9.208  17.224   4.425
    1HEX    C0W16916   9.320  17.307   4.494
    1HEX    C0Y16917   8.839   0.044   4.513
    1HEX    O0Z16918   8.808   0.018   4.649
    1HEX    C1016919   8.871   0.090   4.744
    1HEX    O1116920   8.957   0.175   4.722
    1HEX    C1216921   8.822   0.059   4.885
    1HEX    C1316922   8.932   0.070   4.993
    1HEX    C1516923   8.611  17.409   4.439
    1HEX    O1616924   8.533  17.367   4.551
    1HEX    C1716925   8.410  17.311   4.524
    1HEX    O1816926   8.392  17.226   4.437
    1HEX    C1916927   8.290  17.371   4.600
    1HEX    C1A16928   8.166  17.385   4.505
    1HEX    H1D16929   9.073  17.306   3.720
    1HEX    H1E16930   8.921  17.237   3.663
    1HEX    H1F16931   8.923   0.035   3.857
    1HEX    H1G16932   8.941  17.310   3.915
    1HEX    H1H16933   8.503  17.353   3.851
    1HEX    H1I16934   8.494   0.085   3.868
    1HEX    H1J16935   8.654   0.138   4.117
    1HEX    H1K16936   8.524   0.114   4.234
    1HEX    H1M16937   8.489   0.503   4.023
    1HEX    H1N16938   8.657   0.513   4.067
    1HEX    H1O16939   8.459   0.592   4.280
    1HEX    H1P16940   8.463   0.699   4.144
    1HEX    H1R16941   8.312  17.390   4.002
    1HEX    H1S16942   8.339  17.392   4.173
    1HEX    H1T16943   8.516  17.006   4.024
    1HEX    H1U16944   8.416  16.951   3.893
    1HEX    H1V16945   8.261  16.837   4.041
    1HEX    H1W16946   8.313  16.926   4.182
    1HEX    H1Y16947   8.639  17.239   4.047
    1HEX    H1Z16948   8.587  17.257   4.202
    1HEX    H2016949   8.782   0.096   4.262
    1HEX    H2116950   8.912  17.428   4.264
    1HEX    H2216951   8.767  17.170   4.385
    1HEX    H2316952   8.812  17.214   4.548
    1HEX    H2416953   9.198  17.251   4.320
    1HEX    H2516954   9.234  17.118   4.427
    1HEX    H2616955   9.282  17.405   4.523
    1HEX    H2716956   9.350  17.259   4.587
    1HEX    H2916957   8.812   0.147   4.491
    1HEX    H2A16958   8.947   0.039   4.499
    1HEX    H2B16959   8.778  17.399   4.886
    1HEX    H2C16960   8.740   0.128   4.905
    1HEX    H2D16961   9.021   0.119   4.952
    1HEX    H2E16962   8.965  17.411   5.024
    1HEX    H2G16963   8.557  17.379   4.351
    1HEX    H2H16964   8.596   0.077   4.439
    1HEX    H2I16965   8.319   0.027   4.641
    1HEX    H2J16966   8.266  17.306   4.684
    1HEX    H2K16967   8.126  17.286   4.485
    1HEX    H2M16968   8.198  17.423   4.408
    1STR    S0016969   8.960   0.016   3.572
    1STR    S0E16970   8.658   0.726   4.284
    1STR    S0M16971   8.470  16.748   4.124
    1STR    S0X16972   9.471  17.336   4.390
    1STR    S1416973   8.879   0.167   5.139
    1STR    S1B16974   8.028   0.055   4.560
    1HEX    C0116975   8.962  17.284   7.971
    1HEX    C0216976   8.927  17.334   8.113
    1HEX    C0316977   8.786  17.301   8.157
    1HEX    O0416978   8.741  17.187   8.149
    1HEX    O0516979   8.722  17.409   8.207
    1HEX    C0616980   8.586  17.399   8.246
    1HEX    C0716981   8.566  17.384   8.400
    1HEX    C0816982   8.565   0.087   8.467
    1HEX    O0916983   8.507   0.210   8.419
    1HEX    C0A16984   8.521   0.320   8.504
    1HEX    O0B16985   8.549   0.309   8.624
    1HEX    C0C16986   8.508   0.461   8.443
    1HEX    C0D16987   8.551   0.574   8.544
    1HEX    C0F16988   8.434  17.301   8.419
    1HEX    O0G16989   8.464  17.159   8.417
    1HEX    C0H16990   8.436  17.078   8.312
    1HEX    O0I16991   8.355  17.106   8.223
    1HEX    C0J16992   8.520  16.949   8.306
    1HEX    C0K16993   8.513  16.852   8.428
    1HEX    C0N16994   8.678  17.297   8.469
    1HEX    O0O16995   8.803  17.354   8.510
    1HEX    C0P16996   8.824  17.428   8.634
    1HEX    C0Q16997   8.778  17.374   8.774
    1HEX    C0R16998   8.835  17.231   8.796
    1HEX    O0S16999   8.977  17.222   8.770
    1HEX    C0T17000   9.069  17.224   8.871
    1HEX    O0U17001   9.043  17.244   8.989
    1HEX    C0V17002   9.212  17.192   8.826
    1HEX    C0W17003   9.298  17.314   8.784
    1HEX    C0Y17004   8.839   0.029   8.880
    1HEX    O0Z17005   8.798  17.434   9.011
    1HEX    C1017006   8.854   0.058   9.115
    1HEX    O1117007   8.942   0.143   9.108
    1HEX    C1217008   8.792   0.016   9.249
    1HEX    C1317009   8.880   0.047   9.372
    1HEX    C1517010   8.622  17.386   8.785
    1HEX    O1617011   8.552  17.340   8.902
    1HEX    C1717012   8.428  17.286   8.886
    1HEX    O1817013   8.390  17.227   8.785
    1HEX    C1917014   8.331  17.310   9.002
    1HEX    C1A17015   8.208  17.394   8.956
    1HEX    H1D17016   8.977  17.176   7.973
    1HEX    H1E17017   9.056  17.329   7.938
    1HEX    H1F17018   8.940   0.002   8.118
    1HEX    H1G17019   8.995  17.291   8.186
    1HEX    H1H17020   8.539  17.317   8.191
    1HEX    H1I17021   8.535   0.048   8.210
    1HEX    H1J17022   8.669   0.117   8.465
    1HEX    H1K17023   8.534   0.074   8.570
    1HEX    H1M17024   8.405   0.476   8.410
    1HEX    H1N17025   8.571   0.466   8.354
    1HEX    H1O17026   8.655   0.559   8.574
    1HEX    H1P17027   8.494   0.563   8.637
    1HEX    H1R17028   8.357  17.327   8.346
    1HEX    H1S17029   8.389  17.322   8.517
    1HEX    H1T17030   8.623  16.981   8.289
    1HEX    H1U17031   8.491  16.895   8.215
    1HEX    H1V17032   8.418  16.798   8.427
    1HEX    H1W17033   8.516  16.908   8.521
    1HEX    H1Y17034   8.706  17.220   8.397
    1HEX    H1Z17035   8.641  17.233   8.549
    1HEX    H2017036   8.792   0.091   8.624
    1HEX    H2117037   8.932  17.437   8.637
    1HEX    H2217038   8.785  17.161   8.729
    1HEX    H2317039   8.812  17.197   8.897
    1HEX    H2417040   9.207  17.118   8.745
    1HEX    H2517041   9.259  17.141   8.910
    1HEX    H2617042   9.242  17.407   8.799
    1HEX    H2717043   9.319  17.309   8.677
    1HEX    H2917044   8.809   0.133   8.861
    1HEX    H2A17045   8.948   0.029   8.874
    1HEX    H2B17046   8.767  17.350   9.245
    1HEX    H2C17047   8.697   0.070   9.255
    1HEX    H2D17048   8.945   0.132   9.351
    1HEX    H2E17049   8.947  17.404   9.394
    1HEX    H2G17050   8.574  17.344   8.699
    1HEX    H2H17051   8.597   0.052   8.780
    1HEX    H2I17052   8.384  17.359   9.084
    1HEX    H2J17053   8.300  17.212   9.038
    1HEX    H2K17054   8.207  17.402   8.847
    1HEX    H2M17055   8.213   0.056   8.993
    1STR    S0017056   8.836  17.319   7.844
    1STR    S0E17057   8.531   0.751   8.492
    1STR    S0M17058   8.652  16.727   8.429
    1STR    S0X17059   9.456  17.326   8.877
    1STR    S1417060   8.780   0.092   9.518
    1STR    S1B17061   8.046  17.321   9.003
    1HEX    C0117062   8.934  17.296  12.323
    1HEX    C0217063   8.925  17.350  12.468
    1HEX    C0317064   8.784  17.333  12.523
    1HEX    O0417065   8.729  17.223  12.520
    1HEX    O0517066   8.732   0.008  12.572
    1HEX    C0617067   8.592   0.015  12.596
    1HEX    C0717068   8.550  17.438  12.745
    1HEX    C0817069   8.571   0.133  12.823
    1HEX    O0917070   8.518   0.266  12.798
    1HEX    C0A17071   8.540   0.361  12.900
    1HEX    O0B17072   8.568   0.329  13.016
    1HEX    C0C17073   8.535   0.512  12.863
    1HEX    C0D17074   8.595   0.605  12.976
    1HEX    C0F17075   8.403  17.383  12.745
    1HEX    O0G17076   8.403  17.239  12.726
    1HEX    C0H17077   8.370  17.180  12.609
    1HEX    O0I17078   8.313  17.237  12.516
    1HEX    C0J17079   8.415  17.033  12.595
    1HEX    C0K17080   8.403  16.945  12.722
    1HEX    C0N17081   8.636  17.324  12.816
    1HEX    O0O17082   8.771  17.349  12.860
    1HEX    C0P17083   8.810  17.426  12.976
    1HEX    C0Q17084   8.772  17.382  13.120
    1HEX    C0R17085   8.836  17.241  13.146
    1HEX    O0S17086   8.977  17.234  13.110
    1HEX    C0T17087   9.079  17.248  13.200
    1HEX    O0U17088   9.065  17.274  13.319
    1HEX    C0V17089   9.221  17.223  13.143
    1HEX    C0W17090   9.317  17.347  13.136
    1HEX    C0Y17091   8.838   0.042  13.218
    1HEX    O0Z17092   8.793   0.007  13.347
    1HEX    C1017093   8.846   0.063  13.454
    1HEX    O1117094   8.935   0.148  13.456
    1HEX    C1217095   8.777   0.011  13.579
    1HEX    C1317096   8.845   0.056  13.708
    1HEX    C1517097   8.615  17.400  13.139
    1HEX    O1617098   8.534  17.341  13.242
    1HEX    C1717099   8.421  17.275  13.202
    1HEX    O1817100   8.419  17.194  13.110
    1HEX    C1917101   8.289  17.318  13.270
    1HEX    C1A17102   8.188  17.374  13.165
    1HEX    H1D17103   9.031  17.251  12.305
    1HEX    H1E17104   8.861  17.216  12.309
    1HEX    H1F17105   8.956   0.014  12.474
    1HEX    H1G17106   8.990  17.293  12.533
    1HEX    H1H17107   8.542  17.382  12.532
    1HEX    H1I17108   8.557   0.111  12.559
    1HEX    H1J17109   8.677   0.154  12.811
    1HEX    H1K17110   8.551   0.111  12.927
    1HEX    H1M17111   8.431   0.538  12.841
    1HEX    H1N17112   8.591   0.526  12.770
    1HEX    H1O17113   8.701   0.585  12.987
    1HEX    H1P17114   8.552   0.576  13.072
    1HEX    H1R17115   8.341  17.433  12.670
    1HEX    H1S17116   8.354  17.402  12.840
    1HEX    H1T17117   8.518  17.034  12.560
    1HEX    H1U17118   8.356  16.990  12.514
    1HEX    H1V17119   8.306  16.963  12.769
    1HEX    H1W17120   8.478  16.974  12.795
    1HEX    H1Y17121   8.647  17.244  12.744
    1HEX    H1Z17122   8.580  17.268  12.891
    1HEX    H2017123   8.788   0.092  12.965
    1HEX    H2117124   8.918  17.425  12.969
    1HEX    H2217125   8.783  17.166  13.088
    1HEX    H2317126   8.822  17.212  13.251
    1HEX    H2417127   9.212  17.175  13.045
    1HEX    H2517128   9.266  17.149  13.209
    1HEX    H2617129   9.318  17.399  13.232
    1HEX    H2717130   9.279  17.419  13.063
    1HEX    H2917131   8.810   0.145  13.197
    1HEX    H2A17132   8.947   0.039  13.212
    1HEX    H2B17133   8.777  17.342  13.572
    1HEX    H2C17134   8.674   0.044  13.576
    1HEX    H2D17135   8.839   0.164  13.718
    1HEX    H2E17136   8.951   0.031  13.708
    1HEX    H2G17137   8.564  17.382  13.048
    1HEX    H2H17138   8.598   0.067  13.152
    1HEX    H2I17139   8.309  17.390  13.350
    1HEX    H2J17140   8.247  17.229  13.317
    1HEX    H2K17141   8.204  17.323  13.070
    1HEX    H2M17142   8.209   0.039  13.144
    1STR    S0017143   8.902  17.421  12.195
    1STR    S0E17144   8.570   0.790  12.966
    1STR    S0M17145   8.415  16.764  12.685
    1STR    S0X17146   9.491  17.302  13.090
    1STR    S1417147   8.763  17.412  13.848
    1STR    S1B17148   8.007  17.361  13.203
    1HEX    C0117149   8.886   4.199  16.666
    1HEX    C0217150   8.899   4.251  16.811
    1HEX    C0317151   8.771   4.223  16.888
    1HEX    O0417152   8.726   4.109  16.896
    1HEX    O0517153   8.714   4.334  16.939
    1HEX    C0617154   8.578   4.330  16.980
    1HEX    C0717155   8.555   4.323  17.134
    1HEX    C0817156   8.578   4.465  17.197
    1HEX    O0917157   8.515   4.591  17.163
    1HEX    C0A17158   8.536   4.696  17.253
    1HEX    O0B17159   8.562   4.680  17.372
    1HEX    C0C17160   8.531   4.839  17.194
    1HEX    C0D17161   8.503   4.956  17.297
    1HEX    C0F17162   8.412   4.262  17.156
    1HEX    O0G17163   8.419   4.118  17.166
    1HEX    C0H17164   8.370   4.033  17.073
    1HEX    O0I17165   8.292   4.064  16.983
    1HEX    C0J17166   8.430   3.891  17.082
    1HEX    C0K17167   8.371   3.795  17.189
    1HEX    C0N17168   8.657   4.222  17.203
    1HEX    O0O17169   8.788   4.266  17.243
    1HEX    C0P17170   8.817   4.345  17.361
    1HEX    C0Q17171   8.777   4.297   0.065
    1HEX    C0R17172   8.840   4.156   0.087
    1HEX    O0S17173   8.983   4.152   0.058
    1HEX    C0T17174   9.078   4.159   0.157
    1HEX    O0U17175   9.053   4.175   0.276
    1HEX    C0V17176   9.224   4.139   0.109
    1HEX    C0W17177   9.285   4.249   0.017
    1HEX    C0Y17178   8.840   4.396   0.166
    1HEX    O0Z17179   8.800   4.367   0.299
    1HEX    C1017180   8.851   4.441   0.399
    1HEX    O1117181   8.935   4.530   0.386
    1HEX    C1217182   8.792   4.406   0.536
    1HEX    C1317183   8.897   4.396   0.649
    1HEX    C1517184   8.620   4.311   0.081
    1HEX    O1617185   8.545   4.257   0.190
    1HEX    C1717186   8.427   4.193   0.160
    1HEX    O1817187   8.412   4.119   0.063
    1HEX    C1917188   8.308   4.226   0.251
    1HEX    C1A17189   8.194   4.297   0.170
    1HEX    H1D17190   8.964   4.125  16.645
    1HEX    H1E17191   8.792   4.147  16.653
    1HEX    H1F17192   8.922   4.357  16.815
    1HEX    H1G17193   8.980   4.199  16.863
    1HEX    H1H17194   8.527   4.246  16.930
    1HEX    H1I17195   8.529   4.418  16.939
    1HEX    H1J17196   8.682   4.489  17.176
    1HEX    H1K17197   8.566   4.453  17.304
    1HEX    H1M17198   8.454   4.840  17.117
    1HEX    H1N17199   8.625   4.857  17.143
    1HEX    H1O17200   8.471   4.914  17.392
    1HEX    H1P17201   8.418   5.016  17.263
    1HEX    H1R17202   8.342   4.294  17.078
    1HEX    H1S17203   8.369   4.299  17.249
    1HEX    H1T17204   8.537   3.905  17.100
    1HEX    H1U17205   8.422   3.846  16.983
    1HEX    H1V17206   8.273   3.758  17.158
    1HEX    H1W17207   8.357   3.845  17.284
    1HEX    H1Y17208   8.674   4.142  17.132
    1HEX    H1Z17209   8.614   4.163  17.283
    1HEX    H2017210   8.787   4.449  17.349
    1HEX    H2117211   8.925   4.352  17.358
    1HEX    H2217212   8.791   4.084   0.021
    1HEX    H2317213   8.820   4.121   0.188
    1HEX    H2417214   9.227   4.043   0.058
    1HEX    H2517215   9.287   4.126   0.198
    1HEX    H2617216   9.206   4.320  17.434
    1HEX    H2717217   9.314   4.205  17.362
    1HEX    H2917218   8.812   4.499   0.143
    1HEX    H2A17219   8.949   4.394   0.159
    1HEX    H2B17220   8.738   4.311   0.527
    1HEX    H2C17221   8.717   4.482   0.557
    1HEX    H2D17222   8.994   4.428   0.611
    1HEX    H2E17223   8.909   4.293   0.682
    1HEX    H2G17224   8.568   4.284  17.431
    1HEX    H2H17225   8.599   4.418   0.087
    1HEX    H2I17226   8.340   4.286   0.336
    1HEX    H2J17227   8.271   4.132   0.291
    1HEX    H2K17228   8.184   4.249   0.072
    1HEX    H2M17229   8.222   4.400   0.150
    1STR    S0017230   8.891   4.329  16.540
    1STR    S0E17231   8.642   5.073  17.336
    1STR    S0M17232   8.483   3.650  17.212
    1STR    S0X17233   9.428   4.348   0.079
    1STR    S1417234   8.861   4.503   0.794
    1STR    S1B17235   8.028   4.298   0.248
    1HEX    C0117236   8.952   4.265   3.601
    1HEX    C0217237   8.916   4.244   3.751
    1HEX    C0317238   8.769   4.228   3.783
    1HEX    O0417239   8.711   4.120   3.767
    1HEX    O0517240   8.717   4.338   3.839
    1HEX    C0617241   8.581   4.339   3.879
    1HEX    C0717242   8.561   4.317   4.032
    1HEX    C0817243   8.563   4.456   4.105
    1HEX    O0917244   8.505   4.583   4.065
    1HEX    C0A17245   8.521   4.688   4.156
    1HEX    O0B17246   8.549   4.670   4.275
    1HEX    C0C17247   8.508   4.833   4.104
    1HEX    C0D17248   8.537   4.941   4.215
    1HEX    C0F17249   8.428   4.233   4.048
    1HEX    O0G17250   8.459   4.091   4.041
    1HEX    C0H17251   8.423   4.011   3.938
    1HEX    O0I17252   8.337   4.039   3.855
    1HEX    C0J17253   8.506   3.881   3.926
    1HEX    C0K17254   8.504   3.780   4.046
    1HEX    C0N17255   8.673   4.224   4.096
    1HEX    O0O17256   8.800   4.277   4.137
    1HEX    C0P17257   8.824   4.346   4.261
    1HEX    C0Q17258   8.778   4.291   4.401
    1HEX    C0R17259   8.836   4.148   4.423
    1HEX    O0S17260   8.977   4.137   4.394
    1HEX    C0T17261   9.072   4.143   4.492
    1HEX    O0U17262   9.051   4.171   4.609
    1HEX    C0V17263   9.213   4.102   4.446
    1HEX    C0W17264   9.313   4.219   4.419
    1HEX    C0Y17265   8.840   4.387   4.505
    1HEX    O0Z17266   8.798   4.356   4.636
    1HEX    C1017267   8.853   4.421   4.739
    1HEX    O1117268   8.945   4.502   4.732
    1HEX    C1217269   8.785   4.386   4.871
    1HEX    C1317270   8.871   4.415   4.995
    1HEX    C1517271   8.621   4.303   4.415
    1HEX    O1617272   8.547   4.238   4.519
    1HEX    C1717273   8.423   4.186   4.488
    1HEX    O1817274   8.389   4.145   4.377
    1HEX    C1917275   8.321   4.186   4.603
    1HEX    C1A17276   8.188   4.261   4.568
    1HEX    H1D17277   9.032   4.196   3.577
    1HEX    H1E17278   8.991   4.366   3.586
    1HEX    H1F17279   8.955   4.326   3.811
    1HEX    H1G17280   8.964   4.154   3.788
    1HEX    H1H17281   8.525   4.265   3.820
    1HEX    H1I17282   8.538   4.434   3.849
    1HEX    H1J17283   8.667   4.485   4.103
    1HEX    H1K17284   8.532   4.441   4.208
    1HEX    H1M17285   8.409   4.847   4.061
    1HEX    H1N17286   8.580   4.845   4.022
    1HEX    H1O17287   8.636   4.924   4.259
    1HEX    H1P17288   8.467   4.927   4.298
    1HEX    H1R17289   8.352   4.261   3.975
    1HEX    H1S17290   8.383   4.251   4.145
    1HEX    H1T17291   8.609   3.913   3.907
    1HEX    H1U17292   8.474   3.830   3.835
    1HEX    H1V17293   8.407   3.729   4.049
    1HEX    H1W17294   8.513   3.834   4.140
    1HEX    H1Y17295   8.698   4.149   4.022
    1HEX    H1Z17296   8.636   4.158   4.175
    1HEX    H2017297   8.795   4.451   4.254
    1HEX    H2117298   8.932   4.352   4.264
    1HEX    H2217299   8.784   4.078   4.358
    1HEX    H2317300   8.815   4.115   4.525
    1HEX    H2417301   9.206   4.035   4.360
    1HEX    H2517302   9.252   4.042   4.528
    1HEX    H2617303   9.289   4.306   4.480
    1HEX    H2717304   9.306   4.250   4.315
    1HEX    H2917305   8.812   4.491   4.485
    1HEX    H2A17306   8.949   4.385   4.500
    1HEX    H2B17307   8.756   4.282   4.868
    1HEX    H2C17308   8.694   4.446   4.873
    1HEX    H2D17309   8.925   4.509   4.987
    1HEX    H2E17310   8.947   4.337   5.006
    1HEX    H2G17311   8.575   4.274   4.322
    1HEX    H2H17312   8.596   4.408   4.424
    1HEX    H2I17313   8.369   4.237   4.687
    1HEX    H2J17314   8.301   4.084   4.635
    1HEX    H2K17315   8.205   4.332   4.487
    1HEX    H2M17316   8.155   4.320   4.653
    1STR    S0017317   8.825   4.236   3.474
    1STR    S0E17318   8.527   5.119   4.165
    1STR    S0M17319   8.638   3.652   4.036
    1STR    S0X17320   9.486   4.166   4.455
    1STR    S1417321   8.761   4.420   5.140
    1STR    S1B17322   8.046   4.155   4.518
    1HEX    C0117323   9.009   4.233   8.040
    1HEX    C0217324   8.939   4.326   8.141
    1HEX    C0317325   8.792   4.292   8.163
    1HEX    O0417326   8.747   4.179   8.141
    1HEX    O0517327   8.723   4.396   8.213
    1HEX    C0617328   8.583   4.384   8.234
    1HEX    C0717329   8.546   4.360   8.383
    1HEX    C0817330   8.563   4.494   8.464
    1HEX    O0917331   8.517   4.627   8.433
    1HEX    C0A17332   8.545   4.725   8.530
    1HEX    O0B17333   8.575   4.696   8.646
    1HEX    C0C17334   8.544   4.875   8.488
    1HEX    C0D17335   8.608   4.969   8.597
    1HEX    C0F17336   8.400   4.301   8.386
    1HEX    O0G17337   8.402   4.157   8.370
    1HEX    C0H17338   8.365   4.095   8.256
    1HEX    O0I17339   8.308   4.150   8.162
    1HEX    C0J17340   8.403   3.945   8.248
    1HEX    C0K17341   8.372   3.861   8.375
    1HEX    C0N17342   8.638   4.248   8.449
    1HEX    O0O17343   8.770   4.276   8.501
    1HEX    C0P17344   8.803   4.348   8.622
    1HEX    C0Q17345   8.765   4.297   8.766
    1HEX    C0R17346   8.835   4.160   8.791
    1HEX    O0S17347   8.976   4.159   8.757
    1HEX    C0T17348   9.076   4.171   8.851
    1HEX    O0U17349   9.057   4.193   8.970
    1HEX    C0V17350   9.219   4.149   8.797
    1HEX    C0W17351   9.312   4.274   8.808
    1HEX    C0Y17352   8.822   4.399   8.867
    1HEX    O0Z17353   8.791   4.361   8.999
    1HEX    C1017354   8.848   4.427   9.101
    1HEX    O1117355   8.925   4.522   9.090
    1HEX    C1217356   8.806   4.372   9.237
    1HEX    C1317357   8.912   4.404   9.344
    1HEX    C1517358   8.608   4.303   8.776
    1HEX    O1617359   8.525   4.271   8.889
    1HEX    C1717360   8.404   4.212   8.862
    1HEX    O1817361   8.388   4.121   8.780
    1HEX    C1917362   8.281   4.272   8.932
    1HEX    C1A17363   8.179   4.331   8.828
    1HEX    H1D17364   9.116   4.234   8.060
    1HEX    H1E17365   8.978   4.131   8.059
    1HEX    H1F17366   8.949   4.431   8.114
    1HEX    H1G17367   8.984   4.314   8.240
    1HEX    H1H17368   8.541   4.305   8.171
    1HEX    H1I17369   8.535   4.475   8.198
    1HEX    H1J17370   8.670   4.512   8.460
    1HEX    H1K17371   8.534   4.472   8.566
    1HEX    H1M17372   8.441   4.903   8.467
    1HEX    H1N17373   8.599   4.884   8.394
    1HEX    H1O17374   8.715   4.951   8.604
    1HEX    H1P17375   8.569   4.940   8.695
    1HEX    H1R17376   8.335   4.349   8.312
    1HEX    H1S17377   8.352   4.321   8.482
    1HEX    H1T17378   8.509   3.938   8.224
    1HEX    H1U17379   8.350   3.903   8.163
    1HEX    H1V17380   8.272   3.888   8.410
    1HEX    H1W17381   8.440   3.887   8.456
    1HEX    H1Y17382   8.657   4.176   8.369
    1HEX    H1Z17383   8.584   4.181   8.514
    1HEX    H2017384   8.779   4.453   8.616
    1HEX    H2117385   8.912   4.350   8.618
    1HEX    H2217386   8.786   4.083   8.729
    1HEX    H2317387   8.820   4.128   8.894
    1HEX    H2417388   9.214   4.112   8.695
    1HEX    H2517389   9.262   4.069   8.857
    1HEX    H2617390   9.315   4.309   8.911
    1HEX    H2717391   9.271   4.356   8.749
    1HEX    H2917392   8.784   4.500   8.849
    1HEX    H2A17393   8.931   4.406   8.856
    1HEX    H2B17394   8.795   4.264   9.226
    1HEX    H2C17395   8.709   4.413   9.263
    1HEX    H2D17396   8.913   4.511   9.365
    1HEX    H2E17397   9.011   4.379   9.306
    1HEX    H2G17398   8.567   4.248   8.694
    1HEX    H2H17399   8.580   4.407   8.758
    1HEX    H2I17400   8.311   4.347   9.006
    1HEX    H2J17401   8.234   4.191   8.988
    1HEX    H2K17402   8.185   4.274   8.735
    1HEX    H2M17403   8.208   4.433   8.802
    1STR    S0017404   8.990   4.271   7.861
    1STR    S0E17405   8.579   5.154   8.589
    1STR    S0M17406   8.372   3.679   8.348
    1STR    S0X17407   9.486   4.245   8.750
    1STR    S1417408   8.885   4.311   9.499
    1STR    S1B17409   8.001   4.333   8.876
    1HEX    C0117410   8.944   4.199  12.344
    1HEX    C0217411   8.929   4.231  12.495
    1HEX    C0317412   8.787   4.205  12.543
    1HEX    O0417413   8.741   4.090  12.542
    1HEX    O0517414   8.723   4.316  12.585
    1HEX    C0617415   8.586   4.307  12.624
    1HEX    C0717416   8.565   4.302  12.778
    1HEX    C0817417   8.580   4.447  12.837
    1HEX    O0917418   8.515   4.570  12.798
    1HEX    C0A17419   8.523   4.674  12.890
    1HEX    O0B17420   8.529   4.657  13.012
    1HEX    C0C17421   8.534   4.817  12.833
    1HEX    C0D17422   8.537   4.933  12.940
    1HEX    C0F17423   8.426   4.233  12.805
    1HEX    O0G17424   8.441   4.090  12.822
    1HEX    C0H17425   8.406   3.999  12.728
    1HEX    O0I17426   8.335   4.025  12.631
    1HEX    C0J17427   8.468   3.858  12.745
    1HEX    C0K17428   8.461   3.790  12.886
    1HEX    C0N17429   8.671   4.211  12.851
    1HEX    O0O17430   8.799   4.264  12.888
    1HEX    C0P17431   8.823   4.343  13.006
    1HEX    C0Q17432   8.777   4.297  13.149
    1HEX    C0R17433   8.828   4.152  13.174
    1HEX    O0S17434   8.968   4.137  13.145
    1HEX    C0T17435   9.063   4.142  13.242
    1HEX    O0U17436   9.042   4.165  13.361
    1HEX    C0V17437   9.205   4.110  13.192
    1HEX    C0W17438   9.297   4.233  13.171
    1HEX    C0Y17439   8.843   4.392  13.251
    1HEX    O0Z17440   8.801   4.360  13.383
    1HEX    C1017441   8.852   4.428  13.487
    1HEX    O1117442   8.938   4.516  13.478
    1HEX    C1217443   8.789   4.388  13.620
    1HEX    C1317444   8.883   4.404  13.742
    1HEX    C1517445   8.622   4.317  13.163
    1HEX    O1617446   8.552   4.276  13.280
    1HEX    C1717447   8.434   4.210  13.264
    1HEX    O1817448   8.412   4.127  13.176
    1HEX    C1917449   8.321   4.257  13.356
    1HEX    C1A17450   8.207   4.321  13.272
    1HEX    H1D17451   9.038   4.149  12.325
    1HEX    H1E17452   8.866   4.130  12.312
    1HEX    H1F17453   8.959   4.333  12.519
    1HEX    H1G17454   8.993   4.165  12.553
    1HEX    H1H17455   8.539   4.221  12.575
    1HEX    H1I17456   8.534   4.393  12.582
    1HEX    H1J17457   8.684   4.474  12.818
    1HEX    H1K17458   8.566   4.437  12.943
    1HEX    H1M17459   8.453   4.834  12.762
    1HEX    H1N17460   8.627   4.819  12.775
    1HEX    H1O17461   8.561   4.896  13.040
    1HEX    H1P17462   8.438   4.976  12.949
    1HEX    H1R17463   8.353   4.256  12.726
    1HEX    H1S17464   8.380   4.271  12.896
    1HEX    H1T17465   8.571   3.866  12.712
    1HEX    H1U17466   8.419   3.794  12.672
    1HEX    H1V17467   8.359   3.786  12.922
    1HEX    H1W17468   8.518   3.848  12.959
    1HEX    H1Y17469   8.692   4.128  12.784
    1HEX    H1Z17470   8.632   4.155  12.935
    1HEX    H2017471   8.793   4.447  12.992
    1HEX    H2117472   8.932   4.350  13.008
    1HEX    H2217473   8.773   4.082  13.110
    1HEX    H2317474   8.805   4.121  13.276
    1HEX    H2417475   9.198   4.049  13.102
    1HEX    H2517476   9.247   4.044  13.269
    1HEX    H2617477   9.252   4.324  13.210
    1HEX    H2717478   9.312   4.248  13.064
    1HEX    H2917479   8.817   4.496  13.231
    1HEX    H2A17480   8.952   4.388  13.246
    1HEX    H2B17481   8.753   4.285  13.613
    1HEX    H2C17482   8.700   4.451  13.630
    1HEX    H2D17483   8.965   4.470  13.717
    1HEX    H2E17484   8.927   4.308  13.769
    1HEX    H2G17485   8.569   4.277  13.078
    1HEX    H2H17486   8.602   4.424  13.158
    1HEX    H2I17487   8.360   4.326  13.431
    1HEX    H2J17488   8.284   4.169  13.409
    1HEX    H2K17489   8.184   4.257  13.188
    1HEX    H2M17490   8.238   4.417  13.230
    1STR    S0017491   8.939   4.352  12.244
    1STR    S0E17492   8.658   5.069  12.905
    1STR    S0M17493   8.529   3.617  12.879
    1STR    S0X17494   9.462   4.209  13.250
    1STR    S1417495   8.798   4.477  13.886
    1STR    S1B17496   8.051   4.344  13.365
    1HEX    C0117497   8.934   8.501  16.719
    1HEX    C0217498   8.910   8.567  16.857
    1HEX    C0317499   8.762   8.573  16.891
    1HEX    O0417500   8.693   8.471  16.882
    1HEX    O0517501   8.721   8.694  16.935
    1HEX    C0617502   8.583   8.714  16.965
    1HEX    C0717503   8.546   8.701  17.115
    1HEX    C0817504   8.562   8.841  17.189
    1HEX    O0917505   8.507   8.972  17.159
    1HEX    C0A17506   8.528   9.070  17.258
    1HEX    O0B17507   8.561   9.042  17.374
    1HEX    C0C17508   8.516   9.221  17.219
    1HEX    C0D17509   8.564   9.318  17.335
    1HEX    C0F17510   8.403   8.635  17.121
    1HEX    O0G17511   8.417   8.492  17.101
    1HEX    C0H17512   8.352   8.422  17.006
    1HEX    O0I17513   8.258   8.466  16.940
    1HEX    C0J17514   8.412   8.283  16.977
    1HEX    C0K17515   8.411   8.177  17.091
    1HEX    C0N17516   8.639   8.595  17.190
    1HEX    O0O17517   8.774   8.629  17.227
    1HEX    C0P17518   8.810   8.706  17.343
    1HEX    C0Q17519   8.773   8.658   0.047
    1HEX    C0R17520   8.835   8.517   0.071
    1HEX    O0S17521   8.975   8.507   0.032
    1HEX    C0T17522   9.079   8.519   0.121
    1HEX    O0U17523   9.066   8.547   0.240
    1HEX    C0V17524   9.218   8.485   0.064
    1HEX    C0W17525   9.316   8.605   0.044
    1HEX    C0Y17526   8.843   8.757   0.144
    1HEX    O0Z17527   8.800   8.725   0.274
    1HEX    C1017528   8.851   8.789   0.378
    1HEX    O1117529   8.940   8.874   0.376
    1HEX    C1217530   8.779   8.747   0.505
    1HEX    C1317531   8.848   8.795   0.633
    1HEX    C1517532   8.618   8.677   0.071
    1HEX    O1617533   8.538   8.607   0.168
    1HEX    C1717534   8.423   8.547   0.123
    1HEX    O1817535   8.415   8.486   0.016
    1HEX    C1917536   8.296   8.568   0.208
    1HEX    C1A17537   8.188   8.650   0.129
    1HEX    H1D17538   9.016   8.430  16.726
    1HEX    H1E17539   8.847   8.445  16.685
    1HEX    H1F17540   8.953   8.668  16.861
    1HEX    H1G17541   8.958   8.509  16.935
    1HEX    H1H17542   8.524   8.645  16.904
    1HEX    H1I17543   8.555   8.812  16.928
    1HEX    H1J17544   8.668   8.863  17.177
    1HEX    H1K17545   8.540   8.823  17.293
    1HEX    H1M17546   8.413   9.241  17.192
    1HEX    H1N17547   8.577   9.237  17.130
    1HEX    H1O17548   8.670   9.302  17.355
    1HEX    H1P17549   8.514   9.290  17.428
    1HEX    H1R17550   8.335   8.680  17.048
    1HEX    H1S17551   8.356   8.650  17.218
    1HEX    H1T17552   8.515   8.300  16.946
    1HEX    H1U17553   8.361   8.243  16.889
    1HEX    H1V17554   8.308   8.151  17.119
    1HEX    H1W17555   8.458   8.217  17.181
    1HEX    H1Y17556   8.652   8.511  17.122
    1HEX    H1Z17557   8.588   8.542  17.270
    1HEX    H2017558   8.783   8.811  17.333
    1HEX    H2117559   8.919   8.708  17.336
    1HEX    H2217560   8.779   8.444   0.012
    1HEX    H2317561   8.822   8.487   0.175
    1HEX    H2417562   9.206   8.428  17.412
    1HEX    H2517563   9.262   8.417   0.136
    1HEX    H2617564   9.314   8.672   0.130
    1HEX    H2717565   9.286   8.664  17.397
    1HEX    H2917566   8.816   8.861   0.122
    1HEX    H2A17567   8.952   8.753   0.137
    1HEX    H2B17568   8.772   8.638   0.504
    1HEX    H2C17569   8.678   8.786   0.498
    1HEX    H2D17570   8.863   8.903   0.632
    1HEX    H2E17571   8.946   8.750   0.643
    1HEX    H2G17572   8.565   8.669  17.418
    1HEX    H2H17573   8.601   8.783   0.094
    1HEX    H2I17574   8.322   8.615   0.303
    1HEX    H2J17575   8.257   8.469   0.232
    1HEX    H2K17576   8.206   8.641   0.022
    1HEX    H2M17577   8.200   8.755   0.152
    1STR    S0017578   8.977   8.624  16.593
    1STR    S0E17579   8.537   9.502  17.317
    1STR    S0M17580   8.501   8.023  17.039
    1STR    S0X17581   9.491   8.548   0.018
    1STR    S1417582   8.743   8.747   0.773
    1STR    S1B17583   8.010   8.606   0.158
    1HEX    C0117584   8.955   8.566   3.688
    1HEX    C0217585   8.888   8.534   3.823
    1HEX    C0317586   8.738   8.554   3.826
    1HEX    O0417587   8.661   8.460   3.805
    1HEX    O0517588   8.703   8.678   3.868
    1HEX    C0617589   8.566   8.706   3.897
    1HEX    C0717590   8.534   8.700   4.050
    1HEX    C0817591   8.561   8.840   4.116
    1HEX    O0917592   8.511   8.970   4.079
    1HEX    C0A17593   8.541   9.076   4.167
    1HEX    O0B17594   8.568   9.059   4.286
    1HEX    C0C17595   8.546   9.218   4.106
    1HEX    C0D17596   8.512   9.339   4.203
    1HEX    C0F17597   8.387   8.647   4.064
    1HEX    O0G17598   8.387   8.502   4.067
    1HEX    C0H17599   8.345   8.425   3.965
    1HEX    O0I17600   8.273   8.463   3.872
    1HEX    C0J17601   8.404   8.282   3.967
    1HEX    C0K17602   8.331   8.178   4.057
    1HEX    C0N17603   8.625   8.592   4.125
    1HEX    O0O17604   8.760   8.624   4.164
    1HEX    C0P17605   8.796   8.705   4.279
    1HEX    C0Q17606   8.759   8.662   4.425
    1HEX    C0R17607   8.816   8.519   4.450
    1HEX    O0S17608   8.954   8.505   4.406
    1HEX    C0T17609   9.062   8.515   4.490
    1HEX    O0U17610   9.056   8.540   4.610
    1HEX    C0V17611   9.199   8.488   4.422
    1HEX    C0W17612   9.320   8.566   4.486
    1HEX    C0Y17613   8.830   8.761   4.521
    1HEX    O0Z17614   8.797   8.737   4.657
    1HEX    C1017615   8.856   8.810   4.753
    1HEX    O1117616   8.941   8.897   4.733
    1HEX    C1217617   8.806   8.778   4.894
    1HEX    C1317618   8.920   8.745   4.993
    1HEX    C1517619   8.604   8.686   4.445
    1HEX    O1617620   8.527   8.634   4.554
    1HEX    C1717621   8.410   8.570   4.523
    1HEX    O1817622   8.396   8.491   4.429
    1HEX    C1917623   8.287   8.611   4.606
    1HEX    C1A17624   8.182   8.686   4.518
    1HEX    H1D17625   9.058   8.528   3.691
    1HEX    H1E17626   8.961   8.674   3.674
    1HEX    H1F17627   8.931   8.597   3.901
    1HEX    H1G17628   8.908   8.431   3.852
    1HEX    H1H17629   8.502   8.638   3.840
    1HEX    H1I17630   8.542   8.804   3.857
    1HEX    H1J17631   8.667   8.856   4.100
    1HEX    H1K17632   8.544   8.829   4.223
    1HEX    H1M17633   8.476   9.218   4.023
    1HEX    H1N17634   8.645   9.233   4.062
    1HEX    H1O17635   8.459   9.298   4.289
    1HEX    H1P17636   8.441   9.406   4.155
    1HEX    H1R17637   8.321   8.685   3.985
    1HEX    H1S17638   8.342   8.681   4.157
    1HEX    H1T17639   8.508   8.292   3.996
    1HEX    H1U17640   8.407   8.246   3.864
    1HEX    H1V17641   8.269   8.113   3.994
    1HEX    H1W17642   8.263   8.228   4.126
    1HEX    H1Y17643   8.635   8.508   4.057
    1HEX    H1Z17644   8.574   8.540   4.205
    1HEX    H2017645   8.772   8.810   4.266
    1HEX    H2117646   8.905   8.705   4.273
    1HEX    H2217647   8.756   8.447   4.395
    1HEX    H2317648   8.806   8.492   4.555
    1HEX    H2417649   9.190   8.506   4.316
    1HEX    H2517650   9.218   8.381   4.434
    1HEX    H2617651   9.283   8.657   4.535
    1HEX    H2717652   9.360   8.505   4.566
    1HEX    H2917653   8.804   8.864   4.497
    1HEX    H2A17654   8.938   8.756   4.509
    1HEX    H2B17655   8.736   8.695   4.888
    1HEX    H2C17656   8.748   8.864   4.928
    1HEX    H2D17657   9.016   8.763   4.944
    1HEX    H2E17658   8.918   8.640   5.019
    1HEX    H2G17659   8.550   8.663   4.355
    1HEX    H2H17660   8.588   8.793   4.451
    1HEX    H2I17661   8.318   8.672   4.692
    1HEX    H2J17662   8.244   8.520   4.647
    1HEX    H2K17663   8.193   8.658   4.414
    1HEX    H2M17664   8.199   8.794   4.522
    1STR    S0017665   8.881   8.494   3.539
    1STR    S0E17666   8.648   9.445   4.272
    1STR    S0M17667   8.449   8.074   4.153
    1STR    S0X17668   9.463   8.618   4.380
    1STR    S1417669   8.922   8.846   5.146
    1STR    S1B17670   8.005   8.653   4.558
    1HEX    C0117671   8.958   8.588   7.965
    1HEX    C0217672   8.918   8.626   8.109
    1HEX    C0317673   8.777   8.587   8.151
    1HEX    O0417674   8.736   8.471   8.141
    1HEX    O0517675   8.709   8.691   8.203
    1HEX    C0617676   8.575   8.676   8.247
    1HEX    C0717677   8.560   8.665   8.401
    1HEX    C0817678   8.565   8.809   8.465
    1HEX    O0917679   8.499   8.931   8.424
    1HEX    C0A17680   8.515   9.040   8.511
    1HEX    O0B17681   8.552   9.028   8.628
    1HEX    C0C17682   8.489   9.184   8.457
    1HEX    C0D17683   8.534   9.295   8.559
    1HEX    C0F17684   8.429   8.582   8.429
    1HEX    O0G17685   8.457   8.440   8.433
    1HEX    C0H17686   8.421   8.354   8.335
    1HEX    O0I17687   8.341   8.382   8.245
    1HEX    C0J17688   8.493   8.217   8.336
    1HEX    C0K17689   8.512   8.143   8.473
    1HEX    C0N17690   8.676   8.577   8.466
    1HEX    O0O17691   8.801   8.636   8.505
    1HEX    C0P17692   8.821   8.708   8.629
    1HEX    C0Q17693   8.777   8.653   8.769
    1HEX    C0R17694   8.834   8.510   8.790
    1HEX    O0S17695   8.976   8.500   8.764
    1HEX    C0T17696   9.068   8.502   8.864
    1HEX    O0U17697   9.044   8.526   8.982
    1HEX    C0V17698   9.210   8.465   8.819
    1HEX    C0W17699   9.304   8.585   8.786
    1HEX    C0Y17700   8.838   8.748   8.874
    1HEX    O0Z17701   8.798   8.714   9.006
    1HEX    C1017702   8.855   8.777   9.109
    1HEX    O1117703   8.944   8.862   9.101
    1HEX    C1217704   8.792   8.737   9.243
    1HEX    C1317705   8.879   8.770   9.366
    1HEX    C1517706   8.620   8.664   8.783
    1HEX    O1617707   8.551   8.609   8.896
    1HEX    C1717708   8.426   8.556   8.876
    1HEX    O1817709   8.387   8.505   8.771
    1HEX    C1917710   8.330   8.572   8.994
    1HEX    C1A17711   8.201   8.650   8.955
    1HEX    H1D17712   8.992   8.484   7.963
    1HEX    H1E17713   9.041   8.650   7.933
    1HEX    H1F17714   8.927   8.733   8.123
    1HEX    H1G17715   8.986   8.579   8.180
    1HEX    H1H17716   8.529   8.590   8.196
    1HEX    H1I17717   8.519   8.762   8.210
    1HEX    H1J17718   8.669   8.840   8.454
    1HEX    H1K17719   8.544   8.797   8.570
    1HEX    H1M17720   8.384   9.194   8.432
    1HEX    H1N17721   8.545   9.195   8.364
    1HEX    H1O17722   8.642   9.288   8.573
    1HEX    H1P17723   8.492   9.273   8.657
    1HEX    H1R17724   8.350   8.606   8.357
    1HEX    H1S17725   8.387   8.609   8.526
    1HEX    H1T17726   8.589   8.232   8.288
    1HEX    H1U17727   8.436   8.152   8.269
    1HEX    H1V17728   8.419   8.141   8.529
    1HEX    H1W17729   8.584   8.197   8.535
    1HEX    H1Y17730   8.702   8.501   8.392
    1HEX    H1Z17731   8.643   8.513   8.547
    1HEX    H2017732   8.787   8.811   8.620
    1HEX    H2117733   8.930   8.718   8.631
    1HEX    H2217734   8.784   8.440   8.724
    1HEX    H2317735   8.812   8.475   8.891
    1HEX    H2417736   9.205   8.395   8.736
    1HEX    H2517737   9.252   8.409   8.903
    1HEX    H2617738   9.260   8.679   8.818
    1HEX    H2717739   9.316   8.592   8.678
    1HEX    H2917740   8.809   8.852   8.855
    1HEX    H2A17741   8.947   8.747   8.868
    1HEX    H2B17742   8.769   8.630   9.240
    1HEX    H2C17743   8.697   8.790   9.247
    1HEX    H2D17744   8.937   8.861   9.348
    1HEX    H2E17745   8.952   8.691   9.383
    1HEX    H2G17746   8.572   8.626   8.694
    1HEX    H2H17747   8.594   8.770   8.783
    1HEX    H2I17748   8.382   8.622   9.074
    1HEX    H2J17749   8.305   8.472   9.030
    1HEX    H2K17750   8.209   8.687   8.852
    1HEX    H2M17751   8.189   8.739   9.017
    1STR    S0017752   8.827   8.602   7.838
    1STR    S0E17753   8.491   9.473   8.527
    1STR    S0M17754   8.572   7.969   8.448
    1STR    S0X17755   9.469   8.567   8.865
    1STR    S1417756   8.774   8.800   9.512
    1STR    S1B17757   8.045   8.554   8.964
    1HEX    C0117758   8.963   8.600  12.342
    1HEX    C0217759   8.939   8.654  12.484
    1HEX    C0317760   8.796   8.628  12.530
    1HEX    O0417761   8.748   8.515  12.523
    1HEX    O0517762   8.735   8.739  12.575
    1HEX    C0617763   8.595   8.737  12.598
    1HEX    C0717764   8.554   8.719  12.747
    1HEX    C0817765   8.574   8.855  12.825
    1HEX    O0917766   8.523   8.988  12.798
    1HEX    C0A17767   8.547   9.084  12.898
    1HEX    O0B17768   8.575   9.054  13.014
    1HEX    C0C17769   8.543   9.235  12.858
    1HEX    C0D17770   8.608   9.328  12.969
    1HEX    C0F17771   8.408   8.663  12.748
    1HEX    O0G17772   8.410   8.519  12.727
    1HEX    C0H17773   8.375   8.462  12.610
    1HEX    O0I17774   8.312   8.520  12.521
    1HEX    C0J17775   8.424   8.318  12.589
    1HEX    C0K17776   8.445   8.230  12.716
    1HEX    C0N17777   8.641   8.607  12.817
    1HEX    O0O17778   8.775   8.633  12.863
    1HEX    C0P17779   8.811   8.710  12.980
    1HEX    C0Q17780   8.771   8.664  13.124
    1HEX    C0R17781   8.835   8.523  13.150
    1HEX    O0S17782   8.977   8.517  13.115
    1HEX    C0T17783   9.079   8.531  13.206
    1HEX    O0U17784   9.063   8.555  13.325
    1HEX    C0V17785   9.221   8.510  13.148
    1HEX    C0W17786   9.316   8.634  13.152
    1HEX    C0Y17787   8.835   8.764  13.223
    1HEX    O0Z17788   8.793   8.728  13.352
    1HEX    C1017789   8.847   8.787  13.458
    1HEX    O1117790   8.933   8.874  13.456
    1HEX    C1217791   8.786   8.734  13.586
    1HEX    C1317792   8.877   8.756  13.707
    1HEX    C1517793   8.614   8.682  13.140
    1HEX    O1617794   8.531   8.628  13.244
    1HEX    C1717795   8.415   8.565  13.206
    1HEX    O1817796   8.411   8.482  13.115
    1HEX    C1917797   8.285   8.613  13.272
    1HEX    C1A17798   8.185   8.670  13.165
    1HEX    H1D17799   9.068   8.576  12.327
    1HEX    H1E17800   8.909   8.507  12.328
    1HEX    H1F17801   8.963   8.760  12.492
    1HEX    H1G17802   9.003   8.601  12.555
    1HEX    H1H17803   8.550   8.660  12.535
    1HEX    H1I17804   8.553   8.830  12.559
    1HEX    H1J17805   8.680   8.875  12.814
    1HEX    H1K17806   8.552   8.834  12.929
    1HEX    H1M17807   8.440   9.262  12.840
    1HEX    H1N17808   8.597   9.247  12.764
    1HEX    H1O17809   8.715   9.307  12.976
    1HEX    H1P17810   8.568   9.300  13.067
    1HEX    H1R17811   8.344   8.713  12.674
    1HEX    H1S17812   8.359   8.681  12.844
    1HEX    H1T17813   8.518   8.324  12.534
    1HEX    H1U17814   8.353   8.269  12.522
    1HEX    H1V17815   8.356   8.232  12.779
    1HEX    H1W17816   8.527   8.270  12.776
    1HEX    H1Y17817   8.654   8.528  12.744
    1HEX    H1Z17818   8.586   8.548  12.890
    1HEX    H2017819   8.789   8.815  12.970
    1HEX    H2117820   8.920   8.709  12.975
    1HEX    H2217821   8.783   8.448  13.091
    1HEX    H2317822   8.821   8.493  13.254
    1HEX    H2417823   9.213   8.469  13.048
    1HEX    H2517824   9.266   8.431  13.210
    1HEX    H2617825   9.318   8.677  13.252
    1HEX    H2717826   9.276   8.712  13.087
    1HEX    H2917827   8.805   8.867  13.202
    1HEX    H2A17828   8.944   8.762  13.217
    1HEX    H2B17829   8.768   8.627  13.571
    1HEX    H2C17830   8.689   8.781  13.601
    1HEX    H2D17831   8.881   8.862  13.731
    1HEX    H2E17832   8.979   8.726  13.684
    1HEX    H2G17833   8.564   8.659  13.048
    1HEX    H2H17834   8.596   8.789  13.148
    1HEX    H2I17835   8.307   8.686  13.350
    1HEX    H2J17836   8.241   8.527  13.321
    1HEX    H2K17837   8.198   8.614  13.073
    1HEX    H2M17838   8.211   8.773  13.141
    1STR    S0017839   8.911   8.714  12.209
    1STR    S0E17840   8.584   9.513  12.959
    1STR    S0M17841   8.480   8.055  12.670
    1STR    S0X17842   9.490   8.597  13.098
    1STR    S1417843   8.816   8.658  13.848
    1STR    S1B17844   8.004   8.665  13.205
    1HEX    C0117845   8.907  12.925  16.676
    1HEX    C0217846   8.911  12.978  16.821
    1HEX    C0317847   8.781  12.944  16.893
    1HEX    O0417848   8.743  12.827  16.901
    1HEX    O0517849   8.716  13.052  16.939
    1HEX    C0617850   8.580  13.039  16.980
    1HEX    C0717851   8.559  13.036  17.134
    1HEX    C0817852   8.580  13.180  17.193
    1HEX    O0917853   8.513  13.303  17.161
    1HEX    C0A17854   8.525  13.406  17.255
    1HEX    O0B17855   8.542  13.387  17.375
    1HEX    C0C17856   8.526  13.550  17.199
    1HEX    C0D17857   8.507  13.665  17.305
    1HEX    C0F17858   8.417  12.972  17.160
    1HEX    O0G17859   8.428  12.829  17.178
    1HEX    C0H17860   8.387  12.737  17.088
    1HEX    O0I17861   8.311  12.760  16.994
    1HEX    C0J17862   8.454  12.599  17.105
    1HEX    C0K17863   8.402  12.506  17.219
    1HEX    C0N17864   8.663  12.939  17.205
    1HEX    O0O17865   8.792  12.988  17.243
    1HEX    C0P17866   8.818  13.066  17.362
    1HEX    C0Q17867   8.771  13.018   0.064
    1HEX    C0R17868   8.822  12.873   0.087
    1HEX    O0S17869   8.961  12.856   0.053
    1HEX    C0T17870   9.060  12.864   0.145
    1HEX    O0U17871   9.045  12.891   0.264
    1HEX    C0V17872   9.198  12.826   0.089
    1HEX    C0W17873   9.292  12.944   0.052
    1HEX    C0Y17874   8.838  13.113   0.167
    1HEX    O0Z17875   8.796  13.084   0.300
    1HEX    C1017876   8.846  13.156   0.401
    1HEX    O1117877   8.930  13.245   0.390
    1HEX    C1217878   8.785  13.119   0.536
    1HEX    C1317879   8.886  13.121   0.654
    1HEX    C1517880   8.616  13.039   0.079
    1HEX    O1617881   8.543  12.983   0.188
    1HEX    C1717882   8.431  12.910   0.159
    1HEX    O1817883   8.421  12.834   0.063
    1HEX    C1917884   8.311  12.938   0.249
    1HEX    C1A17885   8.201  13.018   0.173
    1HEX    H1D17886   8.994  12.863  16.655
    1HEX    H1E17887   8.821  12.860  16.662
    1HEX    H1F17888   8.929  13.085  16.826
    1HEX    H1G17889   8.991  12.929  16.877
    1HEX    H1H17890   8.535  12.952  16.933
    1HEX    H1I17891   8.526  13.124  16.937
    1HEX    H1J17892   8.684  13.205  17.170
    1HEX    H1K17893   8.573  13.169  17.300
    1HEX    H1M17894   8.449  13.557  17.123
    1HEX    H1N17895   8.621  13.563  17.147
    1HEX    H1O17896   8.492  13.624  17.405
    1HEX    H1P17897   8.416  13.720  17.283
    1HEX    H1R17898   8.346  12.997  17.080
    1HEX    H1S17899   8.373  13.013  17.250
    1HEX    H1T17900   8.560  12.618  17.119
    1HEX    H1U17901   8.445  12.547  17.009
    1HEX    H1V17902   8.299  12.474  17.199
    1HEX    H1W17903   8.401  12.558  17.315
    1HEX    H1Y17904   8.681  12.857  17.137
    1HEX    H1Z17905   8.622  12.884  17.289
    1HEX    H2017906   8.791  13.170  17.348
    1HEX    H2117907   8.927  13.071  17.363
    1HEX    H2217908   8.765  12.804   0.025
    1HEX    H2317909   8.803  12.843   0.190
    1HEX    H2417910   9.183  12.761   0.003
    1HEX    H2517911   9.245  12.763   0.165
    1HEX    H2617912   9.243  13.041   0.066
    1HEX    H2717913   9.321  12.938  17.387
    1HEX    H2917914   8.813  13.218   0.145
    1HEX    H2A17915   8.947  13.108   0.161
    1HEX    H2B17916   8.739  13.021   0.528
    1HEX    H2C17917   8.704  13.190   0.553
    1HEX    H2D17918   8.980  13.165   0.621
    1HEX    H2E17919   8.910  13.019   0.685
    1HEX    H2G17920   8.564  13.011  17.429
    1HEX    H2H17921   8.597  13.146   0.085
    1HEX    H2I17922   8.343  12.990   0.339
    1HEX    H2J17923   8.273  12.841   0.280
    1HEX    H2K17924   8.208  13.001   0.065
    1HEX    H2M17925   8.214  13.125   0.188
    1STR    S0017926   8.895  13.055  16.550
    1STR    S0E17927   8.646  13.787  17.321
    1STR    S0M17928   8.509  12.355  17.231
    1STR    S0X17929   9.445  12.939   0.154
    1STR    S1417930   8.829  13.218   0.798
    1STR    S1B17931   8.030  12.974   0.224
    1HEX    C0117932   8.960  13.000   3.608
    1HEX    C0217933   8.920  12.966   3.754
    1HEX    C0317934   8.770  12.958   3.779
    1HEX    O0417935   8.707  12.856   3.750
    1HEX    O0517936   8.722  13.067   3.841
    1HEX    C0617937   8.584  13.073   3.876
    1HEX    C0717938   8.559  13.050   4.027
    1HEX    C0817939   8.563  13.188   4.104
    1HEX    O0917940   8.507  13.317   4.067
    1HEX    C0A17941   8.519  13.418   4.163
    1HEX    O0B17942   8.538  13.395   4.283
    1HEX    C0C17943   8.515  13.566   4.115
    1HEX    C0D17944   8.527  13.670   4.234
    1HEX    C0F17945   8.423  12.970   4.039
    1HEX    O0G17946   8.450  12.828   4.025
    1HEX    C0H17947   8.399  12.750   3.927
    1HEX    O0I17948   8.304  12.782   3.855
    1HEX    C0J17949   8.476  12.618   3.905
    1HEX    C0K17950   8.477  12.513   4.020
    1HEX    C0N17951   8.666  12.952   4.092
    1HEX    O0O17952   8.796  12.998   4.133
    1HEX    C0P17953   8.822  13.067   4.257
    1HEX    C0Q17954   8.777  13.012   4.397
    1HEX    C0R17955   8.837  12.870   4.419
    1HEX    O0S17956   8.978  12.860   4.387
    1HEX    C0T17957   9.075  12.867   4.483
    1HEX    O0U17958   9.056  12.896   4.601
    1HEX    C0V17959   9.216  12.827   4.435
    1HEX    C0W17960   9.316  12.944   4.409
    1HEX    C0Y17961   8.840  13.109   4.500
    1HEX    O0Z17962   8.797  13.078   4.631
    1HEX    C1017963   8.851  13.143   4.734
    1HEX    O1117964   8.943  13.225   4.728
    1HEX    C1217965   8.781  13.109   4.865
    1HEX    C1317966   8.863  13.144   4.990
    1HEX    C1517967   8.621  13.024   4.412
    1HEX    O1617968   8.543  12.952   4.509
    1HEX    C1717969   8.421  12.901   4.470
    1HEX    O1817970   8.394  12.863   4.356
    1HEX    C1917971   8.312  12.898   4.578
    1HEX    C1A17972   8.181  12.974   4.541
    1HEX    H1D17973   8.920  12.900   3.591
    1HEX    H1E17974   8.912  13.098   3.613
    1HEX    H1F17975   8.961  13.040   3.822
    1HEX    H1G17976   8.963  12.871   3.786
    1HEX    H1H17977   8.527  13.002   3.815
    1HEX    H1I17978   8.546  13.170   3.845
    1HEX    H1J17979   8.668  13.216   4.101
    1HEX    H1K17980   8.534  13.171   4.206
    1HEX    H1M17981   8.423  13.582   4.058
    1HEX    H1N17982   8.598  13.580   4.047
    1HEX    H1O17983   8.618  13.649   4.292
    1HEX    H1P17984   8.445  13.654   4.304
    1HEX    H1R17985   8.348  13.005   3.967
    1HEX    H1S17986   8.378  12.985   4.137
    1HEX    H1T17987   8.579  12.647   3.880
    1HEX    H1U17988   8.437  12.572   3.814
    1HEX    H1V17989   8.378  12.469   4.032
    1HEX    H1W17990   8.500  12.561   4.115
    1HEX    H1Y17991   8.688  12.877   4.016
    1HEX    H1Z17992   8.626  12.886   4.169
    1HEX    H2017993   8.794  13.172   4.251
    1HEX    H2117994   8.931  13.072   4.258
    1HEX    H2217995   8.784  12.799   4.355
    1HEX    H2317996   8.819  12.837   4.521
    1HEX    H2417997   9.208  12.762   4.349
    1HEX    H2517998   9.256  12.766   4.516
    1HEX    H2617999   9.302  13.025   4.481
    1HEX    H2718000   9.299  12.987   4.310
    1HEX    H2918001   8.813  13.213   4.480
    1HEX    H2A18002   8.949  13.107   4.496
    1HEX    H2B18003   8.758  13.002   4.863
    1HEX    H2C18004   8.687  13.163   4.864
    1HEX    H2D18005   8.906  13.244   4.985
    1HEX    H2E18006   8.947  13.075   5.000
    1HEX    H2G18007   8.575  13.006   4.317
    1HEX    H2H18008   8.597  13.129   4.429
    1HEX    H2I18009   8.356  12.944   4.667
    1HEX    H2J18010   8.290  12.794   4.605
    1HEX    H2K18011   8.204  13.057   4.473
    1HEX    H2M18012   8.140  13.021   4.631
    1STR    S0018013   8.872  12.981   3.448
    1STR    S0E18014   8.527  13.850   4.191
    1STR    S0M18015   8.599  12.376   3.991
    1STR    S0X18016   9.490  12.884   4.418
    1STR    S1418017   8.753  13.131   5.134
    1STR    S1B18018   8.044  12.876   4.465
    1HEX    C0118019   9.013  12.992   8.065
    1HEX    C0218020   8.931  13.066   8.173
    1HEX    C0318021   8.785  13.025   8.177
    1HEX    O0418022   8.749  12.910   8.151
    1HEX    O0518023   8.707  13.124   8.221
    1HEX    C0618024   8.568  13.102   8.241
    1HEX    C0718025   8.534  13.081   8.390
    1HEX    C0818026   8.551  13.215   8.469
    1HEX    O0918027   8.505  13.348   8.434
    1HEX    C0A18028   8.533  13.447   8.529
    1HEX    O0B18029   8.563  13.420   8.646
    1HEX    C0C18030   8.532  13.595   8.484
    1HEX    C0D18031   8.599  13.691   8.591
    1HEX    C0F18032   8.389  13.021   8.396
    1HEX    O0G18033   8.395  12.878   8.375
    1HEX    C0H18034   8.343  12.817   8.267
    1HEX    O0I18035   8.266  12.869   8.187
    1HEX    C0J18036   8.395  12.673   8.245
    1HEX    C0K18037   8.386  12.579   8.368
    1HEX    C0N18038   8.627  12.971   8.457
    1HEX    O0O18039   8.761  13.000   8.505
    1HEX    C0P18040   8.796  13.071   8.627
    1HEX    C0Q18041   8.761  13.020   8.771
    1HEX    C0R18042   8.830  12.881   8.794
    1HEX    O0S18043   8.970  12.880   8.756
    1HEX    C0T18044   9.072  12.887   8.846
    1HEX    O0U18045   9.059  12.902   8.967
    1HEX    C0V18046   9.212  12.871   8.783
    1HEX    C0W18047   9.324  12.959   8.849
    1HEX    C0Y18048   8.820  13.121   8.871
    1HEX    O0Z18049   8.793  13.082   9.005
    1HEX    C1018050   8.852  13.149   9.104
    1HEX    O1118051   8.929  13.244   9.091
    1HEX    C1218052   8.816  13.094   9.242
    1HEX    C1318053   8.917  13.141   9.349
    1HEX    C1518054   8.604  13.023   8.783
    1HEX    O1618055   8.526  13.009   8.902
    1HEX    C1718056   8.401  12.954   8.887
    1HEX    O1818057   8.378  12.855   8.817
    1HEX    C1918058   8.283  13.030   8.951
    1HEX    C1A18059   8.171  13.052   8.844
    1HEX    H1D18060   9.118  12.999   8.091
    1HEX    H1E18061   8.988  12.886   8.071
    1HEX    H1F18062   8.938  13.174   8.162
    1HEX    H1G18063   8.969  13.040   8.272
    1HEX    H1H18064   8.533  13.019   8.179
    1HEX    H1I18065   8.515  13.189   8.202
    1HEX    H1J18066   8.658  13.233   8.467
    1HEX    H1K18067   8.518  13.196   8.570
    1HEX    H1M18068   8.429  13.624   8.466
    1HEX    H1N18069   8.585  13.603   8.389
    1HEX    H1O18070   8.707  13.675   8.594
    1HEX    H1P18071   8.564  13.661   8.690
    1HEX    H1R18072   8.322  13.070   8.324
    1HEX    H1S18073   8.344  13.037   8.494
    1HEX    H1T18074   8.499  12.681   8.212
    1HEX    H1U18075   8.340  12.631   8.161
    1HEX    H1V18076   8.283  12.571   8.403
    1HEX    H1W18077   8.444  12.618   8.451
    1HEX    H1Y18078   8.645  12.897   8.378
    1HEX    H1Z18079   8.574  12.907   8.525
    1HEX    H2018080   8.770  13.176   8.621
    1HEX    H2118081   8.905  13.074   8.620
    1HEX    H2218082   8.779  12.805   8.734
    1HEX    H2318083   8.818  12.849   8.898
    1HEX    H2418084   9.204  12.894   8.677
    1HEX    H2518085   9.240  12.766   8.790
    1HEX    H2618086   9.285  13.058   8.871
    1HEX    H2718087   9.351  12.916   8.946
    1HEX    H2918088   8.781  13.221   8.855
    1HEX    H2A18089   8.929  13.128   8.858
    1HEX    H2B18090   8.814  12.986   9.235
    1HEX    H2C18091   8.715  13.127   9.267
    1HEX    H2D18092   8.908  13.248   9.364
    1HEX    H2E18093   9.018  13.123   9.312
    1HEX    H2G18094   8.566  12.951   8.713
    1HEX    H2H18095   8.573  13.121   8.751
    1HEX    H2I18096   8.319  13.123   8.993
    1HEX    H2J18097   8.245  12.969   9.033
    1HEX    H2K18098   8.140  12.955   8.806
    1HEX    H2M18099   8.212  13.105   8.759
    1STR    S0018100   8.996  13.051   7.892
    1STR    S0E18101   8.566  13.874   8.586
    1STR    S0M18102   8.445  12.409   8.325
    1STR    S0X18103   9.477  12.978   8.747
    1STR    S1418104   8.899  13.056   9.510
    1STR    S1B18105   8.019  13.144   8.896
    1HEX    C0118106   8.939  12.950  12.336
    1HEX    C0218107   8.933  12.970  12.489
    1HEX    C0318108   8.795  12.935  12.542
    1HEX    O0418109   8.756  12.818  12.543
    1HEX    O0518110   8.725  13.042  12.585
    1HEX    C0618111   8.589  13.026  12.622
    1HEX    C0718112   8.566  13.019  12.776
    1HEX    C0818113   8.575  13.163  12.837
    1HEX    O0918114   8.515  13.286  12.791
    1HEX    C0A18115   8.524  13.393  12.880
    1HEX    O0B18116   8.532  13.380  13.002
    1HEX    C0C18117   8.533  13.535  12.819
    1HEX    C0D18118   8.552  13.650  12.925
    1HEX    C0F18119   8.430  12.944  12.800
    1HEX    O0G18120   8.450  12.800  12.815
    1HEX    C0H18121   8.419  12.711  12.718
    1HEX    O0I18122   8.348  12.737  12.621
    1HEX    C0J18123   8.484  12.572  12.733
    1HEX    C0K18124   8.490  12.504  12.874
    1HEX    C0N18125   8.675  12.929  12.848
    1HEX    O0O18126   8.802  12.984  12.885
    1HEX    C0P18127   8.824  13.062  13.005
    1HEX    C0Q18128   8.777  13.013  13.147
    1HEX    C0R18129   8.829  12.869  13.171
    1HEX    O0S18130   8.969  12.853  13.143
    1HEX    C0T18131   9.063  12.856  13.241
    1HEX    O0U18132   9.041  12.883  13.359
    1HEX    C0V18133   9.204  12.818  13.195
    1HEX    C0W18134   9.303  12.936  13.178
    1HEX    C0Y18135   8.843  13.108  13.250
    1HEX    O0Z18136   8.801  13.076  13.382
    1HEX    C1018137   8.854  13.142  13.485
    1HEX    O1118138   8.942  13.228  13.476
    1HEX    C1218139   8.791  13.101  13.618
    1HEX    C1318140   8.882  13.127  13.740
    1HEX    C1518141   8.622  13.033  13.160
    1HEX    O1618142   8.551  12.987  13.276
    1HEX    C1718143   8.430  12.927  13.257
    1HEX    O1818144   8.401  12.857  13.160
    1HEX    C1918145   8.325  12.958  13.363
    1HEX    C1A18146   8.209  13.042  13.303
    1HEX    H1D18147   9.037  12.916  12.304
    1HEX    H1E18148   8.869  12.871  12.308
    1HEX    H1F18149   8.962  13.071  12.519
    1HEX    H1G18150   9.002  12.901  12.538
    1HEX    H1H18151   8.546  12.938  12.572
    1HEX    H1I18152   8.533  13.110  12.581
    1HEX    H1J18153   8.679  13.191  12.827
    1HEX    H1K18154   8.551  13.154  12.942
    1HEX    H1M18155   8.445  13.554  12.757
    1HEX    H1N18156   8.619  13.534  12.752
    1HEX    H1O18157   8.607  13.615  13.012
    1HEX    H1P18158   8.454  13.680  12.964
    1HEX    H1R18159   8.356  12.966  12.722
    1HEX    H1S18160   8.383  12.978  12.893
    1HEX    H1T18161   8.586  12.581  12.693
    1HEX    H1U18162   8.432  12.506  12.663
    1HEX    H1V18163   8.390  12.502  12.919
    1HEX    H1W18164   8.552  12.562  12.941
    1HEX    H1Y18165   8.698  12.847  12.781
    1HEX    H1Z18166   8.636  12.872  12.932
    1HEX    H2018167   8.794  13.166  12.992
    1HEX    H2118168   8.933  13.069  13.008
    1HEX    H2218169   8.775  12.799  13.106
    1HEX    H2318170   8.805  12.837  13.273
    1HEX    H2418171   9.198  12.758  13.104
    1HEX    H2518172   9.241  12.751  13.272
    1HEX    H2618173   9.272  13.023  13.235
    1HEX    H2718174   9.306  12.967  13.073
    1HEX    H2918175   8.817  13.212  13.230
    1HEX    H2A18176   8.952  13.104  13.244
    1HEX    H2B18177   8.763  12.996  13.613
    1HEX    H2C18178   8.700  13.159  13.625
    1HEX    H2D18179   8.954  13.206  13.719
    1HEX    H2E18180   8.941  13.038  13.765
    1HEX    H2G18181   8.571  12.995  13.074
    1HEX    H2H18182   8.602  13.140  13.157
    1HEX    H2I18183   8.370  13.008  13.449
    1HEX    H2J18184   8.287  12.862  13.398
    1HEX    H2K18185   8.200  13.020  13.196
    1HEX    H2M18186   8.228  13.149  13.309
    1STR    S0018187   8.900  13.105  12.248
    1STR    S0E18188   8.640  13.800  12.864
    1STR    S0M18189   8.555  12.331  12.862
    1STR    S0X18190   9.474  12.889  13.229
    1STR    S1418191   8.787  13.183  13.886
    1STR    S1B18192   8.045  13.005  13.376
    1HEX    C0118193  13.310  17.260  16.711
    1HEX    C0218194  13.283  17.307  16.856
    1HEX    C0318195  13.134  17.313  16.886
    1HEX    O0418196  13.064  17.213  16.871
    1HEX    O0518197  13.093  17.432  16.933
    1HEX    C0618198  12.954   0.013  16.958
    1HEX    C0718199  12.912  17.436  17.107
    1HEX    C0818200  12.931   0.132  17.185
    1HEX    O0918201  12.876   0.264  17.159
    1HEX    C0A18202  12.896   0.360  17.261
    1HEX    O0B18203  12.922   0.329  17.377
    1HEX    C0C18204  12.888   0.511  17.224
    1HEX    C0D18205  12.944   0.605  17.339
    1HEX    C0F18206  12.765  17.380  17.108
    1HEX    O0G18207  12.767  17.237  17.085
    1HEX    C0H18208  12.728  17.181  16.968
    1HEX    O0I18209  12.666  17.241  16.880
    1HEX    C0J18210  12.773  17.035  16.946
    1HEX    C0K18211  12.793  16.947  17.072
    1HEX    C0N18212  12.997  17.323  17.179
    1HEX    O0O18213  13.132  17.349  17.221
    1HEX    C0P18214  13.171  17.426  17.338
    1HEX    C0Q18215  13.133  17.380   0.042
    1HEX    C0R18216  13.196  17.239   0.067
    1HEX    O0S18217  13.337  17.231   0.030
    1HEX    C0T18218  13.440  17.245   0.120
    1HEX    O0U18219  13.426  17.272   0.239
    1HEX    C0V18220  13.581  17.216   0.062
    1HEX    C0W18221  13.677  17.339   0.050
    1HEX    C0Y18222  13.200   0.040   0.139
    1HEX    O0Z18223  13.155   0.006   0.269
    1HEX    C1018224  13.206   0.065   0.375
    1HEX    O1118225  13.295   0.150   0.376
    1HEX    C1218226  13.136   0.016   0.500
    1HEX    C1318227  13.200   0.066   0.630
    1HEX    C1518228  12.977  17.399   0.062
    1HEX    O1618229  12.896  17.335   0.162
    1HEX    C1718230  12.782  17.271   0.119
    1HEX    O1818231  12.779  17.198   0.020
    1HEX    C1918232  12.651  17.306   0.193
    1HEX    C1A18233  12.548  17.372   0.096
    1HEX    H1D18234  13.403  17.203  16.707
    1HEX    H1E18235  13.232  17.192  16.676
    1HEX    H1F18236  13.329  17.403  16.877
    1HEX    H1G18237  13.325  17.235  16.927
    1HEX    H1H18238  12.896  17.388  16.893
    1HEX    H1I18239  12.928   0.113  16.924
    1HEX    H1J18240  13.037   0.153  17.174
    1HEX    H1K18241  12.910   0.111  17.289
    1HEX    H1M18242  12.785   0.535  17.200
    1HEX    H1N18243  12.947   0.526  17.133
    1HEX    H1O18244  13.050   0.586  17.353
    1HEX    H1P18245  12.898   0.576  17.434
    1HEX    H1R18246  12.701  17.432  17.036
    1HEX    H1S18247  12.718  17.396  17.205
    1HEX    H1T18248  12.867  17.039  16.890
    1HEX    H1U18249  12.701  16.989  16.879
    1HEX    H1V18250  12.704  16.952  17.135
    1HEX    H1W18251  12.875  16.986  17.132
    1HEX    H1Y18252  13.008  17.242  17.108
    1HEX    H1Z18253  12.942  17.268  17.255
    1HEX    H2018254  13.149   0.091  17.327
    1HEX    H2118255  13.280  17.425  17.331
    1HEX    H2218256  13.142  17.165   0.009
    1HEX    H2318257  13.183  17.209   0.172
    1HEX    H2418258  13.570  17.164  17.407
    1HEX    H2518259  13.626  17.145   0.131
    1HEX    H2618260  13.677  17.397   0.142
    1HEX    H2718261  13.642  17.406  17.411
    1HEX    H2918262  13.173   0.143   0.118
    1HEX    H2A18263  13.309   0.036   0.134
    1HEX    H2B18264  13.137  17.347   0.497
    1HEX    H2C18265  13.032   0.048   0.494
    1HEX    H2D18266  13.199   0.175   0.634
    1HEX    H2E18267  13.305   0.037   0.636
    1HEX    H2G18268  12.925  17.385  17.410
    1HEX    H2H18269  12.959   0.065   0.080
    1HEX    H2I18270  12.672  17.369   0.280
    1HEX    H2J18271  12.611  17.212   0.231
    1HEX    H2K18272  12.566  17.335  17.435
    1HEX    H2M18273  12.566   0.039   0.091
    1STR    S0018274  13.325  17.401  16.598
    1STR    S0E18275  12.918   0.789  17.326
    1STR    S0M18276  12.824  16.770  17.029
    1STR    S0X18277  13.851  17.289   0.010
    1STR    S1418278  13.108  17.435   0.770
    1STR    S1B18279  12.368  17.346   0.132
    1HEX    C0118280  13.334  17.282   3.676
    1HEX    C0218281  13.273  17.268   3.818
    1HEX    C0318282  13.122  17.269   3.823
    1HEX    O0418283  13.057  17.167   3.802
    1HEX    O0518284  13.073  17.388   3.865
    1HEX    C0618285  12.936  17.400   3.900
    1HEX    C0718286  12.913  17.395   4.055
    1HEX    C0818287  12.933   0.100   4.116
    1HEX    O0918288  12.875   0.227   4.079
    1HEX    C0A18289  12.902   0.335   4.166
    1HEX    O0B18290  12.933   0.321   4.284
    1HEX    C0C18291  12.896   0.477   4.105
    1HEX    C0D18292  12.866   0.597   4.204
    1HEX    C0F18293  12.772  17.329   4.080
    1HEX    O0G18294  12.785  17.186   4.095
    1HEX    C0H18295  12.738  17.096   4.006
    1HEX    O0I18296  12.661  17.123   3.914
    1HEX    C0J18297  12.796  16.953   4.022
    1HEX    C0K18298  12.778  16.882   4.159
    1HEX    C0N18299  13.017  17.298   4.126
    1HEX    O0O18300  13.148  17.346   4.162
    1HEX    C0P18301  13.175  17.424   4.281
    1HEX    C0Q18302  13.134  17.375   4.424
    1HEX    C0R18303  13.194  17.232   4.445
    1HEX    O0S18304  13.334  17.224   4.407
    1HEX    C0T18305  13.435  17.228   4.499
    1HEX    O0U18306  13.419  17.240   4.620
    1HEX    C0V18307  13.578  17.216   4.440
    1HEX    C0W18308  13.652  17.352   4.437
    1HEX    C0Y18309  13.201   0.032   4.525
    1HEX    O0Z18310  13.163   0.005   4.659
    1HEX    C1018311  13.217   0.079   4.758
    1HEX    O1118312  13.303   0.166   4.742
    1HEX    C1218313  13.158   0.049   4.896
    1HEX    C1318314  13.266   0.032   5.006
    1HEX    C1518315  12.978  17.393   4.441
    1HEX    O1618316  12.901  17.342   4.551
    1HEX    C1718317  12.782  17.281   4.522
    1HEX    O1818318  12.765  17.207   4.425
    1HEX    C1918319  12.663  17.319   4.612
    1HEX    C1A18320  12.550  17.387   4.527
    1HEX    H1D18321  13.313  17.175   3.669
    1HEX    H1E18322  13.273  17.371   3.659
    1HEX    H1F18323  13.309  17.350   3.880
    1HEX    H1G18324  13.307  17.177   3.868
    1HEX    H1H18325  12.878  17.322   3.849
    1HEX    H1I18326  12.898   0.053   3.859
    1HEX    H1J18327  13.038   0.122   4.097
    1HEX    H1K18328  12.918   0.090   4.223
    1HEX    H1M18329  12.820   0.476   4.027
    1HEX    H1N18330  12.991   0.496   4.053
    1HEX    H1O18331  12.825   0.555   4.297
    1HEX    H1P18332  12.786   0.659   4.164
    1HEX    H1R18333  12.701  17.355   4.001
    1HEX    H1S18334  12.728  17.368   4.172
    1HEX    H1T18335  12.902  16.960   3.996
    1HEX    H1U18336  12.752  16.892   3.943
    1HEX    H1V18337  12.672  16.875   4.185
    1HEX    H1W18338  12.825  16.940   4.239
    1HEX    H1Y18339  13.034  17.215   4.057
    1HEX    H1Z18340  12.977  17.241   4.209
    1HEX    H2018341  13.144   0.087   4.270
    1HEX    H2118342  13.284  17.432   4.279
    1HEX    H2218343  13.140  17.160   4.383
    1HEX    H2318344  13.179  17.199   4.548
    1HEX    H2418345  13.572  17.171   4.341
    1HEX    H2518346  13.634  17.147   4.503
    1HEX    H2618347  13.659  17.393   4.538
    1HEX    H2718348  13.589  17.422   4.380
    1HEX    H2918349  13.175   0.135   4.502
    1HEX    H2A18350  13.310   0.027   4.518
    1HEX    H2B18351  13.098  17.398   4.889
    1HEX    H2C18352  13.090   0.130   4.920
    1HEX    H2D18353  13.364   0.056   4.964
    1HEX    H2E18354  13.271  17.368   5.039
    1HEX    H2G18355  12.926  17.365   4.352
    1HEX    H2H18356  12.959   0.060   4.445
    1HEX    H2I18357  12.696  17.383   4.694
    1HEX    H2J18358  12.625  17.227   4.656
    1HEX    H2K18359  12.534  17.329   4.436
    1HEX    H2M18360  12.583   0.045   4.494
    1STR    S0018361  13.270  17.235   3.511
    1STR    S0E18362  13.004   0.711   4.256
    1STR    S0M18363  12.850  16.711   4.157
    1STR    S0X18364  13.820  17.357   4.359
    1STR    S1418365  13.244   0.140   5.152
    1STR    S1B18366  12.385  17.408   4.608
    1HEX    C0118367  13.318  17.343   7.963
    1HEX    C0218368  13.275  17.325   8.111
    1HEX    C0318369  13.126  17.310   8.139
    1HEX    O0418370  13.068  17.204   8.119
    1HEX    O0518371  13.074  17.420   8.197
    1HEX    C0618372  12.937  17.421   8.235
    1HEX    C0718373  12.913  17.401   8.388
    1HEX    C0818374  12.920   0.100   8.461
    1HEX    O0918375  12.855   0.225   8.426
    1HEX    C0A18376  12.871   0.329   8.518
    1HEX    O0B18377  12.910   0.311   8.634
    1HEX    C0C18378  12.845   0.474   8.470
    1HEX    C0D18379  12.887   0.581   8.579
    1HEX    C0F18380  12.777  17.324   8.403
    1HEX    O0G18381  12.801  17.182   8.384
    1HEX    C0H18382  12.750  17.110   8.282
    1HEX    O0I18383  12.658  17.148   8.209
    1HEX    C0J18384  12.823  16.976   8.256
    1HEX    C0K18385  12.824  16.871   8.372
    1HEX    C0N18386  13.020  17.304   8.454
    1HEX    O0O18387  13.149  17.351   8.497
    1HEX    C0P18388  13.174  17.423   8.619
    1HEX    C0Q18389  13.133  17.370   8.761
    1HEX    C0R18390  13.192  17.228   8.783
    1HEX    O0S18391  13.333  17.218   8.755
    1HEX    C0T18392  13.427  17.222   8.855
    1HEX    O0U18393  13.404  17.249   8.972
    1HEX    C0V18394  13.568  17.182   8.810
    1HEX    C0W18395  13.668  17.299   8.783
    1HEX    C0Y18396  13.196   0.027   8.864
    1HEX    O0Z18397  13.156  17.436   8.996
    1HEX    C1018398  13.213   0.059   9.099
    1HEX    O1118399  13.305   0.140   9.091
    1HEX    C1218400  13.147   0.022   9.231
    1HEX    C1318401  13.235   0.050   9.355
    1HEX    C1518402  12.977  17.382   8.777
    1HEX    O1618403  12.906  17.319   8.885
    1HEX    C1718404  12.781  17.268   8.859
    1HEX    O1818405  12.743  17.226   8.750
    1HEX    C1918406  12.684  17.273   8.977
    1HEX    C1A18407  12.551  17.349   8.944
    1HEX    H1D18408  13.396  17.270   7.941
    1HEX    H1E18409  13.362   0.001   7.948
    1HEX    H1F18410  13.312  17.408   8.170
    1HEX    H1G18411  13.322  17.235   8.152
    1HEX    H1H18412  12.882  17.347   8.176
    1HEX    H1I18413  12.894   0.077   8.203
    1HEX    H1J18414  13.024   0.130   8.451
    1HEX    H1K18415  12.899   0.082   8.565
    1HEX    H1M18416  12.740   0.485   8.444
    1HEX    H1N18417  12.903   0.491   8.379
    1HEX    H1O18418  12.995   0.575   8.594
    1HEX    H1P18419  12.844   0.553   8.675
    1HEX    H1R18420  12.701  17.362   8.334
    1HEX    H1S18421  12.735  17.337   8.503
    1HEX    H1T18422  12.925  17.002   8.228
    1HEX    H1U18423  12.778  16.931   8.167
    1HEX    H1V18424  12.724  16.832   8.389
    1HEX    H1W18425  12.854  16.919   8.465
    1HEX    H1Y18426  13.043  17.228   8.379
    1HEX    H1Z18427  12.978  17.239   8.531
    1HEX    H2018428  13.144   0.087   8.610
    1HEX    H2118429  13.283  17.431   8.619
    1HEX    H2218430  13.140  17.157   8.718
    1HEX    H2318431  13.170  17.195   8.885
    1HEX    H2418432  13.563  17.114   8.725
    1HEX    H2518433  13.607  17.122   8.893
    1HEX    H2618434  13.637  17.389   8.836
    1HEX    H2718435  13.668  17.323   8.677
    1HEX    H2918436  13.168   0.131   8.843
    1HEX    H2A18437  13.305   0.025   8.857
    1HEX    H2B18438  13.119  17.357   9.228
    1HEX    H2C18439  13.055   0.080   9.235
    1HEX    H2D18440  13.292   0.142   9.344
    1HEX    H2E18441  13.308  17.410   9.368
    1HEX    H2G18442  12.929  17.352   8.686
    1HEX    H2H18443  12.952   0.048   8.784
    1HEX    H2I18444  12.735  17.324   9.059
    1HEX    H2J18445  12.663  17.172   9.012
    1HEX    H2K18446  12.565  17.411   8.856
    1HEX    H2M18447  12.525  17.417   9.024
    1STR    S0018448  13.192  17.320   7.832
    1STR    S0E18449  12.841   0.759   8.554
    1STR    S0M18450  12.939  16.730   8.337
    1STR    S0X18451  13.839  17.255   8.836
    1STR    S1418452  13.126   0.065   9.501
    1STR    S1B18453  12.404  17.243   8.912
    1HEX    C0118454  13.354  17.290  12.387
    1HEX    C0218455  13.292  17.388  12.489
    1HEX    C0318456  13.146  17.359  12.521
    1HEX    O0418457  13.098  17.247  12.506
    1HEX    O0518458  13.082   0.027  12.571
    1HEX    C0618459  12.942   0.019  12.598
    1HEX    C0718460  12.909  -0.000  12.748
    1HEX    C0818461  12.931   0.134  12.826
    1HEX    O0918462  12.881   0.268  12.797
    1HEX    C0A18463  12.908   0.364  12.895
    1HEX    O0B18464  12.937   0.335  13.012
    1HEX    C0C18465  12.908   0.515  12.854
    1HEX    C0D18466  12.966   0.609  12.967
    1HEX    C0F18467  12.762  17.383  12.755
    1HEX    O0G18468  12.764  17.239  12.738
    1HEX    C0H18469  12.713  17.177  12.630
    1HEX    O0I18470  12.641  17.231  12.546
    1HEX    C0J18471  12.759  17.031  12.613
    1HEX    C0K18472  12.744  16.940  12.738
    1HEX    C0N18473  13.000  17.327  12.814
    1HEX    O0O18474  13.133  17.356  12.861
    1HEX    C0P18475  13.167  17.430  12.981
    1HEX    C0Q18476  13.127  17.381  13.125
    1HEX    C0R18477  13.193  17.242  13.150
    1HEX    O0S18478  13.335  17.238  13.116
    1HEX    C0T18479  13.435  17.251  13.209
    1HEX    O0U18480  13.418  17.274  13.328
    1HEX    C0V18481  13.579  17.231  13.153
    1HEX    C0W18482  13.673  17.355  13.164
    1HEX    C0Y18483  13.188   0.042  13.225
    1HEX    O0Z18484  13.152   0.004  13.357
    1HEX    C1018485  13.208   0.067  13.460
    1HEX    O1118486  13.289   0.160  13.452
    1HEX    C1218487  13.160   0.012  13.593
    1HEX    C1318488  13.263   0.037  13.704
    1HEX    C1518489  12.970  17.396  13.138
    1HEX    O1618490  12.887  17.351  13.247
    1HEX    C1718491  12.768  17.291  13.213
    1HEX    O1818492  12.758  17.204  13.127
    1HEX    C1918493  12.642  17.346  13.282
    1HEX    C1A18494  12.541  17.402  13.176
    1HEX    H1D18495  13.462  17.286  12.403
    1HEX    H1E18496  13.319  17.189  12.408
    1HEX    H1F18497  13.304   0.052  12.458
    1HEX    H1G18498  13.344  17.377  12.585
    1HEX    H1H18499  12.897  17.380  12.537
    1HEX    H1I18500  12.896   0.111  12.561
    1HEX    H1J18501  13.037   0.153  12.815
    1HEX    H1K18502  12.908   0.113  12.930
    1HEX    H1M18503  12.806   0.542  12.828
    1HEX    H1N18504  12.967   0.525  12.763
    1HEX    H1O18505  13.072   0.589  12.981
    1HEX    H1P18506  12.920   0.581  13.061
    1HEX    H1R18507  12.696  17.432  12.683
    1HEX    H1S18508  12.717  17.403  12.852
    1HEX    H1T18509  12.863  17.033  12.581
    1HEX    H1U18510  12.702  16.988  12.530
    1HEX    H1V18511  12.642  16.942  12.775
    1HEX    H1W18512  12.807  16.976  12.819
    1HEX    H1Y18513  13.016  17.253  12.736
    1HEX    H1Z18514  12.948  17.263  12.884
    1HEX    H2018515  13.144   0.095  12.973
    1HEX    H2118516  13.276  17.431  12.978
    1HEX    H2218517  13.143  17.166  13.090
    1HEX    H2318518  13.178  17.211  13.254
    1HEX    H2418519  13.572  17.195  13.051
    1HEX    H2518520  13.622  17.150  13.212
    1HEX    H2618521  13.676  17.390  13.268
    1HEX    H2718522  13.633  17.438  13.106
    1HEX    H2918523  13.155   0.144  13.207
    1HEX    H2A18524  13.297   0.044  13.216
    1HEX    H2B18525  13.144  17.346  13.580
    1HEX    H2C18526  13.064   0.058  13.618
    1HEX    H2D18527  13.268   0.143  13.729
    1HEX    H2E18528  13.363   0.010  13.668
    1HEX    H2G18529  12.922  17.362  13.048
    1HEX    H2H18530  12.949   0.063  13.137
    1HEX    H2I18531  12.668  17.420  13.357
    1HEX    H2J18532  12.596  17.262  13.335
    1HEX    H2K18533  12.548  17.343  13.085
    1HEX    H2M18534  12.570   0.064  13.148
    1STR    S0018535  13.330  17.324  12.208
    1STR    S0E18536  12.941   0.794  12.955
    1STR    S0M18537  12.787  16.765  12.699
    1STR    S0X18538  13.847  17.324  13.107
    1STR    S1418539  13.227  17.379  13.853
    1STR    S1B18540  12.362  17.406  13.222
    1HEX    C0118541  13.299   4.223  16.689
    1HEX    C0218542  13.287   4.274  16.834
    1HEX    C0318543  13.155   4.231  16.896
    1HEX    O0418544  13.124   4.112  16.901
    1HEX    O0518545  13.081   4.334  16.941
    1HEX    C0618546  12.946   4.312  16.980
    1HEX    C0718547  12.925   4.307  17.134
    1HEX    C0818548  12.942   4.451  17.193
    1HEX    O0918549  12.875   4.574  17.159
    1HEX    C0A18550  12.884   4.677  17.252
    1HEX    O0B18551  12.893   4.658  17.374
    1HEX    C0C18552  12.891   4.821  17.196
    1HEX    C0D18553  12.884   4.936  17.304
    1HEX    C0F18554  12.786   4.239  17.160
    1HEX    O0G18555  12.799   4.095  17.178
    1HEX    C0H18556  12.761   4.005  17.085
    1HEX    O0I18557  12.695   4.032  16.985
    1HEX    C0J18558  12.817   3.862  17.105
    1HEX    C0K18559  12.803   3.796  17.245
    1HEX    C0N18560  13.032   4.213  17.204
    1HEX    O0O18561  13.160   4.265  17.242
    1HEX    C0P18562  13.185   4.344  17.361
    1HEX    C0Q18563  13.139   4.297   0.063
    1HEX    C0R18564  13.190   4.152   0.088
    1HEX    O0S18565  13.330   4.138   0.059
    1HEX    C0T18566  13.425   4.143   0.157
    1HEX    O0U18567  13.404   4.166   0.275
    1HEX    C0V18568  13.567   4.112   0.107
    1HEX    C0W18569  13.656   4.236   0.077
    1HEX    C0Y18570  13.203   4.392   0.167
    1HEX    O0Z18571  13.160   4.361   0.299
    1HEX    C1018572  13.210   4.430   0.402
    1HEX    O1118573  13.296   4.518   0.394
    1HEX    C1218574  13.146   4.391   0.536
    1HEX    C1318575  13.241   4.402   0.657
    1HEX    C1518576  12.984   4.315   0.077
    1HEX    O1618577  12.913   4.263   0.188
    1HEX    C1718578  12.793   4.204   0.164
    1HEX    O1818579  12.768   4.132   0.068
    1HEX    C1918580  12.683   4.245   0.263
    1HEX    C1A18581  12.572   4.331   0.195
    1HEX    H1D18582  13.398   4.182  16.670
    1HEX    H1E18583  13.230   4.139  16.673
    1HEX    H1F18584  13.299   4.382  16.840
    1HEX    H1G18585  13.365   4.229  16.895
    1HEX    H1H18586  12.907   4.222  16.932
    1HEX    H1I18587  12.887   4.393  16.937
    1HEX    H1J18588  13.046   4.478  17.172
    1HEX    H1K18589  12.932   4.441  17.300
    1HEX    H1M18590  12.812   4.833  17.123
    1HEX    H1N18591  12.985   4.827  17.142
    1HEX    H1O18592  12.889   4.898  17.406
    1HEX    H1P18593  12.787   4.986  17.297
    1HEX    H1R18594  12.714   4.263  17.081
    1HEX    H1S18595  12.740   4.278  17.251
    1HEX    H1T18596  12.922   3.866  17.076
    1HEX    H1U18597  12.769   3.799  17.031
    1HEX    H1V18598  12.699   3.793  17.277
    1HEX    H1W18599  12.857   3.854  17.321
    1HEX    H1Y18600  13.052   4.132  17.135
    1HEX    H1Z18601  12.992   4.156  17.288
    1HEX    H2018602  13.156   4.447  17.347
    1HEX    H2118603  13.294   4.350  17.363
    1HEX    H2218604  13.136   4.083   0.024
    1HEX    H2318605  13.167   4.121   0.190
    1HEX    H2418606  13.559   4.049   0.019
    1HEX    H2518607  13.613   4.051   0.184
    1HEX    H2618608  13.603   4.329   0.100
    1HEX    H2718609  13.679   4.239  17.411
    1HEX    H2918610  13.178   4.496   0.146
    1HEX    H2A18611  13.312   4.388   0.163
    1HEX    H2B18612  13.107   4.290   0.528
    1HEX    H2C18613  13.060   4.457   0.548
    1HEX    H2D18614  13.330   4.460   0.630
    1HEX    H2E18615  13.278   4.304   0.687
    1HEX    H2G18616  12.933   4.281  17.429
    1HEX    H2H18617  12.963   4.422   0.078
    1HEX    H2I18618  12.729   4.299   0.345
    1HEX    H2J18619  12.642   4.153   0.304
    1HEX    H2K18620  12.596   4.353   0.091
    1HEX    H2M18621  12.562   4.427   0.245
    1STR    S0018622  13.261   4.347  16.562
    1STR    S0E18623  13.017   5.065  17.292
    1STR    S0M18624  12.870   3.623  17.242
    1STR    S0X18625  13.814   4.232   0.171
    1STR    S1418626  13.165   4.486   0.801
    1STR    S1B18627  12.410   4.247   0.200
    1HEX    C0118628  13.236   4.206   3.579
    1HEX    C0218629  13.262   4.252   3.724
    1HEX    C0318630  13.134   4.233   3.803
    1HEX    O0418631  13.082   4.121   3.809
    1HEX    O0518632  13.083   4.347   3.852
    1HEX    C0618633  12.945   4.353   3.885
    1HEX    C0718634  12.912   4.336   4.035
    1HEX    C0818635  12.924   4.475   4.109
    1HEX    O0918636  12.866   4.605   4.078
    1HEX    C0A18637  12.886   4.705   4.176
    1HEX    O0B18638  12.919   4.679   4.292
    1HEX    C0C18639  12.873   4.854   4.134
    1HEX    C0D18640  12.912   4.954   4.250
    1HEX    C0F18641  12.771   4.265   4.042
    1HEX    O0G18642  12.790   4.122   4.023
    1HEX    C0H18643  12.731   4.050   3.925
    1HEX    O0I18644  12.637   4.089   3.856
    1HEX    C0J18645  12.800   3.914   3.897
    1HEX    C0K18646  12.796   3.805   4.008
    1HEX    C0N18647  13.009   4.232   4.106
    1HEX    O0O18648  13.143   4.270   4.143
    1HEX    C0P18649  13.176   4.346   4.261
    1HEX    C0Q18650  13.137   4.296   4.404
    1HEX    C0R18651  13.197   4.154   4.426
    1HEX    O0S18652  13.338   4.144   4.389
    1HEX    C0T18653  13.439   4.154   4.481
    1HEX    O0U18654  13.424   4.183   4.599
    1HEX    C0V18655  13.579   4.118   4.427
    1HEX    C0W18656  13.677   4.236   4.404
    1HEX    C0Y18657  13.204   4.394   4.502
    1HEX    O0Z18658  13.160   4.363   4.633
    1HEX    C1018659  13.211   4.428   4.736
    1HEX    O1118660  13.301   4.512   4.733
    1HEX    C1218661  13.139   4.389   4.864
    1HEX    C1318662  13.213   4.433   4.991
    1HEX    C1518663  12.981   4.313   4.425
    1HEX    O1618664  12.905   4.245   4.525
    1HEX    C1718665  12.786   4.188   4.487
    1HEX    O1818666  12.767   4.129   4.381
    1HEX    C1918667  12.668   4.210   4.583
    1HEX    C1A18668  12.546   4.281   4.514
    1HEX    H1D18669  13.300   4.122   3.553
    1HEX    H1E18670  13.134   4.169   3.568
    1HEX    H1F18671  13.293   4.357   3.730
    1HEX    H1G18672  13.339   4.192   3.771
    1HEX    H1H18673  12.892   4.279   3.825
    1HEX    H1I18674  12.907   4.448   3.849
    1HEX    H1J18675  13.029   4.500   4.098
    1HEX    H1K18676  12.902   4.458   4.214
    1HEX    H1M18677  12.771   4.871   4.100
    1HEX    H1N18678  12.938   4.870   4.048
    1HEX    H1O18679  13.016   4.938   4.279
    1HEX    H1P18680  12.855   4.928   4.340
    1HEX    H1R18681  12.701   4.307   3.969
    1HEX    H1S18682  12.724   4.279   4.140
    1HEX    H1T18683  12.904   3.937   3.873
    1HEX    H1U18684  12.757   3.874   3.805
    1HEX    H1V18685  12.694   3.770   4.025
    1HEX    H1W18686  12.831   3.846   4.103
    1HEX    H1Y18687  13.026   4.151   4.037
    1HEX    H1Z18688  12.962   4.174   4.185
    1HEX    H2018689  13.149   4.451   4.251
    1HEX    H2118690  13.285   4.350   4.256
    1HEX    H2218691  13.143   4.082   4.365
    1HEX    H2318692  13.182   4.123   4.529
    1HEX    H2418693  13.568   4.057   4.337
    1HEX    H2518694  13.621   4.052   4.503
    1HEX    H2618695  13.671   4.309   4.485
    1HEX    H2718696  13.651   4.289   4.312
    1HEX    H2918697  13.177   4.498   4.481
    1HEX    H2A18698  13.313   4.391   4.496
    1HEX    H2B18699  13.126   4.281   4.863
    1HEX    H2C18700  13.041   4.435   4.860
    1HEX    H2D18701  13.240   4.538   4.989
    1HEX    H2E18702  13.307   4.377   5.001
    1HEX    H2G18703  12.929   4.297   4.333
    1HEX    H2H18704  12.961   4.419   4.442
    1HEX    H2I18705  12.703   4.269   4.668
    1HEX    H2J18706  12.639   4.113   4.623
    1HEX    H2K18707  12.571   4.305   4.411
    1HEX    H2M18708  12.525   4.376   4.562
    1STR    S0018709  13.251   4.337   3.454
    1STR    S0E18710  12.888   5.137   4.224
    1STR    S0M18711  12.902   3.659   3.964
    1STR    S0X18712  13.852   4.176   4.390
    1STR    S1418713  13.105   4.398   5.133
    1STR    S1B18714  12.392   4.181   4.511
    1HEX    C0118715  13.261   4.203   8.000
    1HEX    C0218716  13.254   4.205   8.153
    1HEX    C0318717  13.108   4.208   8.196
    1HEX    O0418718  13.039   4.106   8.186
    1HEX    O0518719  13.067   4.329   8.237
    1HEX    C0618720  12.928   4.351   8.261
    1HEX    C0718721  12.889   4.344   8.411
    1HEX    C0818722  12.912   4.484   8.481
    1HEX    O0918723  12.871   4.616   8.438
    1HEX    C0A18724  12.901   4.721   8.526
    1HEX    O0B18725  12.922   4.705   8.647
    1HEX    C0C18726  12.915   4.863   8.465
    1HEX    C0D18727  12.879   4.986   8.558
    1HEX    C0F18728  12.742   4.290   8.417
    1HEX    O0G18729  12.742   4.145   8.402
    1HEX    C0H18730  12.698   4.082   8.291
    1HEX    O0I18731  12.632   4.135   8.202
    1HEX    C0J18732  12.745   3.936   8.278
    1HEX    C0K18733  12.726   3.847   8.404
    1HEX    C0N18734  12.974   4.234   8.489
    1HEX    O0O18735  13.111   4.259   8.527
    1HEX    C0P18736  13.153   4.340   8.640
    1HEX    C0Q18737  13.118   4.299   8.787
    1HEX    C0R18738  13.177   4.157   8.813
    1HEX    O0S18739  13.316   4.145   8.771
    1HEX    C0T18740  13.423   4.156   8.856
    1HEX    O0U18741  13.414   4.176   8.977
    1HEX    C0V18742  13.561   4.140   8.788
    1HEX    C0W18743  13.676   4.220   8.856
    1HEX    C0Y18744  13.191   4.400   8.880
    1HEX    O0Z18745  13.158   4.378   9.017
    1HEX    C1018746  13.220   4.452   9.111
    1HEX    O1118747  13.305   4.537   9.089
    1HEX    C1218748  13.173   4.421   9.253
    1HEX    C1318749  13.288   4.377   9.346
    1HEX    C1518750  12.963   4.325   8.807
    1HEX    O1618751  12.877   4.257   8.899
    1HEX    C1718752  12.749   4.226   8.856
    1HEX    O1818753  12.720   4.193   8.741
    1HEX    C1918754  12.637   4.242   8.960
    1HEX    C1A18755  12.531   4.352   8.926
    1HEX    H1D18756  13.341   4.140   7.963
    1HEX    H1E18757  13.168   4.163   7.957
    1HEX    H1F18758  13.307   4.289   8.197
    1HEX    H1G18759  13.297   4.114   8.195
    1HEX    H1H18760  12.870   4.281   8.202
    1HEX    H1I18761  12.901   4.448   8.221
    1HEX    H1J18762  13.019   4.498   8.472
    1HEX    H1K18763  12.884   4.476   8.585
    1HEX    H1M18764  12.848   4.865   8.378
    1HEX    H1N18765  13.016   4.874   8.426
    1HEX    H1O18766  12.818   4.948   8.640
    1HEX    H1P18767  12.815   5.056   8.504
    1HEX    H1R18768  12.678   4.338   8.343
    1HEX    H1S18769  12.696   4.312   8.513
    1HEX    H1T18770  12.851   3.938   8.251
    1HEX    H1U18771  12.693   3.892   8.193
    1HEX    H1V18772  12.623   3.854   8.439
    1HEX    H1W18773  12.789   3.883   8.485
    1HEX    H1Y18774  12.983   4.148   8.422
    1HEX    H1Z18775  12.919   4.185   8.569
    1HEX    H2018776  13.132   4.445   8.627
    1HEX    H2118777  13.262   4.338   8.630
    1HEX    H2218778  13.119   4.083   8.758
    1HEX    H2318779  13.166   4.130   8.919
    1HEX    H2418780  13.550   4.169   8.684
    1HEX    H2518781  13.585   4.034   8.788
    1HEX    H2618782  13.639   4.316   8.892
    1HEX    H2718783  13.709   4.167   8.946
    1HEX    H2918784  13.166   4.503   8.855
    1HEX    H2A18785  13.299   4.393   8.867
    1HEX    H2B18786  13.097   4.343   9.249
    1HEX    H2C18787  13.123   4.510   9.291
    1HEX    H2D18788  13.383   4.392   9.293
    1HEX    H2E18789  13.282   4.270   9.367
    1HEX    H2G18790  12.915   4.321   8.712
    1HEX    H2H18791  12.949   4.431   8.831
    1HEX    H2I18792  12.686   4.268   9.054
    1HEX    H2J18793  12.589   4.146   8.976
    1HEX    H2K18794  12.579   4.436   8.875
    1HEX    H2M18795  12.493   4.393   9.020
    1STR    S0018796  13.280   4.373   7.942
    1STR    S0E18797  13.013   5.087   8.639
    1STR    S0M18798  12.762   3.669   8.369
    1STR    S0X18799  13.825   4.255   8.751
    1STR    S1418800  13.304   4.469   9.503
    1STR    S1B18801  12.386   4.301   8.824
    1HEX    C0118802  13.317   4.213  12.330
    1HEX    C0218803  13.279   4.262  12.471
    1HEX    C0318804  13.140   4.222  12.516
    1HEX    O0418805  13.101   4.106  12.509
    1HEX    O0518806  13.071   4.327  12.567
    1HEX    C0618807  12.937   4.310  12.610
    1HEX    C0718808  12.923   4.301  12.765
    1HEX    C0818809  12.929   4.447  12.827
    1HEX    O0918810  12.863   4.568  12.783
    1HEX    C0A18811  12.879   4.679  12.868
    1HEX    O0B18812  12.913   4.668  12.985
    1HEX    C0C18813  12.860   4.821  12.808
    1HEX    C0D18814  12.904   4.934  12.909
    1HEX    C0F18815  12.791   4.221  12.795
    1HEX    O0G18816  12.817   4.078  12.803
    1HEX    C0H18817  12.781   3.990  12.706
    1HEX    O0I18818  12.704   4.017  12.615
    1HEX    C0J18819  12.852   3.852  12.712
    1HEX    C0K18820  12.868   3.782  12.851
    1HEX    C0N18821  13.038   4.214  12.831
    1HEX    O0O18822  13.163   4.274  12.870
    1HEX    C0P18823  13.183   4.347  12.993
    1HEX    C0Q18824  13.138   4.293  13.133
    1HEX    C0R18825  13.195   4.150  13.155
    1HEX    O0S18826  13.337   4.140  13.128
    1HEX    C0T18827  13.429   4.143  13.229
    1HEX    O0U18828  13.404   4.164  13.347
    1HEX    C0V18829  13.572   4.109  13.183
    1HEX    C0W18830  13.661   4.230  13.145
    1HEX    C0Y18831  13.199   4.389  13.238
    1HEX    O0Z18832  13.159   4.354  13.370
    1HEX    C1018833  13.215   4.417  13.474
    1HEX    O1118834  13.303   4.503  13.466
    1HEX    C1218835  13.153   4.376  13.607
    1HEX    C1318836  13.241   4.409  13.730
    1HEX    C1518837  12.982   4.305  13.146
    1HEX    O1618838  12.912   4.255  13.261
    1HEX    C1718839  12.787   4.201  13.243
    1HEX    O1818840  12.748   4.146  13.140
    1HEX    C1918841  12.691   4.222  13.360
    1HEX    C1A18842  12.565   4.304  13.317
    1HEX    H1D18843  13.337   4.106  12.333
    1HEX    H1E18844  13.409   4.262  12.298
    1HEX    H1F18845  13.286   4.371  12.476
    1HEX    H1G18846  13.349   4.223  12.545
    1HEX    H1H18847  12.892   4.222  12.561
    1HEX    H1I18848  12.879   4.394  12.573
    1HEX    H1J18849  13.033   4.477  12.815
    1HEX    H1K18850  12.907   4.436  12.932
    1HEX    H1M18851  12.755   4.833  12.779
    1HEX    H1N18852  12.919   4.828  12.717
    1HEX    H1O18853  13.010   4.922  12.930
    1HEX    H1P18854  12.854   4.918  13.004
    1HEX    H1R18855  12.712   4.243  12.722
    1HEX    H1S18856  12.748   4.250  12.891
    1HEX    H1T18857  12.950   3.866  12.666
    1HEX    H1U18858  12.797   3.787  12.645
    1HEX    H1V18859  12.772   3.779  12.903
    1HEX    H1W18860  12.936   3.838  12.914
    1HEX    H1Y18861  13.064   4.138  12.758
    1HEX    H1Z18862  13.005   4.151  12.913
    1HEX    H2018863  13.149   4.450  12.983
    1HEX    H2118864  13.291   4.358  12.996
    1HEX    H2218865  13.145   4.080  13.089
    1HEX    H2318866  13.172   4.116  13.256
    1HEX    H2418867  13.566   4.037  13.101
    1HEX    H2518868  13.617   4.055  13.267
    1HEX    H2618869  13.609   4.324  13.166
    1HEX    H2718870  13.679   4.229  13.037
    1HEX    H2918871  13.170   4.492  13.220
    1HEX    H2A18872  13.308   4.387  13.233
    1HEX    H2B18873  13.129   4.269  13.604
    1HEX    H2C18874  13.058   4.429  13.613
    1HEX    H2D18875  13.302   4.497  13.711
    1HEX    H2E18876  13.310   4.328  13.751
    1HEX    H2G18877  12.933   4.265  13.059
    1HEX    H2H18878  12.956   4.411  13.144
    1HEX    H2I18879  12.744   4.271  13.442
    1HEX    H2J18880  12.662   4.124  13.396
    1HEX    H2K18881  12.568   4.324  13.210
    1HEX    H2M18882  12.564   4.403  13.364
    1STR    S0018883  13.191   4.241  12.202
    1STR    S0E18884  12.872   5.111  12.864
    1STR    S0M18885  12.930   3.608  12.831
    1STR    S0X18886  13.822   4.231  13.234
    1STR    S1418887  13.138   4.448  13.877
    1STR    S1B18888  12.405   4.221  13.350
    1HEX    C0118889  13.308   8.576  16.704
    1HEX    C0218890  13.283   8.607  16.853
    1HEX    C0318891  13.135   8.603  16.886
    1HEX    O0418892  13.071   8.499  16.873
    1HEX    O0518893  13.087   8.721  16.933
    1HEX    C0618894  12.948   8.733  16.963
    1HEX    C0718895  12.915   8.720  17.114
    1HEX    C0818896  12.942   8.858  17.186
    1HEX    O0918897  12.885   8.989  17.162
    1HEX    C0A18898  12.904   9.085  17.263
    1HEX    O0B18899  12.927   9.055  17.380
    1HEX    C0C18900  12.899   9.236  17.224
    1HEX    C0D18901  12.961   9.329  17.337
    1HEX    C0F18902  12.768   8.666  17.127
    1HEX    O0G18903  12.767   8.521  17.116
    1HEX    C0H18904  12.735   8.457  17.002
    1HEX    O0I18905  12.675   8.509  16.908
    1HEX    C0J18906  12.787   8.312  16.990
    1HEX    C0K18907  12.812   8.230  17.120
    1HEX    C0N18908  13.005   8.608  17.182
    1HEX    O0O18909  13.140   8.636  17.222
    1HEX    C0P18910  13.175   8.712  17.340
    1HEX    C0Q18911  13.134   8.664   0.043
    1HEX    C0R18912  13.197   8.523   0.068
    1HEX    O0S18913  13.338   8.515   0.031
    1HEX    C0T18914  13.440   8.529   0.122
    1HEX    O0U18915  13.425   8.553   0.241
    1HEX    C0V18916  13.582   8.505   0.064
    1HEX    C0W18917  13.677   8.629   0.061
    1HEX    C0Y18918  13.200   8.762   0.142
    1HEX    O0Z18919  13.155   8.727   0.270
    1HEX    C1018920  13.207   8.784   0.377
    1HEX    O1118921  13.294   8.871   0.379
    1HEX    C1218922  13.139   8.731   0.502
    1HEX    C1318923  13.214   8.767   0.630
    1HEX    C1518924  12.977   8.684   0.062
    1HEX    O1618925  12.894   8.619   0.160
    1HEX    C1718926  12.779   8.559   0.114
    1HEX    O1818927  12.775   8.487   0.015
    1HEX    C1918928  12.648   8.597   0.187
    1HEX    C1A18929  12.547   8.666   0.089
    1HEX    H1D18930  13.408   8.534  16.690
    1HEX    H1E18931  13.238   8.499  16.670
    1HEX    H1F18932  13.327   8.703  16.882
    1HEX    H1G18933  13.330   8.531  16.915
    1HEX    H1H18934  12.892   8.660  16.904
    1HEX    H1I18935  12.914   8.829  16.926
    1HEX    H1J18936  13.047   8.878  17.168
    1HEX    H1K18937  12.929   8.839  17.292
    1HEX    H1M18938  12.795   9.263  17.204
    1HEX    H1N18939  12.954   9.249  17.131
    1HEX    H1O18940  13.068   9.309  17.346
    1HEX    H1P18941  12.919   9.301  17.433
    1HEX    H1R18942  12.701   8.712  17.054
    1HEX    H1S18943  12.726   8.690  17.224
    1HEX    H1T18944  12.880   8.320  16.935
    1HEX    H1U18945  12.718   8.258  16.925
    1HEX    H1V18946  12.717   8.203  17.166
    1HEX    H1W18947  12.867   8.287  17.195
    1HEX    H1Y18948  13.015   8.527  17.110
    1HEX    H1Z18949  12.954   8.551  17.260
    1HEX    H2018950  13.153   8.817  17.330
    1HEX    H2118951  13.284   8.711  17.336
    1HEX    H2218952  13.143   8.449   0.008
    1HEX    H2318953  13.183   8.492   0.172
    1HEX    H2418954  13.573   8.460  17.406
    1HEX    H2518955  13.627   8.429   0.128
    1HEX    H2618956  13.678   8.678   0.159
    1HEX    H2718957  13.638   8.704  17.431
    1HEX    H2918958  13.173   8.866   0.122
    1HEX    H2A18959  13.309   8.759   0.137
    1HEX    H2B18960  13.133   8.623   0.491
    1HEX    H2C18961  13.038   8.770   0.505
    1HEX    H2D18962  13.211   8.875   0.646
    1HEX    H2E18963  13.320   8.741   0.623
    1HEX    H2G18964  12.926   8.673  17.409
    1HEX    H2H18965  12.961   8.790   0.082
    1HEX    H2I18966  12.669   8.659   0.274
    1HEX    H2J18967  12.605   8.504   0.224
    1HEX    H2K18968  12.566   8.628  17.428
    1HEX    H2M18969  12.567   8.773   0.084
    1STR    S0018970  13.293   8.726  16.602
    1STR    S0E18971  12.937   9.514  17.325
    1STR    S0M18972  12.904   8.075  17.078
    1STR    S0X18973  13.851   8.588   0.012
    1STR    S1418974  13.138   8.678   0.769
    1STR    S1B18975  12.366   8.644   0.121
    1HEX    C0118976  13.275   8.478   3.644
    1HEX    C0218977  13.264   8.550   3.780
    1HEX    C0318978  13.121   8.547   3.831
    1HEX    O0418979  13.059   8.440   3.837
    1HEX    O0518980  13.074   8.668   3.868
    1HEX    C0618981  12.937   8.681   3.904
    1HEX    C0718982  12.910   8.680   4.058
    1HEX    C0818983  12.934   8.824   4.117
    1HEX    O0918984  12.871   8.949   4.083
    1HEX    C0A18985  12.890   9.054   4.174
    1HEX    O0B18986  12.914   9.037   4.293
    1HEX    C0C18987  12.886   9.198   4.116
    1HEX    C0D18988  12.862   9.313   4.221
    1HEX    C0F18989  12.766   8.620   4.079
    1HEX    O0G18990  12.775   8.476   4.094
    1HEX    C0H18991  12.728   8.387   4.004
    1HEX    O0I18992  12.646   8.413   3.916
    1HEX    C0J18993  12.795   8.248   4.014
    1HEX    C0K18994  12.739   8.149   4.121
    1HEX    C0N18995  13.009   8.581   4.134
    1HEX    O0O18996  13.141   8.625   4.168
    1HEX    C0P18997  13.171   8.705   4.285
    1HEX    C0Q18998  13.129   8.659   4.428
    1HEX    C0R18999  13.180   8.514   4.451
    1HEX    O0S19000  13.319   8.495   4.414
    1HEX    C0T19001  13.421   8.502   4.505
    1HEX    O0U19002  13.409   8.536   4.622
    1HEX    C0V19003  13.558   8.454   4.452
    1HEX    C0W19004  13.663   8.565   4.421
    1HEX    C0Y19005  13.199   8.755   4.528
    1HEX    O0Z19006  13.158   8.727   4.662
    1HEX    C1019007  13.208   8.801   4.762
    1HEX    O1119008  13.291   8.891   4.749
    1HEX    C1219009  13.148   8.765   4.898
    1HEX    C1319010  13.252   8.759   5.012
    1HEX    C1519011  12.974   8.683   4.448
    1HEX    O1619012  12.899   8.625   4.555
    1HEX    C1719013  12.789   8.552   4.524
    1HEX    O1819014  12.781   8.476   4.427
    1HEX    C1919015  12.666   8.578   4.612
    1HEX    C1A19016  12.554   8.652   4.531
    1HEX    H1D19017  13.343   8.394   3.651
    1HEX    H1E19018  13.179   8.436   3.612
    1HEX    H1F19019  13.296   8.654   3.774
    1HEX    H1G19020  13.326   8.501   3.854
    1HEX    H1H19021  12.879   8.603   3.854
    1HEX    H1I19022  12.900   8.774   3.861
    1HEX    H1J19023  13.038   8.846   4.095
    1HEX    H1K19024  12.924   8.814   4.224
    1HEX    H1M19025  12.808   9.200   4.040
    1HEX    H1N19026  12.980   9.214   4.064
    1HEX    H1O19027  12.836   9.271   4.318
    1HEX    H1P19028  12.774   9.372   4.191
    1HEX    H1R19029  12.698   8.648   3.999
    1HEX    H1S19030  12.721   8.659   4.170
    1HEX    H1T19031  12.901   8.267   4.032
    1HEX    H1U19032  12.790   8.202   3.915
    1HEX    H1V19033  12.641   8.113   4.092
    1HEX    H1W19034  12.727   8.199   4.217
    1HEX    H1Y19035  13.023   8.495   4.070
    1HEX    H1Z19036  12.964   8.531   4.219
    1HEX    H2019037  13.145   8.809   4.270
    1HEX    H2119038  13.280   8.708   4.283
    1HEX    H2219039  13.121   8.446   4.391
    1HEX    H2319040  13.163   8.484   4.555
    1HEX    H2419041  13.542   8.389   4.365
    1HEX    H2519042  13.597   8.389   4.530
    1HEX    H2619043  13.632   8.660   4.464
    1HEX    H2719044  13.669   8.581   4.313
    1HEX    H2919045  13.175   8.859   4.506
    1HEX    H2A19046  13.307   8.748   4.521
    1HEX    H2B19047  13.097   8.669   4.889
    1HEX    H2C19048  13.071   8.839   4.918
    1HEX    H2D19049  13.348   8.796   4.976
    1HEX    H2E19050  13.268   8.657   5.045
    1HEX    H2G19051  12.918   8.662   4.358
    1HEX    H2H19052  12.958   8.791   4.458
    1HEX    H2I19053  12.694   8.634   4.701
    1HEX    H2J19054  12.629   8.481   4.645
    1HEX    H2K19055  12.550   8.613   4.429
    1HEX    H2M19056  12.578   8.758   4.522
    1STR    S0019057  13.333   8.590   3.514
    1STR    S0E19058  13.002   9.431   4.252
    1STR    S0M19059  12.852   8.004   4.140
    1STR    S0X19060  13.832   8.524   4.484
    1STR    S1419061  13.208   8.863   5.157
    1STR    S1B19062  12.386   8.638   4.602
    1HEX    C0119063  13.323   8.633   7.968
    1HEX    C0219064  13.283   8.607   8.116
    1HEX    C0319065  13.134   8.595   8.141
    1HEX    O0419066  13.073   8.492   8.113
    1HEX    O0519067  13.083   8.704   8.202
    1HEX    C0619068  12.946   8.707   8.238
    1HEX    C0719069  12.922   8.684   8.390
    1HEX    C0819070  12.923   8.823   8.466
    1HEX    O0919071  12.867   8.950   8.425
    1HEX    C0A19072  12.877   9.053   8.519
    1HEX    O0B19073  12.893   9.033   8.640
    1HEX    C0C19074  12.876   9.199   8.467
    1HEX    C0D19075  12.878   9.307   8.582
    1HEX    C0F19076  12.788   8.601   8.404
    1HEX    O0G19077  12.817   8.459   8.394
    1HEX    C0H19078  12.775   8.380   8.294
    1HEX    O0I19079  12.684   8.409   8.216
    1HEX    C0J19080  12.857   8.249   8.277
    1HEX    C0K19081  12.855   8.146   8.395
    1HEX    C0N19082  13.032   8.589   8.455
    1HEX    O0O19083  13.160   8.639   8.496
    1HEX    C0P19084  13.184   8.707   8.621
    1HEX    C0Q19085  13.138   8.652   8.760
    1HEX    C0R19086  13.197   8.509   8.781
    1HEX    O0S19087  13.338   8.498   8.751
    1HEX    C0T19088  13.433   8.504   8.848
    1HEX    O0U19089  13.412   8.532   8.966
    1HEX    C0V19090  13.574   8.463   8.802
    1HEX    C0W19091  13.674   8.579   8.775
    1HEX    C0Y19092  13.201   8.748   8.864
    1HEX    O0Z19093  13.158   8.717   8.995
    1HEX    C1019094  13.213   8.781   9.098
    1HEX    O1119095  13.305   8.863   9.091
    1HEX    C1219096  13.144   8.747   9.229
    1HEX    C1319097  13.229   8.778   9.354
    1HEX    C1519098  12.981   8.664   8.774
    1HEX    O1619099  12.906   8.596   8.875
    1HEX    C1719100  12.782   8.544   8.841
    1HEX    O1819101  12.751   8.504   8.729
    1HEX    C1919102  12.678   8.542   8.954
    1HEX    C1A19103  12.545   8.617   8.918
    1HEX    H1D19104  13.288   8.532   7.950
    1HEX    H1E19105  13.279   8.732   7.971
    1HEX    H1F19106  13.322   8.685   8.180
    1HEX    H1G19107  13.328   8.514   8.152
    1HEX    H1H19108  12.890   8.635   8.178
    1HEX    H1I19109  12.905   8.804   8.208
    1HEX    H1J19110  13.028   8.852   8.465
    1HEX    H1K19111  12.891   8.806   8.568
    1HEX    H1M19112  12.790   9.214   8.401
    1HEX    H1N19113  12.965   9.211   8.405
    1HEX    H1O19114  12.959   9.285   8.652
    1HEX    H1P19115  12.787   9.299   8.642
    1HEX    H1R19116  12.712   8.633   8.331
    1HEX    H1S19117  12.742   8.618   8.501
    1HEX    H1T19118  12.959   8.281   8.257
    1HEX    H1U19119  12.822   8.201   8.186
    1HEX    H1V19120  12.757   8.097   8.400
    1HEX    H1W19121  12.868   8.197   8.490
    1HEX    H1Y19122  13.056   8.514   8.379
    1HEX    H1Z19123  12.994   8.523   8.532
    1HEX    H2019124  13.156   8.812   8.614
    1HEX    H2119125  13.293   8.713   8.623
    1HEX    H2219126  13.144   8.439   8.717
    1HEX    H2319127  13.176   8.476   8.883
    1HEX    H2419128  13.567   8.397   8.716
    1HEX    H2519129  13.613   8.402   8.884
    1HEX    H2619130  13.655   8.665   8.840
    1HEX    H2719131  13.663   8.615   8.673
    1HEX    H2919132  13.173   8.852   8.844
    1HEX    H2A19133  13.310   8.746   8.859
    1HEX    H2B19134  13.116   8.642   9.227
    1HEX    H2C19135  13.052   8.805   9.230
    1HEX    H2D19136  13.279   8.874   9.347
    1HEX    H2E19137  13.307   8.703   9.364
    1HEX    H2G19138  12.935   8.640   8.680
    1HEX    H2H19139  12.957   8.769   8.787
    1HEX    H2I19140  12.724   8.591   9.039
    1HEX    H2J19141  12.658   8.439   8.983
    1HEX    H2K19142  12.564   8.693   8.842
    1HEX    H2M19143  12.509   8.671   9.005
    1STR    S0019144  13.222   8.619   7.815
    1STR    S0E19145  12.894   9.485   8.532
    1STR    S0M19146  12.986   8.015   8.377
    1STR    S0X19147  13.848   8.523   8.801
    1STR    S1419148  13.118   8.777   9.498
    1STR    S1B19149  12.405   8.514   8.857
    1HEX    C0119150  13.373   8.610  12.410
    1HEX    C0219151  13.296   8.698  12.511
    1HEX    C0319152  13.150   8.659  12.526
    1HEX    O0419153  13.110   8.545  12.500
    1HEX    O0519154  13.076   8.760  12.576
    1HEX    C0619155  12.937   8.742  12.598
    1HEX    C0719156  12.904   8.719  12.748
    1HEX    C0819157  12.922   8.854  12.827
    1HEX    O0919158  12.874   8.987  12.795
    1HEX    C0A19159  12.903   9.085  12.891
    1HEX    O0B19160  12.934   9.057  13.007
    1HEX    C0C19161  12.899   9.234  12.847
    1HEX    C0D19162  12.968   9.330  12.953
    1HEX    C0F19163  12.759   8.659  12.755
    1HEX    O0G19164  12.764   8.515  12.746
    1HEX    C0H19165  12.725   8.445  12.638
    1HEX    O0I19166  12.657   8.489  12.546
    1HEX    C0J19167  12.781   8.301  12.634
    1HEX    C0K19168  12.680   8.190  12.673
    1HEX    C0N19169  13.000   8.609  12.812
    1HEX    O0O19170  13.132   8.640  12.862
    1HEX    C0P19171  13.163   8.711  12.985
    1HEX    C0Q19172  13.124   8.658  13.128
    1HEX    C0R19173  13.193   8.520  13.151
    1HEX    O0S19174  13.335   8.518  13.118
    1HEX    C0T19175  13.434   8.529  13.212
    1HEX    O0U19176  13.415   8.551  13.331
    1HEX    C0V19177  13.578   8.507  13.159
    1HEX    C0W19178  13.670   8.632  13.166
    1HEX    C0Y19179  13.182   8.759  13.229
    1HEX    O0Z19180  13.152   8.720  13.362
    1HEX    C1019181  13.209   8.787  13.463
    1HEX    O1119182  13.285   8.884  13.451
    1HEX    C1219183  13.170   8.732  13.600
    1HEX    C1319184  13.275   8.769  13.706
    1HEX    C1519185  12.967   8.665  13.139
    1HEX    O1619186  12.886   8.632  13.253
    1HEX    C1719187  12.764   8.573  13.227
    1HEX    O1819188  12.748   8.483  13.146
    1HEX    C1919189  12.641   8.633  13.298
    1HEX    C1A19190  12.539   8.692  13.195
    1HEX    H1D19191  13.479   8.616  12.433
    1HEX    H1E19192  13.345   8.507  12.425
    1HEX    H1F19193  13.304   8.804  12.487
    1HEX    H1G19194  13.338   8.683  12.610
    1HEX    H1H19195  12.898   8.660  12.537
    1HEX    H1I19196  12.885   8.831  12.562
    1HEX    H1J19197  13.029   8.872  12.822
    1HEX    H1K19198  12.894   8.833  12.930
    1HEX    H1M19199  12.795   9.262  12.830
    1HEX    H1N19200  12.950   9.243  12.751
    1HEX    H1O19201  13.075   9.313  12.955
    1HEX    H1P19202  12.933   9.301  13.052
    1HEX    H1R19203  12.693   8.702  12.679
    1HEX    H1S19204  12.712   8.683  12.850
    1HEX    H1T19205  12.872   8.295  12.693
    1HEX    H1U19206  12.812   8.284  12.531
    1HEX    H1V19207  12.660   8.125  12.588
    1HEX    H1W19208  12.585   8.237  12.699
    1HEX    H1Y19209  13.019   8.538  12.732
    1HEX    H1Z19210  12.950   8.541  12.879
    1HEX    H2019211  13.138   8.816  12.979
    1HEX    H2119212  13.272   8.714  12.982
    1HEX    H2219213  13.145   8.445  13.089
    1HEX    H2319214  13.178   8.487  13.254
    1HEX    H2419215  13.572   8.466  13.058
    1HEX    H2519216  13.621   8.428  13.221
    1HEX    H2619217  13.672   8.670  13.269
    1HEX    H2719218  13.628   8.712  13.105
    1HEX    H2919219  13.144   8.860  13.213
    1HEX    H2A19220  13.291   8.766  13.218
    1HEX    H2B19221  13.163   8.623  13.590
    1HEX    H2C19222  13.072   8.770  13.626
    1HEX    H2D19223  13.273   8.876  13.725
    1HEX    H2E19224  13.374   8.747  13.668
    1HEX    H2G19225  12.924   8.613  13.056
    1HEX    H2H19226  12.940   8.769  13.123
    1HEX    H2I19227  12.673   8.707  13.372
    1HEX    H2J19228  12.595   8.551  13.353
    1HEX    H2K19229  12.544   8.636  13.102
    1HEX    H2M19230  12.567   8.794  13.169
    1STR    S0019231  13.356   8.653  12.231
    1STR    S0E19232  12.936   9.513  12.946
    1STR    S0M19233  12.721   8.080  12.814
    1STR    S0X19234  13.845   8.603  13.110
    1STR    S1419235  13.252   8.680  13.864
    1STR    S1B19236  12.361   8.694  13.246
    1HEX    C0119237  13.340  12.935  16.718
    1HEX    C0219238  13.296  12.999  16.851
    1HEX    C0319239  13.158  12.954  16.897
    1HEX    O0419240  13.126  12.835  16.893
    1HEX    O0519241  13.082  13.055  16.943
    1HEX    C0619242  12.947  13.030  16.981
    1HEX    C0719243  12.926  13.022  17.135
    1HEX    C0819244  12.938  13.166  17.197
    1HEX    O0919245  12.874  13.289  17.156
    1HEX    C0A19246  12.883  13.394  17.247
    1HEX    O0B19247  12.890  13.378  17.369
    1HEX    C0C19248  12.895  13.536  17.188
    1HEX    C0D19249  12.903  13.652  17.295
    1HEX    C0F19250  12.789  12.949  17.161
    1HEX    O0G19251  12.807  12.806  17.178
    1HEX    C0H19252  12.776  12.716  17.081
    1HEX    O0I19253  12.713  12.743  16.979
    1HEX    C0J19254  12.836  12.574  17.100
    1HEX    C0K19255  12.835  12.509  17.242
    1HEX    C0N19256  13.035  12.931  17.205
    1HEX    O0O19257  13.162  12.986  17.245
    1HEX    C0P19258  13.183  13.063  17.365
    1HEX    C0Q19259  13.136  13.014   0.067
    1HEX    C0R19260  13.188  12.870   0.091
    1HEX    O0S19261  13.329  12.855   0.064
    1HEX    C0T19262  13.423  12.860   0.162
    1HEX    O0U19263  13.400  12.884   0.280
    1HEX    C0V19264  13.565  12.826   0.115
    1HEX    C0W19265  13.659  12.948   0.098
    1HEX    C0Y19266  13.201  13.110   0.171
    1HEX    O0Z19267  13.158  13.078   0.302
    1HEX    C1019268  13.212  13.144   0.406
    1HEX    O1119269  13.299  13.230   0.397
    1HEX    C1219270  13.149  13.104   0.539
    1HEX    C1319271  13.241  13.125   0.661
    1HEX    C1519272  12.981  13.032   0.079
    1HEX    O1619273  12.910  12.989   0.196
    1HEX    C1719274  12.788  12.930   0.177
    1HEX    O1819275  12.759  12.858   0.082
    1HEX    C1919276  12.682  12.968   0.281
    1HEX    C1A19277  12.572  13.057   0.216
    1HEX    H1D19278  13.448  12.925  16.717
    1HEX    H1E19279  13.301  12.834  16.709
    1HEX    H1F19280  13.300  13.108  16.846
    1HEX    H1G19281  13.364  12.969  16.931
    1HEX    H1H19282  12.909  12.941  16.931
    1HEX    H1I19283  12.887  13.112  16.940
    1HEX    H1J19284  13.042  13.194  17.182
    1HEX    H1K19285  12.919  13.155  17.302
    1HEX    H1M19286  12.813  13.554  17.119
    1HEX    H1N19287  12.986  13.536  17.128
    1HEX    H1O19288  12.938  13.616  17.391
    1HEX    H1P19289  12.803  13.691  17.314
    1HEX    H1R19290  12.716  12.971  17.082
    1HEX    H1S19291  12.742  12.986  17.252
    1HEX    H1T19292  12.939  12.579  17.063
    1HEX    H1U19293  12.783  12.509  17.031
    1HEX    H1V19294  12.734  12.508  17.284
    1HEX    H1W19295  12.895  12.568  17.312
    1HEX    H1Y19296  13.058  12.851  17.135
    1HEX    H1Z19297  12.997  12.873  17.288
    1HEX    H2019298  13.153  13.166  17.352
    1HEX    H2119299  13.292  13.070  17.368
    1HEX    H2219300  13.135  12.800   0.027
    1HEX    H2319301  13.165  12.838   0.193
    1HEX    H2419302  13.560  12.767   0.024
    1HEX    H2519303  13.605  12.760   0.192
    1HEX    H2619304  13.620  13.037   0.147
    1HEX    H2719305  13.669  12.972  17.432
    1HEX    H2919306  13.174  13.214   0.150
    1HEX    H2A19307  13.309  13.106   0.165
    1HEX    H2B19308  13.116  13.001   0.534
    1HEX    H2C19309  13.059  13.165   0.548
    1HEX    H2D19310  13.320  13.197   0.638
    1HEX    H2E19311  13.292  13.032   0.688
    1HEX    H2G19312  12.931  12.992  17.433
    1HEX    H2H19313  12.959  13.139   0.075
    1HEX    H2I19314  12.728  13.016   0.367
    1HEX    H2J19315  12.638  12.875   0.315
    1HEX    H2K19316  12.559  13.028   0.112
    1HEX    H2M19317  12.601  13.162   0.214
    1STR    S0019318  13.293  13.032  16.571
    1STR    S0E19319  13.014  13.793  17.249
    1STR    S0M19320  12.899  12.335  17.235
    1STR    S0X19321  13.828  12.914   0.165
    1STR    S1419322  13.152  13.192   0.806
    1STR    S1B19323  12.408  13.040   0.296
    1HEX    C0119324  13.258  12.922   3.588
    1HEX    C0219325  13.263  12.975   3.733
    1HEX    C0319326  13.127  12.958   3.800
    1HEX    O0419327  13.072  12.848   3.802
    1HEX    O0519328  13.077  13.073   3.850
    1HEX    C0619329  12.939  13.080   3.883
    1HEX    C0719330  12.908  13.067   4.035
    1HEX    C0819331  12.929  13.206   4.107
    1HEX    O0919332  12.870  13.336   4.081
    1HEX    C0A19333  12.890  13.433   4.182
    1HEX    O0B19334  12.918  13.405   4.298
    1HEX    C0C19335  12.881  13.584   4.143
    1HEX    C0D19336  12.932  13.680   4.259
    1HEX    C0F19337  12.763  13.005   4.045
    1HEX    O0G19338  12.771  12.861   4.028
    1HEX    C0H19339  12.711  12.794   3.927
    1HEX    O0I19340  12.626  12.842   3.852
    1HEX    C0J19341  12.767  12.652   3.902
    1HEX    C0K19342  12.760  12.547   4.018
    1HEX    C0N19343  13.001  12.958   4.104
    1HEX    O0O19344  13.136  12.991   4.142
    1HEX    C0P19345  13.172  13.067   4.258
    1HEX    C0Q19346  13.134  13.020   4.402
    1HEX    C0R19347  13.196  12.878   4.426
    1HEX    O0S19348  13.336  12.869   4.389
    1HEX    C0T19349  13.439  12.881   4.479
    1HEX    O0U19350  13.425  12.909   4.597
    1HEX    C0V19351  13.579  12.850   4.422
    1HEX    C0W19352  13.677  12.971   4.405
    1HEX    C0Y19353  13.202  13.119   4.500
    1HEX    O0Z19354  13.157  13.086   4.630
    1HEX    C1019355  13.208  13.147   4.735
    1HEX    O1119356  13.297  13.232   4.735
    1HEX    C1219357  13.136  13.103   4.861
    1HEX    C1319358  13.203  13.152   4.990
    1HEX    C1519359  12.978  13.039   4.424
    1HEX    O1619360  12.898  12.972   4.524
    1HEX    C1719361  12.786  12.906   4.480
    1HEX    O1819362  12.783  12.835   4.380
    1HEX    C1919363  12.655  12.936   4.557
    1HEX    C1A19364  12.550  13.004   4.463
    1HEX    H1D19365  13.343  12.856   3.569
    1HEX    H1E19366  13.170  12.860   3.573
    1HEX    H1F19367  13.294  13.080   3.737
    1HEX    H1G19368  13.334  12.918   3.792
    1HEX    H1H19369  12.885  13.004   3.825
    1HEX    H1I19370  12.901  13.174   3.845
    1HEX    H1J19371  13.034  13.229   4.088
    1HEX    H1K19372  12.916  13.188   4.212
    1HEX    H1M19373  12.778  13.606   4.116
    1HEX    H1N19374  12.941  13.599   4.053
    1HEX    H1O19375  13.038  13.663   4.276
    1HEX    H1P19376  12.883  13.652   4.352
    1HEX    H1R19377  12.695  13.051   3.973
    1HEX    H1S19378  12.719  13.024   4.143
    1HEX    H1T19379  12.871  12.665   3.871
    1HEX    H1U19380  12.715  12.612   3.815
    1HEX    H1V19381  12.657  12.530   4.049
    1HEX    H1W19382  12.813  12.584   4.106
    1HEX    H1Y19383  13.012  12.877   4.034
    1HEX    H1Z19384  12.951  12.902   4.183
    1HEX    H2019385  13.147  13.172   4.248
    1HEX    H2119386  13.281  13.068   4.252
    1HEX    H2219387  13.141  12.805   4.367
    1HEX    H2319388  13.182  12.848   4.530
    1HEX    H2419389  13.568  12.794   4.329
    1HEX    H2519390  13.624  12.780   4.493
    1HEX    H2619391  13.675  13.035   4.493
    1HEX    H2719392  13.645  13.033   4.321
    1HEX    H2919393  13.175  13.222   4.479
    1HEX    H2A19394  13.310  13.115   4.494
    1HEX    H2B19395  13.132  12.994   4.859
    1HEX    H2C19396  13.034  13.139   4.854
    1HEX    H2D19397  13.211  13.261   4.991
    1HEX    H2E19398  13.304  13.113   4.998
    1HEX    H2G19399  12.925  13.026   4.333
    1HEX    H2H19400  12.960  13.144   4.444
    1HEX    H2I19401  12.675  12.996   4.645
    1HEX    H2J19402  12.617  12.840   4.592
    1HEX    H2K19403  12.565  12.969   4.361
    1HEX    H2M19404  12.568  13.111   4.459
    1STR    S0019405  13.253  13.052   3.462
    1STR    S0E19406  12.905  13.864   4.242
    1STR    S0M19407  12.836  12.387   3.962
    1STR    S0X19408  13.851  12.916   4.373
    1STR    S1419409  13.103  13.095   5.130
    1STR    S1B19410  12.371  12.978   4.504
    1HEX    C0119411  13.311  12.909   8.039
    1HEX    C0219412  13.254  12.902   8.183
    1HEX    C0319413  13.104  12.915   8.189
    1HEX    O0419414  13.032  12.817   8.171
    1HEX    O0519415  13.066  13.038   8.228
    1HEX    C0619416  12.930  13.061   8.258
    1HEX    C0719417  12.901  13.055   8.411
    1HEX    C0819418  12.928  13.195   8.476
    1HEX    O0919419  12.875  13.325   8.439
    1HEX    C0A19420  12.904  13.431   8.527
    1HEX    O0B19421  12.934  13.415   8.645
    1HEX    C0C19422  12.903  13.573   8.466
    1HEX    C0D19423  12.869  13.692   8.564
    1HEX    C0F19424  12.755  13.001   8.427
    1HEX    O0G19425  12.756  12.856   8.432
    1HEX    C0H19426  12.709  12.777   8.333
    1HEX    O0I19427  12.632  12.813   8.244
    1HEX    C0J19428  12.770  12.635   8.334
    1HEX    C0K19429  12.701  12.530   8.425
    1HEX    C0N19430  12.995  12.949   8.484
    1HEX    O0O19431  13.130  12.983   8.522
    1HEX    C0P19432  13.167  13.063   8.637
    1HEX    C0Q19433  13.131  13.019   8.783
    1HEX    C0R19434  13.191  12.876   8.806
    1HEX    O0S19435  13.332  12.867   8.770
    1HEX    C0T19436  13.433  12.872   8.863
    1HEX    O0U19437  13.416  12.889   8.983
    1HEX    C0V19438  13.576  12.853   8.806
    1HEX    C0W19439  13.653  12.988   8.790
    1HEX    C0Y19440  13.202  13.117   8.880
    1HEX    O0Z19441  13.165  13.093   9.015
    1HEX    C1019442  13.222  13.167   9.113
    1HEX    O1119443  13.308  13.252   9.095
    1HEX    C1219444  13.166  13.136   9.252
    1HEX    C1319445  13.275  13.109   9.357
    1HEX    C1519446  12.976  13.041   8.803
    1HEX    O1619447  12.901  12.993   8.916
    1HEX    C1719448  12.781  12.932   8.889
    1HEX    O1819449  12.763  12.851   8.799
    1HEX    C1919450  12.661  12.980   8.974
    1HEX    C1A19451  12.535  13.001   8.885
    1HEX    H1D19452  13.400  12.848   8.036
    1HEX    H1E19453  13.333  13.013   8.018
    1HEX    H1F19454  13.298  12.980   8.245
    1HEX    H1G19455  13.281  12.808   8.232
    1HEX    H1H19456  12.868  12.989   8.203
    1HEX    H1I19457  12.901  13.157   8.216
    1HEX    H1J19458  13.034  13.213   8.458
    1HEX    H1K19459  12.913  13.184   8.583
    1HEX    H1M19460  12.829  13.572   8.386
    1HEX    H1N19461  12.999  13.591   8.418
    1HEX    H1O19462  12.821  13.651   8.653
    1HEX    H1P19463  12.795  13.758   8.520
    1HEX    H1R19464  12.688  13.037   8.348
    1HEX    H1S19465  12.711  13.035   8.521
    1HEX    H1T19466  12.874  12.647   8.361
    1HEX    H1U19467  12.771  12.599   8.231
    1HEX    H1V19468  12.631  12.469   8.367
    1HEX    H1W19469  12.643  12.577   8.504
    1HEX    H1Y19470  13.005  12.864   8.417
    1HEX    H1Z19471  12.946  12.894   8.565
    1HEX    H2019472  13.141  13.167   8.625
    1HEX    H2119473  13.276  13.065   8.630
    1HEX    H2219474  13.136  12.804   8.746
    1HEX    H2319475  13.176  12.845   8.910
    1HEX    H2419476  13.571  12.798   8.712
    1HEX    H2519477  13.631  12.790   8.876
    1HEX    H2619478  13.655  13.041   8.885
    1HEX    H2719479  13.594  13.050   8.722
    1HEX    H2919480  13.176  13.221   8.856
    1HEX    H2A19481  13.310  13.112   8.870
    1HEX    H2B19482  13.099  13.051   9.244
    1HEX    H2C19483  13.104  13.221   9.281
    1HEX    H2D19484  13.373  13.127   9.312
    1HEX    H2E19485  13.275  13.004   9.387
    1HEX    H2G19486  12.921  13.014   8.716
    1HEX    H2H19487  12.959  13.148   8.806
    1HEX    H2I19488  12.690  13.073   9.024
    1HEX    H2J19489  12.641  12.906   9.052
    1HEX    H2K19490  12.498  12.905   8.850
    1HEX    H2M19491  12.562  13.056   8.795
    1STR    S0019492  13.221  12.851   7.892
    1STR    S0E19493  13.006  13.802   8.628
    1STR    S0M19494  12.827  12.416   8.498
    1STR    S0X19495  13.825  12.982   8.720
    1STR    S1419496  13.268  13.214   9.507
    1STR    S1B19497  12.394  13.092   8.963
    1HEX    C0119498  13.318  12.959  12.323
    1HEX    C0219499  13.277  12.981  12.470
    1HEX    C0319500  13.134  12.947  12.507
    1HEX    O0419501  13.089  12.833  12.495
    1HEX    O0519502  13.069  13.053  12.561
    1HEX    C0619503  12.934  13.041  12.604
    1HEX    C0719504  12.919  13.028  12.758
    1HEX    C0819505  12.923  13.172  12.825
    1HEX    O0919506  12.856  13.294  12.786
    1HEX    C0A19507  12.873  13.402  12.875
    1HEX    O0B19508  12.912  13.388  12.991
    1HEX    C0C19509  12.845  13.547  12.824
    1HEX    C0D19510  12.889  13.656  12.928
    1HEX    C0F19511  12.788  12.945  12.784
    1HEX    O0G19512  12.816  12.802  12.786
    1HEX    C0H19513  12.779  12.718  12.687
    1HEX    O0I19514  12.698  12.747  12.599
    1HEX    C0J19515  12.851  12.581  12.686
    1HEX    C0K19516  12.872  12.505  12.821
    1HEX    C0N19517  13.034  12.939  12.823
    1HEX    O0O19518  13.159  12.997  12.862
    1HEX    C0P19519  13.180  13.068  12.986
    1HEX    C0Q19520  13.136  13.012  13.126
    1HEX    C0R19521  13.194  12.870  13.148
    1HEX    O0S19522  13.336  12.860  13.121
    1HEX    C0T19523  13.428  12.863  13.221
    1HEX    O0U19524  13.404  12.887  13.339
    1HEX    C0V19525  13.570  12.824  13.176
    1HEX    C0W19526  13.666  12.942  13.145
    1HEX    C0Y19527  13.198  13.108  13.231
    1HEX    O0Z19528  13.158  13.075  13.363
    1HEX    C1019529  13.214  13.138  13.466
    1HEX    O1119530  13.304  13.222  13.459
    1HEX    C1219531  13.151  13.098  13.599
    1HEX    C1319532  13.238  13.131  13.722
    1HEX    C1519533  12.980  13.023  13.141
    1HEX    O1619534  12.910  12.966  13.252
    1HEX    C1719535  12.785  12.913  13.230
    1HEX    O1819536  12.746  12.865  13.124
    1HEX    C1919537  12.688  12.925  13.348
    1HEX    C1A19538  12.558  13.002  13.311
    1HEX    H1D19539  13.367  12.863  12.314
    1HEX    H1E19540  13.392  13.035  12.294
    1HEX    H1F19541  13.293  13.085  12.498
    1HEX    H1G19542  13.341  12.922  12.536
    1HEX    H1H19543  12.887  12.957  12.552
    1HEX    H1I19544  12.881  13.129  12.569
    1HEX    H1J19545  13.027  13.203  12.814
    1HEX    H1K19546  12.902  13.158  12.930
    1HEX    H1M19547  12.739  13.556  12.800
    1HEX    H1N19548  12.900  13.561  12.731
    1HEX    H1O19549  12.998  13.651  12.940
    1HEX    H1P19550  12.850  13.630  13.027
    1HEX    H1R19551  12.709  12.970  12.713
    1HEX    H1S19552  12.745  12.970  12.882
    1HEX    H1T19553  12.947  12.597  12.637
    1HEX    H1U19554  12.794  12.517  12.618
    1HEX    H1V19555  12.780  12.503  12.879
    1HEX    H1W19556  12.945  12.557  12.883
    1HEX    H1Y19557  13.060  12.864  12.749
    1HEX    H1Z19558  13.001  12.875  12.903
    1HEX    H2019559  13.147  13.171  12.978
    1HEX    H2119560  13.289  13.078  12.989
    1HEX    H2219561  13.144  12.799  13.081
    1HEX    H2319562  13.172  12.835  13.249
    1HEX    H2419563  13.565  12.754  13.093
    1HEX    H2519564  13.611  12.766  13.260
    1HEX    H2619565  13.627  13.036  13.185
    1HEX    H2719566  13.674  12.955  13.037
    1HEX    H2919567  13.170  13.212  13.212
    1HEX    H2A19568  13.307  13.107  13.226
    1HEX    H2B19569  13.126  12.992  13.596
    1HEX    H2C19570  13.057  13.153  13.603
    1HEX    H2D19571  13.295  13.222  13.707
    1HEX    H2E19572  13.311  13.051  13.738
    1HEX    H2G19573  12.932  12.987  13.051
    1HEX    H2H19574  12.954  13.129  13.143
    1HEX    H2I19575  12.740  12.977  13.429
    1HEX    H2J19576  12.665  12.825  13.385
    1HEX    H2K19577  12.569  13.049  13.213
    1HEX    H2M19578  12.540  13.084  13.381
    1STR    S0019579  13.186  12.962  12.196
    1STR    S0E19580  12.841  13.835  12.903
    1STR    S0M19581  12.929  12.330  12.793
    1STR    S0X19582  13.834  12.914  13.216
    1STR    S1419583  13.131  13.155  13.869
    1STR    S1B19584  12.405  12.900  13.304
  17.44000  17.44000  17.44000
