My System
77184
    1STR   BCK1    1   0.454   9.083   9.280
    1STR    O03    2   0.437   9.114   0.076
    1STR    N04    3   0.485   8.953   9.254
    1STR    C05    4   0.536   8.877   9.148
    1STR    C06    5   0.552   8.927   9.017
    1STR    C07    6   0.670   8.895   8.946
    1STR    N08    7   0.707   8.979   8.842
    1STR    C09    8   0.821   9.042   8.815
    1STR    O0A    9   0.931   9.015   8.863
    1STR    O0B   10   0.793   9.147   8.733
    1STR    C0C   11   0.856   9.274   8.746
    1STR    C0D   12   0.935   9.288   8.615
    1STR    C0E   13   0.769   0.085   8.770
    1STR    O0F   14   0.649   0.093   8.850
    1STR    C0G   15   0.603   0.226   8.883
    1STR    C0H   16   0.456   0.234   8.922
    1STR    C0I   17   0.670   0.282   9.006
    1STR    O0J   18   0.669   0.422   8.994
    1STR    C0K   19   1.602   9.073   0.533
    1STR    C0M   20   1.740   9.079   0.465
    1STR    C0N   21   1.562   8.928   0.557
    1STR    O0O   22   1.589   8.858   0.436
    1STR    C0P   23   1.671   8.755   0.439
    1STR    O0Q   24   1.704   8.695   0.541
    1STR    N0R   25   1.717   8.717   0.321
    1STR    C0S   26   1.708   8.768   0.192
    1STR    C0T   27   1.671   8.678   0.091
    1STR    C0U   28   1.687   8.710   9.276
    1STR    C0V   29   1.739   8.834   9.239
    1STR    C0W   30   1.738   8.878   9.095
    1STR    C0X   31   1.783   8.923   0.018
    1STR    N0Y   32   1.850   9.034   9.290
    1STR   BCK2   33   1.824   9.162   9.303
    1STR    O10   34   1.888   9.244   9.238
    1STR    C13   35   1.768   8.891   0.155
    1STR    C14   36   0.751   8.789   8.988
    1STR    C15   37   0.716   8.717   9.103
    1STR    C16   38   0.611   8.763   9.185
    1STR    C17   39   0.599   8.703   0.003
    1STR    H1B   40   0.490   8.907   0.023
    1STR    H1C   41   0.491   9.010   8.984
    1STR    H1D   42   0.631   9.014   8.784
    1STR    H1E   43   0.923   9.266   8.831
    1STR    H1F   44   0.870   9.286   8.528
    1STR    H1G   45   0.993   0.060   8.611
    1STR    H1H   46   1.002   9.203   8.601
    1STR    H1I   47   0.743   0.129   8.676
    1STR    H1J   48   0.839   0.158   8.809
    1STR    H1K   49   0.620   0.291   8.798
    1STR    H1M   50   0.433   0.157   8.996
    1STR    H1N   51   0.392   0.233   8.835
    1STR    H1O   52   0.432   0.325   8.975
    1STR    H1P   53   0.624   0.245   9.097
    1STR    H1Q   54   0.769   0.249   9.011
    1STR   C010   55   0.699   0.493   9.112
    1STR   H011   56   0.776   0.445   9.167
    1STR   C012   57   0.764   0.620   9.057
    1STR   H013   58   0.710   0.658   8.971
    1STR   H014   59   0.864   0.597   9.019
    1STR   H015   60   0.777   0.698   9.132
    1STR   C016   61   0.585   0.491   9.216
    1STR   H017   62   0.589   0.570   9.290
    1STR   H018   63   0.487   0.487   9.170
    1STR   O019   64   0.613   0.378   9.292
    1STR   C020   65   0.510   0.323   0.048
    1STR   H021   66   0.415   0.342   0.004
    1STR   C022   67   0.547   0.176   0.024
    1STR   H023   68   0.498   0.137   9.255
    1STR   H024   69   0.530   0.113   0.110
    1STR   H025   70   0.650   0.159   9.319
    1STR   C026   71   0.511   0.368   0.196
    1STR   H027   72   0.413   0.370   0.242
    1STR   H028   73   0.553   0.284   0.246
    1STR   O029   74   0.583   0.490   0.218
    1STR   C030   75   0.661   0.515   0.338
    1STR   H031   76   0.747   0.452   0.342
    1STR   C032   77   0.722   0.654   0.328
    1STR   H033   78   0.664   0.734   0.372
    1STR   H034   79   0.737   0.679   0.223
    1STR   H035   80   0.816   0.655   0.381
    1STR   C036   81   0.600   0.491   0.475
    1STR   H037   82   0.675   0.505   0.553
    1STR   H038   83   0.525   0.563   0.499
    1STR   O039   84   0.539   0.365   0.482
    1STR   C040   85   0.617   0.248   0.474
    1STR   H041   86   0.686   0.246   0.390
    1STR   C042   87   0.704   0.239   0.600
    1STR   H043   88   0.764   0.327   0.618
    1STR   H044   89   0.777   0.161   0.587
    1STR   H045   90   0.646   0.218   0.688
    1STR   C046   91   0.503   0.145   0.454
    1STR   H047   92   0.464   0.121   0.550
    1STR   H048   93   0.418   0.194   0.407
    1STR   O049   94   0.520   0.032   0.367
    1STR   C050   95   0.627   9.265   0.394
    1STR   H051   96   0.704   0.014   0.382
    1STR   C052   97   0.648   9.220   0.538
    1STR   H053   98   0.573   9.156   0.579
    1STR   H054   99   0.662   9.304   0.603
    1STR   H055  100   0.736   9.159   0.546
    1STR   C056  101   0.642   9.143   0.300
    1STR   H057  102   0.699   9.069   0.355
    1STR   H058  103   0.547   9.099   0.282
    1STR   O059  104   0.695   9.155   0.170
    1STR   C060  105   0.792   9.058   0.127
    1STR   H061  106   0.886   9.101   0.153
    1STR   C062  107   0.799   8.922   0.196
    1STR   H063  108   0.701   8.888   0.227
    1STR   H064  109   0.860   8.928   0.287
    1STR   H065  110   0.843   8.848   0.130
    1STR   C066  111   0.798   9.050   9.295
    1STR   H067  112   0.891   9.004   9.261
    1STR   H068  113   0.721   8.990   9.254
    1STR   O069  114   0.783   9.182   9.252
    1STR   C070  115   0.816   9.210   9.118
    1STR   H071  116   0.890   9.142   9.076
    1STR   C072  117   0.685   9.215   9.046
    1STR   H073  118   0.625   9.302   9.068
    1STR   H074  119   0.634   9.131   9.082
    1STR   H075  120   0.691   9.209   8.939
    1STR   C076  121   0.864   0.029   9.131
    1STR   H077  122   0.775   0.085   9.154
    1STR   H078  123   0.927   0.035   9.219
    1STR   O079  124   0.928   0.089   9.022
    1STR   C080  125   0.997   0.208   9.058
    1STR   H081  126   1.093   0.169   9.083
    1STR   C082  127   1.006   0.301   8.933
    1STR   H083  128   0.912   0.338   8.895
    1STR   H084  129   1.056   0.249   8.851
    1STR   H085  130   1.062   0.392   8.954
    1STR   C086  131   0.961   0.286   9.188
    1STR   H087  132   1.049   0.296   9.247
    1STR   H088  133   0.955   0.388   9.158
    1STR   O089  134   0.853   0.243   9.275
    1STR   C090  135   0.882   0.209   0.091
    1STR   H091  136   0.986   0.220   0.094
    1STR   C092  137   0.831   0.323   0.166
    1STR   H093  138   0.729   0.308   0.162
    1STR   H094  139   0.851   0.421   0.126
    1STR   H095  140   0.859   0.310   0.270
    1STR   C096  141   0.838   0.078   0.171
    1STR   H097  142   0.731   0.075   0.179
    1STR   H098  143   0.862   9.311   0.113
    1STR   O099  144   0.893   0.068   0.309
    1STR   C100  145   0.938   9.267   0.377
    1STR   H101  146   0.870   9.187   0.358
    1STR   C102  147   1.065   9.216   0.325
    1STR   H103  148   1.145   9.288   0.331
    1STR   H104  149   1.048   9.181   0.226
    1STR   H105  150   1.097   9.129   0.379
    1STR   C106  151   0.966   9.266   0.530
    1STR   H107  152   1.060   9.314   0.555
    1STR   H108  153   0.891   9.318   0.586
    1STR   O109  154   0.959   9.128   0.575
    1STR   C110  155   1.078   9.067   0.625
    1STR   H111  156   1.166   9.105   0.573
    1STR   C112  157   1.089   9.105   0.772
    1STR   H113  158   1.001   9.071   0.827
    1STR   H114  159   1.097   9.213   0.784
    1STR   H115  160   1.177   9.059   0.817
    1STR   C116  161   1.072   8.913   0.606
    1STR   H117  162   1.169   8.872   0.637
    1STR   H118  163   0.998   8.870   0.672
    1STR   O119  164   1.043   8.874   0.472
    1STR   C120  165   1.084   8.742   0.436
    1STR   H121  166   1.183   8.718   0.477
    1STR   C122  167   0.983   8.639   0.484
    1STR   H123  168   0.890   8.654   0.429
    1STR   H124  169   0.962   8.648   0.591
    1STR   H125  170   1.016   8.537   0.464
    1STR   C126  171   1.096   8.731   0.283
    1STR   H127  172   1.102   8.626   0.255
    1STR   H128  173   1.007   8.766   0.233
    1STR   O129  174   1.210   8.797   0.230
    1STR   C130  175   1.209   8.937   0.243
    1STR   H131  176   1.106   8.968   0.261
    1STR   C132  177   1.309   8.972   0.352
    1STR   H133  178   1.409   8.946   0.317
    1STR   H134  179   1.290   8.919   0.443
    1STR   H135  180   1.310   9.079   0.373
    1STR   C136  181   1.252   9.005   0.116
    1STR   H137  182   1.355   8.979   0.102
    1STR   H138  183   1.196   8.964   0.033
    1STR   O139  184   1.244   9.146   0.138
    1STR   C140  185   1.208   9.237   0.035
    1STR   H141  186   1.292   9.245   9.289
    1STR   C142  187   1.101   9.181   9.264
    1STR   H143  188   1.009   9.179   9.318
    1STR   H144  189   1.113   9.084   9.219
    1STR   H145  190   1.094   9.248   9.180
    1STR   C146  191   1.153   0.057   0.085
    1STR   H147  192   1.138   0.116   9.316
    1STR   H148  193   1.058   0.032   0.120
    1STR   O149  194   1.209   0.143   0.191
    1STR   C150  195   1.137   0.242   0.270
    1STR   H151  196   1.043   0.203   0.282
    1STR   C152  197   1.175   0.238   0.418
    1STR   H153  198   1.239   0.322   0.441
    1STR   H154  199   1.223   0.145   0.445
    1STR   H155  200   1.087   0.250   0.480
    1STR   C156  201   1.104   0.391   0.231
    1STR   H157  202   1.023   0.422   0.295
    1STR   H158  203   1.180   0.449   0.272
    1STR   O159  204   1.081   0.440   0.097
    1STR   C160  205   1.089   0.581   0.069
    1STR   H161  206   1.193   0.604   0.050
    1STR   C162  207   1.030   0.612   9.253
    1STR   H163  208   0.925   0.585   9.255
    1STR   H164  209   1.080   0.559   9.172
    1STR   H165  210   1.036   0.718   9.228
    1STR   C166  211   1.029   0.682   0.172
    1STR   H167  212   1.071   0.781   0.155
    1STR   H168  213   0.924   0.695   0.146
    1STR   O169  214   1.035   0.644   0.310
    1STR   C170  215   1.112   0.719   0.402
    1STR   H171  216   1.159   0.803   0.352
    1STR   C172  217   1.014   0.781   0.502
    1STR   H173  218   0.959   0.704   0.556
    1STR   H174  219   0.942   0.845   0.451
    1STR   H175  220   1.066   0.842   0.576
    1STR   C176  221   1.217   0.629   0.475
    1STR   H177  222   1.270   0.688   0.549
    1STR   H178  223   1.164   0.552   0.532
    1STR   O179  224   1.317   0.559   0.398
    1STR   C180  225   1.351   0.613   0.272
    1STR   H181  226   1.263   0.651   0.228
    1STR   C182  227   1.424   0.745   0.299
    1STR   H183  228   1.507   0.729   0.367
    1STR   H184  229   1.364   0.818   0.352
    1STR   H185  230   1.453   0.795   0.207
    1STR   C186  231   1.404   0.511   0.162
    1STR   H187  232   1.401   0.562   0.066
    1STR   H188  233   1.506   0.496   0.186
    1STR   O189  234   1.345   0.378   0.142
    1STR   C190  235   1.365   0.295   0.023
    1STR   H191  236   1.463   0.303   0.049
    1STR   C192  237   1.403   0.146   0.004
    1STR   H193  238   1.358   0.105   9.234
    1STR   H194  239   1.393   0.080   0.088
    1STR   H195  240   1.504   0.121   9.308
    1STR   C196  241   1.311   0.346   9.209
    1STR   H197  242   1.232   0.276   9.193
    1STR   H198  243   1.268   0.445   9.216
    1STR   O199  244   1.398   0.331   9.098
    1STR   C200  245   1.340   0.273   8.981
    1STR   H201  246   1.235   0.289   8.985
    1STR   C202  247   1.380   0.360   8.861
    1STR   H203  248   1.487   0.362   8.845
    1STR   H204  249   1.348   0.463   8.877
    1STR   H205  250   1.332   0.325   8.770
    1STR   C206  251   1.358   0.119   8.961
    1STR   H207  252   1.371   0.104   8.854
    1STR   H208  253   1.445   0.081   9.011
    1STR   O209  254   1.249   0.039   9.008
    1STR   C210  255   1.218   9.234   8.944
    1STR   H211  256   1.122   9.200   8.982
    1STR   C212  257   1.191   9.255   8.795
    1STR   H213  258   1.278   9.274   8.733
    1STR   H214  259   1.126   0.021   8.784
    1STR   H215  260   1.143   9.165   8.756
    1STR   C216  261   1.317   9.121   8.970
    1STR   H217  262   1.315   9.047   8.890
    1STR   H218  263   1.415   9.166   8.969
    1STR   O219  264   1.296   9.047   9.091
    1STR   C220  265   1.419   9.000   9.144
    1STR   H221  266   1.480   8.984   9.056
    1STR   C222  267   1.489   9.112   9.222
    1STR   H223  268   1.463   9.123   0.006
    1STR   H224  269   1.475   9.210   9.178
    1STR   H225  270   1.595   9.096   9.222
    1STR   C226  271   1.426   8.862   9.211
    1STR   H227  272   1.493   8.808   9.146
    1STR   H228  273   1.480   8.868   9.306
    1STR   O229  274   1.310   8.778   9.225
    1STR   C230  275   1.346   8.642   9.253
    1STR   H231  276   1.443   8.617   9.211
    1STR   C232  277   1.361   8.609   0.081
    1STR   H233  278   1.265   8.589   0.126
    1STR   H234  279   1.409   8.690   0.136
    1STR   H235  280   1.421   8.519   0.096
    1STR   C236  281   1.245   8.548   9.184
    1STR   H237  282   1.275   8.444   9.199
    1STR   H238  283   1.148   8.559   9.232
    1STR   O239  284   1.227   8.573   9.045
    1STR   C240  285   1.344   8.598   8.967
    1STR   H241  286   1.397   8.680   9.012
    1STR   C242  287   1.434   8.473   8.960
    1STR   H243  288   1.382   8.391   8.910
    1STR   H244  289   1.463   8.438   9.059
    1STR   H245  290   1.526   8.492   8.906
    1STR   C246  291   1.299   8.654   8.832
    1STR   H247  292   1.292   8.577   8.755
    1STR   H248  293   1.199   8.696   8.842
    1STR   O249  294   1.380   8.764   8.789
    1STR   C250  295   1.520   8.742   8.777
    1STR   H251  296   1.564   8.708   8.870
    1STR   C252  297   1.550   8.642   8.664
    1STR   H253  298   1.507   8.677   8.570
    1STR   H254  299   1.510   8.544   8.684
    1STR   H255  300   1.657   8.631   8.649
    1STR   C256  301   1.583   8.876   8.745
    1STR   H257  302   1.688   8.856   8.728
    1STR   H258  303   1.540   8.915   8.652
    1STR   O259  304   1.573   8.972   8.850
    1STR   C260  305   1.627   9.097   8.810
    1STR   H261  306   1.707   9.074   8.742
    1STR   C262  307   1.525   9.175   8.726
    1STR   H263  308   1.478   9.251   8.787
    1STR   H264  309   1.446   9.112   8.687
    1STR   H265  310   1.568   9.227   8.641
    1STR   C266  311   1.704   9.177   8.918
    1STR   H267  312   1.778   9.118   8.970
    1STR   H268  313   1.764   9.241   8.855
    1STR   O269  314   1.635   9.261   9.012
    1STR   C270  315   1.705   0.065   9.026
    1STR   H271  316   1.810   0.046   9.042
    1STR   C272  317   1.673   0.138   8.895
    1STR   H273  318   1.590   0.097   8.839
    1STR   H274  319   1.757   0.138   8.828
    1STR   H275  320   1.644   0.241   8.914
    1STR   C276  321   1.678   0.168   9.134
    1STR   H277  322   1.744   0.248   9.101
    1STR   H278  323   1.576   0.199   9.126
    1STR   O279  324   1.711   0.157   9.270
    1STR   C280  325   1.694   0.281   0.023
    1STR   H281  326   1.800   0.298   0.026
    1STR   C282  327   1.630   0.408   9.263
    1STR   H283  328   1.530   0.442   9.267
    1STR   H284  329   1.632   0.406   9.155
    1STR   H285  330   1.661   0.505   9.293
    1STR   C286  331   1.658   0.262   0.177
    1STR   H287  332   1.751   0.256   0.231
    1STR   H288  333   1.613   0.346   0.224
    1STR   O289  334   1.587   0.145   0.218
    1STR   C290  335   1.485   0.150   0.320
    1STR   H291  336   1.406   0.210   0.279
    1STR   C292  337   1.433   0.005   0.333
    1STR   H293  338   1.350   9.305   0.269
    1STR   H294  339   1.398   9.300   0.433
    1STR   H295  340   1.508   9.253   0.300
    1STR   C296  341   1.512   0.218   0.456
    1STR   H297  342   1.584   0.299   0.450
    1STR   H298  343   1.424   0.270   0.490
    1STR   O299  344   1.534   0.128   0.563
    1STR   C300  345   1.647   0.046   0.548
    1STR   H301  346   1.643   9.309   0.457
    1STR   C302  347   1.767   0.135   0.530
    1STR   H303  348   1.770   0.211   0.608
    1STR   H304  349   1.765   0.189   0.436
    1STR   H305  350   1.858   0.075   0.525
    1STR   C306  351   1.654   9.270   0.669
    1STR   H307  352   1.756   9.247   0.691
    1STR   H308  353   1.618   0.000   0.759
    1STR   O309  354   1.587   9.144   0.656
    1STR    H1R  355   1.530   9.114   0.463
    1STR    H1S  356   1.791   8.984   0.461
    1STR    H1T  357   1.810   9.151   0.506
    1STR    H1U  358   1.723   9.106   0.361
    1STR    H1V  359   1.457   8.921   0.582
    1STR    H1W  360   1.618   8.890   0.642
    1STR    H1X  361   1.767   8.630   0.328
    1STR    H1Y  362   1.636   8.579   0.117
    1STR    H1Z  363   1.658   8.641   9.199
    1STR    H20  364   1.683   8.970   9.088
    1STR    H21  365   1.835   8.906   9.057
    1STR    H22  366   1.688   8.807   9.030
    1STR    H23  367   1.943   9.018   9.249
    1STR    H27  368   1.811   8.956   0.229
    1STR    H28  369   0.841   8.764   8.934
    1STR    H29  370   0.778   8.635   9.135
    1STR    H2A  371   0.497   8.689   0.035
    1STR    H2B  372   0.641   8.772   0.073
    1STR    H2C  373   0.653   8.609   0.012
    1STR   BCK1  374   0.416   9.251   2.098
    1STR    O03  375   0.350   9.270   2.198
    1STR    N04  376   0.440   0.023   2.003
    1STR    C05  377   0.449   0.160   2.029
    1STR    C06  378   0.482   0.195   2.160
    1STR    C07  379   0.542   0.314   2.191
    1STR    N08  380   0.592   0.327   2.316
    1STR    C09  381   0.666   0.419   2.373
    1STR    O0A  382   0.741   0.492   2.309
    1STR    O0B  383   0.627   0.439   2.501
    1STR    C0C  384   0.575   0.344   2.594
    1STR    C0D  385   0.499   0.412   2.703
    1STR    C0E  386   0.518   0.206   2.551
    1STR    O0F  387   0.617   0.133   2.483
    1STR    C0G  388   0.592   0.005   2.432
    1STR    C0H  389   0.674   0.006   2.305
    1STR    C0I  390   0.648   9.211   2.520
    1STR    O0J  391   0.671   9.094   2.440
    1STR    C0K  392   1.649   0.472   1.945
    1STR    C0M  393   1.698   0.581   2.041
    1STR    C0N  394   1.645   0.332   2.008
    1STR    O0O  395   1.775   0.298   2.043
    1STR    C0P  396   1.863   0.253   1.955
    1STR    O0Q  397   1.839   0.217   1.840
    1STR    N0R  398   1.985   0.251   2.007
    1STR    C0S  399   2.008   0.321   2.125
    1STR    C0T  400   1.992   0.459   2.120
    1STR    C0U  401   1.967   0.529   2.238
    1STR    C0V  402   1.957   0.465   2.361
    1STR    C0W  403   1.939   0.549   2.484
    1STR    C0X  404   1.977   0.327   2.368
    1STR    N0Y  405   1.966   0.266   2.491
    1STR   BCK2  406   1.947   0.139   2.522
    1STR    O10  407   1.912   0.055   2.443
    1STR    C13  408   2.010   0.257   2.250
    1STR    C14  409   0.546   0.413   2.096
    1STR    C15  410   0.493   0.392   1.970
    1STR    C16  411   0.448   0.266   1.933
    1STR    C17  412   0.400   0.261   1.792
    1STR    H1B  413   0.489   9.313   1.920
    1STR    H1C  414   0.472   0.128   2.242
    1STR    H1D  415   0.582   0.250   2.383
    1STR    H1E  416   0.661   0.330   2.651
    1STR    H1F  417   0.393   0.396   2.690
    1STR    H1G  418   0.523   0.373   2.800
    1STR    H1H  419   0.525   0.517   2.709
    1STR    H1I  420   0.428   0.217   2.492
    1STR    H1J  421   0.496   0.147   2.638
    1STR    H1K  422   0.488   9.311   2.406
    1STR    H1M  423   0.686   0.099   2.252
    1STR    H1N  424   0.633   9.255   2.237
    1STR    H1O  425   0.773   9.295   2.328
    1STR    H1P  426   0.734   9.244   2.574
    1STR    H1Q  427   0.575   9.185   2.596
    1STR   C010  428   0.804   9.053   2.416
    1STR   H011  429   0.871   9.136   2.428
    1STR   C012  430   0.826   8.947   2.522
    1STR   H013  431   0.749   8.871   2.523
    1STR   H014  432   0.826   8.992   2.621
    1STR   H015  433   0.920   8.899   2.502
    1STR   C016  434   0.836   9.004   2.273
    1STR   H017  435   0.944   9.014   2.260
    1STR   H018  436   0.815   8.898   2.263
    1STR   O019  437   0.766   9.080   2.175
    1STR   C020  438   0.818   9.092   2.044
    1STR   H021  439   0.925   9.094   2.059
    1STR   C022  440   0.780   8.970   1.960
    1STR   H023  441   0.674   8.967   1.938
    1STR   H024  442   0.806   8.878   2.013
    1STR   H025  443   0.834   8.970   1.866
    1STR   C026  444   0.781   9.231   1.979
    1STR   H027  445   0.739   9.295   2.056
    1STR   H028  446   0.876   9.279   1.958
    1STR   O029  447   0.690   9.241   1.867
    1STR   C030  448   0.751   9.278   1.743
    1STR   H031  449   0.858   9.274   1.756
    1STR   C032  450   0.719   9.164   1.645
    1STR   H033  451   0.617   9.170   1.611
    1STR   H034  452   0.735   9.067   1.689
    1STR   H035  453   0.781   9.171   1.555
    1STR   C036  454   0.721   0.096   1.675
    1STR   H037  455   0.791   0.098   1.592
    1STR   H038  456   0.622   0.093   1.631
    1STR   O039  457   0.734   0.221   1.747
    1STR   C040  458   0.783   0.336   1.671
    1STR   H041  459   0.886   0.316   1.643
    1STR   C042  460   0.703   0.349   1.541
    1STR   H043  461   0.598   0.366   1.564
    1STR   H044  462   0.714   0.263   1.476
    1STR   H045  463   0.740   0.434   1.484
    1STR   C046  464   0.776   0.478   1.740
    1STR   H047  465   0.787   0.554   1.662
    1STR   H048  466   0.677   0.496   1.780
    1STR   O049  467   0.879   0.518   1.832
    1STR   C050  468   0.838   0.521   1.969
    1STR   H051  469   0.748   0.580   1.981
    1STR   C052  470   0.806   0.377   1.997
    1STR   H053  471   0.720   0.337   1.947
    1STR   H054  472   0.799   0.354   2.103
    1STR   H055  473   0.877   0.318   1.947
    1STR   C056  474   0.945   0.572   2.069
    1STR   H057  475   0.969   0.493   2.141
    1STR   H058  476   1.037   0.597   2.017
    1STR   O059  477   0.901   0.682   2.148
    1STR   C060  478   0.988   0.723   2.254
    1STR   H061  479   1.063   0.649   2.276
    1STR   C062  480   1.056   0.853   2.208
    1STR   H063  481   0.982   0.931   2.193
    1STR   H064  482   1.108   0.837   2.113
    1STR   H065  483   1.129   0.887   2.281
    1STR   C066  484   0.917   0.741   2.390
    1STR   H067  485   0.956   0.826   2.444
    1STR   H068  486   0.812   0.759   2.371
    1STR   O069  487   0.932   0.625   2.471
    1STR   C070  488   0.885   0.631   2.607
    1STR   H071  489   0.962   0.681   2.665
    1STR   C072  490   0.754   0.709   2.624
    1STR   H073  491   0.676   0.668   2.560
    1STR   H074  492   0.765   0.814   2.598
    1STR   H075  493   0.720   0.705   2.727
    1STR   C076  494   0.872   0.486   2.664
    1STR   H077  495   0.954   0.461   2.730
    1STR   H078  496   0.785   0.479   2.729
    1STR   O079  497   0.865   0.394   2.555
    1STR   C080  498   0.895   0.257   2.573
    1STR   H081  499   0.990   0.266   2.617
    1STR   C082  500   0.831   0.181   2.689
    1STR   H083  501   0.868   0.082   2.707
    1STR   H084  502   0.730   0.150   2.675
    1STR   H085  503   0.843   0.238   2.780
    1STR   C086  504   0.894   0.183   2.435
    1STR   H087  505   0.899   0.077   2.455
    1STR   H088  506   0.803   0.206   2.386
    1STR   O089  507   0.987   0.220   2.335
    1STR   C090  508   1.029   0.128   2.233
    1STR   H091  509   1.132   0.155   2.234
    1STR   C092  510   1.025   9.298   2.254
    1STR   H093  511   0.932   9.254   2.224
    1STR   H094  512   1.051   9.270   2.356
    1STR   H095  513   1.097   9.252   2.187
    1STR   C096  514   0.983   0.167   2.094
    1STR   H097  515   0.876   0.149   2.087
    1STR   H098  516   1.004   0.272   2.097
    1STR   O099  517   1.054   0.106   1.985
    1STR   C100  518   1.045   0.162   1.851
    1STR   H101  519   0.939   0.162   1.831
    1STR   C102  520   1.102   0.306   1.841
    1STR   H103  521   1.209   0.313   1.836
    1STR   H104  522   1.076   0.371   1.924
    1STR   H105  523   1.067   0.356   1.752
    1STR   C106  524   1.106   0.077   1.736
    1STR   H107  525   1.075   0.121   1.641
    1STR   H108  526   1.214   0.082   1.737
    1STR   O109  527   1.076   9.258   1.736
    1STR   C110  528   1.082   9.187   1.612
    1STR   H111  529   1.000   9.225   1.550
    1STR   C112  530   1.211   9.207   1.532
    1STR   H113  531   1.297   9.223   1.598
    1STR   H114  532   1.201   9.290   1.463
    1STR   H115  533   1.234   9.121   1.470
    1STR   C116  534   1.057   9.037   1.635
    1STR   H117  535   0.971   9.021   1.700
    1STR   H118  536   1.030   8.991   1.540
    1STR   O119  537   1.174   8.970   1.680
    1STR   C120  538   1.184   8.937   1.818
    1STR   H121  539   1.290   8.915   1.831
    1STR   C122  540   1.151   9.053   1.912
    1STR   H123  541   1.048   9.083   1.900
    1STR   H124  542   1.209   9.140   1.888
    1STR   H125  543   1.169   9.029   2.017
    1STR   C126  544   1.106   8.810   1.854
    1STR   H127  545   1.000   8.822   1.832
    1STR   H128  546   1.144   8.726   1.795
    1STR   O129  547   1.127   8.786   1.993
    1STR   C130  548   1.047   8.688   2.055
    1STR   H131  549   0.942   8.704   2.031
    1STR   C132  550   1.088   8.547   2.009
    1STR   H133  551   1.190   8.524   2.040
    1STR   H134  552   1.081   8.535   1.901
    1STR   H135  553   1.024   8.472   2.054
    1STR   C136  554   1.065   8.710   2.206
    1STR   H137  555   1.170   8.725   2.233
    1STR   H138  556   1.015   8.801   2.237
    1STR   O139  557   1.015   8.597   2.274
    1STR   C140  558   0.971   8.616   2.408
    1STR   H141  559   0.895   8.694   2.413
    1STR   C142  560   0.905   8.482   2.441
    1STR   H143  561   0.969   8.399   2.414
    1STR   H144  562   0.811   8.472   2.387
    1STR   H145  563   0.883   8.473   2.547
    1STR   C146  564   1.085   8.646   2.508
    1STR   H147  565   1.047   8.621   2.608
    1STR   H148  566   1.169   8.581   2.490
    1STR   O149  567   1.129   8.782   2.506
    1STR   C150  568   1.129   8.849   2.633
    1STR   H151  569   1.031   8.845   2.681
    1STR   C152  570   1.233   8.784   2.725
    1STR   H153  571   1.332   8.791   2.682
    1STR   H154  572   1.213   8.679   2.745
    1STR   H155  573   1.236   8.834   2.822
    1STR   C156  574   1.168   8.997   2.611
    1STR   H157  575   1.211   9.035   2.701
    1STR   H158  576   1.251   8.990   2.541
    1STR   O159  577   1.074   9.091   2.556
    1STR   C160  578   1.030   9.207   2.632
    1STR   H161  579   0.935   9.234   2.590
    1STR   C162  580   1.001   9.161   2.773
    1STR   H163  581   1.090   9.140   2.830
    1STR   H164  582   0.940   9.071   2.775
    1STR   H165  583   0.953   9.242   2.825
    1STR   C166  584   1.101   0.027   2.641
    1STR   H167  585   1.062   0.088   2.722
    1STR   H168  586   1.190   0.006   2.685
    1STR   O169  587   1.136   0.116   2.534
    1STR   C170  588   1.213   0.233   2.575
    1STR   H171  589   1.202   0.242   2.682
    1STR   C172  590   1.358   0.217   2.551
    1STR   H173  591   1.387   0.240   2.450
    1STR   H174  592   1.404   0.127   2.585
    1STR   H175  593   1.397   0.296   2.609
    1STR   C176  594   1.178   0.375   2.518
    1STR   H177  595   1.252   0.411   2.449
    1STR   H178  596   1.091   0.376   2.455
    1STR   O179  597   1.150   0.472   2.619
    1STR   C180  598   1.249   0.516   2.710
    1STR   H181  599   1.345   0.469   2.694
    1STR   C182  600   1.266   0.666   2.684
    1STR   H183  601   1.178   0.722   2.716
    1STR   H184  602   1.278   0.686   2.578
    1STR   H185  603   1.352   0.707   2.736
    1STR   C186  604   1.198   0.489   2.854
    1STR   H187  605   1.266   0.536   2.925
    1STR   H188  606   1.104   0.542   2.867
    1STR   O189  607   1.172   0.351   2.887
    1STR   C190  608   1.286   0.278   2.931
    1STR   H191  609   1.367   0.310   2.864
    1STR   C192  610   1.316   0.319   3.076
    1STR   H193  611   1.227   0.307   3.138
    1STR   H194  612   1.348   0.423   3.085
    1STR   H195  613   1.395   0.259   3.119
    1STR   C196  614   1.271   0.123   2.919
    1STR   H197  615   1.305   0.076   3.011
    1STR   H198  616   1.166   0.096   2.908
    1STR   O199  617   1.352   0.074   2.811
    1STR   C200  618   1.372   9.253   2.786
    1STR   H201  619   1.472   9.259   2.811
    1STR   C202  620   1.345   9.154   2.901
    1STR   H203  621   1.250   9.168   2.949
    1STR   H204  622   1.418   9.167   2.980
    1STR   H205  623   1.355   9.050   2.868
    1STR   C206  624   1.390   9.202   2.634
    1STR   H207  625   1.471   9.256   2.592
    1STR   H208  626   1.416   9.097   2.633
    1STR   O209  627   1.299   9.218   2.524
    1STR   C210  628   1.343   9.205   2.388
    1STR   H211  629   1.444   9.171   2.386
    1STR   C212  630   1.272   9.093   2.309
    1STR   H213  631   1.166   9.088   2.329
    1STR   H214  632   1.313   8.995   2.334
    1STR   H215  633   1.286   9.104   2.202
    1STR   C216  634   1.343   0.024   2.320
    1STR   H217  635   1.265   0.083   2.363
    1STR   H218  636   1.434   0.078   2.340
    1STR   O219  637   1.315   0.028   2.182
    1STR   C220  638   1.362   0.139   2.106
    1STR   H221  639   1.468   0.145   2.105
    1STR   C222  640   1.330   0.089   1.971
    1STR   H223  641   1.327   0.166   1.897
    1STR   H224  642   1.249   0.019   1.965
    1STR   H225  643   1.409   0.027   1.942
    1STR   C226  644   1.318   0.285   2.121
    1STR   H227  645   1.355   0.336   2.032
    1STR   H228  646   1.211   0.300   2.116
    1STR   O229  647   1.374   0.350   2.234
    1STR   C230  648   1.397   0.490   2.216
    1STR   H231  649   1.481   0.503   2.151
    1STR   C232  650   1.278   0.560   2.153
    1STR   H233  651   1.188   0.515   2.195
    1STR   H234  652   1.274   0.546   2.045
    1STR   H235  653   1.278   0.667   2.172
    1STR   C236  654   1.435   0.555   2.349
    1STR   H237  655   1.506   0.635   2.333
    1STR   H238  656   1.348   0.602   2.394
    1STR   O239  657   1.481   0.456   2.439
    1STR   C240  658   1.608   0.473   2.494
    1STR   H241  659   1.677   0.493   2.412
    1STR   C242  660   1.603   0.588   2.595
    1STR   H243  661   1.552   0.559   2.686
    1STR   H244  662   1.548   0.673   2.556
    1STR   H245  663   1.703   0.624   2.621
    1STR   C246  664   1.647   0.338   2.557
    1STR   H247  665   1.623   0.254   2.491
    1STR   H248  666   1.754   0.337   2.564
    1STR   O249  667   1.591   0.320   2.688
    1STR   C250  668   1.660   0.232   2.772
    1STR   H251  669   1.758   0.274   2.759
    1STR   C252  670   1.612   0.244   2.917
    1STR   H253  671   1.520   0.189   2.929
    1STR   H254  672   1.597   0.347   2.949
    1STR   H255  673   1.675   0.191   2.988
    1STR   C256  674   1.676   0.084   2.741
    1STR   H257  675   1.771   0.070   2.780
    1STR   H258  676   1.635   0.024   2.819
    1STR   O259  677   1.664   0.037   2.606
    1STR   C260  678   1.704   9.222   2.572
    1STR   H261  679   1.810   9.221   2.571
    1STR   C262  680   1.666   9.110   2.670
    1STR   H263  681   1.606   9.033   2.622
    1STR   H264  682   1.614   9.141   2.757
    1STR   H265  683   1.753   9.060   2.711
    1STR   C266  684   1.686   9.187   2.424
    1STR   H267  685   1.781   9.161   2.380
    1STR   H268  686   1.626   9.099   2.408
    1STR   O269  687   1.634   9.300   2.360
    1STR   C270  688   1.657   9.319   2.222
    1STR   H271  689   1.615   0.097   2.214
    1STR   C272  690   1.799   0.030   2.193
    1STR   H273  691   1.870   9.277   2.232
    1STR   H274  692   1.812   0.125   2.241
    1STR   H275  693   1.817   0.046   2.088
    1STR   C276  694   1.593   9.224   2.119
    1STR   H277  695   1.630   9.124   2.132
    1STR   H278  696   1.488   9.212   2.137
    1STR   O279  697   1.617   9.286   1.991
    1STR   C280  698   1.585   9.219   1.868
    1STR   H281  699   1.670   9.156   1.849
    1STR   C282  700   1.473   9.116   1.874
    1STR   H283  701   1.404   9.134   1.956
    1STR   H284  702   1.514   9.017   1.893
    1STR   H285  703   1.417   9.112   1.781
    1STR   C286  704   1.576   0.002   1.750
    1STR   H287  705   1.667   0.062   1.751
    1STR   H288  706   1.571   9.263   1.660
    1STR   O289  707   1.463   0.088   1.728
    1STR   C290  708   1.479   0.191   1.629
    1STR   H291  709   1.547   0.158   1.553
    1STR   C292  710   1.348   0.225   1.560
    1STR   H293  711   1.278   0.272   1.628
    1STR   H294  712   1.303   0.137   1.518
    1STR   H295  713   1.364   0.294   1.478
    1STR   C296  714   1.534   0.317   1.694
    1STR   H297  715   1.474   0.325   1.784
    1STR   H298  716   1.639   0.303   1.719
    1STR   O299  717   1.514   0.432   1.613
    1STR   C300  718   1.571   0.554   1.662
    1STR   H301  719   1.678   0.541   1.670
    1STR   C302  720   1.547   0.660   1.555
    1STR   H303  721   1.441   0.675   1.537
    1STR   H304  722   1.593   0.631   1.461
    1STR   H305  723   1.591   0.755   1.584
    1STR   C306  724   1.510   0.602   1.797
    1STR   H307  725   1.557   0.696   1.827
    1STR   H308  726   1.405   0.624   1.782
    1STR   O309  727   1.519   0.508   1.903
    1STR    H1R  728   1.719   0.465   1.862
    1STR    H1S  729   1.724   0.538   2.137
    1STR    H1T  730   1.620   0.654   2.059
    1STR    H1U  731   1.785   0.633   2.001
    1STR    H1V  732   1.603   0.253   1.945
    1STR    H1W  733   1.589   0.329   2.101
    1STR    H1X  734   2.058   0.204   1.954
    1STR    H1Y  735   1.991   0.512   2.026
    1STR    H1Z  736   1.961   0.635   2.233
    1STR    H20  737   1.886   0.501   2.564
    1STR    H21  738   2.041   0.568   2.515
    1STR    H22  739   1.890   0.644   2.464
    1STR    H23  740   1.960   0.325   2.575
    1STR    H27  741   2.022   0.151   2.254
    1STR    H28  742   0.606   0.499   2.115
    1STR    H29  743   0.503   0.470   1.898
    1STR    H2A  744   0.297   0.234   1.799
    1STR    H2B  745   0.462   0.197   1.732
    1STR    H2C  746   0.400   0.359   1.744
    1STR   BCK1  747   0.327   0.294   4.944
    1STR    O03  748   0.331   0.411   4.979
    1STR    N04  749   0.300   0.187   5.017
    1STR    C05  750   0.339   0.137   5.141
    1STR    C06  751   0.319   0.000   5.157
    1STR    C07  752   0.391   9.244   5.251
    1STR    N08  753   0.398   9.107   5.230
    1STR    C09  754   0.465   9.014   5.296
    1STR    O0A  755   0.510   9.026   5.409
    1STR    O0B  756   0.486   8.907   5.219
    1STR    C0C  757   0.588   8.814   5.252
    1STR    C0D  758   0.561   8.728   5.376
    1STR    C0E  759   0.648   8.742   5.129
    1STR    O0F  760   0.635   8.821   5.011
    1STR    C0G  761   0.704   8.781   4.893
    1STR    C0H  762   0.692   8.632   4.869
    1STR    C0I  763   0.650   8.866   4.776
    1STR    O0J  764   0.734   8.962   4.711
    1STR    C0K  765   1.871   0.254   4.856
    1STR    C0M  766   1.955   0.375   4.842
    1STR    C0N  767   1.755   0.276   4.948
    1STR    O0O  768   1.736   0.174   5.045
    1STR    C0P  769   1.686   0.058   5.012
    1STR    O0Q  770   1.621   0.035   4.912
    1STR    N0R  771   1.720   9.288   5.103
    1STR    C0S  772   1.707   9.150   5.104
    1STR    C0T  773   1.711   9.076   5.223
    1STR    C0U  774   1.687   8.937   5.222
    1STR    C0V  775   1.664   8.871   5.101
    1STR    C0W  776   1.618   8.727   5.104
    1STR    C0X  777   1.685   8.942   4.979
    1STR    N0Y  778   1.694   8.875   4.859
    1STR   BCK2  779   1.754   8.891   4.741
    1STR    O10  780   1.751   8.794   4.670
    1STR    C13  781   1.697   9.080   4.985
    1STR    C14  782   0.461   9.314   5.350
    1STR    C15  783   0.466   0.134   5.348
    1STR    C16  784   0.414   0.205   5.239
    1STR    C17  785   0.437   0.352   5.231
    1STR    H1B  786   0.257   0.119   4.957
    1STR    H1C  787   0.253   9.268   5.091
    1STR    H1D  788   0.368   9.076   5.138
    1STR    H1E  789   0.665   8.879   5.285
    1STR    H1F  790   0.458   8.695   5.382
    1STR    H1G  791   0.626   8.641   5.380
    1STR    H1H  792   0.579   8.786   5.467
    1STR    H1I  793   0.599   8.646   5.112
    1STR    H1J  794   0.753   8.720   5.144
    1STR    H1K  795   0.806   8.801   4.914
    1STR    H1M  796   0.591   8.605   4.893
    1STR    H1N  797   0.758   8.575   4.934
    1STR    H1O  798   0.714   8.604   4.766
    1STR    H1P  799   0.592   8.807   4.705
    1STR    H1Q  800   0.579   8.931   4.824
    1STR   C010  801   0.824   8.927   4.606
    1STR   H011  802   0.918   8.898   4.653
    1STR   C012  803   0.779   8.809   4.517
    1STR   H013  804   0.688   8.832   4.463
    1STR   H014  805   0.763   8.718   4.574
    1STR   H015  806   0.854   8.786   4.442
    1STR   C016  807   0.849   9.052   4.518
    1STR   H017  808   0.941   9.042   4.462
    1STR   H018  809   0.776   9.054   4.439
    1STR   O019  810   0.854   9.179   4.588
    1STR   C020  811   0.769   9.282   4.543
    1STR   H021  812   0.774   9.287   4.436
    1STR   C022  813   0.643   9.226   4.597
    1STR   H023  814   0.571   9.304   4.593
    1STR   H024  815   0.659   9.186   4.697
    1STR   H025  816   0.608   9.144   4.539
    1STR   C026  817   0.787   0.107   4.594
    1STR   H027  818   0.777   0.109   4.702
    1STR   H028  819   0.884   0.147   4.573
    1STR   O029  820   0.695   0.193   4.525
    1STR   C030  821   0.703   0.334   4.550
    1STR   H031  822   0.807   0.363   4.556
    1STR   C032  823   0.633   0.411   4.438
    1STR   H033  824   0.554   0.352   4.394
    1STR   H034  825   0.699   0.446   4.359
    1STR   H035  826   0.587   0.503   4.473
    1STR   C036  827   0.639   0.379   4.680
    1STR   H037  828   0.668   0.479   4.707
    1STR   H038  829   0.533   0.386   4.663
    1STR   O039  830   0.647   0.284   4.782
    1STR   C040  831   0.731   0.316   4.887
    1STR   H041  832   0.832   0.323   4.849
    1STR   C042  833   0.679   0.440   4.960
    1STR   H043  834   0.709   0.442   5.064
    1STR   H044  835   0.571   0.449   4.954
    1STR   H045  836   0.721   0.529   4.916
    1STR   C046  837   0.718   0.196   4.976
    1STR   H047  838   0.626   0.206   5.034
    1STR   H048  839   0.716   0.102   4.922
    1STR   O049  840   0.834   0.198   5.052
    1STR   C050  841   0.820   0.165   5.186
    1STR   H051  842   0.921   0.149   5.217
    1STR   C052  843   0.771   0.284   5.266
    1STR   H053  844   0.667   0.299   5.248
    1STR   H054  845   0.823   0.376   5.244
    1STR   H055  846   0.783   0.262   5.370
    1STR   C056  847   0.739   0.039   5.211
    1STR   H057  848   0.722   0.031   5.317
    1STR   H058  849   0.641   0.042   5.166
    1STR   O059  850   0.812   9.248   5.165
    1STR   C060  851   0.745   9.125   5.180
    1STR   H061  852   0.683   9.129   5.268
    1STR   C062  853   0.668   9.115   5.047
    1STR   H063  854   0.733   9.088   4.964
    1STR   H064  855   0.619   9.208   5.019
    1STR   H065  856   0.588   9.042   5.050
    1STR   C066  857   0.851   9.015   5.197
    1STR   H067  858   0.841   8.947   5.113
    1STR   H068  859   0.945   9.064   5.193
    1STR   O069  860   0.865   8.942   5.320
    1STR   C070  861   0.967   8.841   5.325
    1STR   H071  862   1.036   8.880   5.399
    1STR   C072  863   0.911   8.712   5.386
    1STR   H073  864   0.853   8.654   5.315
    1STR   H074  865   0.848   8.733   5.472
    1STR   H075  866   0.992   8.647   5.419
    1STR   C076  867   1.052   8.814   5.198
    1STR   H077  868   1.103   8.907   5.178
    1STR   H078  869   1.130   8.742   5.219
    1STR   O079  870   0.983   8.772   5.079
    1STR   C080  871   1.056   8.804   4.959
    1STR   H081  872   1.160   8.804   4.989
    1STR   C082  873   1.045   8.688   4.859
    1STR   H083  874   0.948   8.681   4.811
    1STR   H084  875   1.066   8.593   4.907
    1STR   H085  876   1.117   8.700   4.778
    1STR   C086  877   1.018   8.944   4.899
    1STR   H087  878   1.073   8.967   4.807
    1STR   H088  879   0.916   8.955   4.868
    1STR   O089  880   1.034   9.044   4.996
    1STR   C090  881   1.069   9.175   4.956
    1STR   H091  882   1.159   9.163   4.897
    1STR   C092  883   0.959   9.237   4.871
    1STR   H093  884   0.872   9.264   4.931
    1STR   H094  885   0.924   9.166   4.798
    1STR   H095  886   0.992   0.008   4.820
    1STR   C096  887   1.099   9.266   5.080
    1STR   H097  888   1.190   0.003   5.063
    1STR   H098  889   1.020   0.019   5.087
    1STR   O099  890   1.117   9.201   5.206
    1STR   C100  891   1.075   9.270   5.324
    1STR   H101  892   0.968   9.282   5.322
    1STR   C102  893   1.100   9.179   5.444
    1STR   H103  894   1.018   9.108   5.455
    1STR   H104  895   1.111   9.235   5.536
    1STR   H105  896   1.191   9.122   5.432
    1STR   C106  897   1.134   0.092   5.341
    1STR   H107  898   1.229   0.089   5.393
    1STR   H108  899   1.150   0.131   5.242
    1STR   O109  900   1.040   0.180   5.403
    1STR   C110  901   1.072   0.319   5.408
    1STR   H111  902   0.979   0.371   5.432
    1STR   C112  903   1.164   0.335   5.529
    1STR   H113  904   1.259   0.284   5.515
    1STR   H114  905   1.117   0.292   5.618
    1STR   H115  906   1.184   0.440   5.550
    1STR   C116  907   1.127   0.386   5.278
    1STR   H117  908   1.157   0.488   5.300
    1STR   H118  909   1.217   0.335   5.247
    1STR   O119  910   1.038   0.395   5.166
    1STR   C120  911   1.102   0.416   5.039
    1STR   H121  912   1.194   0.469   5.057
    1STR   C122  913   1.132   0.278   4.980
    1STR   H123  914   1.045   0.214   4.972
    1STR   H124  915   1.207   0.226   5.038
    1STR   H125  916   1.170   0.286   4.879
    1STR   C126  917   1.019   0.504   4.943
    1STR   H127  918   0.917   0.479   4.962
    1STR   H128  919   1.030   0.608   4.972
    1STR   O129  920   1.053   0.484   4.804
    1STR   C130  921   0.978   0.552   4.702
    1STR   H131  922   0.873   0.529   4.716
    1STR   C132  923   1.000   0.704   4.711
    1STR   H133  924   1.106   0.728   4.707
    1STR   H134  925   0.958   0.745   4.802
    1STR   H135  926   0.951   0.753   4.627
    1STR   C136  927   1.025   0.497   4.564
    1STR   H137  928   1.130   0.522   4.553
    1STR   H138  929   1.020   0.389   4.572
    1STR   O139  930   0.950   0.542   4.449
    1STR   C140  931   0.988   0.481   4.323
    1STR   H141  932   1.096   0.473   4.322
    1STR   C142  933   0.933   0.340   4.305
    1STR   H143  934   0.837   0.341   4.259
    1STR   H144  935   0.923   0.285   4.398
    1STR   H145  936   0.996   0.281   4.238
    1STR   C146  937   0.947   0.559   4.195
    1STR   H147  938   0.936   0.489   4.112
    1STR   H148  939   0.847   0.599   4.202
    1STR   O149  940   1.040   0.660   4.157
    1STR   C150  941   1.123   0.626   4.045
    1STR   H151  942   1.062   0.603   3.958
    1STR   C152  943   1.208   0.750   4.016
    1STR   H153  944   1.268   0.777   4.103
    1STR   H154  945   1.144   0.835   3.991
    1STR   H155  946   1.275   0.732   3.932
    1STR   C156  947   1.211   0.505   4.081
    1STR   H157  948   1.262   0.530   4.174
    1STR   H158  949   1.148   0.418   4.098
    1STR   O159  950   1.309   0.471   3.984
    1STR   C160  951   1.369   0.343   4.007
    1STR   H161  952   1.296   0.264   3.986
    1STR   C162  953   1.483   0.332   3.907
    1STR   H163  954   1.560   0.406   3.927
    1STR   H164  955   1.448   0.347   3.805
    1STR   H165  956   1.530   0.234   3.912
    1STR   C166  957   1.420   0.323   4.151
    1STR   H167  958   1.485   0.235   4.157
    1STR   H168  959   1.481   0.408   4.179
    1STR   O169  960   1.309   0.304   4.238
    1STR   C170  961   1.337   0.313   4.376
    1STR   H171  962   1.430   0.262   4.392
    1STR   C172  963   1.359   0.459   4.421
    1STR   H173  964   1.277   0.526   4.398
    1STR   H174  965   1.446   0.504   4.374
    1STR   H175  966   1.375   0.464   4.528
    1STR   C176  967   1.223   0.242   4.454
    1STR   H177  968   1.220   0.277   4.557
    1STR   H178  969   1.131   0.271   4.411
    1STR   O179  970   1.226   0.099   4.446
    1STR   C180  971   1.116   0.019   4.493
    1STR   H181  972   1.067   0.082   4.565
    1STR   C182  973   1.029   0.001   4.366
    1STR   H183  974   0.981   9.225   4.361
    1STR   H184  975   1.089   0.010   4.275
    1STR   H185  976   0.952   0.076   4.358
    1STR   C186  977   1.143   9.208   4.583
    1STR   H187  978   1.168   9.246   4.680
    1STR   H188  979   1.061   9.148   4.609
    1STR   O189  980   1.243   9.107   4.567
    1STR   C190  981   1.237   8.999   4.474
    1STR   H191  982   1.338   8.960   4.483
    1STR   C192  983   1.156   8.875   4.511
    1STR   H193  984   1.058   8.873   4.467
    1STR   H194  985   1.149   8.865   4.619
    1STR   H195  986   1.207   8.786   4.475
    1STR   C196  987   1.223   9.053   4.332
    1STR   H197  988   1.278   8.994   4.259
    1STR   H198  989   1.119   9.053   4.300
    1STR   O199  990   1.268   9.187   4.336
    1STR   C200  991   1.403   9.211   4.367
    1STR   H201  992   1.438   9.111   4.385
    1STR   C202  993   1.437   9.262   4.226
    1STR   H203  994   1.391   0.039   4.211
    1STR   H204  995   1.394   9.197   4.149
    1STR   H205  996   1.541   9.267   4.200
    1STR   C206  997   1.452   9.300   4.492
    1STR   H207  998   1.555   9.277   4.510
    1STR   H208  999   1.455   0.083   4.465
    1STR   O209 1000   1.414   9.291   4.631
    1STR   C210 1001   1.368   0.088   4.705
    1STR   H211 1002   1.271   0.115   4.670
    1STR   C212 1003   1.340   0.046   4.848
    1STR   H213 1004   1.234   0.033   4.858
    1STR   H214 1005   1.368   0.121   4.921
    1STR   H215 1006   1.394   9.277   4.874
    1STR   C216 1007   1.450   0.217   4.706
    1STR   H217 1008   1.543   0.194   4.756
    1STR   H218 1009   1.477   0.249   4.607
    1STR   O219 1010   1.371   0.320   4.770
    1STR   C220 1011   1.437   0.424   4.843
    1STR   H221 1012   1.528   0.445   4.788
    1STR   C222 1013   1.361   0.557   4.836
    1STR   H223 1014   1.264   0.551   4.881
    1STR   H224 1015   1.347   0.588   4.733
    1STR   H225 1016   1.414   0.635   4.890
    1STR   C226 1017   1.480   0.384   4.986
    1STR   H227 1018   1.501   0.277   4.984
    1STR   H228 1019   1.569   0.444   5.004
    1STR   O229 1020   1.408   0.399   5.107
    1STR   C230 1021   1.482   0.343   5.217
    1STR   H231 1022   1.590   0.347   5.198
    1STR   C232 1023   1.465   0.433   5.340
    1STR   H233 1024   1.364   0.436   5.377
    1STR   H234 1025   1.494   0.536   5.318
    1STR   H235 1026   1.528   0.398   5.423
    1STR   C236 1027   1.449   0.193   5.238
    1STR   H237 1028   1.349   0.170   5.205
    1STR   H238 1029   1.508   0.133   5.171
    1STR   O239 1030   1.465   0.153   5.374
    1STR   C240 1031   1.531   0.028   5.393
    1STR   H241 1032   1.612   0.017   5.322
    1STR   C242 1033   1.595   0.038   5.532
    1STR   H243 1034   1.518   0.039   5.609
    1STR   H244 1035   1.652   0.130   5.541
    1STR   H245 1036   1.662   9.275   5.553
    1STR   C246 1037   1.442   9.222   5.389
    1STR   H247 1038   1.505   9.138   5.417
    1STR   H248 1039   1.368   9.231   5.468
    1STR   O249 1040   1.377   9.196   5.265
    1STR   C250 1041   1.387   9.061   5.215
    1STR   H251 1042   1.487   9.053   5.195
    1STR   C252 1043   1.349   8.946   5.311
    1STR   H253 1044   1.243   8.947   5.335
    1STR   H254 1045   1.404   8.948   5.404
    1STR   H255 1046   1.370   8.850   5.263
    1STR   C256 1047   1.339   9.041   5.072
    1STR   H257 1048   1.234   9.031   5.077
    1STR   H258 1049   1.364   9.130   5.015
    1STR   O259 1050   1.392   8.924   5.009
    1STR   C260 1051   1.365   8.908   4.869
    1STR   H261 1052   1.261   8.921   4.850
    1STR   C262 1053   1.425   9.018   4.781
    1STR   H263 1054   1.514   9.063   4.820
    1STR   H264 1055   1.353   9.098   4.772
    1STR   H265 1056   1.448   8.985   4.680
    1STR   C266 1057   1.396   8.765   4.824
    1STR   H267 1058   1.492   8.736   4.863
    1STR   H268 1059   1.327   8.694   4.870
    1STR   O269 1060   1.388   8.754   4.682
    1STR   C270 1061   1.480   8.663   4.624
    1STR   H271 1062   1.568   8.651   4.687
    1STR   C272 1063   1.415   8.525   4.617
    1STR   H273 1064   1.330   8.525   4.549
    1STR   H274 1065   1.380   8.493   4.715
    1STR   H275 1066   1.487   8.451   4.582
    1STR   C276 1067   1.530   8.717   4.488
    1STR   H277 1068   1.619   8.661   4.459
    1STR   H278 1069   1.454   8.699   4.411
    1STR   O279 1070   1.558   8.857   4.490
    1STR   C280 1071   1.653   8.907   4.395
    1STR   H281 1072   1.750   8.861   4.415
    1STR   C282 1073   1.597   8.873   4.256
    1STR   H283 1074   1.490   8.891   4.254
    1STR   H284 1075   1.615   8.769   4.229
    1STR   H285 1076   1.640   8.938   4.180
    1STR   C286 1077   1.666   9.060   4.411
    1STR   H287 1078   1.621   9.104   4.325
    1STR   H288 1079   1.616   9.085   4.504
    1STR   O289 1080   1.791   9.125   4.412
    1STR   C290 1081   1.805   9.259   4.357
    1STR   H291 1082   1.903   9.289   4.390
    1STR   C292 1083   1.816   9.240   4.212
    1STR   H293 1084   1.731   9.192   4.166
    1STR   H294 1085   1.902   9.176   4.207
    1STR   H295 1086   1.836   0.014   4.160
    1STR   C296 1087   1.723   0.067   4.378
    1STR   H297 1088   1.766   0.138   4.309
    1STR   H298 1089   1.624   0.066   4.337
    1STR   O299 1090   1.719   0.125   4.507
    1STR   C300 1091   1.769   0.257   4.505
    1STR   H301 1092   1.873   0.253   4.475
    1STR   C302 1093   1.690   0.357   4.421
    1STR   H303 1094   1.745   0.451   4.416
    1STR   H304 1095   1.596   0.380   4.469
    1STR   H305 1096   1.671   0.327   4.318
    1STR   C306 1097   1.774   0.312   4.643
    1STR   H307 1098   1.836   0.399   4.633
    1STR   H308 1099   1.678   0.346   4.678
    1STR   O309 1100   1.833   0.214   4.726
    1STR    H1R 1101   1.928   0.180   4.906
    1STR    H1S 1102   2.002   0.400   4.934
    1STR    H1T 1103   1.884   0.453   4.824
    1STR    H1U 1104   2.031   0.367   4.764
    1STR    H1V 1105   1.672   0.284   4.882
    1STR    H1W 1106   1.765   0.370   5.002
    1STR    H1X 1107   1.775   0.010   5.178
    1STR    H1Y 1108   1.721   9.123   5.319
    1STR    H1Z 1109   1.681   8.884   5.316
    1STR    H20 1110   1.641   8.673   5.013
    1STR    H21 1111   1.662   8.674   5.189
    1STR    H22 1112   1.510   8.724   5.117
    1STR    H23 1113   1.645   8.788   4.857
    1STR    H27 1114   1.694   9.133   4.893
    1STR    H28 1115   0.518   9.263   5.424
    1STR    H29 1116   0.519   0.185   5.425
    1STR    H2A 1117   0.341   0.394   5.206
    1STR    H2B 1118   0.504   0.377   5.150
    1STR    H2C 1119   0.474   0.394   5.324
    1STR   BCK1 1120   0.482   0.348   7.232
    1STR    O03 1121   0.589   0.406   7.234
    1STR    N04 1122   0.393   0.360   7.134
    1STR    C05 1123   0.408   0.409   7.004
    1STR    C06 1124   0.475   0.528   6.965
    1STR    C07 1125   0.484   0.562   6.827
    1STR    N08 1126   0.574   0.658   6.781
    1STR    C09 1127   0.586   0.709   6.657
    1STR    O0A 1128   0.496   0.711   6.574
    1STR    O0B 1129   0.703   0.766   6.630
    1STR    C0C 1130   0.830   0.713   6.668
    1STR    C0D 1131   0.889   0.799   6.780
    1STR    C0E 1132   0.836   0.563   6.701
    1STR    O0F 1133   0.775   0.483   6.598
    1STR    C0G 1134   0.712   0.358   6.630
    1STR    C0H 1135   0.764   0.241   6.546
    1STR    C0I 1136   0.719   0.316   6.775
    1STR    O0J 1137   0.661   0.189   6.784
    1STR    C0K 1138   1.613   8.521   6.818
    1STR    C0M 1139   1.661   8.495   6.675
    1STR    C0N 1140   1.718   8.472   6.920
    1STR    O0O 1141   1.807   8.573   6.967
    1STR    C0P 1142   1.789   8.624   7.090
    1STR    O0Q 1143   1.714   8.578   7.175
    1STR    N0R 1144   1.854   8.739   7.101
    1STR    C0S 1145   1.832   8.846   7.188
    1STR    C0T 1146   1.866   8.972   7.141
    1STR    C0U 1147   1.854   9.085   7.220
    1STR    C0V 1148   1.807   9.077   7.350
    1STR    C0W 1149   1.846   9.194   7.438
    1STR    C0X 1150   1.758   8.953   7.396
    1STR    N0Y 1151   1.716   8.939   7.527
    1STR   BCK2 1152   1.771   8.858   7.618
    1STR    O10 1153   1.716   8.838   7.725
    1STR    C13 1154   1.771   8.837   7.315
    1STR    C14 1155   0.420   0.482   6.732
    1STR    C15 1156   0.365   0.362   6.771
    1STR    C16 1157   0.359   0.323   6.904
    1STR    C17 1158   0.316   0.181   6.933
    1STR    H1B 1159   0.300   0.319   7.145
    1STR    H1C 1160   0.521   0.589   7.041
    1STR    H1D 1161   0.642   0.691   6.846
    1STR    H1E 1162   0.889   0.728   6.578
    1STR    H1F 1163   0.834   0.788   6.873
    1STR    H1G 1164   0.993   0.772   6.799
    1STR    H1H 1165   0.888   0.905   6.752
    1STR    H1I 1166   0.792   0.549   6.799
    1STR    H1J 1167   0.940   0.535   6.716
    1STR    H1K 1168   0.607   0.370   6.604
    1STR    H1M 1169   0.827   0.175   6.601
    1STR    H1N 1170   0.819   0.272   6.457
    1STR    H1O 1171   0.682   0.173   6.519
    1STR    H1P 1172   0.823   0.314   6.809
    1STR    H1Q 1173   0.665   0.384   6.840
    1STR   C010 1174   0.704   0.120   6.898
    1STR   H011 1175   0.811   0.127   6.905
    1STR   C012 1176   0.645   0.188   7.018
    1STR   H013 1177   0.541   0.198   7.011
    1STR   H014 1178   0.681   0.290   7.031
    1STR   H015 1179   0.656   0.138   7.111
    1STR   C016 1180   0.662   9.296   6.881
    1STR   H017 1181   0.666   9.241   6.975
    1STR   H018 1182   0.561   9.298   6.848
    1STR   O019 1183   0.742   9.233   6.782
    1STR   C020 1184   0.690   9.112   6.729
    1STR   H021 1185   0.599   9.135   6.674
    1STR   C022 1186   0.794   9.069   6.626
    1STR   H023 1187   0.883   9.030   6.675
    1STR   H024 1188   0.824   9.154   6.565
    1STR   H025 1189   0.753   8.995   6.559
    1STR   C026 1190   0.663   9.007   6.838
    1STR   H027 1191   0.668   8.905   6.800
    1STR   H028 1192   0.736   9.015   6.918
    1STR   O029 1193   0.531   9.036   6.881
    1STR   C030 1194   0.475   8.983   7.000
    1STR   H031 1195   0.388   9.047   7.014
    1STR   C032 1196   0.412   8.846   6.991
    1STR   H033 1197   0.382   8.822   6.891
    1STR   H034 1198   0.323   8.839   7.054
    1STR   H035 1199   0.479   8.770   7.026
    1STR   C036 1200   0.558   8.998   7.124
    1STR   H037 1201   0.583   9.102   7.141
    1STR   H038 1202   0.492   8.963   7.203
    1STR   O039 1203   0.672   8.915   7.127
    1STR   C040 1204   0.716   8.902   7.260
    1STR   H041 1205   0.632   8.894   7.328
    1STR   C042 1206   0.791   8.771   7.264
    1STR   H043 1207   0.827   8.751   7.364
    1STR   H044 1208   0.878   8.769   7.198
    1STR   H045 1209   0.726   8.689   7.235
    1STR   C046 1210   0.800   9.023   7.302
    1STR   H047 1211   0.898   8.987   7.327
    1STR   H048 1212   0.819   9.079   7.213
    1STR   O049 1213   0.757   9.098   7.417
    1STR   C050 1214   0.681   9.217   7.396
    1STR   H051 1215   0.594   9.184   7.341
    1STR   C052 1216   0.639   9.282   7.529
    1STR   H053 1217   0.721   9.284   7.599
    1STR   H054 1218   0.556   9.233   7.578
    1STR   H055 1219   0.605   0.065   7.516
    1STR   C056 1220   0.757   0.007   7.324
    1STR   H057 1221   0.704   0.103   7.325
    1STR   H058 1222   0.850   0.027   7.377
    1STR   O059 1223   0.772   9.289   7.189
    1STR   C060 1224   0.902   9.312   7.147
    1STR   H061 1225   0.966   9.268   7.222
    1STR   C062 1226   0.939   9.232   7.023
    1STR   H063 1227   0.915   9.276   6.929
    1STR   H064 1228   0.902   9.130   7.023
    1STR   H065 1229   1.046   9.230   7.022
    1STR   C066 1230   0.939   0.140   7.138
    1STR   H067 1231   1.017   0.147   7.213
    1STR   H068 1232   0.971   0.163   7.037
    1STR   O069 1233   0.855   0.247   7.176
    1STR   C070 1234   0.927   0.370   7.187
    1STR   H071 1235   1.031   0.362   7.157
    1STR   C072 1236   0.871   0.480   7.095
    1STR   H073 1237   0.767   0.503   7.115
    1STR   H074 1238   0.879   0.448   6.992
    1STR   H075 1239   0.928   0.572   7.105
    1STR   C076 1240   0.929   0.400   7.336
    1STR   H077 1241   1.005   0.476   7.358
    1STR   H078 1242   0.831   0.439   7.365
    1STR   O079 1243   0.956   0.278   7.406
    1STR   C080 1244   0.988   0.287   7.544
    1STR   H081 1245   1.092   0.321   7.552
    1STR   C082 1246   0.896   0.388   7.615
    1STR   H083 1247   0.791   0.364   7.597
    1STR   H084 1248   0.913   0.490   7.582
    1STR   H085 1249   0.912   0.388   7.723
    1STR   C086 1250   0.974   0.148   7.611
    1STR   H087 1251   0.985   0.166   7.717
    1STR   H088 1252   0.874   0.111   7.596
    1STR   O089 1253   1.070   0.050   7.568
    1STR   C090 1254   1.082   9.247   7.644
    1STR   H091 1255   1.185   9.216   7.628
    1STR   C092 1256   1.069   9.265   7.796
    1STR   H093 1257   0.967   9.290   7.825
    1STR   H094 1258   1.136   0.022   7.833
    1STR   H095 1259   1.094   9.172   7.846
    1STR   C096 1260   0.994   9.131   7.593
    1STR   H097 1261   0.891   9.144   7.624
    1STR   H098 1262   0.993   9.135   7.484
    1STR   O099 1263   1.043   9.002   7.638
    1STR   C100 1264   0.991   8.890   7.565
    1STR   H101 1265   0.891   8.915   7.531
    1STR   C102 1266   1.082   8.868   7.446
    1STR   H103 1267   1.179   8.830   7.476
    1STR   H104 1268   1.098   8.959   7.391
    1STR   H105 1269   1.038   8.803   7.373
    1STR   C106 1270   0.978   8.758   7.646
    1STR   H107 1271   1.075   8.724   7.680
    1STR   H108 1272   0.920   8.778   7.735
    1STR   O109 1273   0.905   8.654   7.576
    1STR   C110 1274   0.979   8.558   7.499
    1STR   H111 1275   1.049   8.613   7.439
    1STR   C112 1276   1.057   8.464   7.591
    1STR   H113 1277   0.990   8.416   7.663
    1STR   H114 1278   1.135   8.516   7.646
    1STR   H115 1279   1.107   8.386   7.533
    1STR   C116 1280   0.888   8.479   7.400
    1STR   H117 1281   0.867   8.379   7.436
    1STR   H118 1282   0.791   8.528   7.398
    1STR   O119 1283   0.934   8.476   7.264
    1STR   C120 1284   1.031   8.377   7.226
    1STR   H121 1285   1.043   8.303   7.306
    1STR   C122 1286   0.985   8.306   7.099
    1STR   H123 1287   0.990   8.372   7.013
    1STR   H124 1288   0.883   8.269   7.108
    1STR   H125 1289   1.049   8.221   7.076
    1STR   C126 1290   1.166   8.445   7.200
    1STR   H127 1291   1.241   8.375   7.165
    1STR   H128 1292   1.153   8.521   7.123
    1STR   O129 1293   1.205   8.499   7.324
    1STR   C130 1294   1.302   8.602   7.329
    1STR   H131 1295   1.292   8.642   7.429
    1STR   C132 1296   1.440   8.537   7.321
    1STR   H133 1297   1.460   8.495   7.222
    1STR   H134 1298   1.449   8.456   7.394
    1STR   H135 1299   1.519   8.609   7.343
    1STR   C136 1300   1.285   8.720   7.230
    1STR   H137 1301   1.325   8.809   7.278
    1STR   H138 1302   1.345   8.694   7.144
    1STR   O139 1303   1.157   8.751   7.178
    1STR   C140 1304   1.161   8.848   7.073
    1STR   H141 1305   1.255   8.846   7.018
    1STR   C142 1306   1.055   8.806   6.971
    1STR   H143 1307   0.954   8.812   7.010
    1STR   H144 1308   1.071   8.703   6.937
    1STR   H145 1309   1.055   8.870   6.883
    1STR   C146 1310   1.137   8.992   7.122
    1STR   H147 1311   1.116   9.045   7.031
    1STR   H148 1312   1.046   8.996   7.180
    1STR   O149 1313   1.247   9.060   7.185
    1STR   C150 1314   1.220   9.163   7.282
    1STR   H151 1315   1.116   9.156   7.313
    1STR   C152 1316   1.307   9.124   7.403
    1STR   H153 1317   1.402   9.082   7.373
    1STR   H154 1318   1.263   9.050   7.469
    1STR   H155 1319   1.326   9.211   7.467
    1STR   C156 1320   1.242   9.313   7.245
    1STR   H157 1321   1.178   0.055   7.307
    1STR   H158 1322   1.341   0.026   7.272
    1STR   O159 1323   1.231   0.023   7.107
    1STR   C160 1324   1.232   0.160   7.061
    1STR   H161 1325   1.153   0.219   7.096
    1STR   C162 1326   1.335   0.255   7.121
    1STR   H163 1327   1.434   0.216   7.115
    1STR   H164 1328   1.317   0.272   7.227
    1STR   H165 1329   1.333   0.352   7.072
    1STR   C166 1330   1.202   0.148   6.911
    1STR   H167 1331   1.282   0.105   6.854
    1STR   H168 1332   1.129   0.069   6.911
    1STR   O169 1333   1.139   0.252   6.836
    1STR   C170 1334   1.119   0.208   6.700
    1STR   H171 1335   1.215   0.179   6.664
    1STR   C172 1336   1.035   0.079   6.689
    1STR   H173 1337   1.085   9.311   6.723
    1STR   H174 1338   1.010   0.056   6.585
    1STR   H175 1339   0.943   0.085   6.745
    1STR   C176 1340   1.061   0.313   6.603
    1STR   H177 1341   1.044   0.266   6.507
    1STR   H178 1342   0.966   0.340   6.644
    1STR   O179 1343   1.132   0.434   6.581
    1STR   C180 1344   1.085   0.512   6.470
    1STR   H181 1345   0.977   0.514   6.474
    1STR   C182 1346   1.132   0.655   6.495
    1STR   H183 1347   1.239   0.666   6.478
    1STR   H184 1348   1.112   0.686   6.598
    1STR   H185 1349   1.081   0.725   6.428
    1STR   C186 1350   1.122   0.466   6.325
    1STR   H187 1351   1.032   0.435   6.273
    1STR   H188 1352   1.161   0.550   6.269
    1STR   O189 1353   1.210   0.354   6.316
    1STR   C190 1354   1.325   0.366   6.231
    1STR   H191 1355   1.376   0.270   6.238
    1STR   C192 1356   1.288   0.382   6.084
    1STR   H193 1357   1.228   0.471   6.066
    1STR   H194 1358   1.231   0.296   6.049
    1STR   H195 1359   1.377   0.391   6.022
    1STR   C196 1360   1.429   0.469   6.279
    1STR   H197 1361   1.532   0.437   6.261
    1STR   H198 1362   1.416   0.562   6.225
    1STR   O199 1363   1.409   0.503   6.414
    1STR   C200 1364   1.470   0.424   6.514
    1STR   H201 1365   1.577   0.415   6.499
    1STR   C202 1366   1.438   0.520   6.631
    1STR   H203 1367   1.331   0.527   6.649
    1STR   H204 1368   1.469   0.621   6.605
    1STR   H205 1369   1.479   0.495   6.727
    1STR   C206 1370   1.403   0.286   6.533
    1STR   H207 1371   1.410   0.255   6.637
    1STR   H208 1372   1.299   0.305   6.518
    1STR   O209 1373   1.434   0.176   6.446
    1STR   C210 1374   1.337   0.068   6.453
    1STR   H211 1375   1.237   0.108   6.467
    1STR   C212 1376   1.329   9.316   6.319
    1STR   H213 1377   1.424   9.269   6.293
    1STR   H214 1378   1.299   0.062   6.239
    1STR   H215 1379   1.256   9.235   6.324
    1STR   C216 1380   1.369   9.288   6.565
    1STR   H217 1381   1.450   9.225   6.531
    1STR   H218 1382   1.401   0.018   6.654
    1STR   O219 1383   1.259   9.206   6.602
    1STR   C220 1384   1.291   9.106   6.699
    1STR   H221 1385   1.395   9.083   6.700
    1STR   C222 1386   1.270   9.148   6.843
    1STR   H223 1387   1.166   9.171   6.861
    1STR   H224 1388   1.333   9.230   6.872
    1STR   H225 1389   1.301   9.067   6.910
    1STR   C226 1390   1.213   8.980   6.664
    1STR   H227 1391   1.221   8.907   6.744
    1STR   H228 1392   1.107   9.006   6.653
    1STR   O229 1393   1.261   8.928   6.541
    1STR   C230 1394   1.368   8.835   6.557
    1STR   H231 1395   1.427   8.858   6.646
    1STR   C232 1396   1.306   8.697   6.580
    1STR   H233 1397   1.238   8.670   6.499
    1STR   H234 1398   1.249   8.693   6.673
    1STR   H235 1399   1.383   8.620   6.587
    1STR   C236 1400   1.457   8.841   6.431
    1STR   H237 1401   1.525   8.756   6.430
    1STR   H238 1402   1.394   8.829   6.343
    1STR   O239 1403   1.533   8.962   6.411
    1STR   C240 1404   1.614   9.006   6.520
    1STR   H241 1405   1.543   9.032   6.594
    1STR   C242 1406   1.701   8.894   6.575
    1STR   H243 1407   1.743   8.833   6.496
    1STR   H244 1408   1.646   8.827   6.641
    1STR   H245 1409   1.780   8.939   6.633
    1STR   C246 1410   1.693   9.136   6.495
    1STR   H247 1411   1.799   9.117   6.480
    1STR   H248 1412   1.653   9.178   6.404
    1STR   O249 1413   1.680   9.235   6.597
    1STR   C250 1414   1.761   0.033   6.584
    1STR   H251 1415   1.856   0.019   6.636
    1STR   C252 1416   1.787   0.075   6.440
    1STR   H253 1417   1.691   0.084   6.390
    1STR   H254 1418   1.855   0.005   6.393
    1STR   H255 1419   1.832   0.173   6.430
    1STR   C256 1420   1.684   0.149   6.644
    1STR   H257 1421   1.695   0.239   6.582
    1STR   H258 1422   1.581   0.123   6.632
    1STR   O259 1423   1.716   0.186   6.777
    1STR   C260 1424   1.617   0.272   6.828
    1STR   H261 1425   1.576   0.326   6.745
    1STR   C262 1426   1.517   0.178   6.881
    1STR   H263 1427   1.555   0.135   6.972
    1STR   H264 1428   1.493   0.095   6.817
    1STR   H265 1429   1.430   0.239   6.895
    1STR   C266 1430   1.644   0.377   6.936
    1STR   H267 1431   1.658   0.473   6.889
    1STR   H268 1432   1.555   0.396   6.996
    1STR   O269 1433   1.758   0.352   7.014
    1STR   C270 1434   1.741   0.324   7.153
    1STR   H271 1435   1.837   0.352   7.192
    1STR   C272 1436   1.643   0.409   7.237
    1STR   H273 1437   1.540   0.397   7.209
    1STR   H274 1438   1.669   0.514   7.233
    1STR   H275 1439   1.650   0.377   7.341
    1STR   C276 1440   1.733   0.176   7.175
    1STR   H277 1441   1.753   0.125   7.082
    1STR   H278 1442   1.811   0.145   7.244
    1STR   O279 1443   1.608   0.138   7.225
    1STR   C280 1444   1.604   0.001   7.254
    1STR   H281 1445   1.703   9.282   7.248
    1STR   C282 1446   1.564   9.315   7.402
    1STR   H283 1447   1.472   0.046   7.426
    1STR   H284 1448   1.639   0.048   7.461
    1STR   H285 1449   1.562   9.213   7.439
    1STR   C286 1450   1.531   9.238   7.146
    1STR   H287 1451   1.467   9.164   7.190
    1STR   H288 1452   1.468   9.298   7.081
    1STR   O289 1453   1.627   9.162   7.074
    1STR   C290 1454   1.628   9.166   6.934
    1STR   H291 1455   1.545   9.220   6.890
    1STR   C292 1456   1.760   9.230   6.901
    1STR   H293 1457   1.835   9.190   6.968
    1STR   H294 1458   1.760   0.016   6.915
    1STR   H295 1459   1.794   9.209   6.801
    1STR   C296 1460   1.637   9.028   6.872
    1STR   H297 1461   1.641   9.049   6.767
    1STR   H298 1462   1.734   8.983   6.891
    1STR   O299 1463   1.527   8.940   6.891
    1STR   C300 1464   1.559   8.836   6.980
    1STR   H301 1465   1.665   8.819   6.980
    1STR   C302 1466   1.523   8.879   7.121
    1STR   H303 1467   1.425   8.923   7.125
    1STR   H304 1468   1.589   8.955   7.158
    1STR   H305 1469   1.534   8.797   7.193
    1STR   C306 1470   1.505   8.701   6.933
    1STR   H307 1471   1.511   8.630   7.015
    1STR   H308 1472   1.401   8.708   6.902
    1STR   O309 1473   1.589   8.661   6.826
    1STR    H1R 1474   1.520   8.467   6.832
    1STR    H1S 1475   1.669   8.388   6.655
    1STR    H1T 1476   1.758   8.540   6.657
    1STR    H1U 1477   1.592   8.538   6.602
    1STR    H1V 1478   1.780   8.396   6.872
    1STR    H1W 1479   1.667   8.422   7.003
    1STR    H1X 1480   1.911   8.764   7.020
    1STR    H1Y 1481   1.909   8.989   7.046
    1STR    H1Z 1482   1.895   9.178   7.185
    1STR    H20 1483   1.782   9.207   7.524
    1STR    H21 1484   1.948   9.180   7.469
    1STR    H22 1485   1.852   9.290   7.387
    1STR    H23 1486   1.640   8.997   7.559
    1STR    H27 1487   1.740   8.742   7.354
    1STR    H28 1488   0.422   0.501   6.627
    1STR    H29 1489   0.332   0.298   6.694
    1STR    H2A 1490   0.397   0.113   6.915
    1STR    H2B 1491   0.246   0.151   6.861
    1STR    H2C 1492   0.272   0.158   7.028
    1STR   BCK1 1493   0.499   1.975   8.770
    1STR    O03 1494   0.556   2.028   8.675
    1STR    N04 1495   0.432   2.035   8.866
    1STR    C05 1496   0.457   2.143   8.945
    1STR    C06 1497   0.489   2.126   9.081
    1STR    C07 1498   0.454   2.219   9.178
    1STR    N08 1499   0.464   2.190   9.315
    1STR    C09 1500   0.522   2.095   0.070
    1STR    O0A 1501   0.504   2.094   0.190
    1STR    O0B 1502   0.602   2.007   0.011
    1STR    C0C 1503   0.704   1.934   0.084
    1STR    C0D 1504   0.676   1.880   0.225
    1STR    C0E 1505   0.732   1.810   0.002
    1STR    O0F 1506   0.712   1.838   9.186
    1STR    C0G 1507   0.825   1.862   9.107
    1STR    C0H 1508   0.917   1.967   9.171
    1STR    C0I 1509   0.889   1.729   9.072
    1STR    O0J 1510   0.814   1.636   8.994
    1STR    C0K 1511   1.637   2.251   8.987
    1STR    C0M 1512   1.658   2.116   8.919
    1STR    C0N 1513   1.747   2.320   9.072
    1STR    O0O 1514   1.760   2.459   9.052
    1STR    C0P 1515   1.877   2.504   9.011
    1STR    O0Q 1516   1.924   2.484   8.902
    1STR    N0R 1517   1.948   2.566   9.103
    1STR    C0S 1518   1.901   2.619   9.221
    1STR    C0T 1519   1.869   2.754   9.218
    1STR    C0U 1520   1.842   2.821   0.017
    1STR    C0V 1521   1.846   2.755   0.139
    1STR    C0W 1522   1.842   2.838   0.266
    1STR    C0X 1523   1.850   2.614   0.138
    1STR    N0Y 1524   1.791   2.549   0.244
    1STR   BCK2 1525   1.813   2.427   0.285
    1STR    O10 1526   1.918   2.370   0.265
    1STR    C13 1527   1.885   2.546   0.019
    1STR    C14 1528   0.400   2.341   9.133
    1STR    C15 1529   0.386   2.365   8.995
    1STR    C16 1530   0.408   2.264   8.902
    1STR    C17 1531   0.363   2.274   8.760
    1STR    H1B 1532   0.363   1.976   8.915
    1STR    H1C 1533   0.532   2.036   9.118
    1STR    H1D 1534   0.416   2.254   0.057
    1STR    H1E 1535   0.790   2.000   0.090
    1STR    H1F 1536   0.585   1.822   0.223
    1STR    H1G 1537   0.757   1.816   0.260
    1STR    H1H 1538   0.667   1.961   0.297
    1STR    H1I 1539   0.657   1.735   0.028
    1STR    H1J 1540   0.829   1.766   0.026
    1STR    H1K 1541   0.795   1.905   9.012
    1STR    H1M 1542   0.859   2.051   9.207
    1STR    H1N 1543   0.984   2.009   9.096
    1STR    H1O 1544   0.976   1.928   9.253
    1STR    H1P 1545   0.975   1.763   9.019
    1STR    H1Q 1546   0.918   1.676   9.161
    1STR   C010 1547   0.891   1.567   8.896
    1STR   H011 1548   0.994   1.560   8.928
    1STR   C012 1549   0.845   1.422   8.882
    1STR   H013 1550   0.747   1.416   8.837
    1STR   H014 1551   0.843   1.374   8.979
    1STR   H015 1552   0.914   1.366   8.819
    1STR   C016 1553   0.877   1.642   8.764
    1STR   H017 1554   0.948   1.604   8.691
    1STR   H018 1555   0.776   1.625   8.726
    1STR   O019 1556   0.895   1.781   8.785
    1STR   C020 1557   0.902   1.860   8.668
    1STR   H021 1558   0.997   1.840   8.620
    1STR   C022 1559   0.792   1.828   8.565
    1STR   H023 1560   0.693   1.832   8.610
    1STR   H024 1561   0.803   1.729   8.521
    1STR   H025 1562   0.792   1.899   8.483
    1STR   C026 1563   0.901   2.008   8.709
    1STR   H027 1564   1.003   2.038   8.732
    1STR   H028 1565   0.871   2.065   8.621
    1STR   O029 1566   0.817   2.043   8.820
    1STR   C030 1567   0.844   2.174   8.872
    1STR   H031 1568   0.947   2.171   8.903
    1STR   C032 1569   0.819   2.276   8.758
    1STR   H033 1570   0.718   2.264   8.719
    1STR   H034 1571   0.887   2.266   8.675
    1STR   H035 1572   0.832   2.377   8.794
    1STR   C036 1573   0.762   2.216   8.997
    1STR   H037 1574   0.674   2.270   8.965
    1STR   H038 1575   0.731   2.126   9.048
    1STR   O039 1576   0.835   2.295   9.092
    1STR   C040 1577   0.773   2.402   9.168
    1STR   H041 1578   0.860   2.451   9.202
    1STR   C042 1579   0.714   2.506   9.076
    1STR   H043 1580   0.615   2.478   9.042
    1STR   H044 1581   0.778   2.525   8.991
    1STR   H045 1582   0.707   2.598   9.132
    1STR   C046 1583   0.695   2.377   9.302
    1STR   H047 1584   0.592   2.401   9.283
    1STR   H048 1585   0.702   2.271   0.001
    1STR   O049 1586   0.716   2.465   0.099
    1STR   C050 1587   0.742   2.418   0.237
    1STR   H051 1588   0.653   2.433   0.293
    1STR   C052 1589   0.769   2.272   0.236
    1STR   H053 1590   0.841   2.249   0.162
    1STR   H054 1591   0.681   2.220   0.211
    1STR   H055 1592   0.796   2.235   0.332
    1STR   C056 1593   0.841   2.496   0.329
    1STR   H057 1594   0.942   2.475   0.301
    1STR   H058 1595   0.824   2.600   0.312
    1STR   O059 1596   0.838   2.481   0.473
    1STR   C060 1597   0.960   2.529   0.537
    1STR   H061 1598   1.043   2.476   0.490
    1STR   C062 1599   0.987   2.678   0.514
    1STR   H063 1600   0.905   2.726   0.462
    1STR   H064 1601   1.078   2.693   0.456
    1STR   H065 1602   0.997   2.736   0.606
    1STR   C066 1603   0.975   2.508   0.690
    1STR   H067 1604   1.074   2.544   0.719
    1STR   H068 1605   0.904   2.572   0.742
    1STR   O069 1606   0.961   2.378   0.745
    1STR   C070 1607   1.032   2.275   0.679
    1STR   H071 1608   1.119   2.314   0.626
    1STR   C072 1609   1.079   2.178   0.787
    1STR   H073 1610   0.994   2.141   0.845
    1STR   H074 1611   1.147   2.228   0.856
    1STR   H075 1612   1.131   2.093   0.743
    1STR   C076 1613   0.933   2.212   0.583
    1STR   H077 1614   0.908   2.109   0.609
    1STR   H078 1615   0.838   2.264   0.590
    1STR   O079 1616   0.976   2.233   0.451
    1STR   C080 1617   1.047   2.132   0.385
    1STR   H081 1618   1.142   2.135   0.435
    1STR   C082 1619   0.980   1.994   0.396
    1STR   H083 1620   0.873   2.004   0.379
    1STR   H084 1621   0.994   1.948   0.494
    1STR   H085 1622   1.018   1.923   0.322
    1STR   C086 1623   1.066   2.168   0.236
    1STR   H087 1624   1.156   2.123   0.197
    1STR   H088 1625   0.989   2.117   0.180
    1STR   O089 1626   1.064   2.310   0.214
    1STR   C090 1627   1.086   2.367   0.084
    1STR   H091 1628   1.189   2.391   0.068
    1STR   C092 1629   1.044   2.262   9.297
    1STR   H093 1630   0.940   2.235   9.305
    1STR   H094 1631   1.102   2.171   9.305
    1STR   H095 1632   1.057   2.292   9.194
    1STR   C096 1633   1.013   2.504   0.067
    1STR   H097 1634   1.015   2.540   9.288
    1STR   H098 1635   0.918   2.469   0.077
    1STR   O099 1636   1.021   2.623   0.147
    1STR   C100 1637   0.920   2.725   0.114
    1STR   H101 1638   0.822   2.678   0.111
    1STR   C102 1639   0.918   2.827   0.229
    1STR   H103 1640   0.919   2.931   0.198
    1STR   H104 1641   1.007   2.815   0.290
    1STR   H105 1642   0.828   2.817   0.289
    1STR   C106 1643   0.928   2.811   9.305
    1STR   H107 1644   0.865   2.898   9.320
    1STR   H108 1645   1.023   2.859   9.290
    1STR   O109 1646   0.877   2.750   9.187
    1STR   C110 1647   0.886   2.830   9.069
    1STR   H111 1648   0.812   2.789   9.005
    1STR   C112 1649   0.873   2.983   9.090
    1STR   H113 1650   0.948   3.023   9.158
    1STR   H114 1651   0.776   3.009   9.128
    1STR   H115 1652   0.889   3.038   8.998
    1STR   C116 1653   1.004   2.800   8.983
    1STR   H117 1654   0.994   2.709   8.924
    1STR   H118 1655   1.022   2.879   8.910
    1STR   O119 1656   1.107   2.799   9.076
    1STR   C120 1657   1.144   2.675   9.130
    1STR   H121 1658   1.232   2.665   9.079
    1STR   C122 1659   1.213   2.690   9.266
    1STR   H123 1660   1.164   2.738   0.028
    1STR   H124 1661   1.295   2.759   9.260
    1STR   H125 1662   1.248   2.595   9.303
    1STR   C126 1663   1.096   2.539   9.070
    1STR   H127 1664   1.137   2.461   9.132
    1STR   H128 1665   0.988   2.535   9.067
    1STR   O129 1666   1.147   2.513   8.940
    1STR   C130 1667   1.107   2.395   8.873
    1STR   H131 1668   1.010   2.368   8.913
    1STR   C132 1669   1.095   2.446   8.729
    1STR   H133 1670   1.186   2.497   8.698
    1STR   H134 1671   1.013   2.518   8.720
    1STR   H135 1672   1.078   2.366   8.657
    1STR   C136 1673   1.206   2.276   8.881
    1STR   H137 1674   1.200   2.220   8.788
    1STR   H138 1675   1.307   2.314   8.886
    1STR   O139 1676   1.177   2.182   8.987
    1STR   C140 1677   1.260   2.065   8.989
    1STR   H141 1678   1.361   2.092   8.959
    1STR   C142 1679   1.267   2.009   9.131
    1STR   H143 1680   1.182   1.945   9.154
    1STR   H144 1681   1.268   2.084   9.208
    1STR   H145 1682   1.356   1.947   9.142
    1STR   C146 1683   1.208   1.953   8.898
    1STR   H147 1684   1.102   1.938   8.920
    1STR   H148 1685   1.216   1.980   8.792
    1STR   O149 1686   1.286   1.835   8.922
    1STR   C150 1687   1.215   1.711   8.919
    1STR   H151 1688   1.114   1.730   8.887
    1STR   C152 1689   1.266   1.627   8.803
    1STR   H153 1690   1.374   1.620   8.805
    1STR   H154 1691   1.240   1.674   8.708
    1STR   H155 1692   1.224   1.527   8.803
    1STR   C156 1693   1.218   1.639   9.058
    1STR   H157 1694   1.179   1.538   9.047
    1STR   H158 1695   1.319   1.628   9.094
    1STR   O159 1696   1.146   1.708   9.158
    1STR   C160 1697   1.137   1.659   9.293
    1STR   H161 1698   1.049   1.706   0.017
    1STR   C162 1699   1.119   1.507   9.303
    1STR   H163 1700   1.203   1.451   9.262
    1STR   H164 1701   1.029   1.475   9.251
    1STR   H165 1702   1.108   1.476   0.087
    1STR   C166 1703   1.255   1.713   0.051
    1STR   H167 1704   1.321   1.632   0.080
    1STR   H168 1705   1.306   1.777   9.300
    1STR   O169 1706   1.221   1.793   0.163
    1STR   C170 1707   1.337   1.849   0.224
    1STR   H171 1708   1.405   1.771   0.249
    1STR   C172 1709   1.401   1.955   0.133
    1STR   H173 1710   1.329   2.031   0.102
    1STR   H174 1711   1.451   1.919   0.044
    1STR   H175 1712   1.477   2.005   0.189
    1STR   C176 1713   1.305   1.910   0.359
    1STR   H177 1714   1.244   1.994   0.335
    1STR   H178 1715   1.246   1.841   0.421
    1STR   O179 1716   1.421   1.955   0.429
    1STR   C180 1717   1.389   2.056   0.525
    1STR   H181 1718   1.287   2.041   0.561
    1STR   C182 1719   1.475   2.037   0.650
    1STR   H183 1720   1.581   2.047   0.629
    1STR   H184 1721   1.459   1.938   0.693
    1STR   H185 1722   1.449   2.111   0.726
    1STR   C186 1723   1.399   2.200   0.467
    1STR   H187 1724   1.311   2.253   0.501
    1STR   H188 1725   1.482   2.254   0.512
    1STR   O189 1726   1.416   2.199   0.324
    1STR   C190 1727   1.370   2.310   0.244
    1STR   H191 1728   1.299   2.262   0.181
    1STR   C192 1729   1.303   2.424   0.321
    1STR   H193 1730   1.372   2.467   0.391
    1STR   H194 1731   1.215   2.391   0.376
    1STR   H195 1732   1.266   2.500   0.253
    1STR   C196 1733   1.469   2.363   0.137
    1STR   H197 1734   1.547   2.421   0.182
    1STR   H198 1735   1.519   2.280   0.090
    1STR   O199 1736   1.405   2.444   0.037
    1STR   C200 1737   1.460   2.432   9.226
    1STR   H201 1738   1.567   2.423   9.240
    1STR   C202 1739   1.389   2.303   9.186
    1STR   H203 1740   1.285   2.306   9.212
    1STR   H204 1741   1.433   2.214   9.233
    1STR   H205 1742   1.388   2.288   9.080
    1STR   C206 1743   1.443   2.535   9.106
    1STR   H207 1744   1.529   2.516   9.044
    1STR   H208 1745   1.358   2.504   9.048
    1STR   O209 1746   1.445   2.679   9.117
    1STR   C210 1747   1.428   2.762   8.998
    1STR   H211 1748   1.527   2.748   8.959
    1STR   C212 1749   1.330   2.726   8.879
    1STR   H213 1750   1.230   2.759   8.895
    1STR   H214 1751   1.321   2.621   8.857
    1STR   H215 1752   1.344   2.775   8.785
    1STR   C216 1753   1.403   2.913   9.030
    1STR   H217 1754   1.496   2.959   9.059
    1STR   H218 1755   1.367   2.959   8.939
    1STR   O219 1756   1.304   2.951   9.125
    1STR   C220 1757   1.275   3.091   9.137
    1STR   H221 1758   1.366   3.149   9.126
    1STR   C222 1759   1.187   3.137   9.021
    1STR   H223 1760   1.108   3.066   9.004
    1STR   H224 1761   1.244   3.145   8.928
    1STR   H225 1762   1.143   3.235   9.041
    1STR   C226 1763   1.213   3.120   9.276
    1STR   H227 1764   1.167   3.218   9.280
    1STR   H228 1765   1.137   3.046   9.296
    1STR   O229 1766   1.318   3.116   0.053
    1STR   C230 1767   1.292   3.120   0.193
    1STR   H231 1768   1.386   3.085   0.238
    1STR   C232 1769   1.271   3.266   0.234
    1STR   H233 1770   1.180   3.306   0.189
    1STR   H234 1771   1.355   3.326   0.200
    1STR   H235 1772   1.263   3.277   0.341
    1STR   C236 1773   1.180   3.025   0.242
    1STR   H237 1774   1.085   3.076   0.253
    1STR   H238 1775   1.167   2.947   0.167
    1STR   O239 1776   1.210   2.949   0.359
    1STR   C240 1777   1.246   3.012   0.480
    1STR   H241 1778   1.308   3.100   0.463
    1STR   C242 1779   1.119   3.047   0.558
    1STR   H243 1780   1.061   2.958   0.580
    1STR   H244 1781   1.055   3.115   0.500
    1STR   H245 1782   1.144   3.096   0.652
    1STR   C246 1783   1.330   2.909   0.556
    1STR   H247 1784   1.350   2.944   0.658
    1STR   H248 1785   1.275   2.816   0.566
    1STR   O249 1786   1.456   2.894   0.493
    1STR   C250 1787   1.484   2.767   0.434
    1STR   H251 1788   1.588   2.774   0.403
    1STR   C252 1789   1.475   2.655   0.538
    1STR   H253 1790   1.373   2.619   0.552
    1STR   H254 1791   1.509   2.690   0.635
    1STR   H255 1792   1.537   2.570   0.509
    1STR   C256 1793   1.401   2.739   0.307
    1STR   H257 1794   1.425   2.640   0.272
    1STR   H258 1795   1.295   2.732   0.331
    1STR   O259 1796   1.417   2.833   0.200
    1STR   C260 1797   1.536   2.822   0.124
    1STR   H261 1798   1.615   2.844   0.193
    1STR   C262 1799   1.551   2.684   0.067
    1STR   H263 1800   1.454   2.659   0.032
    1STR   H264 1801   1.582   2.614   0.141
    1STR   H265 1802   1.620   2.674   9.303
    1STR   C266 1803   1.543   2.918   0.007
    1STR   H267 1804   1.586   2.874   9.238
    1STR   H268 1805   1.442   2.945   9.303
    1STR   O269 1806   1.624   3.025   0.045
    1STR   C270 1807   1.622   3.138   9.282
    1STR   H271 1808   1.524   3.162   9.245
    1STR   C272 1809   1.653   3.238   0.070
    1STR   H273 1810   1.754   3.216   0.103
    1STR   H274 1811   1.585   3.228   0.155
    1STR   H275 1812   1.646   3.340   0.034
    1STR   C276 1813   1.730   3.141   9.171
    1STR   H277 1814   1.761   3.244   9.158
    1STR   H278 1815   1.820   3.093   9.206
    1STR   O279 1816   1.692   3.081   9.046
    1STR   C280 1817   1.661   3.165   8.935
    1STR   H281 1818   1.584   3.234   8.969
    1STR   C282 1819   1.783   3.241   8.884
    1STR   H283 1820   1.849   3.177   8.826
    1STR   H284 1821   1.843   3.279   8.966
    1STR   H285 1822   1.754   3.324   8.820
    1STR   C286 1823   1.604   3.086   8.813
    1STR   H287 1824   1.524   3.021   8.839
    1STR   H288 1825   1.560   3.159   8.745
    1STR   O289 1826   1.700   3.014   8.735
    1STR   C290 1827   1.726   2.876   8.765
    1STR   H291 1828   1.815   2.859   8.706
    1STR   C292 1829   1.770   2.849   8.908
    1STR   H293 1830   1.810   2.749   8.917
    1STR   H294 1831   1.692   2.859   8.982
    1STR   H295 1832   1.848   2.917   8.939
    1STR   C296 1833   1.615   2.779   8.721
    1STR   H297 1834   1.529   2.818   8.769
    1STR   H298 1835   1.591   2.787   8.615
    1STR   O299 1836   1.649   2.643   8.758
    1STR   C300 1837   1.557   2.533   8.758
    1STR   H301 1838   1.500   2.551   8.846
    1STR   C302 1839   1.466   2.526   8.635
    1STR   H303 1840   1.521   2.513   8.542
    1STR   H304 1841   1.406   2.616   8.625
    1STR   H305 1842   1.397   2.442   8.646
    1STR   C306 1843   1.622   2.396   8.792
    1STR   H307 1844   1.609   2.325   8.711
    1STR   H308 1845   1.728   2.407   8.806
    1STR   O309 1846   1.558   2.337   8.905
    1STR    H1R 1847   1.574   2.214   9.066
    1STR    H1S 1848   1.693   2.042   8.991
    1STR    H1T 1849   1.724   2.122   8.835
    1STR    H1U 1850   1.564   2.077   8.881
    1STR    H1V 1851   1.843   2.271   9.074
    1STR    H1W 1852   1.723   2.312   9.177
    1STR    H1X 1853   2.040   2.594   9.071
    1STR    H1Y 1854   1.872   2.809   9.126
    1STR    H1Z 1855   1.823   2.926   0.015
    1STR    H20 1856   1.791   2.789   0.348
    1STR    H21 1857   1.943   2.858   0.299
    1STR    H22 1858   1.798   2.937   0.250
    1STR    H23 1859   1.724   2.603   0.297
    1STR    H27 1860   1.895   2.438   0.018
    1STR    H28 1861   0.372   2.415   9.205
    1STR    H29 1862   0.347   2.456   8.955
    1STR    H2A 1863   0.440   2.246   8.689
    1STR    H2B 1864   0.329   2.375   8.744
    1STR    H2C 1865   0.282   2.205   8.743
    1STR   BCK1 1866   0.493   2.064   2.709
    1STR    O03 1867   0.524   2.064   2.590
    1STR    N04 1868   0.446   1.962   2.782
    1STR    C05 1869   0.445   1.839   2.724
    1STR    C06 1870   0.384   1.838   2.599
    1STR    C07 1871   0.456   1.798   2.487
    1STR    N08 1872   0.423   1.860   2.366
    1STR    C09 1873   0.494   1.895   2.260
    1STR    O0A 1874   0.607   1.855   2.242
    1STR    O0B 1875   0.427   1.974   2.171
    1STR    C0C 1876   0.501   2.049   2.072
    1STR    C0D 1877   0.549   1.964   1.953
    1STR    C0E 1878   0.444   2.183   2.016
    1STR    O0F 1879   0.359   2.272   2.086
    1STR    C0G 1880   0.400   2.336   2.206
    1STR    C0H 1881   0.422   2.227   2.307
    1STR    C0I 1882   0.514   2.436   2.212
    1STR    O0J 1883   0.488   2.573   2.181
    1STR    C0K 1884   1.777   2.017   2.832
    1STR    C0M 1885   1.887   2.065   2.749
    1STR    C0N 1886   1.796   1.921   2.953
    1STR    O0O 1887   1.731   1.796   2.923
    1STR    C0P 1888   1.788   1.723   2.827
    1STR    O0Q 1889   1.906   1.728   2.801
    1STR    N0R 1890   1.700   1.658   2.750
    1STR    C0S 1891   1.718   1.627   2.615
    1STR    C0T 1892   1.630   1.537   2.552
    1STR    C0U 1893   1.636   1.516   2.413
    1STR    C0V 1894   1.723   1.593   2.332
    1STR    C0W 1895   1.719   1.567   2.183
    1STR    C0X 1896   1.805   1.692   2.391
    1STR    N0Y 1897   1.871   1.785   2.308
    1STR   BCK2 1898   1.930   1.906   2.324
    1STR    O10 1899   1.973   1.970   2.230
    1STR    C13 1900   1.810   1.698   2.533
    1STR    C14 1901   0.563   1.711   2.514
    1STR    C15 1902   0.606   1.684   2.645
    1STR    C16 1903   0.548   1.750   2.754
    1STR    C17 1904   0.593   1.726   2.897
    1STR    H1B 1905   0.398   1.984   2.868
    1STR    H1C 1906   0.300   1.900   2.590
    1STR    H1D 1907   0.330   1.897   2.360
    1STR    H1E 1908   0.589   2.078   2.127
    1STR    H1F 1909   0.475   1.920   1.888
    1STR    H1G 1910   0.605   2.025   1.884
    1STR    H1H 1911   0.613   1.885   1.987
    1STR    H1I 1912   0.384   2.160   1.929
    1STR    H1J 1913   0.526   2.241   1.976
    1STR    H1K 1914   0.315   2.395   2.232
    1STR    H1M 1915   0.507   2.163   2.296
    1STR    H1N 1916   0.336   2.164   2.307
    1STR    H1O 1917   0.440   2.273   2.400
    1STR    H1P 1918   0.560   2.434   2.311
    1STR    H1Q 1919   0.585   2.398   2.146
    1STR   C010 1920   0.600   2.654   2.214
    1STR   H011 1921   0.691   2.594   2.227
    1STR   C012 1922   0.629   2.749   2.101
    1STR   H013 1923   0.537   2.782   2.057
    1STR   H014 1924   0.685   2.701   2.023
    1STR   H015 1925   0.692   2.831   2.134
    1STR   C016 1926   0.579   2.728   2.345
    1STR   H017 1927   0.640   2.818   2.352
    1STR   H018 1928   0.475   2.753   2.362
    1STR   O019 1929   0.624   2.635   2.438
    1STR   C020 1930   0.643   2.680   2.569
    1STR   H021 1931   0.568   2.754   2.596
    1STR   C022 1932   0.625   2.550   2.645
    1STR   H023 1933   0.552   2.557   2.722
    1STR   H024 1934   0.716   2.508   2.687
    1STR   H025 1935   0.591   2.476   2.576
    1STR   C026 1936   0.785   2.735   2.580
    1STR   H027 1937   0.854   2.660   2.617
    1STR   H028 1938   0.820   2.762   2.481
    1STR   O029 1939   0.786   2.852   2.658
    1STR   C030 1940   0.820   2.836   2.795
    1STR   H031 1941   0.912   2.779   2.806
    1STR   C032 1942   0.846   2.980   2.836
    1STR   H033 1943   0.757   3.041   2.821
    1STR   H034 1944   0.925   3.024   2.775
    1STR   H035 1945   0.875   2.988   2.940
    1STR   C036 1946   0.704   2.777   2.878
    1STR   H037 1947   0.702   2.824   2.977
    1STR   H038 1948   0.613   2.807   2.827
    1STR   O039 1949   0.689   2.636   2.898
    1STR   C040 1950   0.801   2.558   2.937
    1STR   H041 1951   0.858   2.565   2.847
    1STR   C042 1952   0.866   2.627   3.060
    1STR   H043 1953   0.793   2.643   3.139
    1STR   H044 1954   0.911   2.723   3.036
    1STR   H045 1955   0.945   2.566   3.105
    1STR   C046 1956   0.785   2.404   2.970
    1STR   H047 1957   0.884   2.376   2.993
    1STR   H048 1958   0.737   2.390   3.065
    1STR   O049 1959   0.737   2.302   2.877
    1STR   C050 1960   0.791   2.168   2.900
    1STR   H051 1961   0.887   2.191   2.865
    1STR   C052 1962   0.789   2.130   3.050
    1STR   H053 1963   0.687   2.135   3.086
    1STR   H054 1964   0.851   2.194   3.112
    1STR   H055 1965   0.826   2.029   3.067
    1STR   C056 1966   0.773   2.035   2.817
    1STR   H057 1967   0.854   1.972   2.851
    1STR   H058 1968   0.685   1.983   2.851
    1STR   O059 1969   0.779   2.030   2.674
    1STR   C060 1970   0.838   1.921   2.598
    1STR   H061 1971   0.923   1.971   2.560
    1STR   C062 1972   0.883   1.792   2.673
    1STR   H063 1973   0.817   1.770   2.755
    1STR   H064 1974   0.981   1.794   2.720
    1STR   H065 1975   0.888   1.706   2.607
    1STR   C066 1976   0.781   1.892   2.458
    1STR   H067 1977   0.771   1.787   2.447
    1STR   H068 1978   0.686   1.942   2.448
    1STR   O069 1979   0.862   1.921   2.344
    1STR   C070 1980   0.909   1.826   2.246
    1STR   H071 1981   1.010   1.861   2.226
    1STR   C072 1982   0.928   1.679   2.286
    1STR   H073 1983   0.834   1.630   2.311
    1STR   H074 1984   0.995   1.668   2.371
    1STR   H075 1985   0.971   1.623   2.203
    1STR   C076 1986   0.847   1.849   2.107
    1STR   H077 1987   0.784   1.766   2.076
    1STR   H078 1988   0.785   1.937   2.118
    1STR   O079 1989   0.949   1.878   2.012
    1STR   C080 1990   0.910   1.943   1.892
    1STR   H081 1991   1.005   1.958   1.841
    1STR   C082 1992   0.836   1.846   1.799
    1STR   H083 1993   0.812   1.891   1.703
    1STR   H084 1994   0.743   1.808   1.842
    1STR   H085 1995   0.898   1.758   1.780
    1STR   C086 1996   0.852   2.089   1.898
    1STR   H087 1997   0.930   2.162   1.876
    1STR   H088 1998   0.791   2.090   1.810
    1STR   O089 1999   0.770   2.133   2.010
    1STR   C090 2000   0.800   2.253   2.084
    1STR   H091 2001   0.899   2.262   2.061
    1STR   C092 2002   0.772   2.383   2.015
    1STR   H093 2003   0.774   2.466   2.085
    1STR   H094 2004   0.676   2.377   1.970
    1STR   H095 2005   0.847   2.406   1.940
    1STR   C096 2006   0.784   2.250   2.241
    1STR   H097 2007   0.680   2.252   2.264
    1STR   H098 2008   0.816   2.153   2.275
    1STR   O099 2009   0.850   2.354   2.321
    1STR   C100 2010   0.830   2.366   2.466
    1STR   H101 2011   0.779   2.461   2.468
    1STR   C102 2012   0.734   2.262   2.517
    1STR   H103 2013   0.764   2.162   2.490
    1STR   H104 2014   0.637   2.276   2.474
    1STR   H105 2015   0.723   2.268   2.625
    1STR   C106 2016   0.951   2.388   2.566
    1STR   H107 2017   1.039   2.339   2.530
    1STR   H108 2018   0.978   2.493   2.561
    1STR   O109 2019   0.944   2.347   2.706
    1STR   C110 2020   1.070   2.356   2.780
    1STR   H111 2021   1.146   2.339   2.705
    1STR   C112 2022   1.086   2.498   2.826
    1STR   H113 2023   1.040   2.518   2.921
    1STR   H114 2024   1.059   2.574   2.754
    1STR   H115 2025   1.186   2.506   2.858
    1STR   C116 2026   1.106   2.273   2.911
    1STR   H117 2027   1.208   2.288   2.938
    1STR   H118 2028   1.066   2.316   3.001
    1STR   O119 2029   1.079   2.135   2.930
    1STR   C120 2030   1.141   2.044   2.845
    1STR   H121 2031   1.243   2.067   2.845
    1STR   C122 2032   1.123   1.907   2.914
    1STR   H123 2033   1.020   1.878   2.927
    1STR   H124 2034   1.165   1.910   3.015
    1STR   H125 2035   1.173   1.826   2.861
    1STR   C126 2036   1.096   2.053   2.699
    1STR   H127 2037   1.086   1.951   2.672
    1STR   H128 2038   1.003   2.109   2.690
    1STR   O129 2039   1.186   2.099   2.600
    1STR   C130 2040   1.162   2.056   2.463
    1STR   H131 2041   1.248   2.080   2.402
    1STR   C132 2042   1.151   1.903   2.441
    1STR   H133 2043   1.055   1.859   2.461
    1STR   H134 2044   1.217   1.840   2.500
    1STR   H135 2045   1.176   1.883   2.337
    1STR   C136 2046   1.051   2.135   2.395
    1STR   H137 2047   1.008   2.070   2.327
    1STR   H138 2048   0.972   2.152   2.466
    1STR   O139 2049   1.083   2.257   2.327
    1STR   C140 2050   1.086   2.263   2.185
    1STR   H141 2051   1.186   2.271   2.184
    1STR   C142 2052   1.072   2.128   2.115
    1STR   H143 2053   0.975   2.083   2.127
    1STR   H144 2054   1.136   2.054   2.161
    1STR   H145 2055   1.093   2.137   2.010
    1STR   C146 2056   1.086   2.396   2.098
    1STR   H147 2057   1.186   2.439   2.090
    1STR   H148 2058   1.066   2.374   1.994
    1STR   O149 2059   0.997   2.497   2.140
    1STR   C150 2060   1.026   2.630   2.097
    1STR   H151 2061   1.133   2.645   2.094
    1STR   C152 2062   0.963   2.665   1.963
    1STR   H153 2063   0.860   2.633   1.958
    1STR   H154 2064   1.010   2.616   1.880
    1STR   H155 2065   0.965   2.773   1.947
    1STR   C156 2066   0.969   2.719   2.207
    1STR   H157 2067   1.004   2.822   2.201
    1STR   H158 2068   0.862   2.721   2.201
    1STR   O159 2069   0.996   2.660   2.331
    1STR   C160 2070   1.130   2.675   2.371
    1STR   H161 2071   1.189   2.729   2.298
    1STR   C162 2072   1.103   2.762   2.494
    1STR   H163 2073   1.061   2.704   2.576
    1STR   H164 2074   1.032   2.842   2.471
    1STR   H165 2075   1.188   2.815   2.531
    1STR   C166 2076   1.191   2.534   2.390
    1STR   H167 2077   1.234   2.526   2.489
    1STR   H168 2078   1.107   2.469   2.385
    1STR   O169 2079   1.281   2.486   2.287
    1STR   C170 2080   1.362   2.367   2.310
    1STR   H171 2081   1.454   2.421   2.313
    1STR   C172 2082   1.350   2.307   2.450
    1STR   H173 2083   1.394   2.210   2.457
    1STR   H174 2084   1.248   2.299   2.485
    1STR   H175 2085   1.399   2.365   2.523
    1STR   C176 2086   1.405   2.270   2.191
    1STR   H177 2087   1.396   2.336   2.107
    1STR   H178 2088   1.507   2.247   2.209
    1STR   O179 2089   1.345   2.141   2.156
    1STR   C180 2090   1.354   2.084   2.022
    1STR   H181 2091   1.457   2.062   2.010
    1STR   C182 2092   1.291   1.943   2.008
    1STR   H183 2093   1.186   1.944   1.979
    1STR   H184 2094   1.293   1.886   2.100
    1STR   H185 2095   1.339   1.885   1.930
    1STR   C186 2096   1.315   2.165   1.895
    1STR   H187 2097   1.394   2.151   1.822
    1STR   H188 2098   1.229   2.120   1.846
    1STR   O189 2099   1.285   2.303   1.908
    1STR   C190 2100   1.317   2.380   1.793
    1STR   H191 2101   1.424   2.370   1.778
    1STR   C192 2102   1.250   2.325   1.666
    1STR   H193 2103   1.145   2.306   1.685
    1STR   H194 2104   1.294   2.231   1.635
    1STR   H195 2105   1.260   2.394   1.582
    1STR   C196 2106   1.283   2.529   1.814
    1STR   H197 2107   1.323   2.583   1.728
    1STR   H198 2108   1.176   2.537   1.806
    1STR   O199 2109   1.323   2.591   1.937
    1STR   C200 2110   1.359   2.730   1.935
    1STR   H201 2111   1.459   2.736   1.894
    1STR   C202 2112   1.274   2.818   1.841
    1STR   H203 2113   1.168   2.808   1.864
    1STR   H204 2114   1.290   2.795   1.736
    1STR   H205 2115   1.300   2.923   1.853
    1STR   C206 2116   1.362   2.800   2.074
    1STR   H207 2117   1.428   2.886   2.064
    1STR   H208 2118   1.262   2.839   2.096
    1STR   O209 2119   1.401   2.725   2.189
    1STR   C210 2120   1.446   2.802   2.302
    1STR   H211 2121   1.545   2.831   2.269
    1STR   C212 2122   1.371   2.937   2.325
    1STR   H213 2123   1.265   2.924   2.341
    1STR   H214 2124   1.384   3.007   2.243
    1STR   H215 2125   1.409   2.987   2.413
    1STR   C216 2126   1.463   2.718   2.434
    1STR   H217 2127   1.423   2.618   2.425
    1STR   H218 2128   1.568   2.701   2.458
    1STR   O219 2129   1.405   2.784   2.544
    1STR   C220 2130   1.424   2.739   2.677
    1STR   H221 2131   1.529   2.720   2.700
    1STR   C222 2132   1.363   2.859   2.754
    1STR   H223 2133   1.391   2.857   2.860
    1STR   H224 2134   1.254   2.858   2.750
    1STR   H225 2135   1.391   2.956   2.713
    1STR   C226 2136   1.341   2.621   2.725
    1STR   H227 2137   1.324   2.642   2.830
    1STR   H228 2138   1.245   2.636   2.677
    1STR   O229 2139   1.370   2.482   2.706
    1STR   C230 2140   1.433   2.401   2.807
    1STR   H231 2141   1.532   2.410   2.774
    1STR   C232 2142   1.425   2.455   2.954
    1STR   H233 2143   1.326   2.459   2.997
    1STR   H234 2144   1.467   2.555   2.963
    1STR   H235 2145   1.480   2.394   3.024
    1STR   C236 2146   1.400   2.247   2.800
    1STR   H237 2147   1.397   2.211   2.902
    1STR   H238 2148   1.306   2.238   2.752
    1STR   O239 2149   1.471   2.147   2.728
    1STR   C240 2150   1.459   2.007   2.769
    1STR   H241 2151   1.555   1.975   2.742
    1STR   C242 2152   1.458   1.965   2.920
    1STR   H243 2153   1.368   1.984   2.976
    1STR   H244 2154   1.534   2.017   2.978
    1STR   H245 2155   1.480   1.859   2.929
    1STR   C246 2156   1.400   1.906   2.670
    1STR   H247 2157   1.449   1.809   2.672
    1STR   H248 2158   1.298   1.886   2.697
    1STR   O249 2159   1.399   1.963   2.541
    1STR   C250 2160   1.498   1.949   2.442
    1STR   H251 2161   1.491   2.042   2.387
    1STR   C252 2162   1.631   1.935   2.504
    1STR   H253 2163   1.631   1.848   2.565
    1STR   H254 2164   1.660   2.015   2.570
    1STR   H255 2165   1.702   1.930   2.425
    1STR   C256 2166   1.472   1.845   2.333
    1STR   H257 2167   1.529   1.755   2.348
    1STR   H258 2168   1.369   1.813   2.334
    1STR   O259 2169   1.493   1.908   2.206
    1STR   C260 2170   1.615   1.887   2.138
    1STR   H261 2171   1.668   1.816   2.196
    1STR   C262 2172   1.586   1.816   2.005
    1STR   H263 2173   1.560   1.885   1.926
    1STR   H264 2174   1.505   1.745   2.017
    1STR   H265 2175   1.673   1.760   1.971
    1STR   C266 2176   1.704   2.012   2.126
    1STR   H267 2177   1.739   2.038   2.226
    1STR   H268 2178   1.789   1.986   2.066
    1STR   O269 2179   1.646   2.132   2.082
    1STR   C270 2180   1.705   2.211   1.981
    1STR   H271 2181   1.810   2.230   2.000
    1STR   C272 2182   1.679   2.143   1.847
    1STR   H273 2183   1.755   2.073   1.825
    1STR   H274 2184   1.672   2.215   1.765
    1STR   H275 2185   1.588   2.086   1.846
    1STR   C276 2186   1.628   2.343   1.980
    1STR   H277 2187   1.658   2.411   1.903
    1STR   H278 2188   1.527   2.317   1.953
    1STR   O279 2189   1.619   2.409   2.104
    1STR   C280 2190   1.711   2.509   2.132
    1STR   H281 2191   1.806   2.470   2.102
    1STR   C282 2192   1.670   2.634   2.059
    1STR   H283 2193   1.588   2.611   1.992
    1STR   H284 2194   1.754   2.669   2.003
    1STR   H285 2195   1.639   2.715   2.124
    1STR   C286 2196   1.705   2.530   2.280
    1STR   H287 2197   1.776   2.603   2.318
    1STR   H288 2198   1.604   2.562   2.302
    1STR   O289 2199   1.731   2.402   2.330
    1STR   C290 2200   1.674   2.370   2.451
    1STR   H291 2201   1.581   2.420   2.468
    1STR   C292 2202   1.664   2.223   2.441
    1STR   H293 2203   1.635   2.187   2.344
    1STR   H294 2204   1.591   2.194   2.516
    1STR   H295 2205   1.758   2.175   2.464
    1STR   C296 2206   1.757   2.402   2.569
    1STR   H297 2207   1.859   2.372   2.549
    1STR   H298 2208   1.746   2.508   2.583
    1STR   O299 2209   1.709   2.328   2.677
    1STR   C300 2210   1.773   2.354   2.799
    1STR   H301 2211   1.880   2.345   2.784
    1STR   C302 2212   1.741   2.497   2.848
    1STR   H303 2213   1.695   2.561   2.774
    1STR   H304 2214   1.832   2.544   2.881
    1STR   H305 2215   1.674   2.498   2.932
    1STR   C306 2216   1.722   2.248   2.898
    1STR   H307 2217   1.789   2.232   2.976
    1STR   H308 2218   1.632   2.281   2.945
    1STR   O309 2219   1.687   2.123   2.847
    1STR    H1R 2220   1.741   1.951   2.756
    1STR    H1S 2221   1.954   1.983   2.727
    1STR    H1T 2222   1.940   2.150   2.788
    1STR    H1U 2223   1.843   2.107   2.659
    1STR    H1V 2224   1.757   1.966   3.044
    1STR    H1W 2225   1.901   1.903   2.970
    1STR    H1X 2226   1.610   1.646   2.793
    1STR    H1Y 2227   1.559   1.481   2.611
    1STR    H1Z 2228   1.573   1.442   2.368
    1STR    H20 2229   1.792   1.623   2.126
    1STR    H21 2230   1.736   1.461   2.161
    1STR    H22 2231   1.620   1.590   2.145
    1STR    H23 2232   1.869   1.761   2.210
    1STR    H27 2233   1.874   1.770   2.579
    1STR    H28 2234   0.617   1.665   2.434
    1STR    H29 2235   0.688   1.616   2.660
    1STR    H2A 2236   0.594   1.819   2.955
    1STR    H2B 2237   0.691   1.680   2.904
    1STR    H2C 2238   0.521   1.660   2.945
    1STR   BCK1 2239   0.327   2.482   4.255
    1STR    O03 2240   0.314   2.562   4.346
    1STR    N04 2241   0.392   2.503   4.142
    1STR    C05 2242   0.468   2.610   4.095
    1STR    C06 2243   0.470   2.738   4.153
    1STR    C07 2244   0.556   2.839   4.106
    1STR    N08 2245   0.567   2.957   4.177
    1STR    C09 2246   0.655   2.949   4.276
    1STR    O0A 2247   0.773   2.979   4.266
    1STR    O0B 2248   0.594   2.894   4.380
    1STR    C0C 2249   0.668   2.828   4.480
    1STR    C0D 2250   0.717   2.935   4.582
    1STR    C0E 2251   0.588   2.700   4.525
    1STR    O0F 2252   0.637   2.570   4.493
    1STR    C0G 2253   0.626   2.513   4.365
    1STR    C0H 2254   0.724   2.557   4.258
    1STR    C0I 2255   0.620   2.359   4.364
    1STR    O0J 2256   0.583   2.297   4.486
    1STR    C0K 2257   1.636   2.476   4.123
    1STR    C0M 2258   1.539   2.582   4.072
    1STR    C0N 2259   1.697   2.507   4.260
    1STR    O0O 2260   1.620   2.466   4.366
    1STR    C0P 2261   1.674   2.440   4.480
    1STR    O0Q 2262   1.659   2.334   4.533
    1STR    N0R 2263   1.745   2.539   4.530
    1STR    C0S 2264   1.810   2.539   4.651
    1STR    C0T 2265   1.870   2.658   4.684
    1STR    C0U 2266   1.923   2.679   4.810
    1STR    C0V 2267   1.935   2.571   4.897
    1STR    C0W 2268   2.021   2.587   5.014
    1STR    C0X 2269   1.870   2.450   4.870
    1STR    N0Y 2270   1.858   2.343   4.957
    1STR   BCK2 2271   1.844   2.332   5.088
    1STR    O10 2272   1.851   2.418   5.172
    1STR    C13 2273   1.805   2.438   4.748
    1STR    C14 2274   0.645   2.810   4.001
    1STR    C15 2275   0.651   2.679   3.950
    1STR    C16 2276   0.560   2.581   3.994
    1STR    C17 2277   0.578   2.434   3.962
    1STR    H1B 2278   0.386   2.423   4.082
    1STR    H1C 2279   0.409   2.755   4.239
    1STR    H1D 2280   0.479   2.984   4.218
    1STR    H1E 2281   0.758   2.793   4.437
    1STR    H1F 2282   0.646   3.009   4.616
    1STR    H1G 2283   0.761   2.895   4.672
    1STR    H1H 2284   0.792   2.995   4.532
    1STR    H1I 2285   0.483   2.706   4.497
    1STR    H1J 2286   0.589   2.694   4.633
    1STR    H1K 2287   0.535   2.556   4.336
    1STR    H1M 2288   0.823   2.524   4.277
    1STR    H1N 2289   0.721   2.664   4.240
    1STR    H1O 2290   0.707   2.504   4.167
    1STR    H1P 2291   0.551   2.331   4.286
    1STR    H1Q 2292   0.716   2.317   4.334
    1STR   C010 2293   0.608   2.156   4.494
    1STR   H011 2294   0.716   2.144   4.494
    1STR   C012 2295   0.544   2.109   4.625
    1STR   H013 2296   0.493   2.193   4.668
    1STR   H014 2297   0.610   2.079   4.703
    1STR   H015 2298   0.476   2.025   4.615
    1STR   C016 2299   0.555   2.065   4.384
    1STR   H017 2300   0.591   1.965   4.401
    1STR   H018 2301   0.450   2.051   4.386
    1STR   O019 2302   0.588   2.109   4.256
    1STR   C020 2303   0.542   2.021   4.158
    1STR   H021 2304   0.457   1.960   4.189
    1STR   C022 2305   0.499   2.113   4.049
    1STR   H023 2306   0.467   2.057   3.962
    1STR   H024 2307   0.582   2.175   4.017
    1STR   H025 2308   0.420   2.174   4.091
    1STR   C026 2309   0.661   1.941   4.114
    1STR   H027 2310   0.739   2.014   4.100
    1STR   H028 2311   0.692   1.872   4.192
    1STR   O029 2312   0.634   1.874   3.993
    1STR   C030 2313   0.747   1.804   3.948
    1STR   H031 2314   0.784   1.744   4.031
    1STR   C032 2315   0.699   1.708   3.840
    1STR   H033 2316   0.651   1.763   3.759
    1STR   H034 2317   0.626   1.639   3.882
    1STR   H035 2318   0.781   1.650   3.799
    1STR   C036 2319   0.855   1.901   3.899
    1STR   H037 2320   0.897   1.950   3.986
    1STR   H038 2321   0.937   1.848   3.850
    1STR   O039 2322   0.798   1.999   3.813
    1STR   C040 2323   0.886   2.101   3.768
    1STR   H041 2324   0.991   2.073   3.776
    1STR   C042 2325   0.847   2.116   3.622
    1STR   H043 2326   0.740   2.134   3.618
    1STR   H044 2327   0.866   2.024   3.567
    1STR   H045 2328   0.899   2.198   3.573
    1STR   C046 2329   0.859   2.232   3.845
    1STR   H047 2330   0.817   2.306   3.777
    1STR   H048 2331   0.780   2.212   3.917
    1STR   O049 2332   0.975   2.293   3.901
    1STR   C050 2333   0.945   2.379   4.011
    1STR   H051 2334   0.855   2.438   3.993
    1STR   C052 2335   0.920   2.285   4.128
    1STR   H053 2336   1.004   2.218   4.140
    1STR   H054 2337   0.829   2.227   4.118
    1STR   H055 2338   0.908   2.339   4.220
    1STR   C056 2339   1.053   2.485   4.041
    1STR   H057 2340   1.149   2.439   4.062
    1STR   H058 2341   1.066   2.547   3.953
    1STR   O059 2342   1.008   2.561   4.153
    1STR   C060 2343   1.055   2.694   4.178
    1STR   H061 2344   1.163   2.702   4.179
    1STR   C062 2345   1.006   2.787   4.067
    1STR   H063 2346   0.898   2.781   4.060
    1STR   H064 2347   1.049   2.765   3.970
    1STR   H065 2348   1.030   2.891   4.091
    1STR   C066 2349   1.002   2.746   4.315
    1STR   H067 2350   1.046   2.844   4.333
    1STR   H068 2351   0.897   2.766   4.301
    1STR   O069 2352   1.028   2.672   4.435
    1STR   C070 2353   0.929   2.586   4.496
    1STR   H071 2354   0.844   2.617   4.446
    1STR   C072 2355   0.945   2.434   4.476
    1STR   H073 2356   0.992   2.380   4.556
    1STR   H074 2357   0.995   2.407   4.385
    1STR   H075 2358   0.847   2.387   4.479
    1STR   C076 2359   0.882   2.619   4.638
    1STR   H077 2360   0.958   2.621   4.710
    1STR   H078 2361   0.848   2.720   4.642
    1STR   O079 2362   0.781   2.532   4.684
    1STR   C080 2363   0.823   2.441   4.781
    1STR   H081 2364   0.922   2.407   4.756
    1STR   C082 2365   0.812   2.517   4.913
    1STR   H083 2366   0.872   2.608   4.912
    1STR   H084 2367   0.851   2.458   4.996
    1STR   H085 2368   0.710   2.547   4.934
    1STR   C086 2369   0.741   2.315   4.777
    1STR   H087 2370   0.733   2.282   4.878
    1STR   H088 2371   0.641   2.342   4.743
    1STR   O089 2372   0.795   2.214   4.692
    1STR   C090 2373   0.859   2.097   4.744
    1STR   H091 2374   0.962   2.129   4.742
    1STR   C092 2375   0.811   2.044   4.881
    1STR   H093 2376   0.707   2.020   4.879
    1STR   H094 2377   0.822   2.112   4.964
    1STR   H095 2378   0.862   1.955   4.913
    1STR   C096 2379   0.850   1.978   4.647
    1STR   H097 2380   0.890   1.890   4.696
    1STR   H098 2381   0.748   1.951   4.625
    1STR   O099 2382   0.927   2.000   4.531
    1STR   C100 2383   0.884   1.933   4.414
    1STR   H101 2384   0.779   1.919   4.423
    1STR   C102 2385   0.905   2.037   4.306
    1STR   H103 2386   0.818   2.100   4.299
    1STR   H104 2387   0.927   1.992   4.210
    1STR   H105 2388   0.985   2.106   4.332
    1STR   C106 2389   0.948   1.796   4.382
    1STR   H107 2390   1.046   1.815   4.344
    1STR   H108 2391   0.961   1.735   4.470
    1STR   O109 2392   0.881   1.722   4.279
    1STR   C110 2393   0.962   1.618   4.223
    1STR   H111 2394   1.030   1.586   4.302
    1STR   C112 2395   0.881   1.494   4.185
    1STR   H113 2396   0.790   1.522   4.131
    1STR   H114 2397   0.853   1.436   4.272
    1STR   H115 2398   0.940   1.427   4.123
    1STR   C116 2399   1.040   1.670   4.101
    1STR   H117 2400   1.128   1.607   4.085
    1STR   H118 2401   0.982   1.659   4.010
    1STR   O119 2402   1.071   1.807   4.116
    1STR   C120 2403   1.188   1.851   4.053
    1STR   H121 2404   1.198   1.804   3.955
    1STR   C122 2405   1.172   2.002   4.034
    1STR   H123 2406   1.176   2.055   4.129
    1STR   H124 2407   1.081   2.031   3.985
    1STR   H125 2408   1.249   2.041   3.969
    1STR   C126 2409   1.312   1.821   4.140
    1STR   H127 2410   1.397   1.860   4.085
    1STR   H128 2411   1.309   1.877   4.233
    1STR   O129 2412   1.341   1.683   4.157
    1STR   C130 2413   1.323   1.617   4.284
    1STR   H131 2414   1.231   1.561   4.287
    1STR   C132 2415   1.438   1.517   4.277
    1STR   H133 2416   1.532   1.567   4.255
    1STR   H134 2417   1.421   1.442   4.200
    1STR   H135 2418   1.451   1.468   4.373
    1STR   C136 2419   1.339   1.697   4.414
    1STR   H137 2420   1.363   1.631   4.496
    1STR   H138 2421   1.428   1.752   4.390
    1STR   O139 2422   1.229   1.775   4.461
    1STR   C140 2423   1.243   1.897   4.537
    1STR   H141 2424   1.339   1.930   4.573
    1STR   C142 2425   1.208   2.011   4.442
    1STR   H143 2426   1.154   1.981   4.354
    1STR   H144 2427   1.298   2.052   4.403
    1STR   H145 2428   1.153   2.092   4.490
    1STR   C146 2429   1.159   1.898   4.665
    1STR   H147 2430   1.114   1.995   4.678
    1STR   H148 2431   1.082   1.822   4.655
    1STR   O149 2432   1.232   1.878   4.786
    1STR   C150 2433   1.151   1.881   4.904
    1STR   H151 2434   1.047   1.869   4.874
    1STR   C152 2435   1.183   1.753   4.982
    1STR   H153 2436   1.284   1.753   5.023
    1STR   H154 2437   1.175   1.666   4.916
    1STR   H155 2438   1.113   1.738   5.064
    1STR   C156 2439   1.156   2.012   4.988
    1STR   H157 2440   1.114   1.991   5.086
    1STR   H158 2441   1.256   2.051   5.004
    1STR   O159 2442   1.077   2.111   4.923
    1STR   C160 2443   1.047   2.243   4.975
    1STR   H161 2444   0.945   2.268   4.951
    1STR   C162 2445   1.057   2.241   5.127
    1STR   H163 2446   0.990   2.165   5.164
    1STR   H164 2447   1.026   2.336   5.170
    1STR   H165 2448   1.156   2.214   5.162
    1STR   C166 2449   1.124   2.346   4.889
    1STR   H167 2450   1.221   2.328   4.925
    1STR   H168 2451   1.118   2.300   4.792
    1STR   O169 2452   1.089   2.489   4.877
    1STR   C170 2453   1.165   2.573   4.784
    1STR   H171 2454   1.261   2.569   4.822
    1STR   C172 2455   1.193   2.514   4.651
    1STR   H173 2456   1.155   2.564   4.568
    1STR   H174 2457   1.162   2.414   4.642
    1STR   H175 2458   1.297   2.522   4.632
    1STR   C176 2459   1.163   2.729   4.763
    1STR   H177 2460   1.259   2.766   4.795
    1STR   H178 2461   1.165   2.750   4.656
    1STR   O179 2462   1.062   2.815   4.812
    1STR   C180 2463   1.104   2.950   4.788
    1STR   H181 2464   1.187   2.957   4.717
    1STR   C182 2465   0.995   3.028   4.718
    1STR   H183 2466   0.903   3.032   4.776
    1STR   H184 2467   0.978   2.979   4.623
    1STR   H185 2468   1.027   3.130   4.696
    1STR   C186 2469   1.152   3.007   4.920
    1STR   H187 2470   1.152   3.116   4.918
    1STR   H188 2471   1.086   2.974   5.001
    1STR   O189 2472   1.285   2.963   4.934
    1STR   C190 2473   1.329   2.914   5.059
    1STR   H191 2474   1.437   2.902   5.049
    1STR   C192 2475   1.308   3.021   5.167
    1STR   H193 2476   1.357   2.992   5.260
    1STR   H194 2477   1.203   3.037   5.188
    1STR   H195 2478   1.352   3.115   5.134
    1STR   C196 2479   1.274   2.773   5.094
    1STR   H197 2480   1.311   2.748   5.193
    1STR   H198 2481   1.165   2.772   5.097
    1STR   O199 2482   1.316   2.676   4.998
    1STR   C200 2483   1.343   2.540   5.037
    1STR   H201 2484   1.411   2.567   5.111
    1STR   C202 2485   1.235   2.494   5.135
    1STR   H203 2486   1.134   2.509   5.098
    1STR   H204 2487   1.238   2.547   5.229
    1STR   H205 2488   1.254   2.391   5.159
    1STR   C206 2489   1.425   2.431   4.943
    1STR   H207 2490   1.531   2.449   4.943
    1STR   H208 2491   1.420   2.337   4.996
    1STR   O209 2492   1.391   2.405   4.803
    1STR   C210 2493   1.427   2.289   4.723
    1STR   H211 2494   1.535   2.286   4.721
    1STR   C212 2495   1.380   2.160   4.784
    1STR   H213 2496   1.273   2.150   4.786
    1STR   H214 2497   1.420   2.149   4.883
    1STR   H215 2498   1.416   2.077   4.724
    1STR   C216 2499   1.363   2.280   4.578
    1STR   H217 2500   1.392   2.188   4.533
    1STR   H218 2501   1.257   2.261   4.580
    1STR   O219 2502   1.396   2.385   4.488
    1STR   C220 2503   1.346   2.394   4.353
    1STR   H221 2504   1.431   2.401   4.289
    1STR   C222 2505   1.277   2.276   4.285
    1STR   H223 2506   1.346   2.194   4.271
    1STR   H224 2507   1.251   2.302   4.183
    1STR   H225 2508   1.185   2.248   4.335
    1STR   C226 2509   1.273   2.524   4.327
    1STR   H227 2510   1.275   2.541   4.221
    1STR   H228 2511   1.169   2.504   4.347
    1STR   O229 2512   1.301   2.644   4.398
    1STR   C230 2513   1.430   2.702   4.401
    1STR   H231 2514   1.497   2.651   4.334
    1STR   C232 2515   1.416   2.846   4.353
    1STR   H233 2516   1.347   2.902   4.416
    1STR   H234 2517   1.379   2.849   4.250
    1STR   H235 2518   1.513   2.896   4.355
    1STR   C236 2519   1.469   2.691   4.549
    1STR   H237 2520   1.384   2.727   4.605
    1STR   H238 2521   1.483   2.587   4.577
    1STR   O239 2522   1.587   2.758   4.590
    1STR   C240 2523   1.589   2.789   4.731
    1STR   H241 2524   1.689   2.808   4.759
    1STR   C242 2525   1.510   2.918   4.746
    1STR   H243 2526   1.517   2.951   4.849
    1STR   H244 2527   1.406   2.909   4.719
    1STR   H245 2528   1.552   2.995   4.682
    1STR   C246 2529   1.556   2.676   4.831
    1STR   H247 2530   1.455   2.646   4.808
    1STR   H248 2531   1.615   2.589   4.809
    1STR   O249 2532   1.560   2.707   4.973
    1STR   C250 2533   1.660   2.655   5.062
    1STR   H251 2534   1.721   2.587   5.006
    1STR   C252 2535   1.732   2.785   5.089
    1STR   H253 2536   1.672   2.853   5.149
    1STR   H254 2537   1.746   2.832   4.992
    1STR   H255 2538   1.830   2.776   5.135
    1STR   C256 2539   1.620   2.576   5.193
    1STR   H257 2540   1.702   2.573   5.264
    1STR   H258 2541   1.545   2.633   5.248
    1STR   O259 2542   1.578   2.438   5.167
    1STR   C260 2543   1.555   2.340   5.270
    1STR   H261 2544   1.653   2.312   5.309
    1STR   C262 2545   1.483   2.404   5.390
    1STR   H263 2546   1.384   2.441   5.362
    1STR   H264 2547   1.539   2.487   5.432
    1STR   H265 2548   1.469   2.332   5.470
    1STR   C266 2549   1.477   2.209   5.226
    1STR   H267 2550   1.478   2.138   5.308
    1STR   H268 2551   1.373   2.237   5.227
    1STR   O269 2552   1.484   2.142   5.096
    1STR   C270 2553   1.564   2.025   5.065
    1STR   H271 2554   1.651   2.062   5.012
    1STR   C272 2555   1.600   1.949   5.195
    1STR   H273 2556   1.645   2.012   5.272
    1STR   H274 2557   1.677   1.876   5.173
    1STR   H275 2558   1.513   1.900   5.238
    1STR   C276 2559   1.513   1.920   4.960
    1STR   H277 2560   1.548   1.826   4.999
    1STR   H278 2561   1.406   1.914   4.962
    1STR   O279 2562   1.555   1.925   4.821
    1STR   C280 2563   1.583   1.800   4.753
    1STR   H281 2564   1.682   1.774   4.784
    1STR   C282 2565   1.490   1.683   4.792
    1STR   H283 2566   1.387   1.700   4.759
    1STR   H284 2567   1.485   1.662   4.898
    1STR   H285 2568   1.524   1.591   4.746
    1STR   C286 2569   1.577   1.797   4.596
    1STR   H287 2570   1.606   1.698   4.561
    1STR   H288 2571   1.474   1.801   4.581
    1STR   O289 2572   1.644   1.888   4.506
    1STR   C290 2573   1.572   1.953   4.401
    1STR   H291 2574   1.466   1.941   4.407
    1STR   C292 2575   1.589   2.096   4.433
    1STR   H293 2576   1.686   2.130   4.404
    1STR   H294 2577   1.576   2.110   4.539
    1STR   H295 2578   1.524   2.163   4.378
    1STR   C296 2579   1.617   1.936   4.255
    1STR   H297 2580   1.723   1.958   4.245
    1STR   H298 2581   1.601   1.834   4.220
    1STR   O299 2582   1.534   2.028   4.180
    1STR   C300 2583   1.594   2.106   4.078
    1STR   H301 2584   1.671   2.045   4.032
    1STR   C302 2585   1.486   2.137   3.975
    1STR   H303 2586   1.402   2.186   4.023
    1STR   H304 2587   1.451   2.046   3.927
    1STR   H305 2588   1.521   2.205   3.897
    1STR   C306 2589   1.659   2.238   4.123
    1STR   H307 2590   1.694   2.232   4.225
    1STR   H308 2591   1.745   2.253   4.060
    1STR   O309 2592   1.572   2.349   4.111
    1STR    H1R 2593   1.723   2.476   4.061
    1STR    H1S 2594   1.567   2.683   4.102
    1STR    H1T 2595   1.440   2.566   4.111
    1STR    H1U 2596   1.529   2.580   3.964
    1STR    H1V 2597   1.726   2.611   4.271
    1STR    H1W 2598   1.783   2.444   4.272
    1STR    H1X 2599   1.720   2.629   4.493
    1STR    H1Y 2600   1.865   2.738   4.615
    1STR    H1Z 2601   1.961   2.775   4.839
    1STR    H20 2602   1.958   2.604   5.097
    1STR    H21 2603   2.080   2.497   5.020
    1STR    H22 2604   2.087   2.672   5.009
    1STR    H23 2605   1.861   2.252   4.913
    1STR    H27 2606   1.745   2.351   4.737
    1STR    H28 2607   0.715   2.886   3.969
    1STR    H29 2608   0.730   2.654   3.882
    1STR    H2A 2609   0.585   2.377   4.054
    1STR    H2B 2610   0.671   2.415   3.912
    1STR    H2C 2611   0.495   2.394   3.904
    1STR   BCK1 2612   0.391   2.156   7.412
    1STR    O03 2613   0.361   2.044   7.447
    1STR    N04 2614   0.459   2.245   7.488
    1STR    C05 2615   0.544   2.222   7.597
    1STR    C06 2616   0.564   2.092   7.646
    1STR    C07 2617   0.659   2.057   7.743
    1STR    N08 2618   0.679   1.921   7.773
    1STR    C09 2619   0.583   1.828   7.776
    1STR    O0A 2620   0.464   1.853   7.795
    1STR    O0B 2621   0.634   1.705   7.752
    1STR    C0C 2622   0.553   1.590   7.719
    1STR    C0D 2623   0.445   1.562   7.824
    1STR    C0E 2624   0.491   1.593   7.577
    1STR    O0F 2625   0.588   1.611   7.472
    1STR    C0G 2626   0.546   1.705   7.372
    1STR    C0H 2627   0.563   1.835   7.441
    1STR    C0I 2628   0.620   1.704   7.236
    1STR    O0J 2629   0.546   1.775   7.134
    1STR    C0K 2630   1.729   2.943   6.520
    1STR    C0M 2631   1.677   2.880   6.390
    1STR    C0N 2632   1.660   3.078   6.551
    1STR    O0O 2633   1.728   3.141   6.658
    1STR    C0P 2634   1.840   3.202   6.630
    1STR    O0Q 2635   1.860   3.249   6.520
    1STR    N0R 2636   1.932   3.201   6.726
    1STR    C0S 2637   1.918   3.175   6.861
    1STR    C0T 2638   1.832   3.254   6.937
    1STR    C0U 2639   1.825   3.241   7.076
    1STR    C0V 2640   1.894   3.136   7.139
    1STR    C0W 2641   1.853   3.106   7.278
    1STR    C0X 2642   1.973   3.045   7.064
    1STR    N0Y 2643   2.017   2.926   7.123
    1STR   BCK2 2644   2.036   2.802   7.072
    1STR    O10 2645   2.033   2.769   6.954
    1STR    C13 2646   1.987   3.071   6.926
    1STR    C14 2647   0.737   2.160   7.797
    1STR    C15 2648   0.716   2.294   7.756
    1STR    C16 2649   0.620   2.326   7.656
    1STR    C17 2650   0.595   2.472   7.624
    1STR    H1B 2651   0.463   2.335   7.445
    1STR    H1C 2652   0.500   2.015   7.613
    1STR    H1D 2653   0.771   1.885   7.763
    1STR    H1E 2654   0.623   1.507   7.719
    1STR    H1F 2655   0.367   1.637   7.824
    1STR    H1G 2656   0.393   1.469   7.803
    1STR    H1H 2657   0.487   1.556   7.925
    1STR    H1I 2658   0.411   1.666   7.577
    1STR    H1J 2659   0.438   1.500   7.558
    1STR    H1K 2660   0.441   1.689   7.347
    1STR    H1M 2661   0.496   1.842   7.525
    1STR    H1N 2662   0.532   1.912   7.375
    1STR    H1O 2663   0.665   1.854   7.474
    1STR    H1P 2664   0.717   1.749   7.252
    1STR    H1Q 2665   0.640   1.602   7.204
    1STR   C010 2666   0.618   1.803   7.013
    1STR   H011 2667   0.713   1.847   7.039
    1STR   C012 2668   0.647   1.673   6.937
    1STR   H013 2669   0.557   1.629   6.898
    1STR   H014 2670   0.697   1.598   6.997
    1STR   H015 2671   0.709   1.693   6.851
    1STR   C016 2672   0.545   1.900   6.916
    1STR   H017 2673   0.596   1.891   6.821
    1STR   H018 2674   0.441   1.870   6.899
    1STR   O019 2675   0.553   2.040   6.943
    1STR   C020 2676   0.486   2.124   6.847
    1STR   H021 2677   0.476   2.074   6.753
    1STR   C022 2678   0.348   2.164   6.891
    1STR   H023 2679   0.352   2.212   6.988
    1STR   H024 2680   0.276   2.083   6.885
    1STR   H025 2681   0.310   2.247   6.836
    1STR   C026 2682   0.563   2.254   6.836
    1STR   H027 2683   0.571   2.284   6.939
    1STR   H028 2684   0.660   2.238   6.790
    1STR   O029 2685   0.499   2.363   6.772
    1STR   C030 2686   0.549   2.487   6.817
    1STR   H031 2687   0.648   2.476   6.854
    1STR   C032 2688   0.551   2.585   6.699
    1STR   H033 2689   0.468   2.574   6.632
    1STR   H034 2690   0.640   2.574   6.637
    1STR   H035 2691   0.548   2.688   6.731
    1STR   C036 2692   0.473   2.540   6.937
    1STR   H037 2693   0.497   2.643   6.959
    1STR   H038 2694   0.373   2.548   6.903
    1STR   O039 2695   0.474   2.457   7.054
    1STR   C040 2696   0.583   2.475   7.143
    1STR   H041 2697   0.668   2.449   7.084
    1STR   C042 2698   0.598   2.616   7.200
    1STR   H043 2699   0.525   2.638   7.276
    1STR   H044 2700   0.596   2.698   7.129
    1STR   H045 2701   0.694   2.617   7.247
    1STR   C046 2702   0.582   2.381   7.262
    1STR   H047 2703   0.640   2.417   7.344
    1STR   H048 2704   0.482   2.394   7.298
    1STR   O049 2705   0.630   2.250   7.226
    1STR   C050 2706   0.683   2.148   7.315
    1STR   H051 2707   0.617   2.108   7.387
    1STR   C052 2708   0.687   2.030   7.224
    1STR   H053 2709   0.719   2.053   7.126
    1STR   H054 2710   0.587   1.997   7.203
    1STR   H055 2711   0.748   1.951   7.267
    1STR   C056 2712   0.810   2.165   7.402
    1STR   H057 2713   0.898   2.181   7.342
    1STR   H058 2714   0.795   2.252   7.464
    1STR   O059 2715   0.831   2.053   7.488
    1STR   C060 2716   0.965   2.008   7.502
    1STR   H061 2717   1.019   2.014   7.406
    1STR   C062 2718   1.040   2.087   7.610
    1STR   H063 2719   0.983   2.093   7.702
    1STR   H064 2720   1.064   2.187   7.578
    1STR   H065 2721   1.136   2.041   7.633
    1STR   C066 2722   0.959   1.860   7.540
    1STR   H067 2723   1.058   1.824   7.567
    1STR   H068 2724   0.895   1.846   7.626
    1STR   O069 2725   0.901   1.790   7.431
    1STR   C070 2726   0.982   1.691   7.370
    1STR   H071 2727   1.087   1.706   7.394
    1STR   C072 2728   0.936   1.557   7.428
    1STR   H073 2729   0.829   1.542   7.408
    1STR   H074 2730   0.947   1.556   7.536
    1STR   H075 2731   0.990   1.472   7.387
    1STR   C076 2732   0.968   1.702   7.217
    1STR   H077 2733   1.059   1.666   7.170
    1STR   H078 2734   0.888   1.637   7.181
    1STR   O079 2735   0.937   1.837   7.179
    1STR   C080 2736   0.988   1.887   7.055
    1STR   H081 2737   1.093   1.901   7.067
    1STR   C082 2738   0.976   1.785   6.941
    1STR   H083 2739   0.892   1.719   6.958
    1STR   H084 2740   1.064   1.721   6.935
    1STR   H085 2741   0.962   1.833   6.844
    1STR   C086 2742   0.937   2.028   7.017
    1STR   H087 2743   1.001   2.064   6.937
    1STR   H088 2744   0.841   2.015   6.969
    1STR   O089 2745   0.931   2.128   7.125
    1STR   C090 2746   0.925   2.269   7.091
    1STR   H091 2747   1.008   2.289   7.028
    1STR   C092 2748   0.820   2.272   6.986
    1STR   H093 2749   0.733   2.229   7.029
    1STR   H094 2750   0.842   2.214   6.898
    1STR   H095 2751   0.799   2.371   6.951
    1STR   C096 2752   0.896   2.388   7.199
    1STR   H097 2753   0.863   2.469   7.138
    1STR   H098 2754   0.814   2.357   7.252
    1STR   O099 2755   0.970   2.447   7.312
    1STR   C100 2756   0.903   2.512   7.428
    1STR   H101 2757   0.801   2.479   7.433
    1STR   C102 2758   0.968   2.455   7.555
    1STR   H103 2759   1.076   2.466   7.553
    1STR   H104 2760   0.944   2.351   7.568
    1STR   H105 2761   0.931   2.503   7.645
    1STR   C106 2762   0.897   2.668   7.458
    1STR   H107 2763   0.844   2.683   7.551
    1STR   H108 2764   0.994   2.712   7.477
    1STR   O109 2765   0.822   2.745   7.367
    1STR   C110 2766   0.830   2.887   7.364
    1STR   H111 2767   0.755   2.906   7.292
    1STR   C112 2768   0.794   2.953   7.498
    1STR   H113 2769   0.699   2.915   7.534
    1STR   H114 2770   0.785   3.061   7.486
    1STR   H115 2771   0.871   2.934   7.572
    1STR   C116 2772   0.943   2.953   7.286
    1STR   H117 2773   0.921   2.966   7.180
    1STR   H118 2774   0.967   3.051   7.325
    1STR   O119 2775   1.051   2.869   7.304
    1STR   C120 2776   1.083   2.784   7.195
    1STR   H121 2777   1.137   2.841   7.122
    1STR   C122 2778   1.168   2.690   7.274
    1STR   H123 2779   1.110   2.625   7.335
    1STR   H124 2780   1.231   2.745   7.342
    1STR   H125 2781   1.223   2.619   7.215
    1STR   C126 2782   0.979   2.696   7.125
    1STR   H127 2783   1.036   2.620   7.074
    1STR   H128 2784   0.921   2.647   7.198
    1STR   O129 2785   0.890   2.759   7.037
    1STR   C130 2786   0.816   2.672   6.949
    1STR   H131 2787   0.746   2.616   7.004
    1STR   C132 2788   0.747   2.774   6.863
    1STR   H133 2789   0.798   2.868   6.872
    1STR   H134 2790   0.645   2.785   6.898
    1STR   H135 2791   0.747   2.750   6.757
    1STR   C136 2792   0.894   2.575   6.859
    1STR   H137 2793   0.935   2.644   6.792
    1STR   H138 2794   0.967   2.513   6.910
    1STR   O139 2795   0.837   2.504   6.752
    1STR   C140 2796   0.934   2.457   6.658
    1STR   H141 2797   1.029   2.509   6.659
    1STR   C142 2798   0.950   2.311   6.689
    1STR   H143 2799   0.854   2.261   6.691
    1STR   H144 2800   0.998   2.299   6.784
    1STR   H145 2801   1.007   2.264   6.610
    1STR   C146 2802   0.877   2.468   6.519
    1STR   H147 2803   0.924   2.403   6.447
    1STR   H148 2804   0.779   2.436   6.542
    1STR   O149 2805   0.856   2.595   6.464
    1STR   C150 2806   0.973   2.654   6.416
    1STR   H151 2807   1.063   2.609   6.457
    1STR   C152 2808   0.974   2.646   6.263
    1STR   H153 2809   0.885   2.693   6.221
    1STR   H154 2810   0.974   2.541   6.231
    1STR   H155 2811   1.062   2.694   6.221
    1STR   C156 2812   0.960   2.794   6.474
    1STR   H157 2813   1.038   2.858   6.435
    1STR   H158 2814   0.864   2.837   6.444
    1STR   O159 2815   0.961   2.778   6.616
    1STR   C160 2816   1.081   2.821   6.676
    1STR   H161 2817   1.155   2.782   6.609
    1STR   C162 2818   1.065   2.973   6.671
    1STR   H163 2819   1.052   3.016   6.770
    1STR   H164 2820   0.981   3.006   6.610
    1STR   H165 2821   1.147   3.018   6.618
    1STR   C166 2822   1.121   2.764   6.817
    1STR   H167 2823   1.197   2.819   6.867
    1STR   H168 2824   1.043   2.792   6.885
    1STR   O169 2825   1.151   2.622   6.817
    1STR   C170 2826   1.243   2.558   6.907
    1STR   H171 2827   1.312   2.530   6.830
    1STR   C172 2828   1.330   2.644   6.988
    1STR   H173 2829   1.274   2.716   7.042
    1STR   H174 2830   1.402   2.698   6.927
    1STR   H175 2831   1.382   2.583   7.060
    1STR   C176 2832   1.217   2.420   6.977
    1STR   H177 2833   1.165   2.354   6.910
    1STR   H178 2834   1.318   2.384   6.981
    1STR   O179 2835   1.167   2.406   7.113
    1STR   C180 2836   1.207   2.287   7.191
    1STR   H181 2837   1.305   2.312   7.181
    1STR   C182 2838   1.187   2.290   7.342
    1STR   H183 2839   1.089   2.254   7.369
    1STR   H184 2840   1.197   2.390   7.379
    1STR   H185 2841   1.258   2.225   7.394
    1STR   C186 2842   1.199   2.139   7.145
    1STR   H187 2843   1.126   2.086   7.206
    1STR   H188 2844   1.172   2.137   7.041
    1STR   O189 2845   1.316   2.064   7.172
    1STR   C190 2846   1.337   1.930   7.128
    1STR   H191 2847   1.443   1.915   7.149
    1STR   C192 2848   1.271   1.841   7.234
    1STR   H193 2849   1.168   1.868   7.254
    1STR   H194 2850   1.316   1.860   7.331
    1STR   H195 2851   1.278   1.735   7.212
    1STR   C196 2852   1.327   1.896   6.974
    1STR   H197 2853   1.428   1.894   6.934
    1STR   H198 2854   1.289   1.795   6.961
    1STR   O199 2855   1.247   1.984   6.894
    1STR   C200 2856   1.281   2.001   6.755
    1STR   H201 2857   1.386   2.028   6.748
    1STR   C202 2858   1.251   1.872   6.679
    1STR   H203 2859   1.145   1.846   6.687
    1STR   H204 2860   1.308   1.788   6.717
    1STR   H205 2861   1.275   1.884   6.573
    1STR   C206 2862   1.194   2.117   6.701
    1STR   H207 2863   1.096   2.077   6.675
    1STR   H208 2864   1.174   2.180   6.788
    1STR   O209 2865   1.241   2.200   6.590
    1STR   C210 2866   1.277   2.335   6.626
    1STR   H211 2867   1.202   2.376   6.693
    1STR   C212 2868   1.404   2.316   6.703
    1STR   H213 2869   1.445   2.409   6.736
    1STR   H214 2870   1.480   2.258   6.651
    1STR   H215 2871   1.376   2.263   6.792
    1STR   C216 2872   1.297   2.448   6.520
    1STR   H217 2873   1.386   2.427   6.461
    1STR   H218 2874   1.214   2.446   6.450
    1STR   O219 2875   1.303   2.579   6.586
    1STR   C220 2876   1.385   2.685   6.532
    1STR   H221 2877   1.488   2.653   6.540
    1STR   C222 2878   1.354   2.702   6.382
    1STR   H223 2879   1.248   2.720   6.367
    1STR   H224 2880   1.382   2.614   6.325
    1STR   H225 2881   1.408   2.785   6.339
    1STR   C226 2882   1.388   2.828   6.602
    1STR   H227 2883   1.483   2.870   6.578
    1STR   H228 2884   1.319   2.894   6.551
    1STR   O229 2885   1.369   2.841   6.744
    1STR   C230 2886   1.385   2.970   6.812
    1STR   H231 2887   1.486   2.981   6.785
    1STR   C232 2888   1.336   3.100   6.748
    1STR   H233 2889   1.236   3.128   6.782
    1STR   H234 2890   1.341   3.101   6.640
    1STR   H235 2891   1.399   3.183   6.781
    1STR   C236 2892   1.353   2.983   6.970
    1STR   H237 2893   1.379   3.085   7.000
    1STR   H238 2894   1.245   2.981   6.987
    1STR   O239 2895   1.415   2.895   7.067
    1STR   C240 2896   1.430   2.933   7.207
    1STR   H241 2897   1.516   3.000   7.210
    1STR   C242 2898   1.320   3.025   7.262
    1STR   H243 2899   1.224   3.010   7.214
    1STR   H244 2900   1.346   3.130   7.246
    1STR   H245 2901   1.305   3.012   7.369
    1STR   C246 2902   1.470   2.816   7.306
    1STR   H247 2903   1.578   2.818   7.323
    1STR   H248 2904   1.428   2.832   7.405
    1STR   O249 2905   1.438   2.683   7.263
    1STR   C250 2906   1.451   2.573   7.355
    1STR   H251 2907   1.542   2.594   7.407
    1STR   C252 2908   1.364   2.569   7.483
    1STR   H253 2909   1.258   2.567   7.467
    1STR   H254 2910   1.384   2.653   7.549
    1STR   H255 2911   1.384   2.479   7.541
    1STR   C256 2912   1.479   2.432   7.292
    1STR   H257 2913   1.580   2.414   7.313
    1STR   H258 2914   1.430   2.356   7.351
    1STR   O259 2915   1.500   2.398   7.153
    1STR   C260 2916   1.523   2.255   7.136
    1STR   H261 2917   1.466   2.207   7.213
    1STR   C262 2918   1.481   2.196   7.002
    1STR   H263 2919   1.530   2.243   6.919
    1STR   H264 2920   1.376   2.194   6.983
    1STR   H265 2921   1.506   2.091   6.998
    1STR   C266 2922   1.649   2.191   7.183
    1STR   H267 2923   1.649   2.216   7.285
    1STR   H268 2924   1.643   2.082   7.182
    1STR   O269 2925   1.767   2.237   7.130
    1STR   C270 2926   1.786   2.210   6.994
    1STR   H271 2927   1.893   2.202   6.988
    1STR   C272 2928   1.743   2.077   6.933
    1STR   H273 2929   1.832   2.032   6.893
    1STR   H274 2930   1.674   2.086   6.850
    1STR   H275 2931   1.708   2.002   7.004
    1STR   C276 2932   1.753   2.340   6.926
    1STR   H277 2933   1.681   2.387   6.990
    1STR   H278 2934   1.843   2.399   6.927
    1STR   O279 2935   1.700   2.343   6.797
    1STR   C280 2936   1.695   2.477   6.750
    1STR   H281 2937   1.794   2.514   6.757
    1STR   C282 2938   1.664   2.484   6.601
    1STR   H283 2939   1.719   2.411   6.545
    1STR   H284 2940   1.689   2.583   6.563
    1STR   H285 2941   1.561   2.464   6.577
    1STR   C286 2942   1.619   2.569   6.843
    1STR   H287 2943   1.574   2.649   6.786
    1STR   H288 2944   1.539   2.516   6.894
    1STR   O289 2945   1.720   2.610   6.937
    1STR   C290 2946   1.674   2.661   7.060
    1STR   H291 2947   1.567   2.667   7.062
    1STR   C292 2948   1.720   2.582   7.177
    1STR   H293 2949   1.814   2.609   7.217
    1STR   H294 2950   1.718   2.475   7.170
    1STR   H295 2951   1.664   2.617   7.258
    1STR   C296 2952   1.724   2.801   7.083
    1STR   H297 2953   1.646   2.865   7.115
    1STR   H298 2954   1.796   2.809   7.163
    1STR   O299 2955   1.782   2.841   6.964
    1STR   C300 2956   1.693   2.887   6.869
    1STR   H301 2957   1.603   2.827   6.868
    1STR   C302 2958   1.659   3.025   6.923
    1STR   H303 2959   1.737   3.046   6.988
    1STR   H304 2960   1.583   3.028   6.997
    1STR   H305 2961   1.638   3.105   6.855
    1STR   C306 2962   1.777   2.868   6.743
    1STR   H307 2963   1.857   2.941   6.735
    1STR   H308 2964   1.827   2.773   6.757
    1STR   O309 2965   1.701   2.852   6.625
    1STR    H1R 2966   1.837   2.955   6.510
    1STR    H1S 2967   1.744   2.901   6.307
    1STR    H1T 2968   1.579   2.917   6.364
    1STR    H1U 2969   1.672   2.771   6.399
    1STR    H1V 2970   1.557   3.065   6.583
    1STR    H1W 2971   1.655   3.141   6.463
    1STR    H1X 2972   2.025   3.225   6.696
    1STR    H1Y 2973   1.765   3.321   6.885
    1STR    H1Z 2974   1.758   3.304   7.132
    1STR    H20 2975   1.799   3.012   7.284
    1STR    H21 2976   1.942   3.100   7.337
    1STR    H22 2977   1.791   3.185   7.320
    1STR    H23 2978   2.022   2.931   7.225
    1STR    H27 2979   2.038   3.002   6.866
    1STR    H28 2980   0.812   2.138   7.872
    1STR    H29 2981   0.774   2.372   7.802
    1STR    H2A 2982   0.549   2.488   7.528
    1STR    H2B 2983   0.688   2.529   7.627
    1STR    H2C 2984   0.529   2.514   7.700
    1STR   BCK1 2985   0.484   4.851   0.114
    1STR    O03 2986   0.405   4.915   0.049
    1STR    N04 2987   0.550   4.748   0.065
    1STR    C05 2988   0.539   4.693   9.261
    1STR    C06 2989   0.544   4.767   9.140
    1STR    C07 2990   0.563   4.700   9.017
    1STR    N08 2991   0.590   4.758   8.893
    1STR    C09 2992   0.649   4.870   8.850
    1STR    O0A 2993   0.680   4.883   8.732
    1STR    O0B 2994   0.675   4.961   8.942
    1STR    C0C 2995   0.753   5.076   8.909
    1STR    C0D 2996   0.676   5.171   8.817
    1STR    C0E 2997   0.791   5.146   9.039
    1STR    O0F 2998   0.674   5.148   9.119
    1STR    C0G 2999   0.670   5.077   9.241
    1STR    C0H 3000   0.756   4.951   9.244
    1STR    C0I 3001   0.708   5.168   0.037
    1STR    O0J 3002   0.703   5.088   0.154
    1STR    C0K 3003   1.574   4.353   0.602
    1STR    C0M 3004   1.493   4.482   0.602
    1STR    C0N 3005   1.723   4.374   0.571
    1STR    O0O 3006   1.784   4.250   0.548
    1STR    C0P 3007   1.856   4.216   0.443
    1STR    O0Q 3008   1.875   4.096   0.424
    1STR    N0R 3009   1.906   4.311   0.364
    1STR    C0S 3010   1.936   4.297   0.228
    1STR    C0T 3011   1.890   4.185   0.158
    1STR    C0U 3012   1.880   4.183   0.021
    1STR    C0V 3013   1.900   4.298   9.270
    1STR    C0W 3014   1.830   4.287   9.139
    1STR    C0X 3015   1.951   4.414   0.013
    1STR    N0Y 3016   1.945   4.540   9.273
    1STR   BCK2 3017   1.884   4.650   0.001
    1STR    O10 3018   1.878   4.758   9.265
    1STR    C13 3019   1.981   4.405   0.151
    1STR    C14 3020   0.560   4.560   9.020
    1STR    C15 3021   0.544   4.487   9.137
    1STR    C16 3022   0.537   4.553   9.258
    1STR    C17 3023   0.522   4.470   0.062
    1STR    H1B 3024   0.613   4.706   0.131
    1STR    H1C 3025   0.541   4.874   9.142
    1STR    H1D 3026   0.584   4.694   8.815
    1STR    H1E 3027   0.843   5.046   8.857
    1STR    H1F 3028   0.571   5.174   8.845
    1STR    H1G 3029   0.715   5.273   8.818
    1STR    H1H 3030   0.684   5.136   8.715
    1STR    H1I 3031   0.826   5.247   9.021
    1STR    H1J 3032   0.873   5.097   9.086
    1STR    H1K 3033   0.566   5.051   9.255
    1STR    H1M 3034   0.731   4.886   0.006
    1STR    H1N 3035   0.853   4.979   9.271
    1STR    H1O 3036   0.762   4.894   9.152
    1STR    H1P 3037   0.806   5.213   0.018
    1STR    H1Q 3038   0.637   5.249   0.046
    1STR   C010 3039   0.828   5.065   0.218
    1STR   H011 3040   0.908   5.043   0.147
    1STR   C012 3041   0.854   5.199   0.289
    1STR   H013 3042   0.764   5.231   0.342
    1STR   H014 3043   0.877   5.278   0.218
    1STR   H015 3044   0.935   5.199   0.360
    1STR   C016 3045   0.815   4.942   0.312
    1STR   H017 3046   0.901   4.942   0.376
    1STR   H018 3047   0.732   4.963   0.376
    1STR   O019 3048   0.799   4.811   0.251
    1STR   C020 3049   0.826   4.690   0.328
    1STR   H021 3050   0.902   4.640   0.269
    1STR   C022 3051   0.910   4.710   0.456
    1STR   H023 3052   1.015   4.728   0.434
    1STR   H024 3053   0.907   4.624   0.520
    1STR   H025 3054   0.878   4.792   0.518
    1STR   C026 3055   0.714   4.580   0.335
    1STR   H027 3056   0.683   4.560   0.436
    1STR   H028 3057   0.624   4.613   0.285
    1STR   O029 3058   0.758   4.456   0.278
    1STR   C030 3059   0.734   4.326   0.333
    1STR   H031 3060   0.816   4.268   0.295
    1STR   C032 3061   0.740   4.322   0.485
    1STR   H033 3062   0.642   4.349   0.520
    1STR   H034 3063   0.813   4.389   0.527
    1STR   H035 3064   0.759   4.222   0.524
    1STR   C036 3065   0.604   4.253   0.296
    1STR   H037 3066   0.592   4.164   0.357
    1STR   H038 3067   0.526   4.322   0.326
    1STR   O039 3068   0.578   4.218   0.161
    1STR   C040 3069   0.643   4.109   0.100
    1STR   H041 3070   0.742   4.146   0.109
    1STR   C042 3071   0.626   3.973   0.169
    1STR   H043 3072   0.522   3.944   0.174
    1STR   H044 3073   0.668   3.972   0.269
    1STR   H045 3074   0.674   3.895   0.111
    1STR   C046 3075   0.593   4.103   9.273
    1STR   H047 3076   0.492   4.064   9.279
    1STR   H048 3077   0.582   4.204   9.236
    1STR   O049 3078   0.671   4.021   9.183
    1STR   C050 3079   0.686   4.067   9.047
    1STR   H051 3080   0.586   4.078   9.008
    1STR   C052 3081   0.757   4.202   9.037
    1STR   H053 3082   0.761   4.230   8.933
    1STR   H054 3083   0.860   4.202   9.069
    1STR   H055 3084   0.708   4.284   9.086
    1STR   C056 3085   0.759   3.966   8.956
    1STR   H057 3086   0.855   3.938   8.997
    1STR   H058 3087   0.700   3.874   8.954
    1STR   O059 3088   0.770   4.014   8.820
    1STR   C060 3089   0.897   4.069   8.780
    1STR   H061 3090   0.942   4.128   8.860
    1STR   C062 3091   0.994   3.954   8.748
    1STR   H063 3092   0.955   3.892   8.667
    1STR   H064 3093   1.012   3.891   8.835
    1STR   H065 3094   1.091   3.994   8.717
    1STR   C066 3095   0.880   4.160   8.655
    1STR   H067 3096   0.977   4.185   8.611
    1STR   H068 3097   0.826   4.105   8.579
    1STR   O069 3098   0.808   4.279   8.680
    1STR   C070 3099   0.884   4.387   8.736
    1STR   H071 3100   0.962   4.349   8.801
    1STR   C072 3101   0.945   4.476   8.629
    1STR   H073 3102   0.868   4.535   8.579
    1STR   H074 3103   1.003   4.418   8.557
    1STR   H075 3104   1.011   4.551   8.671
    1STR   C076 3105   0.784   4.468   8.817
    1STR   H077 3106   0.687   4.453   8.775
    1STR   H078 3107   0.775   4.431   8.917
    1STR   O079 3108   0.803   4.608   8.817
    1STR   C080 3109   0.901   4.649   8.909
    1STR   H081 3110   0.982   4.588   8.886
    1STR   C082 3111   0.950   4.789   8.872
    1STR   H083 3112   0.912   4.821   8.776
    1STR   H084 3113   1.058   4.789   8.861
    1STR   H085 3114   0.922   4.862   8.949
    1STR   C086 3115   0.869   4.627   9.058
    1STR   H087 3116   0.933   4.691   9.112
    1STR   H088 3117   0.780   4.676   9.086
    1STR   O089 3118   0.871   4.492   9.110
    1STR   C090 3119   0.905   4.477   9.250
    1STR   H091 3120   1.011   4.482   9.260
    1STR   C092 3121   0.856   4.592   0.018
    1STR   H093 3122   0.778   4.562   0.083
    1STR   H094 3123   0.814   4.680   9.290
    1STR   H095 3124   0.941   4.627   0.075
    1STR   C096 3125   0.877   4.339   9.312
    1STR   H097 3126   0.882   4.346   0.100
    1STR   H098 3127   0.776   4.309   9.287
    1STR   O099 3128   0.976   4.242   9.274
    1STR   C100 3129   0.953   4.104   9.303
    1STR   H101 3130   0.853   4.092   9.271
    1STR   C102 3131   1.022   4.018   9.198
    1STR   H103 3132   1.008   4.058   9.098
    1STR   H104 3133   0.986   3.915   9.199
    1STR   H105 3134   1.129   4.016   9.212
    1STR   C106 3135   0.960   4.041   0.128
    1STR   H107 3136   0.870   3.984   0.142
    1STR   H108 3137   1.027   3.958   0.125
    1STR   O109 3138   0.983   4.121   0.245
    1STR   C110 3139   0.964   4.065   0.378
    1STR   H111 3140   0.860   4.081   0.405
    1STR   C112 3141   0.981   3.911   0.384
    1STR   H113 3142   1.082   3.879   0.362
    1STR   H114 3143   0.913   3.859   0.317
    1STR   H115 3144   0.957   3.875   0.484
    1STR   C116 3145   1.057   4.132   0.486
    1STR   H117 3146   1.067   4.062   0.569
    1STR   H118 3147   1.158   4.139   0.447
    1STR   O119 3148   1.012   4.252   0.552
    1STR   C120 3149   1.095   4.369   0.541
    1STR   H121 3150   1.199   4.339   0.552
    1STR   C122 3151   1.061   4.430   0.405
    1STR   H123 3152   1.060   4.357   0.325
    1STR   H124 3153   1.128   4.512   0.377
    1STR   H125 3154   0.961   4.468   0.401
    1STR   C126 3155   1.077   4.471   0.655
    1STR   H127 3156   0.972   4.484   0.671
    1STR   H128 3157   1.118   4.428   0.746
    1STR   O129 3158   1.137   4.600   0.626
    1STR   C130 3159   1.134   4.698   0.731
    1STR   H131 3160   1.036   4.696   0.780
    1STR   C132 3161   1.246   4.660   0.829
    1STR   H133 3162   1.342   4.662   0.778
    1STR   H134 3163   1.234   4.561   0.872
    1STR   H135 3164   1.252   4.731   0.911
    1STR   C136 3165   1.161   4.845   0.685
    1STR   H137 3166   1.185   4.904   0.773
    1STR   H138 3167   1.252   4.846   0.625
    1STR   O139 3168   1.052   4.912   0.621
    1STR   C140 3169   1.076   5.042   0.560
    1STR   H141 3170   0.977   5.084   0.546
    1STR   C142 3171   1.149   5.138   0.654
    1STR   H143 3172   1.253   5.108   0.669
    1STR   H144 3173   1.100   5.142   0.751
    1STR   H145 3174   1.149   5.239   0.613
    1STR   C146 3175   1.141   5.036   0.419
    1STR   H147 3176   1.073   5.045   0.335
    1STR   H148 3177   1.214   5.114   0.404
    1STR   O149 3178   1.193   4.908   0.412
    1STR   C150 3179   1.240   4.854   0.292
    1STR   H151 3180   1.304   4.926   0.243
    1STR   C152 3181   1.320   4.746   0.368
    1STR   H153 3182   1.255   4.685   0.430
    1STR   H154 3183   1.395   4.790   0.434
    1STR   H155 3184   1.374   4.677   0.307
    1STR   C156 3185   1.129   4.807   0.193
    1STR   H157 3186   1.133   4.701   0.172
    1STR   H158 3187   1.033   4.822   0.238
    1STR   O159 3188   1.129   4.888   0.075
    1STR   C160 3189   1.083   4.848   9.263
    1STR   H161 3190   0.983   4.812   9.276
    1STR   C162 3191   1.080   4.992   9.208
    1STR   H163 3192   1.176   5.039   9.207
    1STR   H164 3193   1.028   5.064   9.270
    1STR   H165 3194   1.045   4.994   9.106
    1STR   C166 3195   1.160   4.757   9.152
    1STR   H167 3196   1.131   4.793   9.055
    1STR   H168 3197   1.267   4.769   9.145
    1STR   O169 3198   1.135   4.616   9.141
    1STR   C170 3199   1.225   4.527   9.072
    1STR   H171 3200   1.319   4.577   9.064
    1STR   C172 3201   1.235   4.400   9.156
    1STR   H173 3202   1.209   4.423   9.257
    1STR   H174 3203   1.334   4.356   9.157
    1STR   H175 3204   1.163   4.322   9.128
    1STR   C176 3205   1.183   4.471   8.936
    1STR   H177 3206   1.238   4.382   8.909
    1STR   H178 3207   1.083   4.431   8.950
    1STR   O179 3208   1.191   4.565   8.831
    1STR   C180 3209   1.305   4.554   8.750
    1STR   H181 3210   1.389   4.522   8.811
    1STR   C182 3211   1.279   4.457   8.633
    1STR   H183 3212   1.202   4.496   8.568
    1STR   H184 3213   1.249   4.359   8.669
    1STR   H185 3214   1.365   4.445   8.568
    1STR   C186 3215   1.335   4.695   8.703
    1STR   H187 3216   1.424   4.695   8.641
    1STR   H188 3217   1.250   4.734   8.646
    1STR   O189 3218   1.353   4.772   8.821
    1STR   C190 3219   1.395   4.907   8.808
    1STR   H191 3220   1.492   4.907   8.855
    1STR   C192 3221   1.412   4.960   8.665
    1STR   H193 3222   1.319   4.955   8.608
    1STR   H194 3223   1.489   4.906   8.611
    1STR   H195 3224   1.443   5.065   8.667
    1STR   C196 3225   1.296   4.992   8.890
    1STR   H197 3226   1.308   5.098   8.869
    1STR   H198 3227   1.195   4.969   8.855
    1STR   O199 3228   1.297   4.966   9.030
    1STR   C200 3229   1.409   5.003   9.109
    1STR   H201 3230   1.491   4.947   9.067
    1STR   C202 3231   1.425   5.156   9.093
    1STR   H203 3232   1.332   5.207   9.115
    1STR   H204 3233   1.457   5.186   8.993
    1STR   H205 3234   1.499   5.194   9.161
    1STR   C206 3235   1.405   4.974   9.265
    1STR   H207 3236   1.502   4.985   9.306
    1STR   H208 3237   1.351   5.054   9.314
    1STR   O209 3238   1.351   4.856   0.003
    1STR   C210 3239   1.421   4.739   0.039
    1STR   H211 3240   1.473   4.727   9.266
    1STR   C212 3241   1.525   4.783   0.137
    1STR   H213 3242   1.497   4.866   0.199
    1STR   H214 3243   1.610   4.815   0.078
    1STR   H215 3244   1.557   4.706   0.205
    1STR   C216 3245   1.341   4.601   0.053
    1STR   H217 3246   1.245   4.623   0.011
    1STR   H218 3247   1.385   4.533   9.302
    1STR   O219 3248   1.289   4.526   0.168
    1STR   C220 3249   1.307   4.381   0.173
    1STR   H221 3250   1.386   4.364   0.105
    1STR   C222 3251   1.342   4.347   0.317
    1STR   H223 3252   1.263   4.300   0.369
    1STR   H224 3253   1.371   4.434   0.374
    1STR   H225 3254   1.414   4.268   0.325
    1STR   C226 3255   1.203   4.275   0.129
    1STR   H227 3256   1.177   4.212   0.212
    1STR   H228 3257   1.113   4.331   0.107
    1STR   O229 3258   1.236   4.178   0.027
    1STR   C230 3259   1.316   4.062   0.059
    1STR   H231 3260   1.364   4.091   0.148
    1STR   C232 3261   1.264   3.931   0.119
    1STR   H233 3262   1.201   3.874   0.050
    1STR   H234 3263   1.214   3.950   0.213
    1STR   H235 3264   1.348   3.866   0.142
    1STR   C236 3265   1.407   4.033   9.260
    1STR   H237 3266   1.434   4.126   9.211
    1STR   H238 3267   1.500   3.988   9.293
    1STR   O239 3268   1.344   3.937   9.174
    1STR   C240 3269   1.366   3.946   9.034
    1STR   H241 3270   1.314   3.862   8.988
    1STR   C242 3271   1.300   4.073   8.977
    1STR   H243 3272   1.192   4.062   8.975
    1STR   H244 3273   1.332   4.092   8.874
    1STR   H245 3274   1.320   4.161   9.036
    1STR   C246 3275   1.516   3.928   9.004
    1STR   H247 3276   1.577   3.977   9.078
    1STR   H248 3277   1.538   3.821   9.008
    1STR   O249 3278   1.547   3.973   8.874
    1STR   C250 3279   1.677   4.028   8.861
    1STR   H251 3280   1.699   4.094   8.945
    1STR   C252 3281   1.783   3.919   8.856
    1STR   H253 3282   1.759   3.844   8.781
    1STR   H254 3283   1.794   3.870   8.953
    1STR   H255 3284   1.878   3.963   8.829
    1STR   C256 3285   1.675   4.113   8.734
    1STR   H257 3286   1.772   4.156   8.709
    1STR   H258 3287   1.643   4.053   8.649
    1STR   O259 3288   1.579   4.216   8.752
    1STR   C260 3289   1.621   4.322   8.835
    1STR   H261 3290   1.720   4.307   8.877
    1STR   C262 3291   1.626   4.440   8.739
    1STR   H263 3292   1.539   4.444   8.676
    1STR   H264 3293   1.711   4.430   8.672
    1STR   H265 3294   1.634   4.535   8.791
    1STR   C266 3295   1.522   4.328   8.953
    1STR   H267 3296   1.427   4.300   8.911
    1STR   H268 3297   1.544   4.253   9.029
    1STR   O269 3298   1.499   4.453   9.013
    1STR   C270 3299   1.601   4.521   9.082
    1STR   H271 3300   1.694   4.501   9.030
    1STR   C272 3301   1.580   4.668   9.047
    1STR   H273 3302   1.480   4.706   9.067
    1STR   H274 3303   1.589   4.681   8.940
    1STR   H275 3304   1.652   4.733   9.096
    1STR   C276 3305   1.619   4.495   9.236
    1STR   H277 3306   1.723   4.484   9.241
    1STR   H278 3307   1.606   4.582   9.296
    1STR   O279 3308   1.571   4.380   9.305
    1STR   C280 3309   1.630   4.353   0.117
    1STR   H281 3310   1.733   4.371   0.107
    1STR   C282 3311   1.602   4.441   0.239
    1STR   H283 3312   1.524   4.513   0.224
    1STR   H284 3313   1.689   4.485   0.282
    1STR   H285 3314   1.580   4.385   0.328
    1STR   C286 3315   1.602   4.208   0.152
    1STR   H287 3316   1.502   4.208   0.127
    1STR   H288 3317   1.644   4.139   0.080
    1STR   O289 3318   1.620   4.166   0.290
    1STR   C290 3319   1.555   4.046   0.333
    1STR   H291 3320   1.448   4.047   0.318
    1STR   C292 3321   1.617   3.932   0.257
    1STR   H293 3322   1.603   3.943   0.151
    1STR   H294 3323   1.572   3.837   0.285
    1STR   H295 3324   1.723   3.931   0.279
    1STR   C296 3325   1.569   4.015   0.483
    1STR   H297 3326   1.565   3.907   0.497
    1STR   H298 3327   1.665   4.045   0.521
    1STR   O299 3328   1.461   4.072   0.556
    1STR   C300 3329   1.474   4.066   0.698
    1STR   H301 3330   1.378   4.102   0.736
    1STR   C302 3331   1.492   3.921   0.746
    1STR   H303 3332   1.592   3.883   0.723
    1STR   H304 3333   1.419   3.855   0.700
    1STR   H305 3334   1.479   3.914   0.854
    1STR   C306 3335   1.583   4.160   0.754
    1STR   H307 3336   1.586   4.148   0.862
    1STR   H308 3337   1.683   4.133   0.721
    1STR   O309 3338   1.554   4.298   0.732
    1STR    H1R 3339   1.533   4.289   0.525
    1STR    H1S 3340   1.513   4.543   0.514
    1STR    H1T 3341   1.513   4.542   0.691
    1STR    H1U 3342   1.386   4.461   0.605
    1STR    H1V 3343   1.775   4.413   0.657
    1STR    H1W 3344   1.738   4.444   0.489
    1STR    H1X 3345   1.919   4.404   0.405
    1STR    H1Y 3346   1.846   4.100   0.206
    1STR    H1Z 3347   1.834   4.100   9.291
    1STR    H20 3348   1.724   4.269   9.155
    1STR    H21 3349   1.840   4.378   9.086
    1STR    H22 3350   1.865   4.199   9.085
    1STR    H23 3351   1.995   4.551   9.185
    1STR    H27 3352   2.018   4.493   0.199
    1STR    H28 3353   0.570   4.506   8.930
    1STR    H29 3354   0.533   4.381   9.134
    1STR    H2A 3355   0.619   4.432   0.089
    1STR    H2B 3356   0.458   4.385   0.041
    1STR    H2C 3357   0.479   4.523   0.147
    1STR   BCK1 3358   0.354   4.666   2.409
    1STR    O03 3359   0.292   4.689   2.511
    1STR    N04 3360   0.396   4.759   2.326
    1STR    C05 3361   0.408   4.893   2.346
    1STR    C06 3362   0.427   4.948   2.474
    1STR    C07 3363   0.481   5.077   2.485
    1STR    N08 3364   0.556   5.118   2.591
    1STR    C09 3365   0.555   5.077   2.715
    1STR    O0A 3366   0.458   5.034   2.776
    1STR    O0B 3367   0.678   5.079   2.752
    1STR    C0C 3368   0.727   4.969   2.824
    1STR    C0D 3369   0.727   5.026   2.968
    1STR    C0E 3370   0.653   4.834   2.791
    1STR    O0F 3371   0.729   4.720   2.746
    1STR    C0G 3372   0.668   4.647   2.638
    1STR    C0H 3373   0.673   4.720   2.504
    1STR    C0I 3374   0.711   4.497   2.622
    1STR    O0J 3375   0.689   4.454   2.488
    1STR    C0K 3376   1.817   4.846   2.046
    1STR    C0M 3377   1.860   4.701   2.069
    1STR    C0N 3378   1.931   4.945   2.061
    1STR    O0O 3379   1.885   5.071   2.105
    1STR    C0P 3380   1.835   5.165   2.027
    1STR    O0Q 3381   1.829   5.162   1.905
    1STR    N0R 3382   1.790   5.273   2.093
    1STR    C0S 3383   1.783   5.299   2.229
    1STR    C0T 3384   1.691   5.393   2.276
    1STR    C0U 3385   1.667   5.407   2.414
    1STR    C0V 3386   1.734   5.326   2.508
    1STR    C0W 3387   1.696   5.334   2.653
    1STR    C0X 3388   1.827   5.229   2.462
    1STR    N0Y 3389   1.866   5.124   2.546
    1STR   BCK2 3390   1.904   4.998   2.514
    1STR    O10 3391   1.932   4.956   2.403
    1STR    C13 3392   1.856   5.226   2.325
    1STR    C14 3393   0.505   5.151   2.371
    1STR    C15 3394   0.478   5.099   2.246
    1STR    C16 3395   0.431   4.970   2.231
    1STR    C17 3396   0.413   4.916   2.091
    1STR    H1B 3397   0.440   4.722   2.243
    1STR    H1C 3398   0.419   4.887   2.562
    1STR    H1D 3399   0.638   5.174   2.575
    1STR    H1E 3400   0.827   4.955   2.787
    1STR    H1F 3401   0.647   5.099   2.982
    1STR    H1G 3402   0.718   4.952   3.046
    1STR    H1H 3403   0.817   5.082   2.989
    1STR    H1I 3404   0.580   4.847   2.714
    1STR    H1J 3405   0.592   4.814   2.877
    1STR    H1K 3406   0.563   4.650   2.663
    1STR    H1M 3407   0.648   4.825   2.511
    1STR    H1N 3408   0.603   4.675   2.435
    1STR    H1O 3409   0.764   4.708   2.449
    1STR    H1P 3410   0.811   4.473   2.655
    1STR    H1Q 3411   0.652   4.429   2.680
    1STR   C010 3412   0.789   4.375   2.428
    1STR   H011 3413   0.883   4.420   2.453
    1STR   C012 3414   0.787   4.229   2.477
    1STR   H013 3415   0.789   4.225   2.586
    1STR   H014 3416   0.874   4.175   2.441
    1STR   H015 3417   0.701   4.173   2.444
    1STR   C016 3418   0.776   4.390   2.276
    1STR   H017 3419   0.869   4.431   2.240
    1STR   H018 3420   0.762   4.295   2.226
    1STR   O019 3421   0.676   4.484   2.243
    1STR   C020 3422   0.633   4.494   2.108
    1STR   H021 3423   0.571   4.413   2.077
    1STR   C022 3424   0.554   4.622   2.110
    1STR   H023 3425   0.591   4.688   2.189
    1STR   H024 3426   0.447   4.603   2.117
    1STR   H025 3427   0.572   4.677   2.019
    1STR   C026 3428   0.744   4.509   2.008
    1STR   H027 3429   0.782   4.601   2.042
    1STR   H028 3430   0.819   4.431   2.011
    1STR   O029 3431   0.704   4.540   1.878
    1STR   C030 3432   0.805   4.616   1.812
    1STR   H031 3433   0.904   4.592   1.853
    1STR   C032 3434   0.803   4.558   1.670
    1STR   H033 3435   0.727   4.603   1.607
    1STR   H034 3436   0.788   4.451   1.674
    1STR   H035 3437   0.897   4.570   1.619
    1STR   C036 3438   0.782   4.771   1.822
    1STR   H037 3439   0.863   4.821   1.769
    1STR   H038 3440   0.690   4.793   1.768
    1STR   O039 3441   0.770   4.826   1.955
    1STR   C040 3442   0.791   4.968   1.975
    1STR   H041 3443   0.896   4.988   1.957
    1STR   C042 3444   0.708   5.044   1.868
    1STR   H043 3445   0.604   5.013   1.870
    1STR   H044 3446   0.746   5.028   1.767
    1STR   H045 3447   0.710   5.152   1.885
    1STR   C046 3448   0.748   5.011   2.121
    1STR   H047 3449   0.668   5.076   2.098
    1STR   H048 3450   0.701   4.925   2.170
    1STR   O049 3451   0.827   5.092   2.215
    1STR   C050 3452   0.808   5.065   2.359
    1STR   H051 3453   0.706   5.038   2.377
    1STR   C052 3454   0.869   4.936   2.383
    1STR   H053 3455   0.975   4.953   2.381
    1STR   H054 3456   0.838   4.859   2.312
    1STR   H055 3457   0.840   4.902   2.481
    1STR   C056 3458   0.863   5.155   2.478
    1STR   H057 3459   0.945   5.216   2.444
    1STR   H058 3460   0.786   5.227   2.504
    1STR   O059 3461   0.903   5.085   2.602
    1STR   C060 3462   0.997   5.145   2.695
    1STR   H061 3463   1.087   5.162   2.636
    1STR   C062 3464   0.946   5.284   2.731
    1STR   H063 3465   0.840   5.280   2.756
    1STR   H064 3466   0.961   5.350   2.647
    1STR   H065 3467   1.000   5.328   2.814
    1STR   C066 3468   1.048   5.076   2.830
    1STR   H067 3469   1.152   5.104   2.843
    1STR   H068 3470   0.999   5.127   2.912
    1STR   O069 3471   1.044   4.934   2.859
    1STR   C070 3472   1.039   4.890   2.997
    1STR   H071 3473   1.022   4.974   3.064
    1STR   C072 3474   0.922   4.791   3.019
    1STR   H073 3475   0.849   4.793   2.941
    1STR   H074 3476   0.875   4.807   3.115
    1STR   H075 3477   0.952   4.687   3.020
    1STR   C076 3478   1.166   4.815   3.046
    1STR   H077 3479   1.193   4.745   2.968
    1STR   H078 3480   1.250   4.882   3.061
    1STR   O079 3481   1.131   4.744   3.165
    1STR   C080 3482   1.184   4.613   3.192
    1STR   H081 3483   1.285   4.626   3.230
    1STR   C082 3484   1.094   4.557   3.302
    1STR   H083 3485   0.991   4.547   3.266
    1STR   H084 3486   1.092   4.623   3.389
    1STR   H085 3487   1.127   4.458   3.335
    1STR   C086 3488   1.190   4.511   3.075
    1STR   H087 3489   1.260   4.548   3.000
    1STR   H088 3490   1.234   4.417   3.110
    1STR   O089 3491   1.062   4.479   3.021
    1STR   C090 3492   1.067   4.438   2.885
    1STR   H091 3493   1.170   4.417   2.860
    1STR   C092 3494   0.988   4.310   2.862
    1STR   H093 3495   0.882   4.333   2.858
    1STR   H094 3496   1.007   4.236   2.940
    1STR   H095 3497   1.010   4.264   2.767
    1STR   C096 3498   1.014   4.551   2.799
    1STR   H097 3499   0.907   4.566   2.813
    1STR   H098 3500   1.058   4.642   2.837
    1STR   O099 3501   1.050   4.533   2.662
    1STR   C100 3502   1.008   4.632   2.567
    1STR   H101 3503   0.905   4.615   2.547
    1STR   C102 3504   1.013   4.768   2.629
    1STR   H103 3505   1.100   4.778   2.690
    1STR   H104 3506   0.929   4.792   2.690
    1STR   H105 3507   1.018   4.845   2.555
    1STR   C106 3508   1.067   4.625   2.424
    1STR   H107 3509   1.172   4.631   2.417
    1STR   H108 3510   1.039   4.534   2.371
    1STR   O109 3511   1.040   4.742   2.352
    1STR   C110 3512   1.078   4.744   2.218
    1STR   H111 3513   1.175   4.699   2.209
    1STR   C112 3514   0.966   4.666   2.157
    1STR   H113 3515   0.939   4.715   2.065
    1STR   H114 3516   0.877   4.666   2.219
    1STR   H115 3517   0.991   4.563   2.134
    1STR   C116 3518   1.080   4.883   2.153
    1STR   H117 3519   1.092   4.877   2.045
    1STR   H118 3520   0.985   4.932   2.165
    1STR   O119 3521   1.183   4.961   2.206
    1STR   C120 3522   1.186   5.100   2.176
    1STR   H121 3523   1.291   5.117   2.162
    1STR   C122 3524   1.111   5.147   2.049
    1STR   H123 3525   1.003   5.140   2.063
    1STR   H124 3526   1.138   5.089   1.961
    1STR   H125 3527   1.128   5.251   2.028
    1STR   C126 3528   1.159   5.185   2.299
    1STR   H127 3529   1.233   5.265   2.305
    1STR   H128 3530   1.065   5.237   2.282
    1STR   O129 3531   1.154   5.109   2.421
    1STR   C130 3532   1.277   5.058   2.470
    1STR   H131 3533   1.327   5.019   2.382
    1STR   C132 3534   1.355   5.176   2.532
    1STR   H133 3535   1.292   5.235   2.598
    1STR   H134 3536   1.394   5.242   2.455
    1STR   H135 3537   1.440   5.142   2.590
    1STR   C136 3538   1.260   4.942   2.574
    1STR   H137 3539   1.322   4.961   2.659
    1STR   H138 3540   1.165   4.961   2.618
    1STR   O139 3541   1.274   4.803   2.527
    1STR   C140 3542   1.342   4.698   2.604
    1STR   H141 3543   1.445   4.723   2.588
    1STR   C142 3544   1.332   4.701   2.756
    1STR   H143 3545   1.294   4.796   2.792
    1STR   H144 3546   1.429   4.684   2.803
    1STR   H145 3547   1.266   4.622   2.788
    1STR   C146 3548   1.352   4.550   2.550
    1STR   H147 3549   1.368   4.570   2.447
    1STR   H148 3550   1.437   4.501   2.595
    1STR   O149 3551   1.249   4.455   2.519
    1STR   C150 3552   1.240   4.328   2.580
    1STR   H151 3553   1.232   4.344   2.686
    1STR   C152 3554   1.112   4.264   2.529
    1STR   H153 3555   1.114   4.251   2.421
    1STR   H154 3556   1.029   4.327   2.555
    1STR   H155 3557   1.093   4.168   2.577
    1STR   C156 3558   1.356   4.233   2.559
    1STR   H157 3559   1.439   4.285   2.604
    1STR   H158 3560   1.340   4.144   2.619
    1STR   O159 3561   1.391   4.207   2.423
    1STR   C160 3562   1.344   4.090   2.355
    1STR   H161 3563   1.435   4.045   2.317
    1STR   C162 3564   1.283   3.977   2.440
    1STR   H163 3565   1.188   4.005   2.484
    1STR   H164 3566   1.351   3.946   2.519
    1STR   H165 3567   1.263   3.890   2.378
    1STR   C166 3568   1.263   4.123   2.227
    1STR   H167 3569   1.313   4.077   2.142
    1STR   H168 3570   1.164   4.079   2.235
    1STR   O169 3571   1.251   4.263   2.202
    1STR   C170 3572   1.192   4.295   2.075
    1STR   H171 3573   1.238   4.240   1.996
    1STR   C172 3574   1.044   4.261   2.079
    1STR   H173 3575   1.004   4.292   2.174
    1STR   H174 3576   1.027   4.154   2.069
    1STR   H175 3577   0.992   4.311   1.997
    1STR   C176 3578   1.219   4.444   2.050
    1STR   H177 3579   1.183   4.501   2.134
    1STR   H178 3580   1.325   4.454   2.056
    1STR   O179 3581   1.190   4.499   1.920
    1STR   C180 3582   1.194   4.643   1.915
    1STR   H181 3583   1.102   4.676   1.958
    1STR   C182 3584   1.310   4.707   1.991
    1STR   H183 3585   1.400   4.706   1.933
    1STR   H184 3586   1.337   4.667   2.088
    1STR   H185 3587   1.287   4.812   2.005
    1STR   C186 3588   1.193   4.710   1.777
    1STR   H187 3589   1.217   4.815   1.788
    1STR   H188 3590   1.270   4.666   1.718
    1STR   O189 3591   1.074   4.700   1.703
    1STR   C190 3592   1.085   4.736   1.565
    1STR   H191 3593   0.982   4.741   1.529
    1STR   C192 3594   1.142   4.876   1.545
    1STR   H193 3595   1.127   4.910   1.442
    1STR   H194 3596   1.249   4.880   1.564
    1STR   H195 3597   1.093   4.948   1.611
    1STR   C196 3598   1.157   4.626   1.483
    1STR   H197 3599   1.140   4.647   1.377
    1STR   H198 3600   1.265   4.628   1.496
    1STR   O199 3601   1.103   4.497   1.510
    1STR   C200 3602   1.180   4.415   1.598
    1STR   H201 3603   1.241   4.473   1.665
    1STR   C202 3604   1.085   4.335   1.687
    1STR   H203 3605   1.017   4.273   1.630
    1STR   H204 3606   1.026   4.403   1.748
    1STR   H205 3607   1.142   4.273   1.756
    1STR   C206 3608   1.274   4.327   1.515
    1STR   H207 3609   1.244   4.222   1.525
    1STR   H208 3610   1.267   4.353   1.410
    1STR   O209 3611   1.407   4.346   1.560
    1STR   C210 3612   1.498   4.254   1.502
    1STR   H211 3613   1.459   4.215   1.408
    1STR   C212 3614   1.622   4.337   1.469
    1STR   H213 3615   1.653   4.396   1.556
    1STR   H214 3616   1.601   4.408   1.390
    1STR   H215 3617   1.706   4.274   1.438
    1STR   C216 3618   1.525   4.136   1.598
    1STR   H217 3619   1.551   4.048   1.539
    1STR   H218 3620   1.611   4.152   1.661
    1STR   O219 3621   1.407   4.106   1.673
    1STR   C220 3622   1.415   4.119   1.815
    1STR   H221 3623   1.312   4.115   1.848
    1STR   C222 3624   1.481   3.993   1.871
    1STR   H223 3625   1.583   3.983   1.838
    1STR   H224 3626   1.427   3.904   1.838
    1STR   H225 3627   1.479   3.993   1.979
    1STR   C226 3628   1.474   4.254   1.863
    1STR   H227 3629   1.573   4.274   1.824
    1STR   H228 3630   1.409   4.332   1.822
    1STR   O229 3631   1.478   4.268   2.006
    1STR   C230 3632   1.563   4.372   2.057
    1STR   H231 3633   1.663   4.335   2.067
    1STR   C232 3634   1.566   4.496   1.970
    1STR   H233 3635   1.573   4.582   2.035
    1STR   H234 3636   1.476   4.508   1.912
    1STR   H235 3637   1.652   4.495   1.903
    1STR   C236 3638   1.539   4.412   2.202
    1STR   H237 3639   1.444   4.463   2.217
    1STR   H238 3640   1.531   4.324   2.264
    1STR   O239 3641   1.650   4.496   2.239
    1STR   C240 3642   1.632   4.554   2.366
    1STR   H241 3643   1.530   4.579   2.359
    1STR   C242 3644   1.650   4.450   2.475
    1STR   H243 3645   1.741   4.394   2.461
    1STR   H244 3646   1.573   4.375   2.469
    1STR   H245 3647   1.647   4.492   2.575
    1STR   C246 3648   1.690   4.693   2.394
    1STR   H247 3649   1.727   4.692   2.495
    1STR   H248 3650   1.769   4.724   2.326
    1STR   O249 3651   1.579   4.779   2.392
    1STR   C250 3652   1.573   4.902   2.459
    1STR   H251 3653   1.468   4.906   2.454
    1STR   C252 3654   1.601   4.904   2.611
    1STR   H253 3655   1.660   4.990   2.641
    1STR   H254 3656   1.645   4.812   2.646
    1STR   H255 3657   1.512   4.914   2.671
    1STR   C256 3658   1.614   5.028   2.383
    1STR   H257 3659   1.616   5.105   2.458
    1STR   H258 3660   1.712   5.014   2.343
    1STR   O259 3661   1.525   5.084   2.288
    1STR   C260 3662   1.552   5.040   2.158
    1STR   H261 3663   1.658   5.038   2.146
    1STR   C262 3664   1.494   4.901   2.139
    1STR   H263 3665   1.401   4.889   2.193
    1STR   H264 3666   1.557   4.819   2.171
    1STR   H265 3667   1.478   4.889   2.034
    1STR   C266 3668   1.507   5.130   2.044
    1STR   H267 3669   1.576   5.111   1.962
    1STR   H268 3670   1.411   5.094   2.006
    1STR   O269 3671   1.504   5.269   2.070
    1STR   C270 3672   1.426   5.342   1.975
    1STR   H271 3673   1.323   5.311   1.988
    1STR   C272 3674   1.433   5.489   2.016
    1STR   H273 3675   1.403   5.500   2.120
    1STR   H274 3676   1.364   5.549   1.955
    1STR   H275 3677   1.533   5.529   2.004
    1STR   C276 3678   1.464   5.314   1.827
    1STR   H277 3679   1.421   5.391   1.763
    1STR   H278 3680   1.572   5.318   1.812
    1STR   O279 3681   1.415   5.184   1.795
    1STR   C280 3682   1.355   5.155   1.670
    1STR   H281 3683   1.314   5.056   1.687
    1STR   C282 3684   1.234   5.246   1.645
    1STR   H283 3685   1.263   5.347   1.617
    1STR   H284 3686   1.171   5.252   1.734
    1STR   H285 3687   1.172   5.206   1.564
    1STR   C286 3688   1.454   5.140   1.552
    1STR   H287 3689   1.471   5.034   1.533
    1STR   H288 3690   1.409   5.178   1.460
    1STR   O289 3691   1.576   5.209   1.576
    1STR   C290 3692   1.694   5.130   1.570
    1STR   H291 3693   1.705   5.081   1.473
    1STR   C292 3694   1.808   5.230   1.587
    1STR   H293 3695   1.797   5.287   1.680
    1STR   H294 3696   1.813   5.301   1.504
    1STR   H295 3697   1.904   5.179   1.594
    1STR   C296 3698   1.699   5.025   1.682
    1STR   H297 3699   1.802   5.002   1.708
    1STR   H298 3700   1.652   5.066   1.770
    1STR   O299 3701   1.638   4.903   1.644
    1STR   C300 3702   1.576   4.832   1.750
    1STR   H301 3703   1.499   4.896   1.793
    1STR   C302 3704   1.507   4.715   1.680
    1STR   H303 3705   1.569   4.652   1.619
    1STR   H304 3706   1.431   4.751   1.611
    1STR   H305 3707   1.467   4.643   1.749
    1STR   C306 3708   1.666   4.784   1.866
    1STR   H307 3709   1.603   4.754   1.947
    1STR   H308 3710   1.720   4.694   1.840
    1STR   O309 3711   1.753   4.880   1.922
    1STR    H1R 3712   1.753   4.862   2.130
    1STR    H1S 3713   1.917   4.658   1.989
    1STR    H1T 3714   1.775   4.635   2.084
    1STR    H1U 3715   1.921   4.692   2.159
    1STR    H1V 3716   1.994   4.955   1.973
    1STR    H1W 3717   1.990   4.909   2.144
    1STR    H1X 3718   1.736   5.330   2.031
    1STR    H1Y 3719   1.632   5.451   2.206
    1STR    H1Z 3720   1.592   5.477   2.445
    1STR    H20 3721   1.668   5.234   2.688
    1STR    H21 3722   1.779   5.371   2.713
    1STR    H22 3723   1.609   5.398   2.668
    1STR    H23 3724   1.857   5.143   2.645
    1STR    H27 3725   1.932   5.157   2.295
    1STR    H28 3726   0.569   5.237   2.380
    1STR    H29 3727   0.505   5.156   2.160
    1STR    H2A 3728   0.505   4.868   2.059
    1STR    H2B 3729   0.397   4.995   2.018
    1STR    H2C 3730   0.329   4.847   2.085
    1STR   BCK1 3731   0.582   4.287   5.110
    1STR    O03 3732   0.594   4.381   5.185
    1STR    N04 3733   0.648   4.178   5.146
    1STR    C05 3734   0.718   4.080   5.079
    1STR    C06 3735   0.719   4.064   4.938
    1STR    C07 3736   0.795   3.961   4.878
    1STR    N08 3737   0.791   3.947   4.739
    1STR    C09 3738   0.806   3.837   4.665
    1STR    O0A 3739   0.834   3.726   4.710
    1STR    O0B 3740   0.781   3.858   4.534
    1STR    C0C 3741   0.849   3.957   4.457
    1STR    C0D 3742   0.875   3.891   4.321
    1STR    C0E 3743   0.778   4.092   4.445
    1STR    O0F 3744   0.708   4.130   4.562
    1STR    C0G 3745   0.593   4.210   4.535
    1STR    C0H 3746   0.515   4.209   4.662
    1STR    C0I 3747   0.624   4.349   4.483
    1STR    O0J 3748   0.526   4.447   4.523
    1STR    C0K 3749   1.608   4.601   5.302
    1STR    C0M 3750   1.479   4.529   5.339
    1STR    C0N 3751   1.679   4.545   5.180
    1STR    O0O 3752   1.679   4.404   5.158
    1STR    C0P 3753   1.766   4.366   5.065
    1STR    O0Q 3754   1.861   4.433   5.031
    1STR    N0R 3755   1.728   4.256   5.001
    1STR    C0S 3756   1.761   4.225   4.868
    1STR    C0T 3757   1.718   4.103   4.813
    1STR    C0U 3758   1.746   4.073   4.678
    1STR    C0V 3759   1.805   4.166   4.593
    1STR    C0W 3760   1.816   4.133   4.447
    1STR    C0X 3761   1.839   4.293   4.642
    1STR    N0Y 3762   1.882   4.389   4.551
    1STR   BCK2 3763   1.852   4.518   4.541
    1STR    O10 3764   1.884   4.588   4.446
    1STR    C13 3765   1.823   4.316   4.780
    1STR    C14 3766   0.872   3.877   4.961
    1STR    C15 3767   0.876   3.896   5.100
    1STR    C16 3768   0.799   3.998   5.160
    1STR    C17 3769   0.805   4.014   5.311
    1STR    H1B 3770   0.662   4.181   5.245
    1STR    H1C 3771   0.661   4.128   4.875
    1STR    H1D 3772   0.755   4.025   4.683
    1STR    H1E 3773   0.947   3.974   4.499
    1STR    H1F 3774   0.782   3.879   4.264
    1STR    H1G 3775   0.946   3.949   4.262
    1STR    H1H 3776   0.917   3.792   4.334
    1STR    H1I 3777   0.708   4.085   4.363
    1STR    H1J 3778   0.848   4.171   4.419
    1STR    H1K 3779   0.527   4.166   4.462
    1STR    H1M 3780   0.421   4.259   4.643
    1STR    H1N 3781   0.573   4.265   4.733
    1STR    H1O 3782   0.494   4.110   4.700
    1STR    H1P 3783   0.724   4.378   4.514
    1STR    H1Q 3784   0.628   4.341   4.375
    1STR   C010 3785   0.560   4.579   4.484
    1STR   H011 3786   0.660   4.588   4.516
    1STR   C012 3787   0.563   4.582   4.330
    1STR   H013 3788   0.562   4.683   4.290
    1STR   H014 3789   0.478   4.527   4.296
    1STR   H015 3790   0.646   4.530   4.283
    1STR   C016 3791   0.483   4.700   4.553
    1STR   H017 3792   0.477   4.785   4.486
    1STR   H018 3793   0.382   4.676   4.581
    1STR   O019 3794   0.551   4.743   4.670
    1STR   C020 3795   0.521   4.861   4.747
    1STR   H021 3796   0.534   4.947   4.685
    1STR   C022 3797   0.379   4.869   4.774
    1STR   H023 3798   0.314   4.853   4.689
    1STR   H024 3799   0.382   4.974   4.796
    1STR   H025 3800   0.346   4.824   4.865
    1STR   C026 3801   0.592   4.879   4.888
    1STR   H027 3802   0.581   4.788   4.944
    1STR   H028 3803   0.698   4.893   4.890
    1STR   O029 3804   0.543   4.992   4.961
    1STR   C030 3805   0.634   5.080   5.029
    1STR   H031 3806   0.715   5.104   4.963
    1STR   C032 3807   0.551   5.203   5.034
    1STR   H033 3808   0.459   5.179   5.087
    1STR   H034 3809   0.525   5.227   4.932
    1STR   H035 3810   0.600   5.288   5.081
    1STR   C036 3811   0.706   5.054   5.165
    1STR   H037 3812   0.782   4.978   5.152
    1STR   H038 3813   0.760   5.146   5.185
    1STR   O039 3814   0.630   5.031   5.284
    1STR   C040 3815   0.704   5.030   5.406
    1STR   H041 3816   0.783   5.105   5.404
    1STR   C042 3817   0.611   5.072   5.519
    1STR   H043 3818   0.524   5.007   5.522
    1STR   H044 3819   0.577   5.175   5.508
    1STR   H045 3820   0.660   5.065   5.616
    1STR   C046 3821   0.763   4.893   5.440
    1STR   H047 3822   0.810   4.895   5.538
    1STR   H048 3823   0.679   4.824   5.451
    1STR   O049 3824   0.862   4.847   5.348
    1STR   C050 3825   0.836   4.713   5.308
    1STR   H051 3826   0.780   4.657   5.382
    1STR   C052 3827   0.756   4.719   5.179
    1STR   H053 3828   0.681   4.794   5.188
    1STR   H054 3829   0.708   4.624   5.157
    1STR   H055 3830   0.818   4.747   5.094
    1STR   C056 3831   0.963   4.636   5.284
    1STR   H057 3832   1.016   4.677   5.198
    1STR   H058 3833   1.029   4.640   5.371
    1STR   O059 3834   0.916   4.504   5.265
    1STR   C060 3835   0.977   4.432   5.162
    1STR   H061 3836   1.070   4.476   5.130
    1STR   C062 3837   1.010   4.299   5.230
    1STR   H063 3838   0.920   4.258   5.275
    1STR   H064 3839   1.083   4.314   5.309
    1STR   H065 3840   1.049   4.225   5.161
    1STR   C066 3841   0.892   4.418   5.035
    1STR   H067 3842   0.951   4.359   4.967
    1STR   H068 3843   0.809   4.353   5.055
    1STR   O069 3844   0.842   4.540   4.975
    1STR   C070 3845   0.854   4.552   4.833
    1STR   H071 3846   0.955   4.577   4.814
    1STR   C072 3847   0.804   4.423   4.762
    1STR   H073 3848   0.699   4.432   4.739
    1STR   H074 3849   0.817   4.328   4.813
    1STR   H075 3850   0.858   4.412   4.668
    1STR   C076 3851   0.784   4.669   4.763
    1STR   H077 3852   0.778   4.638   4.661
    1STR   H078 3853   0.689   4.663   4.811
    1STR   O079 3854   0.837   4.803   4.752
    1STR   C080 3855   0.792   4.912   4.664
    1STR   H081 3856   0.886   4.919   4.622
    1STR   C082 3857   0.724   4.885   4.528
    1STR   H083 3858   0.712   4.782   4.512
    1STR   H084 3859   0.781   4.914   4.441
    1STR   H085 3860   0.629   4.932   4.515
    1STR   C086 3861   0.770   5.061   4.710
    1STR   H087 3862   0.770   5.119   4.619
    1STR   H088 3863   0.672   5.077   4.750
    1STR   O089 3864   0.860   5.126   4.801
    1STR   C090 3865   0.873   5.268   4.779
    1STR   H091 3866   0.917   5.280   4.680
    1STR   C092 3867   0.738   5.337   4.784
    1STR   H093 3868   0.659   5.285   4.734
    1STR   H094 3869   0.756   5.434   4.741
    1STR   H095 3870   0.703   5.353   4.885
    1STR   C096 3871   0.963   5.349   4.876
    1STR   H097 3872   1.064   5.311   4.882
    1STR   H098 3873   0.974   5.449   4.834
    1STR   O099 3874   0.898   5.358   5.004
    1STR   C100 3875   0.931   5.467   5.088
    1STR   H101 3876   0.950   5.555   5.027
    1STR   C102 3877   0.806   5.491   5.172
    1STR   H103 3878   0.781   5.404   5.232
    1STR   H104 3879   0.720   5.510   5.107
    1STR   H105 3880   0.818   5.577   5.237
    1STR   C106 3881   1.052   5.440   5.178
    1STR   H107 3882   1.121   5.523   5.167
    1STR   H108 3883   1.027   5.440   5.284
    1STR   O109 3884   1.127   5.325   5.144
    1STR   C110 3885   1.087   5.194   5.183
    1STR   H111 3886   1.182   5.150   5.209
    1STR   C112 3887   1.013   5.188   5.317
    1STR   H113 3888   0.918   5.240   5.312
    1STR   H114 3889   1.072   5.232   5.397
    1STR   H115 3890   0.994   5.084   5.345
    1STR   C116 3891   1.022   5.106   5.072
    1STR   H117 3892   1.010   5.012   5.123
    1STR   H118 3893   0.921   5.137   5.049
    1STR   O119 3894   1.089   5.097   4.944
    1STR   C120 3895   1.085   4.974   4.868
    1STR   H121 3896   1.183   4.935   4.878
    1STR   C122 3897   1.011   4.861   4.939
    1STR   H123 3898   0.907   4.890   4.956
    1STR   H124 3899   1.056   4.836   5.034
    1STR   H125 3900   1.015   4.769   4.884
    1STR   C126 3901   1.096   4.969   4.711
    1STR   H127 3902   1.199   4.960   4.683
    1STR   H128 3903   1.065   4.870   4.680
    1STR   O129 3904   1.050   5.078   4.628
    1STR   C130 3905   1.019   5.059   4.487
    1STR   H131 3906   0.913   5.056   4.477
    1STR   C132 3907   1.042   5.188   4.407
    1STR   H133 3908   1.143   5.223   4.410
    1STR   H134 3909   0.981   5.270   4.446
    1STR   H135 3910   1.021   5.174   4.301
    1STR   C136 3911   1.075   4.932   4.420
    1STR   H137 3912   1.120   4.967   4.330
    1STR   H138 3913   1.155   4.892   4.479
    1STR   O139 3914   0.989   4.832   4.365
    1STR   C140 3915   0.953   4.716   4.441
    1STR   H141 3916   0.915   4.742   4.536
    1STR   C142 3917   0.860   4.634   4.357
    1STR   H143 3918   0.901   4.599   4.264
    1STR   H144 3919   0.776   4.697   4.332
    1STR   H145 3920   0.830   4.545   4.411
    1STR   C146 3921   1.059   4.626   4.482
    1STR   H147 3922   1.072   4.556   4.401
    1STR   H148 3923   1.143   4.692   4.488
    1STR   O149 3924   1.037   4.555   4.603
    1STR   C150 3925   1.155   4.518   4.674
    1STR   H151 3926   1.219   4.459   4.612
    1STR   C152 3927   1.229   4.645   4.722
    1STR   H153 3928   1.186   4.687   4.811
    1STR   H154 3929   1.242   4.728   4.654
    1STR   H155 3930   1.331   4.618   4.747
    1STR   C156 3931   1.135   4.420   4.790
    1STR   H157 3932   1.231   4.392   4.823
    1STR   H158 3933   1.103   4.468   4.881
    1STR   O159 3934   1.061   4.302   4.760
    1STR   C160 3935   1.129   4.179   4.785
    1STR   H161 3936   1.235   4.194   4.791
    1STR   C162 3937   1.088   4.111   4.915
    1STR   H163 3938   0.987   4.136   4.944
    1STR   H164 3939   1.156   4.133   4.997
    1STR   H165 3940   1.095   4.003   4.903
    1STR   C166 3941   1.097   4.094   4.665
    1STR   H167 3942   0.991   4.071   4.671
    1STR   H168 3943   1.112   4.158   4.579
    1STR   O169 3944   1.179   3.977   4.665
    1STR   C170 3945   1.212   3.908   4.544
    1STR   H171 3946   1.310   3.870   4.571
    1STR   C172 3947   1.137   3.775   4.532
    1STR   H173 3948   1.029   3.784   4.531
    1STR   H174 3949   1.159   3.712   4.619
    1STR   H175 3950   1.166   3.719   4.443
    1STR   C176 3951   1.244   3.985   4.411
    1STR   H177 3952   1.348   4.013   4.425
    1STR   H178 3953   1.246   3.915   4.328
    1STR   O179 3954   1.164   4.099   4.372
    1STR   C180 3955   1.236   4.197   4.294
    1STR   H181 3956   1.338   4.184   4.322
    1STR   C182 3957   1.228   4.167   4.143
    1STR   H183 3958   1.130   4.179   4.101
    1STR   H184 3959   1.261   4.065   4.122
    1STR   H185 3960   1.291   4.234   4.085
    1STR   C186 3961   1.208   4.344   4.335
    1STR   H187 3962   1.114   4.377   4.296
    1STR   H188 3963   1.193   4.341   4.443
    1STR   O189 3964   1.317   4.436   4.302
    1STR   C190 3965   1.333   4.562   4.374
    1STR   H191 3966   1.260   4.546   4.442
    1STR   C192 3967   1.434   4.583   4.491
    1STR   H193 3968   1.540   4.587   4.474
    1STR   H194 3969   1.423   4.513   4.572
    1STR   H195 3970   1.411   4.678   4.535
    1STR   C196 3971   1.319   4.687   4.282
    1STR   H197 3972   1.404   4.683   4.218
    1STR   H198 3973   1.235   4.671   4.218
    1STR   O199 3974   1.315   4.819   4.340
    1STR   C200 3975   1.360   4.934   4.262
    1STR   H201 3976   1.465   4.924   4.240
    1STR   C202 3977   1.297   4.948   4.123
    1STR   H203 3978   1.189   4.957   4.127
    1STR   H204 3979   1.325   4.865   4.060
    1STR   H205 3980   1.336   5.037   4.073
    1STR   C206 3981   1.353   5.070   4.338
    1STR   H207 3982   1.442   5.128   4.319
    1STR   H208 3983   1.277   5.131   4.291
    1STR   O209 3984   1.325   5.054   4.478
    1STR   C210 3985   1.374   5.152   4.570
    1STR   H211 3986   1.469   5.180   4.528
    1STR   C212 3987   1.288   5.278   4.592
    1STR   H213 3988   1.188   5.256   4.623
    1STR   H214 3989   1.286   5.343   4.504
    1STR   H215 3990   1.325   5.337   4.675
    1STR   C216 3991   1.409   5.085   4.703
    1STR   H217 3992   1.396   4.980   4.690
    1STR   H218 3993   1.512   5.100   4.725
    1STR   O219 3994   1.329   5.120   4.813
    1STR   C220 3995   1.393   5.112   4.940
    1STR   H221 3996   1.500   5.110   4.933
    1STR   C222 3997   1.364   5.252   4.991
    1STR   H223 3998   1.260   5.274   4.973
    1STR   H224 3999   1.416   5.327   4.933
    1STR   H225 4000   1.388   5.265   5.096
    1STR   C226 4001   1.349   4.999   5.040
    1STR   H227 4002   1.410   5.006   5.126
    1STR   H228 4003   1.252   5.020   5.077
    1STR   O229 4004   1.339   4.861   5.002
    1STR   C230 4005   1.326   4.765   5.107
    1STR   H231 4006   1.428   4.739   5.131
    1STR   C232 4007   1.261   4.818   5.237
    1STR   H233 4008   1.162   4.861   5.221
    1STR   H234 4009   1.322   4.894   5.286
    1STR   H235 4010   1.250   4.740   5.312
    1STR   C236 4011   1.260   4.632   5.064
    1STR   H237 4012   1.242   4.574   5.153
    1STR   H238 4013   1.162   4.653   5.024
    1STR   O239 4014   1.324   4.551   4.965
    1STR   C240 4015   1.398   4.434   4.999
    1STR   H241 4016   1.473   4.467   5.068
    1STR   C242 4017   1.313   4.334   5.078
    1STR   H243 4018   1.215   4.327   5.033
    1STR   H244 4019   1.299   4.366   5.181
    1STR   H245 4020   1.358   4.235   5.082
    1STR   C246 4021   1.476   4.366   4.879
    1STR   H247 4022   1.573   4.414   4.872
    1STR   H248 4023   1.497   4.265   4.911
    1STR   O249 4024   1.426   4.359   4.743
    1STR   C250 4025   1.497   4.266   4.659
    1STR   H251 4026   1.598   4.283   4.686
    1STR   C252 4027   1.445   4.125   4.687
    1STR   H253 4028   1.351   4.120   4.637
    1STR   H254 4029   1.434   4.098   4.792
    1STR   H255 4030   1.503   4.048   4.639
    1STR   C256 4031   1.500   4.279   4.506
    1STR   H257 4032   1.503   4.179   4.465
    1STR   H258 4033   1.408   4.323   4.476
    1STR   O259 4034   1.613   4.344   4.448
    1STR   C260 4035   1.635   4.341   4.305
    1STR   H261 4036   1.738   4.318   4.284
    1STR   C262 4037   1.552   4.246   4.221
    1STR   H263 4038   1.458   4.292   4.200
    1STR   H264 4039   1.544   4.144   4.258
    1STR   H265 4040   1.592   4.240   4.123
    1STR   C266 4041   1.627   4.483   4.258
    1STR   H267 4042   1.537   4.521   4.289
    1STR   H268 4043   1.704   4.540   4.305
    1STR   O269 4044   1.603   4.507   4.122
    1STR   C270 4045   1.610   4.644   4.083
    1STR   H271 4046   1.700   4.646   4.021
    1STR   C272 4047   1.496   4.674   3.985
    1STR   H273 4048   1.396   4.655   4.022
    1STR   H274 4049   1.502   4.606   3.901
    1STR   H275 4050   1.503   4.775   3.946
    1STR   C276 4051   1.646   4.753   4.189
    1STR   H277 4052   1.747   4.733   4.212
    1STR   H278 4053   1.644   4.848   4.137
    1STR   O279 4054   1.588   4.760   4.322
    1STR   C280 4055   1.656   4.836   4.423
    1STR   H281 4056   1.748   4.784   4.448
    1STR   C282 4057   1.693   4.972   4.371
    1STR   H283 4058   1.719   4.983   4.267
    1STR   H284 4059   1.777   5.004   4.428
    1STR   H285 4060   1.614   5.043   4.387
    1STR   C286 4061   1.576   4.870   4.553
    1STR   H287 4062   1.609   4.966   4.591
    1STR   H288 4063   1.471   4.877   4.527
    1STR   O289 4064   1.594   4.784   4.663
    1STR   C290 4065   1.557   4.810   4.800
    1STR   H291 4066   1.452   4.833   4.806
    1STR   C292 4067   1.568   4.674   4.860
    1STR   H293 4068   1.531   4.600   4.789
    1STR   H294 4069   1.510   4.672   4.949
    1STR   H295 4070   1.668   4.647   4.889
    1STR   C296 4071   1.645   4.899   4.893
    1STR   H297 4072   1.747   4.866   4.894
    1STR   H298 4073   1.650   5.000   4.859
    1STR   O299 4074   1.601   4.886   5.029
    1STR   C300 4075   1.681   4.936   5.135
    1STR   H301 4076   1.781   4.957   5.095
    1STR   C302 4077   1.631   5.065   5.201
    1STR   H303 4078   1.549   5.046   5.271
    1STR   H304 4079   1.599   5.140   5.129
    1STR   H305 4080   1.708   5.111   5.262
    1STR   C306 4081   1.696   4.829   5.244
    1STR   H307 4082   1.786   4.777   5.217
    1STR   H308 4083   1.715   4.884   5.335
    1STR   O309 4084   1.585   4.743   5.281
    1STR    H1R 4085   1.670   4.577   5.386
    1STR    H1S 4086   1.452   4.548   5.443
    1STR    H1T 4087   1.489   4.422   5.326
    1STR    H1U 4088   1.398   4.564   5.279
    1STR    H1V 4089   1.781   4.576   5.190
    1STR    H1W 4090   1.644   4.595   5.091
    1STR    H1X 4091   1.662   4.200   5.051
    1STR    H1Y 4092   1.667   4.031   4.875
    1STR    H1Z 4093   1.715   3.980   4.633
    1STR    H20 4094   1.885   4.056   4.430
    1STR    H21 4095   1.721   4.106   4.403
    1STR    H22 4096   1.863   4.212   4.393
    1STR    H23 4097   1.939   4.356   4.475
    1STR    H27 4098   1.860   4.410   4.815
    1STR    H28 4099   0.934   3.799   4.917
    1STR    H29 4100   0.938   3.833   5.161
    1STR    H2A 4101   0.907   4.002   5.346
    1STR    H2B 4102   0.742   3.939   5.359
    1STR    H2C 4103   0.772   4.111   5.348
    1STR   BCK1 4104   0.303   4.739   7.058
    1STR    O03 4105   0.189   4.706   7.082
    1STR    N04 4106   0.347   4.829   6.971
    1STR    C05 4107   0.283   4.917   6.883
    1STR    C06 4108   0.343   5.041   6.859
    1STR    C07 4109   0.296   5.134   6.767
    1STR    N08 4110   0.364   5.253   6.778
    1STR    C09 4111   0.435   5.318   6.691
    1STR    O0A 4112   0.405   5.329   6.573
    1STR    O0B 4113   0.538   5.375   6.760
    1STR    C0C 4114   0.634   5.464   6.703
    1STR    C0D 4115   0.683   5.561   6.812
    1STR    C0E 4116   0.752   5.388   6.651
    1STR    O0F 4117   0.719   5.321   6.532
    1STR    C0G 4118   0.672   5.187   6.539
    1STR    C0H 4119   0.695   5.145   6.393
    1STR    C0I 4120   0.728   5.103   6.657
    1STR    O0J 4121   0.659   5.113   6.783
    1STR    C0K 4122   1.869   4.340   6.819
    1STR    C0M 4123   1.818   4.240   6.716
    1STR    C0N 4124   1.911   4.472   6.760
    1STR    O0O 4125   1.964   4.579   6.837
    1STR    C0P 4126   1.985   4.586   6.966
    1STR    O0Q 4127   1.989   4.491   7.042
    1STR    N0R 4128   1.991   4.714   6.999
    1STR    C0S 4129   1.948   4.783   7.112
    1STR    C0T 4130   1.907   4.918   7.104
    1STR    C0U 4131   1.852   4.981   7.216
    1STR    C0V 4132   1.817   4.908   7.331
    1STR    C0W 4133   1.755   4.982   7.447
    1STR    C0X 4134   1.857   4.774   7.338
    1STR    N0Y 4135   1.813   4.688   7.437
    1STR   BCK2 4136   1.877   4.574   7.460
    1STR    O10 4137   1.997   4.570   7.476
    1STR    C13 4138   1.931   4.719   7.233
    1STR    C14 4139   0.190   5.099   6.683
    1STR    C15 4140   0.126   4.975   6.706
    1STR    C16 4141   0.170   4.886   6.807
    1STR    C17 4142   0.102   4.756   6.835
    1STR    H1B 4143   0.446   4.842   6.973
    1STR    H1C 4144   0.428   5.076   6.908
    1STR    H1D 4145   0.395   5.273   6.871
    1STR    H1E 4146   0.596   5.520   6.620
    1STR    H1F 4147   0.705   5.509   6.905
    1STR    H1G 4148   0.772   5.615   6.780
    1STR    H1H 4149   0.609   5.638   6.830
    1STR    H1I 4150   0.790   5.327   6.731
    1STR    H1J 4151   0.831   5.458   6.624
    1STR    H1K 4152   0.567   5.174   6.548
    1STR    H1M 4153   0.792   5.170   6.354
    1STR    H1N 4154   0.629   5.204   6.332
    1STR    H1O 4155   0.670   5.041   6.372
    1STR    H1P 4156   0.728   5.002   6.623
    1STR    H1Q 4157   0.829   5.129   6.677
    1STR   C010 4158   0.685   5.002   6.873
    1STR   H011 4159   0.792   4.988   6.878
    1STR   C012 4160   0.632   5.025   7.015
    1STR   H013 4161   0.534   4.987   7.035
    1STR   H014 4162   0.640   5.128   7.048
    1STR   H015 4163   0.678   4.959   7.084
    1STR   C016 4164   0.627   4.870   6.822
    1STR   H017 4165   0.705   4.805   6.789
    1STR   H018 4166   0.576   4.810   6.895
    1STR   O019 4167   0.545   4.914   6.718
    1STR   C020 4168   0.466   4.832   6.641
    1STR   H021 4169   0.382   4.800   6.699
    1STR   C022 4170   0.427   4.930   6.538
    1STR   H023 4171   0.510   4.943   6.470
    1STR   H024 4172   0.406   5.029   6.575
    1STR   H025 4173   0.338   4.896   6.489
    1STR   C026 4174   0.536   4.715   6.582
    1STR   H027 4175   0.480   4.666   6.505
    1STR   H028 4176   0.627   4.746   6.534
    1STR   O029 4177   0.544   4.630   6.692
    1STR   C030 4178   0.656   4.549   6.706
    1STR   H031 4179   0.750   4.600   6.723
    1STR   C032 4180   0.616   4.495   6.841
    1STR   H033 4181   0.510   4.483   6.850
    1STR   H034 4182   0.631   4.573   6.913
    1STR   H035 4183   0.672   4.409   6.874
    1STR   C036 4184   0.669   4.451   6.589
    1STR   H037 4185   0.744   4.375   6.610
    1STR   H038 4186   0.574   4.400   6.581
    1STR   O039 4187   0.693   4.518   6.465
    1STR   C040 4188   0.829   4.552   6.443
    1STR   H041 4189   0.871   4.570   6.540
    1STR   C042 4190   0.892   4.428   6.377
    1STR   H043 4191   0.838   4.400   6.287
    1STR   H044 4192   0.891   4.342   6.444
    1STR   H045 4193   0.996   4.445   6.349
    1STR   C046 4194   0.843   4.681   6.356
    1STR   H047 4195   0.863   4.650   6.254
    1STR   H048 4196   0.749   4.734   6.355
    1STR   O049 4197   0.944   4.780   6.387
    1STR   C050 4198   0.911   4.879   6.485
    1STR   H051 4199   0.813   4.914   6.455
    1STR   C052 4200   0.893   4.815   6.622
    1STR   H053 4201   0.958   4.734   6.646
    1STR   H054 4202   0.799   4.767   6.619
    1STR   H055 4203   0.894   4.882   6.707
    1STR   C056 4204   1.001   5.006   6.487
    1STR   H057 4205   1.092   4.999   6.428
    1STR   H058 4206   0.950   5.085   6.436
    1STR   O059 4207   1.022   5.048   6.623
    1STR   C060 4208   1.089   5.168   6.659
    1STR   H061 4209   1.196   5.147   6.660
    1STR   C062 4210   1.069   5.279   6.556
    1STR   H063 4211   0.964   5.292   6.531
    1STR   H064 4212   1.121   5.255   6.463
    1STR   H065 4213   1.109   5.374   6.591
    1STR   C066 4214   1.048   5.211   6.805
    1STR   H067 4215   1.137   5.249   6.855
    1STR   H068 4216   0.983   5.297   6.798
    1STR   O069 4217   0.984   5.111   6.889
    1STR   C070 4218   0.966   5.145   7.029
    1STR   H071 4219   1.065   5.172   7.066
    1STR   C072 4220   0.879   5.271   7.039
    1STR   H073 4221   0.791   5.264   6.974
    1STR   H074 4222   0.934   5.361   7.010
    1STR   H075 4223   0.845   5.288   7.141
    1STR   C076 4224   0.914   5.032   7.127
    1STR   H077 4225   0.982   5.028   7.212
    1STR   H078 4226   0.825   5.066   7.179
    1STR   O079 4227   0.895   4.898   7.072
    1STR   C080 4228   0.862   4.782   7.155
    1STR   H081 4229   0.949   4.732   7.193
    1STR   C082 4230   0.792   4.815   7.284
    1STR   H083 4231   0.688   4.845   7.273
    1STR   H084 4232   0.846   4.890   7.341
    1STR   H085 4233   0.797   4.725   7.344
    1STR   C086 4234   0.783   4.678   7.071
    1STR   H087 4235   0.678   4.687   7.093
    1STR   H088 4236   0.792   4.714   6.969
    1STR   O089 4237   0.825   4.540   7.055
    1STR   C090 4238   0.786   4.431   7.142
    1STR   H091 4239   0.836   4.450   7.236
    1STR   C092 4240   0.643   4.440   7.181
    1STR   H093 4241   0.583   4.440   7.092
    1STR   H094 4242   0.626   4.528   7.242
    1STR   H095 4243   0.611   4.356   7.242
    1STR   C096 4244   0.813   4.283   7.094
    1STR   H097 4245   0.889   4.234   7.152
    1STR   H098 4246   0.729   4.223   7.122
    1STR   O099 4247   0.833   4.253   6.957
    1STR   C100 4248   0.843   4.114   6.921
    1STR   H101 4249   0.742   4.082   6.929
    1STR   C102 4250   0.873   4.097   6.769
    1STR   H103 4251   0.976   4.082   6.741
    1STR   H104 4252   0.847   4.186   6.713
    1STR   H105 4253   0.820   4.011   6.727
    1STR   C106 4254   0.908   4.012   7.020
    1STR   H107 4255   0.851   4.007   7.113
    1STR   H108 4256   0.896   3.918   6.973
    1STR   O109 4257   1.044   4.005   7.057
    1STR   C110 4258   1.140   4.030   6.958
    1STR   H111 4259   1.233   4.010   7.008
    1STR   C112 4260   1.143   3.934   6.838
    1STR   H113 4261   1.047   3.890   6.815
    1STR   H114 4262   1.213   3.852   6.855
    1STR   H115 4263   1.177   3.988   6.750
    1STR   C116 4264   1.140   4.181   6.932
    1STR   H117 4265   1.233   4.215   6.894
    1STR   H118 4266   1.071   4.215   6.856
    1STR   O119 4267   1.107   4.239   7.058
    1STR   C120 4268   1.133   4.376   7.072
    1STR   H121 4269   1.239   4.392   7.066
    1STR   C122 4270   1.068   4.445   6.952
    1STR   H123 4271   0.981   4.401   6.908
    1STR   H124 4272   1.137   4.449   6.872
    1STR   H125 4273   1.033   4.543   6.969
    1STR   C126 4274   1.084   4.417   7.213
    1STR   H127 4275   1.034   4.514   7.209
    1STR   H128 4276   1.016   4.343   7.249
    1STR   O129 4277   1.178   4.422   7.321
    1STR   C130 4278   1.115   4.446   7.446
    1STR   H131 4279   1.011   4.461   7.428
    1STR   C132 4280   1.137   4.314   7.522
    1STR   H133 4281   1.242   4.299   7.544
    1STR   H134 4282   1.103   4.230   7.461
    1STR   H135 4283   1.080   4.312   7.615
    1STR   C136 4284   1.152   4.570   7.530
    1STR   H137 4285   1.118   4.544   7.630
    1STR   H138 4286   1.259   4.581   7.537
    1STR   O139 4287   1.092   4.696   7.496
    1STR   C140 4288   1.138   4.813   7.570
    1STR   H141 4289   1.244   4.816   7.557
    1STR   C142 4290   1.090   4.942   7.504
    1STR   H143 4291   0.983   4.954   7.508
    1STR   H144 4292   1.122   4.946   7.400
    1STR   H145 4293   1.135   5.029   7.553
    1STR   C146 4294   1.113   4.822   7.723
    1STR   H147 4295   1.176   4.898   7.769
    1STR   H148 4296   1.012   4.859   7.742
    1STR   O149 4297   1.124   4.698   7.791
    1STR   C150 4298   1.241   4.669   7.866
    1STR   H151 4299   1.247   4.738   7.950
    1STR   C152 4300   1.213   4.527   7.916
    1STR   H153 4301   1.210   4.456   7.834
    1STR   H154 4302   1.117   4.521   7.968
    1STR   H155 4303   1.289   4.493   7.985
    1STR   C156 4304   1.373   4.675   7.787
    1STR   H157 4305   1.454   4.650   7.855
    1STR   H158 4306   1.374   4.598   7.710
    1STR   O159 4307   1.391   4.805   7.733
    1STR   C160 4308   1.498   4.829   7.643
    1STR   H161 4309   1.481   4.929   7.603
    1STR   C162 4310   1.625   4.834   7.730
    1STR   H163 4311   1.632   4.750   7.798
    1STR   H164 4312   1.628   4.925   7.790
    1STR   H165 4313   1.716   4.829   7.671
    1STR   C166 4314   1.510   4.734   7.521
    1STR   H167 4315   1.591   4.769   7.460
    1STR   H168 4316   1.535   4.634   7.557
    1STR   O169 4317   1.401   4.731   7.429
    1STR   C170 4318   1.418   4.646   7.315
    1STR   H171 4319   1.499   4.687   7.259
    1STR   C172 4320   1.455   4.502   7.358
    1STR   H173 4321   1.390   4.459   7.433
    1STR   H174 4322   1.555   4.496   7.396
    1STR   H175 4323   1.452   4.434   7.273
    1STR   C176 4324   1.296   4.644   7.221
    1STR   H177 4325   1.298   4.544   7.184
    1STR   H178 4326   1.204   4.660   7.277
    1STR   O179 4327   1.294   4.696   7.088
    1STR   C180 4328   1.167   4.747   7.043
    1STR   H181 4329   1.101   4.677   7.089
    1STR   C182 4330   1.169   4.875   7.125
    1STR   H183 4331   1.107   4.862   7.213
    1STR   H184 4332   1.138   4.959   7.067
    1STR   H185 4333   1.265   4.900   7.168
    1STR   C186 4334   1.110   4.759   6.889
    1STR   H187 4335   1.003   4.741   6.896
    1STR   H188 4336   1.100   4.860   6.855
    1STR   O189 4337   1.151   4.668   6.780
    1STR   C190 4338   1.182   4.698   6.638
    1STR   H191 4339   1.276   4.654   6.632
    1STR   C192 4340   1.141   4.604   6.523
    1STR   H193 4341   1.116   4.656   6.432
    1STR   H194 4342   1.065   4.535   6.556
    1STR   H195 4343   1.221   4.540   6.487
    1STR   C196 4344   1.242   4.827   6.590
    1STR   H197 4345   1.346   4.817   6.568
    1STR   H198 4346   1.203   4.855   6.494
    1STR   O199 4347   1.237   4.921   6.688
    1STR   C200 4348   1.351   4.921   6.769
    1STR   H201 4349   1.424   4.975   6.713
    1STR   C202 4350   1.305   5.019   6.875
    1STR   H203 4351   1.336   4.981   6.969
    1STR   H204 4352   1.199   5.029   6.880
    1STR   H205 4353   1.341   5.120   6.862
    1STR   C206 4354   1.410   4.785   6.825
    1STR   H207 4355   1.495   4.818   6.882
    1STR   H208 4356   1.345   4.757   6.897
    1STR   O209 4357   1.443   4.659   6.756
    1STR   C210 4358   1.395   4.530   6.809
    1STR   H211 4359   1.327   4.549   6.891
    1STR   C212 4360   1.327   4.440   6.703
    1STR   H213 4361   1.376   4.454   6.609
    1STR   H214 4362   1.222   4.455   6.692
    1STR   H215 4363   1.327   4.335   6.726
    1STR   C216 4364   1.495   4.430   6.862
    1STR   H217 4365   1.554   4.384   6.784
    1STR   H218 4366   1.562   4.473   6.931
    1STR   O219 4367   1.415   4.339   6.934
    1STR   C220 4368   1.472   4.216   6.969
    1STR   H221 4369   1.572   4.240   6.995
    1STR   C222 4370   1.414   4.169   7.103
    1STR   H223 4371   1.308   4.168   7.114
    1STR   H224 4372   1.440   4.240   7.180
    1STR   H225 4373   1.449   4.070   7.130
    1STR   C226 4374   1.483   4.116   6.853
    1STR   H227 4375   1.579   4.143   6.809
    1STR   H228 4376   1.493   4.016   6.892
    1STR   O229 4377   1.385   4.118   6.748
    1STR   C230 4378   1.428   4.064   6.623
    1STR   H231 4379   1.536   4.079   6.615
    1STR   C232 4380   1.399   3.914   6.615
    1STR   H233 4381   1.294   3.894   6.592
    1STR   H234 4382   1.422   3.864   6.709
    1STR   H235 4383   1.458   3.867   6.537
    1STR   C236 4384   1.359   4.143   6.509
    1STR   H237 4385   1.254   4.114   6.502
    1STR   H238 4386   1.357   4.248   6.533
    1STR   O239 4387   1.420   4.131   6.380
    1STR   C240 4388   1.554   4.179   6.373
    1STR   H241 4389   1.581   4.225   6.466
    1STR   C242 4390   1.643   4.055   6.359
    1STR   H243 4391   1.631   4.006   6.263
    1STR   H244 4392   1.625   3.982   6.437
    1STR   H245 4393   1.747   4.086   6.370
    1STR   C246 4394   1.580   4.276   6.254
    1STR   H247 4395   1.682   4.262   6.220
    1STR   H248 4396   1.519   4.245   6.168
    1STR   O249 4397   1.570   4.418   6.269
    1STR   C250 4398   1.517   4.476   6.388
    1STR   H251 4399   1.430   4.418   6.415
    1STR   C252 4400   1.624   4.479   6.499
    1STR   H253 4401   1.693   4.559   6.481
    1STR   H254 4402   1.682   4.389   6.514
    1STR   H255 4403   1.582   4.504   6.596
    1STR   C256 4404   1.474   4.621   6.358
    1STR   H257 4405   1.528   4.661   6.273
    1STR   H258 4406   1.369   4.626   6.331
    1STR   O259 4407   1.498   4.700   6.475
    1STR   C260 4408   1.573   4.820   6.462
    1STR   H261 4409   1.657   4.790   6.405
    1STR   C262 4410   1.490   4.929   6.391
    1STR   H263 4411   1.416   4.977   6.455
    1STR   H264 4412   1.437   4.892   6.302
    1STR   H265 4413   1.557   5.009   6.363
    1STR   C266 4414   1.628   4.873   6.596
    1STR   H267 4415   1.574   4.824   6.672
    1STR   H268 4416   1.726   4.839   6.625
    1STR   O269 4417   1.608   5.013   6.607
    1STR   C270 4418   1.659   5.090   6.716
    1STR   H271 4419   1.761   5.107   6.686
    1STR   C272 4420   1.579   5.220   6.701
    1STR   H273 4421   1.563   5.245   6.597
    1STR   H274 4422   1.628   5.304   6.749
    1STR   H275 4423   1.480   5.211   6.744
    1STR   C276 4424   1.665   5.034   6.862
    1STR   H277 4425   1.683   4.928   6.862
    1STR   H278 4426   1.750   5.077   6.912
    1STR   O279 4427   1.553   5.069   6.943
    1STR   C280 4428   1.559   5.044   7.084
    1STR   H281 4429   1.652   5.085   7.117
    1STR   C282 4430   1.449   5.124   7.158
    1STR   H283 4431   1.348   5.091   7.140
    1STR   H284 4432   1.449   5.229   7.132
    1STR   H285 4433   1.463   5.117   7.266
    1STR   C286 4434   1.548   4.896   7.127
    1STR   H287 4435   1.544   4.892   7.235
    1STR   H288 4436   1.455   4.856   7.091
    1STR   O289 4437   1.654   4.812   7.084
    1STR   C290 4438   1.627   4.677   7.045
    1STR   H291 4439   1.521   4.657   7.033
    1STR   C292 4440   1.700   4.674   6.910
    1STR   H293 4441   1.780   4.745   6.903
    1STR   H294 4442   1.647   4.692   6.820
    1STR   H295 4443   1.738   4.576   6.896
    1STR   C296 4444   1.686   4.568   7.139
    1STR   H297 4445   1.789   4.564   7.115
    1STR   H298 4446   1.683   4.598   7.242
    1STR   O299 4447   1.640   4.432   7.131
    1STR   C300 4448   1.740   4.332   7.159
    1STR   H301 4449   1.823   4.379   7.210
    1STR   C302 4450   1.685   4.219   7.246
    1STR   H303 4451   1.616   4.254   7.323
    1STR   H304 4452   1.763   4.165   7.295
    1STR   H305 4453   1.639   4.140   7.189
    1STR   C306 4454   1.803   4.274   7.033
    1STR   H307 4455   1.910   4.265   7.050
    1STR   H308 4456   1.770   4.174   7.012
    1STR   O309 4457   1.774   4.354   6.921
    1STR    H1R 4458   1.962   4.309   6.861
    1STR    H1S 4459   1.885   4.232   6.630
    1STR    H1T 4460   1.719   4.266   6.680
    1STR    H1U 4461   1.811   4.140   6.758
    1STR    H1V 4462   1.830   4.512   6.700
    1STR    H1W 4463   1.993   4.449   6.695
    1STR    H1X 4464   2.022   4.767   6.919
    1STR    H1Y 4465   1.915   4.973   7.012
    1STR    H1Z 4466   1.830   5.086   7.214
    1STR    H20 4467   1.648   4.971   7.451
    1STR    H21 4468   1.805   4.951   7.538
    1STR    H22 4469   1.775   5.088   7.440
    1STR    H23 4470   1.715   4.689   7.455
    1STR    H27 4471   1.962   4.618   7.236
    1STR    H28 4472   0.157   5.166   6.606
    1STR    H29 4473   0.040   4.950   6.648
    1STR    H2A 4474   0.171   4.674   6.854
    1STR    H2B 4475   0.051   4.720   6.752
    1STR    H2C 4476   0.031   4.766   6.916
    1STR   BCK1 4477   0.430   6.934   0.083
    1STR    O03 4478   0.492   6.831   0.072
    1STR    N04 4479   0.449   7.021   0.183
    1STR    C05 4480   0.539   7.017   0.288
    1STR    C06 4481   0.635   6.914   0.301
    1STR    C07 4482   0.707   6.895   0.419
    1STR    N08 4483   0.771   6.772   0.430
    1STR    C09 4484   0.807   6.700   0.536
    1STR    O0A 4485   0.798   6.738   0.652
    1STR    O0B 4486   0.846   6.576   0.502
    1STR    C0C 4487   0.884   6.535   0.370
    1STR    C0D 4488   0.950   6.399   0.392
    1STR    C0E 4489   0.766   6.524   0.269
    1STR    O0F 4490   0.766   6.625   0.166
    1STR    C0G 4491   0.691   6.591   0.046
    1STR    C0H 4492   0.553   6.563   0.094
    1STR    C0I 4493   0.700   6.690   9.243
    1STR    O0J 4494   0.604   6.689   9.132
    1STR    C0K 4495   1.815   7.757   0.414
    1STR    C0M 4496   1.807   7.727   0.563
    1STR    C0N 4497   1.792   7.646   0.310
    1STR    O0O 4498   1.908   7.635   0.232
    1STR    C0P 4499   1.920   7.550   0.131
    1STR    O0Q 4500   2.002   7.565   0.042
    1STR    N0R 4501   1.841   7.445   0.130
    1STR    C0S 4502   1.892   7.317   0.126
    1STR    C0T 4503   2.014   7.282   0.067
    1STR    C0U 4504   2.065   7.154   0.087
    1STR    C0V 4505   1.991   7.057   0.156
    1STR    C0W 4506   2.055   6.931   0.200
    1STR    C0X 4507   1.862   7.084   0.201
    1STR    N0Y 4508   1.775   6.977   0.216
    1STR   BCK2 4509   1.754   6.873   0.295
    1STR    O10 4510   1.685   6.782   0.251
    1STR    C13 4511   1.817   7.217   0.186
    1STR    C14 4512   0.699   6.992   0.520
    1STR    C15 4513   0.617   7.103   0.503
    1STR    C16 4514   0.532   7.113   0.392
    1STR    C17 4515   0.428   7.220   0.396
    1STR    H1B 4516   0.387   7.100   0.185
    1STR    H1C 4517   0.649   6.840   0.225
    1STR    H1D 4518   0.785   6.727   0.341
    1STR    H1E 4519   0.958   6.606   0.334
    1STR    H1F 4520   0.880   6.330   0.440
    1STR    H1G 4521   0.983   6.355   0.299
    1STR    H1H 4522   1.036   6.409   0.458
    1STR    H1I 4523   0.671   6.522   0.323
    1STR    H1J 4524   0.772   6.427   0.221
    1STR    H1K 4525   0.728   6.497   0.007
    1STR    H1M 4526   0.538   6.458   0.116
    1STR    H1N 4527   0.490   6.591   0.013
    1STR    H1O 4528   0.525   6.623   0.180
    1STR    H1P 4529   0.713   6.791   9.280
    1STR    H1Q 4530   0.790   6.655   9.198
    1STR   C010 4531   0.640   6.730   8.995
    1STR   H011 4532   0.743   6.701   8.985
    1STR   C012 4533   0.569   6.655   8.883
    1STR   H013 4534   0.463   6.673   8.881
    1STR   H014 4535   0.588   6.548   8.889
    1STR   H015 4536   0.605   6.687   8.785
    1STR   C016 4537   0.638   6.881   8.955
    1STR   H017 4538   0.679   6.921   9.044
    1STR   H018 4539   0.698   6.892   8.865
    1STR   O019 4540   0.527   6.967   8.930
    1STR   C020 4541   0.562   7.109   8.917
    1STR   H021 4542   0.659   7.130   8.959
    1STR   C022 4543   0.586   7.158   8.773
    1STR   H023 4544   0.496   7.197   8.726
    1STR   H024 4545   0.626   7.078   8.710
    1STR   H025 4546   0.656   7.240   8.772
    1STR   C026 4547   0.461   7.197   8.998
    1STR   H027 4548   0.412   7.268   8.932
    1STR   H028 4549   0.380   7.135   9.036
    1STR   O029 4550   0.523   7.270   9.106
    1STR   C030 4551   0.521   7.217   9.239
    1STR   H031 4552   0.418   7.196   9.254
    1STR   C032 4553   0.591   7.086   9.217
    1STR   H033 4554   0.677   7.101   9.158
    1STR   H034 4555   0.535   7.022   9.157
    1STR   H035 4556   0.624   7.030   9.304
    1STR   C036 4557   0.593   7.288   0.043
    1STR   H037 4558   0.626   7.206   0.106
    1STR   H038 4559   0.673   7.348   0.010
    1STR   O039 4560   0.555   7.387   0.140
    1STR   C040 4561   0.654   7.397   0.250
    1STR   H041 4562   0.671   7.297   0.282
    1STR   C042 4563   0.788   7.462   0.215
    1STR   H043 4564   0.795   7.565   0.244
    1STR   H044 4565   0.812   7.454   0.111
    1STR   H045 4566   0.867   7.415   0.271
    1STR   C046 4567   0.612   7.463   0.382
    1STR   H047 4568   0.644   7.566   0.384
    1STR   H048 4569   0.505   7.463   0.390
    1STR   O049 4570   0.655   7.403   0.503
    1STR   C050 4571   0.787   7.430   0.546
    1STR   H051 4572   0.832   7.509   0.486
    1STR   C052 4573   0.780   7.476   0.691
    1STR   H053 4574   0.729   7.401   0.751
    1STR   H054 4575   0.724   7.569   0.699
    1STR   H055 4576   0.879   7.492   0.733
    1STR   C056 4577   0.865   7.301   0.524
    1STR   H057 4578   0.815   7.253   0.442
    1STR   H058 4579   0.963   7.321   0.482
    1STR   O059 4580   0.870   7.207   0.632
    1STR   C060 4581   0.981   7.115   0.630
    1STR   H061 4582   1.067   7.179   0.638
    1STR   C062 4583   0.978   7.029   0.757
    1STR   H063 4584   0.880   6.986   0.777
    1STR   H064 4585   1.005   7.088   0.844
    1STR   H065 4586   1.047   6.946   0.751
    1STR   C066 4587   0.997   7.023   0.505
    1STR   H067 4588   1.095   6.985   0.487
    1STR   H068 4589   0.940   6.933   0.515
    1STR   O069 4590   0.966   7.095   0.391
    1STR   C070 4591   0.969   7.039   0.262
    1STR   H071 4592   1.061   7.075   0.220
    1STR   C072 4593   0.963   6.889   0.238
    1STR   H073 4594   0.865   6.849   0.218
    1STR   H074 4595   1.011   6.830   0.315
    1STR   H075 4596   1.009   6.870   0.142
    1STR   C076 4597   0.848   7.107   0.202
    1STR   H077 4598   0.788   7.034   0.147
    1STR   H078 4599   0.780   7.132   0.281
    1STR   O079 4600   0.878   7.223   0.125
    1STR   C080 4601   0.877   7.195   9.309
    1STR   H081 4602   0.785   7.151   9.309
    1STR   C082 4603   0.846   7.297   9.197
    1STR   H083 4604   0.860   7.400   9.226
    1STR   H084 4605   0.748   7.296   9.153
    1STR   H085 4606   0.896   7.271   9.106
    1STR   C086 4607   0.966   7.080   9.277
    1STR   H087 4608   1.015   7.112   9.191
    1STR   H088 4609   1.050   7.065   0.022
    1STR   O089 4610   0.882   6.968   9.260
    1STR   C090 4611   0.922   6.901   9.147
    1STR   H091 4612   0.854   6.824   9.121
    1STR   C092 4613   0.898   6.991   9.026
    1STR   H093 4614   0.967   7.060   8.993
    1STR   H094 4615   0.824   7.064   9.043
    1STR   H095 4616   0.873   6.935   8.939
    1STR   C096 4617   1.047   6.823   9.188
    1STR   H097 4618   1.103   6.781   9.107
    1STR   H098 4619   1.119   6.885   9.241
    1STR   O099 4620   0.992   6.723   9.274
    1STR   C100 4621   1.047   6.594   9.258
    1STR   H101 4622   1.151   6.618   9.261
    1STR   C102 4623   1.025   6.510   0.061
    1STR   H103 4624   0.923   6.478   0.070
    1STR   H104 4625   1.054   6.568   0.149
    1STR   H105 4626   1.081   6.418   0.059
    1STR   C106 4627   1.004   6.516   9.131
    1STR   H107 4628   1.088   6.454   9.099
    1STR   H108 4629   0.923   6.447   9.154
    1STR   O109 4630   0.956   6.600   9.027
    1STR   C110 4631   0.990   6.564   8.895
    1STR   H111 4632   1.051   6.474   8.891
    1STR   C112 4633   0.867   6.536   8.811
    1STR   H113 4634   0.817   6.630   8.786
    1STR   H114 4635   0.798   6.471   8.864
    1STR   H115 4636   0.893   6.489   8.716
    1STR   C116 4637   1.070   6.680   8.836
    1STR   H117 4638   1.171   6.651   8.857
    1STR   H118 4639   1.055   6.688   8.729
    1STR   O119 4640   1.049   6.806   8.901
    1STR   C120 4641   1.103   6.925   8.842
    1STR   H121 4642   1.178   6.877   8.787
    1STR   C122 4643   1.004   6.973   8.734
    1STR   H123 4644   0.966   7.073   8.754
    1STR   H124 4645   0.918   6.907   8.726
    1STR   H125 4646   1.049   6.972   8.635
    1STR   C126 4647   1.192   7.032   8.923
    1STR   H127 4648   1.283   6.981   8.954
    1STR   H128 4649   1.220   7.105   8.851
    1STR   O129 4650   1.161   7.116   9.039
    1STR   C130 4651   1.129   7.259   9.026
    1STR   H131 4652   1.218   7.294   8.982
    1STR   C132 4653   1.035   7.299   8.909
    1STR   H133 4654   0.939   7.249   8.906
    1STR   H134 4655   1.083   7.281   8.813
    1STR   H135 4656   1.015   7.406   8.911
    1STR   C136 4657   1.116   7.353   9.157
    1STR   H137 4658   1.191   7.427   9.156
    1STR   H138 4659   1.039   7.428   9.140
    1STR   O139 4660   1.119   7.299   9.294
    1STR   C140 4661   1.145   7.383   0.091
    1STR   H141 4662   1.250   7.394   0.085
    1STR   C142 4663   1.088   7.524   0.074
    1STR   H143 4664   0.991   7.519   0.028
    1STR   H144 4665   1.151   7.585   0.010
    1STR   H145 4666   1.079   7.575   0.170
    1STR   C146 4667   1.135   7.324   0.238
    1STR   H147 4668   1.036   7.296   0.266
    1STR   H148 4669   1.196   7.234   0.244
    1STR   O149 4670   1.180   7.416   0.339
    1STR   C150 4671   1.213   7.380   0.477
    1STR   H151 4672   1.292   7.454   0.475
    1STR   C152 4673   1.135   7.460   0.582
    1STR   H153 4674   1.063   7.527   0.534
    1STR   H154 4675   1.200   7.523   0.643
    1STR   H155 4676   1.082   7.396   0.652
    1STR   C156 4677   1.301   7.260   0.532
    1STR   H157 4678   1.399   7.256   0.487
    1STR   H158 4679   1.317   7.287   0.636
    1STR   O159 4680   1.260   7.123   0.534
    1STR   C160 4681   1.341   7.027   0.608
    1STR   H161 4682   1.445   7.039   0.581
    1STR   C162 4683   1.333   7.057   0.759
    1STR   H163 4684   1.231   7.072   0.793
    1STR   H164 4685   1.390   7.146   0.786
    1STR   H165 4686   1.376   6.976   0.818
    1STR   C166 4687   1.306   6.876   0.580
    1STR   H167 4688   1.353   6.816   0.659
    1STR   H168 4689   1.201   6.850   0.592
    1STR   O169 4690   1.365   6.822   0.462
    1STR   C170 4691   1.284   6.757   0.363
    1STR   H171 4692   1.189   6.722   0.405
    1STR   C172 4693   1.260   6.852   0.247
    1STR   H173 4694   1.352   6.869   0.194
    1STR   H174 4695   1.217   6.946   0.278
    1STR   H175 4696   1.197   6.807   0.171
    1STR   C176 4697   1.361   6.639   0.304
    1STR   H177 4698   1.466   6.666   0.291
    1STR   H178 4699   1.358   6.556   0.374
    1STR   O179 4700   1.307   6.605   0.174
    1STR   C180 4701   1.362   6.488   0.119
    1STR   H181 4702   1.470   6.491   0.137
    1STR   C182 4703   1.295   6.375   0.200
    1STR   H183 4704   1.199   6.404   0.242
    1STR   H184 4705   1.358   6.347   0.285
    1STR   H185 4706   1.280   6.284   0.141
    1STR   C186 4707   1.346   6.470   9.284
    1STR   H187 4708   1.398   6.376   9.271
    1STR   H188 4709   1.249   6.439   9.250
    1STR   O189 4710   1.418   6.553   9.190
    1STR   C190 4711   1.355   6.654   9.112
    1STR   H191 4712   1.252   6.629   9.087
    1STR   C192 4713   1.368   6.776   9.202
    1STR   H193 4714   1.464   6.771   9.253
    1STR   H194 4715   1.298   6.775   9.284
    1STR   H195 4716   1.360   6.870   9.148
    1STR   C196 4717   1.424   6.671   8.974
    1STR   H197 4718   1.529   6.698   8.988
    1STR   H198 4719   1.422   6.573   8.929
    1STR   O199 4720   1.359   6.765   8.886
    1STR   C200 4721   1.394   6.762   8.746
    1STR   H201 4722   1.497   6.735   8.756
    1STR   C202 4723   1.333   6.646   8.664
    1STR   H203 4724   1.239   6.673   8.617
    1STR   H204 4725   1.314   6.556   8.723
    1STR   H205 4726   1.400   6.619   8.582
    1STR   C206 4727   1.369   6.895   8.661
    1STR   H207 4728   1.423   6.892   8.567
    1STR   H208 4729   1.270   6.894   8.617
    1STR   O209 4730   1.390   7.020   8.730
    1STR   C210 4731   1.365   7.143   8.658
    1STR   H211 4732   1.438   7.148   8.583
    1STR   C212 4733   1.232   7.154   8.581
    1STR   H213 4734   1.148   7.164   8.647
    1STR   H214 4735   1.216   7.072   8.512
    1STR   H215 4736   1.230   7.244   8.519
    1STR   C216 4737   1.395   7.273   8.737
    1STR   H217 4738   1.325   7.290   8.816
    1STR   H218 4739   1.495   7.270   8.782
    1STR   O219 4740   1.383   7.379   8.644
    1STR   C220 4741   1.390   7.511   8.693
    1STR   H221 4742   1.465   7.518   8.773
    1STR   C222 4743   1.435   7.599   8.576
    1STR   H223 4744   1.365   7.591   8.492
    1STR   H224 4745   1.533   7.570   8.539
    1STR   H225 4746   1.441   7.704   8.605
    1STR   C226 4747   1.250   7.554   8.740
    1STR   H227 4748   1.230   7.659   8.721
    1STR   H228 4749   1.174   7.497   8.685
    1STR   O229 4750   1.235   7.527   8.877
    1STR   C230 4751   1.302   7.622   8.959
    1STR   H231 4752   1.373   7.683   8.903
    1STR   C232 4753   1.193   7.712   9.018
    1STR   H233 4754   1.120   7.653   9.074
    1STR   H234 4755   1.140   7.766   8.940
    1STR   H235 4756   1.235   7.786   9.086
    1STR   C236 4757   1.380   7.546   9.065
    1STR   H237 4758   1.481   7.585   9.072
    1STR   H238 4759   1.332   7.561   9.160
    1STR   O239 4760   1.389   7.407   9.041
    1STR   C240 4761   1.410   7.317   9.152
    1STR   H241 4762   1.329   7.285   9.214
    1STR   C242 4763   1.442   7.184   9.083
    1STR   H243 4764   1.395   7.176   8.987
    1STR   H244 4765   1.407   7.100   9.141
    1STR   H245 4766   1.545   7.170   9.060
    1STR   C246 4767   1.499   7.377   9.260
    1STR   H247 4768   1.561   7.311   9.316
    1STR   H248 4769   1.564   7.437   9.207
    1STR   O249 4770   1.438   7.469   0.027
    1STR   C250 4771   1.490   7.468   0.158
    1STR   H251 4772   1.597   7.485   0.154
    1STR   C252 4773   1.424   7.588   0.228
    1STR   H253 4774   1.329   7.613   0.181
    1STR   H254 4775   1.490   7.675   0.224
    1STR   H255 4776   1.401   7.574   0.332
    1STR   C256 4777   1.467   7.335   0.233
    1STR   H257 4778   1.550   7.314   0.299
    1STR   H258 4779   1.386   7.350   0.299
    1STR   O259 4780   1.422   7.224   0.158
    1STR   C260 4781   1.496   7.107   0.183
    1STR   H261 4782   1.596   7.135   0.190
    1STR   C262 4783   1.478   7.050   0.321
    1STR   H263 4784   1.509   6.946   0.326
    1STR   H264 4785   1.375   7.059   0.348
    1STR   H265 4786   1.539   7.103   0.394
    1STR   C266 4787   1.509   7.018   0.062
    1STR   H267 4788   1.555   6.922   0.086
    1STR   H268 4789   1.410   6.999   0.020
    1STR   O269 4790   1.585   7.102   9.297
    1STR   C270 4791   1.707   7.069   9.237
    1STR   H271 4792   1.782   7.031   9.303
    1STR   C272 4793   1.669   6.946   9.155
    1STR   H273 4794   1.595   6.962   9.077
    1STR   H274 4795   1.639   6.864   9.217
    1STR   H275 4796   1.757   6.907   9.114
    1STR   C276 4797   1.777   7.191   9.164
    1STR   H277 4798   1.884   7.173   9.161
    1STR   H278 4799   1.743   7.188   9.064
    1STR   O279 4800   1.757   7.329   9.208
    1STR   C280 4801   1.777   7.438   9.113
    1STR   H281 4802   1.882   7.432   9.087
    1STR   C282 4803   1.688   7.417   8.988
    1STR   H283 4804   1.601   7.364   9.012
    1STR   H284 4805   1.727   7.351   8.913
    1STR   H285 4806   1.655   7.508   8.940
    1STR   C286 4807   1.757   7.589   9.160
    1STR   H287 4808   1.849   7.624   9.205
    1STR   H288 4809   1.753   7.651   9.071
    1STR   O289 4810   1.649   7.629   9.248
    1STR   C290 4811   1.586   7.757   9.222
    1STR   H291 4812   1.576   7.772   9.115
    1STR   C292 4813   1.446   7.777   9.284
    1STR   H293 4814   1.451   7.807   0.068
    1STR   H294 4815   1.385   7.690   9.292
    1STR   H295 4816   1.390   7.855   9.234
    1STR   C296 4817   1.669   7.869   9.279
    1STR   H297 4818   1.763   7.864   9.226
    1STR   H298 4819   1.622   7.964   9.253
    1STR   O299 4820   1.681   7.848   0.100
    1STR   C300 4821   1.669   7.965   0.178
    1STR   H301 4822   1.711   8.043   0.116
    1STR   C302 4823   1.524   8.001   0.212
    1STR   H303 4824   1.477   7.920   0.268
    1STR   H304 4825   1.465   8.019   0.122
    1STR   H305 4826   1.519   8.090   0.273
    1STR   C306 4827   1.752   7.955   0.307
    1STR   H307 4828   1.859   7.957   0.286
    1STR   H308 4829   1.736   8.041   0.370
    1STR   O309 4830   1.712   7.850   0.392
    1STR    H1R 4831   1.916   7.796   0.400
    1STR    H1S 4832   1.877   7.650   0.591
    1STR    H1T 4833   1.707   7.701   0.597
    1STR    H1U 4834   1.834   7.815   0.620
    1STR    H1V 4835   1.710   7.669   0.242
    1STR    H1W 4836   1.764   7.552   0.351
    1STR    H1X 4837   1.764   7.456   0.063
    1STR    H1Y 4838   2.074   7.351   0.012
    1STR    H1Z 4839   2.166   7.139   0.056
    1STR    H20 4840   2.024   6.904   0.299
    1STR    H21 4841   2.027   6.847   0.141
    1STR    H22 4842   2.161   6.948   0.202
    1STR    H23 4843   1.721   6.966   0.132
    1STR    H27 4844   1.730   7.255   0.232
    1STR    H28 4845   0.750   6.980   0.614
    1STR    H29 4846   0.614   7.176   0.581
    1STR    H2A 4847   0.329   7.183   0.413
    1STR    H2B 4848   0.428   7.284   0.311
    1STR    H2C 4849   0.443   7.284   0.481
    1STR   BCK1 4850   0.487   6.497   2.495
    1STR    O03 4851   0.470   6.572   2.402
    1STR    N04 4852   0.546   6.376   2.485
    1STR    C05 4853   0.625   6.327   2.380
    1STR    C06 4854   0.648   6.403   2.264
    1STR    C07 4855   0.754   6.378   2.176
    1STR    N08 4856   0.772   6.475   2.078
    1STR    C09 4857   0.812   6.456   1.953
    1STR    O0A 4858   0.875   6.360   1.913
    1STR    O0B 4859   0.759   6.548   1.871
    1STR    C0C 4860   0.779   6.688   1.883
    1STR    C0D 4861   0.811   6.718   1.736
    1STR    C0E 4862   0.654   6.770   1.917
    1STR    O0F 4863   0.605   6.790   2.051
    1STR    C0G 4864   0.481   6.864   2.045
    1STR    C0H 4865   0.376   6.759   2.022
    1STR    C0I 4866   0.409   6.933   2.161
    1STR    O0J 4867   0.450   7.017   2.265
    1STR    C0K 4868   1.688   6.868   3.035
    1STR    C0M 4869   1.543   6.833   3.076
    1STR    C0N 4870   1.743   6.767   2.933
    1STR    O0O 4871   1.806   6.646   2.973
    1STR    C0P 4872   1.739   6.540   3.018
    1STR    O0Q 4873   1.639   6.544   3.088
    1STR    N0R 4874   1.796   6.423   2.992
    1STR    C0S 4875   1.853   6.379   2.873
    1STR    C0T 4876   1.838   6.242   2.845
    1STR    C0U 4877   1.846   6.196   2.712
    1STR    C0V 4878   1.869   6.286   2.607
    1STR    C0W 4879   1.854   6.228   2.468
    1STR    C0X 4880   1.896   6.423   2.634
    1STR    N0Y 4881   1.920   6.514   2.531
    1STR   BCK2 4882   1.899   6.646   2.517
    1STR    O10 4883   1.943   6.705   2.420
    1STR    C13 4884   1.894   6.465   2.769
    1STR    C14 4885   0.831   6.262   2.194
    1STR    C15 4886   0.801   6.175   2.302
    1STR    C16 4887   0.701   6.208   2.397
    1STR    C17 4888   0.679   6.116   2.515
    1STR    H1B 4889   0.529   6.317   2.564
    1STR    H1C 4890   0.589   6.488   2.239
    1STR    H1D 4891   0.715   6.558   2.088
    1STR    H1E 4892   0.863   6.710   1.948
    1STR    H1F 4893   0.721   6.715   1.675
    1STR    H1G 4894   0.857   6.816   1.722
    1STR    H1H 4895   0.875   6.641   1.694
    1STR    H1I 4896   0.577   6.726   1.856
    1STR    H1J 4897   0.668   6.869   1.875
    1STR    H1K 4898   0.485   6.935   1.964
    1STR    H1M 4899   0.380   6.690   2.107
    1STR    H1N 4900   0.390   6.702   1.934
    1STR    H1O 4901   0.276   6.800   2.015
    1STR    H1P 4902   0.326   6.986   2.116
    1STR    H1Q 4903   0.371   6.854   2.224
    1STR   C010 4904   0.538   7.118   2.242
    1STR   H011 4905   0.629   7.076   2.212
    1STR   C012 4906   0.507   7.184   2.114
    1STR   H013 4907   0.400   7.195   2.106
    1STR   H014 4908   0.543   7.128   2.028
    1STR   H015 4909   0.558   7.277   2.110
    1STR   C016 4910   0.549   7.201   2.371
    1STR   H017 4911   0.636   7.264   2.365
    1STR   H018 4912   0.462   7.265   2.374
    1STR   O019 4913   0.561   7.130   2.496
    1STR   C020 4914   0.564   7.217   2.610
    1STR   H021 4915   0.631   7.300   2.588
    1STR   C022 4916   0.424   7.269   2.635
    1STR   H023 4917   0.353   7.188   2.637
    1STR   H024 4918   0.398   7.339   2.557
    1STR   H025 4919   0.415   7.322   2.730
    1STR   C026 4920   0.612   7.157   2.742
    1STR   H027 4921   0.535   7.095   2.788
    1STR   H028 4922   0.696   7.090   2.733
    1STR   O029 4923   0.641   7.270   2.826
    1STR   C030 4924   0.762   7.269   2.899
    1STR   H031 4925   0.846   7.251   2.834
    1STR   C032 4926   0.780   7.412   2.950
    1STR   H033 4927   0.697   7.441   3.014
    1STR   H034 4928   0.782   7.482   2.866
    1STR   H035 4929   0.873   7.424   3.005
    1STR   C036 4930   0.770   7.167   3.013
    1STR   H037 4931   0.875   7.152   3.038
    1STR   H038 4932   0.724   7.209   3.102
    1STR   O039 4933   0.703   7.044   2.981
    1STR   C040 4934   0.783   6.929   2.995
    1STR   H041 4935   0.869   6.951   2.934
    1STR   C042 4936   0.822   6.900   3.142
    1STR   H043 4937   0.737   6.860   3.198
    1STR   H044 4938   0.860   6.987   3.194
    1STR   H045 4939   0.900   6.823   3.145
    1STR   C046 4940   0.719   6.804   2.934
    1STR   H047 4941   0.632   6.772   2.991
    1STR   H048 4942   0.689   6.825   2.832
    1STR   O049 4943   0.826   6.710   2.935
    1STR   C050 4944   0.801   6.571   2.921
    1STR   H051 4945   0.896   6.524   2.896
    1STR   C052 4946   0.752   6.515   3.055
    1STR   H053 4947   0.655   6.557   3.083
    1STR   H054 4948   0.823   6.540   3.134
    1STR   H055 4949   0.742   6.407   3.051
    1STR   C056 4950   0.706   6.539   2.806
    1STR   H057 4951   0.692   6.432   2.795
    1STR   H058 4952   0.609   6.574   2.841
    1STR   O059 4953   0.736   6.609   2.685
    1STR   C060 4954   0.824   6.556   2.586
    1STR   H061 4955   0.918   6.603   2.597
    1STR   C062 4956   0.849   6.407   2.597
    1STR   H063 4957   0.757   6.355   2.614
    1STR   H064 4958   0.915   6.384   2.681
    1STR   H065 4959   0.893   6.366   2.506
    1STR   C066 4960   0.794   6.610   2.446
    1STR   H067 4961   0.841   6.557   2.365
    1STR   H068 4962   0.694   6.588   2.425
    1STR   O069 4963   0.819   6.750   2.433
    1STR   C070 4964   0.756   6.808   2.319
    1STR   H071 4965   0.761   6.743   2.232
    1STR   C072 4966   0.616   6.815   2.361
    1STR   H073 4967   0.594   6.916   2.388
    1STR   H074 4968   0.597   6.762   2.452
    1STR   H075 4969   0.550   6.773   2.287
    1STR   C076 4970   0.807   6.950   2.283
    1STR   H077 4971   0.762   7.029   2.341
    1STR   H078 4972   0.895   6.961   2.338
    1STR   O079 4973   0.808   6.973   2.140
    1STR   C080 4974   0.871   7.084   2.072
    1STR   H081 4975   0.977   7.078   2.080
    1STR   C082 4976   0.848   7.057   1.924
    1STR   H083 4977   0.743   7.069   1.898
    1STR   H084 4978   0.879   6.955   1.901
    1STR   H085 4979   0.907   7.124   1.862
    1STR   C086 4980   0.837   7.232   2.099
    1STR   H087 4981   0.904   7.299   2.046
    1STR   H088 4982   0.745   7.249   2.047
    1STR   O089 4983   0.821   7.277   2.233
    1STR   C090 4984   0.925   7.354   2.294
    1STR   H091 4985   1.016   7.321   2.253
    1STR   C092 4986   0.954   7.502   2.257
    1STR   H093 4987   0.890   7.576   2.304
    1STR   H094 4988   0.951   7.516   2.150
    1STR   H095 4989   1.054   7.529   2.288
    1STR   C096 4990   0.913   7.322   2.445
    1STR   H097 4991   0.983   7.382   2.504
    1STR   H098 4992   0.815   7.350   2.480
    1STR   O099 4993   0.935   7.181   2.464
    1STR   C100 4994   0.922   7.136   2.598
    1STR   H101 4995   0.847   7.199   2.641
    1STR   C102 4996   0.875   6.990   2.600
    1STR   H103 4997   0.945   6.923   2.550
    1STR   H104 4998   0.777   6.978   2.555
    1STR   H105 4999   0.868   6.951   2.702
    1STR   C106 5000   1.054   7.144   2.675
    1STR   H107 5001   1.117   7.068   2.633
    1STR   H108 5002   1.101   7.242   2.664
    1STR   O109 5003   1.038   7.111   2.812
    1STR   C110 5004   1.161   7.082   2.877
    1STR   H111 5005   1.236   7.048   2.806
    1STR   C112 5006   1.208   7.211   2.944
    1STR   H113 5007   1.134   7.247   3.015
    1STR   H114 5008   1.223   7.289   2.870
    1STR   H115 5009   1.302   7.195   2.996
    1STR   C116 5010   1.138   6.966   2.976
    1STR   H117 5011   1.229   6.932   3.024
    1STR   H118 5012   1.072   7.000   3.055
    1STR   O119 5013   1.071   6.862   2.907
    1STR   C120 5014   1.145   6.749   2.865
    1STR   H121 5015   1.244   6.780   2.844
    1STR   C122 5016   1.145   6.647   2.979
    1STR   H123 5017   1.045   6.635   3.022
    1STR   H124 5018   1.210   6.679   3.060
    1STR   H125 5019   1.178   6.549   2.945
    1STR   C126 5020   1.083   6.701   2.733
    1STR   H127 5021   0.977   6.709   2.751
    1STR   H128 5022   1.100   6.773   2.653
    1STR   O129 5023   1.117   6.565   2.693
    1STR   C130 5024   1.171   6.534   2.562
    1STR   H131 5025   1.270   6.571   2.552
    1STR   C132 5026   1.190   6.382   2.558
    1STR   H133 5027   1.097   6.327   2.556
    1STR   H134 5028   1.243   6.348   2.646
    1STR   H135 5029   1.246   6.351   2.470
    1STR   C136 5030   1.105   6.578   2.429
    1STR   H137 5031   1.174   6.551   2.352
    1STR   H138 5032   1.025   6.510   2.404
    1STR   O139 5033   1.071   6.715   2.412
    1STR   C140 5034   1.098   6.775   2.284
    1STR   H141 5035   1.195   6.755   2.261
    1STR   C142 5036   1.025   6.715   2.164
    1STR   H143 5037   0.939   6.656   2.194
    1STR   H144 5038   1.087   6.646   2.109
    1STR   H145 5039   0.994   6.791   2.093
    1STR   C146 5040   1.113   6.928   2.288
    1STR   H147 5041   1.042   6.952   2.214
    1STR   H148 5042   1.086   6.965   2.386
    1STR   O149 5043   1.221   7.008   2.238
    1STR   C150 5044   1.183   7.146   2.246
    1STR   H151 5045   1.077   7.145   2.239
    1STR   C152 5046   1.207   7.207   2.383
    1STR   H153 5047   1.191   7.136   2.461
    1STR   H154 5048   1.154   7.298   2.404
    1STR   H155 5049   1.305   7.242   2.390
    1STR   C156 5050   1.236   7.239   2.136
    1STR   H157 5051   1.265   7.334   2.180
    1STR   H158 5052   1.323   7.195   2.091
    1STR   O159 5053   1.133   7.267   2.043
    1STR   C160 5054   1.162   7.343   1.927
    1STR   H161 5055   1.065   7.370   1.885
    1STR   C162 5056   1.235   7.475   1.958
    1STR   H163 5057   1.338   7.459   1.990
    1STR   H164 5058   1.183   7.530   2.036
    1STR   H165 5059   1.238   7.539   1.870
    1STR   C166 5060   1.231   7.255   1.821
    1STR   H167 5061   1.246   7.311   1.729
    1STR   H168 5062   1.329   7.225   1.856
    1STR   O169 5063   1.150   7.142   1.794
    1STR   C170 5064   1.219   7.017   1.800
    1STR   H171 5065   1.317   7.023   1.754
    1STR   C172 5066   1.227   6.971   1.945
    1STR   H173 5067   1.320   6.994   1.994
    1STR   H174 5068   1.211   6.864   1.954
    1STR   H175 5069   1.149   7.016   2.003
    1STR   C176 5070   1.136   6.915   1.723
    1STR   H177 5071   1.052   6.884   1.785
    1STR   H178 5072   1.096   6.962   1.633
    1STR   O179 5073   1.218   6.804   1.691
    1STR   C180 5074   1.147   6.689   1.646
    1STR   H181 5075   1.076   6.663   1.724
    1STR   C182 5076   1.078   6.722   1.512
    1STR   H183 5077   1.152   6.757   1.439
    1STR   H184 5078   1.001   6.798   1.522
    1STR   H185 5079   1.029   6.634   1.470
    1STR   C186 5080   1.239   6.567   1.632
    1STR   H187 5081   1.191   6.495   1.566
    1STR   H188 5082   1.333   6.595   1.586
    1STR   O189 5083   1.258   6.502   1.758
    1STR   C190 5084   1.356   6.398   1.767
    1STR   H191 5085   1.326   6.338   1.853
    1STR   C192 5086   1.353   6.304   1.645
    1STR   H193 5087   1.390   6.354   1.556
    1STR   H194 5088   1.252   6.268   1.626
    1STR   H195 5089   1.416   6.217   1.662
    1STR   C196 5090   1.498   6.449   1.797
    1STR   H197 5091   1.511   6.468   1.904
    1STR   H198 5092   1.572   6.372   1.776
    1STR   O199 5093   1.527   6.563   1.719
    1STR   C200 5094   1.544   6.686   1.789
    1STR   H201 5095   1.643   6.687   1.832
    1STR   C202 5096   1.540   6.794   1.682
    1STR   H203 5097   1.453   6.785   1.618
    1STR   H204 5098   1.629   6.790   1.619
    1STR   H205 5099   1.535   6.893   1.727
    1STR   C206 5100   1.440   6.715   1.901
    1STR   H207 5101   1.430   6.822   1.909
    1STR   H208 5102   1.341   6.682   1.872
    1STR   O209 5103   1.478   6.665   2.030
    1STR   C210 5104   1.374   6.665   2.127
    1STR   H211 5105   1.303   6.739   2.094
    1STR   C212 5106   1.314   6.524   2.104
    1STR   H213 5107   1.250   6.488   2.182
    1STR   H214 5108   1.391   6.449   2.089
    1STR   H215 5109   1.254   6.523   2.013
    1STR   C216 5110   1.410   6.705   2.277
    1STR   H217 5111   1.343   6.661   2.349
    1STR   H218 5112   1.493   6.658   2.317
    1STR   O219 5113   1.412   6.846   2.304
    1STR   C220 5114   1.436   6.890   2.440
    1STR   H221 5115   1.531   6.847   2.471
    1STR   C222 5116   1.450   7.042   2.448
    1STR   H223 5117   1.399   7.094   2.529
    1STR   H224 5118   1.417   7.082   2.354
    1STR   H225 5119   1.549   7.078   2.461
    1STR   C226 5120   1.322   6.862   2.536
    1STR   H227 5121   1.285   6.944   2.595
    1STR   H228 5122   1.236   6.838   2.480
    1STR   O229 5123   1.343   6.757   2.624
    1STR   C230 5124   1.455   6.759   2.705
    1STR   H231 5125   1.543   6.746   2.643
    1STR   C232 5126   1.465   6.893   2.781
    1STR   H233 5127   1.448   6.980   2.719
    1STR   H234 5128   1.566   6.906   2.812
    1STR   H235 5129   1.401   6.904   2.867
    1STR   C236 5130   1.439   6.628   2.784
    1STR   H237 5131   1.407   6.638   2.887
    1STR   H238 5132   1.362   6.565   2.742
    1STR   O239 5133   1.562   6.561   2.777
    1STR   C240 5134   1.564   6.441   2.704
    1STR   H241 5135   1.666   6.413   2.712
    1STR   C242 5136   1.494   6.330   2.784
    1STR   H243 5137   1.387   6.346   2.795
    1STR   H244 5138   1.535   6.328   2.885
    1STR   H245 5139   1.512   6.232   2.740
    1STR   C246 5140   1.546   6.446   2.551
    1STR   H247 5141   1.577   6.348   2.518
    1STR   H248 5142   1.441   6.455   2.525
    1STR   O249 5143   1.617   6.548   2.478
    1STR   C250 5144   1.670   6.515   2.347
    1STR   H251 5145   1.761   6.462   2.363
    1STR   C252 5146   1.581   6.412   2.273
    1STR   H253 5147   1.476   6.434   2.288
    1STR   H254 5148   1.597   6.311   2.309
    1STR   H255 5149   1.601   6.410   2.166
    1STR   C256 5150   1.715   6.635   2.254
    1STR   H257 5151   1.821   6.627   2.232
    1STR   H258 5152   1.668   6.619   2.158
    1STR   O259 5153   1.681   6.769   2.294
    1STR   C260 5154   1.716   6.877   2.205
    1STR   H261 5155   1.823   6.873   2.218
    1STR   C262 5156   1.669   6.868   2.061
    1STR   H263 5157   1.688   6.773   2.015
    1STR   H264 5158   1.714   6.945   1.999
    1STR   H265 5159   1.562   6.886   2.058
    1STR   C266 5160   1.661   7.012   2.246
    1STR   H267 5161   1.554   7.010   2.231
    1STR   H268 5162   1.693   7.030   2.347
    1STR   O269 5163   1.704   7.123   2.172
    1STR   C270 5164   1.614   7.226   2.130
    1STR   H271 5165   1.684   7.298   2.091
    1STR   C272 5166   1.554   7.194   1.994
    1STR   H273 5167   1.490   7.107   1.998
    1STR   H274 5168   1.632   7.170   1.922
    1STR   H275 5169   1.502   7.282   1.955
    1STR   C276 5170   1.548   7.331   2.222
    1STR   H277 5171   1.625   7.404   2.241
    1STR   H278 5172   1.471   7.381   2.165
    1STR   O279 5173   1.503   7.308   2.355
    1STR   C280 5174   1.473   7.428   2.429
    1STR   H281 5175   1.568   7.478   2.440
    1STR   C282 5176   1.369   7.524   2.366
    1STR   H283 5177   1.270   7.481   2.364
    1STR   H284 5178   1.393   7.556   2.265
    1STR   H285 5179   1.363   7.616   2.424
    1STR   C286 5180   1.425   7.399   2.572
    1STR   H287 5181   1.382   7.487   2.619
    1STR   H288 5182   1.348   7.323   2.575
    1STR   O289 5183   1.539   7.364   2.644
    1STR   C290 5184   1.517   7.278   2.753
    1STR   H291 5185   1.421   7.226   2.751
    1STR   C292 5186   1.627   7.179   2.729
    1STR   H293 5187   1.725   7.223   2.730
    1STR   H294 5188   1.615   7.128   2.637
    1STR   H295 5189   1.623   7.104   2.805
    1STR   C296 5190   1.534   7.353   2.885
    1STR   H297 5191   1.617   7.421   2.879
    1STR   H298 5192   1.446   7.413   2.908
    1STR   O299 5193   1.558   7.260   2.989
    1STR   C300 5194   1.696   7.242   3.018
    1STR   H301 5195   1.763   7.246   2.932
    1STR   C302 5196   1.738   7.354   3.111
    1STR   H303 5197   1.679   7.351   3.203
    1STR   H304 5198   1.728   7.453   3.067
    1STR   H305 5199   1.843   7.342   3.133
    1STR   C306 5200   1.709   7.104   3.081
    1STR   H307 5201   1.804   7.094   3.134
    1STR   H308 5202   1.628   7.100   3.152
    1STR   O309 5203   1.696   7.000   2.984
    1STR    H1R 5204   1.756   6.878   3.116
    1STR    H1S 5205   1.535   6.771   3.165
    1STR    H1T 5206   1.497   6.771   3.003
    1STR    H1U 5207   1.481   6.921   3.090
    1STR    H1V 5208   1.817   6.820   2.876
    1STR    H1W 5209   1.670   6.739   2.861
    1STR    H1X 5210   1.758   6.353   3.053
    1STR    H1Y 5211   1.811   6.171   2.922
    1STR    H1Z 5212   1.829   6.092   2.691
    1STR    H20 5213   1.865   6.298   2.387
    1STR    H21 5214   1.930   6.151   2.453
    1STR    H22 5215   1.756   6.183   2.457
    1STR    H23 5216   1.975   6.478   2.455
    1STR    H27 5217   1.915   6.568   2.791
    1STR    H28 5218   0.911   6.238   2.126
    1STR    H29 5219   0.859   6.085   2.314
    1STR    H2A 5220   0.573   6.104   2.534
    1STR    H2B 5221   0.727   6.150   2.607
    1STR    H2C 5222   0.720   6.017   2.495
    1STR   BCK1 5223   0.251   6.932   4.669
    1STR    O03 5224   0.310   6.952   4.773
    1STR    N04 5225   0.171   7.021   4.614
    1STR    C05 5226   0.207   7.150   4.577
    1STR    C06 5227   0.328   7.210   4.608
    1STR    C07 5228   0.385   7.302   4.519
    1STR    N08 5229   0.512   7.350   4.520
    1STR    C09 5230   0.615   7.287   4.567
    1STR    O0A 5231   0.712   7.273   4.497
    1STR    O0B 5232   0.593   7.240   4.686
    1STR    C0C 5233   0.616   7.105   4.713
    1STR    C0D 5234   0.555   7.086   4.852
    1STR    C0E 5235   0.561   7.011   4.605
    1STR    O0F 5236   0.617   7.025   4.476
    1STR    C0G 5237   0.525   7.025   4.367
    1STR    C0H 5238   0.566   7.135   4.269
    1STR    C0I 5239   0.543   6.896   4.292
    1STR    O0J 5240   0.513   6.774   4.356
    1STR    C0K 5241   1.755   7.476   4.430
    1STR    C0M 5242   1.672   7.564   4.332
    1STR    C0N 5243   1.688   7.474   4.570
    1STR    O0O 5244   1.747   7.431   4.693
    1STR    C0P 5245   1.800   7.311   4.711
    1STR    O0Q 5246   1.850   7.239   4.626
    1STR    N0R 5247   1.805   7.267   4.837
    1STR    C0S 5248   1.737   7.290   4.956
    1STR    C0T 5249   1.680   7.410   4.998
    1STR    C0U 5250   1.618   7.418   5.125
    1STR    C0V 5251   1.618   7.308   5.215
    1STR    C0W 5252   1.560   7.325   5.354
    1STR    C0X 5253   1.672   7.185   5.173
    1STR    N0Y 5254   1.662   7.073   5.259
    1STR   BCK2 5255   1.703   6.948   5.231
    1STR    O10 5256   1.781   6.923   5.143
    1STR    C13 5257   1.724   7.180   5.041
    1STR    C14 5258   0.307   7.359   4.422
    1STR    C15 5259   0.170   7.336   4.428
    1STR    C16 5260   0.126   7.219   4.488
    1STR    C17 5261   9.319   7.161   4.443
    1STR    H1B 5262   0.088   6.983   4.571
    1STR    H1C 5263   0.379   7.173   4.691
    1STR    H1D 5264   0.534   7.431   4.465
    1STR    H1E 5265   0.722   7.090   4.715
    1STR    H1F 5266   0.454   7.116   4.862
    1STR    H1G 5267   0.546   6.982   4.878
    1STR    H1H 5268   0.609   7.142   4.927
    1STR    H1I 5269   0.457   7.016   4.594
    1STR    H1J 5270   0.570   6.913   4.645
    1STR    H1K 5271   0.422   7.042   4.396
    1STR    H1M 5272   0.670   7.125   4.240
    1STR    H1N 5273   0.553   7.235   4.309
    1STR    H1O 5274   0.506   7.133   4.180
    1STR    H1P 5275   0.482   6.899   4.205
    1STR    H1Q 5276   0.645   6.898   4.258
    1STR   C010 5277   0.584   6.664   4.299
    1STR   H011 5278   0.685   6.659   4.334
    1STR   C012 5279   0.540   6.543   4.376
    1STR   H013 5280   0.435   6.521   4.359
    1STR   H014 5281   0.560   6.559   4.481
    1STR   H015 5282   0.604   6.462   4.349
    1STR   C016 5283   0.588   6.648   4.145
    1STR   H017 5284   0.663   6.573   4.118
    1STR   H018 5285   0.492   6.606   4.117
    1STR   O019 5286   0.606   6.765   4.063
    1STR   C020 5287   0.739   6.797   4.024
    1STR   H021 5288   0.809   6.757   4.096
    1STR   C022 5289   0.768   6.728   3.890
    1STR   H023 5290   0.709   6.770   3.809
    1STR   H024 5291   0.748   6.621   3.895
    1STR   H025 5292   0.872   6.741   3.862
    1STR   C026 5293   0.759   6.951   4.022
    1STR   H027 5294   0.666   7.007   4.018
    1STR   H028 5295   0.800   6.983   4.117
    1STR   O029 5296   0.836   6.996   3.911
    1STR   C030 5297   0.939   7.089   3.943
    1STR   H031 5298   0.980   7.067   4.041
    1STR   C032 5299   1.044   7.061   3.835
    1STR   H033 5300   1.136   7.117   3.853
    1STR   H034 5301   1.006   7.088   3.737
    1STR   H035 5302   1.068   6.955   3.830
    1STR   C036 5303   0.898   7.238   3.938
    1STR   H037 5304   0.981   7.298   3.976
    1STR   H038 5305   0.887   7.265   3.834
    1STR   O039 5306   0.781   7.274   4.011
    1STR   C040 5307   0.735   7.406   3.979
    1STR   H041 5308   0.819   7.472   3.958
    1STR   C042 5309   0.652   7.389   3.853
    1STR   H043 5310   0.565   7.327   3.876
    1STR   H044 5311   0.703   7.340   3.770
    1STR   H045 5312   0.620   7.486   3.817
    1STR   C046 5313   0.649   7.475   4.090
    1STR   H047 5314   0.576   7.541   4.043
    1STR   H048 5315   0.589   7.403   4.145
    1STR   O049 5316   0.725   7.562   4.175
    1STR   C050 5317   0.751   7.509   4.305
    1STR   H051 5318   0.656   7.480   4.350
    1STR   C052 5319   0.838   7.388   4.277
    1STR   H053 5320   0.911   7.406   4.199
    1STR   H054 5321   0.780   7.302   4.248
    1STR   H055 5322   0.887   7.359   4.367
    1STR   C056 5323   0.819   7.610   4.402
    1STR   H057 5324   0.921   7.622   4.368
    1STR   H058 5325   0.771   7.707   4.389
    1STR   O059 5326   0.813   7.575   4.543
    1STR   C060 5327   0.907   7.640   4.631
    1STR   H061 5328   0.990   7.620   4.569
    1STR   C062 5329   0.907   7.794   4.626
    1STR   H063 5330   0.816   7.836   4.589
    1STR   H064 5331   0.986   7.830   4.559
    1STR   H065 5332   0.924   7.839   4.724
    1STR   C066 5333   0.966   7.578   4.766
    1STR   H067 5334   1.051   7.519   4.736
    1STR   H068 5335   1.009   7.658   4.824
    1STR   O069 5336   0.891   7.494   4.857
    1STR   C070 5337   0.959   7.432   4.970
    1STR   H071 5338   1.057   7.405   4.936
    1STR   C072 5339   0.983   7.542   5.075
    1STR   H073 5340   0.889   7.585   5.108
    1STR   H074 5341   1.045   7.623   5.037
    1STR   H075 5342   1.033   7.502   5.163
    1STR   C076 5343   0.896   7.306   5.045
    1STR   H077 5344   0.967   7.279   5.122
    1STR   H078 5345   0.815   7.347   5.102
    1STR   O079 5346   0.833   7.186   4.988
    1STR   C080 5347   0.898   7.054   4.983
    1STR   H081 5348   0.973   7.074   4.910
    1STR   C082 5349   0.981   7.020   5.108
    1STR   H083 5350   0.969   7.089   5.190
    1STR   H084 5351   1.088   7.013   5.090
    1STR   H085 5352   0.957   6.922   5.147
    1STR   C086 5353   0.801   6.928   4.949
    1STR   H087 5354   0.816   6.842   5.013
    1STR   H088 5355   0.717   6.975   4.992
    1STR   O089 5356   0.740   6.881   4.822
    1STR   C090 5357   0.773   6.765   4.739
    1STR   H091 5358   0.873   6.729   4.742
    1STR   C092 5359   0.700   6.648   4.799
    1STR   H093 5360   0.605   6.677   4.842
    1STR   H094 5361   0.758   6.611   4.883
    1STR   H095 5362   0.689   6.571   4.724
    1STR   C096 5363   0.767   6.789   4.583
    1STR   H097 5364   0.674   6.758   4.536
    1STR   H098 5365   0.775   6.895   4.569
    1STR   O099 5366   0.874   6.738   4.503
    1STR   C100 5367   0.896   6.793   4.370
    1STR   H101 5368   0.806   6.798   4.316
    1STR   C102 5369   0.922   6.943   4.357
    1STR   H103 5370   0.833   7.003   4.375
    1STR   H104 5371   0.956   6.969   4.257
    1STR   H105 5372   0.997   6.982   4.422
    1STR   C106 5373   0.981   6.698   4.281
    1STR   H107 5374   1.008   6.753   4.192
    1STR   H108 5375   1.074   6.667   4.325
    1STR   O109 5376   0.907   6.583   4.243
    1STR   C110 5377   0.974   6.483   4.164
    1STR   H111 5378   0.893   6.438   4.107
    1STR   C112 5379   1.074   6.538   4.061
    1STR   H113 5380   1.163   6.574   4.112
    1STR   H114 5381   1.030   6.619   4.003
    1STR   H115 5382   1.104   6.460   3.992
    1STR   C116 5383   1.034   6.369   4.248
    1STR   H117 5384   0.956   6.325   4.305
    1STR   H118 5385   1.072   6.290   4.183
    1STR   O119 5386   1.136   6.403   4.340
    1STR   C120 5387   1.105   6.390   4.479
    1STR   H121 5388   1.193   6.430   4.520
    1STR   C122 5389   1.001   6.489   4.526
    1STR   H123 5390   0.909   6.488   4.469
    1STR   H124 5391   1.046   6.587   4.516
    1STR   H125 5392   0.976   6.483   4.631
    1STR   C126 5393   1.112   6.253   4.548
    1STR   H127 5394   1.019   6.197   4.544
    1STR   H128 5395   1.185   6.192   4.495
    1STR   O129 5396   1.162   6.268   4.682
    1STR   C130 5397   1.066   6.284   4.787
    1STR   H131 5398   0.972   6.310   4.745
    1STR   C132 5399   1.056   6.148   4.857
    1STR   H133 5400   1.152   6.117   4.896
    1STR   H134 5401   1.021   6.071   4.788
    1STR   H135 5402   0.985   6.152   4.940
    1STR   C136 5403   1.100   6.398   4.885
    1STR   H137 5404   1.177   6.362   4.951
    1STR   H138 5405   1.136   6.483   4.829
    1STR   O139 5406   0.985   6.448   4.954
    1STR   C140 5407   0.996   6.555   5.049
    1STR   H141 5408   0.892   6.586   5.063
    1STR   C142 5409   1.037   6.494   5.184
    1STR   H143 5410   1.131   6.439   5.180
    1STR   H144 5411   0.962   6.423   5.217
    1STR   H145 5412   1.047   6.571   5.261
    1STR   C146 5413   1.072   6.685   5.008
    1STR   H147 5414   1.086   6.748   5.096
    1STR   H148 5415   1.172   6.661   4.977
    1STR   O149 5416   0.999   6.761   4.911
    1STR   C150 5417   1.067   6.851   4.818
    1STR   H151 5418   1.130   6.905   4.887
    1STR   C152 5419   1.139   6.744   4.739
    1STR   H153 5420   1.227   6.708   4.790
    1STR   H154 5421   1.172   6.777   4.644
    1STR   H155 5422   1.076   6.659   4.719
    1STR   C156 5423   0.990   6.952   4.712
    1STR   H157 5424   0.981   6.901   4.618
    1STR   H158 5425   0.894   6.985   4.734
    1STR   O159 5426   1.028   7.091   4.687
    1STR   C160 5427   0.958   7.183   4.603
    1STR   H161 5428   0.882   7.131   4.546
    1STR   C162 5429   0.904   7.281   4.699
    1STR   H163 5430   0.991   7.321   4.747
    1STR   H164 5431   0.836   7.245   4.773
    1STR   H165 5432   0.858   7.366   4.650
    1STR   C166 5433   1.054   7.267   4.514
    1STR   H167 5434   1.143   7.252   4.568
    1STR   H168 5435   1.050   7.224   4.416
    1STR   O169 5436   1.058   7.412   4.503
    1STR   C170 5437   1.173   7.463   4.429
    1STR   H171 5438   1.259   7.409   4.466
    1STR   C172 5439   1.160   7.439   4.278
    1STR   H173 5440   1.092   7.510   4.232
    1STR   H174 5441   1.125   7.339   4.254
    1STR   H175 5442   1.257   7.452   4.229
    1STR   C176 5443   1.206   7.614   4.444
    1STR   H177 5444   1.305   7.629   4.400
    1STR   H178 5445   1.137   7.676   4.388
    1STR   O179 5446   1.204   7.660   4.578
    1STR   C180 5447   1.288   7.769   4.610
    1STR   H181 5448   1.282   7.845   4.532
    1STR   C182 5449   1.233   7.830   4.739
    1STR   H183 5450   1.201   7.753   4.809
    1STR   H184 5451   1.146   7.892   4.719
    1STR   H185 5452   1.307   7.893   4.789
    1STR   C186 5453   1.431   7.715   4.621
    1STR   H187 5454   1.482   7.738   4.528
    1STR   H188 5455   1.489   7.764   4.698
    1STR   O189 5456   1.437   7.573   4.632
    1STR   C190 5457   1.430   7.506   4.759
    1STR   H191 5458   1.510   7.433   4.765
    1STR   C192 5459   1.444   7.595   4.884
    1STR   H193 5460   1.367   7.669   4.895
    1STR   H194 5461   1.540   7.646   4.885
    1STR   H195 5462   1.437   7.533   4.973
    1STR   C196 5463   1.303   7.423   4.756
    1STR   H197 5464   1.252   7.433   4.851
    1STR   H198 5465   1.236   7.468   4.686
    1STR   O199 5466   1.317   7.292   4.701
    1STR   C200 5467   1.321   7.183   4.791
    1STR   H201 5468   1.417   7.196   4.835
    1STR   C202 5469   1.216   7.203   4.902
    1STR   H203 5470   1.125   7.235   4.858
    1STR   H204 5471   1.248   7.268   4.983
    1STR   H205 5472   1.184   7.110   4.945
    1STR   C206 5473   1.302   7.034   4.741
    1STR   H207 5474   1.321   6.966   4.820
    1STR   H208 5475   1.206   7.021   4.746
    1STR   O209 5476   1.335   6.959   4.623
    1STR   C210 5477   1.248   6.959   4.513
    1STR   H211 5478   1.150   6.966   4.543
    1STR   C212 5479   1.278   7.081   4.450
    1STR   H213 5480   1.368   7.058   4.399
    1STR   H214 5481   1.297   7.158   4.519
    1STR   H215 5482   1.200   7.107   4.383
    1STR   C216 5483   1.257   6.851   4.404
    1STR   H217 5484   1.359   6.822   4.385
    1STR   H218 5485   1.212   6.761   4.441
    1STR   O219 5486   1.188   6.899   4.286
    1STR   C220 5487   1.262   6.957   4.178
    1STR   H221 5488   1.362   6.931   4.204
    1STR   C222 5489   1.210   6.880   4.056
    1STR   H223 5490   1.103   6.888   4.047
    1STR   H224 5491   1.233   6.774   4.062
    1STR   H225 5492   1.254   6.916   3.963
    1STR   C226 5493   1.259   7.112   4.145
    1STR   H227 5494   1.294   7.129   4.044
    1STR   H228 5495   1.155   7.143   4.145
    1STR   O229 5496   1.327   7.209   4.228
    1STR   C230 5497   1.469   7.206   4.249
    1STR   H231 5498   1.501   7.105   4.237
    1STR   C232 5499   1.517   7.296   4.135
    1STR   H233 5500   1.476   7.397   4.144
    1STR   H234 5501   1.489   7.257   4.038
    1STR   H235 5502   1.625   7.305   4.133
    1STR   C236 5503   1.510   7.250   4.396
    1STR   H237 5504   1.546   7.346   4.374
    1STR   H238 5505   1.429   7.287   4.456
    1STR   O239 5506   1.610   7.181   4.483
    1STR   C240 5507   1.570   7.089   4.587
    1STR   H241 5508   1.474   7.127   4.603
    1STR   C242 5509   1.585   6.955   4.525
    1STR   H243 5510   1.523   6.936   4.441
    1STR   H244 5511   1.558   6.885   4.599
    1STR   H245 5512   1.688   6.938   4.502
    1STR   C246 5513   1.618   7.065   4.737
    1STR   H247 5514   1.724   7.038   4.741
    1STR   H248 5515   1.603   7.157   4.789
    1STR   O249 5516   1.541   6.960   4.806
    1STR   C250 5517   1.519   6.941   4.949
    1STR   H251 5518   1.618   6.935   4.986
    1STR   C252 5519   1.448   7.046   5.036
    1STR   H253 5520   1.342   7.038   5.032
    1STR   H254 5521   1.477   7.149   5.020
    1STR   H255 5522   1.461   7.024   5.141
    1STR   C256 5523   1.437   6.812   4.988
    1STR   H257 5524   1.460   6.790   5.091
    1STR   H258 5525   1.331   6.835   4.994
    1STR   O259 5526   1.431   6.700   4.902
    1STR   C260 5527   1.457   6.566   4.946
    1STR   H261 5528   1.562   6.561   4.969
    1STR   C262 5529   1.381   6.526   5.073
    1STR   H263 5530   1.280   6.502   5.048
    1STR   H264 5531   1.375   6.602   5.150
    1STR   H265 5532   1.425   6.437   5.117
    1STR   C266 5533   1.439   6.463   4.831
    1STR   H267 5534   1.526   6.455   4.769
    1STR   H268 5535   1.426   6.363   4.871
    1STR   O269 5536   1.336   6.491   4.738
    1STR   C270 5537   1.372   6.555   4.616
    1STR   H271 5538   1.279   6.595   4.578
    1STR   C272 5539   1.452   6.678   4.634
    1STR   H273 5540   1.480   6.715   4.536
    1STR   H274 5541   1.539   6.663   4.697
    1STR   H275 5542   1.397   6.756   4.682
    1STR   C276 5543   1.435   6.468   4.507
    1STR   H277 5544   1.540   6.451   4.531
    1STR   H278 5545   1.391   6.369   4.498
    1STR   O279 5546   1.410   6.548   4.391
    1STR   C280 5547   1.499   6.540   4.281
    1STR   H281 5548   1.602   6.542   4.314
    1STR   C282 5549   1.461   6.415   4.201
    1STR   H283 5550   1.360   6.424   4.162
    1STR   H284 5551   1.462   6.325   4.263
    1STR   H285 5552   1.529   6.399   4.118
    1STR   C286 5553   1.477   6.666   4.197
    1STR   H287 5554   1.508   6.646   4.094
    1STR   H288 5555   1.370   6.685   4.192
    1STR   O289 5556   1.543   6.782   4.251
    1STR   C290 5557   1.612   6.864   4.157
    1STR   H291 5558   1.675   6.788   4.116
    1STR   C292 5559   1.527   6.917   4.039
    1STR   H293 5560   1.480   7.011   4.058
    1STR   H294 5561   1.457   6.843   4.003
    1STR   H295 5562   1.581   6.944   3.953
    1STR   C296 5563   1.706   6.966   4.227
    1STR   H297 5564   1.661   7.004   4.314
    1STR   H298 5565   1.798   6.916   4.258
    1STR   O299 5566   1.737   7.091   4.168
    1STR   C300 5567   1.843   7.152   4.242
    1STR   H301 5568   1.859   7.108   4.341
    1STR   C302 5569   1.962   7.128   4.153
    1STR   H303 5570   1.940   7.163   4.055
    1STR   H304 5571   1.992   7.025   4.141
    1STR   H305 5572   2.046   7.188   4.182
    1STR   C306 5573   1.837   7.303   4.270
    1STR   H307 5574   1.936   7.316   4.307
    1STR   H308 5575   1.821   7.364   4.182
    1STR   O309 5576   1.764   7.342   4.383
    1STR    H1R 5577   1.851   7.522   4.442
    1STR    H1S 5578   1.667   7.666   4.368
    1STR    H1T 5579   1.568   7.536   4.321
    1STR    H1U 5580   1.716   7.565   4.233
    1STR    H1V 5581   1.596   7.418   4.565
    1STR    H1W 5582   1.663   7.577   4.593
    1STR    H1X 5583   1.860   7.184   4.831
    1STR    H1Y 5584   1.688   7.496   4.933
    1STR    H1Z 5585   1.573   7.510   5.157
    1STR    H20 5586   1.475   7.258   5.367
    1STR    H21 5587   1.636   7.301   5.428
    1STR    H22 5588   1.527   7.427   5.371
    1STR    H23 5589   1.605   7.083   5.341
    1STR    H27 5590   1.756   7.088   4.996
    1STR    H28 5591   0.349   7.427   4.350
    1STR    H29 5592   0.109   7.389   4.361
    1STR    H2A 5593   0.016   7.100   4.359
    1STR    H2B 5594   9.248   7.235   4.411
    1STR    H2C 5595   9.282   7.094   4.517
    1STR   BCK1 5596   0.284   7.059   6.982
    1STR    O03 5597   0.237   7.108   6.881
    1STR    N04 5598   0.235   7.078   7.102
    1STR    C05 5599   0.293   7.030   7.217
    1STR    C06 5600   0.305   6.894   7.250
    1STR    C07 5601   0.379   6.850   7.360
    1STR    N08 5602   0.402   6.717   7.382
    1STR    C09 5603   0.322   6.615   7.355
    1STR    O0A 5604   0.205   6.627   7.326
    1STR    O0B 5605   0.376   6.494   7.370
    1STR    C0C 5606   0.510   6.465   7.337
    1STR    C0D 5607   0.557   6.346   7.420
    1STR    C0E 5608   0.520   6.450   7.181
    1STR    O0F 5609   0.596   6.535   7.100
    1STR    C0G 5610   0.552   6.667   7.089
    1STR    C0H 5611   0.624   6.740   7.199
    1STR    C0I 5612   0.614   6.729   6.966
    1STR    O0J 5613   0.583   6.696   6.832
    1STR    C0K 5614   1.363   7.735   6.727
    1STR    C0M 5615   1.398   7.861   6.644
    1STR    C0N 5616   1.325   7.784   6.868
    1STR    O0O 5617   1.324   7.700   6.983
    1STR    C0P 5618   1.416   7.609   7.018
    1STR    O0Q 5619   1.477   7.532   6.945
    1STR    N0R 5620   1.423   7.614   7.151
    1STR    C0S 5621   1.500   7.549   7.246
    1STR    C0T 5622   1.501   7.609   7.374
    1STR    C0U 5623   1.579   7.556   7.478
    1STR    C0V 5624   1.652   7.438   7.458
    1STR    C0W 5625   1.718   7.369   7.575
    1STR    C0X 5626   1.652   7.376   7.332
    1STR    N0Y 5627   1.700   7.247   7.334
    1STR   BCK2 5628   1.729   7.153   7.246
    1STR    O10 5629   1.725   7.037   7.284
    1STR    C13 5630   1.581   7.435   7.224
    1STR    C14 5631   0.440   6.947   7.439
    1STR    C15 5632   0.433   7.082   7.404
    1STR    C16 5633   0.364   7.123   7.290
    1STR    C17 5634   0.376   7.260   7.231
    1STR    H1B 5635   0.157   7.142   7.106
    1STR    H1C 5636   0.264   6.817   7.190
    1STR    H1D 5637   0.495   6.695   7.414
    1STR    H1E 5638   0.567   6.542   7.380
    1STR    H1F 5639   0.569   6.256   7.362
    1STR    H1G 5640   0.655   6.360   7.464
    1STR    H1H 5641   0.493   6.327   7.505
    1STR    H1I 5642   0.421   6.453   7.135
    1STR    H1J 5643   0.567   6.356   7.159
    1STR    H1K 5644   0.445   6.680   7.097
    1STR    H1M 5645   0.729   6.755   7.182
    1STR    H1N 5646   0.627   6.694   7.293
    1STR    H1O 5647   0.574   6.833   7.217
    1STR    H1P 5648   0.628   6.835   6.978
    1STR    H1Q 5649   0.710   6.692   6.980
    1STR   C010 5650   0.677   6.755   6.743
    1STR   H011 5651   0.777   6.754   6.781
    1STR   C012 5652   0.686   6.658   6.628
    1STR   H013 5653   0.599   6.659   6.564
    1STR   H014 5654   0.697   6.555   6.662
    1STR   H015 5655   0.775   6.683   6.572
    1STR   C016 5656   0.663   6.903   6.704
    1STR   H017 5657   0.750   6.930   6.645
    1STR   H018 5658   0.576   6.913   6.642
    1STR   O019 5659   0.657   6.997   6.812
    1STR   C020 5660   0.640   7.132   6.768
    1STR   H021 5661   0.705   7.149   6.682
    1STR   C022 5662   0.495   7.165   6.736
    1STR   H023 5663   0.446   7.207   6.823
    1STR   H024 5664   0.436   7.079   6.707
    1STR   H025 5665   0.488   7.242   6.660
    1STR   C026 5666   0.680   7.230   6.877
    1STR   H027 5667   0.612   7.223   6.962
    1STR   H028 5668   0.780   7.211   6.913
    1STR   O029 5669   0.674   7.358   6.817
    1STR   C030 5670   0.741   7.454   6.893
    1STR   H031 5671   0.830   7.411   6.937
    1STR   C032 5672   0.778   7.568   6.796
    1STR   H033 5673   0.691   7.601   6.739
    1STR   H034 5674   0.851   7.536   6.723
    1STR   H035 5675   0.820   7.654   6.848
    1STR   C036 5676   0.664   7.507   7.013
    1STR   H037 5677   0.730   7.580   7.055
    1STR   H038 5678   0.579   7.563   6.977
    1STR   O039 5679   0.624   7.414   7.115
    1STR   C040 5680   0.725   7.378   7.208
    1STR   H041 5681   0.809   7.345   7.147
    1STR   C042 5682   0.758   7.494   7.302
    1STR   H043 5683   0.667   7.537   7.344
    1STR   H044 5684   0.813   7.572   7.251
    1STR   H045 5685   0.820   7.461   7.385
    1STR   C046 5686   0.680   7.260   7.294
    1STR   H047 5687   0.634   7.291   7.386
    1STR   H048 5688   0.605   7.210   7.236
    1STR   O049 5689   0.780   7.166   7.330
    1STR   C050 5690   0.745   7.031   7.307
    1STR   H051 5691   0.656   7.015   7.363
    1STR   C052 5692   0.714   7.019   7.156
    1STR   H053 5693   0.738   7.106   7.098
    1STR   H054 5694   0.608   7.010   7.136
    1STR   H055 5695   0.769   6.940   7.112
    1STR   C056 5696   0.840   6.928   7.372
    1STR   H057 5697   0.916   6.899   7.301
    1STR   H058 5698   0.892   6.979   7.453
    1STR   O059 5699   0.767   6.814   7.425
    1STR   C060 5700   0.840   6.715   7.498
    1STR   H061 5701   0.945   6.733   7.477
    1STR   C062 5702   0.805   6.739   7.645
    1STR   H063 5703   0.700   6.722   7.662
    1STR   H064 5704   0.825   6.841   7.673
    1STR   H065 5705   0.857   6.675   7.715
    1STR   C066 5706   0.808   6.565   7.473
    1STR   H067 5707   0.877   6.497   7.523
    1STR   H068 5708   0.715   6.547   7.526
    1STR   O069 5709   0.790   6.525   7.338
    1STR   C070 5710   0.872   6.424   7.278
    1STR   H071 5711   0.974   6.431   7.306
    1STR   C072 5712   0.840   6.276   7.303
    1STR   H073 5713   0.748   6.245   7.254
    1STR   H074 5714   0.836   6.252   7.409
    1STR   H075 5715   0.919   6.214   7.260
    1STR   C076 5716   0.873   6.455   7.130
    1STR   H077 5717   0.959   6.403   7.092
    1STR   H078 5718   0.788   6.413   7.079
    1STR   O079 5719   0.878   6.597   7.113
    1STR   C080 5720   0.933   6.645   6.992
    1STR   H081 5721   1.036   6.637   7.013
    1STR   C082 5722   0.883   6.556   6.870
    1STR   H083 5723   0.776   6.544   6.865
    1STR   H084 5724   0.909   6.451   6.870
    1STR   H085 5725   0.919   6.595   6.775
    1STR   C086 5726   0.936   6.799   6.967
    1STR   H087 5727   0.983   6.809   6.870
    1STR   H088 5728   0.839   6.842   6.950
    1STR   O089 5729   0.997   6.887   7.063
    1STR   C090 5730   1.050   7.013   7.018
    1STR   H091 5731   1.157   7.000   7.008
    1STR   C092 5732   0.985   7.056   6.885
    1STR   H093 5733   0.879   7.037   6.886
    1STR   H094 5734   1.022   7.007   6.796
    1STR   H095 5735   0.996   7.162   6.866
    1STR   C096 5736   1.028   7.132   7.115
    1STR   H097 5737   1.038   7.226   7.061
    1STR   H098 5738   0.926   7.129   7.142
    1STR   O099 5739   1.097   7.150   7.239
    1STR   C100 5740   1.057   7.276   7.299
    1STR   H101 5741   0.955   7.288   7.272
    1STR   C102 5742   1.031   7.279   7.450
    1STR   H103 5743   1.108   7.238   7.511
    1STR   H104 5744   0.946   7.216   7.477
    1STR   H105 5745   1.009   7.379   7.485
    1STR   C106 5746   1.122   7.401   7.235
    1STR   H107 5747   1.165   7.465   7.311
    1STR   H108 5748   1.202   7.372   7.167
    1STR   O109 5749   1.014   7.463   7.165
    1STR   C110 5750   1.033   7.575   7.080
    1STR   H111 5751   0.934   7.606   7.049
    1STR   C112 5752   1.088   7.694   7.160
    1STR   H113 5753   1.183   7.670   7.207
    1STR   H114 5754   1.019   7.720   7.240
    1STR   H115 5755   1.101   7.781   7.097
    1STR   C116 5756   1.103   7.536   6.951
    1STR   H117 5757   1.115   7.623   6.886
    1STR   H118 5758   1.201   7.497   6.976
    1STR   O119 5759   1.034   7.438   6.876
    1STR   C120 5760   1.107   7.391   6.765
    1STR   H121 5761   1.155   7.476   6.719
    1STR   C122 5762   1.213   7.302   6.824
    1STR   H123 5763   1.218   7.210   6.767
    1STR   H124 5764   1.192   7.275   6.926
    1STR   H125 5765   1.309   7.353   6.823
    1STR   C126 5766   1.029   7.321   6.653
    1STR   H127 5767   1.024   7.213   6.664
    1STR   H128 5768   0.927   7.357   6.648
    1STR   O129 5769   1.101   7.353   6.534
    1STR   C130 5770   1.055   7.293   6.416
    1STR   H131 5771   0.955   7.264   6.439
    1STR   C132 5772   1.051   7.405   6.310
    1STR   H133 5773   1.149   7.446   6.293
    1STR   H134 5774   0.987   7.487   6.345
    1STR   H135 5775   1.012   7.371   6.214
    1STR   C136 5776   1.132   7.166   6.374
    1STR   H137 5777   1.097   7.134   6.276
    1STR   H138 5778   1.236   7.188   6.356
    1STR   O139 5779   1.115   7.061   6.470
    1STR   C140 5780   1.134   6.927   6.425
    1STR   H141 5781   1.085   6.917   6.329
    1STR   C142 5782   1.279   6.895   6.387
    1STR   H143 5783   1.345   6.892   6.472
    1STR   H144 5784   1.320   6.967   6.317
    1STR   H145 5785   1.286   6.796   6.340
    1STR   C146 5786   1.062   6.823   6.516
    1STR   H147 5787   0.955   6.844   6.511
    1STR   H148 5788   1.074   6.722   6.477
    1STR   O149 5789   1.082   6.822   6.656
    1STR   C150 5790   1.213   6.792   6.699
    1STR   H151 5791   1.268   6.742   6.620
    1STR   C152 5792   1.274   6.926   6.731
    1STR   H153 5793   1.225   6.972   6.815
    1STR   H154 5794   1.266   6.996   6.650
    1STR   H155 5795   1.376   6.917   6.763
    1STR   C156 5796   1.217   6.707   6.827
    1STR   H157 5797   1.320   6.689   6.850
    1STR   H158 5798   1.183   6.764   6.913
    1STR   O159 5799   1.153   6.582   6.814
    1STR   C160 5800   1.178   6.480   6.912
    1STR   H161 5801   1.086   6.448   6.951
    1STR   C162 5802   1.199   6.348   6.836
    1STR   H163 5803   1.300   6.327   6.803
    1STR   H164 5804   1.139   6.350   6.745
    1STR   H165 5805   1.162   6.262   6.892
    1STR   C166 5806   1.242   6.522   7.051
    1STR   H167 5807   1.322   6.456   7.069
    1STR   H168 5808   1.286   6.620   7.049
    1STR   O169 5809   1.163   6.516   7.171
    1STR   C170 5810   1.200   6.606   7.279
    1STR   H171 5811   1.306   6.628   7.281
    1STR   C172 5812   1.133   6.739   7.255
    1STR   H173 5813   1.179   6.790   7.171
    1STR   H174 5814   1.138   6.805   7.341
    1STR   H175 5815   1.027   6.724   7.237
    1STR   C176 5816   1.155   6.550   7.415
    1STR   H177 5817   1.051   6.570   7.418
    1STR   H178 5818   1.167   6.442   7.416
    1STR   O179 5819   1.206   6.609   7.533
    1STR   C180 5820   1.133   6.583   7.653
    1STR   H181 5821   1.029   6.597   7.633
    1STR   C182 5822   1.148   6.438   7.701
    1STR   H183 5823   1.250   6.418   7.733
    1STR   H184 5824   1.120   6.367   7.624
    1STR   H185 5825   1.083   6.419   7.786
    1STR   C186 5826   1.168   6.684   7.765
    1STR   H187 5827   1.161   6.634   7.861
    1STR   H188 5828   1.271   6.717   7.761
    1STR   O189 5829   1.077   6.794   7.777
    1STR   C190 5830   1.078   6.901   7.681
    1STR   H191 5831   1.009   6.884   7.602
    1STR   C192 5832   1.031   7.024   7.759
    1STR   H193 5833   1.101   7.049   7.838
    1STR   H194 5834   0.934   7.007   7.805
    1STR   H195 5835   1.020   7.109   7.692
    1STR   C196 5836   1.206   6.919   7.605
    1STR   H197 5837   1.287   6.916   7.676
    1STR   H198 5838   1.218   6.835   7.538
    1STR   O199 5839   1.209   7.036   7.525
    1STR   C200 5840   1.333   7.057   7.460
    1STR   H201 5841   1.411   7.026   7.526
    1STR   C202 5842   1.350   6.967   7.336
    1STR   H203 5843   1.269   6.983   7.265
    1STR   H204 5844   1.348   6.861   7.359
    1STR   H205 5845   1.445   6.984   7.287
    1STR   C206 5846   1.363   7.205   7.431
    1STR   H207 5847   1.469   7.217   7.414
    1STR   H208 5848   1.314   7.231   7.339
    1STR   O209 5849   1.314   7.305   7.518
    1STR   C210 5850   1.369   7.328   7.645
    1STR   H211 5851   1.476   7.333   7.635
    1STR   C212 5852   1.316   7.467   7.680
    1STR   H213 5853   1.208   7.465   7.693
    1STR   H214 5854   1.336   7.537   7.599
    1STR   H215 5855   1.362   7.506   7.771
    1STR   C216 5856   1.325   7.227   7.752
    1STR   H217 5857   1.336   7.271   7.851
    1STR   H218 5858   1.217   7.214   7.740
    1STR   O219 5859   1.383   7.096   7.755
    1STR   C220 5860   1.523   7.073   7.745
    1STR   H221 5861   1.559   7.089   7.644
    1STR   C222 5862   1.593   7.174   7.832
    1STR   H223 5863   1.693   7.143   7.859
    1STR   H224 5864   1.528   7.185   7.917
    1STR   H225 5865   1.599   7.274   7.791
    1STR   C226 5866   1.556   6.929   7.794
    1STR   H227 5867   1.663   6.913   7.797
    1STR   H228 5868   1.527   6.925   7.899
    1STR   O229 5869   1.494   6.814   7.735
    1STR   C230 5870   1.509   6.779   7.597
    1STR   H231 5871   1.428   6.819   7.542
    1STR   C232 5872   1.637   6.825   7.529
    1STR   H233 5873   1.724   6.782   7.575
    1STR   H234 5874   1.645   6.933   7.523
    1STR   H235 5875   1.635   6.792   7.426
    1STR   C236 5876   1.491   6.628   7.585
    1STR   H237 5877   1.576   6.585   7.631
    1STR   H238 5878   1.409   6.597   7.648
    1STR   O239 5879   1.468   6.583   7.451
    1STR   C240 5880   1.485   6.443   7.422
    1STR   H241 5881   1.590   6.428   7.420
    1STR   C242 5882   1.424   6.348   7.527
    1STR   H243 5883   1.469   6.250   7.522
    1STR   H244 5884   1.318   6.333   7.512
    1STR   H245 5885   1.441   6.380   7.629
    1STR   C246 5886   1.440   6.411   7.277
    1STR   H247 5887   1.336   6.383   7.276
    1STR   H248 5888   1.456   6.500   7.218
    1STR   O249 5889   1.513   6.310   7.211
    1STR   C250 5890   1.485   6.277   7.075
    1STR   H251 5891   1.551   6.193   7.059
    1STR   C252 5892   1.355   6.197   7.059
    1STR   H253 5893   1.265   6.253   7.086
    1STR   H254 5894   1.356   6.111   7.126
    1STR   H255 5895   1.346   6.158   6.958
    1STR   C256 5896   1.540   6.376   6.965
    1STR   H257 5897   1.621   6.433   7.010
    1STR   H258 5898   1.585   6.311   6.890
    1STR   O259 5899   1.454   6.467   6.894
    1STR   C260 5900   1.502   6.537   6.778
    1STR   H261 5901   1.577   6.476   6.739
    1STR   C262 5902   1.418   6.525   6.650
    1STR   H263 5903   1.312   6.533   6.663
    1STR   H264 5904   1.431   6.428   6.603
    1STR   H265 5905   1.448   6.600   6.577
    1STR   C266 5906   1.568   6.674   6.807
    1STR   H267 5907   1.653   6.687   6.740
    1STR   H268 5908   1.505   6.758   6.782
    1STR   O269 5909   1.621   6.685   6.939
    1STR   C270 5910   1.546   6.765   7.028
    1STR   H271 5911   1.442   6.741   7.016
    1STR   C272 5912   1.581   6.731   7.173
    1STR   H273 5913   1.665   6.791   7.208
    1STR   H274 5914   1.613   6.627   7.184
    1STR   H275 5915   1.498   6.749   7.240
    1STR   C276 5916   1.566   6.914   7.001
    1STR   H277 5917   1.620   6.962   7.081
    1STR   H278 5918   1.624   6.928   6.910
    1STR   O279 5919   1.437   6.968   6.991
    1STR   C280 5920   1.426   7.109   6.979
    1STR   H281 5921   1.325   7.114   6.941
    1STR   C282 5922   1.410   7.183   7.107
    1STR   H283 5923   1.492   7.167   7.175
    1STR   H284 5924   1.318   7.149   7.151
    1STR   H285 5925   1.397   7.289   7.089
    1STR   C286 5926   1.515   7.179   6.879
    1STR   H287 5927   1.522   7.286   6.897
    1STR   H288 5928   1.616   7.140   6.872
    1STR   O289 5929   1.440   7.158   6.763
    1STR   C290 5930   1.502   7.190   6.646
    1STR   H291 5931   1.574   7.268   6.666
    1STR   C292 5932   1.558   7.052   6.610
    1STR   H293 5933   1.482   6.976   6.598
    1STR   H294 5934   1.629   7.014   6.683
    1STR   H295 5935   1.606   7.051   6.516
    1STR   C296 5936   1.398   7.247   6.548
    1STR   H297 5937   1.426   7.234   6.444
    1STR   H298 5938   1.310   7.185   6.561
    1STR   O299 5939   1.354   7.379   6.580
    1STR   C300 5940   1.407   7.497   6.521
    1STR   H301 5941   1.496   7.523   6.578
    1STR   C302 5942   1.445   7.483   6.372
    1STR   H303 5943   1.360   7.453   6.312
    1STR   H304 5944   1.523   7.411   6.353
    1STR   H305 5945   1.482   7.578   6.333
    1STR   C306 5946   1.296   7.607   6.532
    1STR   H307 5947   1.315   7.687   6.460
    1STR   H308 5948   1.203   7.564   6.494
    1STR   O309 5949   1.261   7.664   6.659
    1STR    H1R 5950   1.440   7.660   6.737
    1STR    H1S 5951   1.474   7.923   6.692
    1STR    H1T 5952   1.309   7.923   6.633
    1STR    H1U 5953   1.433   7.839   6.544
    1STR    H1V 5954   1.225   7.829   6.862
    1STR    H1W 5955   1.390   7.866   6.897
    1STR    H1X 5956   1.361   7.685   7.183
    1STR    H1Y 5957   1.442   7.697   7.394
    1STR    H1Z 5958   1.578   7.603   7.575
    1STR    H20 5959   1.714   7.428   7.666
    1STR    H21 5960   1.671   7.273   7.592
    1STR    H22 5961   1.821   7.341   7.555
    1STR    H23 5962   1.701   7.206   7.426
    1STR    H27 5963   1.583   7.390   7.126
    1STR    H28 5964   0.503   6.917   7.519
    1STR    H29 5965   0.494   7.152   7.457
    1STR    H2A 5966   0.419   7.254   7.131
    1STR    H2B 5967   0.437   7.329   7.287
    1STR    H2C 5968   0.275   7.295   7.224
    1STR   BCK1 5969   2.730   0.609   0.250
    1STR    O03 5970   2.816   0.686   0.289
    1STR    N04 5971   2.687   0.603   0.123
    1STR    C05 5972   2.749   0.649   0.005
    1STR    C06 5973   2.845   0.751   0.005
    1STR    C07 5974   2.924   0.781   9.212
    1STR    N08 5975   3.033   0.865   9.224
    1STR    C09 5976   3.156   0.828   9.191
    1STR    O0A 5977   3.187   0.739   9.111
    1STR    O0B 5978   3.241   0.889   9.272
    1STR    C0C 5979   3.324   0.807   0.031
    1STR    C0D 5980   3.429   0.899   0.095
    1STR    C0E 5981   3.240   0.734   0.138
    1STR    O0F 5982   3.180   0.616   0.084
    1STR    C0G 5983   3.065   0.571   0.154
    1STR    C0H 5984   2.988   0.472   0.068
    1STR    C0I 5985   3.095   0.503   0.286
    1STR    O0J 5986   2.983   0.459   0.359
    1STR    C0K 5987   4.010   8.882   0.653
    1STR    C0M 5988   3.971   8.814   0.785
    1STR    C0N 5989   3.966   8.796   0.531
    1STR    O0O 5990   3.980   8.851   0.401
    1STR    C0P 5991   4.097   8.895   0.355
    1STR    O0Q 5992   4.200   8.907   0.420
    1STR    N0R 5993   4.088   8.926   0.227
    1STR    C0S 5994   4.152   9.029   0.157
    1STR    C0T 5995   4.144   9.038   0.018
    1STR    C0U 5996   4.139   9.163   9.275
    1STR    C0V 5997   4.146   9.281   0.030
    1STR    C0W 5998   4.092   0.088   9.284
    1STR    C0X 5999   4.197   9.269   0.161
    1STR    N0Y 6000   4.237   0.047   0.248
    1STR   BCK2 6001   4.211   0.174   0.266
    1STR    O10 6002   4.154   0.244   0.186
    1STR    C13 6003   4.194   9.143   0.224
    1STR    C14 6004   2.898   0.715   9.092
    1STR    C15 6005   2.805   0.612   9.091
    1STR    C16 6006   2.735   0.574   9.207
    1STR    C17 6007   2.655   0.445   9.201
    1STR    H1B 6008   2.609   0.543   0.104
    1STR    H1C 6009   2.867   0.799   0.098
    1STR    H1D 6010   3.027   0.942   9.288
    1STR    H1E 6011   3.375   0.736   9.285
    1STR    H1F 6012   3.382   0.974   0.158
    1STR    H1G 6013   3.499   0.841   0.155
    1STR    H1H 6014   3.485   0.950   0.017
    1STR    H1I 6015   3.165   0.803   0.178
    1STR    H1J 6016   3.302   0.703   0.223
    1STR    H1K 6017   3.007   0.659   0.173
    1STR    H1M 6018   3.002   0.484   9.281
    1STR    H1N 6019   2.885   0.478   0.090
    1STR    H1O 6020   2.995   0.369   0.101
    1STR    H1P 6021   3.135   0.410   0.253
    1STR    H1Q 6022   3.167   0.557   0.347
    1STR   C010 6023   3.020   0.391   0.478
    1STR   H011 6024   3.128   0.382   0.490
    1STR   C012 6025   2.979   0.488   0.589
    1STR   H013 6026   2.874   0.516   0.581
    1STR   H014 6027   3.034   0.582   0.579
    1STR   H015 6028   3.000   0.449   0.688
    1STR   C016 6029   2.959   0.247   0.482
    1STR   H017 6030   2.988   0.193   0.572
    1STR   H018 6031   2.851   0.255   0.480
    1STR   O019 6032   3.000   0.166   0.372
    1STR   C020 6033   2.920   0.050   0.346
    1STR   H021 6034   2.818   0.067   0.381
    1STR   C022 6035   2.921   0.036   0.194
    1STR   H023 6036   3.017   9.319   0.162
    1STR   H024 6037   2.905   0.127   0.137
    1STR   H025 6038   2.852   9.280   0.161
    1STR   C026 6039   2.973   9.234   0.395
    1STR   H027 6040   2.895   9.161   0.388
    1STR   H028 6041   3.037   9.188   0.322
    1STR   O029 6042   3.030   9.232   0.525
    1STR   C030 6043   3.142   9.144   0.536
    1STR   H031 6044   3.218   9.186   0.472
    1STR   C032 6045   3.197   9.157   0.677
    1STR   H033 6046   3.213   9.262   0.703
    1STR   H034 6047   3.292   9.104   0.688
    1STR   H035 6048   3.127   9.114   0.749
    1STR   C036 6049   3.119   8.995   0.497
    1STR   H037 6050   3.209   8.938   0.497
    1STR   H038 6051   3.074   8.952   0.583
    1STR   O039 6052   3.037   8.970   0.381
    1STR   C040 6053   3.086   8.890   0.275
    1STR   H041 6054   3.192   8.877   0.286
    1STR   C042 6055   3.039   8.746   0.289
    1STR   H043 6056   2.936   8.739   0.321
    1STR   H044 6057   3.101   8.691   0.360
    1STR   H045 6058   3.050   8.697   0.195
    1STR   C046 6059   3.054   8.947   0.132
    1STR   H047 6060   3.095   8.876   0.061
    1STR   H048 6061   2.950   8.942   0.119
    1STR   O049 6062   3.082   9.082   0.091
    1STR   C050 6063   3.047   9.114   9.275
    1STR   H051 6064   2.942   9.093   9.258
    1STR   C052 6065   3.068   9.261   9.244
    1STR   H053 6066   3.070   9.282   9.137
    1STR   H054 6067   3.164   9.292   9.283
    1STR   H055 6068   2.991   0.007   9.280
    1STR   C056 6069   3.136   9.043   9.172
    1STR   H057 6070   3.231   9.092   9.182
    1STR   H058 6071   3.155   8.938   9.190
    1STR   O059 6072   3.083   9.062   9.041
    1STR   C060 6073   3.180   9.099   8.944
    1STR   H061 6074   3.262   9.157   8.986
    1STR   C062 6075   3.236   8.973   8.879
    1STR   H063 6076   3.158   8.907   8.844
    1STR   H064 6077   3.292   8.917   8.951
    1STR   H065 6078   3.301   8.995   8.795
    1STR   C066 6079   3.112   9.190   8.845
    1STR   H067 6080   3.168   9.193   8.752
    1STR   H068 6081   3.012   9.151   8.824
    1STR   O069 6082   3.099   9.319   8.899
    1STR   C070 6083   3.202   0.086   8.860
    1STR   H071 6084   3.295   0.032   8.865
    1STR   C072 6085   3.174   0.138   8.718
    1STR   H073 6086   3.192   0.245   8.708
    1STR   H074 6087   3.071   0.123   8.689
    1STR   H075 6088   3.237   0.087   8.645
    1STR   C076 6089   3.218   0.199   8.961
    1STR   H077 6090   3.303   0.260   8.931
    1STR   H078 6091   3.138   0.267   8.954
    1STR   O079 6092   3.223   0.154   9.095
    1STR   C080 6093   3.267   0.249   9.192
    1STR   H081 6094   3.362   0.213   9.225
    1STR   C082 6095   3.282   0.395   9.141
    1STR   H083 6096   3.189   0.434   9.101
    1STR   H084 6097   3.360   0.408   9.066
    1STR   H085 6098   3.308   0.465   9.219
    1STR   C086 6099   3.176   0.253   9.316
    1STR   H087 6100   3.195   0.346   0.047
    1STR   H088 6101   3.076   0.253   9.274
    1STR   O089 6102   3.172   0.155   0.099
    1STR   C090 6103   3.278   0.143   0.191
    1STR   H091 6104   3.363   0.148   0.125
    1STR   C092 6105   3.294   0.245   0.304
    1STR   H093 6106   3.209   0.243   0.368
    1STR   H094 6107   3.314   0.346   0.270
    1STR   H095 6108   3.376   0.222   0.371
    1STR   C096 6109   3.270   0.011   0.270
    1STR   H097 6110   3.319   0.017   0.367
    1STR   H098 6111   3.169   0.003   0.296
    1STR   O099 6112   3.325   9.223   0.200
    1STR   C100 6113   3.326   9.092   0.252
    1STR   H101 6114   3.226   9.083   0.285
    1STR   C102 6115   3.350   9.006   0.127
    1STR   H103 6116   3.452   8.973   0.120
    1STR   H104 6117   3.325   9.064   0.040
    1STR   H105 6118   3.297   8.914   0.119
    1STR   C106 6119   3.426   9.046   0.361
    1STR   H107 6120   3.529   9.058   0.329
    1STR   H108 6121   3.414   9.099   0.455
    1STR   O109 6122   3.393   8.911   0.385
    1STR   C110 6123   3.491   8.811   0.395
    1STR   H111 6124   3.585   8.840   0.349
    1STR   C112 6125   3.511   8.783   0.544
    1STR   H113 6126   3.416   8.754   0.590
    1STR   H114 6127   3.547   8.872   0.596
    1STR   H115 6128   3.582   8.703   0.560
    1STR   C116 6129   3.431   8.691   0.320
    1STR   H117 6130   3.490   8.602   0.333
    1STR   H118 6131   3.331   8.669   0.358
    1STR   O119 6132   3.421   8.729   0.183
    1STR   C120 6133   3.412   8.628   0.085
    1STR   H121 6134   3.499   8.564   0.091
    1STR   C122 6135   3.292   8.538   0.107
    1STR   H123 6136   3.201   8.597   0.099
    1STR   H124 6137   3.293   8.489   0.204
    1STR   H125 6138   3.289   8.460   0.031
    1STR   C126 6139   3.409   8.695   9.266
    1STR   H127 6140   3.409   8.615   9.192
    1STR   H128 6141   3.321   8.758   9.255
    1STR   O129 6142   3.525   8.771   9.245
    1STR   C130 6143   3.547   8.844   9.123
    1STR   H131 6144   3.655   8.858   9.115
    1STR   C132 6145   3.500   8.770   8.999
    1STR   H133 6146   3.394   8.748   9.006
    1STR   H134 6147   3.550   8.675   8.990
    1STR   H135 6148   3.518   8.828   8.908
    1STR   C136 6149   3.488   8.984   9.127
    1STR   H137 6150   3.515   9.037   9.037
    1STR   H138 6151   3.381   8.972   9.128
    1STR   O139 6152   3.522   9.057   9.242
    1STR   C140 6153   3.551   9.196   9.236
    1STR   H141 6154   3.648   9.211   9.196
    1STR   C142 6155   3.452   9.271   9.148
    1STR   H143 6156   3.349   9.261   9.179
    1STR   H144 6157   3.461   9.249   9.042
    1STR   H145 6158   3.475   0.055   9.160
    1STR   C146 6159   3.551   9.250   0.059
    1STR   H147 6160   3.460   9.306   0.055
    1STR   H148 6161   3.540   9.167   0.127
    1STR   O149 6162   3.647   0.014   0.123
    1STR   C150 6163   3.592   0.071   0.245
    1STR   H151 6164   3.490   0.062   0.242
    1STR   C152 6165   3.611   9.312   0.377
    1STR   H153 6166   3.642   0.052   0.461
    1STR   H154 6167   3.675   9.225   0.370
    1STR   H155 6168   3.515   9.277   0.413
    1STR   C156 6169   3.611   0.222   0.259
    1STR   H157 6170   3.631   0.249   0.362
    1STR   H158 6171   3.694   0.225   0.195
    1STR   O159 6172   3.531   0.333   0.219
    1STR   C160 6173   3.506   0.368   0.084
    1STR   H161 6174   3.405   0.342   0.067
    1STR   C162 6175   3.505   0.520   0.073
    1STR   H163 6176   3.542   0.572   0.161
    1STR   H164 6177   3.402   0.550   0.066
    1STR   H165 6178   3.556   0.557   9.304
    1STR   C166 6179   3.590   0.292   9.303
    1STR   H167 6180   3.694   0.302   0.009
    1STR   H168 6181   3.563   0.189   9.317
    1STR   O169 6182   3.565   0.321   9.167
    1STR   C170 6183   3.647   0.248   9.075
    1STR   H171 6184   3.705   0.322   9.025
    1STR   C172 6185   3.747   0.149   9.137
    1STR   H173 6186   3.794   0.095   9.057
    1STR   H174 6187   3.706   0.079   9.206
    1STR   H175 6188   3.829   0.196   9.190
    1STR   C176 6189   3.571   0.186   8.959
    1STR   H177 6190   3.620   0.092   8.936
    1STR   H178 6191   3.470   0.161   8.986
    1STR   O179 6192   3.575   0.269   8.843
    1STR   C180 6193   3.508   0.219   8.729
    1STR   H181 6194   3.403   0.222   8.752
    1STR   C182 6195   3.527   0.325   8.620
    1STR   H183 6196   3.632   0.340   8.596
    1STR   H184 6197   3.489   0.421   8.654
    1STR   H185 6198   3.474   0.299   8.529
    1STR   C186 6199   3.544   0.075   8.685
    1STR   H187 6200   3.495   0.053   8.590
    1STR   H188 6201   3.650   0.064   8.669
    1STR   O189 6202   3.497   9.301   8.782
    1STR   C190 6203   3.542   9.166   8.780
    1STR   H191 6204   3.473   9.114   8.845
    1STR   C192 6205   3.527   9.106   8.640
    1STR   H193 6206   3.593   9.155   8.568
    1STR   H194 6207   3.425   9.118   8.604
    1STR   H195 6208   3.551   9.000   8.640
    1STR   C196 6209   3.682   9.143   8.841
    1STR   H197 6210   3.709   9.040   8.818
    1STR   H198 6211   3.750   9.206   8.787
    1STR   O199 6212   3.700   9.164   8.982
    1STR   C200 6213   3.828   9.121   9.031
    1STR   H201 6214   3.845   9.026   8.983
    1STR   C202 6215   3.934   9.222   8.988
    1STR   H203 6216   3.960   9.289   9.068
    1STR   H204 6217   3.891   9.287   8.915
    1STR   H205 6218   4.026   9.178   8.952
    1STR   C206 6219   3.857   9.096   9.180
    1STR   H207 6220   3.946   9.033   9.176
    1STR   H208 6221   3.878   9.188   9.234
    1STR   O209 6222   3.766   9.028   9.262
    1STR   C210 6223   3.821   8.975   0.061
    1STR   H211 6224   3.917   9.018   0.078
    1STR   C212 6225   3.744   9.005   0.187
    1STR   H213 6226   3.645   8.963   0.177
    1STR   H214 6227   3.738   9.113   0.200
    1STR   H215 6228   3.791   8.962   0.275
    1STR   C216 6229   3.816   8.830   0.027
    1STR   H217 6230   3.713   8.806   0.020
    1STR   H218 6231   3.863   8.821   9.250
    1STR   O219 6232   3.870   8.738   0.118
    1STR   C220 6233   3.827   8.603   0.096
    1STR   H221 6234   3.915   8.541   0.113
    1STR   C222 6235   3.733   8.582   0.213
    1STR   H223 6236   3.657   8.659   0.205
    1STR   H224 6237   3.782   8.600   0.308
    1STR   H225 6238   3.687   8.483   0.214
    1STR   C226 6239   3.768   8.553   9.277
    1STR   H227 6240   3.809   8.454   9.258
    1STR   H228 6241   3.662   8.534   9.286
    1STR   O229 6242   3.778   8.637   9.161
    1STR   C230 6243   3.829   8.585   9.038
    1STR   H231 6244   3.931   8.554   9.056
    1STR   C232 6245   3.741   8.468   8.988
    1STR   H233 6246   3.636   8.494   8.979
    1STR   H234 6247   3.742   8.382   9.055
    1STR   H235 6248   3.773   8.433   8.890
    1STR   C236 6249   3.840   8.698   8.931
    1STR   H237 6250   3.881   8.656   8.840
    1STR   H238 6251   3.743   8.738   8.905
    1STR   O239 6252   3.918   8.807   8.979
    1STR   C240 6253   4.022   8.861   8.896
    1STR   H241 6254   4.068   8.941   8.954
    1STR   C242 6255   4.129   8.753   8.881
    1STR   H243 6256   4.103   8.677   8.808
    1STR   H244 6257   4.149   8.704   8.976
    1STR   H245 6258   4.221   8.801   8.849
    1STR   C246 6259   3.982   8.921   8.757
    1STR   H247 6260   4.068   8.908   8.691
    1STR   H248 6261   3.900   8.865   8.713
    1STR   O249 6262   3.949   9.061   8.759
    1STR   C250 6263   3.982   9.138   8.643
    1STR   H251 6264   4.088   9.122   8.629
    1STR   C252 6265   3.910   9.077   8.521
    1STR   H253 6266   3.803   9.074   8.538
    1STR   H254 6267   3.944   8.976   8.499
    1STR   H255 6268   3.929   9.136   8.432
    1STR   C256 6269   3.956   9.293   8.647
    1STR   H257 6270   3.994   0.016   8.555
    1STR   H258 6271   3.850   9.309   8.641
    1STR   O259 6272   4.011   0.051   8.756
    1STR   C260 6273   3.991   0.194   8.754
    1STR   H261 6274   4.058   0.232   8.677
    1STR   C262 6275   3.850   0.235   8.717
    1STR   H263 6276   3.785   0.184   8.788
    1STR   H264 6277   3.824   0.209   8.615
    1STR   H265 6278   3.834   0.342   8.729
    1STR   C266 6279   4.028   0.272   8.884
    1STR   H267 6280   4.112   0.223   8.928
    1STR   H268 6281   4.064   0.369   8.850
    1STR   O269 6282   3.934   0.292   8.991
    1STR   C270 6283   3.941   0.421   9.056
    1STR   H271 6284   4.046   0.446   9.068
    1STR   C272 6285   3.868   0.519   8.960
    1STR   H273 6286   3.768   0.488   8.932
    1STR   H274 6287   3.920   0.530   8.866
    1STR   H275 6288   3.854   0.618   9.002
    1STR   C276 6289   3.879   0.442   9.200
    1STR   H277 6290   3.878   0.547   9.213
    1STR   H278 6291   3.773   0.431   9.195
    1STR   O279 6292   3.934   0.375   9.318
    1STR   C280 6293   3.928   0.431   0.134
    1STR   H281 6294   4.021   0.479   0.155
    1STR   C282 6295   3.819   0.538   0.155
    1STR   H283 6296   3.727   0.485   0.152
    1STR   H284 6297   3.810   0.616   0.081
    1STR   H285 6298   3.826   0.585   0.253
    1STR   C286 6299   3.898   0.317   0.237
    1STR   H287 6300   3.810   0.352   0.289
    1STR   H288 6301   3.886   0.230   0.173
    1STR   O289 6302   3.959   0.271   0.360
    1STR   C290 6303   3.903   0.143   0.404
    1STR   H291 6304   3.801   0.152   0.382
    1STR   C292 6305   3.943   0.022   0.318
    1STR   H293 6306   3.964   0.045   0.215
    1STR   H294 6307   3.869   9.264   0.315
    1STR   H295 6308   4.029   9.294   0.362
    1STR   C296 6309   3.896   0.105   0.554
    1STR   H297 6310   3.990   0.126   0.604
    1STR   H298 6311   3.820   0.166   0.605
    1STR   O299 6312   3.858   9.285   0.557
    1STR   C300 6313   3.824   9.215   0.677
    1STR   H301 6314   3.890   9.243   0.759
    1STR   C302 6315   3.680   9.249   0.716
    1STR   H303 6316   3.609   9.215   0.641
    1STR   H304 6317   3.667   0.037   0.729
    1STR   H305 6318   3.653   9.201   0.810
    1STR   C306 6319   3.837   9.061   0.652
    1STR   H307 6320   3.784   9.007   0.730
    1STR   H308 6321   3.792   9.034   0.556
    1STR   O309 6322   3.974   9.020   0.653
    1STR    H1R 6323   4.119   8.884   0.652
    1STR    H1S 6324   4.015   8.715   0.792
    1STR    H1T 6325   3.863   8.803   0.796
    1STR    H1U 6326   4.008   8.871   0.870
    1STR    H1V 6327   3.862   8.768   0.542
    1STR    H1W 6328   4.023   8.702   0.532
    1STR    H1X 6329   4.004   8.886   0.186
    1STR    H1Y 6330   4.123   8.955   9.275
    1STR    H1Z 6331   4.120   9.167   9.170
    1STR    H20 6332   3.993   0.110   0.001
    1STR    H21 6333   4.152   0.177   9.295
    1STR    H22 6334   4.086   0.079   9.177
    1STR    H23 6335   4.294   0.010   0.322
    1STR    H27 6336   4.206   9.139   0.330
    1STR    H28 6337   2.955   0.737   9.003
    1STR    H29 6338   2.796   0.559   9.000
    1STR    H2A 6339   2.717   0.359   9.180
    1STR    H2B 6340   2.576   0.449   9.128
    1STR    H2C 6341   2.607   0.424   9.294
    1STR   BCK1 6342   2.726   9.071   2.424
    1STR    O03 6343   2.768   8.978   2.492
    1STR    N04 6344   2.755   9.196   2.430
    1STR    C05 6345   2.827   9.264   2.517
    1STR    C06 6346   2.894   9.206   2.626
    1STR    C07 6347   2.938   9.284   2.731
    1STR    N08 6348   3.008   9.223   2.835
    1STR    C09 6349   3.060   9.276   2.945
    1STR    O0A 6350   3.050   0.074   2.977
    1STR    O0B 6351   3.123   9.186   3.021
    1STR    C0C 6352   3.231   9.111   2.968
    1STR    C0D 6353   3.341   9.115   3.074
    1STR    C0E 6354   3.194   8.967   2.927
    1STR    O0F 6355   3.101   8.965   2.819
    1STR    C0G 6356   3.087   8.838   2.755
    1STR    C0H 6357   2.984   8.753   2.831
    1STR    C0I 6358   3.041   8.864   2.612
    1STR    O0J 6359   3.130   8.814   2.513
    1STR    C0K 6360   4.115   0.572   1.667
    1STR    C0M 6361   4.162   0.621   1.529
    1STR    C0N 6362   4.042   0.681   1.747
    1STR    O0O 6363   4.101   0.702   1.875
    1STR    C0P 6364   4.106   0.825   1.923
    1STR    O0Q 6365   4.083   0.926   1.856
    1STR    N0R 6366   4.136   0.839   2.052
    1STR    C0S 6367   4.135   0.759   2.165
    1STR    C0T 6368   4.054   0.804   2.270
    1STR    C0U 6369   4.067   0.749   2.399
    1STR    C0V 6370   4.147   0.638   2.420
    1STR    C0W 6371   4.153   0.581   2.556
    1STR    C0X 6372   4.213   0.577   2.313
    1STR    N0Y 6373   4.261   0.448   2.312
    1STR   BCK2 6374   4.304   0.343   2.383
    1STR    O10 6375   4.346   0.252   2.314
    1STR    C13 6376   4.217   0.647   2.189
    1STR    C14 6377   2.914   0.102   2.721
    1STR    C15 6378   2.847   0.157   2.609
    1STR    C16 6379   2.807   0.080   2.503
    1STR    C17 6380   2.737   0.141   2.382
    1STR    H1B 6381   2.711   9.251   2.359
    1STR    H1C 6382   2.904   9.101   2.634
    1STR    H1D 6383   3.028   9.124   2.825
    1STR    H1E 6384   3.269   9.166   2.882
    1STR    H1F 6385   3.309   9.065   3.165
    1STR    H1G 6386   3.433   9.068   3.038
    1STR    H1H 6387   3.364   9.219   3.099
    1STR    H1I 6388   3.155   8.911   3.011
    1STR    H1J 6389   3.286   8.916   2.895
    1STR    H1K 6390   3.182   8.785   2.750
    1STR    H1M 6391   2.886   8.802   2.834
    1STR    H1N 6392   3.014   8.735   2.934
    1STR    H1O 6393   2.968   8.656   2.785
    1STR    H1P 6394   2.937   8.835   2.599
    1STR    H1Q 6395   3.045   8.971   2.593
    1STR   C010 6396   3.087   8.707   2.431
    1STR   H011 6397   3.155   8.700   2.347
    1STR   C012 6398   3.117   8.582   2.512
    1STR   H013 6399   3.053   8.571   2.598
    1STR   H014 6400   3.220   8.585   2.549
    1STR   H015 6401   3.111   8.495   2.449
    1STR   C016 6402   2.944   8.726   2.373
    1STR   H017 6403   2.871   8.670   2.430
    1STR   H018 6404   2.916   8.830   2.382
    1STR   O019 6405   2.929   8.696   2.234
    1STR   C020 6406   2.993   8.784   2.142
    1STR   H021 6407   3.060   8.845   2.200
    1STR   C022 6408   3.083   8.696   2.051
    1STR   H023 6409   3.025   8.628   1.991
    1STR   H024 6410   3.155   8.639   2.108
    1STR   H025 6411   3.140   8.751   1.978
    1STR   C026 6412   2.893   8.873   2.060
    1STR   H027 6413   2.901   8.819   1.969
    1STR   H028 6414   2.789   8.865   2.086
    1STR   O029 6415   2.921   9.009   2.015
    1STR   C030 6416   2.910   9.128   2.096
    1STR   H031 6417   2.809   9.165   2.103
    1STR   C032 6418   2.946   9.087   2.232
    1STR   H033 6419   2.888   9.007   2.269
    1STR   H034 6420   2.949   9.176   2.294
    1STR   H035 6421   3.034   9.033   2.237
    1STR   C036 6422   3.002   9.247   2.052
    1STR   H037 6423   3.100   9.235   2.094
    1STR   H038 6424   3.021   9.240   1.947
    1STR   O039 6425   2.965   0.063   2.079
    1STR   C040 6426   3.070   0.154   2.035
    1STR   H041 6427   3.170   0.114   2.053
    1STR   C042 6428   3.048   0.183   1.888
    1STR   H043 6429   2.954   0.232   1.870
    1STR   H044 6430   3.052   0.093   1.830
    1STR   H045 6431   3.125   0.250   1.849
    1STR   C046 6432   3.064   0.293   2.097
    1STR   H047 6433   3.111   0.365   2.031
    1STR   H048 6434   2.959   0.312   2.100
    1STR   O049 6435   3.122   0.323   2.221
    1STR   C050 6436   3.048   0.270   2.327
    1STR   H051 6437   2.944   0.258   2.301
    1STR   C052 6438   3.109   0.135   2.349
    1STR   H053 6439   3.210   0.145   2.386
    1STR   H054 6440   3.116   0.070   2.263
    1STR   H055 6441   3.043   0.083   2.416
    1STR   C056 6442   3.052   0.366   2.447
    1STR   H057 6443   3.129   0.441   2.441
    1STR   H058 6444   2.963   0.427   2.441
    1STR   O059 6445   3.047   0.299   2.572
    1STR   C060 6446   3.163   0.249   2.634
    1STR   H061 6447   3.231   0.275   2.558
    1STR   C062 6448   3.167   0.327   2.767
    1STR   H063 6449   3.079   0.313   2.828
    1STR   H064 6450   3.174   0.434   2.752
    1STR   H065 6451   3.250   0.296   2.830
    1STR   C066 6452   3.207   0.100   2.655
    1STR   H067 6453   3.314   0.102   2.646
    1STR   H068 6454   3.191   0.073   2.759
    1STR   O069 6455   3.161   9.312   2.573
    1STR   C070 6456   3.257   9.225   2.512
    1STR   H071 6457   3.324   9.289   2.459
    1STR   C072 6458   3.321   9.150   2.629
    1STR   H073 6459   3.243   9.097   2.681
    1STR   H074 6460   3.371   9.218   2.699
    1STR   H075 6461   3.393   9.074   2.604
    1STR   C076 6462   3.189   9.127   2.410
    1STR   H077 6463   3.209   9.027   2.443
    1STR   H078 6464   3.085   9.137   2.434
    1STR   O079 6465   3.212   9.141   2.263
    1STR   C080 6466   3.253   9.035   2.166
    1STR   H081 6467   3.333   9.086   2.123
    1STR   C082 6468   3.300   8.899   2.225
    1STR   H083 6469   3.275   8.815   2.162
    1STR   H084 6470   3.259   8.878   2.321
    1STR   H085 6471   3.406   8.888   2.234
    1STR   C086 6472   3.210   9.010   2.016
    1STR   H087 6473   3.278   8.934   1.983
    1STR   H088 6474   3.123   8.952   2.014
    1STR   O089 6475   3.200   9.107   1.909
    1STR   C090 6476   3.228   9.062   1.773
    1STR   H091 6477   3.336   9.061   1.762
    1STR   C092 6478   3.178   8.918   1.748
    1STR   H093 6479   3.240   8.843   1.796
    1STR   H094 6480   3.181   8.893   1.642
    1STR   H095 6481   3.075   8.906   1.782
    1STR   C096 6482   3.181   9.149   1.652
    1STR   H097 6483   3.253   9.136   1.572
    1STR   H098 6484   3.090   9.104   1.616
    1STR   O099 6485   3.155   9.289   1.666
    1STR   C100 6486   3.108   0.037   1.548
    1STR   H101 6487   3.055   9.287   1.486
    1STR   C102 6488   3.007   0.150   1.577
    1STR   H103 6489   2.969   0.194   1.485
    1STR   H104 6490   3.053   0.231   1.633
    1STR   H105 6491   2.921   0.116   1.632
    1STR   C106 6492   3.223   0.102   1.474
    1STR   H107 6493   3.187   0.166   1.394
    1STR   H108 6494   3.271   0.171   1.543
    1STR   O109 6495   3.308   0.002   1.420
    1STR   C110 6496   3.446   0.032   1.419
    1STR   H111 6497   3.495   9.261   1.385
    1STR   C112 6498   3.483   0.147   1.326
    1STR   H113 6499   3.421   0.235   1.342
    1STR   H114 6500   3.483   0.118   1.222
    1STR   H115 6501   3.584   0.179   1.348
    1STR   C116 6502   3.499   0.064   1.558
    1STR   H117 6503   3.606   0.063   1.552
    1STR   H118 6504   3.474   0.166   1.586
    1STR   O119 6505   3.452   9.292   1.654
    1STR   C120 6506   3.467   0.025   1.784
    1STR   H121 6507   3.550   0.093   1.787
    1STR   C122 6508   3.347   0.106   1.829
    1STR   H123 6509   3.264   0.039   1.849
    1STR   H124 6510   3.318   0.183   1.759
    1STR   H125 6511   3.364   0.151   1.925
    1STR   C126 6512   3.493   9.237   1.885
    1STR   H127 6513   3.538   9.290   1.967
    1STR   H128 6514   3.400   9.204   1.928
    1STR   O129 6515   3.574   9.128   1.844
    1STR   C130 6516   3.556   9.014   1.927
    1STR   H131 6517   3.452   8.993   1.923
    1STR   C132 6518   3.620   8.893   1.861
    1STR   H133 6519   3.727   8.894   1.876
    1STR   H134 6520   3.599   8.892   1.754
    1STR   H135 6521   3.581   8.800   1.903
    1STR   C136 6522   3.595   9.034   2.076
    1STR   H137 6523   3.565   8.945   2.127
    1STR   H138 6524   3.703   9.041   2.081
    1STR   O139 6525   3.529   9.147   2.132
    1STR   C140 6526   3.509   9.183   2.269
    1STR   H141 6527   3.408   9.210   2.265
    1STR   C142 6528   3.510   9.068   2.372
    1STR   H143 6529   3.563   8.977   2.344
    1STR   H144 6530   3.412   9.032   2.395
    1STR   H145 6531   3.546   9.097   2.468
    1STR   C146 6532   3.528   0.011   2.313
    1STR   H147 6533   3.515   0.013   2.419
    1STR   H148 6534   3.630   0.037   2.304
    1STR   O149 6535   3.436   0.115   2.267
    1STR   C150 6536   3.497   0.245   2.246
    1STR   H151 6537   3.594   0.247   2.291
    1STR   C152 6538   3.530   0.251   2.100
    1STR   H153 6539   3.556   0.154   2.060
    1STR   H154 6540   3.616   0.316   2.087
    1STR   H155 6541   3.450   0.292   2.040
    1STR   C156 6542   3.428   0.383   2.279
    1STR   H157 6543   3.504   0.460   2.272
    1STR   H158 6544   3.359   0.402   2.197
    1STR   O159 6545   3.343   0.412   2.389
    1STR   C160 6546   3.385   0.455   2.519
    1STR   H161 6547   3.294   0.476   2.574
    1STR   C162 6548   3.451   0.340   2.583
    1STR   H163 6549   3.446   0.255   2.516
    1STR   H164 6550   3.401   0.306   2.671
    1STR   H165 6551   3.551   0.365   2.620
    1STR   C166 6552   3.468   0.578   2.541
    1STR   H167 6553   3.560   0.553   2.489
    1STR   H168 6554   3.425   0.668   2.499
    1STR   O169 6555   3.512   0.591   2.678
    1STR   C170 6556   3.431   0.628   2.789
    1STR   H171 6557   3.486   0.713   2.830
    1STR   C172 6558   3.297   0.693   2.752
    1STR   H173 6559   3.226   0.627   2.703
    1STR   H174 6560   3.315   0.774   2.684
    1STR   H175 6561   3.247   0.733   2.840
    1STR   C176 6562   3.433   0.524   2.906
    1STR   H177 6563   3.513   0.551   2.976
    1STR   H178 6564   3.340   0.525   2.962
    1STR   O179 6565   3.460   0.392   2.861
    1STR   C180 6566   3.514   0.289   2.945
    1STR   H181 6567   3.615   0.318   2.974
    1STR   C182 6568   3.426   0.270   3.069
    1STR   H183 6569   3.325   0.241   3.043
    1STR   H184 6570   3.421   0.361   3.129
    1STR   H185 6571   3.467   0.191   3.133
    1STR   C186 6572   3.522   0.158   2.861
    1STR   H187 6573   3.554   0.074   2.923
    1STR   H188 6574   3.423   0.132   2.824
    1STR   O189 6575   3.614   0.177   2.754
    1STR   C190 6576   3.617   0.096   2.636
    1STR   H191 6577   3.514   0.082   2.607
    1STR   C192 6578   3.692   0.181   2.529
    1STR   H193 6579   3.765   0.245   2.572
    1STR   H194 6580   3.641   0.258   2.477
    1STR   H195 6581   3.741   0.129   2.450
    1STR   C196 6582   3.675   9.273   2.643
    1STR   H197 6583   3.763   9.261   2.705
    1STR   H198 6584   3.600   9.205   2.684
    1STR   O199 6585   3.708   9.238   2.507
    1STR   C200 6586   3.805   9.141   2.476
    1STR   H201 6587   3.901   9.176   2.511
    1STR   C202 6588   3.774   9.013   2.560
    1STR   H203 6589   3.728   9.031   2.657
    1STR   H204 6590   3.864   8.960   2.585
    1STR   H205 6591   3.710   8.943   2.507
    1STR   C206 6592   3.811   9.117   2.317
    1STR   H207 6593   3.892   9.048   2.314
    1STR   H208 6594   3.734   9.053   2.282
    1STR   O209 6595   3.862   9.203   2.211
    1STR   C210 6596   3.790   9.283   2.115
    1STR   H211 6597   3.686   9.284   2.124
    1STR   C212 6598   3.820   0.105   2.144
    1STR   H213 6599   3.925   0.116   2.130
    1STR   H214 6600   3.790   0.136   2.242
    1STR   H215 6601   3.769   0.172   2.078
    1STR   C216 6602   3.819   9.268   1.965
    1STR   H217 6603   3.924   9.286   1.943
    1STR   H218 6604   3.795   9.169   1.926
    1STR   O219 6605   3.743   0.048   1.898
    1STR   C220 6606   3.808   0.117   1.794
    1STR   H221 6607   3.905   0.140   1.833
    1STR   C222 6608   3.818   0.018   1.679
    1STR   H223 6609   3.730   9.275   1.672
    1STR   H224 6610   3.896   9.271   1.705
    1STR   H225 6611   3.843   0.063   1.584
    1STR   C226 6612   3.749   0.253   1.754
    1STR   H227 6613   3.827   0.309   1.705
    1STR   H228 6614   3.671   0.239   1.680
    1STR   O229 6615   3.696   0.329   1.862
    1STR   C230 6616   3.682   0.469   1.835
    1STR   H231 6617   3.782   0.508   1.819
    1STR   C232 6618   3.599   0.492   1.708
    1STR   H233 6619   3.502   0.442   1.715
    1STR   H234 6620   3.650   0.456   1.618
    1STR   H235 6621   3.581   0.599   1.692
    1STR   C236 6622   3.618   0.544   1.954
    1STR   H237 6623   3.597   0.647   1.925
    1STR   H238 6624   3.521   0.501   1.978
    1STR   O239 6625   3.701   0.539   2.069
    1STR   C240 6626   3.730   0.659   2.140
    1STR   H241 6627   3.804   0.624   2.212
    1STR   C242 6628   3.796   0.764   2.051
    1STR   H243 6629   3.729   0.808   1.978
    1STR   H244 6630   3.880   0.721   1.997
    1STR   H245 6631   3.835   0.847   2.110
    1STR   C246 6632   3.613   0.719   2.220
    1STR   H247 6633   3.592   0.821   2.188
    1STR   H248 6634   3.522   0.664   2.197
    1STR   O249 6635   3.630   0.715   2.362
    1STR   C250 6636   3.737   0.783   2.425
    1STR   H251 6637   3.826   0.755   2.372
    1STR   C252 6638   3.715   0.934   2.415
    1STR   H253 6639   3.620   0.961   2.461
    1STR   H254 6640   3.715   0.967   2.311
    1STR   H255 6641   3.794   0.988   2.466
    1STR   C256 6642   3.758   0.740   2.574
    1STR   H257 6643   3.837   0.801   2.619
    1STR   H258 6644   3.669   0.761   2.633
    1STR   O259 6645   3.795   0.603   2.587
    1STR   C260 6646   3.850   0.562   2.714
    1STR   H261 6647   3.931   0.629   2.742
    1STR   C262 6648   3.751   0.561   2.828
    1STR   H263 6649   3.676   0.485   2.807
    1STR   H264 6650   3.705   0.657   2.844
    1STR   H265 6651   3.799   0.530   2.920
    1STR   C266 6652   3.910   0.422   2.695
    1STR   H267 6653   3.903   0.407   2.588
    1STR   H268 6654   4.015   0.424   2.722
    1STR   O269 6655   3.848   0.312   2.764
    1STR   C270 6656   3.922   0.188   2.766
    1STR   H271 6657   4.019   0.220   2.795
    1STR   C272 6658   3.868   0.091   2.874
    1STR   H273 6659   3.764   0.071   2.872
    1STR   H274 6660   3.883   0.122   2.976
    1STR   H275 6661   3.911   9.313   2.864
    1STR   C276 6662   3.965   0.121   2.635
    1STR   H277 6663   4.039   0.044   2.655
    1STR   H278 6664   3.887   0.063   2.592
    1STR   O279 6665   4.009   0.222   2.546
    1STR   C280 6666   4.017   0.198   2.406
    1STR   H281 6667   4.119   0.204   2.381
    1STR   C282 6668   4.005   0.053   2.369
    1STR   H283 6669   3.901   0.028   2.373
    1STR   H284 6670   4.053   9.301   2.432
    1STR   H285 6671   4.048   0.036   2.271
    1STR   C286 6672   3.969   0.314   2.315
    1STR   H287 6673   3.862   0.317   2.297
    1STR   H288 6674   3.991   0.409   2.361
    1STR   O289 6675   4.051   0.301   2.199
    1STR   C290 6676   4.003   0.341   2.073
    1STR   H291 6677   3.898   0.322   2.057
    1STR   C292 6678   4.014   0.487   2.047
    1STR   H293 6679   3.987   0.544   2.135
    1STR   H294 6680   3.948   0.514   1.966
    1STR   H295 6681   4.115   0.509   2.014
    1STR   C296 6682   4.091   0.264   1.976
    1STR   H297 6683   4.196   0.286   1.995
    1STR   H298 6684   4.079   0.157   1.986
    1STR   O299 6685   4.050   0.308   1.849
    1STR   C300 6686   4.141   0.278   1.747
    1STR   H301 6687   4.236   0.325   1.772
    1STR   C302 6688   4.158   0.127   1.730
    1STR   H303 6689   4.066   0.072   1.724
    1STR   H304 6690   4.221   0.084   1.807
    1STR   H305 6691   4.204   0.106   1.635
    1STR   C306 6692   4.088   0.341   1.619
    1STR   H307 6693   4.170   0.349   1.549
    1STR   H308 6694   4.013   0.275   1.575
    1STR   O309 6695   4.025   0.466   1.644
    1STR    H1R 6696   4.201   0.540   1.727
    1STR    H1S 6697   4.079   0.624   1.458
    1STR    H1T 6698   4.239   0.555   1.488
    1STR    H1U 6699   4.205   0.721   1.532
    1STR    H1V 6700   3.938   0.652   1.764
    1STR    H1W 6701   4.037   0.772   1.687
    1STR    H1X 6702   4.152   0.938   2.073
    1STR    H1Y 6703   3.989   0.887   2.255
    1STR    H1Z 6704   4.013   0.790   2.482
    1STR    H20 6705   4.102   0.487   2.549
    1STR    H21 6706   4.257   0.564   2.578
    1STR    H22 6707   4.112   0.645   2.633
    1STR    H23 6708   4.258   0.411   2.218
    1STR    H27 6709   4.276   0.608   2.108
    1STR    H28 6710   2.941   0.169   2.799
    1STR    H29 6711   2.829   0.263   2.605
    1STR    H2A 6712   2.783   0.106   2.289
    1STR    H2B 6713   2.742   0.249   2.384
    1STR    H2C 6714   2.633   0.113   2.382
    1STR   BCK1 6715   2.816   9.169   4.928
    1STR    O03 6716   2.910   9.166   5.004
    1STR    N04 6717   2.781   9.071   4.847
    1STR    C05 6718   2.860   8.960   4.820
    1STR    C06 6719   2.899   8.948   4.687
    1STR    C07 6720   2.974   8.839   4.641
    1STR    N08 6721   3.001   8.839   4.506
    1STR    C09 6722   3.088   8.771   4.432
    1STR    O0A 6723   3.173   8.694   4.473
    1STR    O0B 6724   3.057   8.799   4.306
    1STR    C0C 6725   3.149   8.788   4.199
    1STR    C0D 6726   3.200   8.645   4.172
    1STR    C0E 6727   3.081   8.845   4.074
    1STR    O0F 6728   2.960   8.917   4.099
    1STR    C0G 6729   2.958   9.058   4.120
    1STR    C0H 6730   2.906   9.081   4.260
    1STR    C0I 6731   3.085   9.140   4.096
    1STR    O0J 6732   3.044   9.274   4.113
    1STR    C0K 6733   4.054   8.949   5.454
    1STR    C0M 6734   3.903   8.921   5.445
    1STR    C0N 6735   4.136   8.820   5.482
    1STR    O0O 6736   4.088   8.701   5.423
    1STR    C0P 6737   4.120   8.679   5.300
    1STR    O0Q 6738   4.166   8.763   5.225
    1STR    N0R 6739   4.095   8.553   5.266
    1STR    C0S 6740   4.101   8.508   5.135
    1STR    C0T 6741   3.997   8.425   5.091
    1STR    C0U 6742   3.985   8.396   4.955
    1STR    C0V 6743   4.078   8.447   4.863
    1STR    C0W 6744   4.065   8.412   4.717
    1STR    C0X 6745   4.185   8.526   4.906
    1STR    N0Y 6746   4.272   8.575   4.812
    1STR   BCK2 6747   4.268   8.700   4.769
    1STR    O10 6748   4.315   8.727   4.659
    1STR    C13 6749   4.198   8.554   5.043
    1STR    C14 6750   3.023   8.746   4.735
    1STR    C15 6751   2.985   8.758   4.870
    1STR    C16 6752   2.896   8.859   4.912
    1STR    C17 6753   2.839   8.846   5.052
    1STR    H1B 6754   2.696   9.092   4.795
    1STR    H1C 6755   2.869   9.024   4.618
    1STR    H1D 6756   2.947   8.900   4.447
    1STR    H1E 6757   3.233   8.851   4.223
    1STR    H1F 6758   3.118   8.579   4.146
    1STR    H1G 6759   3.271   8.645   4.090
    1STR    H1H 6760   3.251   8.604   4.259
    1STR    H1I 6761   3.049   8.760   4.016
    1STR    H1J 6762   3.152   8.898   4.011
    1STR    H1K 6763   2.883   9.098   4.054
    1STR    H1M 6764   2.851   8.995   4.295
    1STR    H1N 6765   2.848   9.173   4.266
    1STR    H1O 6766   2.987   9.095   4.328
    1STR    H1P 6767   3.160   9.109   4.167
    1STR    H1Q 6768   3.128   9.125   3.998
    1STR   C010 6769   3.137   0.048   4.162
    1STR   H011 6770   3.226   0.001   4.205
    1STR   C012 6771   3.178   0.144   4.050
    1STR   H013 6772   3.091   0.201   4.017
    1STR   H014 6773   3.221   0.093   3.964
    1STR   H015 6774   3.254   0.214   4.086
    1STR   C016 6775   3.062   0.121   4.271
    1STR   H017 6776   3.099   0.221   4.287
    1STR   H018 6777   2.961   0.137   4.242
    1STR   O019 6778   3.062   0.042   4.387
    1STR   C020 6779   2.958   0.065   4.482
    1STR   H021 6780   2.863   0.060   4.429
    1STR   C022 6781   2.984   9.263   4.569
    1STR   H023 6782   2.947   9.176   4.517
    1STR   H024 6783   2.949   9.262   4.670
    1STR   H025 6784   3.089   9.248   4.583
    1STR   C026 6785   2.976   0.199   4.556
    1STR   H027 6786   3.068   0.189   4.609
    1STR   H028 6787   2.987   0.275   4.481
    1STR   O029 6788   2.878   0.255   4.645
    1STR   C030 6789   2.933   0.322   4.759
    1STR   H031 6790   2.980   0.242   4.812
    1STR   C032 6791   3.023   0.441   4.725
    1STR   H033 6792   2.967   0.533   4.715
    1STR   H034 6793   3.075   0.428   4.631
    1STR   H035 6794   3.095   0.461   4.805
    1STR   C036 6795   2.834   0.371   4.863
    1STR   H037 6796   2.844   0.477   4.872
    1STR   H038 6797   2.733   0.356   4.827
    1STR   O039 6798   2.852   0.316   4.994
    1STR   C040 6799   2.975   0.340   5.063
    1STR   H041 6800   3.056   0.355   4.993
    1STR   C042 6801   2.985   0.464   5.152
    1STR   H043 6802   2.923   0.456   5.241
    1STR   H044 6803   2.960   0.555   5.099
    1STR   H045 6804   3.087   0.473   5.188
    1STR   C046 6805   2.986   0.211   5.148
    1STR   H047 6806   2.903   0.223   5.212
    1STR   H048 6807   2.968   0.124   5.086
    1STR   O049 6808   3.106   0.196   5.224
    1STR   C050 6809   3.134   0.079   5.305
    1STR   H051 6810   3.240   0.077   5.311
    1STR   C052 6811   3.101   0.104   5.453
    1STR   H053 6812   3.004   0.070   5.486
    1STR   H054 6813   3.111   0.210   5.477
    1STR   H055 6814   3.172   0.050   5.516
    1STR   C056 6815   3.106   9.255   5.253
    1STR   H057 6816   3.079   9.199   5.341
    1STR   H058 6817   3.024   9.251   5.185
    1STR   O059 6818   3.216   9.187   5.192
    1STR   C060 6819   3.213   9.042   5.187
    1STR   H061 6820   3.310   9.008   5.160
    1STR   C062 6821   3.192   8.978   5.325
    1STR   H063 6822   3.088   8.978   5.355
    1STR   H064 6823   3.250   9.031   5.401
    1STR   H065 6824   3.225   8.874   5.324
    1STR   C066 6825   3.128   8.973   5.079
    1STR   H067 6826   3.140   8.865   5.086
    1STR   H068 6827   3.027   8.994   5.112
    1STR   O069 6828   3.133   9.009   4.941
    1STR   C070 6829   3.248   8.986   4.860
    1STR   H071 6830   3.301   9.070   4.892
    1STR   C072 6831   3.326   8.857   4.887
    1STR   H073 6832   3.267   8.768   4.865
    1STR   H074 6833   3.362   8.851   4.989
    1STR   H075 6834   3.414   8.853   4.822
    1STR   C076 6835   3.221   9.012   4.710
    1STR   H077 6836   3.195   8.919   4.663
    1STR   H078 6837   3.140   9.083   4.702
    1STR   O079 6838   3.333   9.049   4.632
    1STR   C080 6839   3.319   9.133   4.517
    1STR   H081 6840   3.411   9.106   4.465
    1STR   C082 6841   3.214   9.079   4.425
    1STR   H083 6842   3.125   9.052   4.478
    1STR   H084 6843   3.250   8.993   4.371
    1STR   H085 6844   3.188   9.157   4.355
    1STR   C086 6845   3.333   9.290   4.514
    1STR   H087 6846   3.440   9.309   4.518
    1STR   H088 6847   3.302   0.003   4.416
    1STR   O089 6848   3.267   0.064   4.599
    1STR   C090 6849   3.311   0.201   4.584
    1STR   H091 6850   3.415   0.190   4.565
    1STR   C092 6851   3.274   0.283   4.461
    1STR   H093 6852   3.177   0.327   4.462
    1STR   H094 6853   3.288   0.228   4.369
    1STR   H095 6854   3.338   0.371   4.453
    1STR   C096 6855   3.288   0.288   4.712
    1STR   H097 6856   3.369   0.309   4.779
    1STR   H098 6857   3.266   0.389   4.683
    1STR   O099 6858   3.190   0.231   4.793
    1STR   C100 6859   3.219   0.162   4.912
    1STR   H101 6860   3.129   0.180   4.962
    1STR   C102 6861   3.193   0.012   4.904
    1STR   H103 6862   3.184   9.296   4.802
    1STR   H104 6863   3.098   9.305   4.950
    1STR   H105 6864   3.266   9.275   4.960
    1STR   C106 6865   3.322   0.219   5.010
    1STR   H107 6866   3.295   0.179   5.106
    1STR   H108 6867   3.421   0.184   4.988
    1STR   O109 6868   3.327   0.359   5.029
    1STR   C110 6869   3.434   0.398   5.115
    1STR   H111 6870   3.526   0.343   5.091
    1STR   C112 6871   3.459   0.544   5.079
    1STR   H113 6872   3.373   0.605   5.104
    1STR   H114 6873   3.477   0.554   4.972
    1STR   H115 6874   3.547   0.582   5.131
    1STR   C116 6875   3.406   0.385   5.268
    1STR   H117 6876   3.486   0.432   5.325
    1STR   H118 6877   3.316   0.443   5.288
    1STR   O119 6878   3.380   0.256   5.322
    1STR   C120 6879   3.488   0.169   5.353
    1STR   H121 6880   3.582   0.224   5.341
    1STR   C122 6881   3.477   0.125   5.499
    1STR   H123 6882   3.391   0.060   5.512
    1STR   H124 6883   3.467   0.210   5.566
    1STR   H125 6884   3.565   0.067   5.528
    1STR   C126 6885   3.487   0.049   5.257
    1STR   H127 6886   3.401   0.046   5.193
    1STR   H128 6887   3.569   0.065   5.190
    1STR   O129 6888   3.486   9.236   5.308
    1STR   C130 6889   3.534   9.143   5.210
    1STR   H131 6890   3.636   9.161   5.204
    1STR   C132 6891   3.544   8.999   5.266
    1STR   H133 6892   3.451   8.959   5.303
    1STR   H134 6893   3.614   8.997   5.350
    1STR   H135 6894   3.583   8.931   5.190
    1STR   C136 6895   3.507   9.160   5.058
    1STR   H137 6896   3.582   9.101   5.007
    1STR   H138 6897   3.416   9.111   5.036
    1STR   O139 6898   3.497   9.290   4.995
    1STR   C140 6899   3.547   9.299   4.860
    1STR   H141 6900   3.648   9.267   4.859
    1STR   C142 6901   3.478   9.193   4.784
    1STR   H143 6902   3.374   9.219   4.778
    1STR   H144 6903   3.492   9.091   4.818
    1STR   H145 6904   3.508   9.190   4.682
    1STR   C146 6905   3.523   0.108   4.772
    1STR   H147 6906   3.549   0.080   4.673
    1STR   H148 6907   3.418   0.109   4.779
    1STR   O149 6908   3.582   0.243   4.779
    1STR   C150 6909   3.590   0.332   4.660
    1STR   H151 6910   3.494   0.367   4.629
    1STR   C152 6911   3.641   0.469   4.702
    1STR   H153 6912   3.749   0.471   4.702
    1STR   H154 6913   3.605   0.494   4.801
    1STR   H155 6914   3.606   0.546   4.633
    1STR   C156 6915   3.655   0.285   4.525
    1STR   H157 6916   3.745   0.342   4.506
    1STR   H158 6917   3.684   0.181   4.530
    1STR   O159 6918   3.561   0.302   4.417
    1STR   C160 6919   3.591   0.366   4.291
    1STR   H161 6920   3.492   0.394   4.254
    1STR   C162 6921   3.667   0.498   4.312
    1STR   H163 6922   3.772   0.480   4.338
    1STR   H164 6923   3.622   0.557   4.392
    1STR   H165 6924   3.666   0.558   4.222
    1STR   C166 6925   3.651   0.278   4.178
    1STR   H167 6926   3.692   0.345   4.102
    1STR   H168 6927   3.737   0.224   4.215
    1STR   O169 6928   3.560   0.193   4.104
    1STR   C170 6929   3.568   0.055   4.137
    1STR   H171 6930   3.672   0.023   4.131
    1STR   C172 6931   3.513   0.045   4.277
    1STR   H173 6932   3.428   0.112   4.283
    1STR   H174 6933   3.586   0.074   4.352
    1STR   H175 6934   3.480   9.264   4.299
    1STR   C176 6935   3.490   9.276   4.049
    1STR   H177 6936   3.384   9.297   4.056
    1STR   H178 6937   3.520   9.287   3.945
    1STR   O179 6938   3.516   9.141   4.094
    1STR   C180 6939   3.428   9.034   4.055
    1STR   H181 6940   3.343   9.038   4.122
    1STR   C182 6941   3.384   9.053   3.909
    1STR   H183 6942   3.330   9.147   3.896
    1STR   H184 6943   3.318   8.973   3.877
    1STR   H185 6944   3.470   9.054   3.843
    1STR   C186 6945   3.490   8.892   4.072
    1STR   H187 6946   3.447   8.828   3.996
    1STR   H188 6947   3.595   8.893   4.044
    1STR   O189 6948   3.461   8.818   4.192
    1STR   C190 6949   3.518   8.857   4.316
    1STR   H191 6950   3.494   8.962   4.326
    1STR   C192 6951   3.455   8.785   4.435
    1STR   H193 6952   3.439   8.679   4.415
    1STR   H194 6953   3.361   8.831   4.462
    1STR   H195 6954   3.516   8.793   4.525
    1STR   C196 6955   3.668   8.832   4.324
    1STR   H197 6956   3.711   8.853   4.422
    1STR   H198 6957   3.691   8.727   4.301
    1STR   O199 6958   3.723   8.913   4.225
    1STR   C200 6959   3.789   9.029   4.268
    1STR   H201 6960   3.873   8.992   4.320
    1STR   C202 6961   3.827   9.088   4.131
    1STR   H203 6962   3.743   9.125   4.075
    1STR   H204 6963   3.872   9.010   4.070
    1STR   H205 6964   3.899   9.168   4.138
    1STR   C206 6965   3.717   9.125   4.367
    1STR   H207 6966   3.684   9.206   4.306
    1STR   H208 6967   3.629   9.082   4.411
    1STR   O209 6968   3.799   9.180   4.471
    1STR   C210 6969   3.739   9.215   4.594
    1STR   H211 6970   3.650   9.267   4.565
    1STR   C212 6971   3.723   9.076   4.656
    1STR   H213 6972   3.823   9.035   4.659
    1STR   H214 6973   3.657   9.007   4.604
    1STR   H215 6974   3.695   9.077   4.760
    1STR   C216 6975   3.825   9.296   4.697
    1STR   H217 6976   3.838   9.231   4.780
    1STR   H218 6977   3.922   9.303   4.653
    1STR   O219 6978   3.783   0.105   4.751
    1STR   C220 6979   3.815   0.156   4.887
    1STR   H221 6980   3.903   0.111   4.916
    1STR   C222 6981   3.841   0.306   4.891
    1STR   H223 6982   3.750   0.362   4.914
    1STR   H224 6983   3.881   0.342   4.798
    1STR   H225 6984   3.912   0.331   4.969
    1STR   C226 6985   3.743   0.125   5.017
    1STR   H227 6986   3.785   0.186   5.097
    1STR   H228 6987   3.641   0.161   5.009
    1STR   O229 6988   3.749   9.307   5.051
    1STR   C230 6989   3.839   9.264   5.150
    1STR   H231 6990   3.930   9.310   5.120
    1STR   C232 6991   3.795   0.001   5.291
    1STR   H233 6992   3.721   9.264   5.347
    1STR   H234 6993   3.760   0.103   5.286
    1STR   H235 6994   3.870   0.008   5.367
    1STR   C236 6995   3.862   9.109   5.129
    1STR   H237 6996   3.969   9.089   5.126
    1STR   H238 6997   3.824   9.054   5.215
    1STR   O239 6998   3.803   9.049   5.013
    1STR   C240 6999   3.849   8.918   4.975
    1STR   H241 7000   3.939   8.932   4.916
    1STR   C242 7001   3.883   8.827   5.094
    1STR   H243 7002   3.797   8.809   5.157
    1STR   H244 7003   3.963   8.870   5.153
    1STR   H245 7004   3.921   8.730   5.059
    1STR   C246 7005   3.744   8.845   4.889
    1STR   H247 7006   3.716   8.748   4.930
    1STR   H248 7007   3.651   8.902   4.890
    1STR   O249 7008   3.783   8.830   4.753
    1STR   C250 7009   3.863   8.719   4.717
    1STR   H251 7010   3.936   8.699   4.795
    1STR   C252 7011   3.765   8.602   4.702
    1STR   H253 7012   3.672   8.635   4.656
    1STR   H254 7013   3.742   8.558   4.799
    1STR   H255 7014   3.805   8.524   4.638
    1STR   C256 7015   3.940   8.747   4.585
    1STR   H257 7016   4.041   8.705   4.595
    1STR   H258 7017   3.895   8.695   4.500
    1STR   O259 7018   3.945   8.885   4.550
    1STR   C260 7019   4.059   8.929   4.478
    1STR   H261 7020   4.143   8.896   4.537
    1STR   C262 7021   4.080   8.850   4.348
    1STR   H263 7022   3.990   8.831   4.290
    1STR   H264 7023   4.124   8.753   4.370
    1STR   H265 7024   4.149   8.904   4.286
    1STR   C266 7025   4.072   9.086   4.471
    1STR   H267 7026   4.032   9.130   4.562
    1STR   H268 7027   4.179   9.105   4.474
    1STR   O269 7028   4.019   9.155   4.357
    1STR   C270 7029   4.032   9.297   4.334
    1STR   H271 7030   4.074   9.299   4.234
    1STR   C272 7031   3.907   0.062   4.313
    1STR   H273 7032   3.850   0.076   4.404
    1STR   H274 7033   3.844   0.019   4.239
    1STR   H275 7034   3.936   0.161   4.277
    1STR   C276 7035   4.127   0.053   4.422
    1STR   H277 7036   4.213   9.314   4.417
    1STR   H278 7037   4.148   0.150   4.378
    1STR   O279 7038   4.097   0.063   4.558
    1STR   C280 7039   4.106   0.193   4.611
    1STR   H281 7040   4.198   0.236   4.582
    1STR   C282 7041   3.984   0.266   4.555
    1STR   H283 7042   3.898   0.202   4.569
    1STR   H284 7043   3.992   0.289   4.449
    1STR   H285 7044   3.960   0.358   4.606
    1STR   C286 7045   4.104   0.192   4.762
    1STR   H287 7046   4.091   0.290   4.807
    1STR   H288 7047   4.014   0.139   4.765
    1STR   O289 7048   4.195   0.117   4.840
    1STR   C290 7049   4.135   0.053   4.951
    1STR   H291 7050   4.073   0.126   5.002
    1STR   C292 7051   4.059   9.246   4.901
    1STR   H293 7052   4.065   9.233   4.794
    1STR   H294 7053   3.957   9.245   4.930
    1STR   H295 7054   4.081   9.152   4.949
    1STR   C296 7055   4.228   0.019   5.063
    1STR   H297 7056   4.315   9.291   5.024
    1STR   H298 7057   4.263   0.110   5.111
    1STR   O299 7058   4.154   9.250   5.145
    1STR   C300 7059   4.150   9.279   5.281
    1STR   H301 7060   4.252   9.279   5.315
    1STR   C302 7061   4.088   0.100   5.297
    1STR   H303 7062   4.008   0.129   5.231
    1STR   H304 7063   4.153   0.186   5.284
    1STR   H305 7064   4.048   0.103   5.396
    1STR   C306 7065   4.071   9.170   5.362
    1STR   H307 7066   4.060   9.206   5.463
    1STR   H308 7067   3.970   9.161   5.333
    1STR   O309 7068   4.110   9.033   5.353
    1STR    H1R 7069   4.069   9.012   5.540
    1STR    H1S 7070   3.869   8.865   5.533
    1STR    H1T 7071   3.881   8.859   5.360
    1STR    H1U 7072   3.843   9.012   5.440
    1STR    H1V 7073   4.134   8.793   5.587
    1STR    H1W 7074   4.240   8.836   5.455
    1STR    H1X 7075   4.056   8.495   5.337
    1STR    H1Y 7076   3.924   8.386   5.160
    1STR    H1Z 7077   3.905   8.334   4.921
    1STR    H20 7078   3.961   8.398   4.695
    1STR    H21 7079   4.106   8.486   4.649
    1STR    H22 7080   4.116   8.318   4.702
    1STR    H23 7081   4.325   8.510   4.756
    1STR    H27 7082   4.281   8.617   5.073
    1STR    H28 7083   3.088   8.666   4.704
    1STR    H29 7084   3.021   8.685   4.941
    1STR    H2A 7085   2.908   8.797   5.120
    1STR    H2B 7086   2.749   8.786   5.049
    1STR    H2C 7087   2.814   8.943   5.094
    1STR   BCK1 7088   2.844   0.019   7.189
    1STR    O03 7089   2.919   0.054   7.279
    1STR    N04 7090   2.754   0.093   7.125
    1STR    C05 7091   2.708   0.219   7.156
    1STR    C06 7092   2.793   0.313   7.216
    1STR    C07 7093   2.755   0.447   7.233
    1STR    N08 7094   2.850   0.548   7.240
    1STR    C09 7095   2.852   0.646   7.149
    1STR    O0A 7096   2.757   0.671   7.075
    1STR    O0B 7097   2.968   0.711   7.143
    1STR    C0C 7098   2.989   0.804   7.036
    1STR    C0D 7099   3.105   0.896   7.078
    1STR    C0E 7100   3.008   0.733   6.900
    1STR    O0F 7101   2.923   0.772   6.793
    1STR    C0G 7102   2.828   0.684   6.730
    1STR    C0H 7103   2.841   0.685   6.576
    1STR    C0I 7104   2.787   0.544   6.778
    1STR    O0J 7105   2.875   0.441   6.737
    1STR    C0K 7106   4.033   9.041   6.956
    1STR    C0M 7107   3.972   8.975   7.074
    1STR    C0N 7108   4.179   9.060   6.961
    1STR    O0O 7109   4.210   9.184   7.020
    1STR    C0P 7110   4.235   9.289   6.947
    1STR    O0Q 7111   4.255   9.285   6.828
    1STR    N0R 7112   4.229   0.086   7.008
    1STR    C0S 7113   4.157   0.129   7.118
    1STR    C0T 7114   4.117   0.262   7.127
    1STR    C0U 7115   4.043   0.306   7.237
    1STR    C0V 7116   4.038   0.230   7.356
    1STR    C0W 7117   4.001   0.298   7.487
    1STR    C0X 7118   4.070   0.093   7.343
    1STR    N0Y 7119   4.075   9.313   7.439
    1STR   BCK2 7120   4.023   9.292   7.559
    1STR    O10 7121   3.956   0.052   7.622
    1STR    C13 7122   4.110   0.045   7.218
    1STR    C14 7123   2.619   0.475   7.216
    1STR    C15 7124   2.530   0.382   7.164
    1STR    C16 7125   2.577   0.258   7.122
    1STR    C17 7126   2.484   0.171   7.041
    1STR    H1B 7127   2.703   0.042   7.056
    1STR    H1C 7128   2.894   0.282   7.229
    1STR    H1D 7129   2.932   0.535   7.295
    1STR    H1E 7130   2.904   0.869   7.022
    1STR    H1F 7131   3.194   0.841   7.106
    1STR    H1G 7132   3.131   0.965   6.997
    1STR    H1H 7133   3.076   0.956   7.164
    1STR    H1I 7134   3.005   0.627   6.910
    1STR    H1J 7135   3.107   0.759   6.866
    1STR    H1K 7136   2.742   0.741   6.756
    1STR    H1M 7137   2.906   0.604   6.543
    1STR    H1N 7138   2.882   0.778   6.537
    1STR    H1O 7139   2.745   0.667   6.529
    1STR    H1P 7140   2.762   0.549   6.882
    1STR    H1Q 7141   2.693   0.522   6.728
    1STR   C010 7142   2.914   0.333   6.823
    1STR   H011 7143   3.015   0.308   6.795
    1STR   C012 7144   2.912   0.373   6.965
    1STR   H013 7145   2.809   0.392   6.991
    1STR   H014 7146   2.972   0.457   6.993
    1STR   H015 7147   2.948   0.291   7.024
    1STR   C016 7148   2.838   0.199   6.821
    1STR   H017 7149   2.869   0.138   6.903
    1STR   H018 7150   2.734   0.215   6.843
    1STR   O019 7151   2.869   0.115   6.711
    1STR   C020 7152   2.770   0.095   6.615
    1STR   H021 7153   2.692   0.033   6.659
    1STR   C022 7154   2.733   0.235   6.577
    1STR   H023 7155   2.817   0.290   6.538
    1STR   H024 7156   2.696   0.301   6.652
    1STR   H025 7157   2.655   0.223   6.507
    1STR   C026 7158   2.808   0.026   6.482
    1STR   H027 7159   2.728   0.034   6.412
    1STR   H028 7160   2.880   0.085   6.429
    1STR   O029 7161   2.856   9.213   6.493
    1STR   C030 7162   2.953   9.174   6.396
    1STR   H031 7163   3.048   9.223   6.418
    1STR   C032 7164   2.975   9.026   6.422
    1STR   H033 7165   2.882   8.971   6.424
    1STR   H034 7166   3.019   9.013   6.520
    1STR   H035 7167   3.041   8.982   6.347
    1STR   C036 7168   2.916   9.203   6.249
    1STR   H037 7169   2.974   9.141   6.182
    1STR   H038 7170   2.812   9.175   6.232
    1STR   O039 7171   2.933   0.021   6.214
    1STR   C040 7172   3.066   0.060   6.182
    1STR   H041 7173   3.139   0.002   6.238
    1STR   C042 7174   3.087   0.032   6.033
    1STR   H043 7175   3.017   0.090   5.974
    1STR   H044 7176   3.073   9.247   6.008
    1STR   H045 7177   3.188   0.060   6.002
    1STR   C046 7178   3.087   0.210   6.213
    1STR   H047 7179   3.153   0.253   6.137
    1STR   H048 7180   2.994   0.268   6.203
    1STR   O049 7181   3.155   0.235   6.335
    1STR   C050 7182   3.077   0.246   6.453
    1STR   H051 7183   2.975   0.262   6.422
    1STR   C052 7184   3.094   0.131   6.556
    1STR   H053 7185   3.168   0.059   6.538
    1STR   H054 7186   3.021   0.055   6.565
    1STR   H055 7187   3.106   0.165   6.659
    1STR   C056 7188   3.113   0.371   6.529
    1STR   H057 7189   3.035   0.386   6.600
    1STR   H058 7190   3.201   0.354   6.590
    1STR   O059 7191   3.117   0.490   6.454
    1STR   C060 7192   3.206   0.581   6.514
    1STR   H061 7193   3.301   0.533   6.512
    1STR   C062 7194   3.210   0.702   6.421
    1STR   H063 7195   3.111   0.746   6.411
    1STR   H064 7196   3.244   0.672   6.322
    1STR   H065 7197   3.278   0.778   6.458
    1STR   C066 7198   3.175   0.625   6.659
    1STR   H067 7199   3.250   0.698   6.688
    1STR   H068 7200   3.085   0.682   6.651
    1STR   O069 7201   3.151   0.529   6.765
    1STR   C070 7202   3.257   0.501   6.857
    1STR   H071 7203   3.326   0.446   6.795
    1STR   C072 7204   3.313   0.626   6.932
    1STR   H073 7205   3.243   0.659   7.008
    1STR   H074 7206   3.338   0.712   6.872
    1STR   H075 7207   3.403   0.600   6.988
    1STR   C076 7208   3.229   0.406   6.973
    1STR   H077 7209   3.323   0.389   7.020
    1STR   H078 7210   3.170   0.458   7.048
    1STR   O079 7211   3.176   0.278   6.948
    1STR   C080 7212   3.192   0.186   7.056
    1STR   H081 7213   3.297   0.161   7.058
    1STR   C082 7214   3.159   0.252   7.193
    1STR   H083 7215   3.081   0.327   7.187
    1STR   H084 7216   3.245   0.304   7.233
    1STR   H085 7217   3.127   0.178   7.266
    1STR   C086 7218   3.110   0.056   7.035
    1STR   H087 7219   3.125   9.312   7.121
    1STR   H088 7220   3.009   0.087   7.034
    1STR   O089 7221   3.128   9.302   6.914
    1STR   C090 7222   3.080   9.169   6.906
    1STR   H091 7223   3.071   9.136   7.008
    1STR   C092 7224   2.948   9.171   6.831
    1STR   H093 7225   2.963   9.177   6.723
    1STR   H094 7226   2.887   9.254   6.861
    1STR   H095 7227   2.888   9.085   6.857
    1STR   C096 7228   3.174   9.059   6.858
    1STR   H097 7229   3.264   9.064   6.918
    1STR   H098 7230   3.124   8.966   6.880
    1STR   O099 7231   3.212   9.058   6.723
    1STR   C100 7232   3.245   8.928   6.675
    1STR   H101 7233   3.149   8.882   6.664
    1STR   C102 7234   3.299   8.945   6.535
    1STR   H103 7235   3.373   9.024   6.537
    1STR   H104 7236   3.225   8.978   6.464
    1STR   H105 7237   3.343   8.854   6.498
    1STR   C106 7238   3.331   8.835   6.765
    1STR   H107 7239   3.394   8.773   6.700
    1STR   H108 7240   3.397   8.890   6.831
    1STR   O109 7241   3.244   8.750   6.838
    1STR   C110 7242   3.289   8.634   6.908
    1STR   H111 7243   3.198   8.589   6.946
    1STR   C112 7244   3.350   8.525   6.819
    1STR   H113 7245   3.431   8.553   6.753
    1STR   H114 7246   3.276   8.487   6.751
    1STR   H115 7247   3.385   8.441   6.880
    1STR   C116 7248   3.366   8.667   7.036
    1STR   H117 7249   3.431   8.586   7.068
    1STR   H118 7250   3.429   8.752   7.016
    1STR   O119 7251   3.272   8.692   7.141
    1STR   C120 7252   3.308   8.802   7.223
    1STR   H121 7253   3.415   8.797   7.237
    1STR   C122 7254   3.269   8.927   7.144
    1STR   H123 7255   3.190   8.905   7.075
    1STR   H124 7256   3.349   8.965   7.082
    1STR   H125 7257   3.240   9.010   7.209
    1STR   C126 7258   3.245   8.793   7.363
    1STR   H127 7259   3.143   8.830   7.370
    1STR   H128 7260   3.241   8.688   7.391
    1STR   O129 7261   3.328   8.852   7.463
    1STR   C130 7262   3.325   8.993   7.476
    1STR   H131 7263   3.229   9.035   7.448
    1STR   C132 7264   3.357   9.014   7.625
    1STR   H133 7265   3.451   8.966   7.652
    1STR   H134 7266   3.280   8.972   7.690
    1STR   H135 7267   3.368   9.119   7.650
    1STR   C136 7268   3.434   9.058   7.390
    1STR   H137 7269   3.527   9.038   7.442
    1STR   H138 7270   3.446   9.015   7.293
    1STR   O139 7271   3.425   9.199   7.381
    1STR   C140 7272   3.378   9.265   7.264
    1STR   H141 7273   3.274   9.237   7.250
    1STR   C142 7274   3.389   0.089   7.314
    1STR   H143 7275   3.466   0.098   7.390
    1STR   H144 7276   3.300   0.119   7.365
    1STR   H145 7277   3.414   0.159   7.236
    1STR   C146 7278   3.458   9.251   7.132
    1STR   H147 7279   3.542   0.000   7.130
    1STR   H148 7280   3.504   9.153   7.131
    1STR   O149 7281   3.376   9.274   7.016
    1STR   C150 7282   3.439   9.307   6.889
    1STR   H151 7283   3.514   0.061   6.911
    1STR   C152 7284   3.500   9.173   6.853
    1STR   H153 7285   3.436   9.118   6.786
    1STR   H154 7286   3.519   9.105   6.934
    1STR   H155 7287   3.595   9.189   6.806
    1STR   C156 7288   3.339   0.039   6.776
    1STR   H157 7289   3.275   9.283   6.734
    1STR   H158 7290   3.280   0.105   6.835
    1STR   O159 7291   3.343   0.151   6.685
    1STR   C160 7292   3.392   0.143   6.550
    1STR   H161 7293   3.463   0.084   6.597
    1STR   C162 7294   3.369   0.039   6.437
    1STR   H163 7295   3.296   0.069   6.365
    1STR   H164 7296   3.336   9.262   6.475
    1STR   H165 7297   3.457   0.024   6.375
    1STR   C166 7298   3.432   0.286   6.500
    1STR   H167 7299   3.518   0.283   6.435
    1STR   H168 7300   3.355   0.323   6.433
    1STR   O169 7301   3.443   0.381   6.606
    1STR   C170 7302   3.554   0.472   6.611
    1STR   H171 7303   3.645   0.417   6.600
    1STR   C172 7304   3.546   0.578   6.500
    1STR   H173 7305   3.470   0.652   6.517
    1STR   H174 7306   3.530   0.531   6.403
    1STR   H175 7307   3.638   0.635   6.493
    1STR   C176 7308   3.555   0.536   6.751
    1STR   H177 7309   3.627   0.613   6.774
    1STR   H178 7310   3.467   0.598   6.745
    1STR   O179 7311   3.540   0.445   6.861
    1STR   C180 7312   3.644   0.412   6.952
    1STR   H181 7313   3.722   0.355   6.902
    1STR   C182 7314   3.702   0.536   7.022
    1STR   H183 7315   3.624   0.595   7.069
    1STR   H184 7316   3.755   0.599   6.951
    1STR   H185 7317   3.773   0.507   7.098
    1STR   C186 7318   3.567   0.322   7.052
    1STR   H187 7319   3.500   0.383   7.111
    1STR   H188 7320   3.502   0.258   6.992
    1STR   O189 7321   3.634   0.231   7.137
    1STR   C190 7322   3.686   0.274   7.262
    1STR   H191 7323   3.782   0.319   7.238
    1STR   C192 7324   3.604   0.382   7.336
    1STR   H193 7325   3.501   0.348   7.353
    1STR   H194 7326   3.602   0.476   7.283
    1STR   H195 7327   3.648   0.402   7.434
    1STR   C196 7328   3.710   0.153   7.355
    1STR   H197 7329   3.812   0.159   7.383
    1STR   H198 7330   3.657   0.167   7.449
    1STR   O199 7331   3.690   0.018   7.308
    1STR   C200 7332   3.743   9.242   7.401
    1STR   H201 7333   3.840   9.281   7.414
    1STR   C202 7334   3.683   9.242   7.543
    1STR   H203 7335   3.575   9.236   7.546
    1STR   H204 7336   3.709   0.012   7.597
    1STR   H205 7337   3.721   9.159   7.603
    1STR   C206 7338   3.786   9.104   7.347
    1STR   H207 7339   3.871   9.119   7.282
    1STR   H208 7340   3.821   9.041   7.430
    1STR   O209 7341   3.685   9.036   7.277
    1STR   C210 7342   3.712   8.903   7.236
    1STR   H211 7343   3.817   8.882   7.230
    1STR   C212 7344   3.660   8.800   7.336
    1STR   H213 7345   3.564   8.825   7.379
    1STR   H214 7346   3.729   8.792   7.420
    1STR   H215 7347   3.653   8.701   7.290
    1STR   C216 7348   3.646   8.907   7.097
    1STR   H217 7349   3.542   8.924   7.109
    1STR   H218 7350   3.680   8.996   7.045
    1STR   O219 7351   3.659   8.790   7.019
    1STR   C220 7352   3.712   8.800   6.887
    1STR   H221 7353   3.818   8.785   6.901
    1STR   C222 7354   3.659   8.679   6.815
    1STR   H223 7355   3.553   8.693   6.821
    1STR   H224 7356   3.685   8.585   6.864
    1STR   H225 7357   3.687   8.675   6.710
    1STR   C226 7358   3.695   8.928   6.797
    1STR   H227 7359   3.720   9.021   6.847
    1STR   H228 7360   3.782   8.911   6.739
    1STR   O229 7361   3.591   8.942   6.698
    1STR   C230 7362   3.628   9.014   6.576
    1STR   H231 7363   3.733   9.014   6.573
    1STR   C232 7364   3.607   8.925   6.452
    1STR   H233 7365   3.517   8.949   6.396
    1STR   H234 7366   3.604   8.820   6.480
    1STR   H235 7367   3.689   8.938   6.382
    1STR   C236 7368   3.586   9.165   6.555
    1STR   H237 7369   3.578   9.182   6.447
    1STR   H238 7370   3.489   9.186   6.596
    1STR   O239 7371   3.680   9.261   6.607
    1STR   C240 7372   3.683   0.083   6.576
    1STR   H241 7373   3.618   0.092   6.491
    1STR   C242 7374   3.657   0.175   6.701
    1STR   H243 7375   3.668   0.133   6.798
    1STR   H244 7376   3.562   0.221   6.713
    1STR   H245 7377   3.724   0.260   6.700
    1STR   C246 7378   3.792   0.149   6.497
    1STR   H247 7379   3.878   0.163   6.559
    1STR   H248 7380   3.817   0.082   6.419
    1STR   O249 7381   3.737   0.272   6.446
    1STR   C250 7382   3.798   0.334   6.335
    1STR   H251 7383   3.890   0.278   6.328
    1STR   C252 7384   3.705   0.326   6.212
    1STR   H253 7385   3.622   0.395   6.223
    1STR   H254 7386   3.659   0.228   6.200
    1STR   H255 7387   3.758   0.352   6.121
    1STR   C256 7388   3.832   0.482   6.359
    1STR   H257 7389   3.926   0.512   6.313
    1STR   H258 7390   3.757   0.550   6.320
    1STR   O259 7391   3.837   0.496   6.496
    1STR   C260 7392   3.918   0.599   6.545
    1STR   H261 7393   3.920   0.685   6.479
    1STR   C262 7394   3.846   0.634   6.673
    1STR   H263 7395   3.813   0.543   6.722
    1STR   H264 7396   3.766   0.705   6.655
    1STR   H265 7397   3.907   0.681   6.745
    1STR   C266 7398   4.056   0.539   6.565
    1STR   H267 7399   4.085   0.476   6.481
    1STR   H268 7400   4.123   0.623   6.557
    1STR   O269 7401   4.071   0.471   6.690
    1STR   C270 7402   4.010   0.344   6.697
    1STR   H271 7403   3.911   0.348   6.654
    1STR   C272 7404   4.101   0.248   6.623
    1STR   H273 7405   4.196   0.252   6.670
    1STR   H274 7406   4.111   0.270   6.518
    1STR   H275 7407   4.074   0.144   6.635
    1STR   C276 7408   3.993   0.292   6.839
    1STR   H277 7409   4.089   0.254   6.871
    1STR   H278 7410   3.960   0.368   6.908
    1STR   O279 7411   3.893   0.194   6.837
    1STR   C280 7412   3.917   0.070   6.899
    1STR   H281 7413   4.021   0.054   6.908
    1STR   C282 7414   3.845   0.057   7.032
    1STR   H283 7415   3.738   0.053   7.018
    1STR   H284 7416   3.868   0.142   7.097
    1STR   H285 7417   3.873   9.287   7.087
    1STR   C286 7418   3.873   9.282   6.804
    1STR   H287 7419   3.865   9.186   6.849
    1STR   H288 7420   3.769   9.291   6.797
    1STR   O289 7421   3.943   9.285   6.679
    1STR   C290 7422   3.946   9.160   6.613
    1STR   H291 7423   3.883   9.095   6.669
    1STR   C292 7424   3.896   9.157   6.472
    1STR   H293 7425   3.961   9.221   6.420
    1STR   H294 7426   3.799   9.188   6.445
    1STR   H295 7427   3.901   9.055   6.433
    1STR   C296 7428   4.087   9.107   6.602
    1STR   H297 7429   4.147   9.172   6.540
    1STR   H298 7430   4.137   9.116   6.695
    1STR   O299 7431   4.088   8.974   6.549
    1STR   C300 7432   4.010   8.878   6.617
    1STR   H301 7433   3.908   8.900   6.594
    1STR   C302 7434   4.022   8.743   6.548
    1STR   H303 7435   4.126   8.718   6.533
    1STR   H304 7436   3.974   8.745   6.451
    1STR   H305 7437   3.972   8.665   6.605
    1STR   C306 7438   4.043   8.879   6.768
    1STR   H307 7439   4.011   8.787   6.814
    1STR   H308 7440   4.150   8.885   6.772
    1STR   O309 7441   3.980   8.988   6.836
    1STR    H1R 7442   4.002   9.143   6.972
    1STR    H1S 7443   4.030   8.988   7.164
    1STR    H1T 7444   3.951   8.871   7.055
    1STR    H1U 7445   3.879   9.028   7.088
    1STR    H1V 7446   4.215   9.062   6.863
    1STR    H1W 7447   4.218   8.973   7.012
    1STR    H1X 7448   4.259   0.155   6.940
    1STR    H1Y 7449   4.142   0.334   7.050
    1STR    H1Z 7450   4.000   0.403   7.230
    1STR    H20 7451   4.081   0.283   7.560
    1STR    H21 7452   3.985   0.405   7.476
    1STR    H22 7453   3.908   0.263   7.532
    1STR    H23 7454   4.129   9.235   7.406
    1STR    H27 7455   4.101   9.262   7.198
    1STR    H28 7456   2.589   0.575   7.236
    1STR    H29 7457   2.427   0.409   7.147
    1STR    H2A 7458   2.532   0.086   6.995
    1STR    H2B 7459   2.432   0.234   6.974
    1STR    H2C 7460   2.397   0.133   7.090
    1STR   BCK1 7461   2.761   2.312   0.183
    1STR    O03 7462   2.844   2.400   0.176
    1STR    N04 7463   2.747   2.216   0.275
    1STR    C05 7464   2.812   2.183   0.394
    1STR    C06 7465   2.796   2.050   0.437
    1STR    C07 7466   2.842   2.005   0.562
    1STR    N08 7467   2.855   1.871   0.584
    1STR    C09 7468   2.768   1.780   0.625
    1STR    O0A 7469   2.655   1.807   0.664
    1STR    O0B 7470   2.813   1.652   0.611
    1STR    C0C 7471   2.945   1.618   0.566
    1STR    C0D 7472   2.960   1.466   0.589
    1STR    C0E 7473   2.970   1.654   0.418
    1STR    O0F 7474   3.010   1.790   0.401
    1STR    C0G 7475   3.038   1.837   0.269
    1STR    C0H 7476   3.162   1.760   0.230
    1STR    C0I 7477   2.922   1.827   0.167
    1STR    O0J 7478   2.927   1.904   0.046
    1STR    C0K 7479   3.901   3.108   9.093
    1STR    C0M 7480   3.817   3.050   8.980
    1STR    C0N 7481   3.972   3.234   9.040
    1STR    O0O 7482   4.080   3.192   8.953
    1STR    C0P 7483   4.183   3.120   9.002
    1STR    O0Q 7484   4.240   3.029   8.943
    1STR    N0R 7485   4.212   3.158   9.126
    1STR    C0S 7486   4.262   3.092   9.235
    1STR    C0T 7487   4.227   3.154   0.034
    1STR    C0U 7488   4.271   3.107   0.157
    1STR    C0V 7489   4.358   3.000   0.161
    1STR    C0W 7490   4.423   2.983   0.295
    1STR    C0X 7491   4.381   2.924   0.043
    1STR    N0Y 7492   4.447   2.803   0.039
    1STR   BCK2 7493   4.448   2.697   0.118
    1STR    O10 7494   4.512   2.599   0.085
    1STR    C13 7495   4.335   2.972   9.239
    1STR    C14 7496   2.905   2.094   0.648
    1STR    C15 7497   2.925   2.226   0.608
    1STR    C16 7498   2.887   2.269   0.478
    1STR    C17 7499   2.941   2.401   0.430
    1STR    H1B 7500   2.675   2.149   0.249
    1STR    H1C 7501   2.747   1.979   0.373
    1STR    H1D 7502   2.934   1.832   0.533
    1STR    H1E 7503   3.018   1.668   0.629
    1STR    H1F 7504   2.887   1.408   0.533
    1STR    H1G 7505   3.059   1.431   0.559
    1STR    H1H 7506   2.946   1.442   0.694
    1STR    H1I 7507   2.881   1.641   0.359
    1STR    H1J 7508   3.043   1.584   0.379
    1STR    H1K 7509   3.063   1.943   0.274
    1STR    H1M 7510   3.197   1.791   0.135
    1STR    H1N 7511   3.147   1.654   0.220
    1STR    H1O 7512   3.241   1.781   0.302
    1STR    H1P 7513   2.906   1.725   0.141
    1STR    H1Q 7514   2.831   1.858   0.218
    1STR   C010 7515   3.031   1.882   9.270
    1STR   H011 7516   3.114   1.924   0.003
    1STR   C012 7517   3.066   1.736   9.232
    1STR   H013 7518   2.995   1.693   9.162
    1STR   H014 7519   3.075   1.669   9.316
    1STR   H015 7520   3.161   1.733   9.179
    1STR   C016 7521   3.003   1.957   9.138
    1STR   H017 7522   3.091   1.967   9.074
    1STR   H018 7523   2.938   1.894   9.079
    1STR   O019 7524   2.929   2.077   9.148
    1STR   C020 7525   2.991   2.203   9.178
    1STR   H021 7526   2.907   2.265   9.169
    1STR   C022 7527   3.024   2.227   0.005
    1STR   H023 7528   3.126   2.208   0.033
    1STR   H024 7529   2.961   2.171   0.074
    1STR   H025 7530   3.014   2.333   0.026
    1STR   C026 7531   3.089   2.267   9.078
    1STR   H027 7532   3.146   2.342   9.131
    1STR   H028 7533   3.152   2.187   9.045
    1STR   O029 7534   3.038   2.328   8.959
    1STR   C030 7535   3.135   2.407   8.890
    1STR   H031 7536   3.231   2.359   8.897
    1STR   C032 7537   3.101   2.403   8.740
    1STR   H033 7538   3.005   2.448   8.718
    1STR   H034 7539   3.095   2.300   8.705
    1STR   H035 7540   3.176   2.454   8.680
    1STR   C036 7541   3.156   2.550   8.945
    1STR   H037 7542   3.262   2.572   8.949
    1STR   H038 7543   3.116   2.620   8.873
    1STR   O039 7544   3.095   2.574   9.073
    1STR   C040 7545   3.141   2.686   9.149
    1STR   H041 7546   3.243   2.659   9.161
    1STR   C042 7547   3.167   2.815   9.069
    1STR   H043 7548   3.137   2.811   8.966
    1STR   H044 7549   3.274   2.833   9.063
    1STR   H045 7550   3.121   2.902   9.117
    1STR   C046 7551   3.066   2.703   9.289
    1STR   H047 7552   3.022   2.802   9.300
    1STR   H048 7553   2.986   2.629   9.293
    1STR   O049 7554   3.132   2.670   0.091
    1STR   C050 7555   3.102   2.733   0.217
    1STR   H051 7556   3.117   2.839   0.200
    1STR   C052 7557   2.961   2.712   0.269
    1STR   H053 7558   2.915   2.629   0.215
    1STR   H054 7559   2.901   2.801   0.260
    1STR   H055 7560   2.958   2.686   0.375
    1STR   C056 7561   3.202   2.690   0.327
    1STR   H057 7562   3.302   2.690   0.286
    1STR   H058 7563   3.198   2.765   0.405
    1STR   O059 7564   3.171   2.562   0.385
    1STR   C060 7565   3.256   2.515   0.489
    1STR   H061 7566   3.359   2.538   0.466
    1STR   C062 7567   3.225   2.588   0.621
    1STR   H063 7568   3.123   2.570   0.654
    1STR   H064 7569   3.237   2.695   0.612
    1STR   H065 7570   3.293   2.555   0.700
    1STR   C066 7571   3.247   2.361   0.509
    1STR   H067 7572   3.330   2.331   0.573
    1STR   H068 7573   3.160   2.336   0.566
    1STR   O069 7574   3.245   2.282   0.389
    1STR   C070 7575   3.274   2.143   0.409
    1STR   H071 7576   3.363   2.139   0.472
    1STR   C072 7577   3.168   2.067   0.484
    1STR   H073 7578   3.073   2.082   0.434
    1STR   H074 7579   3.161   2.102   0.587
    1STR   H075 7580   3.190   1.960   0.487
    1STR   C076 7581   3.318   2.068   0.283
    1STR   H077 7582   3.402   2.130   0.267
    1STR   H078 7583   3.355   1.970   0.312
    1STR   O079 7584   3.251   2.060   0.156
    1STR   C080 7585   3.344   2.033   0.047
    1STR   H081 7586   3.423   2.102   0.064
    1STR   C082 7587   3.392   1.886   0.035
    1STR   H083 7588   3.323   1.825   9.299
    1STR   H084 7589   3.410   1.839   0.132
    1STR   H085 7590   3.484   1.876   9.299
    1STR   C086 7591   3.306   2.077   9.228
    1STR   H087 7592   3.352   2.019   9.148
    1STR   H088 7593   3.202   2.065   9.217
    1STR   O089 7594   3.323   2.215   9.212
    1STR   C090 7595   3.433   2.253   9.137
    1STR   H091 7596   3.523   2.206   9.178
    1STR   C092 7597   3.418   2.222   8.988
    1STR   H093 7598   3.325   2.180   8.954
    1STR   H094 7599   3.487   2.145   8.965
    1STR   H095 7600   3.445   2.305   8.923
    1STR   C096 7601   3.447   2.400   9.159
    1STR   H097 7602   3.546   2.418   9.126
    1STR   H098 7603   3.379   2.460   9.100
    1STR   O099 7604   3.448   2.430   9.296
    1STR   C100 7605   3.342   2.515   0.017
    1STR   H101 7606   3.260   2.500   9.268
    1STR   C102 7607   3.282   2.439   0.137
    1STR   H103 7608   3.327   2.463   0.231
    1STR   H104 7609   3.291   2.332   0.123
    1STR   H105 7610   3.176   2.455   0.149
    1STR   C106 7611   3.405   2.663   0.027
    1STR   H107 7612   3.455   2.682   0.121
    1STR   H108 7613   3.478   2.659   9.268
    1STR   O109 7614   3.338   2.788   9.317
    1STR   C110 7615   3.408   2.912   0.017
    1STR   H111 7616   3.515   2.895   0.028
    1STR   C112 7617   3.383   3.012   9.221
    1STR   H113 7618   3.278   3.039   9.214
    1STR   H114 7619   3.412   2.978   9.122
    1STR   H115 7620   3.440   3.104   9.236
    1STR   C116 7621   3.353   2.985   0.139
    1STR   H117 7622   3.397   3.085   0.139
    1STR   H118 7623   3.246   2.999   0.125
    1STR   O119 7624   3.377   2.923   0.264
    1STR   C120 7625   3.380   3.016   0.373
    1STR   H121 7626   3.455   3.093   0.355
    1STR   C122 7627   3.243   3.077   0.378
    1STR   H123 7628   3.169   2.998   0.366
    1STR   H124 7629   3.229   3.152   0.300
    1STR   H125 7630   3.226   3.123   0.474
    1STR   C126 7631   3.410   2.952   0.511
    1STR   H127 7632   3.392   3.026   0.589
    1STR   H128 7633   3.342   2.870   0.532
    1STR   O129 7634   3.544   2.911   0.529
    1STR   C130 7635   3.579   2.803   0.445
    1STR   H131 7636   3.489   2.753   0.410
    1STR   C132 7637   3.654   2.863   0.327
    1STR   H133 7638   3.689   2.788   0.258
    1STR   H134 7639   3.735   2.917   0.371
    1STR   H135 7640   3.602   2.935   0.266
    1STR   C136 7641   3.668   2.705   0.521
    1STR   H137 7642   3.733   2.652   0.452
    1STR   H138 7643   3.734   2.759   0.589
    1STR   O139 7644   3.590   2.611   0.593
    1STR   C140 7645   3.669   2.502   0.642
    1STR   H141 7646   3.776   2.522   0.633
    1STR   C142 7647   3.634   2.488   0.790
    1STR   H143 7648   3.528   2.466   0.802
    1STR   H144 7649   3.656   2.581   0.843
    1STR   H145 7650   3.692   2.408   0.835
    1STR   C146 7651   3.640   2.373   0.564
    1STR   H147 7652   3.704   2.293   0.602
    1STR   H148 7653   3.539   2.339   0.579
    1STR   O149 7654   3.674   2.392   0.428
    1STR   C150 7655   3.570   2.381   0.334
    1STR   H151 7656   3.475   2.357   0.379
    1STR   C152 7657   3.563   2.518   0.274
    1STR   H153 7658   3.534   2.504   0.173
    1STR   H154 7659   3.654   2.575   0.272
    1STR   H155 7660   3.487   2.578   0.319
    1STR   C156 7661   3.591   2.276   0.224
    1STR   H157 7662   3.500   2.270   0.165
    1STR   H158 7663   3.659   2.308   0.148
    1STR   O159 7664   3.631   2.155   0.285
    1STR   C160 7665   3.634   2.037   0.208
    1STR   H161 7666   3.536   1.999   0.197
    1STR   C162 7667   3.674   2.046   0.061
    1STR   H163 7668   3.727   2.138   0.040
    1STR   H164 7669   3.597   2.050   9.307
    1STR   H165 7670   3.731   1.958   0.037
    1STR   C166 7671   3.694   1.928   0.295
    1STR   H167 7672   3.734   1.845   0.238
    1STR   H168 7673   3.772   1.968   0.359
    1STR   O169 7674   3.581   1.887   0.370
    1STR   C170 7675   3.605   1.809   0.484
    1STR   H171 7676   3.692   1.745   0.468
    1STR   C172 7677   3.630   1.907   0.599
    1STR   H173 7678   3.547   1.976   0.611
    1STR   H174 7679   3.719   1.967   0.581
    1STR   H175 7680   3.646   1.855   0.694
    1STR   C176 7681   3.477   1.724   0.502
    1STR   H177 7682   3.494   1.647   0.577
    1STR   H178 7683   3.399   1.788   0.542
    1STR   O179 7684   3.422   1.666   0.383
    1STR   C180 7685   3.506   1.594   0.292
    1STR   H181 7686   3.572   1.667   0.248
    1STR   C182 7687   3.579   1.485   0.372
    1STR   H183 7688   3.509   1.429   0.435
    1STR   H184 7689   3.656   1.527   0.438
    1STR   H185 7690   3.629   1.413   0.308
    1STR   C186 7691   3.420   1.531   0.179
    1STR   H187 7692   3.435   1.423   0.174
    1STR   H188 7693   3.317   1.536   0.210
    1STR   O189 7694   3.427   1.589   0.047
    1STR   C190 7695   3.541   1.565   9.283
    1STR   H191 7696   3.621   1.629   9.318
    1STR   C192 7697   3.586   1.418   9.292
    1STR   H193 7698   3.503   1.350   9.271
    1STR   H194 7699   3.627   1.393   0.069
    1STR   H195 7700   3.664   1.395   9.220
    1STR   C196 7701   3.509   1.599   9.134
    1STR   H197 7702   3.574   1.540   9.069
    1STR   H198 7703   3.409   1.560   9.113
    1STR   O199 7704   3.509   1.736   9.091
    1STR   C200 7705   3.632   1.795   9.045
    1STR   H201 7706   3.703   1.793   9.127
    1STR   C202 7707   3.692   1.726   8.921
    1STR   H203 7708   3.626   1.733   8.835
    1STR   H204 7709   3.717   1.621   8.935
    1STR   H205 7710   3.786   1.775   8.894
    1STR   C206 7711   3.606   1.941   9.007
    1STR   H207 7712   3.531   1.940   8.928
    1STR   H208 7713   3.565   1.993   9.093
    1STR   O209 7714   3.727   2.006   8.964
    1STR   C210 7715   3.729   2.121   8.877
    1STR   H211 7716   3.829   2.113   8.835
    1STR   C212 7717   3.634   2.102   8.757
    1STR   H213 7718   3.534   2.142   8.767
    1STR   H214 7719   3.628   1.998   8.725
    1STR   H215 7720   3.677   2.157   8.676
    1STR   C216 7721   3.740   2.265   8.937
    1STR   H217 7722   3.666   2.281   9.014
    1STR   H218 7723   3.835   2.273   8.989
    1STR   O219 7724   3.733   2.370   8.838
    1STR   C220 7725   3.760   2.505   8.881
    1STR   H221 7726   3.839   2.505   8.957
    1STR   C222 7727   3.808   2.595   8.765
    1STR   H223 7728   3.735   2.599   8.685
    1STR   H224 7729   3.901   2.564   8.720
    1STR   H225 7730   3.825   2.697   8.800
    1STR   C226 7731   3.633   2.572   8.936
    1STR   H227 7732   3.605   2.660   8.879
    1STR   H228 7733   3.550   2.504   8.920
    1STR   O229 7734   3.643   2.601   9.075
    1STR   C230 7735   3.708   2.719   9.116
    1STR   H231 7736   3.800   2.728   9.059
    1STR   C232 7737   3.611   2.829   9.079
    1STR   H233 7738   3.510   2.796   9.102
    1STR   H234 7739   3.613   2.854   8.973
    1STR   H235 7740   3.632   2.921   9.134
    1STR   C236 7741   3.738   2.723   9.270
    1STR   H237 7742   3.773   2.823   9.291
    1STR   H238 7743   3.654   2.716   0.016
    1STR   O239 7744   3.837   2.634   9.319
    1STR   C240 7745   3.799   2.503   0.041
    1STR   H241 7746   3.692   2.500   0.055
    1STR   C242 7747   3.823   2.414   9.241
    1STR   H243 7748   3.918   2.437   9.195
    1STR   H244 7749   3.749   2.426   9.165
    1STR   H245 7750   3.817   2.310   9.269
    1STR   C246 7751   3.874   2.458   0.172
    1STR   H247 7752   3.974   2.497   0.171
    1STR   H248 7753   3.838   2.502   0.263
    1STR   O249 7754   3.872   2.315   0.188
    1STR   C250 7755   3.965   2.249   0.274
    1STR   H251 7756   4.059   2.303   0.282
    1STR   C252 7757   3.912   2.248   0.414
    1STR   H253 7758   3.817   2.197   0.422
    1STR   H254 7759   3.905   2.349   0.455
    1STR   H255 7760   3.980   2.194   0.476
    1STR   C256 7761   3.996   2.106   0.223
    1STR   H257 7762   4.101   2.084   0.215
    1STR   H258 7763   3.963   2.033   0.297
    1STR   O259 7764   3.926   2.074   0.103
    1STR   C260 7765   3.990   2.071   9.297
    1STR   H261 7766   4.069   2.004   9.320
    1STR   C262 7767   3.904   2.020   9.181
    1STR   H263 7768   3.824   2.091   9.164
    1STR   H264 7769   3.859   1.924   9.196
    1STR   H265 7770   3.961   2.012   9.089
    1STR   C266 7771   4.049   2.198   9.244
    1STR   H267 7772   4.146   2.169   9.215
    1STR   H268 7773   4.001   2.238   9.156
    1STR   O269 7774   4.051   2.295   0.020
    1STR   C270 7775   4.168   2.363   0.043
    1STR   H271 7776   4.146   2.407   0.137
    1STR   C272 7777   4.277   2.264   0.084
    1STR   H273 7778   4.300   2.184   0.017
    1STR   H274 7779   4.246   2.214   0.174
    1STR   H275 7780   4.370   2.309   0.109
    1STR   C276 7781   4.184   2.487   9.276
    1STR   H277 7782   4.287   2.519   9.264
    1STR   H278 7783   4.135   2.473   9.181
    1STR   O279 7784   4.107   2.590   0.013
    1STR   C280 7785   4.127   2.720   9.282
    1STR   H281 7786   4.233   2.732   9.269
    1STR   C282 7787   4.055   2.749   9.152
    1STR   H283 7788   4.031   2.657   9.100
    1STR   H284 7789   4.109   2.821   9.092
    1STR   H285 7790   3.961   2.800   9.167
    1STR   C286 7791   4.072   2.813   0.067
    1STR   H287 7792   4.114   2.912   0.058
    1STR   H288 7793   3.967   2.824   0.050
    1STR   O289 7794   4.087   2.765   0.199
    1STR   C290 7795   3.981   2.802   0.283
    1STR   H291 7796   3.893   2.749   0.248
    1STR   C292 7797   4.016   2.744   0.418
    1STR   H293 7798   4.116   2.777   0.448
    1STR   H294 7799   4.018   2.635   0.415
    1STR   H295 7800   3.945   2.773   0.495
    1STR   C296 7801   3.961   2.955   0.281
    1STR   H297 7802   3.928   2.989   0.379
    1STR   H298 7803   4.056   3.005   0.263
    1STR   O299 7804   3.862   2.982   0.179
    1STR   C300 7805   3.828   3.115   0.142
    1STR   H301 7806   3.721   3.114   0.119
    1STR   C302 7807   3.849   3.215   0.257
    1STR   H303 7808   3.951   3.212   0.295
    1STR   H304 7809   3.783   3.190   0.341
    1STR   H305 7810   3.827   3.317   0.227
    1STR   C306 7811   3.900   3.151   0.010
    1STR   H307 7812   3.932   3.255   0.012
    1STR   H308 7813   3.989   3.089   0.007
    1STR   O309 7814   3.823   3.127   9.212
    1STR    H1R 7815   3.975   3.031   9.118
    1STR    H1S 7816   3.860   3.073   8.882
    1STR    H1T 7817   3.715   3.089   8.981
    1STR    H1U 7818   3.817   2.942   8.986
    1STR    H1V 7819   4.007   3.297   9.122
    1STR    H1W 7820   3.903   3.298   8.985
    1STR    H1X 7821   4.186   3.253   9.147
    1STR    H1Y 7822   4.165   3.239   0.028
    1STR    H1Z 7823   4.244   3.157   0.248
    1STR    H20 7824   4.471   3.076   0.328
    1STR    H21 7825   4.350   2.954   0.370
    1STR    H22 7826   4.499   2.907   0.290
    1STR    H23 7827   4.506   2.789   9.275
    1STR    H27 7828   4.355   2.918   9.148
    1STR    H28 7829   2.946   2.058   0.741
    1STR    H29 7830   2.981   2.291   0.673
    1STR    H2A 7831   3.012   2.382   0.349
    1STR    H2B 7832   2.994   2.454   0.508
    1STR    H2C 7833   2.867   2.470   0.395
    1STR   BCK1 7834   2.841   2.048   2.208
    1STR    O03 7835   2.781   2.141   2.155
    1STR    N04 7836   2.902   1.950   2.142
    1STR    C05 7837   2.934   1.944   2.006
    1STR    C06 7838   2.938   2.061   1.928
    1STR    C07 7839   2.952   2.057   1.789
    1STR    N08 7840   2.920   2.172   1.718
    1STR    C09 7841   3.009   2.267   1.699
    1STR    O0A 7842   3.117   2.251   1.644
    1STR    O0B 7843   2.960   2.379   1.754
    1STR    C0C 7844   3.044   2.490   1.782
    1STR    C0D 7845   2.955   2.614   1.800
    1STR    C0E 7846   3.121   2.469   1.911
    1STR    O0F 7847   3.252   2.523   1.908
    1STR    C0G 7848   3.282   2.660   1.886
    1STR    C0H 7849   3.282   2.699   1.738
    1STR    C0I 7850   3.220   2.764   1.981
    1STR    O0J 7851   3.097   2.724   2.038
    1STR    C0K 7852   3.885   2.037   2.954
    1STR    C0M 7853   3.754   2.062   3.031
    1STR    C0N 7854   3.885   1.900   2.885
    1STR    O0O 7855   3.968   1.902   2.770
    1STR    C0P 7856   4.097   1.917   2.793
    1STR    O0Q 7857   4.147   1.910   2.903
    1STR    N0R 7858   4.174   1.934   2.688
    1STR    C0S 7859   4.149   1.942   2.553
    1STR    C0T 7860   4.096   1.837   2.479
    1STR    C0U 7861   4.109   1.839   2.340
    1STR    C0V 7862   4.161   1.948   2.272
    1STR    C0W 7863   4.175   1.947   2.123
    1STR    C0X 7864   4.197   2.060   2.345
    1STR    N0Y 7865   4.207   2.179   2.277
    1STR   BCK2 7866   4.247   2.289   2.334
    1STR    O10 7867   4.187   2.393   2.329
    1STR    C13 7868   4.196   2.054   2.486
    1STR    C14 7869   2.991   1.936   1.729
    1STR    C15 7870   2.994   1.818   1.807
    1STR    C16 7871   2.952   1.820   1.942
    1STR    C17 7872   2.930   1.690   2.017
    1STR    H1B 7873   2.945   1.881   2.203
    1STR    H1C 7874   2.929   2.157   1.976
    1STR    H1D 7875   2.838   2.220   1.752
    1STR    H1E 7876   3.116   2.497   1.701
    1STR    H1F 7877   2.910   2.610   1.898
    1STR    H1G 7878   3.010   2.707   1.799
    1STR    H1H 7879   2.874   2.625   1.729
    1STR    H1I 7880   3.124   2.363   1.931
    1STR    H1J 7881   3.067   2.503   1.997
    1STR    H1K 7882   3.387   2.667   1.913
    1STR    H1M 7883   3.184   2.700   1.694
    1STR    H1N 7884   3.338   2.628   1.678
    1STR    H1O 7885   3.326   2.797   1.723
    1STR    H1P 7886   3.290   2.787   2.062
    1STR    H1Q 7887   3.211   2.856   1.925
    1STR   C010 7888   3.034   2.825   2.114
    1STR   H011 7889   3.108   2.866   2.184
    1STR   C012 7890   2.992   2.930   2.014
    1STR   H013 7891   2.893   2.967   2.038
    1STR   H014 7892   2.988   2.894   1.911
    1STR   H015 7893   3.066   3.009   2.014
    1STR   C016 7894   2.918   2.770   2.198
    1STR   H017 7895   2.844   2.847   2.221
    1STR   H018 7896   2.864   2.695   2.142
    1STR   O019 7897   2.972   2.726   2.322
    1STR   C020 7898   2.931   2.599   2.371
    1STR   H021 7899   2.827   2.596   2.388
    1STR   C022 7900   2.941   2.488   2.268
    1STR   H023 7901   2.841   2.455   2.245
    1STR   H024 7902   2.998   2.402   2.296
    1STR   H025 7903   2.982   2.521   2.175
    1STR   C026 7904   2.990   2.576   2.510
    1STR   H027 7905   2.924   2.519   2.574
    1STR   H028 7906   3.080   2.519   2.501
    1STR   O029 7907   3.021   2.695   2.579
    1STR   C030 7908   3.146   2.691   2.647
    1STR   H031 7909   3.221   2.669   2.571
    1STR   C032 7910   3.164   2.836   2.693
    1STR   H033 7911   3.077   2.869   2.749
    1STR   H034 7912   3.176   2.902   2.607
    1STR   H035 7913   3.251   2.847   2.758
    1STR   C036 7914   3.159   2.590   2.764
    1STR   H037 7915   3.265   2.581   2.790
    1STR   H038 7916   3.110   2.632   2.852
    1STR   O039 7917   3.105   2.460   2.740
    1STR   C040 7918   3.144   2.355   2.830
    1STR   H041 7919   3.247   2.331   2.810
    1STR   C042 7920   3.139   2.398   2.976
    1STR   H043 7921   3.050   2.456   2.998
    1STR   H044 7922   3.225   2.459   3.003
    1STR   H045 7923   3.138   2.311   3.040
    1STR   C046 7924   3.055   2.231   2.796
    1STR   H047 7925   2.960   2.257   2.829
    1STR   H048 7926   3.033   2.224   2.691
    1STR   O049 7927   3.095   2.104   2.852
    1STR   C050 7928   3.032   1.978   2.812
    1STR   H051 7929   3.005   1.937   2.909
    1STR   C052 7930   2.903   1.995   2.734
    1STR   H053 7931   2.920   2.045   2.640
    1STR   H054 7932   2.823   2.042   2.788
    1STR   H055 7933   2.868   1.900   2.700
    1STR   C056 7934   3.120   1.868   2.740
    1STR   H057 7935   3.222   1.898   2.726
    1STR   H058 7936   3.131   1.782   2.806
    1STR   O059 7937   3.073   1.826   2.609
    1STR   C060 7938   3.156   1.729   2.544
    1STR   H061 7939   3.259   1.757   2.562
    1STR   C062 7940   3.129   1.593   2.610
    1STR   H063 7941   3.023   1.576   2.628
    1STR   H064 7942   3.179   1.585   2.706
    1STR   H065 7943   3.161   1.509   2.549
    1STR   C066 7944   3.145   1.720   2.388
    1STR   H067 7945   3.242   1.687   2.353
    1STR   H068 7946   3.083   1.638   2.356
    1STR   O069 7947   3.100   1.835   2.315
    1STR   C070 7948   3.202   1.894   2.234
    1STR   H071 7949   3.289   1.891   2.298
    1STR   C072 7950   3.234   1.817   2.105
    1STR   H073 7951   3.168   1.841   2.025
    1STR   H074 7952   3.235   1.709   2.117
    1STR   H075 7953   3.327   1.849   2.061
    1STR   C076 7954   3.178   2.044   2.210
    1STR   H077 7955   3.085   2.077   2.250
    1STR   H078 7956   3.251   2.103   2.262
    1STR   O079 7957   3.164   2.079   2.075
    1STR   C080 7958   3.276   2.139   2.022
    1STR   H081 7959   3.359   2.072   2.046
    1STR   C082 7960   3.271   2.138   1.870
    1STR   H083 7961   3.254   2.238   1.831
    1STR   H084 7962   3.198   2.069   1.832
    1STR   H085 7963   3.363   2.105   1.824
    1STR   C086 7964   3.299   2.276   2.088
    1STR   H087 7965   3.378   2.242   2.149
    1STR   H088 7966   3.343   2.349   2.024
    1STR   O089 7967   3.204   2.336   2.177
    1STR   C090 7968   3.270   2.420   2.274
    1STR   H091 7969   3.376   2.417   2.264
    1STR   C092 7970   3.254   2.570   2.257
    1STR   H093 7971   3.300   2.599   2.164
    1STR   H094 7972   3.301   2.625   2.338
    1STR   H095 7973   3.154   2.606   2.253
    1STR   C096 7974   3.246   2.370   2.415
    1STR   H097 7975   3.278   2.443   2.488
    1STR   H098 7976   3.141   2.349   2.425
    1STR   O099 7977   3.308   2.247   2.443
    1STR   C100 7978   3.266   2.192   2.563
    1STR   H101 7979   3.207   2.267   2.611
    1STR   C102 7980   3.183   2.077   2.521
    1STR   H103 7981   3.116   2.102   2.443
    1STR   H104 7982   3.118   2.056   2.601
    1STR   H105 7983   3.238   1.987   2.498
    1STR   C106 7984   3.375   2.154   2.661
    1STR   H107 7985   3.451   2.099   2.607
    1STR   H108 7986   3.410   2.250   2.696
    1STR   O109 7987   3.328   2.081   2.772
    1STR   C110 7988   3.410   2.056   2.885
    1STR   H111 7989   3.507   2.025   2.848
    1STR   C112 7990   3.416   2.182   2.970
    1STR   H113 7991   3.320   2.198   3.018
    1STR   H114 7992   3.434   2.269   2.909
    1STR   H115 7993   3.491   2.177   3.049
    1STR   C116 7994   3.350   1.946   2.976
    1STR   H117 7995   3.404   1.940   3.070
    1STR   H118 7996   3.249   1.977   3.004
    1STR   O119 7997   3.337   1.817   2.920
    1STR   C120 7998   3.453   1.738   2.912
    1STR   H121 7999   3.532   1.779   2.975
    1STR   C122 8000   3.412   1.600   2.965
    1STR   H123 8001   3.327   1.563   2.908
    1STR   H124 8002   3.382   1.606   3.069
    1STR   H125 8003   3.493   1.528   2.955
    1STR   C126 8004   3.502   1.734   2.767
    1STR   H127 8005   3.487   1.830   2.719
    1STR   H128 8006   3.609   1.713   2.767
    1STR   O129 8007   3.432   1.637   2.691
    1STR   C130 8008   3.510   1.575   2.590
    1STR   H131 8009   3.592   1.523   2.638
    1STR   C132 8010   3.426   1.468   2.519
    1STR   H133 8011   3.354   1.514   2.453
    1STR   H134 8012   3.373   1.406   2.591
    1STR   H135 8013   3.489   1.403   2.458
    1STR   C136 8014   3.568   1.674   2.488
    1STR   H137 8015   3.666   1.706   2.523
    1STR   H138 8016   3.591   1.616   2.399
    1STR   O139 8017   3.488   1.789   2.459
    1STR   C140 8018   3.544   1.866   2.351
    1STR   H141 8019   3.649   1.861   2.367
    1STR   C142 8020   3.516   1.785   2.225
    1STR   H143 8021   3.422   1.734   2.233
    1STR   H144 8022   3.584   1.703   2.209
    1STR   H145 8023   3.520   1.847   2.135
    1STR   C146 8024   3.504   2.018   2.339
    1STR   H147 8025   3.491   2.043   2.233
    1STR   H148 8026   3.409   2.035   2.388
    1STR   O149 8027   3.591   2.120   2.393
    1STR   C150 8028   3.572   2.255   2.347
    1STR   H151 8029   3.474   2.247   2.310
    1STR   C152 8030   3.565   2.364   2.451
    1STR   H153 8031   3.519   2.455   2.416
    1STR   H154 8032   3.664   2.393   2.477
    1STR   H155 8033   3.510   2.337   2.538
    1STR   C156 8034   3.655   2.311   2.231
    1STR   H157 8035   3.727   2.385   2.264
    1STR   H158 8036   3.709   2.232   2.181
    1STR   O159 8037   3.557   2.371   2.149
    1STR   C160 8038   3.568   2.502   2.098
    1STR   H161 8039   3.481   2.516   2.035
    1STR   C162 8040   3.570   2.618   2.196
    1STR   H163 8041   3.669   2.637   2.235
    1STR   H164 8042   3.505   2.607   2.281
    1STR   H165 8043   3.537   2.706   2.143
    1STR   C166 8044   3.687   2.507   2.011
    1STR   H167 8045   3.694   2.596   1.952
    1STR   H168 8046   3.771   2.512   2.080
    1STR   O169 8047   3.704   2.385   1.943
    1STR   C170 8048   3.624   2.326   1.842
    1STR   H171 8049   3.688   2.296   1.760
    1STR   C172 8050   3.586   2.197   1.909
    1STR   H173 8051   3.575   2.111   1.844
    1STR   H174 8052   3.501   2.213   1.970
    1STR   H175 8053   3.657   2.174   1.986
    1STR   C176 8054   3.511   2.403   1.777
    1STR   H177 8055   3.487   2.361   1.680
    1STR   H178 8056   3.421   2.386   1.835
    1STR   O179 8057   3.532   2.543   1.773
    1STR   C180 8058   3.640   2.598   1.702
    1STR   H181 8059   3.734   2.564   1.745
    1STR   C182 8060   3.635   2.553   1.555
    1STR   H183 8061   3.536   2.569   1.513
    1STR   H184 8062   3.658   2.447   1.547
    1STR   H185 8063   3.709   2.606   1.495
    1STR   C186 8064   3.626   2.751   1.722
    1STR   H187 8065   3.717   2.800   1.687
    1STR   H188 8066   3.544   2.789   1.661
    1STR   O189 8067   3.598   2.784   1.859
    1STR   C190 8068   3.610   2.920   1.900
    1STR   H191 8069   3.682   2.970   1.835
    1STR   C192 8070   3.477   2.995   1.888
    1STR   H193 8071   3.406   2.954   1.958
    1STR   H194 8072   3.437   2.988   1.787
    1STR   H195 8073   3.490   3.100   1.913
    1STR   C196 8074   3.668   2.925   2.043
    1STR   H197 8075   3.723   2.831   2.056
    1STR   H198 8076   3.740   3.006   2.047
    1STR   O199 8077   3.577   2.937   2.155
    1STR   C200 8078   3.647   2.928   2.281
    1STR   H201 8079   3.727   2.857   2.265
    1STR   C202 8080   3.708   3.066   2.314
    1STR   H203 8081   3.631   3.142   2.320
    1STR   H204 8082   3.781   3.098   2.241
    1STR   H205 8083   3.760   3.064   2.410
    1STR   C206 8084   3.565   2.870   2.400
    1STR   H207 8085   3.549   2.948   2.474
    1STR   H208 8086   3.466   2.840   2.366
    1STR   O209 8087   3.628   2.754   2.461
    1STR   C210 8088   3.625   2.744   2.604
    1STR   H211 8089   3.674   2.834   2.641
    1STR   C212 8090   3.481   2.741   2.654
    1STR   H213 8091   3.432   2.653   2.612
    1STR   H214 8092   3.427   2.830   2.624
    1STR   H215 8093   3.477   2.733   2.763
    1STR   C216 8094   3.702   2.623   2.665
    1STR   H217 8095   3.793   2.604   2.609
    1STR   H218 8096   3.735   2.652   2.764
    1STR   O219 8097   3.628   2.500   2.675
    1STR   C220 8098   3.693   2.397   2.752
    1STR   H221 8099   3.795   2.424   2.758
    1STR   C222 8100   3.639   2.417   2.894
    1STR   H223 8101   3.534   2.448   2.891
    1STR   H224 8102   3.690   2.497   2.946
    1STR   H225 8103   3.649   2.328   2.955
    1STR   C226 8104   3.697   2.246   2.704
    1STR   H227 8105   3.737   2.189   2.785
    1STR   H228 8106   3.600   2.208   2.701
    1STR   O229 8107   3.757   2.199   2.580
    1STR   C230 8108   3.797   2.060   2.557
    1STR   H231 8109   3.888   2.055   2.615
    1STR   C232 8110   3.702   1.964   2.628
    1STR   H233 8111   3.606   1.960   2.580
    1STR   H234 8112   3.684   1.992   2.731
    1STR   H235 8113   3.745   1.865   2.631
    1STR   C236 8114   3.845   1.999   2.414
    1STR   H237 8115   3.945   2.029   2.397
    1STR   H238 8116   3.853   1.894   2.436
    1STR   O239 8117   3.784   2.009   2.280
    1STR   C240 8118   3.842   1.935   2.168
    1STR   H241 8119   3.938   1.982   2.155
    1STR   C242 8120   3.855   1.782   2.191
    1STR   H243 8121   3.771   1.725   2.154
    1STR   H244 8122   3.868   1.749   2.293
    1STR   H245 8123   3.937   1.743   2.130
    1STR   C246 8124   3.771   1.945   2.029
    1STR   H247 8125   3.763   1.849   1.979
    1STR   H248 8126   3.668   1.971   2.049
    1STR   O249 8127   3.818   2.037   1.929
    1STR   C250 8128   3.934   2.015   1.849
    1STR   H251 8129   4.017   2.012   1.917
    1STR   C252 8130   3.927   1.881   1.775
    1STR   H253 8131   3.834   1.872   1.718
    1STR   H254 8132   3.934   1.797   1.843
    1STR   H255 8133   4.010   1.872   1.705
    1STR   C256 8134   3.953   2.134   1.748
    1STR   H257 8135   4.009   2.096   1.662
    1STR   H258 8136   3.857   2.162   1.706
    1STR   O259 8137   4.030   2.249   1.788
    1STR   C260 8138   3.963   2.343   1.870
    1STR   H261 8139   3.871   2.352   1.817
    1STR   C262 8140   3.957   2.290   2.014
    1STR   H263 8141   3.867   2.235   2.035
    1STR   H264 8142   3.961   2.371   2.086
    1STR   H265 8143   4.039   2.222   2.032
    1STR   C266 8144   4.009   2.489   1.866
    1STR   H267 8145   4.111   2.488   1.895
    1STR   H268 8146   4.000   2.527   1.765
    1STR   O269 8147   3.948   2.580   1.958
    1STR   C270 8148   4.005   2.710   1.961
    1STR   H271 8149   4.112   2.702   1.943
    1STR   C272 8150   3.947   2.797   1.850
    1STR   H273 8151   3.934   2.743   1.757
    1STR   H274 8152   4.011   2.884   1.833
    1STR   H275 8153   3.850   2.832   1.877
    1STR   C276 8154   3.986   2.783   2.096
    1STR   H277 8155   4.083   2.812   2.132
    1STR   H278 8156   3.934   2.876   2.082
    1STR   O279 8157   3.907   2.722   2.196
    1STR   C280 8158   3.968   2.702   2.323
    1STR   H281 8159   4.075   2.691   2.314
    1STR   C282 8160   3.935   2.799   2.438
    1STR   H283 8161   3.845   2.856   2.429
    1STR   H284 8162   4.014   2.868   2.462
    1STR   H285 8163   3.924   2.745   2.532
    1STR   C286 8164   3.914   2.567   2.359
    1STR   H287 8165   3.809   2.572   2.388
    1STR   H288 8166   3.920   2.509   2.268
    1STR   O289 8167   3.996   2.516   2.462
    1STR   C290 8168   3.951   2.390   2.505
    1STR   H291 8169   3.852   2.408   2.544
    1STR   C292 8170   3.940   2.289   2.391
    1STR   H293 8171   4.006   2.211   2.420
    1STR   H294 8172   3.971   2.318   2.292
    1STR   H295 8173   3.842   2.248   2.379
    1STR   C296 8174   4.033   2.336   2.623
    1STR   H297 8175   4.003   2.235   2.649
    1STR   H298 8176   4.138   2.333   2.598
    1STR   O299 8177   4.006   2.422   2.730
    1STR   C300 8178   4.033   2.380   2.862
    1STR   H301 8179   4.138   2.354   2.864
    1STR   C302 8180   3.998   2.512   2.931
    1STR   H303 8181   3.895   2.542   2.914
    1STR   H304 8182   4.058   2.594   2.892
    1STR   H305 8183   4.012   2.504   3.039
    1STR   C306 8184   3.957   2.268   2.936
    1STR   H307 8185   4.017   2.247   3.025
    1STR   H308 8186   3.863   2.307   2.975
    1STR   O309 8187   3.932   2.144   2.870
    1STR    H1R 8188   3.961   2.027   3.029
    1STR    H1S 8189   3.731   1.977   3.095
    1STR    H1T 8190   3.672   2.074   2.963
    1STR    H1U 8191   3.758   2.150   3.095
    1STR    H1V 8192   3.786   1.864   2.860
    1STR    H1W 8193   3.925   1.825   2.954
    1STR    H1X 8194   4.272   1.933   2.714
    1STR    H1Y 8195   4.053   1.752   2.530
    1STR    H1Z 8196   4.081   1.753   2.282
    1STR    H20 8197   4.126   1.863   2.076
    1STR    H21 8198   4.137   2.039   2.080
    1STR    H22 8199   4.280   1.946   2.103
    1STR    H23 8200   4.152   2.194   2.193
    1STR    H27 8201   4.227   2.135   2.550
    1STR    H28 8202   3.016   1.935   1.624
    1STR    H29 8203   3.022   1.724   1.762
    1STR    H2A 8204   2.831   1.693   2.064
    1STR    H2B 8205   3.004   1.677   2.096
    1STR    H2C 8206   2.933   1.604   1.951
    1STR   BCK1 8207   2.806   2.621   4.297
    1STR    O03 8208   2.860   2.607   4.189
    1STR    N04 8209   2.821   2.730   4.372
    1STR    C05 8210   2.924   2.824   4.382
    1STR    C06 8211   2.953   2.856   4.515
    1STR    C07 8212   3.054   2.945   4.553
    1STR    N08 8213   3.083   2.944   4.687
    1STR    C09 8214   3.117   3.041   4.770
    1STR    O0A 8215   3.148   3.154   4.733
    1STR    O0B 8216   3.104   3.006   4.900
    1STR    C0C 8217   3.132   2.876   4.957
    1STR    C0D 8218   3.109   2.894   5.109
    1STR    C0E 8219   3.057   2.749   4.917
    1STR    O0F 8220   3.071   2.704   4.784
    1STR    C0G 8221   2.979   2.601   4.745
    1STR    C0H 8222   3.034   2.550   4.612
    1STR    C0I 8223   2.957   2.492   4.852
    1STR    O0J 8224   2.934   2.361   4.803
    1STR    C0K 8225   4.213   2.443   4.653
    1STR    C0M 8226   4.143   2.324   4.706
    1STR    C0N 8227   4.358   2.455   4.692
    1STR    O0O 8228   4.363   2.559   4.787
    1STR    C0P 8229   4.306   2.529   4.899
    1STR    O0Q 8230   4.313   2.416   4.948
    1STR    N0R 8231   4.226   2.628   4.938
    1STR    C0S 8232   4.122   2.624   5.030
    1STR    C0T 8233   4.078   2.743   5.090
    1STR    C0U 8234   3.972   2.740   5.183
    1STR    C0V 8235   3.905   2.619   5.213
    1STR    C0W 8236   3.787   2.624   5.308
    1STR    C0X 8237   3.951   2.499   5.156
    1STR    N0Y 8238   3.898   2.377   5.195
    1STR   BCK2 8239   3.913   2.262   5.129
    1STR    O10 8240   3.919   2.254   5.007
    1STR    C13 8241   4.059   2.503   5.066
    1STR    C14 8242   3.129   3.011   4.453
    1STR    C15 8243   3.101   2.980   4.317
    1STR    C16 8244   2.998   2.889   4.281
    1STR    C17 8245   2.965   2.870   4.135
    1STR    H1B 8246   2.747   2.743   4.442
    1STR    H1C 8247   2.899   2.803   4.590
    1STR    H1D 8248   3.068   2.854   4.733
    1STR    H1E 8249   3.234   2.852   4.932
    1STR    H1F 8250   3.023   2.958   5.130
    1STR    H1G 8251   3.093   2.800   5.159
    1STR    H1H 8252   3.194   2.937   5.161
    1STR    H1I 8253   2.953   2.756   4.941
    1STR    H1J 8254   3.099   2.674   4.982
    1STR    H1K 8255   2.882   2.645   4.726
    1STR    H1M 8256   3.139   2.527   4.622
    1STR    H1N 8257   3.024   2.619   4.530
    1STR    H1O 8258   2.990   2.460   4.573
    1STR    H1P 8259   3.031   2.492   4.931
    1STR    H1Q 8260   2.867   2.516   4.906
    1STR   C010 8261   3.046   2.283   4.767
    1STR   H011 8262   3.120   2.339   4.711
    1STR   C012 8263   3.106   2.241   4.902
    1STR   H013 8264   3.067   2.150   4.940
    1STR   H014 8265   3.096   2.314   4.980
    1STR   H015 8266   3.210   2.225   4.900
    1STR   C016 8267   2.996   2.167   4.677
    1STR   H017 8268   3.016   2.070   4.718
    1STR   H018 8269   2.893   2.169   4.696
    1STR   O019 8270   3.024   2.166   4.536
    1STR   C020 8271   2.929   2.111   4.442
    1STR   H021 8272   2.851   2.053   4.490
    1STR   C022 8273   2.874   2.235   4.378
    1STR   H023 8274   2.868   2.229   4.270
    1STR   H024 8275   2.932   2.324   4.401
    1STR   H025 8276   2.775   2.250   4.417
    1STR   C026 8277   2.995   2.024   4.331
    1STR   H027 8278   3.074   2.090   4.309
    1STR   H028 8279   3.037   1.940   4.382
    1STR   O029 8280   2.930   1.978   4.208
    1STR   C030 8281   3.021   1.939   4.099
    1STR   H031 8282   3.106   1.901   4.152
    1STR   C032 8283   3.004   1.815   4.008
    1STR   H033 8284   3.095   1.804   3.948
    1STR   H034 8285   2.926   1.824   3.933
    1STR   H035 8286   2.996   1.720   4.057
    1STR   C036 8287   3.057   2.051   3.998
    1STR   H037 8288   3.161   2.041   3.971
    1STR   H038 8289   3.005   2.035   3.904
    1STR   O039 8290   3.021   2.180   4.041
    1STR   C040 8291   3.106   2.287   4.005
    1STR   H041 8292   3.190   2.268   4.069
    1STR   C042 8293   3.156   2.298   3.859
    1STR   H043 8294   3.079   2.329   3.789
    1STR   H044 8295   3.199   2.206   3.821
    1STR   H045 8296   3.233   2.374   3.854
    1STR   C046 8297   3.043   2.417   4.055
    1STR   H047 8298   2.995   2.473   3.976
    1STR   H048 8299   2.965   2.394   4.127
    1STR   O049 8300   3.143   2.497   4.113
    1STR   C050 8301   3.146   2.490   4.255
    1STR   H051 8302   3.053   2.522   4.300
    1STR   C052 8303   3.180   2.351   4.308
    1STR   H053 8304   3.281   2.324   4.285
    1STR   H054 8305   3.112   2.279   4.268
    1STR   H055 8306   3.170   2.344   4.417
    1STR   C056 8307   3.252   2.586   4.296
    1STR   H057 8308   3.340   2.569   4.236
    1STR   H058 8309   3.217   2.687   4.276
    1STR   O059 8310   3.274   2.555   4.433
    1STR   C060 8311   3.357   2.642   4.503
    1STR   H061 8312   3.446   2.644   4.447
    1STR   C062 8313   3.287   2.773   4.503
    1STR   H063 8314   3.182   2.748   4.503
    1STR   H064 8315   3.304   2.831   4.413
    1STR   H065 8316   3.302   2.832   4.592
    1STR   C066 8317   3.385   2.598   4.645
    1STR   H067 8318   3.483   2.634   4.677
    1STR   H068 8319   3.311   2.644   4.711
    1STR   O069 8320   3.374   2.458   4.649
    1STR   C070 8321   3.401   2.402   4.775
    1STR   H071 8322   3.502   2.431   4.801
    1STR   C072 8323   3.317   2.464   4.886
    1STR   H073 8324   3.218   2.483   4.848
    1STR   H074 8325   3.357   2.560   4.919
    1STR   H075 8326   3.311   2.399   4.973
    1STR   C076 8327   3.401   2.249   4.757
    1STR   H077 8328   3.486   2.238   4.694
    1STR   H078 8329   3.428   2.200   4.848
    1STR   O079 8330   3.290   2.182   4.694
    1STR   C080 8331   3.281   2.039   4.711
    1STR   H081 8332   3.382   2.016   4.732
    1STR   C082 8333   3.229   1.976   4.841
    1STR   H083 8334   3.123   1.976   4.855
    1STR   H084 8335   3.270   2.023   4.929
    1STR   H085 8336   3.259   1.871   4.847
    1STR   C086 8337   3.235   1.961   4.584
    1STR   H087 8338   3.274   1.860   4.591
    1STR   H088 8339   3.128   1.953   4.580
    1STR   O089 8340   3.259   2.020   4.457
    1STR   C090 8341   3.308   1.936   4.352
    1STR   H091 8342   3.410   1.916   4.381
    1STR   C092 8343   3.254   1.791   4.343
    1STR   H093 8344   3.287   1.743   4.250
    1STR   H094 8345   3.147   1.780   4.344
    1STR   H095 8346   3.293   1.728   4.423
    1STR   C096 8347   3.307   2.012   4.216
    1STR   H097 8348   3.319   1.942   4.134
    1STR   H098 8349   3.217   2.062   4.192
    1STR   O099 8350   3.381   2.130   4.200
    1STR   C100 8351   3.416   2.158   4.066
    1STR   H101 8352   3.337   2.137   3.996
    1STR   C102 8353   3.448   2.308   4.058
    1STR   H103 8354   3.514   2.336   4.139
    1STR   H104 8355   3.363   2.373   4.072
    1STR   H105 8356   3.491   2.335   3.962
    1STR   C106 8357   3.532   2.069   4.024
    1STR   H107 8358   3.543   2.087   3.918
    1STR   H108 8359   3.617   2.103   4.077
    1STR   O109 8360   3.519   1.929   4.037
    1STR   C110 8361   3.571   1.856   4.150
    1STR   H111 8362   3.485   1.801   4.187
    1STR   C112 8363   3.661   1.753   4.084
    1STR   H113 8364   3.749   1.802   4.043
    1STR   H114 8365   3.609   1.705   4.001
    1STR   H115 8366   3.690   1.676   4.154
    1STR   C116 8367   3.635   1.923   4.277
    1STR   H117 8368   3.631   1.854   4.362
    1STR   H118 8369   3.737   1.942   4.259
    1STR   O119 8370   3.579   2.047   4.314
    1STR   C120 8371   3.591   2.107   4.443
    1STR   H121 8372   3.680   2.156   4.464
    1STR   C122 8373   3.505   2.235   4.435
    1STR   H123 8374   3.398   2.217   4.446
    1STR   H124 8375   3.520   2.285   4.340
    1STR   H125 8376   3.533   2.309   4.508
    1STR   C126 8377   3.565   2.027   4.571
    1STR   H127 8378   3.601   2.092   4.648
    1STR   H128 8379   3.461   2.029   4.560
    1STR   O129 8380   3.605   1.895   4.611
    1STR   C130 8381   3.552   1.846   4.740
    1STR   H131 8382   3.448   1.820   4.726
    1STR   C132 8383   3.626   1.714   4.756
    1STR   H133 8384   3.733   1.731   4.762
    1STR   H134 8385   3.608   1.650   4.669
    1STR   H135 8386   3.592   1.662   4.845
    1STR   C136 8387   3.568   1.933   4.874
    1STR   H137 8388   3.665   1.908   4.916
    1STR   H138 8389   3.568   2.039   4.851
    1STR   O139 8390   3.473   1.923   4.983
    1STR   C140 8391   3.493   2.003   5.105
    1STR   H141 8392   3.460   1.935   5.183
    1STR   C142 8393   3.638   2.030   5.138
    1STR   H143 8394   3.681   2.103   5.069
    1STR   H144 8395   3.698   1.940   5.136
    1STR   H145 8396   3.647   2.073   5.238
    1STR   C146 8397   3.404   2.132   5.130
    1STR   H147 8398   3.375   2.185   5.041
    1STR   H148 8399   3.308   2.091   5.164
    1STR   O149 8400   3.447   2.224   5.234
    1STR   C150 8401   3.500   2.357   5.207
    1STR   H151 8402   3.578   2.368   5.283
    1STR   C152 8403   3.572   2.368   5.074
    1STR   H153 8404   3.525   2.318   4.992
    1STR   H154 8405   3.671   2.325   5.081
    1STR   H155 8406   3.579   2.472   5.046
    1STR   C156 8407   3.408   2.482   5.232
    1STR   H157 8408   3.321   2.477   5.167
    1STR   H158 8409   3.373   2.475   5.334
    1STR   O159 8410   3.474   2.611   5.212
    1STR   C160 8411   3.391   2.730   5.219
    1STR   H161 8412   3.307   2.714   5.152
    1STR   C162 8413   3.340   2.747   5.363
    1STR   H163 8414   3.278   2.664   5.397
    1STR   H164 8415   3.279   2.836   5.372
    1STR   H165 8416   3.423   2.756   5.433
    1STR   C166 8417   3.461   2.865   5.175
    1STR   H167 8418   3.450   2.940   5.252
    1STR   H168 8419   3.569   2.851   5.165
    1STR   O169 8420   3.408   2.919   5.053
    1STR   C170 8421   3.400   3.062   5.022
    1STR   H171 8422   3.342   3.064   4.930
    1STR   C172 8423   3.321   3.152   5.119
    1STR   H173 8424   3.353   3.142   5.223
    1STR   H174 8425   3.214   3.137   5.112
    1STR   H175 8426   3.333   3.257   5.091
    1STR   C176 8427   3.530   3.130   4.978
    1STR   H177 8428   3.530   3.148   4.870
    1STR   H178 8429   3.543   3.227   5.024
    1STR   O179 8430   3.633   3.046   5.020
    1STR   C180 8431   3.708   2.988   4.918
    1STR   H181 8432   3.766   3.068   4.872
    1STR   C182 8433   3.798   2.903   5.004
    1STR   H183 8434   3.834   2.961   5.089
    1STR   H184 8435   3.886   2.867   4.954
    1STR   H185 8436   3.744   2.816   5.043
    1STR   C186 8437   3.627   2.913   4.808
    1STR   H187 8438   3.652   2.808   4.801
    1STR   H188 8439   3.521   2.913   4.831
    1STR   O189 8440   3.655   2.978   4.683
    1STR   C190 8441   3.554   2.973   4.582
    1STR   H191 8442   3.462   2.941   4.628
    1STR   C192 8443   3.532   3.118   4.538
    1STR   H193 8444   3.624   3.160   4.497
    1STR   H194 8445   3.501   3.180   4.622
    1STR   H195 8446   3.455   3.124   4.462
    1STR   C196 8447   3.584   2.884   4.458
    1STR   H197 8448   3.497   2.879   4.396
    1STR   H198 8449   3.651   2.933   4.388
    1STR   O199 8450   3.630   2.754   4.491
    1STR   C200 8451   3.689   2.670   4.389
    1STR   H201 8452   3.786   2.711   4.364
    1STR   C202 8453   3.712   2.534   4.454
    1STR   H203 8454   3.627   2.508   4.515
    1STR   H204 8455   3.802   2.532   4.513
    1STR   H205 8456   3.724   2.454   4.381
    1STR   C206 8457   3.607   2.637   4.262
    1STR   H207 8458   3.671   2.593   4.188
    1STR   H208 8459   3.538   2.555   4.282
    1STR   O209 8460   3.537   2.748   4.210
    1STR   C210 8461   3.557   2.774   4.072
    1STR   H211 8462   3.662   2.776   4.050
    1STR   C212 8463   3.495   2.664   3.984
    1STR   H213 8464   3.389   2.651   4.003
    1STR   H214 8465   3.544   2.569   4.001
    1STR   H215 8466   3.509   2.688   3.878
    1STR   C216 8467   3.501   2.914   4.049
    1STR   H217 8468   3.491   2.935   3.943
    1STR   H218 8469   3.399   2.917   4.089
    1STR   O219 8470   3.578   3.014   4.117
    1STR   C220 8471   3.709   3.042   4.067
    1STR   H221 8472   3.771   2.953   4.066
    1STR   C222 8473   3.703   3.095   3.923
    1STR   H223 8474   3.632   3.177   3.915
    1STR   H224 8475   3.674   3.017   3.852
    1STR   H225 8476   3.801   3.131   3.891
    1STR   C226 8477   3.775   3.145   4.160
    1STR   H227 8478   3.868   3.182   4.117
    1STR   H228 8479   3.710   3.232   4.170
    1STR   O229 8480   3.802   3.099   4.293
    1STR   C230 8481   3.883   2.983   4.309
    1STR   H231 8482   3.829   2.897   4.273
    1STR   C232 8483   4.013   2.994   4.227
    1STR   H233 8484   4.064   3.089   4.244
    1STR   H234 8485   3.996   2.984   4.121
    1STR   H235 8486   4.080   2.913   4.254
    1STR   C236 8487   3.903   2.965   4.461
    1STR   H237 8488   3.945   3.057   4.500
    1STR   H238 8489   3.810   2.960   4.513
    1STR   O239 8490   3.975   2.847   4.499
    1STR   C240 8491   3.987   2.817   4.639
    1STR   H241 8492   4.083   2.772   4.658
    1STR   C242 8493   3.995   2.942   4.724
    1STR   H243 8494   3.897   2.986   4.735
    1STR   H244 8495   4.055   3.017   4.678
    1STR   H245 8496   4.038   2.921   4.822
    1STR   C246 8497   3.882   2.716   4.691
    1STR   H247 8498   3.863   2.752   4.789
    1STR   H248 8499   3.788   2.725   4.641
    1STR   O249 8500   3.923   2.578   4.697
    1STR   C250 8501   3.859   2.488   4.792
    1STR   H251 8502   3.943   2.437   4.839
    1STR   C252 8503   3.787   2.560   4.904
    1STR   H253 8504   3.690   2.601   4.874
    1STR   H254 8505   3.847   2.636   4.952
    1STR   H255 8506   3.771   2.488   4.982
    1STR   C256 8507   3.762   2.377   4.743
    1STR   H257 8508   3.721   2.325   4.830
    1STR   H258 8509   3.678   2.426   4.697
    1STR   O259 8510   3.800   2.277   4.650
    1STR   C260 8511   3.875   2.167   4.699
    1STR   H261 8512   3.953   2.199   4.766
    1STR   C262 8513   3.817   2.068   4.795
    1STR   H263 8514   3.759   1.997   4.741
    1STR   H264 8515   3.765   2.115   4.877
    1STR   H265 8516   3.896   2.005   4.835
    1STR   C266 8517   3.932   2.088   4.583
    1STR   H267 8518   4.036   2.110   4.576
    1STR   H268 8519   3.918   1.983   4.604
    1STR   O269 8520   3.875   2.081   4.456
    1STR   C270 8521   3.892   2.188   4.366
    1STR   H271 8522   3.805   2.252   4.354
    1STR   C272 8523   3.998   2.287   4.400
    1STR   H273 8524   4.089   2.253   4.446
    1STR   H274 8525   3.958   2.369   4.459
    1STR   H275 8526   4.024   2.319   4.302
    1STR   C276 8527   3.909   2.120   4.233
    1STR   H277 8528   4.002   2.140   4.191
    1STR   H278 8529   3.916   2.014   4.241
    1STR   O279 8530   3.808   2.162   4.146
    1STR   C280 8531   3.850   2.237   4.035
    1STR   H281 8532   3.955   2.253   4.044
    1STR   C282 8533   3.821   2.155   3.908
    1STR   H283 8534   3.720   2.166   3.875
    1STR   H284 8535   3.843   2.049   3.925
    1STR   H285 8536   3.878   2.185   3.821
    1STR   C286 8537   3.794   2.379   4.041
    1STR   H287 8538   3.809   2.435   3.949
    1STR   H288 8539   3.688   2.373   4.052
    1STR   O289 8540   3.845   2.447   4.156
    1STR   C290 8541   3.950   2.540   4.133
    1STR   H291 8542   4.021   2.493   4.067
    1STR   C292 8543   3.897   2.673   4.080
    1STR   H293 8544   3.842   2.723   4.157
    1STR   H294 8545   3.833   2.661   3.993
    1STR   H295 8546   3.978   2.741   4.055
    1STR   C296 8547   4.027   2.561   4.261
    1STR   H297 8548   3.960   2.555   4.346
    1STR   H298 8549   4.102   2.485   4.264
    1STR   O299 8550   4.109   2.674   4.270
    1STR   C300 8551   4.215   2.654   4.365
    1STR   H301 8552   4.298   2.595   4.332
    1STR   C302 8553   4.270   2.789   4.387
    1STR   H303 8554   4.198   2.849   4.438
    1STR   H304 8555   4.288   2.831   4.290
    1STR   H305 8556   4.362   2.787   4.444
    1STR   C306 8557   4.174   2.599   4.498
    1STR   H307 8558   4.231   2.656   4.571
    1STR   H308 8559   4.069   2.614   4.515
    1STR   O309 8560   4.202   2.462   4.514
    1STR    H1R 8561   4.153   2.519   4.705
    1STR    H1S 8562   4.185   2.226   4.692
    1STR    H1T 8563   4.048   2.333   4.656
    1STR    H1U 8564   4.126   2.331   4.813
    1STR    H1V 8565   4.416   2.477   4.603
    1STR    H1W 8566   4.394   2.360   4.732
    1STR    H1X 8567   4.250   2.716   4.897
    1STR    H1Y 8568   4.128   2.836   5.070
    1STR    H1Z 8569   3.942   2.831   5.232
    1STR    H20 8570   3.733   2.530   5.312
    1STR    H21 8571   3.820   2.650   5.408
    1STR    H22 8572   3.716   2.699   5.273
    1STR    H23 8573   3.875   2.369   5.293
    1STR    H27 8574   4.096   2.411   5.025
    1STR    H28 8575   3.208   3.079   4.480
    1STR    H29 8576   3.158   3.030   4.240
    1STR    H2A 8577   2.857   2.857   4.124
    1STR    H2B 8578   3.015   2.781   4.096
    1STR    H2C 8579   2.995   2.956   4.075
    1STR   BCK1 8580   2.640   2.574   7.113
    1STR    O03 8581   2.753   2.594   7.144
    1STR    N04 8582   2.565   2.481   7.173
    1STR    C05 8583   2.610   2.407   7.282
    1STR    C06 8584   2.601   2.265   7.286
    1STR    C07 8585   2.668   2.193   7.388
    1STR    N08 8586   2.687   2.056   7.395
    1STR    C09 8587   2.592   1.964   7.403
    1STR    O0A 8588   2.481   1.982   7.357
    1STR    O0B 8589   2.625   1.854   7.476
    1STR    C0C 8590   2.756   1.816   7.518
    1STR    C0D 8591   2.764   1.772   7.665
    1STR    C0E 8592   2.791   1.703   7.426
    1STR    O0F 8593   2.922   1.722   7.383
    1STR    C0G 8594   2.949   1.655   7.262
    1STR    C0H 8595   3.009   1.517   7.292
    1STR    C0I 8596   2.856   1.685   7.142
    1STR    O0J 8597   2.827   1.826   7.140
    1STR    C0K 8598   3.912   2.843   7.228
    1STR    C0M 8599   4.019   2.756   7.166
    1STR    C0N 8600   3.951   2.969   7.309
    1STR    O0O 8601   3.943   2.947   7.449
    1STR    C0P 8602   4.023   2.855   7.502
    1STR    O0Q 8603   4.127   2.817   7.451
    1STR    N0R 8604   3.971   2.801   7.612
    1STR    C0S 8605   4.000   2.673   7.659
    1STR    C0T 8606   3.977   2.643   7.794
    1STR    C0U 8607   3.995   2.512   7.838
    1STR    C0V 8608   4.030   2.409   7.749
    1STR    C0W 8609   4.025   2.269   7.803
    1STR    C0X 8610   4.042   2.435   7.611
    1STR    N0Y 8611   4.018   2.328   7.525
    1STR   BCK2 8612   3.984   2.318   7.396
    1STR    O10 8613   3.923   2.219   7.359
    1STR    C13 8614   4.037   2.570   7.570
    1STR    C14 8615   2.722   2.261   7.495
    1STR    C15 8616   2.723   2.400   7.497
    1STR    C16 8617   2.669   2.474   7.392
    1STR    C17 8618   2.672   2.624   7.410
    1STR    H1B 8619   2.485   2.451   7.118
    1STR    H1C 8620   2.554   2.210   7.207
    1STR    H1D 8621   2.780   2.022   7.409
    1STR    H1E 8622   2.828   1.895   7.502
    1STR    H1F 8623   2.689   1.697   7.688
    1STR    H1G 8624   2.862   1.730   7.687
    1STR    H1H 8625   2.750   1.857   7.732
    1STR    H1I 8626   2.726   1.715   7.342
    1STR    H1J 8627   2.776   1.603   7.469
    1STR    H1K 8628   3.031   1.708   7.227
    1STR    H1M 8629   2.946   1.457   7.357
    1STR    H1N 8630   3.101   1.531   7.349
    1STR    H1O 8631   3.037   1.461   7.204
    1STR    H1P 8632   2.904   1.656   7.048
    1STR    H1Q 8633   2.767   1.627   7.152
    1STR   C010 8634   2.749   1.873   7.030
    1STR   H011 8635   2.721   1.789   6.966
    1STR   C012 8636   2.620   1.925   7.090
    1STR   H013 8637   2.636   2.015   7.146
    1STR   H014 8638   2.579   1.853   7.159
    1STR   H015 8639   2.545   1.951   7.016
    1STR   C016 8640   2.808   1.981   6.936
    1STR   H017 8641   2.847   1.930   6.850
    1STR   H018 8642   2.724   2.035   6.894
    1STR   O019 8643   2.915   2.069   6.976
    1STR   C020 8644   2.887   2.208   6.972
    1STR   H021 8645   2.804   2.215   6.906
    1STR   C022 8646   2.855   2.227   7.119
    1STR   H023 8647   2.939   2.196   7.178
    1STR   H024 8648   2.775   2.161   7.146
    1STR   H025 8649   2.829   2.329   7.148
    1STR   C026 8650   2.986   2.322   6.928
    1STR   H027 8651   2.984   2.396   7.006
    1STR   H028 8652   3.086   2.286   6.925
    1STR   O029 8653   2.961   2.405   6.813
    1STR   C030 8654   3.051   2.516   6.795
    1STR   H031 8655   3.149   2.477   6.812
    1STR   C032 8656   3.056   2.564   6.650
    1STR   H033 8657   2.967   2.619   6.622
    1STR   H034 8658   3.067   2.484   6.578
    1STR   H035 8659   3.140   2.633   6.635
    1STR   C036 8660   3.035   2.640   6.885
    1STR   H037 8661   3.135   2.684   6.894
    1STR   H038 8662   2.981   2.714   6.828
    1STR   O039 8663   2.965   2.631   7.009
    1STR   C040 8664   3.041   2.660   7.128
    1STR   H041 8665   3.103   2.576   7.123
    1STR   C042 8666   3.124   2.788   7.114
    1STR   H043 8667   3.124   2.846   7.206
    1STR   H044 8668   3.083   2.852   7.038
    1STR   H045 8669   3.228   2.767   7.088
    1STR   C046 8670   2.984   2.647   7.273
    1STR   H047 8671   3.058   2.687   7.339
    1STR   H048 8672   2.902   2.716   7.284
    1STR   O049 8673   2.949   2.516   7.323
    1STR   C050 8674   3.031   2.460   7.428
    1STR   H051 8675   3.128   2.465   7.386
    1STR   C052 8676   3.026   2.541   7.559
    1STR   H053 8677   2.925   2.556   7.594
    1STR   H054 8678   3.067   2.640   7.551
    1STR   H055 8679   3.080   2.489   7.638
    1STR   C056 8680   3.007   2.309   7.453
    1STR   H057 8681   2.957   2.299   7.548
    1STR   H058 8682   2.946   2.269   7.373
    1STR   O059 8683   3.122   2.228   7.469
    1STR   C060 8684   3.108   2.086   7.477
    1STR   H061 8685   3.209   2.051   7.496
    1STR   C062 8686   3.027   2.040   7.598
    1STR   H063 8687   2.923   2.070   7.590
    1STR   H064 8688   3.066   2.083   7.690
    1STR   H065 8689   3.031   1.932   7.607
    1STR   C066 8690   3.069   2.023   7.342
    1STR   H067 8691   2.962   2.022   7.323
    1STR   H068 8692   3.112   2.089   7.268
    1STR   O069 8693   3.123   1.892   7.327
    1STR   C070 8694   3.193   1.870   7.204
    1STR   H071 8695   3.259   1.951   7.210
    1STR   C072 8696   3.271   1.735   7.204
    1STR   H073 8697   3.213   1.648   7.174
    1STR   H074 8698   3.315   1.714   7.301
    1STR   H075 8699   3.350   1.734   7.129
    1STR   C076 8700   3.121   1.899   7.072
    1STR   H077 8701   3.027   1.852   7.060
    1STR   H078 8702   3.106   2.006   7.064
    1STR   O079 8703   3.200   1.856   6.965
    1STR   C080 8704   3.151   1.876   6.834
    1STR   H081 8705   3.234   1.846   6.776
    1STR   C082 8706   3.061   1.755   6.806
    1STR   H083 8707   2.957   1.777   6.791
    1STR   H084 8708   3.068   1.682   6.887
    1STR   H085 8709   3.098   1.700   6.720
    1STR   C086 8710   3.128   2.022   6.781
    1STR   H087 8711   3.148   2.028   6.675
    1STR   H088 8712   3.025   2.052   6.785
    1STR   O089 8713   3.204   2.123   6.847
    1STR   C090 8714   3.284   2.223   6.781
    1STR   H091 8715   3.370   2.175   6.745
    1STR   C092 8716   3.226   2.281   6.653
    1STR   H093 8717   3.121   2.295   6.670
    1STR   H094 8718   3.239   2.213   6.570
    1STR   H095 8719   3.273   2.375   6.625
    1STR   C096 8720   3.358   2.324   6.873
    1STR   H097 8721   3.465   2.308   6.858
    1STR   H098 8722   3.345   2.427   6.842
    1STR   O099 8723   3.342   2.307   7.012
    1STR   C100 8724   3.262   2.402   7.079
    1STR   H101 8725   3.205   2.455   7.006
    1STR   C102 8726   3.170   2.319   7.165
    1STR   H103 8727   3.212   2.298   7.261
    1STR   H104 8728   3.149   2.224   7.117
    1STR   H105 8729   3.077   2.370   7.187
    1STR   C106 8730   3.341   2.503   7.161
    1STR   H107 8731   3.419   2.449   7.212
    1STR   H108 8732   3.385   2.571   7.091
    1STR   O109 8733   3.270   2.581   7.257
    1STR   C110 8734   3.347   2.631   7.364
    1STR   H111 8735   3.445   2.636   7.322
    1STR   C112 8736   3.300   2.768   7.414
    1STR   H113 8737   3.202   2.768   7.460
    1STR   H114 8738   3.298   2.838   7.332
    1STR   H115 8739   3.366   2.808   7.489
    1STR   C116 8740   3.351   2.530   7.477
    1STR   H117 8741   3.440   2.547   7.533
    1STR   H118 8742   3.273   2.547   7.550
    1STR   O119 8743   3.339   2.401   7.422
    1STR   C120 8744   3.420   2.305   7.478
    1STR   H121 8745   3.515   2.354   7.472
    1STR   C122 8746   3.376   2.285   7.625
    1STR   H123 8747   3.268   2.278   7.636
    1STR   H124 8748   3.405   2.371   7.685
    1STR   H125 8749   3.416   2.195   7.672
    1STR   C126 8750   3.440   2.176   7.394
    1STR   H127 8751   3.548   2.167   7.383
    1STR   H128 8752   3.410   2.093   7.457
    1STR   O129 8753   3.383   2.158   7.262
    1STR   C130 8754   3.458   2.072   7.173
    1STR   H131 8755   3.542   2.136   7.161
    1STR   C132 8756   3.489   1.947   7.258
    1STR   H133 8757   3.416   1.923   7.335
    1STR   H134 8758   3.578   1.963   7.310
    1STR   H135 8759   3.500   1.858   7.200
    1STR   C136 8760   3.403   2.030   7.029
    1STR   H137 8761   3.392   1.925   7.036
    1STR   H138 8762   3.306   2.074   7.029
    1STR   O139 8763   3.468   2.042   6.897
    1STR   C140 8764   3.469   1.939   6.788
    1STR   H141 8765   3.573   1.955   6.771
    1STR   C142 8766   3.463   1.785   6.815
    1STR   H143 8767   3.414   1.758   6.908
    1STR   H144 8768   3.561   1.739   6.814
    1STR   H145 8769   3.410   1.733   6.736
    1STR   C146 8770   3.426   1.966   6.641
    1STR   H147 8771   3.322   1.952   6.623
    1STR   H148 8772   3.451   2.067   6.612
    1STR   O149 8773   3.493   1.883   6.546
    1STR   C150 8774   3.462   1.896   6.408
    1STR   H151 8775   3.400   1.810   6.383
    1STR   C152 8776   3.385   2.023   6.371
    1STR   H153 8777   3.378   2.028   6.264
    1STR   H154 8778   3.437   2.114   6.401
    1STR   H155 8779   3.286   2.025   6.415
    1STR   C156 8780   3.592   1.889   6.323
    1STR   H157 8781   3.664   1.821   6.369
    1STR   H158 8782   3.569   1.852   6.223
    1STR   O159 8783   3.644   2.020   6.314
    1STR   C160 8784   3.762   2.042   6.238
    1STR   H161 8785   3.821   1.950   6.230
    1STR   C162 8786   3.715   2.089   6.100
    1STR   H163 8787   3.662   2.184   6.109
    1STR   H164 8788   3.647   2.017   6.055
    1STR   H165 8789   3.798   2.103   6.032
    1STR   C166 8790   3.846   2.149   6.311
    1STR   H167 8791   3.914   2.104   6.383
    1STR   H168 8792   3.911   2.202   6.244
    1STR   O169 8793   3.762   2.249   6.369
    1STR   C170 8794   3.763   2.255   6.512
    1STR   H171 8795   3.862   2.280   6.547
    1STR   C172 8796   3.672   2.371   6.551
    1STR   H173 8797   3.571   2.354   6.516
    1STR   H174 8798   3.708   2.465   6.508
    1STR   H175 8799   3.670   2.383   6.659
    1STR   C176 8800   3.719   2.124   6.579
    1STR   H177 8801   3.688   2.147   6.681
    1STR   H178 8802   3.630   2.091   6.528
    1STR   O179 8803   3.816   2.019   6.570
    1STR   C180 8804   3.793   1.902   6.646
    1STR   H181 8805   3.695   1.861   6.629
    1STR   C182 8806   3.889   1.795   6.599
    1STR   H183 8807   3.878   1.777   6.492
    1STR   H184 8808   3.867   1.703   6.653
    1STR   H185 8809   3.993   1.823   6.619
    1STR   C186 8810   3.814   1.930   6.794
    1STR   H187 8811   3.919   1.936   6.812
    1STR   H188 8812   3.771   2.026   6.819
    1STR   O189 8813   3.766   1.833   6.881
    1STR   C190 8814   3.697   1.881   6.996
    1STR   H191 8815   3.594   1.890   6.982
    1STR   C192 8816   3.686   1.757   7.082
    1STR   H193 8817   3.766   1.690   7.055
    1STR   H194 8818   3.594   1.701   7.063
    1STR   H195 8819   3.688   1.781   7.187
    1STR   C196 8820   3.732   2.022   7.057
    1STR   H197 8821   3.712   2.023   7.163
    1STR   H198 8822   3.836   2.024   7.051
    1STR   O199 8823   3.687   2.147   7.000
    1STR   C200 8824   3.738   2.265   7.067
    1STR   H201 8825   3.804   2.236   7.148
    1STR   C202 8826   3.816   2.332   6.962
    1STR   H203 8827   3.870   2.418   7.001
    1STR   H204 8828   3.753   2.360   6.877
    1STR   H205 8829   3.884   2.261   6.925
    1STR   C206 8830   3.648   2.377   7.122
    1STR   H207 8831   3.583   2.334   7.196
    1STR   H208 8832   3.709   2.448   7.178
    1STR   O209 8833   3.572   2.447   7.022
    1STR   C210 8834   3.613   2.575   6.972
    1STR   H211 8835   3.714   2.562   6.937
    1STR   C212 8836   3.531   2.610   6.847
    1STR   H213 8837   3.428   2.633   6.874
    1STR   H214 8838   3.532   2.528   6.776
    1STR   H215 8839   3.572   2.696   6.796
    1STR   C216 8840   3.619   2.694   7.069
    1STR   H217 8841   3.687   2.670   7.151
    1STR   H218 8842   3.668   2.765   7.006
    1STR   O219 8843   3.502   2.765   7.113
    1STR   C220 8844   3.532   2.892   7.174
    1STR   H221 8845   3.609   2.939   7.114
    1STR   C222 8846   3.423   2.995   7.144
    1STR   H223 8847   3.324   2.967   7.177
    1STR   H224 8848   3.416   3.008   7.036
    1STR   H225 8849   3.447   3.093   7.186
    1STR   C226 8850   3.584   2.888   7.322
    1STR   H227 8851   3.672   2.952   7.332
    1STR   H228 8852   3.510   2.931   7.388
    1STR   O229 8853   3.617   2.755   7.361
    1STR   C230 8854   3.674   2.722   7.487
    1STR   H231 8855   3.771   2.769   7.485
    1STR   C232 8856   3.602   2.778   7.611
    1STR   H233 8857   3.506   2.730   7.628
    1STR   H234 8858   3.588   2.885   7.604
    1STR   H235 8859   3.662   2.758   7.700
    1STR   C236 8860   3.698   2.567   7.490
    1STR   H237 8861   3.653   2.522   7.401
    1STR   H238 8862   3.804   2.548   7.477
    1STR   O239 8863   3.644   2.502   7.607
    1STR   C240 8864   3.713   2.390   7.661
    1STR   H241 8865   3.812   2.425   7.658
    1STR   C242 8866   3.673   2.381   7.808
    1STR   H243 8867   3.738   2.314   7.863
    1STR   H244 8868   3.571   2.346   7.821
    1STR   H245 8869   3.681   2.479   7.855
    1STR   C246 8870   3.709   2.253   7.585
    1STR   H247 8871   3.614   2.205   7.601
    1STR   H248 8872   3.717   2.272   7.478
    1STR   O249 8873   3.811   2.159   7.618
    1STR   C250 8874   3.774   2.024   7.652
    1STR   H251 8875   3.868   1.975   7.673
    1STR   C252 8876   3.692   2.023   7.782
    1STR   H253 8877   3.592   2.063   7.768
    1STR   H254 8878   3.741   2.082   7.860
    1STR   H255 8879   3.681   1.922   7.820
    1STR   C256 8880   3.702   1.941   7.542
    1STR   H257 8881   3.689   1.838   7.576
    1STR   H258 8882   3.601   1.979   7.532
    1STR   O259 8883   3.760   1.945   7.412
    1STR   C260 8884   3.871   1.864   7.379
    1STR   H261 8885   3.927   1.899   7.462
    1STR   C262 8886   3.849   1.711   7.395
    1STR   H263 8887   3.777   1.667   7.327
    1STR   H264 8888   3.816   1.684   7.495
    1STR   H265 8889   3.942   1.659   7.379
    1STR   C266 8890   3.929   1.912   7.241
    1STR   H267 8891   3.888   1.854   7.162
    1STR   H268 8892   3.906   2.017   7.239
    1STR   O269 8893   4.065   1.916   7.201
    1STR   C270 8894   4.102   1.975   7.072
    1STR   H271 8895   4.202   1.996   7.099
    1STR   C272 8896   4.113   1.874   6.960
    1STR   H273 8897   4.020   1.821   6.945
    1STR   H274 8898   4.192   1.803   6.982
    1STR   H275 8899   4.145   1.919   6.868
    1STR   C276 8900   4.056   2.114   7.018
    1STR   H277 8901   3.979   2.089   6.949
    1STR   H278 8902   4.017   2.178   7.096
    1STR   O279 8903   4.145   2.189   6.933
    1STR   C280 8904   4.101   2.240   6.804
    1STR   H281 8905   4.193   2.255   6.756
    1STR   C282 8906   4.030   2.138   6.719
    1STR   H283 8907   3.927   2.141   6.748
    1STR   H284 8908   4.074   2.040   6.722
    1STR   H285 8909   4.024   2.158   6.614
    1STR   C286 8910   4.040   2.380   6.780
    1STR   H287 8911   4.075   2.418   6.686
    1STR   H288 8912   3.934   2.375   6.755
    1STR   O289 8913   4.066   2.473   6.882
    1STR   C290 8914   4.078   2.608   6.842
    1STR   H291 8915   4.102   2.663   6.932
    1STR   C292 8916   4.202   2.620   6.753
    1STR   H293 8917   4.181   2.608   6.647
    1STR   H294 8918   4.276   2.547   6.785
    1STR   H295 8919   4.256   2.712   6.767
    1STR   C296 8920   3.946   2.666   6.789
    1STR   H297 8921   3.967   2.735   6.707
    1STR   H298 8922   3.882   2.589   6.746
    1STR   O299 8923   3.874   2.728   6.896
    1STR   C300 8924   3.871   2.870   6.887
    1STR   H301 8925   3.971   2.892   6.859
    1STR   C302 8926   3.769   2.912   6.780
    1STR   H303 8927   3.667   2.890   6.812
    1STR   H304 8928   3.786   2.863   6.684
    1STR   H305 8929   3.773   3.019   6.762
    1STR   C306 8930   3.854   2.952   7.017
    1STR   H307 8931   3.940   3.013   7.039
    1STR   H308 8932   3.776   3.026   7.002
    1STR   O309 8933   3.818   2.876   7.130
    1STR    H1R 8934   3.858   2.775   7.294
    1STR    H1S 8935   4.086   2.716   7.241
    1STR    H1T 8936   4.079   2.809   7.094
    1STR    H1U 8937   3.974   2.670   7.116
    1STR    H1V 8938   3.882   3.050   7.287
    1STR    H1W 8939   4.048   3.006   7.277
    1STR    H1X 8940   3.895   2.853   7.652
    1STR    H1Y 8941   3.947   2.719   7.864
    1STR    H1Z 8942   3.978   2.486   7.941
    1STR    H20 8943   4.046   2.275   7.909
    1STR    H21 8944   3.926   2.226   7.798
    1STR    H22 8945   4.095   2.203   7.752
    1STR    H23 8946   3.990   2.243   7.571
    1STR    H27 8947   4.048   2.595   7.467
    1STR    H28 8948   2.762   2.207   7.580
    1STR    H29 8949   2.760   2.449   7.584
    1STR    H2A 8950   2.771   2.653   7.440
    1STR    H2B 8951   2.602   2.647   7.487
    1STR    H2C 8952   2.643   2.688   7.328
    1STR   BCK1 8953   2.723   5.182   0.188
    1STR    O03 8954   2.831   5.233   0.215
    1STR    N04 8955   2.654   5.194   0.075
    1STR    C05 8956   2.691   5.238   9.270
    1STR    C06 8957   2.773   5.351   9.247
    1STR    C07 8958   2.823   5.377   9.117
    1STR    N08 8959   2.918   5.471   9.079
    1STR    C09 8960   3.028   5.506   9.145
    1STR    O0A 8961   3.118   5.566   9.088
    1STR    O0B 8962   3.025   5.476   9.272
    1STR    C0C 8963   3.120   5.386   0.004
    1STR    C0D 8964   3.140   5.429   0.150
    1STR    C0E 8965   3.061   5.245   9.315
    1STR    O0F 8966   3.057   5.189   9.184
    1STR    C0G 8967   2.979   5.070   9.172
    1STR    C0H 8968   2.970   5.025   9.026
    1STR    C0I 8969   3.022   4.953   9.258
    1STR    O0J 8970   2.970   4.971   0.070
    1STR    C0K 8971   4.107   4.114   0.473
    1STR    C0M 8972   4.114   3.994   0.568
    1STR    C0N 8973   4.228   4.209   0.486
    1STR    O0O 8974   4.205   4.321   0.404
    1STR    C0P 8975   4.129   4.414   0.454
    1STR    O0Q 8976   4.064   4.400   0.556
    1STR    N0R 8977   4.132   4.524   0.381
    1STR    C0S 8978   4.078   4.647   0.414
    1STR    C0T 8979   4.052   4.739   0.311
    1STR    C0U 8980   3.977   4.855   0.340
    1STR    C0V 8981   3.934   4.884   0.470
    1STR    C0W 8982   3.818   4.980   0.495
    1STR    C0X 8983   3.987   4.808   0.574
    1STR    N0Y 8984   3.988   4.862   0.700
    1STR   BCK2 8985   4.095   4.904   0.766
    1STR    O10 8986   4.078   4.970   0.868
    1STR    C13 8987   4.046   4.685   0.546
    1STR    C14 8988   2.785   5.293   9.013
    1STR    C15 8989   2.695   5.189   9.036
    1STR    C16 8990   2.646   5.160   9.162
    1STR    C17 8991   2.558   5.036   9.175
    1STR    H1B 8992   2.568   5.143   0.079
    1STR    H1C 8993   2.804   5.412   0.011
    1STR    H1D 8994   2.925   5.493   8.982
    1STR    H1E 8995   3.213   5.392   9.267
    1STR    H1F 8996   3.045   5.423   0.204
    1STR    H1G 8997   3.212   5.366   0.201
    1STR    H1H 8998   3.174   5.532   0.155
    1STR    H1I 8999   2.962   5.245   0.033
    1STR    H1J 9000   3.111   5.182   0.066
    1STR    H1K 9001   2.879   5.091   9.204
    1STR    H1M 9002   2.958   5.110   8.960
    1STR    H1N 9003   2.885   4.959   9.010
    1STR    H1O 9004   3.058   4.971   8.993
    1STR    H1P 9005   2.984   4.864   9.211
    1STR    H1Q 9006   3.126   4.927   9.253
    1STR   C010 9007   3.033   4.893   0.170
    1STR   H011 9008   3.132   4.868   0.135
    1STR   C012 9009   3.053   4.988   0.287
    1STR   H013 9010   2.963   5.025   0.335
    1STR   H014 9011   3.106   5.077   0.257
    1STR   H015 9012   3.113   4.940   0.361
    1STR   C016 9013   2.967   4.754   0.191
    1STR   H017 9014   3.021   4.682   0.251
    1STR   H018 9015   2.870   4.747   0.238
    1STR   O019 9016   2.965   4.714   0.057
    1STR   C020 9017   2.866   4.627   0.015
    1STR   H021 9018   2.792   4.608   0.091
    1STR   C022 9019   2.804   4.696   9.213
    1STR   H023 9020   2.797   4.803   9.213
    1STR   H024 9021   2.700   4.670   9.211
    1STR   H025 9022   2.853   4.669   9.120
    1STR   C026 9023   2.938   4.498   9.306
    1STR   H027 9024   2.907   4.455   9.214
    1STR   H028 9025   3.041   4.513   9.285
    1STR   O029 9026   2.912   4.413   0.094
    1STR   C030 9027   2.992   4.302   0.113
    1STR   H031 9028   3.067   4.353   0.168
    1STR   C032 9029   2.933   4.201   0.208
    1STR   H033 9030   2.860   4.142   0.155
    1STR   H034 9031   2.889   4.248   0.295
    1STR   H035 9032   3.008   4.133   0.247
    1STR   C036 9033   3.047   4.234   9.308
    1STR   H037 9034   3.130   4.293   9.275
    1STR   H038 9035   3.082   4.135   0.014
    1STR   O039 9036   2.956   4.220   9.202
    1STR   C040 9037   3.021   4.188   9.079
    1STR   H041 9038   3.128   4.172   9.094
    1STR   C042 9039   2.966   4.051   9.040
    1STR   H043 9040   2.863   4.041   9.070
    1STR   H044 9041   3.013   3.973   9.099
    1STR   H045 9042   2.979   4.028   8.934
    1STR   C046 9043   3.009   4.306   8.979
    1STR   H047 9044   3.055   4.281   8.883
    1STR   H048 9045   2.907   4.326   8.952
    1STR   O049 9046   3.066   4.421   9.040
    1STR   C050 9047   3.075   4.546   8.972
    1STR   H051 9048   2.978   4.579   8.940
    1STR   C052 9049   3.132   4.650   9.070
    1STR   H053 9050   3.070   4.666   9.157
    1STR   H054 9051   3.137   4.749   9.025
    1STR   H055 9052   3.231   4.625   9.105
    1STR   C056 9053   3.168   4.540   8.852
    1STR   H057 9054   3.266   4.506   8.885
    1STR   H058 9055   3.132   4.473   8.774
    1STR   O059 9056   3.171   4.674   8.804
    1STR   C060 9057   3.298   4.724   8.769
    1STR   H061 9058   3.374   4.693   8.840
    1STR   C062 9059   3.328   4.669   8.630
    1STR   H063 9060   3.248   4.685   8.561
    1STR   H064 9061   3.339   4.561   8.634
    1STR   H065 9062   3.413   4.715   8.582
    1STR   C066 9063   3.287   4.877   8.779
    1STR   H067 9064   3.367   4.927   8.725
    1STR   H068 9065   3.196   4.911   8.735
    1STR   O069 9066   3.278   4.915   8.915
    1STR   C070 9067   3.333   5.040   8.954
    1STR   H071 9068   3.436   5.038   8.925
    1STR   C072 9069   3.268   5.161   8.886
    1STR   H073 9070   3.162   5.168   8.908
    1STR   H074 9071   3.281   5.158   8.778
    1STR   H075 9072   3.314   5.252   8.922
    1STR   C076 9073   3.322   5.041   9.107
    1STR   H077 9074   3.219   5.054   9.124
    1STR   H078 9075   3.342   4.944   9.151
    1STR   O079 9076   3.384   5.147   9.178
    1STR   C080 9077   3.430   5.118   9.311
    1STR   H081 9078   3.516   5.057   9.297
    1STR   C082 9079   3.475   5.255   0.044
    1STR   H083 9080   3.392   5.325   0.047
    1STR   H084 9081   3.552   5.298   9.300
    1STR   H085 9082   3.515   5.248   0.145
    1STR   C086 9083   3.337   5.045   0.092
    1STR   H087 9084   3.318   5.108   0.178
    1STR   H088 9085   3.243   5.041   0.043
    1STR   O089 9086   3.361   4.906   0.124
    1STR   C090 9087   3.385   4.863   0.261
    1STR   H091 9088   3.484   4.827   0.259
    1STR   C092 9089   3.395   4.975   0.368
    1STR   H093 9090   3.303   5.029   0.384
    1STR   H094 9091   3.472   5.047   0.341
    1STR   H095 9092   3.424   4.934   0.465
    1STR   C096 9093   3.307   4.738   0.313
    1STR   H097 9094   3.317   4.741   0.419
    1STR   H098 9095   3.203   4.749   0.295
    1STR   O099 9096   3.351   4.604   0.285
    1STR   C100 9097   3.249   4.506   0.253
    1STR   H101 9098   3.157   4.523   0.308
    1STR   C102 9099   3.234   4.544   0.109
    1STR   H103 9100   3.166   4.626   0.094
    1STR   H104 9101   3.207   4.458   0.051
    1STR   H105 9102   3.323   4.583   0.064
    1STR   C106 9103   3.291   4.355   0.277
    1STR   H107 9104   3.376   4.341   0.216
    1STR   H108 9105   3.314   4.349   0.382
    1STR   O109 9106   3.226   4.229   0.239
    1STR   C110 9107   3.300   4.104   0.255
    1STR   H111 9108   3.400   4.117   0.213
    1STR   C112 9109   3.304   4.067   0.404
    1STR   H113 9110   3.203   4.041   0.437
    1STR   H114 9111   3.338   4.147   0.470
    1STR   H115 9112   3.368   3.981   0.422
    1STR   C116 9113   3.245   3.973   0.192
    1STR   H117 9114   3.310   3.890   0.217
    1STR   H118 9115   3.150   3.949   0.240
    1STR   O119 9116   3.221   3.962   0.053
    1STR   C120 9117   3.333   3.954   9.287
    1STR   H121 9118   3.420   3.910   0.015
    1STR   C122 9119   3.295   3.870   9.164
    1STR   H123 9120   3.208   3.910   9.114
    1STR   H124 9121   3.273   3.766   9.190
    1STR   H125 9122   3.373   3.871   9.089
    1STR   C126 9123   3.360   4.099   9.253
    1STR   H127 9124   3.287   4.162   9.300
    1STR   H128 9125   3.448   4.132   9.303
    1STR   O129 9126   3.350   4.120   9.113
    1STR   C130 9127   3.394   4.244   9.064
    1STR   H131 9128   3.499   4.240   9.060
    1STR   C132 9129   3.358   4.246   8.916
    1STR   H133 9130   3.396   4.334   8.865
    1STR   H134 9131   3.252   4.241   8.900
    1STR   H135 9132   3.402   4.160   8.865
    1STR   C136 9133   3.361   4.370   9.147
    1STR   H137 9134   3.401   4.453   9.090
    1STR   H138 9135   3.256   4.387   9.144
    1STR   O139 9136   3.395   4.371   9.288
    1STR   C140 9137   3.521   4.424   0.005
    1STR   H141 9138   3.573   4.360   9.260
    1STR   C142 9139   3.539   4.570   9.278
    1STR   H143 9140   3.515   4.644   0.034
    1STR   H144 9141   3.475   4.600   9.197
    1STR   H145 9142   3.641   4.589   9.246
    1STR   C146 9143   3.581   4.410   0.150
    1STR   H147 9144   3.678   4.455   0.134
    1STR   H148 9145   3.532   4.475   0.220
    1STR   O149 9146   3.609   4.282   0.214
    1STR   C150 9147   3.584   4.257   0.357
    1STR   H151 9148   3.481   4.241   0.361
    1STR   C152 9149   3.631   4.120   0.404
    1STR   H153 9150   3.737   4.120   0.426
    1STR   H154 9151   3.604   4.042   0.334
    1STR   H155 9152   3.584   4.093   0.499
    1STR   C156 9153   3.601   4.358   0.474
    1STR   H157 9154   3.576   4.306   0.566
    1STR   H158 9155   3.702   4.390   0.491
    1STR   O159 9156   3.506   4.461   0.463
    1STR   C160 9157   3.508   4.567   0.559
    1STR   H161 9158   3.410   4.609   0.554
    1STR   C162 9159   3.537   4.529   0.704
    1STR   H163 9160   3.641   4.501   0.714
    1STR   H164 9161   3.476   4.447   0.741
    1STR   H165 9162   3.522   4.614   0.770
    1STR   C166 9163   3.596   4.681   0.512
    1STR   H167 9164   3.553   4.733   0.429
    1STR   H168 9165   3.610   4.754   0.591
    1STR   O169 9166   3.719   4.624   0.481
    1STR   C170 9167   3.758   4.615   0.345
    1STR   H171 9168   3.834   4.679   0.373
    1STR   C172 9169   3.840   4.490   0.314
    1STR   H173 9170   3.790   4.398   0.291
    1STR   H174 9171   3.890   4.464   0.406
    1STR   H175 9172   3.913   4.508   0.236
    1STR   C176 9173   3.704   4.698   0.226
    1STR   H177 9174   3.758   4.664   0.138
    1STR   H178 9175   3.600   4.673   0.214
    1STR   O179 9176   3.723   4.840   0.240
    1STR   C180 9177   3.691   4.928   0.132
    1STR   H181 9178   3.586   4.925   0.116
    1STR   C182 9179   3.730   5.071   0.171
    1STR   H183 9180   3.836   5.082   0.190
    1STR   H184 9181   3.674   5.104   0.259
    1STR   H185 9182   3.706   5.139   0.090
    1STR   C186 9183   3.747   4.892   9.316
    1STR   H187 9184   3.855   4.894   0.002
    1STR   H188 9185   3.712   4.792   9.294
    1STR   O189 9186   3.702   4.980   9.212
    1STR   C190 9187   3.677   4.920   9.084
    1STR   H191 9188   3.754   4.850   9.061
    1STR   C192 9189   3.557   4.826   9.084
    1STR   H193 9190   3.505   4.827   9.180
    1STR   H194 9191   3.593   4.724   9.070
    1STR   H195 9192   3.489   4.840   9.002
    1STR   C196 9193   3.697   5.020   8.969
    1STR   H197 9194   3.620   5.093   8.951
    1STR   H198 9195   3.777   5.086   8.999
    1STR   O199 9196   3.747   4.951   8.853
    1STR   C200 9197   3.654   4.892   8.765
    1STR   H201 9198   3.555   4.909   8.803
    1STR   C202 9199   3.676   4.970   8.635
    1STR   H203 9200   3.777   4.954   8.599
    1STR   H204 9201   3.664   5.077   8.651
    1STR   H205 9202   3.607   4.939   8.556
    1STR   C206 9203   3.669   4.739   8.741
    1STR   H207 9204   3.593   4.720   8.669
    1STR   H208 9205   3.761   4.716   8.688
    1STR   O209 9206   3.654   4.652   8.855
    1STR   C210 9207   3.605   4.516   8.838
    1STR   H211 9208   3.506   4.518   8.882
    1STR   C212 9209   3.591   4.466   8.691
    1STR   H213 9210   3.544   4.532   8.620
    1STR   H214 9211   3.532   4.374   8.689
    1STR   H215 9212   3.688   4.443   8.649
    1STR   C216 9213   3.686   4.405   8.912
    1STR   H217 9214   3.657   4.308   8.870
    1STR   H218 9215   3.792   4.417   8.892
    1STR   O219 9216   3.667   4.384   9.052
    1STR   C220 9217   3.746   4.276   9.106
    1STR   H221 9218   3.817   4.246   9.030
    1STR   C222 9219   3.800   4.328   9.241
    1STR   H223 9220   3.751   4.280   0.005
    1STR   H224 9221   3.780   4.433   9.256
    1STR   H225 9222   3.903   4.312   9.262
    1STR   C226 9223   3.693   4.137   9.143
    1STR   H227 9224   3.771   4.084   9.196
    1STR   H228 9225   3.618   4.146   9.219
    1STR   O229 9226   3.642   4.058   9.038
    1STR   C230 9227   3.710   3.935   9.022
    1STR   H231 9228   3.817   3.953   9.038
    1STR   C232 9229   3.657   3.831   9.123
    1STR   H233 9230   3.567   3.784   9.086
    1STR   H234 9231   3.632   3.877   9.218
    1STR   H235 9232   3.729   3.753   9.143
    1STR   C236 9233   3.692   3.895   8.876
    1STR   H237 9234   3.764   3.819   8.846
    1STR   H238 9235   3.592   3.857   8.858
    1STR   O239 9236   3.709   4.016   8.807
    1STR   C240 9237   3.752   4.012   8.673
    1STR   H241 9238   3.850   3.965   8.668
    1STR   C242 9239   3.650   3.939   8.586
    1STR   H243 9240   3.550   3.981   8.601
    1STR   H244 9241   3.645   3.833   8.612
    1STR   H245 9242   3.676   3.947   8.481
    1STR   C246 9243   3.763   4.162   8.640
    1STR   H247 9244   3.801   4.180   8.540
    1STR   H248 9245   3.662   4.203   8.642
    1STR   O249 9246   3.837   4.225   8.743
    1STR   C250 9247   3.963   4.280   8.711
    1STR   H251 9248   4.009   4.311   8.805
    1STR   C252 9249   4.053   4.171   8.652
    1STR   H253 9250   4.004   4.105   8.583
    1STR   H254 9251   4.095   4.109   8.732
    1STR   H255 9252   4.134   4.215   8.597
    1STR   C256 9253   3.947   4.409   8.627
    1STR   H257 9254   4.040   4.440   8.587
    1STR   H258 9255   3.882   4.394   8.542
    1STR   O259 9256   3.904   4.520   8.704
    1STR   C260 9257   4.009   4.596   8.762
    1STR   H261 9258   4.089   4.532   8.799
    1STR   C262 9259   4.065   4.696   8.661
    1STR   H263 9260   3.987   4.748   8.606
    1STR   H264 9261   4.131   4.647   8.590
    1STR   H265 9262   4.126   4.771   8.711
    1STR   C266 9263   3.949   4.670   8.881
    1STR   H267 9264   3.900   4.760   8.848
    1STR   H268 9265   3.875   4.608   8.930
    1STR   O269 9266   4.050   4.701   8.973
    1STR   C270 9267   4.008   4.769   9.090
    1STR   H271 9268   4.090   4.779   9.158
    1STR   C272 9269   3.978   4.915   9.057
    1STR   H273 9270   3.942   4.930   8.957
    1STR   H274 9271   4.063   4.979   9.054
    1STR   H275 9272   3.919   4.967   9.130
    1STR   C276 9273   3.918   4.680   9.177
    1STR   H277 9274   3.928   4.700   9.283
    1STR   H278 9275   3.814   4.684   9.147
    1STR   O279 9276   3.941   4.545   9.155
    1STR   C280 9277   4.067   4.491   9.183
    1STR   H281 9278   4.137   4.559   9.145
    1STR   C282 9279   4.098   4.472   0.013
    1STR   H283 9280   4.020   4.421   0.068
    1STR   H284 9281   4.112   4.568   0.061
    1STR   H285 9282   4.189   4.414   0.027
    1STR   C286 9283   4.071   4.370   9.091
    1STR   H287 9284   3.975   4.346   9.054
    1STR   H288 9285   4.107   4.399   8.994
    1STR   O289 9286   4.142   4.260   9.146
    1STR   C290 9287   4.066   4.143   9.164
    1STR   H291 9288   3.961   4.157   9.157
    1STR   C292 9289   4.088   4.047   9.047
    1STR   H293 9290   4.189   4.051   9.008
    1STR   H294 9291   4.024   4.075   8.964
    1STR   H295 9292   4.065   3.945   9.075
    1STR   C296 9293   4.090   4.099   9.308
    1STR   H297 9294   4.176   4.036   9.310
    1STR   H298 9295   4.112   4.186   0.050
    1STR   O299 9296   3.983   4.027   0.046
    1STR   C300 9297   3.906   4.090   0.147
    1STR   H301 9298   3.897   4.195   0.121
    1STR   C302 9299   3.771   4.019   0.131
    1STR   H303 9300   3.751   3.950   0.212
    1STR   H304 9301   3.769   3.957   0.042
    1STR   H305 9302   3.688   4.088   0.123
    1STR   C306 9303   3.952   4.092   0.296
    1STR   H307 9304   3.915   4.188   0.332
    1STR   H308 9305   3.902   4.014   0.353
    1STR   O309 9306   4.088   4.082   0.334
    1STR    H1R 9307   4.021   4.170   0.510
    1STR    H1S 9308   4.216   3.966   0.592
    1STR    H1T 9309   4.061   3.908   0.530
    1STR    H1U 9310   4.071   4.022   0.664
    1STR    H1V 9311   4.324   4.168   0.458
    1STR    H1W 9312   4.241   4.239   0.590
    1STR    H1X 9313   4.193   4.514   0.301
    1STR    H1Y 9314   4.076   4.717   0.209
    1STR    H1Z 9315   3.942   4.914   0.258
    1STR    H20 9316   3.726   4.924   0.484
    1STR    H21 9317   3.817   5.022   0.595
    1STR    H22 9318   3.815   5.059   0.422
    1STR    H23 9319   3.900   4.894   0.738
    1STR    H27 9320   4.070   4.621   0.629
    1STR    H28 9321   2.827   5.308   8.916
    1STR    H29 9322   2.666   5.126   8.956
    1STR    H2A 9323   2.620   4.947   9.176
    1STR    H2B 9324   2.490   5.023   9.092
    1STR    H2C 9325   2.496   5.041   9.262
    1STR   BCK1 9326   2.730   4.444   2.282
    1STR    O03 9327   2.622   4.484   2.242
    1STR    N04 9328   2.826   4.523   2.323
    1STR    C05 9329   2.795   4.616   2.420
    1STR    C06 9330   2.840   4.589   2.547
    1STR    C07 9331   2.818   4.675   2.656
    1STR    N08 9332   2.869   4.641   2.779
    1STR    C09 9333   2.876   4.516   2.823
    1STR    O0A 9334   2.807   4.428   2.776
    1STR    O0B 9335   2.967   4.500   2.917
    1STR    C0C 9336   3.047   4.384   2.930
    1STR    C0D 9337   3.119   4.394   3.064
    1STR    C0E 9338   2.987   4.243   2.912
    1STR    O0F 9339   3.064   4.171   2.816
    1STR    C0G 9340   2.998   4.145   2.694
    1STR    C0H 9341   2.960   4.265   2.608
    1STR    C0I 9342   3.078   4.041   2.615
    1STR    O0J 9343   3.020   4.014   2.487
    1STR    C0K 9344   4.088   4.834   1.967
    1STR    C0M 9345   4.145   4.723   1.880
    1STR    C0N 9346   4.196   4.922   2.022
    1STR    O0O 9347   4.221   5.023   1.928
    1STR    C0P 9348   4.336   5.025   1.873
    1STR    O0Q 9349   4.355   4.985   1.760
    1STR    N0R 9350   4.432   5.071   1.952
    1STR    C0S 9351   4.412   5.106   2.083
    1STR    C0T 9352   4.351   5.227   2.119
    1STR    C0U 9353   4.333   5.255   2.254
    1STR    C0V 9354   4.368   5.160   2.352
    1STR    C0W 9355   4.344   5.185   2.498
    1STR    C0X 9356   4.419   5.036   2.313
    1STR    N0Y 9357   4.440   4.938   2.408
    1STR   BCK2 9358   4.350   4.843   2.424
    1STR    O10 9359   4.274   4.805   2.336
    1STR    C13 9360   4.445   5.011   2.180
    1STR    C14 9361   2.755   4.798   2.633
    1STR    C15 9362   2.704   4.825   2.505
    1STR    C16 9363   2.721   4.732   2.398
    1STR    C17 9364   2.677   4.762   2.258
    1STR    H1B 9365   2.914   4.476   2.332
    1STR    H1C 9366   2.894   4.498   2.560
    1STR    H1D 9367   2.914   4.711   2.835
    1STR    H1E 9368   3.115   4.400   2.847
    1STR    H1F 9369   3.051   4.363   3.143
    1STR    H1G 9370   3.206   4.329   3.068
    1STR    H1H 9371   3.149   4.497   3.087
    1STR    H1I 9372   2.882   4.241   2.887
    1STR    H1J 9373   2.994   4.187   3.005
    1STR    H1K 9374   2.905   4.109   2.731
    1STR    H1M 9375   3.000   4.355   2.652
    1STR    H1N 9376   2.852   4.273   2.601
    1STR    H1O 9377   2.994   4.264   2.505
    1STR    H1P 9378   3.180   4.076   2.608
    1STR    H1Q 9379   3.087   3.948   2.670
    1STR   C010 9380   3.104   4.060   2.382
    1STR   H011 9381   3.142   4.156   2.412
    1STR   C012 9382   3.218   3.960   2.363
    1STR   H013 9383   3.187   3.872   2.308
    1STR   H014 9384   3.263   3.929   2.457
    1STR   H015 9385   3.294   4.013   2.307
    1STR   C016 9386   3.033   4.091   2.250
    1STR   H017 9387   3.049   4.012   2.177
    1STR   H018 9388   2.927   4.102   2.266
    1STR   O019 9389   3.080   4.214   2.201
    1STR   C020 9390   3.052   4.243   2.065
    1STR   H021 9391   3.126   4.195   2.002
    1STR   C022 9392   2.914   4.199   2.016
    1STR   H023 9393   2.835   4.254   2.066
    1STR   H024 9394   2.894   4.092   2.025
    1STR   H025 9395   2.906   4.222   1.910
    1STR   C026 9396   3.070   4.393   2.055
    1STR   H027 9397   2.984   4.447   2.095
    1STR   H028 9398   3.154   4.420   2.117
    1STR   O029 9399   3.098   4.430   1.922
    1STR   C030 9400   3.139   4.565   1.909
    1STR   H031 9401   3.223   4.565   1.973
    1STR   C032 9402   3.198   4.587   1.768
    1STR   H033 9403   3.174   4.505   1.701
    1STR   H034 9404   3.306   4.595   1.771
    1STR   H035 9405   3.161   4.679   1.723
    1STR   C036 9406   3.044   4.682   1.953
    1STR   H037 9407   3.103   4.768   1.925
    1STR   H038 9408   2.965   4.699   1.883
    1STR   O039 9409   2.987   4.695   2.087
    1STR   C040 9410   3.011   4.825   2.146
    1STR   H041 9411   3.113   4.846   2.130
    1STR   C042 9412   2.954   4.922   2.053
    1STR   H043 9413   2.849   4.916   2.071
    1STR   H044 9414   2.971   4.917   1.945
    1STR   H045 9415   3.003   5.014   2.082
    1STR   C046 9416   2.979   4.872   2.296
    1STR   H047 9417   3.032   4.967   2.308
    1STR   H048 9418   2.878   4.904   2.311
    1STR   O049 9419   3.026   4.789   2.405
    1STR   C050 9420   3.050   4.839   2.539
    1STR   H051 9421   2.957   4.877   2.573
    1STR   C052 9422   3.111   4.726   2.624
    1STR   H053 9423   3.219   4.717   2.615
    1STR   H054 9424   3.072   4.627   2.607
    1STR   H055 9425   3.091   4.745   2.728
    1STR   C056 9426   3.133   4.960   2.579
    1STR   H057 9427   3.235   4.932   2.561
    1STR   H058 9428   3.107   5.048   2.521
    1STR   O059 9429   3.106   4.983   2.719
    1STR   C060 9430   3.216   4.995   2.810
    1STR   H061 9431   3.309   4.967   2.763
    1STR   C062 9432   3.222   5.142   2.852
    1STR   H063 9433   3.135   5.169   2.912
    1STR   H064 9434   3.224   5.209   2.766
    1STR   H065 9435   3.311   5.163   2.912
    1STR   C066 9436   3.202   4.906   2.936
    1STR   H067 9437   3.273   4.938   3.013
    1STR   H068 9438   3.104   4.922   2.980
    1STR   O069 9439   3.218   4.766   2.917
    1STR   C070 9440   3.345   4.715   2.874
    1STR   H071 9441   3.378   4.765   2.783
    1STR   C072 9442   3.449   4.730   2.986
    1STR   H073 9443   3.411   4.690   3.080
    1STR   H074 9444   3.477   4.834   3.003
    1STR   H075 9445   3.540   4.676   2.962
    1STR   C076 9446   3.320   4.568   2.839
    1STR   H077 9447   3.303   4.515   2.931
    1STR   H078 9448   3.231   4.559   2.778
    1STR   O079 9449   3.428   4.512   2.767
    1STR   C080 9450   3.437   4.369   2.764
    1STR   H081 9451   3.511   4.344   2.690
    1STR   C082 9452   3.488   4.319   2.899
    1STR   H083 9453   3.422   4.344   2.982
    1STR   H084 9454   3.586   4.362   2.922
    1STR   H085 9455   3.496   4.210   2.899
    1STR   C086 9456   3.315   4.290   2.715
    1STR   H087 9457   3.348   4.193   2.681
    1STR   H088 9458   3.262   4.266   2.805
    1STR   O089 9459   3.224   4.350   2.618
    1STR   C090 9460   3.277   4.384   2.491
    1STR   H091 9461   3.344   4.451   2.537
    1STR   C092 9462   3.357   4.271   2.427
    1STR   H093 9463   3.338   4.265   2.320
    1STR   H094 9464   3.340   4.173   2.470
    1STR   H095 9465   3.462   4.290   2.441
    1STR   C096 9466   3.196   4.472   2.388
    1STR   H097 9467   3.118   4.414   2.340
    1STR   H098 9468   3.144   4.554   2.435
    1STR   O099 9469   3.286   4.529   2.290
    1STR   C100 9470   3.264   4.653   2.219
    1STR   H101 9471   3.167   4.633   2.183
    1STR   C102 9472   3.267   4.768   2.313
    1STR   H103 9473   3.340   4.838   2.280
    1STR   H104 9474   3.265   4.745   2.416
    1STR   H105 9475   3.206   4.851   2.298
    1STR   C106 9476   3.361   4.705   2.105
    1STR   H107 9477   3.457   4.743   2.136
    1STR   H108 9478   3.394   4.629   2.042
    1STR   O109 9479   3.294   4.800   2.022
    1STR   C110 9480   3.361   4.908   1.962
    1STR   H111 9481   3.460   4.913   2.004
    1STR   C112 9482   3.362   4.889   1.810
    1STR   H113 9483   3.261   4.896   1.769
    1STR   H114 9484   3.401   4.793   1.780
    1STR   H115 9485   3.422   4.966   1.761
    1STR   C116 9486   3.286   5.039   1.993
    1STR   H117 9487   3.336   5.123   1.946
    1STR   H118 9488   3.186   5.037   1.952
    1STR   O119 9489   3.281   5.053   2.133
    1STR   C120 9490   3.277   5.185   2.184
    1STR   H121 9491   3.353   5.247   2.138
    1STR   C122 9492   3.149   5.253   2.150
    1STR   H123 9493   3.069   5.197   2.195
    1STR   H124 9494   3.136   5.257   2.042
    1STR   H125 9495   3.149   5.355   2.190
    1STR   C126 9496   3.289   5.175   2.336
    1STR   H127 9497   3.359   5.249   2.374
    1STR   H128 9498   3.195   5.199   2.385
    1STR   O129 9499   3.321   5.041   2.371
    1STR   C130 9500   3.444   5.018   2.434
    1STR   H131 9501   3.517   5.064   2.373
    1STR   C132 9502   3.429   5.096   2.567
    1STR   H133 9503   3.327   5.121   2.591
    1STR   H134 9504   3.479   5.192   2.566
    1STR   H135 9505   3.469   5.038   2.648
    1STR   C136 9506   3.495   4.869   2.449
    1STR   H137 9507   3.585   4.862   2.502
    1STR   H138 9508   3.423   4.826   2.516
    1STR   O139 9509   3.536   4.784   2.335
    1STR   C140 9510   3.580   4.647   2.356
    1STR   H141 9511   3.687   4.658   2.370
    1STR   C142 9512   3.514   4.604   2.485
    1STR   H143 9513   3.409   4.618   2.471
    1STR   H144 9514   3.531   4.659   2.575
    1STR   H145 9515   3.533   4.500   2.507
    1STR   C146 9516   3.552   4.516   2.266
    1STR   H147 9517   3.630   4.461   2.310
    1STR   H148 9518   3.479   4.448   2.304
    1STR   O149 9519   3.564   4.480   2.125
    1STR   C150 9520   3.460   4.397   2.060
    1STR   H151 9521   3.364   4.430   2.097
    1STR   C152 9522   3.474   4.436   1.913
    1STR   H153 9523   3.486   4.542   1.898
    1STR   H154 9524   3.389   4.403   1.853
    1STR   H155 9525   3.565   4.394   1.869
    1STR   C156 9526   3.442   4.241   2.043
    1STR   H157 9527   3.339   4.233   2.009
    1STR   H158 9528   3.497   4.208   1.957
    1STR   O159 9529   3.455   4.140   2.143
    1STR   C160 9530   3.444   4.003   2.095
    1STR   H161 9531   3.438   3.941   2.184
    1STR   C162 9532   3.317   3.978   2.012
    1STR   H163 9533   3.321   4.027   1.915
    1STR   H164 9534   3.230   4.015   2.065
    1STR   H165 9535   3.302   3.872   1.994
    1STR   C166 9536   3.567   3.943   2.024
    1STR   H167 9537   3.649   3.930   2.094
    1STR   H168 9538   3.545   3.841   1.993
    1STR   O169 9539   3.602   4.015   1.908
    1STR   C170 9540   3.730   4.076   1.911
    1STR   H171 9541   3.806   3.999   1.913
    1STR   C172 9542   3.738   4.149   1.778
    1STR   H173 9543   3.652   4.214   1.762
    1STR   H174 9544   3.744   4.080   1.693
    1STR   H175 9545   3.826   4.213   1.779
    1STR   C176 9546   3.757   4.176   2.024
    1STR   H177 9547   3.860   4.211   2.012
    1STR   H178 9548   3.697   4.264   2.008
    1STR   O179 9549   3.743   4.128   2.158
    1STR   C180 9550   3.718   4.230   2.254
    1STR   H181 9551   3.624   4.273   2.223
    1STR   C182 9552   3.688   4.174   2.394
    1STR   H183 9553   3.771   4.125   2.441
    1STR   H184 9554   3.605   4.104   2.390
    1STR   H185 9555   3.663   4.255   2.462
    1STR   C186 9556   3.824   4.341   2.255
    1STR   H187 9557   3.819   4.403   2.344
    1STR   H188 9558   3.918   4.297   2.258
    1STR   O189 9559   3.828   4.410   2.133
    1STR   C190 9560   3.850   4.548   2.131
    1STR   H191 9561   3.764   4.606   2.164
    1STR   C192 9562   3.970   4.591   2.215
    1STR   H193 9563   4.064   4.560   2.169
    1STR   H194 9564   3.966   4.555   2.317
    1STR   H195 9565   3.969   4.698   2.225
    1STR   C196 9566   3.868   4.576   1.982
    1STR   H197 9567   3.898   4.678   1.975
    1STR   H198 9568   3.947   4.513   1.941
    1STR   O199 9569   3.750   4.559   1.905
    1STR   C200 9570   3.728   4.665   1.813
    1STR   H201 9571   3.824   4.700   1.777
    1STR   C202 9572   3.652   4.610   1.690
    1STR   H203 9573   3.553   4.572   1.710
    1STR   H204 9574   3.708   4.528   1.644
    1STR   H205 9575   3.634   4.686   1.615
    1STR   C206 9576   3.656   4.783   1.881
    1STR   H207 9577   3.636   4.858   1.806
    1STR   H208 9578   3.562   4.745   1.919
    1STR   O209 9579   3.726   4.834   1.993
    1STR   C210 9580   3.721   4.973   2.032
    1STR   H211 9581   3.826   4.999   2.034
    1STR   C212 9582   3.654   5.080   1.943
    1STR   H213 9583   3.550   5.095   1.966
    1STR   H214 9584   3.663   5.063   1.836
    1STR   H215 9585   3.699   5.176   1.964
    1STR   C216 9586   3.680   4.987   2.178
    1STR   H217 9587   3.573   4.997   2.185
    1STR   H218 9588   3.708   4.898   2.233
    1STR   O219 9589   3.758   5.098   2.223
    1STR   C220 9590   3.711   5.191   2.318
    1STR   H221 9591   3.781   5.270   2.299
    1STR   C222 9592   3.597   5.273   2.262
    1STR   H223 9593   3.525   5.204   2.222
    1STR   H224 9594   3.629   5.332   2.175
    1STR   H225 9595   3.553   5.341   2.335
    1STR   C226 9596   3.724   5.162   2.474
    1STR   H227 9597   3.824   5.165   2.507
    1STR   H228 9598   3.674   5.243   2.527
    1STR   O229 9599   3.698   5.036   2.534
    1STR   C230 9600   3.731   5.013   2.674
    1STR   H231 9601   3.839   5.011   2.681
    1STR   C232 9602   3.688   5.126   2.771
    1STR   H233 9603   3.584   5.119   2.803
    1STR   H234 9604   3.706   5.226   2.733
    1STR   H235 9605   3.747   5.121   2.861
    1STR   C236 9606   3.679   4.874   2.724
    1STR   H237 9607   3.713   4.863   2.827
    1STR   H238 9608   3.571   4.872   2.732
    1STR   O239 9609   3.719   4.760   2.644
    1STR   C240 9610   3.728   4.633   2.710
    1STR   H241 9611   3.638   4.616   2.768
    1STR   C242 9612   3.754   4.508   2.622
    1STR   H243 9613   3.841   4.449   2.650
    1STR   H244 9614   3.765   4.533   2.518
    1STR   H245 9615   3.676   4.435   2.633
    1STR   C246 9616   3.842   4.644   2.801
    1STR   H247 9617   3.797   4.663   2.898
    1STR   H248 9618   3.895   4.550   2.817
    1STR   O249 9619   3.926   4.753   2.763
    1STR   C250 9620   4.014   4.740   2.653
    1STR   H251 9621   4.099   4.781   2.705
    1STR   C252 9622   4.049   4.599   2.603
    1STR   H253 9623   4.071   4.526   2.681
    1STR   H254 9624   4.132   4.605   2.534
    1STR   H255 9625   3.975   4.559   2.536
    1STR   C256 9626   3.986   4.830   2.531
    1STR   H257 9627   4.052   4.790   2.456
    1STR   H258 9628   3.885   4.813   2.493
    1STR   O259 9629   4.011   4.972   2.542
    1STR   C260 9630   4.054   5.036   2.420
    1STR   H261 9631   4.160   5.018   2.418
    1STR   C262 9632   3.998   4.965   2.295
    1STR   H263 9633   3.898   4.929   2.313
    1STR   H264 9634   4.058   4.880   2.267
    1STR   H265 9635   3.992   5.029   2.208
    1STR   C266 9636   4.035   5.190   2.401
    1STR   H267 9637   4.114   5.230   2.343
    1STR   H268 9638   3.958   5.203   2.329
    1STR   O269 9639   4.014   5.276   2.513
    1STR   C270 9640   3.934   5.395   2.490
    1STR   H271 9641   3.835   5.372   2.458
    1STR   C272 9642   3.898   5.456   2.626
    1STR   H273 9643   3.941   5.398   2.707
    1STR   H274 9644   3.791   5.453   2.644
    1STR   H275 9645   3.929   5.560   2.634
    1STR   C276 9646   3.975   5.494   2.378
    1STR   H277 9647   3.932   5.591   2.403
    1STR   H278 9648   4.082   5.507   2.369
    1STR   O279 9649   3.930   5.451   2.250
    1STR   C280 9650   3.897   5.555   2.157
    1STR   H281 9651   3.802   5.599   2.188
    1STR   C282 9652   4.005   5.663   2.152
    1STR   H283 9653   4.096   5.612   2.126
    1STR   H284 9654   4.019   5.717   2.245
    1STR   H285 9655   3.987   5.736   2.073
    1STR   C286 9656   3.883   5.497   2.015
    1STR   H287 9657   3.812   5.415   2.012
    1STR   H288 9658   3.841   5.573   1.949
    1STR   O289 9659   4.014   5.467   1.964
    1STR   C290 9660   4.042   5.334   1.924
    1STR   H291 9661   4.150   5.328   1.911
    1STR   C292 9662   4.005   5.234   2.034
    1STR   H293 9663   4.030   5.133   2.004
    1STR   H294 9664   3.900   5.231   2.060
    1STR   H295 9665   4.061   5.255   2.125
    1STR   C296 9666   3.983   5.310   1.785
    1STR   H297 9667   3.875   5.319   1.785
    1STR   H298 9668   4.020   5.388   1.718
    1STR   O299 9669   4.030   5.186   1.734
    1STR   C300 9670   3.934   5.084   1.745
    1STR   H301 9671   3.873   5.102   1.832
    1STR   C302 9672   3.847   5.087   1.619
    1STR   H303 9673   3.908   5.078   1.530
    1STR   H304 9674   3.791   5.181   1.611
    1STR   H305 9675   3.774   5.006   1.619
    1STR   C306 9676   4.000   4.949   1.770
    1STR   H307 9677   3.944   4.874   1.718
    1STR   H308 9678   4.102   4.949   1.736
    1STR   O309 9679   3.987   4.913   1.906
    1STR    H1R 9680   4.045   4.791   2.056
    1STR    H1S 9681   4.202   4.656   1.943
    1STR    H1T 9682   4.211   4.762   1.803
    1STR    H1U 9683   4.069   4.663   1.831
    1STR    H1V 9684   4.282   4.860   2.048
    1STR    H1W 9685   4.170   4.973   2.113
    1STR    H1X 9686   4.528   5.070   1.916
    1STR    H1Y 9687   4.321   5.298   2.044
    1STR    H1Z 9688   4.289   5.349   2.283
    1STR    H20 9689   4.324   5.094   2.552
    1STR    H21 9690   4.428   5.239   2.541
    1STR    H22 9691   4.253   5.238   2.518
    1STR    H23 9692   4.484   4.967   2.494
    1STR    H27 9693   4.481   4.915   2.152
    1STR    H28 9694   2.750   4.871   2.711
    1STR    H29 9695   2.656   4.918   2.492
    1STR    H2A 9696   2.747   4.720   2.187
    1STR    H2B 9697   2.684   4.866   2.243
    1STR    H2C 9698   2.577   4.730   2.234
    1STR   BCK1 9699   2.883   4.215   4.991
    1STR    O03 9700   2.912   4.313   5.057
    1STR    N04 9701   2.972   4.142   4.927
    1STR    C05 9702   2.955   4.043   4.833
    1STR    C06 9703   2.929   4.077   4.699
    1STR    C07 9704   2.940   3.982   4.595
    1STR    N08 9705   2.903   4.020   4.465
    1STR    C09 9706   2.944   3.986   4.343
    1STR    O0A 9707   3.031   3.904   4.315
    1STR    O0B 9708   2.873   4.056   4.254
    1STR    C0C 9709   2.937   4.150   4.169
    1STR    C0D 9710   2.931   4.101   4.024
    1STR    C0E 9711   2.860   4.281   4.187
    1STR    O0F 9712   2.886   4.330   4.318
    1STR    C0G 9713   2.780   4.392   4.386
    1STR    C0H 9714   2.709   4.284   4.461
    1STR    C0I 9715   2.819   4.505   4.479
    1STR    O0J 9716   2.837   4.627   4.412
    1STR    C0K 9717   4.050   4.546   5.257
    1STR    C0M 9718   4.181   4.593   5.196
    1STR    C0N 9719   4.060   4.453   5.380
    1STR    O0O 9720   4.064   4.318   5.342
    1STR    C0P 9721   4.119   4.230   5.427
    1STR    O0Q 9722   4.148   4.252   5.543
    1STR    N0R 9723   4.140   4.112   5.373
    1STR    C0S 9724   4.130   4.078   5.239
    1STR    C0T 9725   4.066   3.956   5.209
    1STR    C0U 9726   4.066   3.908   5.078
    1STR    C0V 9727   4.132   3.979   4.977
    1STR    C0W 9728   4.141   3.914   4.841
    1STR    C0X 9729   4.195   4.103   5.005
    1STR    N0Y 9730   4.275   4.156   4.904
    1STR   BCK2 9731   4.306   4.275   4.855
    1STR    O10 9732   4.333   4.279   4.736
    1STR    C13 9733   4.192   4.154   5.136
    1STR    C14 9734   2.973   3.850   4.630
    1STR    C15 9735   2.982   3.811   4.766
    1STR    C16 9736   2.972   3.908   4.868
    1STR    C17 9737   2.975   3.873   5.016
    1STR    H1B 9738   3.071   4.166   4.948
    1STR    H1C 9739   2.911   4.181   4.678
    1STR    H1D 9740   2.846   4.102   4.456
    1STR    H1E 9741   3.041   4.164   4.198
    1STR    H1F 9742   2.828   4.087   3.992
    1STR    H1G 9743   2.978   4.173   3.957
    1STR    H1H 9744   2.983   4.006   4.014
    1STR    H1I 9745   2.754   4.262   4.170
    1STR    H1J 9746   2.889   4.357   4.114
    1STR    H1K 9747   2.716   4.436   4.315
    1STR    H1M 9748   2.756   4.266   4.557
    1STR    H1N 9749   2.714   4.194   4.402
    1STR    H1O 9750   2.605   4.312   4.477
    1STR    H1P 9751   2.739   4.524   4.549
    1STR    H1Q 9752   2.908   4.472   4.531
    1STR   C010 9753   2.910   4.721   4.487
    1STR   H011 9754   2.989   4.664   4.529
    1STR   C012 9755   2.966   4.818   4.385
    1STR   H013 9756   2.884   4.852   4.325
    1STR   H014 9757   3.039   4.771   4.320
    1STR   H015 9758   3.013   4.905   4.430
    1STR   C016 9759   2.840   4.801   4.597
    1STR   H017 9760   2.900   4.880   4.642
    1STR   H018 9761   2.767   4.860   4.544
    1STR   O019 9762   2.778   4.726   4.699
    1STR   C020 9763   2.848   4.680   4.816
    1STR   H021 9764   2.773   4.658   4.891
    1STR   C022 9765   2.905   4.545   4.784
    1STR   H023 9766   2.986   4.550   4.714
    1STR   H024 9767   2.827   4.490   4.736
    1STR   H025 9768   2.937   4.491   4.873
    1STR   C026 9769   2.955   4.767   4.884
    1STR   H027 9770   2.997   4.703   4.960
    1STR   H028 9771   3.028   4.785   4.809
    1STR   O029 9772   2.932   4.894   4.941
    1STR   C030 9773   3.054   4.946   4.997
    1STR   H031 9774   3.138   4.925   4.931
    1STR   C032 9775   3.038   5.098   4.998
    1STR   H033 9776   2.956   5.127   5.064
    1STR   H034 9777   3.015   5.136   4.898
    1STR   H035 9778   3.128   5.148   5.033
    1STR   C036 9779   3.090   4.895   5.140
    1STR   H037 9780   3.188   4.933   5.171
    1STR   H038 9781   3.020   4.943   5.208
    1STR   O039 9782   3.075   4.757   5.169
    1STR   C040 9783   3.179   4.661   5.153
    1STR   H041 9784   3.207   4.657   5.049
    1STR   C042 9785   3.301   4.695   5.240
    1STR   H043 9786   3.270   4.713   5.343
    1STR   H044 9787   3.352   4.784   5.204
    1STR   H045 9788   3.373   4.613   5.240
    1STR   C046 9789   3.111   4.530   5.196
    1STR   H047 9790   3.107   4.527   5.304
    1STR   H048 9791   3.008   4.537   5.162
    1STR   O049 9792   3.145   4.402   5.144
    1STR   C050 9793   3.247   4.321   5.200
    1STR   H051 9794   3.341   4.363   5.169
    1STR   C052 9795   3.257   4.328   5.353
    1STR   H053 9796   3.159   4.325   5.401
    1STR   H054 9797   3.302   4.422   5.384
    1STR   H055 9798   3.318   4.247   5.393
    1STR   C056 9799   3.242   4.177   5.140
    1STR   H057 9800   3.338   4.131   5.162
    1STR   H058 9801   3.167   4.116   5.190
    1STR   O059 9802   3.213   4.164   4.999
    1STR   C060 9803   3.278   4.056   4.928
    1STR   H061 9804   3.377   4.093   4.927
    1STR   C062 9805   3.291   3.918   4.996
    1STR   H063 9806   3.216   3.849   4.961
    1STR   H064 9807   3.287   3.921   5.105
    1STR   H065 9808   3.383   3.869   4.968
    1STR   C066 9809   3.255   4.043   4.775
    1STR   H067 9810   3.353   4.029   4.731
    1STR   H068 9811   3.204   3.951   4.750
    1STR   O069 9812   3.185   4.151   4.712
    1STR   C070 9813   3.202   4.173   4.572
    1STR   H071 9814   3.284   4.241   4.564
    1STR   C072 9815   3.233   4.047   4.489
    1STR   H073 9816   3.164   3.966   4.506
    1STR   H074 9817   3.327   4.001   4.516
    1STR   H075 9818   3.233   4.068   4.383
    1STR   C076 9819   3.100   4.268   4.509
    1STR   H077 9820   3.003   4.226   4.497
    1STR   H078 9821   3.079   4.350   4.576
    1STR   O079 9822   3.140   4.301   4.377
    1STR   C080 9823   3.186   4.431   4.344
    1STR   H081 9824   3.261   4.401   4.274
    1STR   C082 9825   3.099   4.512   4.248
    1STR   H083 9826   3.004   4.536   4.291
    1STR   H084 9827   3.082   4.456   4.156
    1STR   H085 9828   3.147   4.605   4.219
    1STR   C086 9829   3.256   4.515   4.452
    1STR   H087 9830   3.347   4.464   4.482
    1STR   H088 9831   3.290   4.607   4.405
    1STR   O089 9832   3.177   4.544   4.568
    1STR   C090 9833   3.235   4.645   4.647
    1STR   H091 9834   3.339   4.629   4.626
    1STR   C092 9835   3.186   4.780   4.592
    1STR   H093 9836   3.091   4.812   4.628
    1STR   H094 9837   3.183   4.777   4.485
    1STR   H095 9838   3.242   4.867   4.615
    1STR   C096 9839   3.229   4.638   4.802
    1STR   H097 9840   3.224   4.740   4.840
    1STR   H098 9841   3.144   4.584   4.841
    1STR   O099 9842   3.346   4.594   4.866
    1STR   C100 9843   3.345   4.456   4.898
    1STR   H101 9844   3.258   4.432   4.958
    1STR   C102 9845   3.329   4.381   4.770
    1STR   H103 9846   3.223   4.379   4.744
    1STR   H104 9847   3.365   4.280   4.778
    1STR   H105 9848   3.383   4.429   4.690
    1STR   C106 9849   3.472   4.419   4.972
    1STR   H107 9850   3.550   4.470   4.919
    1STR   H108 9851   3.476   4.466   5.069
    1STR   O109 9852   3.481   4.275   4.976
    1STR   C110 9853   3.604   4.203   4.993
    1STR   H111 9854   3.681   4.267   4.955
    1STR   C112 9855   3.620   4.180   5.144
    1STR   H113 9856   3.553   4.103   5.181
    1STR   H114 9857   3.600   4.271   5.201
    1STR   H115 9858   3.722   4.148   5.168
    1STR   C116 9859   3.617   4.066   4.914
    1STR   H117 9860   3.714   4.023   4.938
    1STR   H118 9861   3.552   3.992   4.958
    1STR   O119 9862   3.598   4.070   4.769
    1STR   C120 9863   3.659   3.967   4.685
    1STR   H121 9864   3.766   3.975   4.697
    1STR   C122 9865   3.616   3.831   4.745
    1STR   H123 9866   3.507   3.824   4.749
    1STR   H124 9867   3.653   3.816   4.846
    1STR   H125 9868   3.652   3.748   4.686
    1STR   C126 9869   3.630   3.961   4.527
    1STR   H127 9870   3.695   3.881   4.489
    1STR   H128 9871   3.530   3.920   4.512
    1STR   O129 9872   3.652   4.069   4.429
    1STR   C130 9873   3.532   4.145   4.398
    1STR   H131 9874   3.456   4.074   4.368
    1STR   C132 9875   3.514   4.206   4.535
    1STR   H133 9876   3.609   4.209   4.581
    1STR   H134 9877   3.457   4.146   4.602
    1STR   H135 9878   3.478   4.309   4.537
    1STR   C136 9879   3.511   4.268   4.302
    1STR   H137 9880   3.410   4.293   4.330
    1STR   H138 9881   3.563   4.356   4.334
    1STR   O139 9882   3.500   4.265   4.160
    1STR   C140 9883   3.502   4.392   4.086
    1STR   H141 9884   3.604   4.408   4.053
    1STR   C142 9885   3.424   4.361   3.958
    1STR   H143 9886   3.319   4.344   3.979
    1STR   H144 9887   3.464   4.272   3.910
    1STR   H145 9888   3.433   4.444   3.887
    1STR   C146 9889   3.457   4.531   4.146
    1STR   H147 9890   3.350   4.536   4.161
    1STR   H148 9891   3.505   4.553   4.241
    1STR   O149 9892   3.480   4.636   4.052
    1STR   C150 9893   3.480   4.774   4.092
    1STR   H151 9894   3.556   4.792   4.165
    1STR   C152 9895   3.523   4.845   3.963
    1STR   H153 9896   3.489   4.791   3.875
    1STR   H154 9897   3.632   4.849   3.958
    1STR   H155 9898   3.485   4.946   3.956
    1STR   C156 9899   3.352   4.833   4.158
    1STR   H157 9900   3.266   4.799   4.100
    1STR   H158 9901   3.337   4.790   4.256
    1STR   O159 9902   3.348   4.977   4.167
    1STR   C160 9903   3.447   5.047   4.244
    1STR   H161 9904   3.521   4.977   4.281
    1STR   C162 9905   3.523   5.142   4.149
    1STR   H163 9906   3.453   5.206   4.095
    1STR   H164 9907   3.584   5.088   4.077
    1STR   H165 9908   3.592   5.206   4.203
    1STR   C166 9909   3.396   5.133   4.364
    1STR   H167 9910   3.480   5.192   4.396
    1STR   H168 9911   3.324   5.207   4.331
    1STR   O169 9912   3.348   5.059   4.477
    1STR   C170 9913   3.350   5.127   4.603
    1STR   H171 9914   3.423   5.208   4.602
    1STR   C172 9915   3.213   5.190   4.629
    1STR   H173 9916   3.135   5.114   4.629
    1STR   H174 9917   3.188   5.262   4.551
    1STR   H175 9918   3.211   5.242   4.725
    1STR   C176 9919   3.391   5.035   4.720
    1STR   H177 9920   3.421   5.100   4.801
    1STR   H178 9921   3.307   4.982   4.766
    1STR   O179 9922   3.503   4.949   4.693
    1STR   C180 9923   3.485   4.815   4.653
    1STR   H181 9924   3.403   4.794   4.717
    1STR   C182 9925   3.469   4.807   4.500
    1STR   H183 9926   3.530   4.885   4.462
    1STR   H184 9927   3.375   4.836   4.459
    1STR   H185 9928   3.496   4.714   4.452
    1STR   C186 9929   3.581   4.704   4.701
    1STR   H187 9930   3.682   4.741   4.700
    1STR   H188 9931   3.560   4.678   4.804
    1STR   O189 9932   3.570   4.584   4.621
    1STR   C190 9933   3.687   4.504   4.623
    1STR   H191 9934   3.773   4.561   4.660
    1STR   C192 9935   3.669   4.394   4.721
    1STR   H193 9936   3.730   4.310   4.696
    1STR   H194 9937   3.570   4.357   4.734
    1STR   H195 9938   3.706   4.425   4.816
    1STR   C196 9939   3.734   4.451   4.486
    1STR   H197 9940   3.839   4.450   4.501
    1STR   H198 9941   3.717   4.346   4.469
    1STR   O199 9942   3.703   4.530   4.371
    1STR   C200 9943   3.805   4.532   4.272
    1STR   H201 9944   3.900   4.535   4.318
    1STR   C202 9945   3.814   4.397   4.199
    1STR   H203 9946   3.727   4.335   4.209
    1STR   H204 9947   3.890   4.334   4.244
    1STR   H205 9948   3.833   4.408   4.093
    1STR   C206 9949   3.801   4.662   4.184
    1STR   H207 9950   3.872   4.650   4.103
    1STR   H208 9951   3.707   4.663   4.132
    1STR   O209 9952   3.835   4.792   4.241
    1STR   C210 9953   3.766   4.840   4.357
    1STR   H211 9954   3.664   4.815   4.334
    1STR   C212 9955   3.808   4.761   4.477
    1STR   H213 9956   3.885   4.688   4.459
    1STR   H214 9957   3.719   4.711   4.501
    1STR   H215 9958   3.833   4.817   4.567
    1STR   C216 9959   3.775   4.988   4.404
    1STR   H217 9960   3.880   5.012   4.414
    1STR   H218 9961   3.734   5.056   4.330
    1STR   O219 9962   3.703   5.000   4.531
    1STR   C220 9963   3.750   5.082   4.638
    1STR   H221 9964   3.854   5.071   4.625
    1STR   C222 9965   3.712   5.227   4.604
    1STR   H223 9966   3.624   5.228   4.541
    1STR   H224 9967   3.791   5.276   4.546
    1STR   H225 9968   3.689   5.287   4.691
    1STR   C226 9969   3.726   5.044   4.792
    1STR   H227 9970   3.796   5.093   4.858
    1STR   H228 9971   3.632   5.088   4.823
    1STR   O229 9972   3.733   4.905   4.832
    1STR   C230 9973   3.702   4.868   4.969
    1STR   H231 9974   3.775   4.918   5.033
    1STR   C232 9975   3.564   4.919   5.013
    1STR   H233 9976   3.486   4.879   4.948
    1STR   H234 9977   3.557   5.027   5.014
    1STR   H235 9978   3.542   4.886   5.114
    1STR   C236 9979   3.710   4.714   5.005
    1STR   H237 9980   3.750   4.708   5.106
    1STR   H238 9981   3.610   4.673   5.015
    1STR   O239 9982   3.781   4.625   4.917
    1STR   C240 9983   3.859   4.521   4.980
    1STR   H241 9984   3.931   4.575   5.037
    1STR   C242 9985   3.791   4.442   5.092
    1STR   H243 9986   3.834   4.342   5.102
    1STR   H244 9987   3.686   4.437   5.078
    1STR   H245 9988   3.798   4.488   5.190
    1STR   C246 9989   3.962   4.444   4.895
    1STR   H247 9990   4.024   4.522   4.858
    1STR   H248 9991   4.024   4.382   4.959
    1STR   O249 9992   3.928   4.379   4.773
    1STR   C250 9993   3.981   4.248   4.752
    1STR   H251 9994   4.087   4.250   4.767
    1STR   C252 9995   3.915   4.159   4.853
    1STR   H253 9996   3.812   4.175   4.833
    1STR   H254 9997   3.936   4.181   4.957
    1STR   H255 9998   3.932   4.054   4.834
    1STR   C256 9999   3.957   4.189   4.612
    1STR   H25710000   4.016   4.099   4.599
    1STR   H25810001   3.853   4.159   4.599
    1STR   O25910002   3.982   4.277   4.505
    1STR   C26010003   4.111   4.334   4.500
    1STR   H26110004   4.182   4.281   4.562
    1STR   C26210005   4.150   4.315   4.359
    1STR   H26310006   4.089   4.372   4.292
    1STR   H26410007   4.144   4.209   4.333
    1STR   H26510008   4.252   4.350   4.349
    1STR   C26610009   4.099   4.482   4.531
    1STR   H26710010   4.019   4.521   4.474
    1STR   H26810011   4.069   4.496   4.634
    1STR   O26910012   4.211   4.562   4.497
    1STR   C27010013   4.178   4.700   4.482
    1STR   H27110014   4.275   4.748   4.481
    1STR   C27210015   4.110   4.730   4.347
    1STR   H27310016   4.060   4.647   4.302
    1STR   H27410017   4.179   4.763   4.273
    1STR   H27510018   4.040   4.813   4.345
    1STR   C27610019   4.100   4.762   4.598
    1STR   H27710020   4.014   4.704   4.631
    1STR   H27810021   4.160   4.774   4.687
    1STR   O27910022   4.052   4.886   4.550
    1STR   C28010023   4.102   4.998   4.614
    1STR   H28110024   4.205   4.977   4.627
    1STR   C28210025   4.080   5.122   4.524
    1STR   H28310026   3.989   5.179   4.537
    1STR   H28410027   4.085   5.098   4.418
    1STR   H28510028   4.156   5.194   4.546
    1STR   C28610029   4.040   4.999   4.750
    1STR   H28710030   4.011   5.098   4.776
    1STR   H28810031   3.951   4.937   4.746
    1STR   O28910032   4.125   4.951   4.851
    1STR   C29010033   4.050   4.933   4.966
    1STR   H29110034   3.963   4.997   4.969
    1STR   C29210035   4.018   4.789   4.948
    1STR   H29310036   3.968   4.762   4.856
    1STR   H29410037   3.952   4.765   5.029
    1STR   H29510038   4.108   4.732   4.959
    1STR   C29610039   4.118   4.949   5.101
    1STR   H29710040   4.204   4.883   5.112
    1STR   H29810041   4.149   5.050   5.124
    1STR   O29910042   4.006   4.915   5.180
    1STR   C30010043   4.025   4.886   5.315
    1STR   H30110044   4.130   4.869   5.336
    1STR   C30210045   3.982   5.020   5.377
    1STR   H30310046   3.874   5.030   5.382
    1STR   H30410047   4.020   5.105   5.321
    1STR   H30510048   4.023   5.034   5.476
    1STR   C30610049   3.935   4.762   5.342
    1STR   H30710050   3.933   4.726   5.444
    1STR   H30810051   3.832   4.795   5.326
    1STR   O30910052   3.948   4.649   5.253
    1STR    H1R10053   4.023   4.471   5.184
    1STR    H1S10054   4.265   4.528   5.219
    1STR    H1T10055   4.204   4.695   5.219
    1STR    H1U10056   4.171   4.594   5.089
    1STR    H1V10057   3.981   4.470   5.453
    1STR    H1W10058   4.156   4.468   5.429
    1STR    H1X10059   4.171   4.044   5.440
    1STR    H1Y10060   4.020   3.898   5.287
    1STR    H1Z10061   4.020   3.813   5.056
    1STR    H2010062   4.047   3.865   4.814
    1STR    H2110063   4.165   3.984   4.761
    1STR    H2210064   4.217   3.838   4.845
    1STR    H2310065   4.330   4.087   4.851
    1STR    H2710066   4.244   4.245   5.160
    1STR    H2810067   2.985   3.778   4.552
    1STR    H2910068   2.996   3.707   4.790
    1STR    H2A10069   3.046   3.935   5.069
    1STR    H2B10070   2.997   3.768   5.034
    1STR    H2C10071   2.880   3.900   5.060
    1STR   BCK110072   2.616   4.845   6.928
    1STR    O0310073   2.654   4.941   6.990
    1STR    N0410074   2.598   4.837   6.797
    1STR    C0510075   2.641   4.925   6.700
    1STR    C0610076   2.666   5.061   6.724
    1STR    C0710077   2.744   5.138   6.636
    1STR    N0810078   2.779   5.265   6.680
    1STR    C0910079   2.877   5.343   6.636
    1STR    O0A10080   2.924   5.345   6.522
    1STR    O0B10081   2.928   5.412   6.737
    1STR    C0C10082   3.057   5.374   6.783
    1STR    C0D10083   3.112   5.484   6.873
    1STR    C0E10084   3.042   5.242   6.861
    1STR    O0F10085   3.025   5.126   6.783
    1STR    C0G10086   2.952   5.024   6.848
    1STR    C0H10087   2.948   4.901   6.760
    1STR    C0I10088   3.001   4.979   6.982
    1STR    O0J10089   2.906   4.880   7.018
    1STR    C0K10090   4.078   4.968   6.818
    1STR    C0M10091   4.010   5.085   6.748
    1STR    C0N10092   3.996   4.938   6.943
    1STR    O0O10093   4.073   4.883   7.047
    1STR    C0P10094   4.193   4.929   7.056
    1STR    O0Q10095   4.287   4.871   7.005
    1STR    N0R10096   4.200   5.056   7.093
    1STR    C0S10097   4.103   5.139   7.147
    1STR    C0T10098   4.064   5.253   7.078
    1STR    C0U10099   3.991   5.354   7.144
    1STR    C0V10100   3.965   5.346   7.281
    1STR    C0W10101   3.907   5.464   7.356
    1STR    C0X10102   3.997   5.227   7.347
    1STR    N0Y10103   3.987   5.218   7.484
    1STR   BCK210104   3.956   5.100   7.535
    1STR    O1010105   3.879   5.022   7.483
    1STR    C1310106   4.060   5.121   7.277
    1STR    C1410107   2.796   5.077   6.521
    1STR    C1510108   2.764   4.942   6.492
    1STR    C1610109   2.684   4.868   6.580
    1STR    C1710110   2.650   4.727   6.547
    1STR    H1B10111   2.573   4.744   6.768
    1STR    H1C10112   2.639   5.104   6.818
    1STR    H1D10113   2.746   5.287   6.773
    1STR    H1E10114   3.122   5.363   6.696
    1STR    H1F10115   3.050   5.493   6.961
    1STR    H1G10116   3.212   5.462   6.908
    1STR    H1H10117   3.114   5.580   6.822
    1STR    H1I10118   2.954   5.253   6.918
    1STR    H1J10119   3.121   5.224   6.933
    1STR    H1K10120   2.853   5.060   6.867
    1STR    H1M10121   2.947   4.923   6.656
    1STR    H1N10122   2.858   4.847   6.783
    1STR    H1O10123   3.028   4.831   6.781
    1STR    H1P10124   3.103   4.948   6.963
    1STR    H1Q10125   3.002   5.055   7.058
    1STR   C01010126   2.960   4.752   7.036
    1STR   H01110127   3.059   4.755   6.995
    1STR   C01210128   2.959   4.742   7.188
    1STR   H01310129   2.872   4.792   7.231
    1STR   H01410130   3.044   4.786   7.237
    1STR   H01510131   2.957   4.639   7.220
    1STR   C01610132   2.893   4.631   6.966
    1STR   H01710133   2.953   4.549   6.998
    1STR   H01810134   2.802   4.600   7.008
    1STR   O01910135   2.879   4.628   6.823
    1STR   C02010136   2.876   4.501   6.759
    1STR   H02110137   2.958   4.440   6.788
    1STR   C02210138   2.767   4.413   6.815
    1STR   H02310139   2.672   4.456   6.792
    1STR   H02410140   2.772   4.403   6.923
    1STR   H02510141   2.775   4.311   6.779
    1STR   C02610142   2.894   4.520   6.605
    1STR   H02710143   2.797   4.519   6.557
    1STR   H02810144   2.938   4.618   6.587
    1STR   O02910145   2.973   4.419   6.541
    1STR   C03010146   3.017   4.435   6.404
    1STR   H03110147   3.116   4.475   6.396
    1STR   C03210148   3.035   4.293   6.349
    1STR   H03310149   2.961   4.223   6.386
    1STR   H03410150   3.130   4.251   6.384
    1STR   H03510151   3.036   4.290   6.240
    1STR   C03610152   2.943   4.533   6.312
    1STR   H03710153   2.973   4.518   6.208
    1STR   H03810154   2.839   4.507   6.318
    1STR   O03910155   2.949   4.672   6.344
    1STR   C04010156   3.056   4.752   6.292
    1STR   H04110157   3.146   4.692   6.295
    1STR   C04210158   3.041   4.793   6.146
    1STR   H04310159   2.957   4.861   6.131
    1STR   H04410160   3.028   4.707   6.081
    1STR   H04510161   3.130   4.845   6.113
    1STR   C04610162   3.059   4.877   6.386
    1STR   H04710163   2.990   4.953   6.351
    1STR   H04810164   3.022   4.840   6.481
    1STR   O04910165   3.183   4.946   6.410
    1STR   C05010166   3.183   5.009   6.540
    1STR   H05110167   3.082   5.043   6.562
    1STR   C05210168   3.234   4.914   6.650
    1STR   H05310169   3.187   4.816   6.649
    1STR   H05410170   3.213   4.953   6.750
    1STR   H05510171   3.342   4.902   6.648
    1STR   C05610172   3.264   5.136   6.549
    1STR   H05710173   3.365   5.118   6.513
    1STR   H05810174   3.220   5.213   6.486
    1STR   O05910175   3.257   5.178   6.686
    1STR   C06010176   3.377   5.184   6.758
    1STR   H06110177   3.435   5.099   6.724
    1STR   C06210178   3.426   5.324   6.716
    1STR   H06310179   3.373   5.403   6.770
    1STR   H06410180   3.411   5.344   6.610
    1STR   H06510181   3.532   5.339   6.733
    1STR   C06610182   3.370   5.168   6.913
    1STR   H06710183   3.469   5.181   6.955
    1STR   H06810184   3.317   5.253   6.953
    1STR   O06910185   3.321   5.044   6.967
    1STR   C07010186   3.339   5.025   7.109
    1STR   H07110187   3.445   5.030   7.134
    1STR   C07210188   3.266   5.135   7.186
    1STR   H07310189   3.162   5.135   7.156
    1STR   H07410190   3.302   5.235   7.166
    1STR   H07510191   3.269   5.121   7.293
    1STR   C07610192   3.286   4.889   7.163
    1STR   H07710193   3.274   4.896   7.271
    1STR   H07810194   3.187   4.871   7.126
    1STR   O07910195   3.365   4.776   7.133
    1STR   C08010196   3.343   4.653   7.204
    1STR   H08110197   3.434   4.600   7.179
    1STR   C08210198   3.351   4.659   7.354
    1STR   H08310199   3.256   4.638   7.399
    1STR   H08410200   3.380   4.753   7.397
    1STR   H08510201   3.420   4.582   7.386
    1STR   C08610202   3.225   4.561   7.164
    1STR   H08710203   3.241   4.456   7.189
    1STR   H08810204   3.143   4.580   7.230
    1STR   O08910205   3.179   4.583   7.033
    1STR   C09010206   3.182   4.480   6.937
    1STR   H09110207   3.272   4.432   6.955
    1STR   C09210208   3.103   4.354   6.969
    1STR   H09310209   3.127   4.281   6.891
    1STR   H09410210   2.995   4.358   6.974
    1STR   H09510211   3.133   4.313   7.064
    1STR   C09610212   3.176   4.533   6.790
    1STR   H09710213   3.145   4.446   6.734
    1STR   H09810214   3.102   4.612   6.782
    1STR   O09910215   3.286   4.587   6.714
    1STR   C10010216   3.270   4.562   6.574
    1STR   H10110217   3.163   4.570   6.561
    1STR   C10210218   3.320   4.671   6.481
    1STR   H10310219   3.385   4.748   6.520
    1STR   H10410220   3.236   4.732   6.464
    1STR   H10510221   3.356   4.637   6.384
    1STR   C10610222   3.325   4.425   6.528
    1STR   H10710223   3.320   4.414   6.420
    1STR   H10810224   3.430   4.424   6.548
    1STR   O10910225   3.258   4.315   6.586
    1STR   C11010226   3.338   4.208   6.634
    1STR   H11110227   3.264   4.134   6.666
    1STR   C11210228   3.417   4.141   6.520
    1STR   H11310229   3.480   4.212   6.468
    1STR   H11410230   3.349   4.099   6.446
    1STR   H11510231   3.480   4.061   6.558
    1STR   C11610232   3.420   4.242   6.761
    1STR   H11710233   3.371   4.183   6.839
    1STR   H11810234   3.524   4.210   6.756
    1STR   O11910235   3.410   4.379   6.798
    1STR   C12010236   3.490   4.438   6.904
    1STR   H12110237   3.585   4.427   6.868
    1STR   C12210238   3.473   4.592   6.916
    1STR   H12310239   3.375   4.632   6.929
    1STR   H12410240   3.508   4.644   6.828
    1STR   H12510241   3.529   4.633   6.998
    1STR   C12610242   3.489   4.369   7.041
    1STR   H12710243   3.576   4.397   7.099
    1STR   H12810244   3.410   4.406   7.102
    1STR   O12910245   3.473   4.230   7.028
    1STR   C13010246   3.403   4.165   7.131
    1STR   H13110247   3.305   4.211   7.135
    1STR   C13210248   3.382   4.020   7.089
    1STR   H13310249   3.473   3.969   7.061
    1STR   H13410250   3.315   4.014   7.004
    1STR   H13510251   3.341   3.964   7.172
    1STR   C13610252   3.474   4.181   7.265
    1STR   H13710253   3.500   4.085   7.310
    1STR   H13810254   3.567   4.238   7.256
    1STR   O13910255   3.380   4.251   7.343
    1STR   C14010256   3.429   4.300   7.465
    1STR   H14110257   3.516   4.364   7.446
    1STR   C14210258   3.318   4.387   7.516
    1STR   H14310259   3.256   4.421   7.434
    1STR   H14410260   3.361   4.473   7.566
    1STR   H14510261   3.256   4.333   7.588
    1STR   C14610262   3.462   4.188   7.564
    1STR   H14710263   3.426   4.210   7.664
    1STR   H14810264   3.412   4.095   7.535
    1STR   O14910265   3.601   4.167   7.563
    1STR   C15010266   3.669   4.220   7.676
    1STR   H15110267   3.623   4.186   7.769
    1STR   C15210268   3.806   4.153   7.665
    1STR   H15310269   3.848   4.167   7.566
    1STR   H15410270   3.797   4.046   7.679
    1STR   H15510271   3.878   4.191   7.738
    1STR   C15610272   3.678   4.375   7.676
    1STR   H15710273   3.757   4.405   7.745
    1STR   H15810274   3.705   4.408   7.577
    1STR   O15910275   3.557   4.443   7.710
    1STR   C16010276   3.562   4.587   7.726
    1STR   H16110277   3.459   4.615   7.747
    1STR   C16210278   3.644   4.624   7.849
    1STR   H16310279   3.751   4.610   7.832
    1STR   H16410280   3.615   4.565   7.936
    1STR   H16510281   3.630   4.730   7.873
    1STR   C16610282   3.600   4.674   7.604
    1STR   H16710283   3.707   4.687   7.600
    1STR   H16810284   3.575   4.624   7.511
    1STR   O16910285   3.533   4.802   7.613
    1STR   C17010286   3.594   4.908   7.538
    1STR   H17110287   3.699   4.906   7.565
    1STR   C17210288   3.578   4.893   7.388
    1STR   H17310289   3.596   4.791   7.353
    1STR   H17410290   3.647   4.960   7.338
    1STR   H17510291   3.481   4.926   7.353
    1STR   C17610292   3.538   5.048   7.573
    1STR   H17710293   3.430   5.046   7.567
    1STR   H17810294   3.566   5.075   7.674
    1STR   O17910295   3.586   5.145   7.479
    1STR   C18010296   3.510   5.265   7.465
    1STR   H18110297   3.407   5.241   7.438
    1STR   C18210298   3.512   5.338   7.600
    1STR   H18310299   3.615   5.353   7.634
    1STR   H18410300   3.459   5.282   7.677
    1STR   H18510301   3.463   5.435   7.593
    1STR   C18610302   3.570   5.353   7.353
    1STR   H18710303   3.561   5.457   7.382
    1STR   H18810304   3.677   5.333   7.344
    1STR   O18910305   3.505   5.331   7.228
    1STR   C19010306   3.501   5.436   7.129
    1STR   H19110307   3.426   5.403   7.058
    1STR   C19210308   3.443   5.567   7.184
    1STR   H19310309   3.514   5.621   7.246
    1STR   H19410310   3.352   5.548   7.242
    1STR   H19510311   3.415   5.633   7.102
    1STR   C19610312   3.628   5.454   7.044
    1STR   H19710313   3.623   5.552   6.996
    1STR   H19810314   3.719   5.456   7.104
    1STR   O19910315   3.631   5.360   6.937
    1STR   C20010316   3.730   5.258   6.936
    1STR   H20110317   3.828   5.303   6.924
    1STR   C20210318   3.725   5.185   7.071
    1STR   H20310319   3.739   5.249   7.156
    1STR   H20410320   3.805   5.113   7.082
    1STR   H20510321   3.630   5.133   7.086
    1STR   C20610322   3.710   5.158   6.817
    1STR   H20710323   3.773   5.075   6.840
    1STR   H20810324   3.613   5.112   6.820
    1STR   O20910325   3.743   5.208   6.686
    1STR   C21010326   3.669   5.164   6.569
    1STR   H21110327   3.564   5.164   6.586
    1STR   C21210328   3.689   5.277   6.467
    1STR   H21310329   3.792   5.283   6.435
    1STR   H21410330   3.661   5.373   6.511
    1STR   H21510331   3.626   5.262   6.379
    1STR   C21610332   3.699   5.026   6.505
    1STR   H21710333   3.702   5.036   6.396
    1STR   H21810334   3.799   4.995   6.532
    1STR   O21910335   3.602   4.922   6.526
    1STR   C22010336   3.663   4.806   6.582
    1STR   H22110337   3.760   4.795   6.533
    1STR   C22210338   3.679   4.840   6.728
    1STR   H22310339   3.697   4.752   6.785
    1STR   H22410340   3.590   4.888   6.769
    1STR   H22510341   3.767   4.900   6.741
    1STR   C22610342   3.601   4.666   6.565
    1STR   H22710343   3.517   4.649   6.630
    1STR   H22810344   3.575   4.645   6.461
    1STR   O22910345   3.701   4.578   6.606
    1STR   C23010346   3.680   4.440   6.627
    1STR   H23110347   3.585   4.423   6.669
    1STR   C23210348   3.695   4.364   6.495
    1STR   H23310349   3.791   4.386   6.449
    1STR   H23410350   3.619   4.392   6.422
    1STR   H23510351   3.691   4.257   6.511
    1STR   C23610352   3.791   4.408   6.726
    1STR   H23710353   3.864   4.352   6.672
    1STR   H23810354   3.834   4.501   6.749
    1STR   O23910355   3.778   4.356   6.857
    1STR   C24010356   3.822   4.434   6.970
    1STR   H24110357   3.770   4.384   7.049
    1STR   C24210358   3.967   4.436   7.013
    1STR   H24310359   4.030   4.486   6.943
    1STR   H24410360   3.999   4.337   7.028
    1STR   H24510361   3.982   4.490   7.105
    1STR   C24610362   3.786   4.579   6.970
    1STR   H24710363   3.866   4.637   6.924
    1STR   H24810364   3.705   4.596   6.904
    1STR   O24910365   3.758   4.612   7.104
    1STR   C25010366   3.800   4.741   7.136
    1STR   H25110367   3.892   4.760   7.084
    1STR   C25210368   3.692   4.839   7.095
    1STR   H25310369   3.596   4.808   7.132
    1STR   H25410370   3.683   4.850   6.988
    1STR   H25510371   3.713   4.936   7.137
    1STR   C25610372   3.846   4.750   7.280
    1STR   H25710373   3.955   4.756   7.280
    1STR   H25810374   3.819   4.843   7.327
    1STR   O25910375   3.796   4.638   7.351
    1STR   C26010376   3.896   4.542   7.376
    1STR   H26110377   3.984   4.554   7.313
    1STR   C26210378   3.935   4.569   7.519
    1STR   H26310379   3.881   4.508   7.588
    1STR   H26410380   3.919   4.672   7.549
    1STR   H26510381   4.040   4.548   7.529
    1STR   C26610382   3.843   4.403   7.345
    1STR   H26710383   3.742   4.388   7.379
    1STR   H26810384   3.833   4.398   7.239
    1STR   O26910385   3.930   4.299   7.392
    1STR   C27010386   3.990   4.219   7.291
    1STR   H27110387   4.045   4.287   7.226
    1STR   C27210388   4.092   4.128   7.357
    1STR   H27310389   4.045   4.064   7.432
    1STR   H27410390   4.170   4.185   7.407
    1STR   H27510391   4.141   4.065   7.283
    1STR   C27610392   3.888   4.135   7.210
    1STR   H27710393   3.879   4.035   7.250
    1STR   H27810394   3.790   4.181   7.220
    1STR   O27910395   3.926   4.132   7.073
    1STR   C28010396   3.845   4.060   6.978
    1STR   H28110397   3.858   3.953   6.990
    1STR   C28210398   3.700   4.081   7.004
    1STR   H28310399   3.688   4.188   7.006
    1STR   H28410400   3.670   4.039   7.099
    1STR   H28510401   3.637   4.041   6.925
    1STR   C28610402   3.879   4.099   6.832
    1STR   H28710403   3.905   4.011   6.777
    1STR   H28810404   3.791   4.135   6.779
    1STR   O28910405   3.978   4.202   6.827
    1STR   C29010406   4.061   4.222   6.712
    1STR   H29110407   4.145   4.160   6.738
    1STR   C29210408   4.007   4.171   6.578
    1STR   H29310409   3.944   4.083   6.584
    1STR   H29410410   4.093   4.139   6.521
    1STR   H29510411   3.952   4.244   6.520
    1STR   C29610412   4.126   4.364   6.713
    1STR   H29710413   4.158   4.361   6.812
    1STR   H29810414   4.214   4.375   6.653
    1STR   O29910415   4.046   4.481   6.725
    1STR   C30010416   4.084   4.613   6.688
    1STR   H30110417   4.150   4.597   6.607
    1STR   C30210418   3.956   4.665   6.630
    1STR   H30310419   3.887   4.688   6.709
    1STR   H30410420   3.918   4.593   6.561
    1STR   H30510421   3.963   4.759   6.579
    1STR   C30610422   4.125   4.722   6.792
    1STR   H30710423   4.081   4.698   6.888
    1STR   H30810424   4.232   4.726   6.806
    1STR   O30910425   4.079   4.850   6.741
    1STR    H1R10426   4.181   5.002   6.831
    1STR    H1S10427   3.974   5.159   6.819
    1STR    H1T10428   3.927   5.048   6.691
    1STR    H1U10429   4.074   5.146   6.685
    1STR    H1V10430   3.912   4.875   6.914
    1STR    H1W10431   3.953   5.028   6.982
    1STR    H1X10432   4.296   5.089   7.086
    1STR    H1Y10433   4.095   5.265   6.977
    1STR    H1Z10434   3.962   5.440   7.088
    1STR    H2010435   3.989   5.529   7.388
    1STR    H2110436   3.840   5.522   7.294
    1STR    H2210437   3.853   5.433   7.445
    1STR    H2310438   4.041   5.283   7.538
    1STR    H2710439   4.090   5.032   7.328
    1STR    H2810440   2.860   5.130   6.453
    1STR    H2910441   2.797   4.895   6.402
    1STR    H2A10442   2.669   4.662   6.631
    1STR    H2B10443   2.703   4.693   6.458
    1STR    H2C10444   2.544   4.725   6.526
    1STR   BCK110445   2.756   6.858   0.230
    1STR    O0310446   2.696   6.924   0.146
    1STR    N0410447   2.735   6.880   0.360
    1STR    C0510448   2.801   6.828   0.470
    1STR    C0610449   2.842   6.693   0.484
    1STR    C0710450   2.936   6.657   0.583
    1STR    N0810451   3.015   6.544   0.573
    1STR    C0910452   2.989   6.423   0.527
    1STR    O0A10453   2.877   6.378   0.505
    1STR    O0B10454   3.106   6.359   0.510
    1STR    C0C10455   3.117   6.223   0.470
    1STR    C0D10456   3.055   6.135   0.580
    1STR    C0E10457   3.062   6.190   0.329
    1STR    O0F10458   3.127   6.246   0.215
    1STR    C0G10459   3.041   6.327   0.134
    1STR    C0H10460   3.045   6.464   0.203
    1STR    C0I10461   3.086   6.321   9.304
    1STR    O0J10462   3.026   6.419   9.216
    1STR    C0K10463   4.184   7.629   0.159
    1STR    C0M10464   4.323   7.644   0.096
    1STR    C0N10465   4.152   7.722   0.275
    1STR    O0O10466   4.107   7.644   0.384
    1STR    C0P10467   4.083   7.705   0.498
    1STR    O0Q10468   4.098   7.825   0.519
    1STR    N0R10469   4.038   7.625   0.593
    1STR    C0S10470   4.023   7.487   0.598
    1STR    C0T10471   3.931   7.438   0.692
    1STR    C0U10472   3.925   7.300   0.719
    1STR    C0V10473   4.016   7.211   0.658
    1STR    C0W10474   4.023   7.073   0.717
    1STR    C0X10475   4.102   7.254   0.552
    1STR    N0Y10476   4.179   7.171   0.467
    1STR   BCK210477   4.170   7.041   0.430
    1STR    O1010478   4.111   6.952   0.489
    1STR    C1310479   4.104   7.394   0.526
    1STR    C1410480   2.974   6.752   0.680
    1STR    C1510481   2.930   6.885   0.669
    1STR    C1610482   2.847   6.924   0.562
    1STR    C1710483   2.826   7.072   0.531
    1STR    H1B10484   2.681   6.963   0.374
    1STR    H1C10485   2.814   6.618   0.410
    1STR    H1D10486   3.113   6.559   0.587
    1STR    H1E10487   3.224   6.201   0.468
    1STR    H1F10488   2.947   6.143   0.581
    1STR    H1G10489   3.081   6.030   0.567
    1STR    H1H10490   3.091   6.166   0.679
    1STR    H1I10491   2.955   6.204   0.327
    1STR    H1J10492   3.083   6.085   0.314
    1STR    H1K10493   2.938   6.290   0.135
    1STR    H1M10494   3.051   6.545   0.131
    1STR    H1N10495   3.126   6.477   0.274
    1STR    H1O10496   2.958   6.481   0.264
    1STR    H1P10497   3.194   6.329   9.299
    1STR    H1Q10498   3.062   6.221   9.268
    1STR   C01010499   3.031   6.391   9.075
    1STR   H01110500   3.122   6.334   9.053
    1STR   C01210501   2.911   6.305   9.036
    1STR   H01310502   2.820   6.360   9.059
    1STR   H01410503   2.911   6.211   9.089
    1STR   H01510504   2.910   6.282   8.930
    1STR   C01610505   3.034   6.517   8.985
    1STR   H01710506   3.135   6.556   8.986
    1STR   H01810507   3.016   6.488   8.881
    1STR   O01910508   2.938   6.617   9.022
    1STR   C02010509   2.950   6.742   8.952
    1STR   H02110510   3.055   6.758   8.931
    1STR   C02210511   2.880   6.742   8.815
    1STR   H02310512   2.773   6.761   8.821
    1STR   H02410513   2.896   6.650   8.759
    1STR   H02510514   2.920   6.824   8.755
    1STR   C02610515   2.898   6.855   9.044
    1STR   H02710516   2.794   6.840   9.073
    1STR   H02810517   2.949   6.855   9.140
    1STR   O02910518   2.905   6.980   8.978
    1STR   C03010519   2.977   7.086   9.040
    1STR   H03110520   3.043   7.032   9.100
    1STR   C03210521   3.053   7.159   8.932
    1STR   H03310522   2.989   7.225   8.874
    1STR   H03410523   3.101   7.088   8.866
    1STR   H03510524   3.128   7.224   8.976
    1STR   C03610525   2.922   7.188   9.142
    1STR   H03710526   3.002   7.260   9.150
    1STR   H03810527   2.840   7.250   9.109
    1STR   O03910528   2.889   7.133   9.270
    1STR   C04010529   2.925   7.221   0.057
    1STR   H04110530   3.028   7.232   0.053
    1STR   C04210531   2.888   7.367   0.027
    1STR   H04310532   2.784   7.380   9.319
    1STR   H04410533   2.947   7.413   9.269
    1STR   H04510534   2.914   7.427   0.112
    1STR   C04610535   2.907   7.166   0.202
    1STR   H04710536   2.877   7.253   0.258
    1STR   H04810537   2.824   7.099   0.210
    1STR   O04910538   3.017   7.131   0.286
    1STR   C05010539   3.056   6.997   0.315
    1STR   H05110540   2.972   6.938   0.340
    1STR   C05210541   3.116   6.930   0.197
    1STR   H05310542   3.041   6.931   0.119
    1STR   H05410543   3.144   6.826   0.216
    1STR   H05510544   3.203   6.983   0.163
    1STR   C05610545   3.151   6.992   0.435
    1STR   H05710546   3.240   7.046   0.409
    1STR   H05810547   3.108   7.044   0.521
    1STR   O05910548   3.176   6.855   0.469
    1STR   C06010549   3.307   6.829   0.517
    1STR   H06110550   3.380   6.889   0.465
    1STR   C06210551   3.317   6.864   0.666
    1STR   H06310552   3.250   6.803   0.726
    1STR   H06410553   3.291   6.968   0.683
    1STR   H06510554   3.419   6.849   0.702
    1STR   C06610555   3.344   6.684   0.487
    1STR   H06710556   3.452   6.673   0.504
    1STR   H06810557   3.293   6.615   0.553
    1STR   O06910558   3.310   6.648   0.353
    1STR   C07010559   3.399   6.555   0.291
    1STR   H07110560   3.494   6.606   0.281
    1STR   C07210561   3.414   6.428   0.375
    1STR   H07310562   3.315   6.387   0.392
    1STR   H07410563   3.461   6.444   0.471
    1STR   H07510564   3.470   6.352   0.321
    1STR   C07610565   3.350   6.516   0.150
    1STR   H07710566   3.430   6.481   0.088
    1STR   H07810567   3.291   6.426   0.156
    1STR   O07910568   3.271   6.616   0.089
    1STR   C08010569   3.301   6.658   9.277
    1STR   H08110570   3.380   6.729   9.290
    1STR   C08210571   3.351   6.553   9.176
    1STR   H08310572   3.282   6.470   9.165
    1STR   H08410573   3.450   6.514   9.200
    1STR   H08510574   3.363   6.598   9.078
    1STR   C08610575   3.171   6.722   9.224
    1STR   H08710576   3.167   6.712   9.117
    1STR   H08810577   3.086   6.666   9.261
    1STR   O08910578   3.148   6.859   9.253
    1STR   C09010579   3.241   6.956   9.206
    1STR   H09110580   3.328   6.917   9.247
    1STR   C09210581   3.259   6.935   9.054
    1STR   H09310582   3.170   6.907   9.001
    1STR   H09410583   3.332   6.857   9.035
    1STR   H09510584   3.291   7.026   9.007
    1STR   C09610585   3.205   7.103   9.259
    1STR   H09710586   3.182   7.165   9.175
    1STR   H09810587   3.117   7.078   9.312
    1STR   O09910588   3.289   7.196   0.018
    1STR   C10010589   3.247   7.330   0.055
    1STR   H10110590   3.171   7.366   9.306
    1STR   C10210591   3.197   7.314   0.196
    1STR   H10310592   3.197   7.209   0.213
    1STR   H10410593   3.097   7.353   0.212
    1STR   H10510594   3.258   7.354   0.274
    1STR   C10610595   3.354   7.442   0.063
    1STR   H10710596   3.449   7.401   0.086
    1STR   H10810597   3.364   7.491   9.287
    1STR   O10910598   3.321   7.543   0.160
    1STR   C11010599   3.425   7.586   0.249
    1STR   H11110600   3.522   7.545   0.221
    1STR   C11210601   3.432   7.738   0.236
    1STR   H11310602   3.338   7.784   0.268
    1STR   H11410603   3.450   7.767   0.133
    1STR   H11510604   3.512   7.779   0.297
    1STR   C11610605   3.396   7.541   0.394
    1STR   H11710606   3.455   7.600   0.464
    1STR   H11810607   3.291   7.554   0.418
    1STR   O11910608   3.433   7.405   0.406
    1STR   C12010609   3.420   7.340   0.532
    1STR   H12110610   3.461   7.406   0.608
    1STR   C12210611   3.276   7.305   0.568
    1STR   H12310612   3.224   7.259   0.484
    1STR   H12410613   3.221   7.394   0.598
    1STR   H12510614   3.271   7.236   0.651
    1STR   C12610615   3.510   7.215   0.529
    1STR   H12710616   3.609   7.250   0.504
    1STR   H12810617   3.517   7.176   0.631
    1STR   O12910618   3.475   7.104   0.446
    1STR   C13010619   3.462   7.120   0.304
    1STR   H13110620   3.370   7.171   0.293
    1STR   C13210621   3.565   7.206   0.238
    1STR   H13310622   3.646   7.140   0.214
    1STR   H13410623   3.600   7.292   0.292
    1STR   H13510624   3.529   7.237   0.142
    1STR   C13610625   3.460   6.987   0.224
    1STR   H13710626   3.550   6.928   0.234
    1STR   H13810627   3.381   6.922   0.260
    1STR   O13910628   3.430   7.012   0.088
    1STR   C14010629   3.527   7.028   9.303
    1STR   H14110630   3.605   7.086   0.024
    1STR   C14210631   3.584   6.887   9.280
    1STR   H14310632   3.570   6.826   0.047
    1STR   H14410633   3.691   6.885   9.261
    1STR   H14510634   3.536   6.836   9.197
    1STR   C14610635   3.487   7.098   9.164
    1STR   H14710636   3.567   7.161   9.162
    1STR   H14810637   3.494   7.029   9.082
    1STR   O14910638   3.404   7.212   9.129
    1STR   C15010639   3.422   7.289   9.007
    1STR   H15110640   3.525   7.319   8.998
    1STR   C15210641   3.393   7.215   8.877
    1STR   H15310642   3.289   7.208   8.850
    1STR   H15410643   3.431   7.114   8.880
    1STR   H15510644   3.440   7.266   8.793
    1STR   C15610645   3.334   7.415   9.014
    1STR   H15710646   3.287   7.437   8.918
    1STR   H15810647   3.251   7.395   9.082
    1STR   O15910648   3.402   7.530   9.061
    1STR   C16010649   3.480   7.600   8.965
    1STR   H16110650   3.470   7.557   8.866
    1STR   C16210651   3.427   7.744   8.964
    1STR   H16310652   3.439   7.789   9.062
    1STR   H16410653   3.322   7.746   8.937
    1STR   H16510654   3.482   7.804   8.892
    1STR   C16610655   3.627   7.595   9.006
    1STR   H16710656   3.657   7.493   8.994
    1STR   H16810657   3.691   7.651   8.939
    1STR   O16910658   3.643   7.638   9.141
    1STR   C17010659   3.733   7.559   9.219
    1STR   H17110660   3.829   7.549   9.168
    1STR   C17210661   3.750   7.635   0.030
    1STR   H17310662   3.655   7.644   0.082
    1STR   H17410663   3.786   7.736   0.014
    1STR   H17510664   3.820   7.583   0.096
    1STR   C17610665   3.674   7.420   9.245
    1STR   H17710666   3.693   7.385   0.025
    1STR   H17810667   3.567   7.434   9.240
    1STR   O17910668   3.696   7.326   9.142
    1STR   C18010669   3.792   7.223   9.148
    1STR   H18110670   3.877   7.279   9.115
    1STR   C18210671   3.828   7.160   9.285
    1STR   H18310672   3.812   7.054   9.292
    1STR   H18410673   3.775   7.201   0.048
    1STR   H18510674   3.933   7.166   9.309
    1STR   C18610675   3.756   7.106   9.050
    1STR   H18710676   3.844   7.077   9.006
    1STR   H18810677   3.724   7.020   9.106
    1STR   O18910678   3.665   7.113   8.940
    1STR   C19010679   3.669   6.997   8.853
    1STR   H19110680   3.772   6.977   8.828
    1STR   C19210681   3.604   6.868   8.905
    1STR   H19310682   3.496   6.877   8.907
    1STR   H19410683   3.637   6.838   9.004
    1STR   H19510684   3.627   6.785   8.838
    1STR   C19610685   3.606   7.033   8.719
    1STR   H19710686   3.504   6.997   8.708
    1STR   H19810687   3.604   7.141   8.724
    1STR   O19910688   3.688   6.990   8.612
    1STR   C20010689   3.640   7.010   8.480
    1STR   H20110690   3.731   7.021   8.420
    1STR   C20210691   3.575   6.877   8.439
    1STR   H20310692   3.488   6.855   8.501
    1STR   H20410693   3.645   6.795   8.452
    1STR   H20510694   3.543   6.878   8.335
    1STR   C20610695   3.549   7.132   8.451
    1STR   H20710696   3.558   7.164   8.347
    1STR   H20810697   3.446   7.100   8.462
    1STR   O20910698   3.559   7.244   8.538
    1STR   C21010699   3.666   7.336   8.526
    1STR   H21110700   3.669   7.370   8.422
    1STR   C21210701   3.623   7.454   8.612
    1STR   H21310702   3.610   7.423   8.715
    1STR   H21410703   3.527   7.495   8.578
    1STR   H21510704   3.696   7.535   8.609
    1STR   C21610705   3.808   7.285   8.563
    1STR   H21710706   3.836   7.210   8.489
    1STR   H21810707   3.876   7.369   8.549
    1STR   O21910708   3.828   7.222   8.690
    1STR   C22010709   3.922   7.282   8.779
    1STR   H22110710   3.993   7.345   8.726
    1STR   C22210711   3.843   7.382   8.861
    1STR   H22310712   3.751   7.334   8.894
    1STR   H22410713   3.816   7.470   8.802
    1STR   H22510714   3.896   7.418   8.948
    1STR   C22610715   4.008   7.184   8.866
    1STR   H22710716   4.111   7.215   8.853
    1STR   H22810717   3.996   7.213   8.969
    1STR   O22910718   3.988   7.040   8.852
    1STR   C23010719   4.030   6.943   8.954
    1STR   H23110720   4.118   6.894   8.918
    1STR   C23210721   4.068   7.003   9.089
    1STR   H23310722   3.990   7.053   9.140
    1STR   H23410723   4.153   7.070   9.084
    1STR   H23510724   4.088   6.925   9.160
    1STR   C23610725   3.926   6.829   8.979
    1STR   H23710726   3.842   6.866   9.034
    1STR   H23810727   3.887   6.791   8.885
    1STR   O23910728   3.967   6.720   9.062
    1STR   C24010729   3.876   6.609   9.061
    1STR   H24110730   3.783   6.636   9.012
    1STR   C24210731   3.941   6.495   8.982
    1STR   H24310732   3.999   6.427   9.044
    1STR   H24410733   4.007   6.532   8.905
    1STR   H24510734   3.864   6.434   8.935
    1STR   C24610735   3.840   6.557   9.201
    1STR   H24710736   3.811   6.453   9.185
    1STR   H24810737   3.920   6.556   9.274
    1STR   O24910738   3.730   6.628   9.256
    1STR   C25010739   3.680   6.575   0.059
    1STR   H25110740   3.580   6.614   0.058
    1STR   C25210741   3.669   6.421   0.060
    1STR   H25310742   3.767   6.373   0.061
    1STR   H25410743   3.615   6.384   9.293
    1STR   H25510744   3.616   6.386   0.148
    1STR   C25610745   3.739   6.634   0.189
    1STR   H25710746   3.689   6.727   0.214
    1STR   H25810747   3.715   6.570   0.273
    1STR   O25910748   3.880   6.645   0.191
    1STR   C26010749   3.939   6.776   0.186
    1STR   H26110750   4.031   6.770   0.243
    1STR   C26210751   3.981   6.806   0.045
    1STR   H26310752   3.898   6.816   9.297
    1STR   H26410753   4.045   6.726   0.010
    1STR   H26510754   4.039   6.898   0.045
    1STR   C26610755   3.864   6.896   0.243
    1STR   H26710756   3.933   6.980   0.235
    1STR   H26810757   3.778   6.923   0.182
    1STR   O26910758   3.829   6.876   0.378
    1STR   C27010759   3.761   6.986   0.436
    1STR   H27110760   3.670   6.999   0.381
    1STR   C27210761   3.719   6.940   0.576
    1STR   H27310762   3.797   6.883   0.625
    1STR   H27410763   3.632   6.875   0.568
    1STR   H27510764   3.691   7.024   0.640
    1STR   C27610765   3.836   7.121   0.428
    1STR   H27710766   3.802   7.189   0.505
    1STR   H27810767   3.937   7.100   0.449
    1STR   O27910768   3.833   7.181   0.299
    1STR   C28010769   3.875   7.315   0.272
    1STR   H28110770   3.822   7.344   0.183
    1STR   C28210771   3.825   7.427   0.364
    1STR   H28310772   3.824   7.397   0.467
    1STR   H28410773   3.723   7.456   0.341
    1STR   H28510774   3.885   7.517   0.352
    1STR   C28610775   4.020   7.315   0.224
    1STR   H28710776   4.077   7.389   0.278
    1STR   H28810777   4.061   7.217   0.244
    1STR   O28910778   4.025   7.342   0.085
    1STR   C29010779   4.150   7.336   0.016
    1STR   H29110780   4.210   7.421   0.037
    1STR   C29210781   4.237   7.221   0.050
    1STR   H29310782   4.328   7.224   9.310
    1STR   H29410783   4.186   7.126   0.036
    1STR   H29510784   4.266   7.236   0.153
    1STR   C29610785   4.125   7.337   9.188
    1STR   H29710786   4.216   7.335   9.127
    1STR   H29810787   4.072   7.248   9.164
    1STR   O29910788   4.044   7.449   9.163
    1STR   C30010789   4.119   7.566   9.151
    1STR   H30110790   4.225   7.548   9.169
    1STR   C30210791   4.096   7.595   9.002
    1STR   H30310792   3.997   7.636   8.984
    1STR   H30410793   4.106   7.503   8.943
    1STR   H30510794   4.171   7.660   8.961
    1STR   C30610795   4.074   7.670   9.258
    1STR   H30710796   4.132   7.760   9.258
    1STR   H30810797   3.974   7.704   9.231
    1STR   O30910798   4.071   7.616   0.071
    1STR    H1R10799   4.196   7.534   0.209
    1STR    H1S10800   4.393   7.686   0.167
    1STR    H1T10801   4.320   7.704   0.007
    1STR    H1U10802   4.366   7.548   0.066
    1STR    H1V10803   4.074   7.792   0.249
    1STR    H1W10804   4.241   7.776   0.309
    1STR    H1X10805   4.016   7.678   0.676
    1STR    H1Y10806   3.866   7.504   0.747
    1STR    H1Z10807   3.856   7.265   0.793
    1STR    H2010808   3.992   7.066   0.821
    1STR    H2110809   3.962   7.004   0.662
    1STR    H2210810   4.127   7.043   0.712
    1STR    H2310811   4.249   7.220   0.416
    1STR    H2710812   4.177   7.432   0.457
    1STR    H2810813   3.044   6.726   0.757
    1STR    H2910814   2.970   6.958   0.737
    1STR    H2A10815   2.887   7.135   0.594
    1STR    H2B10816   2.723   7.103   0.530
    1STR    H2C10817   2.855   7.096   0.432
    1STR   BCK110818   2.683   7.319   2.282
    1STR    O0310819   2.637   7.420   2.233
    1STR    N0410820   2.722   7.216   2.208
    1STR    C0510821   2.793   7.225   2.091
    1STR    C0610822   2.800   7.345   2.020
    1STR    C0710823   2.913   7.372   1.947
    1STR    N0810824   2.956   7.496   1.988
    1STR    C0910825   3.054   7.584   1.976
    1STR    O0A10826   3.129   7.597   1.881
    1STR    O0B10827   3.063   7.659   2.089
    1STR    C0C10828   2.983   7.649   2.211
    1STR    C0D10829   2.846   7.714   2.195
    1STR    C0E10830   2.967   7.511   2.279
    1STR    O0F10831   3.077   7.425   2.268
    1STR    C0G10832   3.054   7.285   2.286
    1STR    C0H10833   3.136   7.221   2.179
    1STR    C0I10834   3.107   7.228   2.414
    1STR    O0J10835   3.031   7.256   2.528
    1STR    C0K10836   4.448   6.452   2.592
    1STR    C0M10837   4.566   6.364   2.617
    1STR    C0N10838   4.425   6.479   2.441
    1STR    O0O10839   4.337   6.584   2.406
    1STR    C0P10840   4.348   6.704   2.457
    1STR    O0Q10841   4.433   6.742   2.535
    1STR    N0R10842   4.256   6.781   2.405
    1STR    C0S10843   4.224   6.913   2.430
    1STR    C0T10844   4.200   6.997   2.322
    1STR    C0U10845   4.168   7.130   2.346
    1STR    C0V10846   4.158   7.181   2.476
    1STR    C0W10847   4.124   7.325   2.490
    1STR    C0X10848   4.170   7.097   2.586
    1STR    N0Y10849   4.148   7.156   2.711
    1STR   BCK210850   4.116   7.107   2.830
    1STR    O1010851   4.105   7.178   2.929
    1STR    C1310852   4.202   6.961   2.560
    1STR    C1410853   2.985   7.264   1.893
    1STR    C1510854   2.956   7.134   1.939
    1STR    C1610855   2.873   7.117   2.050
    1STR    C1710856   2.871   6.987   2.124
    1STR    H1B10857   2.703   7.124   2.246
    1STR    H1C10858   2.737   7.429   2.040
    1STR    H1D10859   2.905   7.526   2.068
    1STR    H1E10860   3.037   7.710   2.282
    1STR    H1F10861   2.776   7.651   2.140
    1STR    H1G10862   2.802   7.733   2.292
    1STR    H1H10863   2.850   7.810   2.144
    1STR    H1I10864   2.884   7.462   2.233
    1STR    H1J10865   2.943   7.524   2.385
    1STR    H1K10866   2.952   7.254   2.275
    1STR    H1M10867   3.120   7.277   2.090
    1STR    H1N10868   3.112   7.118   2.160
    1STR    H1O10869   3.241   7.224   2.203
    1STR    H1P10870   3.123   7.120   2.405
    1STR    H1Q10871   3.202   7.278   2.419
    1STR   C01010872   3.088   7.209   2.649
    1STR   H01110873   3.195   7.224   2.660
    1STR   C01210874   3.029   7.313   2.745
    1STR   H01310875   2.921   7.303   2.758
    1STR   H01410876   3.046   7.413   2.707
    1STR   H01510877   3.076   7.311   2.842
    1STR   C01610878   3.061   7.058   2.676
    1STR   H01710879   3.086   7.036   2.779
    1STR   H01810880   2.954   7.043   2.664
    1STR   O01910881   3.134   6.959   2.599
    1STR   C02010882   3.065   6.832   2.596
    1STR   H02110883   3.014   6.830   2.687
    1STR   C02210884   2.965   6.839   2.484
    1STR   H02310885   2.987   6.767   2.407
    1STR   H02410886   2.966   6.936   2.437
    1STR   H02510887   2.868   6.811   2.524
    1STR   C02610888   3.128   6.691   2.593
    1STR   H02710889   3.046   6.620   2.575
    1STR   H02810890   3.188   6.687   2.504
    1STR   O02910891   3.189   6.643   2.714
    1STR   C03010892   3.240   6.507   2.727
    1STR   H03110893   3.335   6.517   2.779
    1STR   C03210894   3.163   6.430   2.832
    1STR   H03310895   3.060   6.461   2.830
    1STR   H03410896   3.204   6.452   2.931
    1STR   H03510897   3.170   6.323   2.822
    1STR   C03610898   3.276   6.418   2.605
    1STR   H03710899   3.383   6.424   2.593
    1STR   H03810900   3.259   6.313   2.626
    1STR   O03910901   3.212   6.456   2.485
    1STR   C04010902   3.255   6.393   2.365
    1STR   H04110903   3.360   6.400   2.369
    1STR   C04210904   3.242   6.240   2.370
    1STR   H04310905   3.161   6.208   2.435
    1STR   H04410906   3.331   6.195   2.413
    1STR   H04510907   3.229   6.196   2.271
    1STR   C04610908   3.210   6.472   2.236
    1STR   H04710909   3.284   6.467   2.158
    1STR   H04810910   3.126   6.422   2.190
    1STR   O04910911   3.195   6.612   2.263
    1STR   C05010912   3.131   6.707   2.176
    1STR   H05110913   3.026   6.699   2.198
    1STR   C05210914   3.171   6.844   2.230
    1STR   H05310915   3.172   6.849   2.337
    1STR   H05410916   3.102   6.918   2.197
    1STR   H05510917   3.267   6.878   2.194
    1STR   C05610918   3.159   6.706   2.022
    1STR   H05710919   3.263   6.684   2.009
    1STR   H05810920   3.106   6.625   1.974
    1STR   O05910921   3.127   6.835   1.960
    1STR   C06010922   3.165   6.855   1.822
    1STR   H06110923   3.249   6.792   1.802
    1STR   C06210924   3.052   6.805   1.733
    1STR   H06310925   2.955   6.835   1.772
    1STR   H06410926   3.058   6.697   1.723
    1STR   H06510927   3.062   6.844   1.632
    1STR   C06610928   3.213   6.997   1.772
    1STR   H06710929   3.299   6.980   1.707
    1STR   H06810930   3.137   7.042   1.710
    1STR   O06910931   3.248   7.096   1.869
    1STR   C07010932   3.328   7.208   1.825
    1STR   H07110933   3.430   7.177   1.832
    1STR   C07210934   3.304   7.254   1.680
    1STR   H07310935   3.200   7.274   1.659
    1STR   H07410936   3.340   7.181   1.608
    1STR   H07510937   3.359   7.346   1.661
    1STR   C07610938   3.312   7.324   1.925
    1STR   H07710939   3.217   7.374   1.919
    1STR   H07810940   3.317   7.280   2.022
    1STR   O07910941   3.410   7.426   1.918
    1STR   C08010942   3.431   7.506   2.036
    1STR   H08110943   3.518   7.464   2.082
    1STR   C08210944   3.467   7.645   1.982
    1STR   H08310945   3.379   7.692   1.939
    1STR   H08410946   3.543   7.638   1.904
    1STR   H08510947   3.506   7.709   2.061
    1STR   C08610948   3.330   7.513   2.154
    1STR   H08710949   3.320   7.617   2.184
    1STR   H08810950   3.233   7.486   2.115
    1STR   O08910951   3.355   7.429   2.269
    1STR   C09010952   3.362   7.491   2.400
    1STR   H09110953   3.443   7.559   2.390
    1STR   C09210954   3.246   7.582   2.443
    1STR   H09310955   3.157   7.524   2.467
    1STR   H09410956   3.222   7.657   2.369
    1STR   H09510957   3.271   7.635   2.535
    1STR   C09610958   3.393   7.395   2.519
    1STR   H09710959   3.447   7.451   2.595
    1STR   H09810960   3.303   7.370   2.574
    1STR   O09910961   3.475   7.282   2.495
    1STR   C10010962   3.414   7.153   2.494
    1STR   H10110963   3.311   7.149   2.519
    1STR   C10210964   3.432   7.107   2.353
    1STR   H10310965   3.420   7.194   2.291
    1STR   H10410966   3.358   7.034   2.322
    1STR   H10510967   3.532   7.070   2.333
    1STR   C10610968   3.473   7.068   2.604
    1STR   H10710969   3.567   7.026   2.571
    1STR   H10810970   3.481   7.136   2.688
    1STR   O10910971   3.400   6.960   2.655
    1STR   C11010972   3.479   6.893   2.753
    1STR   H11110973   3.579   6.934   2.766
    1STR   C11210974   3.406   6.909   2.883
    1STR   H11310975   3.307   6.867   2.869
    1STR   H11410976   3.398   7.015   2.907
    1STR   H11510977   3.456   6.857   2.965
    1STR   C11610978   3.492   6.746   2.720
    1STR   H11710979   3.555   6.699   2.794
    1STR   H11810980   3.396   6.705   2.730
    1STR   O11910981   3.546   6.719   2.594
    1STR   C12010982   3.463   6.676   2.486
    1STR   H12110983   3.375   6.632   2.526
    1STR   C12210984   3.426   6.797   2.405
    1STR   H12310985   3.345   6.852   2.453
    1STR   H12410986   3.395   6.767   2.306
    1STR   H12510987   3.507   6.867   2.391
    1STR   C12610988   3.532   6.568   2.402
    1STR   H12710989   3.638   6.575   2.400
    1STR   H12810990   3.519   6.475   2.452
    1STR   O12910991   3.482   6.554   2.271
    1STR   C13010992   3.555   6.471   2.183
    1STR   H13110993   3.660   6.476   2.211
    1STR   C13210994   3.513   6.323   2.189
    1STR   H13310995   3.411   6.304   2.160
    1STR   H13410996   3.527   6.284   2.290
    1STR   H13510997   3.571   6.260   2.124
    1STR   C13610998   3.536   6.534   2.044
    1STR   H13710999   3.631   6.532   1.991
    1STR   H13811000   3.465   6.476   1.986
    1STR   O13911001   3.485   6.667   2.058
    1STR   C14011002   3.522   6.761   1.959
    1STR   H14111003   3.629   6.774   1.970
    1STR   C14211004   3.484   6.698   1.823
    1STR   H14311005   3.387   6.649   1.826
    1STR   H14411006   3.549   6.616   1.795
    1STR   H14511007   3.485   6.771   1.742
    1STR   C14611008   3.454   6.899   1.980
    1STR   H14711009   3.451   6.953   1.886
    1STR   H14811010   3.351   6.885   2.006
    1STR   O14911011   3.503   6.986   2.082
    1STR   C15011012   3.615   7.071   2.058
    1STR   H15111013   3.689   7.030   2.124
    1STR   C15211014   3.675   7.058   1.919
    1STR   H15311015   3.618   7.103   1.839
    1STR   H15411016   3.697   6.957   1.890
    1STR   H15511017   3.767   7.113   1.926
    1STR   C15611018   3.591   7.223   2.087
    1STR   H15711019   3.607   7.282   1.997
    1STR   H15811020   3.486   7.231   2.106
    1STR   O15911021   3.649   7.282   2.205
    1STR   C16011022   3.731   7.402   2.204
    1STR   H16111023   3.817   7.373   2.263
    1STR   C16211024   3.783   7.447   2.066
    1STR   H16311025   3.708   7.493   2.003
    1STR   H16411026   3.823   7.363   2.009
    1STR   H16511027   3.861   7.521   2.079
    1STR   C16611028   3.679   7.520   2.289
    1STR   H16711029   3.751   7.600   2.281
    1STR   H16811030   3.589   7.563   2.248
    1STR   O16911031   3.660   7.484   2.427
    1STR   C17011032   3.684   7.583   2.526
    1STR   H17111033   3.769   7.639   2.490
    1STR   C17211034   3.579   7.694   2.546
    1STR   H17311035   3.490   7.659   2.597
    1STR   H17411036   3.551   7.740   2.452
    1STR   H17511037   3.620   7.773   2.610
    1STR   C17611038   3.726   7.517   2.660
    1STR   H17711039   3.819   7.466   2.643
    1STR   H17811040   3.743   7.597   2.731
    1STR   O17911041   3.643   7.421   2.726
    1STR   C18011042   3.711   7.368   2.842
    1STR   H18111043   3.818   7.369   2.827
    1STR   C18211044   3.671   7.449   2.966
    1STR   H18311045   3.565   7.437   2.987
    1STR   H18411046   3.691   7.555   2.952
    1STR   H18511047   3.727   7.415   3.053
    1STR   C18611048   3.691   7.219   2.861
    1STR   H18711049   3.766   7.174   2.927
    1STR   H18811050   3.593   7.200   2.905
    1STR   O18911051   3.692   7.157   2.735
    1STR   C19011052   3.811   7.137   2.662
    1STR   H19111053   3.894   7.192   2.705
    1STR   C19211054   3.829   6.986   2.675
    1STR   H19311055   3.749   6.929   2.629
    1STR   H19411056   3.827   6.956   2.780
    1STR   H19511057   3.921   6.952   2.631
    1STR   C19611058   3.780   7.191   2.521
    1STR   H19711059   3.691   7.147   2.479
    1STR   H19811060   3.748   7.294   2.530
    1STR   O19911061   3.885   7.191   2.425
    1STR   C20011062   3.863   7.108   2.313
    1STR   H20111063   3.757   7.107   2.294
    1STR   C20211064   3.930   7.157   2.185
    1STR   H20311065   4.005   7.087   2.148
    1STR   H20411066   3.976   7.255   2.198
    1STR   H20511067   3.858   7.168   2.106
    1STR   C20611068   3.902   6.966   2.348
    1STR   H20711069   3.937   6.912   2.261
    1STR   H20811070   3.976   6.963   2.426
    1STR   O20911071   3.787   6.914   2.403
    1STR   C21011072   3.770   6.779   2.382
    1STR   H21111073   3.680   6.780   2.435
    1STR   C21211074   3.727   6.753   2.237
    1STR   H21311075   3.760   6.659   2.195
    1STR   H21411076   3.754   6.834   2.172
    1STR   H21511077   3.619   6.755   2.231
    1STR   C21611078   3.852   6.677   2.464
    1STR   H21711079   3.868   6.591   2.400
    1STR   H21811080   3.947   6.722   2.492
    1STR   O21911081   3.777   6.640   2.581
    1STR   C22011082   3.793   6.519   2.657
    1STR   H22111083   3.870   6.456   2.623
    1STR   C22211084   3.829   6.565   2.798
    1STR   H22311085   3.860   6.480   2.860
    1STR   H22411086   3.747   6.615   2.847
    1STR   H22511087   3.912   6.636   2.795
    1STR   C22611088   3.675   6.420   2.652
    1STR   H22711089   3.678   6.356   2.739
    1STR   H22811090   3.584   6.477   2.663
    1STR   O22911091   3.673   6.342   2.530
    1STR   C23011092   3.745   6.220   2.527
    1STR   H23111093   3.842   6.240   2.570
    1STR   C23211094   3.674   6.116   2.615
    1STR   H23311095   3.569   6.105   2.585
    1STR   H23411096   3.677   6.141   2.721
    1STR   H23511097   3.722   6.018   2.605
    1STR   C23611098   3.764   6.160   2.384
    1STR   H23711099   3.845   6.087   2.389
    1STR   H23811100   3.674   6.105   2.358
    1STR   O23911101   3.788   6.251   2.276
    1STR   C24011102   3.837   6.194   2.151
    1STR   H24111103   3.944   6.182   2.162
    1STR   C24211104   3.779   6.055   2.118
    1STR   H24311105   3.670   6.055   2.116
    1STR   H24411106   3.813   5.979   2.188
    1STR   H24511107   3.814   6.023   2.020
    1STR   C24611108   3.811   6.293   2.034
    1STR   H24711109   3.721   6.268   1.978
    1STR   H24811110   3.794   6.393   2.073
    1STR   O24911111   3.923   6.311   1.950
    1STR   C25011112   3.916   6.285   1.810
    1STR   H25111113   3.992   6.352   1.769
    1STR   C25211114   3.967   6.144   1.788
    1STR   H25311115   3.892   6.070   1.814
    1STR   H25411116   4.054   6.126   1.852
    1STR   H25511117   3.998   6.128   1.685
    1STR   C25611118   3.782   6.310   1.732
    1STR   H25711119   3.798   6.293   1.626
    1STR   H25811120   3.708   6.236   1.762
    1STR   O25911121   3.724   6.438   1.750
    1STR   C26011122   3.797   6.544   1.690
    1STR   H26111123   3.896   6.511   1.657
    1STR   C26211124   3.724   6.602   1.568
    1STR   H26311125   3.626   6.643   1.593
    1STR   H26411126   3.710   6.527   1.491
    1STR   H26511127   3.781   6.685   1.525
    1STR   C26611128   3.818   6.647   1.800
    1STR   H26711129   3.737   6.718   1.806
    1STR   H26811130   3.830   6.598   1.896
    1STR   O26911131   3.929   6.724   1.763
    1STR   C27011132   4.018   6.758   1.865
    1STR   H27111133   4.093   6.819   1.815
    1STR   C27211134   3.954   6.844   1.972
    1STR   H27311135   3.886   6.782   2.027
    1STR   H27411136   3.895   6.925   1.934
    1STR   H27511137   4.028   6.889   2.038
    1STR   C27611138   4.094   6.638   1.920
    1STR   H27711139   4.129   6.573   1.840
    1STR   H27811140   4.177   6.686   1.966
    1STR   O27911141   4.029   6.559   2.017
    1STR   C28011142   4.102   6.552   2.138
    1STR   H28111143   4.210   6.543   2.124
    1STR   C28211144   4.064   6.678   2.213
    1STR   H28311145   3.961   6.697   2.198
    1STR   H28411146   4.118   6.765   2.180
    1STR   H28511147   4.070   6.668   2.320
    1STR   C28611148   4.060   6.432   2.220
    1STR   H28711149   3.951   6.431   2.227
    1STR   H28811150   4.094   6.340   2.173
    1STR   O28911151   4.121   6.452   2.346
    1STR   C29011152   4.050   6.407   2.458
    1STR   H29111153   3.943   6.409   2.441
    1STR   C29211154   4.086   6.263   2.469
    1STR   H29311155   4.193   6.259   2.480
    1STR   H29411156   4.050   6.215   2.378
    1STR   H29511157   4.045   6.210   2.554
    1STR   C29611158   4.096   6.484   2.584
    1STR   H29711159   4.194   6.524   2.569
    1STR   H29811160   4.042   6.575   2.604
    1STR   O29911161   4.086   6.394   2.695
    1STR   C30011162   4.157   6.427   2.812
    1STR   H30111163   4.119   6.520   2.853
    1STR   C30211164   4.128   6.312   2.909
    1STR   H30311165   4.168   6.218   2.870
    1STR   H30411166   4.021   6.300   2.923
    1STR   H30511167   4.173   6.330   3.006
    1STR   C30611168   4.308   6.441   2.783
    1STR   H30711169   4.328   6.547   2.787
    1STR   H30811170   4.370   6.393   2.858
    1STR   O30911171   4.341   6.385   2.656
    1STR    H1R11172   4.470   6.545   2.642
    1STR    H1S11173   4.565   6.332   2.720
    1STR    H1T11174   4.661   6.411   2.595
    1STR    H1U11175   4.560   6.278   2.556
    1STR    H1V11176   4.391   6.389   2.391
    1STR    H1W11177   4.517   6.508   2.394
    1STR    H1X11178   4.205   6.731   2.334
    1STR    H1Y11179   4.207   6.968   2.220
    1STR    H1Z11180   4.163   7.198   2.263
    1STR    H2011181   4.044   7.335   2.562
    1STR    H2111182   4.212   7.382   2.519
    1STR    H2211183   4.086   7.365   2.396
    1STR    H2311184   4.153   7.256   2.706
    1STR    H2711185   4.206   6.889   2.637
    1STR    H2811186   3.069   7.276   1.829
    1STR    H2911187   3.012   7.049   1.905
    1STR    H2A11188   2.919   7.000   2.220
    1STR    H2B11189   2.923   6.909   2.069
    1STR    H2C11190   2.771   6.953   2.143
    1STR   BCK111191   2.740   7.033   4.819
    1STR    O0311192   2.759   6.976   4.924
    1STR    N0411193   2.805   7.145   4.782
    1STR    C0511194   2.887   7.232   4.859
    1STR    C0611195   2.893   7.219   4.998
    1STR    C0711196   2.969   7.303   5.080
    1STR    N0811197   2.983   7.258   5.209
    1STR    C0911198   3.041   7.301   5.318
    1STR    O0A11199   3.091   7.411   5.336
    1STR    O0B11200   3.039   7.200   5.405
    1STR    C0C11201   3.143   7.103   5.406
    1STR    C0D11202   3.218   7.138   5.535
    1STR    C0E11203   3.094   6.955   5.398
    1STR    O0F11204   3.064   6.905   5.265
    1STR    C0G11205   3.030   6.767   5.235
    1STR    C0H11206   2.933   6.773   5.118
    1STR    C0I11207   3.147   6.678   5.189
    1STR    O0J11208   3.125   6.536   5.188
    1STR    C0K11209   4.186   7.212   4.639
    1STR    C0M11210   4.267   7.095   4.591
    1STR    C0N11211   4.252   7.263   4.766
    1STR    O0O11212   4.159   7.267   4.872
    1STR    C0P11213   4.182   7.214   4.993
    1STR    O0Q11214   4.265   7.127   5.016
    1STR    N0R11215   4.100   7.274   5.080
    1STR    C0S11216   4.051   7.240   5.207
    1STR    C0T11217   3.966   7.327   5.278
    1STR    C0U11218   3.899   7.281   5.394
    1STR    C0V11219   3.915   7.149   5.442
    1STR    C0W11220   3.834   7.099   5.559
    1STR    C0X11221   4.007   7.064   5.377
    1STR    N0Y11222   4.039   6.935   5.420
    1STR   BCK211223   3.988   6.821   5.372
    1STR    O1011224   3.874   6.806   5.330
    1STR    C1311225   4.073   7.114   5.263
    1STR    C1411226   3.035   7.414   5.024
    1STR    C1511227   3.037   7.427   4.885
    1STR    C1611228   2.969   7.335   4.801
    1STR    C1711229   2.989   7.352   4.652
    1STR    H1B11230   2.782   7.174   4.687
    1STR    H1C11231   2.839   7.141   5.045
    1STR    H1D11232   2.948   7.164   5.222
    1STR    H1E11233   3.208   7.125   5.324
    1STR    H1F11234   3.147   7.153   5.616
    1STR    H1G11235   3.291   7.064   5.564
    1STR    H1H11236   3.270   7.233   5.522
    1STR    H1I11237   3.005   6.952   5.460
    1STR    H1J11238   3.169   6.889   5.442
    1STR    H1K11239   2.982   6.717   5.317
    1STR    H1M11240   2.990   6.770   5.026
    1STR    H1N11241   2.877   6.864   5.107
    1STR    H1O11242   2.863   6.691   5.118
    1STR    H1P11243   3.180   6.708   5.091
    1STR    H1Q11244   3.229   6.693   5.259
    1STR   C01011245   3.072   6.465   5.074
    1STR   H01111246   3.120   6.368   5.090
    1STR   C01211247   2.925   6.435   5.098
    1STR   H01311248   2.899   6.449   5.203
    1STR   H01411249   2.899   6.333   5.073
    1STR   H01511250   2.862   6.501   5.039
    1STR   C01611251   3.115   6.500   4.926
    1STR   H01711252   3.222   6.518   4.930
    1STR   H01811253   3.110   6.415   4.859
    1STR   O01911254   3.053   6.615   4.866
    1STR   C02011255   2.963   6.606   4.754
    1STR   H02111256   2.927   6.507   4.743
    1STR   C02211257   2.837   6.670   4.807
    1STR   H02311258   2.853   6.750   4.876
    1STR   H02411259   2.775   6.598   4.859
    1STR   H02511260   2.781   6.714   4.727
    1STR   C02611261   3.005   6.668   4.612
    1STR   H02711262   2.919   6.721   4.572
    1STR   H02811263   3.075   6.749   4.628
    1STR   O02911264   3.042   6.572   4.507
    1STR   C03011265   3.097   6.603   4.374
    1STR   H03111266   3.202   6.582   4.380
    1STR   C03211267   3.065   6.499   4.264
    1STR   H03311268   3.108   6.530   4.171
    1STR   H03411269   2.961   6.491   4.238
    1STR   H03511270   3.103   6.400   4.283
    1STR   C03611271   3.088   6.744   4.313
    1STR   H03711272   3.187   6.784   4.303
    1STR   H03811273   3.066   6.736   4.208
    1STR   O03911274   2.991   6.828   4.375
    1STR   C04011275   3.022   6.965   4.388
    1STR   H04111276   3.125   6.968   4.364
    1STR   C04211277   2.983   7.069   4.283
    1STR   H04311278   2.891   7.114   4.309
    1STR   H04411279   2.980   7.029   4.183
    1STR   H04511280   3.049   7.154   4.280
    1STR   C04611281   2.991   7.006   4.532
    1STR   H04711282   2.959   7.109   4.532
    1STR   H04811283   2.907   6.950   4.573
    1STR   O04911284   3.108   6.991   4.613
    1STR   C05011285   3.101   7.041   4.744
    1STR   H05111286   3.037   7.120   4.728
    1STR   C05211287   3.040   6.940   4.836
    1STR   H05311288   3.105   6.857   4.852
    1STR   H05411289   2.953   6.902   4.787
    1STR   H05511290   3.016   6.983   4.932
    1STR   C05611291   3.225   7.106   4.800
    1STR   H05711292   3.289   7.027   4.831
    1STR   H05811293   3.274   7.159   4.720
    1STR   O05911294   3.210   7.187   4.917
    1STR   C06011295   3.332   7.245   4.963
    1STR   H06111296   3.415   7.178   4.953
    1STR   C06211297   3.363   7.369   4.880
    1STR   H06311298   3.299   7.452   4.908
    1STR   H06411299   3.350   7.353   4.773
    1STR   H06511300   3.467   7.398   4.895
    1STR   C06611301   3.325   7.276   5.113
    1STR   H06711302   3.360   7.377   5.133
    1STR   H06811303   3.221   7.276   5.141
    1STR   O06911304   3.394   7.192   5.206
    1STR   C07011305   3.416   7.053   5.180
    1STR   H07111306   3.493   7.044   5.104
    1STR   C07211307   3.467   6.999   5.315
    1STR   H07311308   3.388   6.989   5.388
    1STR   H07411309   3.542   7.064   5.360
    1STR   H07511310   3.511   6.900   5.305
    1STR   C07611311   3.292   6.974   5.137
    1STR   H07711312   3.278   6.900   5.213
    1STR   H07811313   3.205   7.038   5.131
    1STR   O07911314   3.285   6.902   5.016
    1STR   C08011315   3.391   6.821   4.974
    1STR   H08111316   3.473   6.889   4.964
    1STR   C08211317   3.438   6.712   5.073
    1STR   H08311318   3.380   6.621   5.067
    1STR   H08411319   3.437   6.746   5.176
    1STR   H08511320   3.542   6.686   5.053
    1STR   C08611321   3.340   6.758   4.841
    1STR   H08711322   3.398   6.671   4.820
    1STR   H08811323   3.246   6.716   4.861
    1STR   O08911324   3.322   6.841   4.724
    1STR   C09011325   3.377   6.805   4.596
    1STR   H09111326   3.482   6.826   4.592
    1STR   C09211327   3.342   6.659   4.569
    1STR   H09311328   3.238   6.646   4.579
    1STR   H09411329   3.372   6.583   4.640
    1STR   H09511330   3.373   6.630   4.469
    1STR   C09611331   3.331   6.891   4.478
    1STR   H09711332   3.372   6.855   4.384
    1STR   H09811333   3.229   6.863   4.485
    1STR   O09911334   3.357   7.032   4.486
    1STR   C10011335   3.289   7.135   4.416
    1STR   H10111336   3.185   7.138   4.442
    1STR   C10211337   3.323   7.268   4.481
    1STR   H10311338   3.422   7.267   4.525
    1STR   H10411339   3.261   7.291   4.566
    1STR   H10511340   3.310   7.351   4.413
    1STR   C10611341   3.309   7.141   4.262
    1STR   H10711342   3.255   7.228   4.228
    1STR   H10811343   3.414   7.161   4.245
    1STR   O10911344   3.273   7.027   4.184
    1STR   C11011345   3.235   7.053   4.047
    1STR   H11111346   3.129   7.079   4.051
    1STR   C11211347   3.299   7.174   3.977
    1STR   H11311348   3.405   7.184   3.996
    1STR   H11411349   3.252   7.267   4.008
    1STR   H11511350   3.286   7.167   3.869
    1STR   C11611351   3.236   6.925   3.960
    1STR   H11711352   3.188   6.843   4.011
    1STR   H11811353   3.173   6.945   3.874
    1STR   O11911354   3.358   6.884   3.897
    1STR   C12011355   3.465   6.834   3.976
    1STR   H12111356   3.534   6.789   3.905
    1STR   C12211357   3.539   6.950   4.039
    1STR   H12311358   3.545   7.033   3.970
    1STR   H12411359   3.639   6.922   4.068
    1STR   H12511360   3.488   6.984   4.126
    1STR   C12611361   3.428   6.724   4.075
    1STR   H12711362   3.494   6.734   4.161
    1STR   H12811363   3.329   6.734   4.116
    1STR   O12911364   3.448   6.599   4.008
    1STR   C13011365   3.383   6.488   4.067
    1STR   H13111366   3.279   6.512   4.074
    1STR   C13211367   3.401   6.369   3.972
    1STR   H13311368   3.505   6.336   3.969
    1STR   H13411369   3.375   6.396   3.870
    1STR   H13511370   3.340   6.285   4.004
    1STR   C13611371   3.442   6.456   4.204
    1STR   H13711372   3.527   6.390   4.188
    1STR   H13811373   3.476   6.547   4.250
    1STR   O13911374   3.352   6.404   4.301
    1STR   C14011375   3.415   6.343   4.414
    1STR   H14111376   3.345   6.347   4.497
    1STR   C14211377   3.428   6.195   4.377
    1STR   H14311378   3.484   6.183   4.285
    1STR   H14411379   3.330   6.152   4.360
    1STR   H14511380   3.476   6.138   4.457
    1STR   C14611381   3.542   6.411   4.474
    1STR   H14711382   3.517   6.496   4.531
    1STR   H14811383   3.583   6.350   4.553
    1STR   O14911384   3.638   6.444   4.377
    1STR   C15011385   3.716   6.563   4.384
    1STR   H15111386   3.808   6.539   4.431
    1STR   C15211387   3.752   6.596   4.239
    1STR   H15311388   3.794   6.507   4.192
    1STR   H15411389   3.828   6.673   4.231
    1STR   H15511390   3.668   6.625   4.177
    1STR   C15611391   3.677   6.676   4.478
    1STR   H15711392   3.723   6.766   4.445
    1STR   H15811393   3.572   6.695   4.465
    1STR   O15911394   3.725   6.643   4.611
    1STR   C16011395   3.644   6.672   4.724
    1STR   H16111396   3.551   6.658   4.680
    1STR   C16211397   3.634   6.554   4.822
    1STR   H16311398   3.642   6.461   4.767
    1STR   H16411399   3.540   6.545   4.875
    1STR   H16511400   3.706   6.558   4.902
    1STR   C16611401   3.641   6.816   4.788
    1STR   H16711402   3.543   6.848   4.781
    1STR   H16811403   3.660   6.813   4.893
    1STR   O16911404   3.702   6.925   4.723
    1STR   C17011405   3.661   7.063   4.734
    1STR   H17111406   3.689   7.105   4.639
    1STR   C17211407   3.518   7.084   4.735
    1STR   H17311408   3.483   7.045   4.828
    1STR   H17411409   3.475   7.024   4.660
    1STR   H17511410   3.490   7.188   4.720
    1STR   C17611411   3.715   7.155   4.842
    1STR   H17711412   3.823   7.160   4.840
    1STR   H17811413   3.679   7.257   4.827
    1STR   O17911414   3.664   7.108   4.964
    1STR   C18011415   3.744   7.142   5.072
    1STR   H18111416   3.840   7.182   5.042
    1STR   C18211417   3.675   7.256   5.148
    1STR   H18311418   3.741   7.340   5.164
    1STR   H18411419   3.636   7.225   5.244
    1STR   H18511420   3.592   7.296   5.089
    1STR   C18611421   3.763   7.008   5.144
    1STR   H18711422   3.843   7.019   5.214
    1STR   H18811423   3.680   6.984   5.207
    1STR   O18911424   3.786   6.889   5.067
    1STR   C19011425   3.887   6.897   4.967
    1STR   H19111426   3.850   6.966   4.896
    1STR   C19211427   4.013   6.949   5.023
    1STR   H19311428   3.999   7.054   5.031
    1STR   H19411429   4.100   6.935   4.961
    1STR   H19511430   4.026   6.903   5.120
    1STR   C19611431   3.915   6.770   4.891
    1STR   H19711432   4.011   6.732   4.919
    1STR   H19811433   3.848   6.694   4.926
    1STR   O19911434   3.909   6.783   4.749
    1STR   C20011435   3.978   6.890   4.685
    1STR   H20111436   3.963   6.987   4.731
    1STR   C20211437   4.122   6.850   4.701
    1STR   H20311438   4.130   6.750   4.739
    1STR   H20411439   4.170   6.913   4.775
    1STR   H20511440   4.180   6.851   4.610
    1STR   C20611441   3.934   6.908   4.538
    1STR   H20711442   4.006   6.972   4.487
    1STR   H20811443   3.928   6.808   4.496
    1STR   O20911444   3.807   6.960   4.510
    1STR   C21011445   3.782   7.029   4.390
    1STR   H21111446   3.839   7.116   4.402
    1STR   C21211447   3.822   6.954   4.265
    1STR   H21311448   3.758   6.868   4.249
    1STR   H21411449   3.925   6.926   4.270
    1STR   H21511450   3.812   7.018   4.177
    1STR   C21611451   3.635   7.067   4.384
    1STR   H21711452   3.591   7.039   4.290
    1STR   H21811453   3.585   7.003   4.456
    1STR   O21911454   3.602   7.202   4.413
    1STR   C22011455   3.648   7.311   4.334
    1STR   H22111456   3.753   7.324   4.357
    1STR   C22211457   3.639   7.290   4.182
    1STR   H22311458   3.538   7.290   4.144
    1STR   H22411459   3.689   7.199   4.149
    1STR   H22511460   3.690   7.372   4.131
    1STR   C22611461   3.570   7.439   4.375
    1STR   H22711462   3.626   7.521   4.333
    1STR   H22811463   3.476   7.439   4.321
    1STR   O22911464   3.547   7.464   4.515
    1STR   C23011465   3.500   7.596   4.549
    1STR   H23111466   3.575   7.667   4.514
    1STR   C23211467   3.367   7.627   4.480
    1STR   H23311468   3.291   7.555   4.508
    1STR   H23411469   3.375   7.628   4.371
    1STR   H23511470   3.330   7.726   4.509
    1STR   C23611471   3.483   7.627   4.701
    1STR   H23711472   3.469   7.734   4.710
    1STR   H23811473   3.390   7.582   4.736
    1STR   O23911474   3.588   7.588   4.790
    1STR   C24011475   3.601   7.663   4.912
    1STR   H24111476   3.638   7.762   4.887
    1STR   C24211477   3.469   7.679   4.990
    1STR   H24311478   3.433   7.583   5.027
    1STR   H24411479   3.389   7.724   4.931
    1STR   H24511480   3.484   7.742   5.077
    1STR   C24611481   3.704   7.594   5.004
    1STR   H24711482   3.673   7.600   5.108
    1STR   H24811483   3.706   7.487   4.982
    1STR   O24911484   3.833   7.654   4.999
    1STR   C25011485   3.904   7.623   4.881
    1STR   H25111486   3.840   7.648   4.798
    1STR   C25211487   4.029   7.706   4.862
    1STR   H25311488   4.085   7.720   4.953
    1STR   H25411489   4.000   7.801   4.821
    1STR   H25511490   4.098   7.662   4.789
    1STR   C25611491   3.939   7.475   4.876
    1STR   H25711492   4.041   7.460   4.845
    1STR   H25811493   3.927   7.430   4.974
    1STR   O25911494   3.852   7.412   4.786
    1STR   C26011495   3.897   7.419   4.653
    1STR   H26111496   4.005   7.428   4.645
    1STR   C26211497   3.856   7.287   4.598
    1STR   H26311498   3.748   7.288   4.586
    1STR   H26411499   3.886   7.202   4.657
    1STR   H26511500   3.903   7.267   4.505
    1STR   C26611501   3.832   7.531   4.572
    1STR   H26711502   3.789   7.493   4.481
    1STR   H26811503   3.751   7.578   4.626
    1STR   O26911504   3.932   7.617   4.529
    1STR   C27011505   3.905   7.755   4.534
    1STR   H27111506   3.849   7.778   4.625
    1STR   C27211507   4.049   7.804   4.548
    1STR   H27311508   4.117   7.723   4.574
    1STR   H27411509   4.065   7.877   4.627
    1STR   H27511510   4.084   7.843   4.454
    1STR   C27611511   3.832   7.812   4.409
    1STR   H27711512   3.783   7.906   4.436
    1STR   H27811513   3.903   7.838   4.331
    1STR   O27911514   3.735   7.724   4.355
    1STR   C28011515   3.674   7.757   4.229
    1STR   H28111516   3.576   7.709   4.231
    1STR   C28211517   3.647   7.907   4.210
    1STR   H28311518   3.740   7.964   4.202
    1STR   H28411519   3.589   7.947   4.293
    1STR   H28511520   3.591   7.924   4.118
    1STR   C28611521   3.750   7.694   4.111
    1STR   H28711522   3.753   7.586   4.118
    1STR   H28811523   3.701   7.716   4.017
    1STR   O28911524   3.880   7.752   4.106
    1STR   C29011525   3.991   7.663   4.107
    1STR   H29111526   3.986   7.595   4.023
    1STR   C29211527   4.103   7.765   4.089
    1STR   H29311528   4.108   7.835   4.172
    1STR   H29411529   4.090   7.822   3.997
    1STR   H29511530   4.199   7.717   4.081
    1STR   C29611531   3.998   7.586   4.241
    1STR   H29711532   4.021   7.657   4.318
    1STR   H29811533   3.900   7.548   4.267
    1STR   O29911534   4.095   7.482   4.253
    1STR   C30011535   4.050   7.370   4.327
    1STR   H30111536   3.982   7.410   4.399
    1STR   C30211537   3.981   7.286   4.220
    1STR   H30311538   4.054   7.236   4.160
    1STR   H30411539   3.914   7.343   4.157
    1STR   H30511540   3.924   7.204   4.256
    1STR   C30611541   4.150   7.280   4.404
    1STR   H30711542   4.106   7.180   4.404
    1STR   H30811543   4.243   7.271   4.350
    1STR   O30911544   4.174   7.317   4.541
    1STR    H1R11545   4.088   7.172   4.664
    1STR    H1S11546   4.298   7.030   4.671
    1STR    H1T11547   4.359   7.132   4.553
    1STR    H1U11548   4.218   7.037   4.515
    1STR    H1V11549   4.289   7.364   4.747
    1STR    H1W11550   4.340   7.204   4.793
    1STR    H1X11551   4.073   7.362   5.038
    1STR    H1Y11552   3.947   7.426   5.241
    1STR    H1Z11553   3.829   7.348   5.443
    1STR    H2011554   3.886   7.120   5.652
    1STR    H2111555   3.736   7.146   5.560
    1STR    H2211556   3.818   6.991   5.551
    1STR    H2311557   4.131   6.925   5.458
    1STR    H2711558   4.138   7.051   5.208
    1STR    H2811559   3.092   7.481   5.086
    1STR    H2911560   3.093   7.507   4.839
    1STR    H2A11561   2.904   7.319   4.596
    1STR    H2B11562   3.070   7.291   4.617
    1STR    H2C11563   3.011   7.454   4.625
    1STR   BCK111564   2.691   6.587   7.314
    1STR    O0311565   2.738   6.685   7.367
    1STR    N0411566   2.746   6.465   7.313
    1STR    C0511567   2.866   6.402   7.348
    1STR    C0611568   2.908   6.304   7.256
    1STR    C0711569   3.034   6.240   7.262
    1STR    N0811570   3.088   6.173   7.152
    1STR    C0911571   3.028   6.135   7.039
    1STR    O0A11572   2.914   6.093   7.035
    1STR    O0B11573   3.108   6.152   6.932
    1STR    C0C11574   3.058   6.146   6.797
    1STR    C0D11575   3.038   6.000   6.754
    1STR    C0E11576   2.933   6.232   6.768
    1STR    O0F11577   2.966   6.369   6.776
    1STR    C0G11578   2.858   6.461   6.795
    1STR    C0H11579   2.808   6.449   6.937
    1STR    C0I11580   2.915   6.599   6.780
    1STR    O0J11581   2.817   6.700   6.780
    1STR    C0K11582   4.164   7.018   7.636
    1STR    C0M11583   4.184   6.904   7.545
    1STR    C0N11584   4.175   6.967   7.783
    1STR    O0O11585   4.096   6.849   7.812
    1STR    C0P11586   4.148   6.725   7.791
    1STR    O0Q11587   4.267   6.701   7.772
    1STR    N0R11588   4.052   6.631   7.777
    1STR    C0S11589   4.057   6.522   7.688
    1STR    C0T11590   3.979   6.407   7.708
    1STR    C0U11591   3.978   6.305   7.609
    1STR    C0V11592   4.045   6.321   7.486
    1STR    C0W11593   4.046   6.203   7.388
    1STR    C0X11594   4.111   6.443   7.459
    1STR    N0Y11595   4.164   6.465   7.330
    1STR   BCK211596   4.198   6.571   7.255
    1STR    O1011597   4.216   6.568   7.135
    1STR    C1311598   4.126   6.534   7.566
    1STR    C1411599   3.115   6.268   7.373
    1STR    C1511600   3.075   6.364   7.468
    1STR    C1611601   2.953   6.434   7.455
    1STR    C1711602   2.927   6.549   7.549
    1STR    H1B11603   2.679   6.402   7.270
    1STR    H1C11604   2.849   6.288   7.168
    1STR    H1D11605   3.188   6.180   7.141
    1STR    H1E11606   3.138   6.187   6.735
    1STR    H1F11607   2.959   5.952   6.812
    1STR    H1G11608   3.009   5.994   6.649
    1STR    H1H11609   3.129   5.942   6.767
    1STR    H1I11610   2.854   6.207   6.838
    1STR    H1J11611   2.893   6.213   6.668
    1STR    H1K11612   2.780   6.450   6.721
    1STR    H1M11613   2.783   6.545   6.982
    1STR    H1N11614   2.882   6.401   6.999
    1STR    H1O11615   2.719   6.391   6.937
    1STR    H1P11616   2.982   6.619   6.862
    1STR    H1Q11617   2.977   6.597   6.692
    1STR   C01011618   2.878   6.822   6.742
    1STR   H01111619   2.978   6.830   6.783
    1STR   C01211620   2.885   6.823   6.592
    1STR   H01311621   2.793   6.839   6.542
    1STR   H01411622   2.920   6.730   6.552
    1STR   H01511623   2.947   6.908   6.563
    1STR   C01611624   2.807   6.946   6.788
    1STR   H01711625   2.824   7.018   6.712
    1STR   H01811626   2.702   6.918   6.794
    1STR   O01911627   2.852   7.028   6.895
    1STR   C02011628   2.738   7.096   6.944
    1STR   H02111629   2.668   7.105   6.865
    1STR   C02211630   2.677   7.001   7.043
    1STR   H02311631   2.737   6.911   7.046
    1STR   H02411632   2.573   6.979   7.018
    1STR   H02511633   2.686   7.039   7.142
    1STR   C02611634   2.742   7.240   6.996
    1STR   H02711635   2.655   7.294   6.962
    1STR   H02811636   2.727   7.242   7.100
    1STR   O02911637   2.852   7.320   6.969
    1STR   C03011638   2.929   7.348   7.084
    1STR   H03111639   3.002   7.414   7.040
    1STR   C03211640   2.880   7.438   7.201
    1STR   H03311641   2.783   7.411   7.239
    1STR   H03411642   2.878   7.543   7.175
    1STR   H03511643   2.950   7.433   7.284
    1STR   C03611644   2.999   7.220   7.129
    1STR   H03711645   3.063   7.193   7.049
    1STR   H03811646   3.058   7.245   7.216
    1STR   O03911647   2.929   7.099   7.147
    1STR   C04011648   2.934   7.054   7.278
    1STR   H04111649   3.034   7.062   7.319
    1STR   C04211650   2.844   7.158   7.339
    1STR   H04311651   2.788   7.115   7.413
    1STR   H04411652   2.764   7.195   7.280
    1STR   H04511653   2.901   7.242   7.375
    1STR   C04611654   2.887   6.910   7.300
    1STR   H04711655   2.869   6.901   7.407
    1STR   H04811656   2.794   6.890   7.250
    1STR   O04911657   2.976   6.804   7.272
    1STR   C05011658   2.957   6.734   7.150
    1STR   H05111659   2.850   6.718   7.135
    1STR   C05211660   3.007   6.814   7.033
    1STR   H05311661   3.025   6.919   7.048
    1STR   H05411662   2.919   6.812   6.973
    1STR   H05511663   3.091   6.772   6.980
    1STR   C05611664   3.023   6.597   7.164
    1STR   H05711665   3.080   6.584   7.255
    1STR   H05811666   2.935   6.539   7.173
    1STR   O05911667   3.075   6.529   7.051
    1STR   C06011668   3.214   6.530   7.032
    1STR   H06111669   3.246   6.633   7.042
    1STR   C06211670   3.286   6.439   7.132
    1STR   H06311671   3.254   6.338   7.117
    1STR   H06411672   3.270   6.469   7.235
    1STR   H06511673   3.393   6.435   7.114
    1STR   C06611674   3.236   6.486   6.887
    1STR   H06711675   3.339   6.453   6.873
    1STR   H06811676   3.176   6.399   6.867
    1STR   O06911677   3.202   6.595   6.802
    1STR   C07011678   3.255   6.595   6.672
    1STR   H07111679   3.361   6.612   6.672
    1STR   C07211680   3.233   6.461   6.599
    1STR   H07311681   3.127   6.435   6.596
    1STR   H07411682   3.286   6.380   6.648
    1STR   H07511683   3.269   6.466   6.496
    1STR   C07611684   3.200   6.712   6.591
    1STR   H07711685   3.276   6.732   6.517
    1STR   H07811686   3.116   6.671   6.536
    1STR   O07911687   3.147   6.835   6.646
    1STR   C08011688   3.214   6.926   6.734
    1STR   H08111689   3.223   6.872   6.827
    1STR   C08211690   3.342   6.938   6.660
    1STR   H08311691   3.375   7.033   6.687
    1STR   H08411692   3.335   6.943   6.553
    1STR   H08511693   3.411   6.861   6.690
    1STR   C08611694   3.150   7.072   6.761
    1STR   H08711695   3.188   7.136   6.684
    1STR   H08811696   3.042   7.069   6.752
    1STR   O08911697   3.184   7.158   6.873
    1STR   C09011698   3.191   7.304   6.860
    1STR   H09111699   3.270   7.318   6.787
    1STR   C09211700   3.071   7.360   6.786
    1STR   H09311701   2.990   7.288   6.788
    1STR   H09411702   3.095   7.378   6.681
    1STR   H09511703   3.036   7.454   6.827
    1STR   C09611704   3.243   7.395   6.981
    1STR   H09711705   3.347   7.376   6.987
    1STR   H09811706   3.234   7.500   6.952
    1STR   O09911707   3.205   7.381   7.121
    1STR   C10011708   3.276   7.453   7.223
    1STR   H10111709   3.380   7.449   7.195
    1STR   C10211710   3.223   7.597   7.223
    1STR   H10311711   3.120   7.599   7.258
    1STR   H10411712   3.225   7.642   7.124
    1STR   H10511713   3.282   7.660   7.290
    1STR   C10611714   3.281   7.399   7.371
    1STR   H10711715   3.381   7.423   7.406
    1STR   H10811716   3.214   7.457   7.435
    1STR   O10911717   3.254   7.262   7.402
    1STR   C11011718   3.333   7.202   7.509
    1STR   H11111719   3.432   7.198   7.467
    1STR   C11211720   3.350   7.283   7.638
    1STR   H11311721   3.257   7.304   7.690
    1STR   H11411722   3.400   7.378   7.621
    1STR   H11511723   3.413   7.227   7.708
    1STR   C11611724   3.289   7.054   7.538
    1STR   H11711725   3.373   6.996   7.575
    1STR   H11811726   3.217   7.042   7.618
    1STR   O11911727   3.234   7.000   7.420
    1STR   C12011728   3.262   6.866   7.382
    1STR   H12111729   3.361   6.833   7.408
    1STR   C12211730   3.182   6.772   7.471
    1STR   H12311731   3.079   6.805   7.481
    1STR   H12411732   3.223   6.768   7.571
    1STR   H12511733   3.184   6.670   7.432
    1STR   C12611734   3.240   6.860   7.226
    1STR   H12711735   3.214   6.757   7.205
    1STR   H12811736   3.155   6.921   7.205
    1STR   O12911737   3.340   6.893   7.127
    1STR   C13011738   3.330   7.008   7.043
    1STR   H13111739   3.236   6.987   6.996
    1STR   C13211740   3.309   7.116   7.142
    1STR   H13311741   3.356   7.096   7.235
    1STR   H13411742   3.208   7.121   7.172
    1STR   H13511743   3.346   7.208   7.104
    1STR   C13611744   3.445   7.043   6.936
    1STR   H13711745   3.544   7.043   6.976
    1STR   H13811746   3.450   6.958   6.873
    1STR   O13911747   3.439   7.162   6.851
    1STR   C14011748   3.547   7.206   6.763
    1STR   H14111749   3.638   7.187   6.817
    1STR   C14211750   3.573   7.136   6.628
    1STR   H14311751   3.498   7.160   6.555
    1STR   H14411752   3.576   7.029   6.638
    1STR   H14511753   3.667   7.165   6.582
    1STR   C14611754   3.527   7.356   6.729
    1STR   H14711755   3.607   7.401   6.670
    1STR   H14811756   3.439   7.367   6.666
    1STR   O14911757   3.502   7.428   6.846
    1STR   C15011758   3.583   7.536   6.884
    1STR   H15111759   3.688   7.523   6.859
    1STR   C15211760   3.527   7.657   6.808
    1STR   H15311761   3.420   7.669   6.828
    1STR   H15411762   3.538   7.644   6.700
    1STR   H15511763   3.577   7.749   6.836
    1STR   C15611764   3.565   7.551   7.038
    1STR   H15711765   3.614   7.642   7.071
    1STR   H15811766   3.460   7.572   7.054
    1STR   O15911767   3.611   7.449   7.131
    1STR   C16011768   3.606   7.309   7.099
    1STR   H16111769   3.525   7.289   7.032
    1STR   C16211770   3.733   7.283   7.021
    1STR   H16311771   3.823   7.313   7.072
    1STR   H16411772   3.735   7.336   6.927
    1STR   H16511773   3.738   7.178   6.998
    1STR   C16611774   3.583   7.210   7.220
    1STR   H16711775   3.649   7.226   7.302
    1STR   H16811776   3.491   7.241   7.266
    1STR   O16911777   3.580   7.068   7.182
    1STR   C17011778   3.610   6.952   7.266
    1STR   H17111779   3.715   6.942   7.280
    1STR   C17211780   3.557   6.977   7.401
    1STR   H17311781   3.459   7.006   7.378
    1STR   H17411782   3.598   7.063   7.450
    1STR   H17511783   3.562   6.890   7.466
    1STR   C17611784   3.567   6.808   7.218
    1STR   H17711785   3.607   6.722   7.267
    1STR   H17811786   3.471   6.783   7.253
    1STR   O17911787   3.581   6.784   7.081
    1STR   C18011788   3.522   6.665   7.036
    1STR   H18111789   3.443   6.638   7.104
    1STR   C18211790   3.462   6.709   6.907
    1STR   H18311791   3.528   6.774   6.854
    1STR   H18411792   3.367   6.758   6.922
    1STR   H18511793   3.449   6.624   6.845
    1STR   C18611794   3.618   6.547   7.020
    1STR   H18711795   3.718   6.580   6.999
    1STR   H18811796   3.624   6.498   7.117
    1STR   O18911797   3.575   6.449   6.923
    1STR   C19011798   3.666   6.429   6.814
    1STR   H19111799   3.766   6.422   6.852
    1STR   C19211800   3.632   6.295   6.749
    1STR   H19311801   3.530   6.295   6.709
    1STR   H19411802   3.639   6.215   6.822
    1STR   H19511803   3.701   6.272   6.668
    1STR   C19611804   3.668   6.543   6.711
    1STR   H19711805   3.737   6.520   6.630
    1STR   H19811806   3.570   6.554   6.666
    1STR   O19911807   3.707   6.664   6.776
    1STR   C20011808   3.744   6.777   6.699
    1STR   H20111809   3.838   6.746   6.659
    1STR   C20211810   3.658   6.785   6.569
    1STR   H20311811   3.553   6.766   6.587
    1STR   H20411812   3.691   6.710   6.498
    1STR   H20511813   3.667   6.880   6.517
    1STR   C20611814   3.754   6.913   6.782
    1STR   H20711815   3.774   6.991   6.710
    1STR   H20811816   3.658   6.937   6.823
    1STR   O20911817   3.855   6.949   6.881
    1STR   C21011818   3.823   6.936   7.021
    1STR   H21111819   3.718   6.953   7.031
    1STR   C21211820   3.864   6.796   7.046
    1STR   H21311821   3.839   6.737   6.959
    1STR   H21411822   3.810   6.758   7.130
    1STR   H21511823   3.970   6.785   7.066
    1STR   C21611824   3.896   7.024   7.127
    1STR   H21711825   3.973   6.969   7.181
    1STR   H21811826   3.933   7.096   7.062
    1STR   O21911827   3.829   7.108   7.220
    1STR   C22011828   3.895   7.169   7.330
    1STR   H22111829   3.996   7.131   7.327
    1STR   C22211830   3.887   7.322   7.310
    1STR   H22311831   3.792   7.363   7.281
    1STR   H22411832   3.957   7.353   7.234
    1STR   H22511833   3.907   7.377   7.402
    1STR   C22611834   3.837   7.137   7.472
    1STR   H22711835   3.899   7.176   7.552
    1STR   H22811836   3.746   7.194   7.488
    1STR   O22911837   3.817   6.998   7.492
    1STR   C23011838   3.799   6.949   7.625
    1STR   H23111839   3.887   6.977   7.682
    1STR   C23211840   3.682   7.014   7.701
    1STR   H23311841   3.585   6.988   7.661
    1STR   H23411842   3.691   7.122   7.703
    1STR   H23511843   3.682   6.981   7.805
    1STR   C23611844   3.799   6.793   7.627
    1STR   H23711845   3.902   6.762   7.635
    1STR   H23811846   3.753   6.761   7.720
    1STR   O23911847   3.739   6.714   7.522
    1STR   C24011848   3.811   6.692   7.399
    1STR   H24111849   3.775   6.765   7.334
    1STR   C24211850   3.946   6.750   7.385
    1STR   H24311851   4.009   6.696   7.450
    1STR   H24411852   3.957   6.855   7.402
    1STR   H24511853   3.978   6.735   7.282
    1STR   C24611854   3.804   6.549   7.336
    1STR   H24711855   3.862   6.481   7.397
    1STR   H24811856   3.701   6.513   7.339
    1STR   O24911857   3.850   6.547   7.199
    1STR   C25011858   3.906   6.427   7.141
    1STR   H25111859   3.979   6.396   7.212
    1STR   C25211860   3.810   6.307   7.139
    1STR   H25311861   3.737   6.314   7.059
    1STR   H25411862   3.758   6.297   7.233
    1STR   H25511863   3.867   6.216   7.122
    1STR   C25611864   3.985   6.444   7.006
    1STR   H25711865   4.084   6.402   7.018
    1STR   H25811866   3.945   6.379   6.930
    1STR   O25911867   4.002   6.578   6.956
    1STR   C26011868   4.091   6.601   6.845
    1STR   H26111869   4.188   6.557   6.872
    1STR   C26211870   4.033   6.526   6.726
    1STR   H26311871   3.928   6.552   6.718
    1STR   H26411872   4.041   6.419   6.736
    1STR   H26511873   4.077   6.556   6.633
    1STR   C26611874   4.118   6.753   6.815
    1STR   H26711875   4.111   6.807   6.908
    1STR   H26811876   4.220   6.769   6.783
    1STR   O26911877   4.029   6.815   6.721
    1STR   C27011878   4.069   6.903   6.615
    1STR   H27111879   4.161   6.868   6.574
    1STR   C27211880   3.969   6.898   6.501
    1STR   H27311881   3.872   6.931   6.532
    1STR   H27411882   3.961   6.799   6.456
    1STR   H27511883   3.996   6.973   6.428
    1STR   C27611884   4.091   7.052   6.643
    1STR   H27711885   4.154   7.064   6.729
    1STR   H27811886   4.148   7.090   6.559
    1STR   O27911887   3.971   7.126   6.646
    1STR   C28011888   3.983   7.261   6.689
    1STR   H28111889   4.059   7.317   6.640
    1STR   C28211890   3.861   7.332   6.639
    1STR   H28311891   3.781   7.300   6.703
    1STR   H28411892   3.840   7.309   6.535
    1STR   H28511893   3.873   7.440   6.649
    1STR   C28611894   3.996   7.264   6.842
    1STR   H28711895   3.952   7.354   6.882
    1STR   H28811896   3.932   7.183   6.877
    1STR   O28911897   4.130   7.255   6.892
    1STR   C29011898   4.145   7.197   7.019
    1STR   H29111899   4.060   7.234   7.075
    1STR   C29211900   4.154   7.051   6.978
    1STR   H29311901   4.250   7.020   6.939
    1STR   H29411902   4.077   7.022   6.909
    1STR   H29511903   4.133   6.991   7.060
    1STR   C29611904   4.255   7.230   7.121
    1STR   H29711905   4.352   7.195   7.085
    1STR   H29811906   4.267   7.337   7.134
    1STR   O29911907   4.212   7.167   7.245
    1STR   C30011908   4.254   7.228   7.368
    1STR   H30111909   4.324   7.301   7.338
    1STR   C30211910   4.151   7.303   7.442
    1STR   H30311911   4.076   7.239   7.482
    1STR   H30411912   4.114   7.376   7.375
    1STR   H30511913   4.188   7.350   7.531
    1STR   C30611914   4.315   7.135   7.471
    1STR   H30711915   4.335   7.046   7.416
    1STR   H30811916   4.410   7.180   7.495
    1STR   O30911917   4.258   7.120   7.603
    1STR    H1R11918   4.066   7.059   7.618
    1STR    H1S11919   4.285   6.863   7.550
    1STR    H1T11920   4.159   6.936   7.445
    1STR    H1U11921   4.114   6.826   7.568
    1STR    H1V11922   4.142   7.048   7.847
    1STR    H1W11923   4.279   6.947   7.809
    1STR    H1X11924   3.963   6.656   7.815
    1STR    H1Y11925   3.922   6.393   7.798
    1STR    H1Z11926   3.923   6.213   7.628
    1STR    H2011927   4.087   6.226   7.290
    1STR    H2111928   4.108   6.123   7.428
    1STR    H2211929   3.945   6.164   7.373
    1STR    H2311930   4.177   6.379   7.278
    1STR    H2711931   4.184   6.622   7.552
    1STR    H2811932   3.213   6.222   7.382
    1STR    H2911933   3.142   6.387   7.549
    1STR    H2A11934   2.936   6.642   7.495
    1STR    H2B11935   3.001   6.551   7.629
    1STR    H2C11936   2.828   6.546   7.592
    1STR   BCK111937   5.144   0.416   0.341
    1STR    O0311938   5.178   0.489   0.433
    1STR    N0411939   5.103   0.455   0.221
    1STR    C0511940   5.142   0.560   0.141
    1STR    C0611941   5.200   0.677   0.192
    1STR    C0711942   5.255   0.775   0.106
    1STR    N0811943   5.318   0.889   0.154
    1STR    C0911944   5.397   0.906   0.261
    1STR    O0A11945   5.454   1.012   0.277
    1STR    O0B11946   5.412   0.796   0.339
    1STR    C0C11947   5.524   0.783   0.426
    1STR    C0D11948   5.490   0.861   0.553
    1STR    C0E11949   5.556   0.636   0.464
    1STR    O0F11950   5.586   0.548   0.357
    1STR    C0G11951   5.472   0.513   0.281
    1STR    C0H11952   5.491   0.583   0.148
    1STR    C0I11953   5.461   0.363   0.256
    1STR    O0J11954   5.431   0.279   0.365
    1STR    C0K11955   6.602   9.264   8.759
    1STR    C0M11956   6.498   9.231   8.654
    1STR    C0N11957   6.657   0.080   8.721
    1STR    O0O11958   6.577   0.189   8.760
    1STR    C0P11959   6.627   0.284   8.838
    1STR    O0Q11960   6.741   0.294   8.881
    1STR    N0R11961   6.531   0.372   8.861
    1STR    C0S11962   6.524   0.468   8.960
    1STR    C0T11963   6.441   0.577   8.934
    1STR    C0U11964   6.400   0.657   9.041
    1STR    C0V11965   6.436   0.628   9.174
    1STR    C0W11966   6.351   0.706   9.273
    1STR    C0X11967   6.530   0.522   9.203
    1STR    N0Y11968   6.572   0.469   0.009
    1STR   BCK211969   6.538   0.487   0.138
    1STR    O1011970   6.462   0.573   0.178
    1STR    C1311971   6.575   0.448   9.091
    1STR    C1411972   5.251   0.752   9.287
    1STR    C1511973   5.188   0.638   9.237
    1STR    C1611974   5.128   0.545   0.002
    1STR    C1711975   5.045   0.435   9.260
    1STR    H1B11976   5.034   0.389   0.185
    1STR    H1C11977   5.207   0.690   0.299
    1STR    H1D11978   5.316   0.972   0.098
    1STR    H1E11979   5.611   0.826   0.376
    1STR    H1F11980   5.400   0.820   0.599
    1STR    H1G11981   5.571   0.856   0.625
    1STR    H1H11982   5.471   0.966   0.531
    1STR    H1I11983   5.476   0.591   0.524
    1STR    H1J11984   5.645   0.634   0.526
    1STR    H1K11985   5.381   0.547   0.328
    1STR    H1M11986   5.589   0.557   0.115
    1STR    H1N11987   5.493   0.691   0.151
    1STR    H1O11988   5.416   0.553   0.074
    1STR    H1P11989   5.375   0.353   0.190
    1STR    H1Q11990   5.549   0.329   0.202
    1STR   C01011991   5.535   0.189   0.402
    1STR   H01111992   5.611   0.180   0.326
    1STR   C01211993   5.593   0.254   0.525
    1STR   H01311994   5.513   0.290   0.589
    1STR   H01411995   5.653   0.341   0.496
    1STR   H01511996   5.655   0.184   0.580
    1STR   C01611997   5.483   0.047   0.426
    1STR   H01711998   5.534   0.003   0.511
    1STR   H01811999   5.376   0.049   0.447
    1STR   O01912000   5.514   9.281   0.316
    1STR   C02012001   5.452   9.153   0.319
    1STR   H02112002   5.425   9.129   0.421
    1STR   C02212003   5.334   9.173   0.230
    1STR   H02312004   5.364   9.209   0.132
    1STR   H02412005   5.274   9.245   0.284
    1STR   H02512006   5.273   9.083   0.216
    1STR   C02612007   5.536   9.036   0.270
    1STR   H02712008   5.608   9.069   0.197
    1STR   H02812009   5.591   8.996   0.353
    1STR   O02912010   5.451   8.930   0.223
    1STR   C03012011   5.499   8.871   0.104
    1STR   H03112012   5.607   8.872   0.114
    1STR   C03212013   5.483   8.718   0.104
    1STR   H03312014   5.398   8.676   0.154
    1STR   H03412015   5.563   8.675   0.164
    1STR   H03512016   5.488   8.676   0.004
    1STR   C03612017   5.464   8.955   9.295
    1STR   H03712018   5.509   9.052   9.312
    1STR   H03812019   5.513   8.908   9.209
    1STR   O03912020   5.332   8.994   9.256
    1STR   C04012021   5.324   9.068   9.133
    1STR   H04112022   5.422   9.109   9.124
    1STR   C04212023   5.318   8.974   9.011
    1STR   H04312024   5.218   8.963   8.972
    1STR   H04412025   5.358   8.876   9.035
    1STR   H04512026   5.378   9.010   8.929
    1STR   C04612027   5.213   9.181   9.138
    1STR   H04712028   5.117   9.142   9.105
    1STR   H04812029   5.200   9.199   9.244
    1STR   O04912030   5.247   9.303   9.067
    1STR   C05012031   5.172   0.110   9.052
    1STR   H05112032   5.091   0.099   8.981
    1STR   C05212033   5.120   0.151   9.185
    1STR   H05312034   5.141   0.072   9.251
    1STR   H05412035   5.014   0.174   9.185
    1STR   H05512036   5.177   0.232   9.226
    1STR   C05612037   5.264   0.228   9.004
    1STR   H05712038   5.326   0.257   9.087
    1STR   H05812039   5.327   0.191   8.928
    1STR   O05912040   5.222   0.353   8.954
    1STR   C06012041   5.337   0.432   8.910
    1STR   H06112042   5.419   0.422   8.981
    1STR   C06212043   5.385   0.385   8.772
    1STR   H06312044   5.302   0.380   8.702
    1STR   H06412045   5.432   0.288   8.774
    1STR   H06512046   5.460   0.453   8.731
    1STR   C06612047   5.305   0.582   8.900
    1STR   H06712048   5.323   0.622   8.800
    1STR   H06812049   5.199   0.593   8.913
    1STR   O06912050   5.373   0.660   8.997
    1STR   C07012051   5.504   0.698   8.961
    1STR   H07112052   5.546   0.627   8.889
    1STR   C07212053   5.497   0.839   8.903
    1STR   H07312054   5.463   0.909   8.979
    1STR   H07412055   5.426   0.844   8.821
    1STR   H07512056   5.595   0.872   8.867
    1STR   C07612057   5.594   0.697   9.085
    1STR   H07712058   5.698   0.702   9.054
    1STR   H07812059   5.575   0.782   9.149
    1STR   O07912060   5.563   0.583   9.161
    1STR   C08012061   5.671   0.499   9.190
    1STR   H08112062   5.717   0.467   9.098
    1STR   C08212063   5.784   0.568   9.272
    1STR   H08312064   5.749   0.638   0.028
    1STR   H08412065   5.848   0.628   9.208
    1STR   H08512066   5.849   0.496   0.000
    1STR   C08612067   5.607   0.374   9.253
    1STR   H08712068   5.687   0.325   9.305
    1STR   H08812069   5.534   0.396   0.007
    1STR   O08912070   5.533   0.291   9.165
    1STR   C09012071   5.514   0.158   9.217
    1STR   H09112072   5.601   0.115   9.250
    1STR   C09212073   5.415   0.155   0.011
    1STR   H09312074   5.358   0.248   0.012
    1STR   H09412075   5.465   0.140   0.107
    1STR   H09512076   5.345   0.073   0.003
    1STR   C09612077   5.502   0.043   9.123
    1STR   H09712078   5.459   9.286   9.184
    1STR   H09812079   5.436   0.080   9.053
    1STR   O09912080   5.607   9.304   9.048
    1STR   C10012081   5.554   9.248   8.926
    1STR   H10112082   5.460   9.204   8.953
    1STR   C10212083   5.512   0.039   8.830
    1STR   H10312084   5.546   0.137   8.862
    1STR   H10412085   5.406   0.043   8.831
    1STR   H10512086   5.537   0.022   8.727
    1STR   C10612087   5.627   9.129   8.861
    1STR   H10712088   5.653   9.060   8.941
    1STR   H10812089   5.559   9.072   8.797
    1STR   O10912090   5.744   9.147   8.784
    1STR   C11012091   5.771   9.253   8.693
    1STR   H11112092   5.872   9.230   8.661
    1STR   C11212093   5.694   9.218   8.565
    1STR   H11312094   5.593   9.186   8.588
    1STR   H11412095   5.738   9.130   8.519
    1STR   H11512096   5.696   9.298   8.492
    1STR   C11612097   5.789   0.081   8.747
    1STR   H11712098   5.890   0.115   8.723
    1STR   H11812099   5.722   0.148   8.693
    1STR   O11912100   5.768   0.101   8.890
    1STR   C12012101   5.843   0.193   8.973
    1STR   H12112102   5.946   0.175   8.957
    1STR   C12212103   5.796   0.326   8.908
    1STR   H12312104   5.690   0.340   8.926
    1STR   H12412105   5.809   0.328   8.800
    1STR   H12512106   5.849   0.413   8.944
    1STR   C12612107   5.821   0.195   9.134
    1STR   H12712108   5.863   0.286   9.175
    1STR   H12812109   5.720   0.209   9.115
    1STR   O12912110   5.824   0.093   9.243
    1STR   C13012111   5.780   0.101   0.070
    1STR   H13112112   5.689   0.156   0.089
    1STR   C13212113   5.728   9.281   0.102
    1STR   H13312114   5.640   9.254   0.045
    1STR   H13412115   5.706   9.268   0.206
    1STR   H13512116   5.803   9.208   0.082
    1STR   C13612117   5.849   0.171   0.195
    1STR   H13712118   5.955   0.186   0.195
    1STR   H13812119   5.809   0.272   0.204
    1STR   O13912120   5.824   0.105   0.320
    1STR   C14012121   5.918   0.123   0.426
    1STR   H14112122   6.017   0.119   0.384
    1STR   C14212123   5.915   0.262   0.491
    1STR   H14312124   5.854   0.266   0.580
    1STR   H14412125   5.878   0.338   0.421
    1STR   H14512126   6.015   0.293   0.520
    1STR   C14612127   5.912   0.005   0.526
    1STR   H14712128   6.000   9.263   0.511
    1STR   H14812129   5.916   0.040   0.629
    1STR   O14912130   5.796   9.243   0.511
    1STR   C15012131   5.813   9.106   0.549
    1STR   H15112132   5.890   9.095   0.625
    1STR   C15212133   5.681   9.064   0.616
    1STR   H15312134   5.596   9.087   0.553
    1STR   H15412135   5.668   9.117   0.709
    1STR   H15512136   5.680   8.957   0.637
    1STR   C15612137   5.852   9.022   0.424
    1STR   H15712138   5.825   9.079   0.335
    1STR   H15812139   5.961   9.014   0.420
    1STR   O15912140   5.785   8.895   0.413
    1STR   C16012141   5.862   8.775   0.414
    1STR   H16112142   5.967   8.795   0.397
    1STR   C16212143   5.852   8.720   0.556
    1STR   H16312144   5.748   8.699   0.582
    1STR   H16412145   5.890   8.793   0.628
    1STR   H16512146   5.910   8.629   0.567
    1STR   C16612147   5.814   8.670   0.309
    1STR   H16712148   5.888   8.591   0.305
    1STR   H16812149   5.720   8.626   0.341
    1STR   O16912150   5.793   8.719   0.176
    1STR   C17012151   5.816   8.628   0.066
    1STR   H17112152   5.921   8.604   0.064
    1STR   C17212153   5.745   8.492   0.075
    1STR   H17312154   5.638   8.501   0.062
    1STR   H17412155   5.764   8.441   0.170
    1STR   H17512156   5.781   8.427   9.316
    1STR   C17612157   5.783   8.696   9.252
    1STR   H17712158   5.812   8.634   9.168
    1STR   H17812159   5.677   8.715   9.244
    1STR   O17912160   5.851   8.818   9.242
    1STR   C18012161   5.800   8.906   9.145
    1STR   H18112162   5.722   8.863   9.082
    1STR   C18212163   5.745   9.022   9.228
    1STR   H18312164   5.825   9.085   9.258
    1STR   H18412165   5.711   8.993   0.005
    1STR   H18512166   5.675   9.086   9.173
    1STR   C18612167   5.916   8.954   9.059
    1STR   H18712168   6.011   8.928   9.102
    1STR   H18812169   5.906   8.923   8.956
    1STR   O18912170   5.913   9.091   9.066
    1STR   C19012171   6.025   9.161   9.027
    1STR   H19112172   6.111   9.105   9.003
    1STR   C19212173   5.967   9.219   8.908
    1STR   H19312174   5.869   9.245   8.941
    1STR   H19412175   5.961   9.138   8.836
    1STR   H19512176   6.013   9.308   8.868
    1STR   C19612177   6.061   9.267   9.123
    1STR   H19712178   6.168   9.280   9.115
    1STR   H19812179   6.018   0.040   9.094
    1STR   O19912180   6.014   9.233   9.251
    1STR   C20012181   6.082   9.301   0.031
    1STR   H20112182   6.184   9.274   0.017
    1STR   C20212183   6.086   0.130   0.010
    1STR   H20312184   5.999   0.192   0.006
    1STR   H20412185   6.119   0.154   9.233
    1STR   H20512186   6.153   0.173   0.079
    1STR   C20612187   6.053   9.250   0.173
    1STR   H20712188   6.094   0.004   0.238
    1STR   H20812189   5.950   9.245   0.204
    1STR   O20912190   6.115   9.126   0.203
    1STR   C21012191   6.085   9.025   0.109
    1STR   H21112192   5.993   9.043   0.054
    1STR   C21212193   6.201   9.012   0.013
    1STR   H21312194   6.294   8.997   0.066
    1STR   H21412195   6.211   9.093   9.264
    1STR   H21512196   6.180   8.930   9.266
    1STR   C21612197   6.059   8.898   0.184
    1STR   H21712198   6.129   8.884   0.266
    1STR   H21812199   5.958   8.911   0.220
    1STR   O21912200   6.050   8.788   0.096
    1STR   C22012201   6.167   8.715   0.074
    1STR   H22112202   6.252   8.780   0.088
    1STR   C22212203   6.178   8.609   0.185
    1STR   H22312204   6.099   8.535   0.179
    1STR   H22412205   6.171   8.657   0.283
    1STR   H22512206   6.274   8.559   0.184
    1STR   C22612207   6.166   8.661   9.249
    1STR   H22712208   6.270   8.659   9.221
    1STR   H22812209   6.127   8.560   9.251
    1STR   O22912210   6.103   8.734   9.141
    1STR   C23012211   6.158   8.706   9.011
    1STR   H23112212   6.262   8.729   9.026
    1STR   C23212213   6.133   8.557   8.982
    1STR   H23312214   6.026   8.535   8.992
    1STR   H23412215   6.186   8.491   9.050
    1STR   H23512216   6.163   8.528   8.881
    1STR   C23612217   6.123   8.790   8.882
    1STR   H23712218   6.180   8.742   8.802
    1STR   H23812219   6.019   8.775   8.855
    1STR   O23912220   6.155   8.931   8.876
    1STR   C24012221   6.193   8.997   8.752
    1STR   H24112222   6.296   8.965   8.735
    1STR   C24212223   6.109   8.937   8.637
    1STR   H24312224   6.119   8.994   8.545
    1STR   H24412225   6.003   8.937   8.663
    1STR   H24512226   6.138   8.835   8.613
    1STR   C24612227   6.192   9.157   8.736
    1STR   H24712228   6.255   9.172   8.650
    1STR   H24812229   6.098   9.189   8.692
    1STR   O24912230   6.227   9.254   8.843
    1STR   C25012231   6.255   0.078   8.819
    1STR   H25112232   6.360   0.081   8.847
    1STR   C25212233   6.241   0.126   8.673
    1STR   H25312234   6.216   0.051   8.599
    1STR   H25412235   6.338   0.169   8.648
    1STR   H25512236   6.169   0.207   8.657
    1STR   C25612237   6.201   0.203   8.899
    1STR   H25712238   6.265   0.284   8.864
    1STR   H25812239   6.105   0.231   8.859
    1STR   O25912240   6.201   0.219   9.041
    1STR   C26012241   6.207   0.356   9.091
    1STR   H26112242   6.299   0.392   9.050
    1STR   C26212243   6.096   0.447   9.041
    1STR   H26312244   6.003   0.416   9.086
    1STR   H26412245   6.086   0.447   8.932
    1STR   H26512246   6.113   0.550   9.073
    1STR   C26612247   6.227   0.377   9.245
    1STR   H26712248   6.279   0.292   9.284
    1STR   H26812249   6.300   0.452   9.262
    1STR   O26912250   6.117   0.407   0.013
    1STR   C27012251   6.157   0.446   0.147
    1STR   H27112252   6.214   0.538   0.138
    1STR   C27212253   6.035   0.490   0.227
    1STR   H27312254   5.961   0.412   0.227
    1STR   H27412255   5.990   0.579   0.185
    1STR   H27512256   6.061   0.510   0.331
    1STR   C27612257   6.253   0.355   0.229
    1STR   H27712258   6.338   0.335   0.165
    1STR   H27812259   6.293   0.413   0.312
    1STR   O27912260   6.207   0.232   0.284
    1STR   C28012261   6.313   0.141   0.316
    1STR   H28112262   6.399   0.200   0.348
    1STR   C28212263   6.271   0.059   0.439
    1STR   H28312264   6.196   9.305   0.417
    1STR   H28412265   6.235   0.124   0.520
    1STR   H28512266   6.354   0.002   0.477
    1STR   C28612267   6.360   0.049   0.199
    1STR   H28712268   6.447   9.317   0.233
    1STR   H28812269   6.295   9.286   0.183
    1STR   O28912270   6.387   0.126   0.081
    1STR   C29012271   6.396   0.073   9.266
    1STR   H29112272   6.299   0.080   9.222
    1STR   C29212273   6.477   0.160   9.171
    1STR   H29312274   6.583   0.138   9.169
    1STR   H29412275   6.463   0.263   9.197
    1STR   H29512276   6.444   0.146   9.067
    1STR   C29612277   6.439   9.253   9.246
    1STR   H29712278   6.547   9.259   9.247
    1STR   H29812279   6.402   9.186   0.002
    1STR   O29912280   6.390   9.221   9.117
    1STR   C30012281   6.448   9.108   9.061
    1STR   H30112282   6.533   9.084   9.117
    1STR   C30212283   6.364   8.985   9.077
    1STR   H30312284   6.259   9.004   9.069
    1STR   H30412285   6.377   8.943   9.175
    1STR   H30512286   6.390   8.910   9.005
    1STR   C30612287   6.490   9.129   8.917
    1STR   H30712288   6.560   9.050   8.890
    1STR   H30812289   6.404   9.111   8.858
    1STR   O30912290   6.545   9.258   8.889
    1STR    H1R12291   6.685   9.193   8.752
    1STR    H1S12292   6.526   9.259   8.554
    1STR    H1T12293   6.416   9.292   8.674
    1STR    H1U12294   6.465   9.128   8.653
    1STR    H1V12295   6.667   0.081   8.613
    1STR    H1W12296   6.757   0.092   8.756
    1STR    H1X12297   6.449   0.347   8.810
    1STR    H1Y12298   6.403   0.596   8.835
    1STR    H1Z12299   6.331   0.737   9.018
    1STR    H2012300   6.260   0.653   9.298
    1STR    H2112301   6.399   0.739   0.044
    1STR    H2212302   6.314   0.794   9.225
    1STR    H2312303   6.650   0.404   0.001
    1STR    H2712304   6.641   0.363   9.106
    1STR    H2812305   5.296   0.821   9.217
    1STR    H2912306   5.183   0.621   9.131
    1STR    H2A12307   5.032   0.349   0.004
    1STR    H2B12308   5.083   0.409   9.162
    1STR    H2C12309   4.943   0.466   9.244
    1STR   BCK112310   5.058   9.261   2.786
    1STR    O0312311   5.082   9.142   2.804
    1STR    N0412312   5.078   0.043   2.869
    1STR    C0512313   5.187   0.043   2.954
    1STR    C0612314   5.229   9.242   3.013
    1STR    C0712315   5.359   9.224   3.061
    1STR    N0812316   5.408   9.099   3.096
    1STR    C0912317   5.339   8.989   3.125
    1STR    O0A12318   5.223   8.985   3.163
    1STR    O0B12319   5.409   8.879   3.100
    1STR    C0C12320   5.385   8.809   2.979
    1STR    C0D12321   5.464   8.678   2.992
    1STR    C0E12322   5.236   8.781   2.944
    1STR    O0F12323   5.228   8.699   2.827
    1STR    C0G12324   5.192   8.758   2.702
    1STR    C0H12325   5.269   8.887   2.679
    1STR    C0I12326   5.229   8.652   2.597
    1STR    O0J12327   5.224   8.695   2.460
    1STR    C0K12328   6.570   0.699   1.657
    1STR    C0M12329   6.630   0.768   1.778
    1STR    C0N12330   6.578   0.546   1.679
    1STR    O0O12331   6.636   0.516   1.809
    1STR    C0P12332   6.731   0.428   1.825
    1STR    O0Q12333   6.786   0.368   1.735
    1STR    N0R12334   6.769   0.401   1.949
    1STR    C0S12335   6.727   0.451   2.072
    1STR    C0T12336   6.795   0.552   2.138
    1STR    C0U12337   6.782   0.564   2.276
    1STR    C0V12338   6.684   0.494   2.348
    1STR    C0W12339   6.679   0.510   2.496
    1STR    C0X12340   6.600   0.408   2.280
    1STR    N0Y12341   6.491   0.345   2.337
    1STR   BCK212342   6.497   0.252   2.430
    1STR    O1012343   6.490   0.139   2.390
    1STR    C1312344   6.631   0.382   2.145
    1STR    C1412345   5.446   0.014   3.052
    1STR    C1512346   5.405   0.137   2.996
    1STR    C1612347   5.274   0.155   2.949
    1STR    C1712348   5.239   0.286   2.879
    1STR    H1B12349   5.048   0.130   2.830
    1STR    H1C12350   5.159   9.160   3.018
    1STR    H1D12351   5.508   9.088   3.088
    1STR    H1E12352   5.429   8.870   2.900
    1STR    H1F12353   5.424   8.618   3.074
    1STR    H1G12354   5.457   8.619   2.901
    1STR    H1H12355   5.569   8.698   3.012
    1STR    H1I12356   5.176   8.872   2.933
    1STR    H1J12357   5.189   8.727   3.026
    1STR    H1K12358   5.085   8.781   2.702
    1STR    H1M12359   5.373   8.858   2.687
    1STR    H1N12360   5.249   8.966   2.751
    1STR    H1O12361   5.251   8.929   2.580
    1STR    H1P12362   5.326   8.609   2.620
    1STR    H1Q12363   5.158   8.569   2.606
    1STR   C01012364   5.346   8.738   2.398
    1STR   H01112365   5.390   8.819   2.455
    1STR   C01212366   5.449   8.626   2.381
    1STR   H01312367   5.404   8.539   2.334
    1STR   H01412368   5.493   8.596   2.476
    1STR   H01512369   5.529   8.661   2.317
    1STR   C01612370   5.308   8.792   2.261
    1STR   H01712371   5.303   8.714   2.186
    1STR   H01812372   5.205   8.826   2.267
    1STR   O01912373   5.400   8.894   2.221
    1STR   C02012374   5.337   9.012   2.175
    1STR   H02112375   5.285   8.977   2.089
    1STR   C02212376   5.255   9.080   2.289
    1STR   H02312377   5.319   9.134   2.358
    1STR   H02412378   5.194   9.013   2.348
    1STR   H02512379   5.189   9.157   2.251
    1STR   C02612380   5.421   9.118   2.106
    1STR   H02712381   5.492   9.154   2.176
    1STR   H02812382   5.469   9.080   2.016
    1STR   O02912383   5.332   9.222   2.075
    1STR   C03012384   5.377   0.034   2.103
    1STR   H03112385   5.466   0.041   2.161
    1STR   C03212386   5.416   0.097   1.968
    1STR   H03312387   5.523   0.096   1.955
    1STR   H03412388   5.382   0.200   1.958
    1STR   H03512389   5.378   0.040   1.884
    1STR   C03612390   5.266   0.105   2.183
    1STR   H03712391   5.280   0.212   2.176
    1STR   H03812392   5.176   0.073   2.132
    1STR   O03912393   5.248   0.072   2.321
    1STR   C04012394   5.233   0.179   2.418
    1STR   H04112395   5.284   0.272   2.394
    1STR   C04212396   5.094   0.233   2.440
    1STR   H04312397   5.020   0.157   2.422
    1STR   H04412398   5.074   0.316   2.374
    1STR   H04512399   5.084   0.276   2.539
    1STR   C04612400   5.289   0.119   2.548
    1STR   H04712401   5.241   0.163   2.634
    1STR   H04812402   5.263   0.015   2.541
    1STR   O04912403   5.428   0.115   2.571
    1STR   C05012404   5.468   0.081   2.701
    1STR   H05112405   5.427   0.162   2.757
    1STR   C05212406   5.403   9.267   2.733
    1STR   H05312407   5.397   9.203   2.646
    1STR   H05412408   5.301   9.280   2.757
    1STR   H05512409   5.450   9.219   2.817
    1STR   C05612410   5.619   0.090   2.731
    1STR   H05712411   5.677   0.027   2.666
    1STR   H05812412   5.650   0.191   2.713
    1STR   O05912413   5.643   0.056   2.868
    1STR   C06012414   5.773   0.081   2.919
    1STR   H06112415   5.845   0.036   2.851
    1STR   C06212416   5.793   0.233   2.932
    1STR   H06312417   5.709   0.279   2.984
    1STR   H06412418   5.803   0.282   2.836
    1STR   H06512419   5.883   0.256   2.989
    1STR   C06612420   5.793   0.019   3.059
    1STR   H06712421   5.898   0.018   3.081
    1STR   H06812422   5.749   0.086   3.134
    1STR   O06912423   5.737   9.211   3.090
    1STR   C07012424   5.786   9.096   3.024
    1STR   H07112425   5.893   9.101   3.009
    1STR   C07212426   5.753   8.981   3.120
    1STR   H07312427   5.646   8.972   3.138
    1STR   H07412428   5.801   8.996   3.217
    1STR   H07512429   5.786   8.885   3.081
    1STR   C07612430   5.712   9.084   2.890
    1STR   H07712431   5.611   9.120   2.904
    1STR   H07812432   5.757   9.148   2.815
    1STR   O07912433   5.705   8.949   2.846
    1STR   C08012434   5.683   8.935   2.706
    1STR   H08112435   5.768   8.970   2.653
    1STR   C08212436   5.666   8.785   2.681
    1STR   H08312437   5.578   8.747   2.732
    1STR   H08412438   5.753   8.730   2.717
    1STR   H08512439   5.655   8.764   2.575
    1STR   C08612440   5.569   9.020   2.649
    1STR   H08712441   5.509   8.961   2.582
    1STR   H08812442   5.501   9.035   2.732
    1STR   O08912443   5.608   9.147   2.590
    1STR   C09012444   5.628   9.167   2.448
    1STR   H09112445   5.731   9.161   2.427
    1STR   C09212446   5.595   9.036   2.376
    1STR   H09312447   5.490   9.017   2.387
    1STR   H09412448   5.650   8.952   2.418
    1STR   H09512449   5.623   9.030   2.272
    1STR   C09612450   5.575   9.304   2.380
    1STR   H09712451   5.607   9.292   2.279
    1STR   H09812452   5.467   9.298   2.382
    1STR   O09912453   5.623   0.124   2.398
    1STR   C10012454   5.536   0.241   2.362
    1STR   H10112455   5.450   0.184   2.354
    1STR   C10212456   5.533   0.350   2.474
    1STR   H10312457   5.610   0.425   2.460
    1STR   H10412458   5.544   0.313   2.574
    1STR   H10512459   5.439   0.405   2.473
    1STR   C10612460   5.518   0.321   2.227
    1STR   H10712461   5.609   0.357   2.194
    1STR   H10812462   5.486   0.260   2.145
    1STR   O10912463   5.449   0.446   2.227
    1STR   C11012464   5.514   0.562   2.167
    1STR   H11112465   5.620   0.552   2.170
    1STR   C11212466   5.489   0.578   2.017
    1STR   H11312467   5.440   0.490   1.974
    1STR   H11412468   5.581   0.596   1.962
    1STR   H11512469   5.428   0.666   1.998
    1STR   C11612470   5.489   0.690   2.252
    1STR   H11712471   5.554   0.772   2.221
    1STR   H11812472   5.390   0.731   2.240
    1STR   O11912473   5.515   0.650   2.387
    1STR   C12012474   5.535   0.749   2.488
    1STR   H12112475   5.462   0.828   2.474
    1STR   C12212476   5.508   0.670   2.617
    1STR   H12312477   5.588   0.598   2.635
    1STR   H12412478   5.417   0.610   2.611
    1STR   H12512479   5.502   0.736   2.703
    1STR   C12612480   5.678   0.809   2.499
    1STR   H12712481   5.670   0.904   2.552
    1STR   H12812482   5.741   0.747   2.563
    1STR   O12912483   5.747   0.834   2.378
    1STR   C13012484   5.797   0.717   2.317
    1STR   H13112485   5.721   0.644   2.315
    1STR   C13212486   5.829   0.749   2.170
    1STR   H13312487   5.908   0.822   2.161
    1STR   H13412488   5.743   0.790   2.117
    1STR   H13512489   5.857   0.658   2.116
    1STR   C13612490   5.905   0.640   2.393
    1STR   H13712491   5.955   0.585   2.316
    1STR   H13812492   5.976   0.705   2.445
    1STR   O13912493   5.856   0.538   2.477
    1STR   C14012494   5.896   0.407   2.435
    1STR   H14112495   6.001   0.394   2.416
    1STR   C14212496   5.867   0.322   2.558
    1STR   H14312497   5.882   0.378   2.650
    1STR   H14412498   5.935   0.238   2.557
    1STR   H14512499   5.766   0.283   2.560
    1STR   C14612500   5.820   0.366   2.307
    1STR   H14712501   5.765   0.283   2.343
    1STR   H14812502   5.752   0.446   2.288
    1STR   O14912503   5.879   0.319   2.183
    1STR   C15012504   5.788   0.247   2.093
    1STR   H15112505   5.717   0.205   2.162
    1STR   C15212506   5.726   0.336   1.984
    1STR   H15312507   5.782   0.330   1.891
    1STR   H15412508   5.723   0.440   2.014
    1STR   H15512509   5.625   0.303   1.959
    1STR   C15612510   5.825   0.114   2.032
    1STR   H15712511   5.823   0.113   1.924
    1STR   H15812512   5.925   0.090   2.065
    1STR   O15912513   5.721   0.023   2.068
    1STR   C16012514   5.758   9.209   2.078
    1STR   H16112515   5.685   9.164   2.140
    1STR   C16212516   5.728   9.140   1.945
    1STR   H16312517   5.801   9.162   1.870
    1STR   H16412518   5.634   9.176   1.905
    1STR   H16512519   5.719   9.032   1.955
    1STR   C16612520   5.882   9.192   2.166
    1STR   H16712521   5.894   9.093   2.203
    1STR   H16812522   5.975   9.218   2.117
    1STR   O16912523   5.853   9.271   2.280
    1STR   C17012524   5.956   9.287   2.374
    1STR   H17112525   6.022   9.205   2.364
    1STR   C17212526   6.013   0.101   2.332
    1STR   H17312527   6.055   0.106   2.232
    1STR   H17412528   6.080   0.149   2.403
    1STR   H17512529   5.927   0.161   2.332
    1STR   C17612530   5.907   9.295   2.520
    1STR   H17712531   5.981   0.026   2.580
    1STR   H17812532   5.821   0.041   2.520
    1STR   O17912533   5.877   9.171   2.585
    1STR   C18012534   5.982   9.078   2.592
    1STR   H18112535   6.066   9.137   2.563
    1STR   C18212536   6.012   9.049   2.739
    1STR   H18312537   5.946   8.975   2.782
    1STR   H18412538   6.003   9.140   2.798
    1STR   H18512539   6.114   9.013   2.749
    1STR   C18612540   5.969   8.948   2.503
    1STR   H18712541   6.068   8.911   2.486
    1STR   H18812542   5.923   8.871   2.564
    1STR   O18912543   5.906   8.952   2.374
    1STR   C19012544   5.925   8.836   2.290
    1STR   H19112545   6.031   8.814   2.284
    1STR   C19212546   5.847   8.718   2.352
    1STR   H19312547   5.740   8.732   2.339
    1STR   H19412548   5.860   8.704   2.459
    1STR   H19512549   5.874   8.623   2.305
    1STR   C19612550   5.869   8.845   2.143
    1STR   H19712551   5.870   8.746   2.098
    1STR   H19812552   5.763   8.868   2.153
    1STR   O19912553   5.913   8.942   2.045
    1STR   C20012554   6.033   8.934   1.970
    1STR   H20112555   6.114   8.958   2.039
    1STR   C20212556   6.049   8.790   1.917
    1STR   H20312557   5.956   8.756   1.873
    1STR   H20412558   6.076   8.721   1.997
    1STR   H20512559   6.125   8.782   1.840
    1STR   C20612560   6.034   9.035   1.849
    1STR   H20712561   6.126   9.018   1.792
    1STR   H20812562   5.952   9.008   1.783
    1STR   O20912563   6.026   9.178   1.874
    1STR   C21012564   6.041   9.265   1.759
    1STR   H21112565   6.118   9.219   1.697
    1STR   C21212566   5.913   9.271   1.674
    1STR   H21312567   5.833   0.004   1.725
    1STR   H21412568   5.876   9.171   1.648
    1STR   H21512569   5.930   0.003   1.580
    1STR   C21612570   6.095   0.091   1.783
    1STR   H21712571   6.199   0.083   1.811
    1STR   H21812572   6.101   0.138   1.685
    1STR   O21912573   6.031   0.182   1.876
    1STR   C22012574   6.063   0.322   1.862
    1STR   H22112575   6.166   0.316   1.836
    1STR   C22212576   5.994   0.376   1.736
    1STR   H22312577   5.915   0.446   1.759
    1STR   H22412578   5.949   0.297   1.675
    1STR   H22512579   6.066   0.427   1.673
    1STR   C22612580   6.048   0.427   1.983
    1STR   H22712581   6.089   0.519   1.944
    1STR   H22812582   5.945   0.455   1.999
    1STR   O22912583   6.106   0.401   2.115
    1STR   C23012584   6.165   0.508   2.196
    1STR   H23112585   6.259   0.501   2.149
    1STR   C23212586   6.132   0.660   2.177
    1STR   H23312587   6.091   0.714   2.261
    1STR   H23412588   6.076   0.683   2.087
    1STR   H23512589   6.222   0.718   2.175
    1STR   C23612590   6.222   0.472   2.335
    1STR   H23712591   6.223   0.364   2.351
    1STR   H23812592   6.324   0.510   2.334
    1STR   O23912593   6.169   0.539   2.448
    1STR   C24012594   6.244   0.514   2.567
    1STR   H24112595   6.348   0.493   2.543
    1STR   C24212596   6.245   0.648   2.641
    1STR   H24312597   6.310   0.643   2.729
    1STR   H24412598   6.145   0.675   2.674
    1STR   H24512599   6.282   0.727   2.576
    1STR   C24612600   6.189   0.402   2.658
    1STR   H24712601   6.245   0.409   2.751
    1STR   H24812602   6.086   0.426   2.685
    1STR   O24912603   6.197   0.266   2.609
    1STR   C25012604   6.203   0.165   2.712
    1STR   H25112605   6.286   0.190   2.777
    1STR   C25212606   6.079   0.171   2.801
    1STR   H25312607   5.988   0.159   2.744
    1STR   H25412608   6.070   0.266   2.854
    1STR   H25512609   6.080   0.093   2.877
    1STR   C25612610   6.231   0.019   2.663
    1STR   H25712611   6.330   9.306   2.691
    1STR   H25812612   6.169   9.269   2.717
    1STR   O25912613   6.209   0.002   2.525
    1STR   C26012614   6.295   9.239   2.447
    1STR   H26112615   6.397   9.253   2.479
    1STR   C26212616   6.256   9.089   2.441
    1STR   H26312617   6.167   9.070   2.383
    1STR   H26412618   6.246   9.049   2.541
    1STR   H26512619   6.324   9.022   2.393
    1STR   C26612620   6.278   9.299   2.310
    1STR   H26712621   6.188   9.260   2.266
    1STR   H26812622   6.269   0.087   2.318
    1STR   O26912623   6.381   9.269   2.223
    1STR   C27012624   6.359   9.315   2.092
    1STR   H27112625   6.442   9.270   2.042
    1STR   C27212626   6.233   9.260   2.029
    1STR   H27312627   6.153   0.014   2.032
    1STR   H27412628   6.195   9.170   2.074
    1STR   H27512629   6.256   9.235   1.926
    1STR   C27612630   6.370   0.145   2.077
    1STR   H27712631   6.289   0.199   2.127
    1STR   H27812632   6.462   0.164   2.129
    1STR   O27912633   6.370   0.171   1.937
    1STR   C28012634   6.435   0.285   1.883
    1STR   H28112635   6.541   0.271   1.896
    1STR   C28212636   6.405   0.272   1.735
    1STR   H28312637   6.323   0.335   1.701
    1STR   H28412638   6.384   0.169   1.705
    1STR   H28512639   6.493   0.301   1.680
    1STR   C28612640   6.385   0.415   1.950
    1STR   H28712641   6.282   0.405   1.963
    1STR   H28812642   6.416   0.416   2.052
    1STR   O28912643   6.406   0.544   1.891
    1STR   C29012644   6.365   0.655   1.971
    1STR   H29112645   6.266   0.623   1.992
    1STR   C29212646   6.456   0.673   2.095
    1STR   H29312647   6.453   0.590   2.164
    1STR   H29412648   6.425   0.757   2.156
    1STR   H29512649   6.561   0.686   2.071
    1STR   C29612650   6.325   0.790   1.908
    1STR   H29712651   6.287   0.853   1.989
    1STR   H29812652   6.407   0.850   1.870
    1STR   O29912653   6.216   0.784   1.815
    1STR   C30012654   6.219   0.690   1.709
    1STR   H30112655   6.230   0.589   1.748
    1STR   C30212656   6.077   0.702   1.653
    1STR   H30312657   6.057   0.804   1.620
    1STR   H30412658   6.004   0.678   1.730
    1STR   H30512659   6.061   0.635   1.569
    1STR   C30612660   6.327   0.715   1.600
    1STR   H30712661   6.345   0.627   1.539
    1STR   H30812662   6.293   0.793   1.533
    1STR   O30912663   6.444   0.765   1.661
    1STR    H1R12664   6.622   0.727   1.566
    1STR    H1S12665   6.581   0.737   1.869
    1STR    H1T12666   6.616   0.876   1.771
    1STR    H1U12667   6.732   0.740   1.798
    1STR    H1V12668   6.631   0.498   1.597
    1STR    H1W12669   6.477   0.508   1.674
    1STR    H1X12670   6.838   0.327   1.952
    1STR    H1Y12671   6.867   0.614   2.087
    1STR    H1Z12672   6.844   0.629   2.333
    1STR    H2012673   6.578   0.533   2.528
    1STR    H2112674   6.717   0.422   2.548
    1STR    H2212675   6.746   0.588   2.528
    1STR    H2312676   6.430   0.307   2.267
    1STR    H2712677   6.579   0.307   2.094
    1STR    H2812678   5.545   0.006   3.090
    1STR    H2912679   5.477   0.217   2.990
    1STR    H2A12680   5.176   0.271   2.793
    1STR    H2B12681   5.329   0.337   2.844
    1STR    H2C12682   5.188   0.357   2.943
    1STR   BCK112683   5.186   9.136   4.896
    1STR    O0312684   5.157   9.076   4.997
    1STR    N0412685   5.208   9.063   4.785
    1STR    C0512686   5.221   9.084   4.648
    1STR    C0612687   5.240   9.210   4.597
    1STR    C0712688   5.182   9.249   4.477
    1STR    N0812689   5.189   0.065   4.458
    1STR    C0912690   5.148   0.139   4.358
    1STR    O0A12691   5.102   0.088   4.258
    1STR    O0B12692   5.167   0.272   4.373
    1STR    C0C12693   5.245   0.332   4.476
    1STR    C0D12694   5.304   0.455   4.407
    1STR    C0E12695   5.168   0.361   4.607
    1STR    O0F12696   5.253   0.395   4.719
    1STR    C0G12697   5.198   0.475   4.827
    1STR    C0H12698   5.158   0.393   4.950
    1STR    C0I12699   5.290   0.590   4.880
    1STR    O0J12700   5.381   0.657   4.792
    1STR    C0K12701   6.417   9.093   5.243
    1STR    C0M12702   6.557   9.116   5.199
    1STR    C0N12703   6.416   8.974   5.340
    1STR    O0O12704   6.441   8.858   5.259
    1STR    C0P12705   6.375   8.743   5.276
    1STR    O0Q12706   6.301   8.715   5.369
    1STR    N0R12707   6.386   8.654   5.177
    1STR    C0S12708   6.423   8.668   5.043
    1STR    C0T12709   6.366   8.575   4.953
    1STR    C0U12710   6.384   8.589   4.814
    1STR    C0V12711   6.469   8.689   4.763
    1STR    C0W12712   6.504   8.698   4.615
    1STR    C0X12713   6.523   8.783   4.853
    1STR    N0Y12714   6.585   8.890   4.794
    1STR   BCK212715   6.528   9.010   4.782
    1STR    O1012716   6.553   9.079   4.687
    1STR    C1312717   6.502   8.772   4.991
    1STR    C1412718   5.126   9.151   4.394
    1STR    C1512719   5.134   9.015   4.431
    1STR    C1612720   5.182   8.982   4.559
    1STR    C1712721   5.195   8.840   4.602
    1STR    H1B12722   5.175   8.970   4.807
    1STR    H1C12723   5.287   9.283   4.656
    1STR    H1D12724   5.244   0.115   4.525
    1STR    H1E12725   5.327   0.265   4.499
    1STR    H1F12726   5.224   0.520   4.372
    1STR    H1G12727   5.368   0.510   4.475
    1STR    H1H12728   5.362   0.426   4.319
    1STR    H1I12729   5.108   0.274   4.626
    1STR    H1J12730   5.093   0.437   4.592
    1STR    H1K12731   5.105   0.520   4.794
    1STR    H1M12732   5.211   0.298   4.958
    1STR    H1N12733   5.052   0.377   4.951
    1STR    H1O12734   5.175   0.446   5.044
    1STR    H1P12735   5.224   0.668   4.917
    1STR    H1Q12736   5.341   0.562   4.970
    1STR   C01012737   5.498   0.585   4.753
    1STR   H01112738   5.468   0.487   4.720
    1STR   C01212739   5.550   0.660   4.629
    1STR   H01312740   5.589   0.758   4.656
    1STR   H01412741   5.469   0.678   4.558
    1STR   H01512742   5.628   0.604   4.579
    1STR   C01612743   5.608   0.576   4.861
    1STR   H01712744   5.685   0.504   4.833
    1STR   H01812745   5.658   0.672   4.865
    1STR   O01912746   5.565   0.554   4.995
    1STR   C02012747   5.537   0.421   5.043
    1STR   H02112748   5.451   0.435   5.107
    1STR   C02212749   5.494   0.317   4.940
    1STR   H02312750   5.574   0.287   4.875
    1STR   H02412751   5.414   0.351   4.878
    1STR   H02512752   5.456   0.227   4.988
    1STR   C02612753   5.652   0.369   5.129
    1STR   H02712754   5.665   0.262   5.112
    1STR   H02812755   5.744   0.419   5.101
    1STR   O02912756   5.628   0.396   5.266
    1STR   C03012757   5.588   0.284   5.344
    1STR   H03112758   5.661   0.203   5.337
    1STR   C03212759   5.590   0.337   5.487
    1STR   H03312760   5.521   0.421   5.498
    1STR   H03412761   5.690   0.373   5.513
    1STR   H03512762   5.563   0.259   5.558
    1STR   C03612763   5.449   0.232   5.305
    1STR   H03712764   5.393   0.202   5.392
    1STR   H03812765   5.392   0.315   5.266
    1STR   O03912766   5.445   0.128   5.207
    1STR   C04012767   5.488   9.315   5.239
    1STR   H04112768   5.588   9.314   5.200
    1STR   C04212769   5.494   9.283   5.390
    1STR   H04312770   5.412   0.004   5.446
    1STR   H04412771   5.585   0.003   5.435
    1STR   H04512772   5.493   9.176   5.408
    1STR   C04612773   5.402   9.216   5.153
    1STR   H04712774   5.301   9.252   5.157
    1STR   H04812775   5.429   9.227   5.050
    1STR   O04912776   5.392   9.076   5.182
    1STR   C05012777   5.442   8.966   5.101
    1STR   H05112778   5.545   8.965   5.103
    1STR   C05212779   5.407   8.857   5.202
    1STR   H05312780   5.300   8.861   5.221
    1STR   H05412781   5.457   8.873   5.297
    1STR   H05512782   5.430   8.756   5.169
    1STR   C05612783   5.412   8.919   4.952
    1STR   H05712784   5.435   8.814   4.959
    1STR   H05812785   5.308   8.915   4.938
    1STR   O05912786   5.466   8.971   4.825
    1STR   C06012787   5.531   8.889   4.723
    1STR   H06112788   5.635   8.913   4.741
    1STR   C06212789   5.525   8.740   4.748
    1STR   H06312790   5.428   8.696   4.733
    1STR   H06412791   5.562   8.714   4.845
    1STR   H06512792   5.592   8.691   4.678
    1STR   C06612793   5.507   8.894   4.565
    1STR   H06712794   5.596   8.851   4.522
    1STR   H06812795   5.435   8.818   4.537
    1STR   O06912796   5.477   9.008   4.481
    1STR   C07012797   5.492   8.989   4.336
    1STR   H07112798   5.598   8.975   4.316
    1STR   C07212799   5.431   8.859   4.287
    1STR   H07312800   5.328   8.847   4.321
    1STR   H07412801   5.495   8.781   4.325
    1STR   H07512802   5.432   8.848   4.179
    1STR   C07612803   5.445   9.100   4.238
    1STR   H07712804   5.430   9.058   4.139
    1STR   H07812805   5.347   9.139   4.265
    1STR   O07912806   5.542   9.202   4.213
    1STR   C08012807   5.527   0.001   4.288
    1STR   H08112808   5.613   0.065   4.275
    1STR   C08212809   5.420   0.088   4.232
    1STR   H08312810   5.396   0.169   4.300
    1STR   H08412811   5.331   0.031   4.207
    1STR   H08512812   5.456   0.135   4.142
    1STR   C08612813   5.511   9.286   4.434
    1STR   H08712814   5.424   9.226   4.446
    1STR   H08812815   5.593   9.221   4.461
    1STR   O08912816   5.488   0.075   4.518
    1STR   C09012817   5.607   0.137   4.556
    1STR   H09112818   5.668   0.152   4.467
    1STR   C09212819   5.557   0.273   4.605
    1STR   H09312820   5.627   0.336   4.656
    1STR   H09412821   5.472   0.260   4.671
    1STR   H09512822   5.526   0.332   4.519
    1STR   C09612823   5.688   0.048   4.655
    1STR   H09712824   5.676   9.262   4.638
    1STR   H09812825   5.794   0.057   4.634
    1STR   O09912826   5.666   0.079   4.790
    1STR   C10012827   5.601   9.306   4.874
    1STR   H10112828   5.575   0.043   4.963
    1STR   C10212829   5.478   9.267   4.800
    1STR   H10312830   5.421   0.038   4.783
    1STR   H10412831   5.423   9.195   4.856
    1STR   H10512832   5.492   9.213   4.706
    1STR   C10612833   5.681   9.185   4.921
    1STR   H10712834   5.660   9.101   4.856
    1STR   H10812835   5.784   9.212   4.912
    1STR   O10912836   5.654   9.144   5.054
    1STR   C11012837   5.754   9.073   5.126
    1STR   H11112838   5.840   9.114   5.079
    1STR   C11212839   5.745   9.115   5.272
    1STR   H11312840   5.651   9.081   5.313
    1STR   H11412841   5.753   9.223   5.284
    1STR   H11512842   5.824   9.071   5.333
    1STR   C11612843   5.767   8.917   5.129
    1STR   H11712844   5.864   8.894   5.169
    1STR   H11812845   5.700   8.876   5.204
    1STR   O11912846   5.749   8.847   5.007
    1STR   C12012847   5.775   8.706   5.016
    1STR   H12112848   5.861   8.688   5.081
    1STR   C12212849   5.661   8.627   5.082
    1STR   H12312850   5.564   8.640   5.035
    1STR   H12412851   5.649   8.655   5.187
    1STR   H12512852   5.683   8.520   5.080
    1STR   C12612853   5.816   8.662   4.875
    1STR   H12712854   5.767   8.716   4.795
    1STR   H12812855   5.915   8.695   4.863
    1STR   O12912856   5.820   8.522   4.853
    1STR   C13012857   5.894   8.485   4.737
    1STR   H13112858   5.979   8.550   4.720
    1STR   C13212859   5.950   8.347   4.770
    1STR   H13312860   5.870   8.276   4.789
    1STR   H13412861   6.013   8.352   4.858
    1STR   H13512862   6.011   8.309   4.688
    1STR   C13612863   5.808   8.481   4.609
    1STR   H13712864   5.853   8.417   4.534
    1STR   H13812865   5.713   8.434   4.634
    1STR   O13912866   5.779   8.609   4.553
    1STR   C14012867   5.878   8.663   4.465
    1STR   H14112868   5.976   8.653   4.511
    1STR   C14212869   5.877   8.597   4.327
    1STR   H14312870   5.786   8.622   4.273
    1STR   H14412871   5.885   8.488   4.330
    1STR   H14512872   5.959   8.634   4.266
    1STR   C14612873   5.850   8.812   4.447
    1STR   H14712874   5.932   8.858   4.393
    1STR   H14812875   5.761   8.828   4.386
    1STR   O14912876   5.834   8.873   4.574
    1STR   C15012877   5.808   9.013   4.580
    1STR   H15112878   5.703   9.037   4.579
    1STR   C15212879   5.864   9.060   4.712
    1STR   H15312880   5.828   8.999   4.794
    1STR   H15412881   5.840   9.163   4.724
    1STR   H15512882   5.971   9.057   4.718
    1STR   C15612883   5.865   9.098   4.469
    1STR   H15712884   5.855   9.202   4.496
    1STR   H15812885   5.969   9.077   4.462
    1STR   O15912886   5.797   9.067   4.350
    1STR   C16012887   5.840   9.130   4.232
    1STR   H16112888   5.770   9.103   4.153
    1STR   C16212889   5.840   9.281   4.251
    1STR   H16312890   5.787   9.314   4.339
    1STR   H16412891   5.797   0.010   4.165
    1STR   H16512892   5.942   9.314   4.266
    1STR   C16612893   5.980   9.084   4.193
    1STR   H16712894   6.016   9.150   4.117
    1STR   H16812895   6.052   9.106   4.268
    1STR   O16912896   5.986   8.949   4.151
    1STR   C17012897   6.067   8.937   4.036
    1STR   H17112898   6.153   9.003   4.041
    1STR   C17212899   6.120   8.794   4.039
    1STR   H17312900   6.039   8.721   4.037
    1STR   H17412901   6.176   8.778   4.132
    1STR   H17512902   6.188   8.774   3.956
    1STR   C17612903   5.984   8.973   3.910
    1STR   H17712904   6.045   8.966   3.820
    1STR   H17812905   5.904   8.899   3.900
    1STR   O17912906   5.920   9.102   3.921
    1STR   C18012907   5.991   9.213   3.866
    1STR   H18112908   6.098   9.193   3.868
    1STR   C18212909   5.937   9.219   3.723
    1STR   H18312910   5.828   9.217   3.722
    1STR   H18412911   5.973   9.134   3.664
    1STR   H18512912   5.967   9.310   3.671
    1STR   C18612913   5.968   0.029   3.941
    1STR   H18712914   5.993   0.108   3.870
    1STR   H18812915   5.863   0.042   3.964
    1STR   O18912916   6.049   0.042   4.059
    1STR   C19012917   6.081   0.170   4.119
    1STR   H19112918   6.163   0.148   4.188
    1STR   C19212919   6.137   0.260   4.010
    1STR   H19312920   6.059   0.305   3.948
    1STR   H19412921   6.203   0.204   3.944
    1STR   H19512922   6.194   0.342   4.054
    1STR   C19612923   5.975   0.246   4.206
    1STR   H19712924   6.007   0.350   4.202
    1STR   H19812925   5.878   0.242   4.157
    1STR   O19912926   5.960   0.212   4.346
    1STR   C20012927   5.932   0.322   4.436
    1STR   H20112928   6.018   0.386   4.439
    1STR   C20212929   5.817   0.409   4.380
    1STR   H20312930   5.729   0.349   4.358
    1STR   H20412931   5.845   0.463   4.290
    1STR   H20512932   5.788   0.486   4.452
    1STR   C20612933   5.903   0.295   4.587
    1STR   H20712934   5.904   0.389   4.640
    1STR   H20812935   5.802   0.268   4.588
    1STR   O20912936   5.967   0.193   4.667
    1STR   C21012937   5.963   0.201   4.813
    1STR   H21112938   6.045   0.265   4.837
    1STR   C21212939   5.838   0.266   4.873
    1STR   H21312940   5.788   0.200   4.943
    1STR   H21412941   5.767   0.292   4.798
    1STR   H21512942   5.855   0.358   4.927
    1STR   C21612943   5.996   0.064   4.879
    1STR   H21712944   5.962   9.310   4.808
    1STR   H21812945   6.103   0.048   4.882
    1STR   O21912946   5.935   0.028   5.006
    1STR   C22012947   5.999   0.064   5.129
    1STR   H22112948   6.099   0.089   5.104
    1STR   C22212949   5.921   0.178   5.194
    1STR   H22312950   5.966   0.209   5.288
    1STR   H22412951   5.821   0.141   5.214
    1STR   H22512952   5.912   0.265   5.130
    1STR   C22612953   6.026   9.277   5.236
    1STR   H22712954   6.122   9.291   5.283
    1STR   H22812955   5.956   9.289   5.318
    1STR   O22912956   6.012   9.143   5.196
    1STR   C23012957   6.106   9.083   5.112
    1STR   H23112958   6.190   9.150   5.095
    1STR   C23212959   6.137   8.965   5.202
    1STR   H23312960   6.060   8.889   5.208
    1STR   H23412961   6.150   8.999   5.305
    1STR   H23512962   6.225   8.916   5.168
    1STR   C23612963   6.050   9.043   4.975
    1STR   H23712964   5.966   8.975   4.977
    1STR   H23812965   6.012   9.132   4.929
    1STR   O23912966   6.151   8.997   4.888
    1STR   C24012967   6.163   8.859   4.855
    1STR   H24112968   6.268   8.846   4.835
    1STR   C24212969   6.125   8.760   4.965
    1STR   H24312970   6.031   8.784   5.013
    1STR   H24412971   6.197   8.761   5.044
    1STR   H24512972   6.120   8.658   4.928
    1STR   C24612973   6.093   8.829   4.724
    1STR   H24712974   6.108   8.726   4.694
    1STR   H24812975   5.987   8.839   4.742
    1STR   O24912976   6.121   8.921   4.621
    1STR   C25012977   6.242   8.907   4.553
    1STR   H25112978   6.324   8.914   4.624
    1STR   C25212979   6.238   8.777   4.469
    1STR   H25312980   6.150   8.776   4.405
    1STR   H25412981   6.237   8.687   4.530
    1STR   H25512982   6.324   8.770   4.403
    1STR   C25612983   6.246   9.025   4.458
    1STR   H25712984   6.306   8.998   4.372
    1STR   H25812985   6.150   9.028   4.415
    1STR   O25912986   6.289   9.150   4.512
    1STR   C26012987   6.216   9.262   4.465
    1STR   H26112988   6.171   9.246   4.367
    1STR   C26212989   6.112   9.282   4.572
    1STR   H26312990   6.153   0.016   4.656
    1STR   H26412991   6.078   9.188   4.610
    1STR   H26512992   6.029   0.018   4.530
    1STR   C26612993   6.300   0.069   4.454
    1STR   H26712994   6.369   0.071   4.537
    1STR   H26812995   6.356   0.069   4.360
    1STR   O26912996   6.216   0.184   4.455
    1STR   C27012997   6.273   0.302   4.510
    1STR   H27112998   6.379   0.289   4.522
    1STR   C27212999   6.258   0.414   4.408
    1STR   H27313000   6.190   0.391   4.328
    1STR   H27413001   6.353   0.426   4.357
    1STR   H27513002   6.232   0.509   4.454
    1STR   C27613003   6.223   0.328   4.653
    1STR   H27713004   6.193   0.232   4.691
    1STR   H27813005   6.304   0.352   4.716
    1STR   O27913006   6.126   0.429   4.671
    1STR   C28013007   6.147   0.528   4.771
    1STR   H28113008   6.250   0.558   4.769
    1STR   C28213009   6.053   0.640   4.724
    1STR   H28313010   5.948   0.612   4.739
    1STR   H28413011   6.065   0.660   4.618
    1STR   H28513012   6.071   0.733   4.778
    1STR   C28613013   6.120   0.495   4.918
    1STR   H28713014   6.104   0.589   4.970
    1STR   H28813015   6.026   0.448   4.933
    1STR   O28913016   6.230   0.427   4.980
    1STR   C29013017   6.204   0.307   5.053
    1STR   H29113018   6.102   0.280   5.036
    1STR   C29213019   6.297   0.204   4.992
    1STR   H29313020   6.292   0.201   4.884
    1STR   H29413021   6.282   0.104   5.031
    1STR   H29513022   6.397   0.226   5.024
    1STR   C29613023   6.230   0.312   5.206
    1STR   H29713024   6.322   0.365   5.224
    1STR   H29813025   6.152   0.370   5.256
    1STR   O29913026   6.239   0.183   5.270
    1STR   C30013027   6.370   0.143   5.314
    1STR   H30113028   6.441   0.161   5.233
    1STR   C30213029   6.410   0.228   5.435
    1STR   H30313030   6.341   0.212   5.519
    1STR   H30413031   6.411   0.335   5.415
    1STR   H30513032   6.510   0.203   5.469
    1STR   C30613033   6.385   9.313   5.353
    1STR   H30713034   6.491   9.301   5.360
    1STR   H30813035   6.342   9.291   5.451
    1STR   O30913036   6.341   9.215   5.261
    1STR    H1R13037   6.372   9.056   5.152
    1STR    H1S13038   6.579   9.048   5.118
    1STR    H1T13039   6.629   9.097   5.277
    1STR    H1U13040   6.567   9.217   5.163
    1STR    H1V13041   6.327   8.966   5.401
    1STR    H1W13042   6.499   8.981   5.410
    1STR    H1X13043   6.340   8.570   5.205
    1STR    H1Y13044   6.302   8.495   4.988
    1STR    H1Z13045   6.336   8.520   4.746
    1STR    H2013046   6.481   8.795   4.571
    1STR    H2113047   6.611   8.691   4.602
    1STR    H2213048   6.456   8.620   4.556
    1STR    H2313049   6.655   8.870   4.725
    1STR    H2713050   6.545   8.847   5.055
    1STR    H2813051   5.081   9.177   4.300
    1STR    H2913052   5.099   8.938   4.364
    1STR    H2A13053   5.217   8.774   4.519
    1STR    H2B13054   5.112   8.803   4.659
    1STR    H2C13055   5.279   8.841   4.668
    1STR   BCK113056   5.091   0.029   6.671
    1STR    O0313057   5.205   0.060   6.641
    1STR    N0413058   4.989   0.112   6.658
    1STR    C0513059   5.001   0.226   6.735
    1STR    C0613060   4.997   0.216   6.876
    1STR    C0713061   5.071   0.303   6.957
    1STR    N0813062   5.073   0.284   7.097
    1STR    C0913063   5.166   0.334   7.178
    1STR    O0A13064   5.240   0.425   7.146
    1STR    O0B13065   5.179   0.271   7.294
    1STR    C0C13066   5.306   0.271   7.358
    1STR    C0D13067   5.349   0.398   7.434
    1STR    C0E13068   5.378   0.140   7.389
    1STR    O0F13069   5.417   0.058   7.276
    1STR    C0G13070   5.326   9.320   7.180
    1STR    C0H13071   5.284   0.083   7.062
    1STR    C0I13072   5.398   9.197   7.127
    1STR    O0J13073   5.350   9.148   7.000
    1STR    C0K13074   6.489   0.214   6.878
    1STR    C0M13075   6.466   0.120   6.992
    1STR    C0N13076   6.609   0.192   6.784
    1STR    O0O13077   6.645   0.314   6.724
    1STR    C0P13078   6.688   0.403   6.808
    1STR    O0Q13079   6.770   0.375   6.893
    1STR    N0R13080   6.602   0.502   6.810
    1STR    C0S13081   6.532   0.554   6.917
    1STR    C0T13082   6.432   0.649   6.894
    1STR    C0U13083   6.390   0.731   6.999
    1STR    C0V13084   6.430   0.705   7.131
    1STR    C0W13085   6.411   0.814   7.235
    1STR    C0X13086   6.491   0.580   7.158
    1STR    N0Y13087   6.505   0.525   7.285
    1STR   BCK213088   6.480   0.396   7.312
    1STR    O1013089   6.428   0.318   7.233
    1STR    C1313090   6.546   0.510   7.050
    1STR    C1413091   5.141   0.405   6.888
    1STR    C1513092   5.123   0.432   6.754
    1STR    C1613093   5.048   0.345   6.677
    1STR    C1713094   5.009   0.391   6.542
    1STR    H1B13095   4.901   0.063   6.653
    1STR    H1C13096   4.939   0.140   6.925
    1STR    H1D13097   5.024   0.206   7.141
    1STR    H1E13098   5.362   0.274   7.273
    1STR    H1F13099   5.396   0.376   7.530
    1STR    H1G13100   5.419   0.456   7.377
    1STR    H1H13101   5.269   0.470   7.448
    1STR    H1I13102   5.330   0.093   7.471
    1STR    H1J13103   5.475   0.167   7.433
    1STR    H1K13104   5.234   9.289   7.223
    1STR    H1M13105   5.316   0.048   6.965
    1STR    H1N13106   5.312   0.185   7.069
    1STR    H1O13107   5.176   0.078   7.059
    1STR    H1P13108   5.501   9.225   7.120
    1STR    H1Q13109   5.386   9.125   7.205
    1STR   C01013110   5.400   9.024   6.953
    1STR   H01113111   5.508   9.024   6.950
    1STR   C01213112   5.338   8.914   7.037
    1STR   H01313113   5.247   8.880   6.990
    1STR   H01413114   5.302   8.947   7.133
    1STR   H01513115   5.403   8.827   7.047
    1STR   C01613116   5.346   8.992   6.814
    1STR   H01713117   5.355   8.884   6.801
    1STR   H01813118   5.241   9.013   6.819
    1STR   O01913119   5.397   9.056   6.700
    1STR   C02013120   5.369   8.977   6.585
    1STR   H02113121   5.404   8.875   6.602
    1STR   C02213122   5.222   8.978   6.559
    1STR   H02313123   5.196   9.078   6.528
    1STR   H02413124   5.160   8.957   6.644
    1STR   H02513125   5.195   8.904   6.487
    1STR   C02613126   5.444   9.020   6.461
    1STR   H02713127   5.530   9.075   6.496
    1STR   H02813128   5.479   8.930   6.412
    1STR   O02913129   5.373   9.102   6.370
    1STR   C03013130   5.460   9.147   6.268
    1STR   H03113131   5.546   9.189   6.320
    1STR   C03213132   5.496   9.030   6.173
    1STR   H03313133   5.407   8.976   6.143
    1STR   H03413134   5.565   8.959   6.219
    1STR   H03513135   5.545   9.066   6.083
    1STR   C03613136   5.403   9.264   6.189
    1STR   H03713137   5.479   9.299   6.120
    1STR   H03813138   5.321   9.227   6.128
    1STR   O03913139   5.355   0.046   6.276
    1STR   C04013140   5.433   0.166   6.282
    1STR   H04113141   5.534   0.131   6.299
    1STR   C04213142   5.428   0.243   6.149
    1STR   H04313143   5.327   0.277   6.126
    1STR   H04413144   5.464   0.185   6.064
    1STR   H04513145   5.492   0.331   6.154
    1STR   C04613146   5.390   0.258   6.401
    1STR   H04713147   5.291   0.299   6.402
    1STR   H04813148   5.392   0.203   6.495
    1STR   O04913149   5.472   0.374   6.397
    1STR   C05013150   5.427   0.487   6.470
    1STR   H05113151   5.330   0.520   6.432
    1STR   C05213152   5.416   0.456   6.619
    1STR   H05313153   5.375   0.541   6.673
    1STR   H05413154   5.514   0.438   6.662
    1STR   H05513155   5.353   0.370   6.640
    1STR   C05613156   5.533   0.593   6.439
    1STR   H05713157   5.633   0.555   6.463
    1STR   H05813158   5.533   0.612   6.332
    1STR   O05913159   5.507   0.716   6.505
    1STR   C06013160   5.579   0.735   6.626
    1STR   H06113161   5.602   0.640   6.674
    1STR   C06213162   5.710   0.807   6.596
    1STR   H06313163   5.690   0.907   6.556
    1STR   H06413164   5.769   0.752   6.523
    1STR   H06513165   5.768   0.818   6.687
    1STR   C06613166   5.492   0.819   6.719
    1STR   H06713167   5.544   0.903   6.762
    1STR   H06813168   5.411   0.861   6.660
    1STR   O06913169   5.434   0.739   6.820
    1STR   C07013170   5.516   0.707   6.931
    1STR   H07113171   5.610   0.669   6.896
    1STR   C07213172   5.549   0.823   7.027
    1STR   H07313173   5.463   0.856   7.083
    1STR   H07413174   5.593   0.908   6.976
    1STR   H07513175   5.622   0.791   7.102
    1STR   C07613176   5.438   0.598   7.004
    1STR   H07713177   5.470   0.587   7.106
    1STR   H07813178   5.336   0.628   7.020
    1STR   O07913179   5.426   0.481   6.925
    1STR   C08013180   5.489   0.361   6.968
    1STR   H08113181   5.590   0.375   6.956
    1STR   C08213182   5.509   0.333   7.114
    1STR   H08313183   5.460   0.403   7.176
    1STR   H08413184   5.606   0.349   7.155
    1STR   H08513185   5.499   0.228   7.139
    1STR   C08613186   5.466   0.243   6.874
    1STR   H08713187   5.481   0.153   6.931
    1STR   H08813188   5.367   0.242   6.830
    1STR   O08913189   5.569   0.244   6.778
    1STR   C09013190   5.607   0.122   6.716
    1STR   H09113191   5.700   0.091   6.761
    1STR   C09213192   5.511   0.004   6.736
    1STR   H09313193   5.408   0.034   6.739
    1STR   H09413194   5.531   9.271   6.829
    1STR   H09513195   5.518   9.251   6.656
    1STR   C09613196   5.631   0.161   6.571
    1STR   H09713197   5.582   0.090   6.505
    1STR   H09813198   5.585   0.257   6.560
    1STR   O09913199   5.765   0.182   6.528
    1STR   C10013200   5.769   0.233   6.394
    1STR   H10113201   5.674   0.275   6.365
    1STR   C10213202   5.860   0.356   6.392
    1STR   H10313203   5.821   0.431   6.460
    1STR   H10413204   5.866   0.400   6.293
    1STR   H10513205   5.960   0.335   6.427
    1STR   C10613206   5.799   0.124   6.288
    1STR   H10713207   5.743   0.143   6.196
    1STR   H10813208   5.903   0.134   6.261
    1STR   O10913209   5.770   9.311   6.336
    1STR   C11013210   5.796   9.196   6.254
    1STR   H11113211   5.708   9.174   6.197
    1STR   C11213212   5.899   9.223   6.144
    1STR   H11313213   5.984   9.276   6.184
    1STR   H11413214   5.857   9.286   6.066
    1STR   H11513215   5.934   9.131   6.097
    1STR   C11613216   5.833   9.068   6.339
    1STR   H11713217   5.841   8.985   6.268
    1STR   H11813218   5.933   9.080   6.376
    1STR   O11913219   5.743   9.019   6.441
    1STR   C12013220   5.775   9.044   6.580
    1STR   H12113221   5.878   9.029   6.595
    1STR   C12213222   5.770   9.190   6.609
    1STR   H12313223   5.696   9.237   6.547
    1STR   H12413224   5.866   9.236   6.592
    1STR   H12513225   5.753   9.212   6.714
    1STR   C12613226   5.701   8.967   6.693
    1STR   H12713227   5.712   9.023   6.784
    1STR   H12813228   5.597   8.967   6.672
    1STR   O12913229   5.735   8.831   6.722
    1STR   C13013230   5.667   8.776   6.837
    1STR   H13113231   5.560   8.795   6.829
    1STR   C13213232   5.691   8.626   6.832
    1STR   H13313233   5.797   8.603   6.838
    1STR   H13413234   5.652   8.583   6.739
    1STR   H13513235   5.642   8.576   6.916
    1STR   C13613236   5.717   8.832   6.973
    1STR   H13713237   5.823   8.809   6.984
    1STR   H13813238   5.711   8.941   6.974
    1STR   O13913239   5.643   8.781   7.086
    1STR   C14013240   5.668   8.854   7.206
    1STR   H14113241   5.764   8.899   7.193
    1STR   C14213242   5.578   8.971   7.222
    1STR   H14313243   5.478   8.935   7.229
    1STR   H14413244   5.594   9.041   7.142
    1STR   H14513245   5.590   9.022   7.317
    1STR   C14613246   5.660   8.778   7.339
    1STR   H14713247   5.569   8.801   7.392
    1STR   H14813248   5.655   8.670   7.328
    1STR   O14913249   5.761   8.820   7.430
    1STR   C15013250   5.896   8.819   7.387
    1STR   H15113251   5.952   8.790   7.476
    1STR   C15213252   5.920   8.710   7.278
    1STR   H15313253   5.842   8.635   7.266
    1STR   H15413254   6.003   8.644   7.298
    1STR   H15513255   5.927   8.758   7.182
    1STR   C15613256   5.946   8.964   7.350
    1STR   H15713257   6.054   8.962   7.356
    1STR   H15813258   5.933   8.991   7.245
    1STR   O15913259   5.897   9.069   7.435
    1STR   C16013260   5.806   9.166   7.378
    1STR   H16113261   5.760   9.122   7.293
    1STR   C16213262   5.704   9.198   7.488
    1STR   H16313263   5.753   9.245   7.573
    1STR   H16413264   5.655   9.108   7.524
    1STR   H16513265   5.628   9.267   7.451
    1STR   C16613266   5.867   9.296   7.323
    1STR   H16713267   5.897   0.039   7.406
    1STR   H16813268   5.958   9.273   7.270
    1STR   O16913269   5.773   0.050   7.240
    1STR   C17013270   5.812   0.063   7.102
    1STR   H17113271   5.918   0.079   7.101
    1STR   C17213272   5.770   9.252   7.030
    1STR   H17313273   5.665   9.252   7.009
    1STR   H17413274   5.795   9.164   7.088
    1STR   H17513275   5.816   9.240   6.932
    1STR   C17613276   5.763   0.185   7.020
    1STR   H17713277   5.797   0.185   6.920
    1STR   H17813278   5.659   0.169   7.014
    1STR   O17913279   5.795   0.312   7.072
    1STR   C18013280   5.817   0.437   7.002
    1STR   H18113281   5.923   0.450   7.003
    1STR   C18213282   5.773   0.455   6.854
    1STR   H18313283   5.674   0.490   6.831
    1STR   H18413284   5.779   0.362   6.800
    1STR   H18513285   5.830   0.532   6.805
    1STR   C18613286   5.768   0.552   7.092
    1STR   H18713287   5.784   0.644   7.036
    1STR   H18813288   5.663   0.544   7.110
    1STR   O18913289   5.828   0.580   7.218
    1STR   C19013290   5.820   0.495   7.331
    1STR   H19113291   5.878   0.550   7.405
    1STR   C19213292   5.685   0.488   7.398
    1STR   H19313293   5.613   0.456   7.326
    1STR   H19413294   5.654   0.586   7.435
    1STR   H19513295   5.684   0.418   7.481
    1STR   C19613296   5.894   0.363   7.313
    1STR   H19713297   5.923   0.332   7.411
    1STR   H19813298   5.829   0.281   7.284
    1STR   O19913299   5.995   0.393   7.215
    1STR   C20013300   6.114   0.322   7.187
    1STR   H20113301   6.193   0.380   7.231
    1STR   C20213302   6.122   0.182   7.240
    1STR   H20313303   6.103   0.109   7.163
    1STR   H20413304   6.054   0.164   7.322
    1STR   H20513305   6.223   0.166   7.273
    1STR   C20613306   6.148   0.323   7.038
    1STR   H20713307   6.163   0.424   7.005
    1STR   H20813308   6.243   0.278   7.019
    1STR   O20913309   6.044   0.254   6.968
    1STR   C21013310   6.063   0.229   6.831
    1STR   H21113311   6.162   0.192   6.820
    1STR   C21213312   5.986   0.102   6.808
    1STR   H21313313   5.969   0.050   6.899
    1STR   H21413314   6.043   0.030   6.756
    1STR   H21513315   5.895   0.117   6.752
    1STR   C21613316   6.034   0.349   6.735
    1STR   H21713317   6.099   0.350   6.650
    1STR   H21813318   5.938   0.341   6.685
    1STR   O21913319   6.044   0.466   6.817
    1STR   C22013320   6.091   0.594   6.782
    1STR   H22113321   6.198   0.586   6.769
    1STR   C22213322   6.028   0.643   6.650
    1STR   H22313323   6.072   0.737   6.617
    1STR   H22413324   5.922   0.659   6.662
    1STR   H22513325   6.037   0.571   6.570
    1STR   C22613326   6.059   0.689   6.904
    1STR   H22713327   6.119   0.779   6.894
    1STR   H22813328   5.955   0.720   6.898
    1STR   O22913329   6.076   0.630   7.035
    1STR   C23013330   6.095   0.714   7.151
    1STR   H23113331   6.171   0.778   7.112
    1STR   C23213332   5.987   0.820   7.181
    1STR   H23313333   5.912   0.786   7.252
    1STR   H23413334   5.936   0.852   7.090
    1STR   H23513335   6.032   0.908   7.227
    1STR   C23613336   6.163   0.647   7.278
    1STR   H23713337   6.244   0.586   7.241
    1STR   H23813338   6.202   0.725   7.341
    1STR   O23913339   6.099   0.565   7.377
    1STR   C24013340   6.184   0.517   7.484
    1STR   H24113341   6.286   0.550   7.466
    1STR   C24213342   6.130   0.583   7.611
    1STR   H24313343   6.028   0.550   7.630
    1STR   H24413344   6.129   0.692   7.600
    1STR   H24513345   6.192   0.558   7.697
    1STR   C24613346   6.192   0.362   7.496
    1STR   H24713347   6.102   0.318   7.466
    1STR   H24813348   6.260   0.325   7.423
    1STR   O24913349   6.229   0.306   7.622
    1STR   C25013350   6.156   0.189   7.666
    1STR   H25113351   6.186   0.184   7.771
    1STR   C25213352   6.004   0.210   7.670
    1STR   H25313353   5.959   0.189   7.573
    1STR   H25413354   5.979   0.312   7.698
    1STR   H25513355   5.957   0.142   7.741
    1STR   C25613356   6.193   0.048   7.610
    1STR   H25713357   6.295   0.023   7.638
    1STR   H25813358   6.133   9.296   7.664
    1STR   O25913359   6.172   0.023   7.470
    1STR   C26013360   6.235   9.225   7.416
    1STR   H26113361   6.341   9.245   7.429
    1STR   C26213362   6.212   9.103   7.506
    1STR   H26313363   6.107   9.095   7.535
    1STR   H26413364   6.271   9.107   7.597
    1STR   H26513365   6.239   9.013   7.455
    1STR   C26613366   6.230   9.202   7.260
    1STR   H26713367   6.258   9.294   7.211
    1STR   H26813368   6.318   9.144   7.239
    1STR   O26913369   6.124   9.131   7.190
    1STR   C27013370   6.098   9.160   7.049
    1STR   H27113371   6.020   9.233   7.055
    1STR   C27213372   6.208   9.237   6.976
    1STR   H27313373   6.305   9.210   7.013
    1STR   H27413374   6.195   0.024   6.988
    1STR   H27513375   6.205   9.221   6.869
    1STR   C27613376   6.033   9.047   6.962
    1STR   H27713377   6.085   8.954   6.972
    1STR   H27813378   5.936   9.024   7.003
    1STR   O27913379   6.013   9.078   6.821
    1STR   C28013380   6.093   9.003   6.728
    1STR   H28113381   6.184   8.980   6.780
    1STR   C28213382   6.029   8.869   6.685
    1STR   H28313383   5.973   8.864   6.593
    1STR   H28413384   5.967   8.829   6.764
    1STR   H28513385   6.102   8.795   6.658
    1STR   C28613386   6.136   9.084   6.604
    1STR   H28713387   6.224   9.037   6.561
    1STR   H28813388   6.061   9.082   6.528
    1STR   O28913389   6.160   9.218   6.637
    1STR   C29013390   6.161   9.316   6.533
    1STR   H29113391   6.158   9.264   6.440
    1STR   C29213392   6.037   0.076   6.498
    1STR   H29313393   5.996   0.137   6.574
    1STR   H29413394   5.964   0.011   6.454
    1STR   H29513395   6.056   0.148   6.421
    1STR   C29613396   6.283   0.086   6.560
    1STR   H29713397   6.304   0.066   6.663
    1STR   H29813398   6.373   0.056   6.508
    1STR   O29913399   6.255   0.224   6.535
    1STR   C30013400   6.354   0.315   6.580
    1STR   H30113401   6.453   0.281   6.549
    1STR   C30213402   6.328   0.454   6.521
    1STR   H30313403   6.333   0.455   6.414
    1STR   H30413404   6.401   0.527   6.557
    1STR   H30513405   6.230   0.491   6.547
    1STR   C30613406   6.349   0.329   6.731
    1STR   H30713407   6.412   0.409   6.754
    1STR   H30813408   6.263   0.375   6.774
    1STR   O30913409   6.376   0.211   6.800
    1STR    H1R13410   6.490   0.307   6.931
    1STR    H1S13411   6.533   0.151   7.071
    1STR    H1T13412   6.478   0.017   6.966
    1STR    H1U13413   6.370   0.128   7.040
    1STR    H1V13414   6.580   0.129   6.701
    1STR    H1W13415   6.693   0.146   6.834
    1STR    H1X13416   6.573   0.525   6.717
    1STR    H1Y13417   6.400   0.670   6.793
    1STR    H1Z13418   6.334   0.820   6.976
    1STR    H2013419   6.313   0.860   7.237
    1STR    H2113420   6.440   0.783   7.334
    1STR    H2213421   6.470   0.898   7.203
    1STR    H2313422   6.563   0.571   7.356
    1STR    H2713423   6.603   0.421   7.070
    1STR    H2813424   5.204   0.476   6.936
    1STR    H2913425   5.164   0.523   6.711
    1STR    H2A13426   4.935   0.323   6.499
    1STR    H2B13427   5.100   0.397   6.483
    1STR    H2C13428   4.964   0.490   6.547
    1STR   BCK113429   5.217   2.061   0.215
    1STR    O0313430   5.196   2.181   0.216
    1STR    N0413431   5.290   2.007   0.311
    1STR    C0513432   5.297   1.874   0.348
    1STR    C0613433   5.321   1.771   0.255
    1STR    C0713434   5.334   1.637   0.295
    1STR    N0813435   5.372   1.550   0.194
    1STR    C0913436   5.433   1.431   0.201
    1STR    O0A13437   5.448   1.368   0.304
    1STR    O0B13438   5.481   1.387   0.082
    1STR    C0C13439   5.530   1.473   9.298
    1STR    C0D13440   5.664   1.416   9.253
    1STR    C0E13441   5.434   1.490   9.179
    1STR    O0F13442   5.482   1.602   9.106
    1STR    C0G13443   5.388   1.703   9.077
    1STR    C0H13444   5.327   1.759   9.207
    1STR    C0I13445   5.470   1.807   9.002
    1STR    O0J13446   5.385   1.911   8.960
    1STR    C0K13447   6.343   2.819   0.125
    1STR    C0M13448   6.454   2.768   0.033
    1STR    C0N13449   6.400   2.878   0.257
    1STR    O0O13450   6.380   2.806   0.379
    1STR    C0P13451   6.407   2.676   0.388
    1STR    O0Q13452   6.455   2.609   0.298
    1STR    N0R13453   6.373   2.629   0.509
    1STR    C0S13454   6.370   2.498   0.558
    1STR    C0T13455   6.321   2.472   0.688
    1STR    C0U13456   6.312   2.339   0.738
    1STR    C0V13457   6.349   2.229   0.657
    1STR    C0W13458   6.343   2.085   0.707
    1STR    C0X13459   6.388   2.255   0.525
    1STR    N0Y13460   6.400   2.143   0.448
    1STR   BCK213461   6.375   2.120   0.321
    1STR    O1013462   6.374   2.006   0.283
    1STR    C1313463   6.402   2.387   0.479
    1STR    C1413464   5.312   1.605   0.430
    1STR    C1513465   5.284   1.707   0.524
    1STR    C1613466   5.283   1.841   0.483
    1STR    C1713467   5.264   1.955   0.578
    1STR    H1B13468   5.321   2.080   0.375
    1STR    H1C13469   5.338   1.800   0.154
    1STR    H1D13470   5.379   1.589   0.102
    1STR    H1E13471   5.548   1.572   0.016
    1STR    H1F13472   5.653   1.317   9.209
    1STR    H1G13473   5.712   1.481   9.179
    1STR    H1H13474   5.732   1.407   0.018
    1STR    H1I13475   5.332   1.504   9.213
    1STR    H1J13476   5.434   1.405   9.112
    1STR    H1K13477   5.309   1.668   9.011
    1STR    H1M13478   5.233   1.710   9.233
    1STR    H1N13479   5.308   1.866   9.201
    1STR    H1O13480   5.396   1.745   9.288
    1STR    H1P13481   5.550   1.844   9.067
    1STR    H1Q13482   5.518   1.760   8.916
    1STR   C01013483   5.455   2.018   8.898
    1STR   H01113484   5.555   2.018   8.938
    1STR   C01213485   5.455   1.992   8.748
    1STR   H01313486   5.353   1.978   8.711
    1STR   H01413487   5.512   1.903   8.723
    1STR   H01513488   5.497   2.076   8.693
    1STR   C01613489   5.398   2.156   8.935
    1STR   H01713490   5.471   2.232   8.912
    1STR   H01813491   5.311   2.181   8.875
    1STR   O01913492   5.371   2.163   9.074
    1STR   C02013493   5.296   2.276   9.115
    1STR   H02113494   5.211   2.281   9.050
    1STR   C02213495   5.252   2.246   9.259
    1STR   H02313496   5.308   2.293   0.018
    1STR   H02413497   5.264   2.141   9.279
    1STR   H02513498   5.151   2.281   9.280
    1STR   C02613499   5.368   2.409   9.107
    1STR   H02713500   5.472   2.397   9.123
    1STR   H02813501   5.366   2.452   9.008
    1STR   O02913502   5.311   2.493   9.206
    1STR   C03013503   5.390   2.604   9.239
    1STR   H03113504   5.494   2.581   9.227
    1STR   C03213505   5.364   2.706   9.128
    1STR   H03313506   5.260   2.718   9.104
    1STR   H03413507   5.410   2.677   9.035
    1STR   H03513508   5.402   2.804   9.150
    1STR   C03613509   5.385   2.641   0.070
    1STR   H03713510   5.484   2.671   0.101
    1STR   H03813511   5.327   2.728   0.088
    1STR   O03913512   5.335   2.544   0.165
    1STR   C04013513   5.375   2.572   0.300
    1STR   H04113514   5.477   2.542   0.298
    1STR   C04213515   5.367   2.722   0.339
    1STR   H04313516   5.281   2.772   0.295
    1STR   H04413517   5.455   2.777   0.306
    1STR   H04513518   5.359   2.739   0.446
    1STR   C04613519   5.315   2.480   0.409
    1STR   H04713520   5.269   2.540   0.488
    1STR   H04813521   5.232   2.423   0.365
    1STR   O04913522   5.405   2.386   0.472
    1STR   C05013523   5.526   2.428   0.538
    1STR   H05113524   5.605   2.413   0.465
    1STR   C05213525   5.539   2.576   0.578
    1STR   H05313526   5.451   2.609   0.631
    1STR   H05413527   5.555   2.641   0.494
    1STR   H05513528   5.626   2.592   0.642
    1STR   C05613529   5.559   2.342   0.663
    1STR   H05713530   5.666   2.351   0.683
    1STR   H05813531   5.511   2.385   0.750
    1STR   O05913532   5.521   2.205   0.656
    1STR   C06013533   5.585   2.121   0.751
    1STR   H06113534   5.693   2.134   0.743
    1STR   C06213535   5.538   2.150   0.894
    1STR   H06313536   5.429   2.145   0.901
    1STR   H06413537   5.570   2.249   0.926
    1STR   H06513538   5.580   2.078   0.964
    1STR   C06613539   5.554   1.976   0.713
    1STR   H06713540   5.459   1.945   0.755
    1STR   H06813541   5.545   1.974   0.605
    1STR   O06913542   5.656   1.886   0.754
    1STR   C07013543   5.650   1.754   0.699
    1STR   H07113544   5.745   1.708   0.725
    1STR   C07213545   5.538   1.673   0.766
    1STR   H07313546   5.441   1.719   0.754
    1STR   H07413547   5.557   1.663   0.873
    1STR   H07513548   5.533   1.573   0.723
    1STR   C07613549   5.641   1.753   0.545
    1STR   H07713550   5.540   1.776   0.512
    1STR   H07813551   5.705   1.831   0.503
    1STR   O07913552   5.671   1.623   0.495
    1STR   C08013553   5.771   1.618   0.395
    1STR   H08113554   5.829   1.709   0.388
    1STR   C08213555   5.864   1.508   0.444
    1STR   H08313556   5.810   1.414   0.455
    1STR   H08413557   5.907   1.535   0.540
    1STR   H08513558   5.944   1.493   0.372
    1STR   C08613559   5.716   1.580   0.256
    1STR   H08713560   5.795   1.570   0.182
    1STR   H08813561   5.671   1.482   0.263
    1STR   O08913562   5.622   1.671   0.202
    1STR   C09013563   5.674   1.794   0.159
    1STR   H09113564   5.773   1.803   0.200
    1STR   C09213565   5.677   1.817   0.007
    1STR   H09313566   5.580   1.844   9.289
    1STR   H09413567   5.715   1.732   9.272
    1STR   H09513568   5.739   1.904   9.304
    1STR   C09613569   5.593   1.899   0.228
    1STR   H09713570   5.520   1.948   0.164
    1STR   H09813571   5.544   1.855   0.313
    1STR   O09913572   5.683   1.986   0.286
    1STR   C10013573   5.618   2.094   0.343
    1STR   H10113574   5.527   2.069   0.398
    1STR   C10213575   5.721   2.137   0.442
    1STR   H10313576   5.732   2.064   0.522
    1STR   H10413577   5.705   2.233   0.486
    1STR   H10513578   5.816   2.140   0.393
    1STR   C10613579   5.587   2.194   0.232
    1STR   H10713580   5.479   2.197   0.217
    1STR   H10813581   5.613   2.290   0.274
    1STR   O10913582   5.656   2.165   0.107
    1STR   C11013583   5.590   2.220   9.313
    1STR   H11113584   5.493   2.170   9.310
    1STR   C11213585   5.574   2.370   0.023
    1STR   H11313586   5.604   2.410   0.118
    1STR   H11413587   5.472   2.396   0.026
    1STR   H11513588   5.626   2.431   9.270
    1STR   C11613589   5.651   2.204   9.169
    1STR   H11713590   5.580   2.232   9.095
    1STR   H11813591   5.721   2.283   9.146
    1STR   O11913592   5.696   2.078   9.122
    1STR   C12013593   5.797   2.087   9.020
    1STR   H12113594   5.877   2.144   9.064
    1STR   C12213595   5.845   1.943   9.005
    1STR   H12313596   5.766   1.879   8.965
    1STR   H12413597   5.874   1.901   9.102
    1STR   H12513598   5.931   1.937   8.938
    1STR   C12613599   5.767   2.148   8.879
    1STR   H12713600   5.863   2.158   8.829
    1STR   H12813601   5.713   2.075   8.818
    1STR   O12913602   5.701   2.274   8.871
    1STR   C13013603   5.677   2.317   8.736
    1STR   H13113604   5.654   2.231   8.673
    1STR   C13213605   5.554   2.409   8.728
    1STR   H13313606   5.460   2.362   8.753
    1STR   H13413607   5.541   2.451   8.629
    1STR   H13513608   5.568   2.493   8.797
    1STR   C13613609   5.796   2.391   8.674
    1STR   H13713610   5.891   2.341   8.695
    1STR   H13813611   5.782   2.393   8.566
    1STR   O13913612   5.797   2.526   8.719
    1STR   C14013613   5.907   2.610   8.685
    1STR   H14113614   5.983   2.597   8.762
    1STR   C14213615   5.966   2.583   8.546
    1STR   H14313616   5.891   2.596   8.468
    1STR   H14413617   6.003   2.481   8.537
    1STR   H14513618   6.049   2.650   8.525
    1STR   C14613619   5.855   2.755   8.690
    1STR   H14713620   5.938   2.825   8.685
    1STR   H14813621   5.790   2.772   8.604
    1STR   O14913622   5.777   2.776   8.806
    1STR   C15013623   5.751   2.911   8.841
    1STR   H15113624   5.846   2.963   8.856
    1STR   C15213625   5.672   2.982   8.731
    1STR   H15313626   5.577   2.931   8.712
    1STR   H15413627   5.727   2.988   8.637
    1STR   H15513628   5.651   3.085   8.760
    1STR   C15613629   5.676   2.909   8.976
    1STR   H15713630   5.662   3.010   9.014
    1STR   H15813631   5.577   2.865   8.963
    1STR   O15913632   5.752   2.838   9.073
    1STR   C16013633   5.686   2.730   9.137
    1STR   H16113634   5.596   2.772   9.180
    1STR   C16213635   5.667   2.618   9.033
    1STR   H16313636   5.758   2.594   8.981
    1STR   H16413637   5.598   2.645   8.953
    1STR   H16513638   5.634   2.524   9.075
    1STR   C16613639   5.766   2.682   9.258
    1STR   H16713640   5.816   2.591   9.231
    1STR   H16813641   5.838   2.758   9.275
    1STR   O16913642   5.706   2.668   0.065
    1STR   C17013643   5.803   2.635   0.165
    1STR   H17113644   5.890   2.701   0.163
    1STR   C17213645   5.732   2.644   0.299
    1STR   H17313646   5.665   2.562   0.307
    1STR   H17413647   5.679   2.738   0.313
    1STR   H17513648   5.799   2.626   0.383
    1STR   C17613649   5.848   2.490   0.150
    1STR   H17713650   5.821   2.437   0.240
    1STR   H17813651   5.795   2.446   0.069
    1STR   O17913652   5.982   2.461   0.121
    1STR   C18013653   5.999   2.323   0.089
    1STR   H18113654   6.105   2.308   0.090
    1STR   C18213655   5.948   2.223   0.192
    1STR   H18313656   5.847   2.242   0.221
    1STR   H18413657   6.013   2.218   0.278
    1STR   H18513658   5.940   2.122   0.153
    1STR   C18613659   5.940   2.282   9.273
    1STR   H18713660   5.998   2.205   9.225
    1STR   H18813661   5.849   2.231   9.298
    1STR   O18913662   5.911   2.390   9.185
    1STR   C19013663   6.023   2.430   9.111
    1STR   H19113664   6.101   2.414   9.182
    1STR   C19213665   6.033   2.350   8.980
    1STR   H19313666   5.944   2.369   8.920
    1STR   H19413667   6.042   2.243   8.994
    1STR   H19513668   6.120   2.381   8.921
    1STR   C19613669   6.033   2.578   9.078
    1STR   H19713670   6.128   2.590   9.029
    1STR   H19813671   5.958   2.602   9.004
    1STR   O19913672   6.026   2.668   9.188
    1STR   C20013673   6.071   2.801   9.161
    1STR   H20113674   6.174   2.791   9.192
    1STR   C20213675   6.058   2.839   9.011
    1STR   H20313676   5.962   2.812   8.972
    1STR   H20413677   6.132   2.789   8.952
    1STR   H20513678   6.070   2.944   8.991
    1STR   C20613679   6.009   2.920   9.242
    1STR   H20713680   6.079   3.002   9.238
    1STR   H20813681   5.922   2.952   9.187
    1STR   O20913682   5.972   2.908   0.060
    1STR   C21013683   5.938   3.032   0.125
    1STR   H21113684   6.031   3.083   0.149
    1STR   C21213685   5.852   3.123   0.034
    1STR   H21313686   5.763   3.070   9.319
    1STR   H21413687   5.907   3.160   9.268
    1STR   H21513688   5.818   3.212   0.088
    1STR   C21613689   5.858   3.004   0.255
    1STR   H21713690   5.789   3.086   0.272
    1STR   H21813691   5.794   2.918   0.240
    1STR   O21913692   5.936   3.001   0.375
    1STR   C22013693   5.963   2.870   0.424
    1STR   H22113694   5.881   2.807   0.397
    1STR   C22213695   6.090   2.823   0.356
    1STR   H22313696   6.075   2.800   0.250
    1STR   H22413697   6.131   2.733   0.401
    1STR   H22513698   6.163   2.902   0.362
    1STR   C22613699   5.970   2.864   0.577
    1STR   H22713700   6.070   2.888   0.613
    1STR   H22813701   5.904   2.941   0.616
    1STR   O22913702   5.919   2.738   0.625
    1STR   C23013703   6.014   2.645   0.678
    1STR   H23113704   6.098   2.640   0.610
    1STR   C23213705   6.064   2.697   0.813
    1STR   H23313706   5.983   2.743   0.870
    1STR   H23413707   6.142   2.770   0.800
    1STR   H23513708   6.106   2.616   0.874
    1STR   C23613709   5.953   2.505   0.698
    1STR   H23713710   6.025   2.436   0.741
    1STR   H23813711   5.874   2.514   0.772
    1STR   O23913712   5.890   2.443   0.586
    1STR   C24013713   5.971   2.373   0.490
    1STR   H24113714   5.896   2.340   0.420
    1STR   C24213715   6.060   2.466   0.409
    1STR   H24313716   6.143   2.503   0.466
    1STR   H24413717   6.006   2.551   0.369
    1STR   H24513718   6.107   2.415   0.325
    1STR   C24613719   6.048   2.247   0.537
    1STR   H24713720   6.124   2.223   0.462
    1STR   H24813721   6.100   2.267   0.629
    1STR   O24913722   5.968   2.133   0.560
    1STR   C25013723   6.030   2.006   0.540
    1STR   H25113724   6.137   2.016   0.549
    1STR   C25213725   5.980   1.921   0.657
    1STR   H25313726   5.871   1.918   0.654
    1STR   H25413727   6.008   1.965   0.753
    1STR   H25513728   6.016   1.819   0.653
    1STR   C25613729   6.006   1.935   0.404
    1STR   H25713730   6.030   1.830   0.416
    1STR   H25813731   5.902   1.939   0.374
    1STR   O25913732   6.089   1.990   0.303
    1STR   C26013733   6.121   1.912   0.186
    1STR   H26113734   6.206   1.848   0.206
    1STR   C26213735   6.010   1.826   0.132
    1STR   H26313736   5.927   1.890   0.104
    1STR   H26413737   5.978   1.752   0.205
    1STR   H26513738   6.041   1.773   0.042
    1STR   C26613739   6.157   2.012   0.076
    1STR   H26713740   6.072   2.025   0.010
    1STR   H26813741   6.168   2.108   0.122
    1STR   O26913742   6.277   1.985   0.005
    1STR   C27013743   6.285   2.041   9.195
    1STR   H27113744   6.383   2.013   9.161
    1STR   C27213745   6.181   1.964   9.109
    1STR   H27313746   6.199   1.970   9.003
    1STR   H27413747   6.081   2.004   9.123
    1STR   H27513748   6.179   1.859   9.137
    1STR   C27613749   6.272   2.196   9.182
    1STR   H27713750   6.228   2.212   9.084
    1STR   H27813751   6.202   2.230   9.254
    1STR   O27913752   6.384   2.286   9.189
    1STR   C28013753   6.348   2.423   9.163
    1STR   H28113754   6.269   2.419   9.091
    1STR   C28213755   6.313   2.489   9.297
    1STR   H28313756   6.403   2.508   0.035
    1STR   H28413757   6.252   2.428   0.040
    1STR   H28513758   6.256   2.580   9.283
    1STR   C28613759   6.435   2.517   9.079
    1STR   H28713760   6.522   2.552   9.133
    1STR   H28813761   6.467   2.468   8.987
    1STR   O28913762   6.353   2.631   9.049
    1STR   C29013763   6.401   2.717   8.947
    1STR   H29113764   6.505   2.691   8.937
    1STR   C29213765   6.335   2.676   8.816
    1STR   H29313766   6.227   2.671   8.819
    1STR   H29413767   6.368   2.576   8.793
    1STR   H29513768   6.364   2.744   8.736
    1STR   C29613769   6.386   2.870   8.977
    1STR   H29713770   6.477   2.924   8.954
    1STR   H29813771   6.310   2.914   8.914
    1STR   O29913772   6.351   2.891   9.112
    1STR   C30013773   6.352   3.024   9.163
    1STR   H30113774   6.453   3.058   9.146
    1STR   C30213775   6.265   3.125   9.087
    1STR   H30313776   6.161   3.100   9.077
    1STR   H30413777   6.304   3.145   8.987
    1STR   H30513778   6.265   3.219   9.141
    1STR   C30613779   6.326   3.028   9.318
    1STR   H30713780   6.419   3.044   0.050
    1STR   H30813781   6.266   3.115   0.024
    1STR   O30913782   6.263   2.915   0.056
    1STR    H1R13783   6.277   2.736   0.148
    1STR    H1S13784   6.517   2.694   0.082
    1STR    H1T13785   6.519   2.845   9.315
    1STR    H1U13786   6.412   2.722   9.264
    1STR    H1V13787   6.360   2.978   0.272
    1STR    H1W13788   6.505   2.891   0.241
    1STR    H1X13789   6.337   2.703   0.567
    1STR    H1Y13790   6.292   2.553   0.751
    1STR    H1Z13791   6.277   2.320   0.838
    1STR    H2013792   6.442   2.050   0.734
    1STR    H2113793   6.273   2.073   0.788
    1STR    H2213794   6.315   2.011   0.633
    1STR    H2313795   6.417   2.056   0.495
    1STR    H2713796   6.437   2.403   0.379
    1STR    H2813797   5.319   1.502   0.463
    1STR    H2913798   5.266   1.682   0.627
    1STR    H2A13799   5.341   2.031   0.570
    1STR    H2B13800   5.253   1.924   0.681
    1STR    H2C13801   5.175   2.004   0.540
    1STR   BCK113802   5.144   2.745   2.455
    1STR    O0313803   5.197   2.855   2.445
    1STR    N0413804   5.043   2.701   2.379
    1STR    C0513805   5.005   2.745   2.252
    1STR    C0613806   5.094   2.808   2.167
    1STR    C0713807   5.067   2.865   2.042
    1STR    N0813808   5.169   2.938   1.979
    1STR    C0913809   5.184   3.055   1.917
    1STR    O0A13810   5.101   3.143   1.896
    1STR    O0B13811   5.307   3.066   1.870
    1STR    C0C13812   5.327   3.037   1.733
    1STR    C0D13813   5.418   3.147   1.677
    1STR    C0E13814   5.390   2.898   1.729
    1STR    O0F13815   5.309   2.788   1.689
    1STR    C0G13816   5.254   2.700   1.787
    1STR    C0H13817   5.189   2.586   1.716
    1STR    C0I13818   5.346   2.649   1.895
    1STR    O0J13819   5.323   2.729   2.008
    1STR    C0K13820   6.493   1.819   2.914
    1STR    C0M13821   6.568   1.696   2.962
    1STR    C0N13822   6.539   1.860   2.772
    1STR    O0O13823   6.486   1.984   2.735
    1STR    C0P13824   6.528   2.049   2.626
    1STR    O0Q13825   6.616   2.014   2.549
    1STR    N0R13826   6.454   2.157   2.612
    1STR    C0S13827   6.466   2.274   2.545
    1STR    C0T13828   6.440   2.287   2.410
    1STR    C0U13829   6.437   2.414   2.350
    1STR    C0V13830   6.460   2.529   2.429
    1STR    C0W13831   6.454   2.658   2.355
    1STR    C0X13832   6.482   2.518   2.569
    1STR    N0Y13833   6.496   2.626   2.656
    1STR   BCK213834   6.519   2.632   2.789
    1STR    O1013835   6.490   2.734   2.850
    1STR    C1313836   6.472   2.389   2.621
    1STR    C1413837   4.935   2.851   1.998
    1STR    C1513838   4.842   2.785   2.080
    1STR    C1613839   4.880   2.722   2.199
    1STR    C1713840   4.794   2.617   2.258
    1STR    H1B13841   4.972   2.651   2.432
    1STR    H1C13842   5.187   2.817   2.210
    1STR    H1D13843   5.255   2.884   1.986
    1STR    H1E13844   5.234   3.040   1.676
    1STR    H1F13845   5.512   3.152   1.731
    1STR    H1G13846   5.438   3.129   1.571
    1STR    H1H13847   5.369   3.244   1.686
    1STR    H1I13848   5.432   2.879   1.826
    1STR    H1J13849   5.472   2.899   1.657
    1STR    H1K13850   5.174   2.746   1.841
    1STR    H1M13851   5.170   2.502   1.783
    1STR    H1N13852   5.250   2.553   1.633
    1STR    H1O13853   5.091   2.617   1.682
    1STR    H1P13854   5.324   2.546   1.918
    1STR    H1Q13855   5.449   2.654   1.865
    1STR   C01013856   5.397   2.698   2.122
    1STR   H01113857   5.493   2.662   2.089
    1STR   C01213858   5.405   2.833   2.197
    1STR   H01313859   5.356   2.913   2.144
    1STR   H01413860   5.498   2.879   2.220
    1STR   H01513861   5.364   2.822   2.295
    1STR   C01613862   5.343   2.580   2.205
    1STR   H01713863   5.409   2.554   2.287
    1STR   H01813864   5.252   2.612   2.253
    1STR   O01913865   5.328   2.465   2.123
    1STR   C02013866   5.248   2.361   2.176
    1STR   H02113867   5.293   2.324   2.267
    1STR   C02213868   5.111   2.418   2.204
    1STR   H02313869   5.107   2.460   2.304
    1STR   H02413870   5.031   2.345   2.194
    1STR   H02513871   5.097   2.503   2.139
    1STR   C02613872   5.237   2.250   2.070
    1STR   H02713873   5.151   2.184   2.083
    1STR   H02813874   5.221   2.297   1.973
    1STR   O02913875   5.356   2.175   2.064
    1STR   C03013876   5.371   2.062   2.149
    1STR   H03113877   5.470   2.079   2.188
    1STR   C03213878   5.285   2.057   2.274
    1STR   H03313879   5.180   2.076   2.261
    1STR   H03413880   5.321   2.133   2.341
    1STR   H03513881   5.295   1.964   2.330
    1STR   C03613882   5.378   1.931   2.070
    1STR   H03713883   5.480   1.896   2.060
    1STR   H03813884   5.334   1.850   2.129
    1STR   O03913885   5.313   1.943   1.944
    1STR   C04013886   5.400   1.968   1.833
    1STR   H04113887   5.503   1.941   1.853
    1STR   C04213888   5.357   1.862   1.734
    1STR   H04313889   5.261   1.890   1.691
    1STR   H04413890   5.349   1.765   1.782
    1STR   H04513891   5.431   1.852   1.655
    1STR   C04613892   5.391   2.113   1.777
    1STR   H04713893   5.388   2.111   1.668
    1STR   H04813894   5.298   2.158   1.813
    1STR   O04913895   5.504   2.193   1.809
    1STR   C05013896   5.490   2.335   1.812
    1STR   H05113897   5.385   2.364   1.819
    1STR   C05213898   5.561   2.384   1.938
    1STR   H05313899   5.531   2.331   2.028
    1STR   H05413900   5.541   2.488   1.959
    1STR   H05513901   5.668   2.378   1.926
    1STR   C05613902   5.557   2.400   1.689
    1STR   H05713903   5.655   2.356   1.672
    1STR   H05813904   5.497   2.378   1.600
    1STR   O05913905   5.565   2.541   1.705
    1STR   C06013906   5.694   2.597   1.734
    1STR   H06113907   5.757   2.526   1.788
    1STR   C06213908   5.752   2.628   1.596
    1STR   H06313909   5.684   2.691   1.539
    1STR   H06413910   5.769   2.537   1.539
    1STR   H06513911   5.848   2.681   1.604
    1STR   C06613912   5.684   2.725   1.820
    1STR   H06713913   5.764   2.794   1.798
    1STR   H06813914   5.600   2.780   1.783
    1STR   O06913915   5.668   2.700   1.961
    1STR   C07013916   5.693   2.807   2.056
    1STR   H07113917   5.795   2.832   2.038
    1STR   C07213918   5.624   2.940   2.017
    1STR   H07313919   5.517   2.933   2.007
    1STR   H07413920   5.656   2.977   1.919
    1STR   H07513921   5.645   3.018   2.089
    1STR   C07613922   5.699   2.767   2.212
    1STR   H07713923   5.794   2.721   2.229
    1STR   H07813924   5.704   2.859   2.268
    1STR   O07913925   5.609   2.676   2.281
    1STR   C08013926   5.610   2.676   2.426
    1STR   H08113927   5.715   2.676   2.452
    1STR   C08213928   5.544   2.804   2.484
    1STR   H08313929   5.436   2.798   2.483
    1STR   H08413930   5.571   2.896   2.433
    1STR   H08513931   5.567   2.817   2.590
    1STR   C08613932   5.548   2.556   2.506
    1STR   H08713933   5.597   2.561   2.602
    1STR   H08813934   5.445   2.581   2.526
    1STR   O08913935   5.538   2.417   2.464
    1STR   C09013936   5.554   2.316   2.567
    1STR   H09113937   5.661   2.303   2.578
    1STR   C09213938   5.492   2.359   2.702
    1STR   H09313939   5.416   2.435   2.694
    1STR   H09413940   5.565   2.407   2.766
    1STR   H09513941   5.452   2.273   2.756
    1STR   C09613942   5.503   2.174   2.525
    1STR   H09713943   5.398   2.169   2.545
    1STR   H09813944   5.517   2.166   2.417
    1STR   O09913945   5.564   2.060   2.589
    1STR   C10013946   5.514   1.927   2.557
    1STR   H10113947   5.407   1.933   2.569
    1STR   C10213948   5.530   1.877   2.413
    1STR   H10313949   5.519   1.957   2.342
    1STR   H10413950   5.456   1.801   2.389
    1STR   H10513951   5.627   1.832   2.391
    1STR   C10613952   5.577   1.822   2.653
    1STR   H10713953   5.680   1.836   2.665
    1STR   H10813954   5.554   1.838   2.756
    1STR   O10913955   5.549   1.686   2.620
    1STR   C11013956   5.654   1.601   2.583
    1STR   H11113957   5.713   1.667   2.524
    1STR   C11213958   5.730   1.555   2.708
    1STR   H11313959   5.753   1.639   2.773
    1STR   H11413960   5.822   1.505   2.681
    1STR   H11513961   5.672   1.485   2.767
    1STR   C11613962   5.612   1.482   2.491
    1STR   H11713963   5.700   1.424   2.466
    1STR   H11813964   5.548   1.412   2.544
    1STR   O11913965   5.546   1.531   2.374
    1STR   C12013966   5.578   1.470   2.248
    1STR   H12113967   5.664   1.403   2.257
    1STR   C12213968   5.462   1.389   2.191
    1STR   H12313969   5.378   1.453   2.165
    1STR   H12413970   5.430   1.311   2.260
    1STR   H12513971   5.493   1.339   2.098
    1STR   C12613972   5.612   1.584   2.152
    1STR   H12713973   5.549   1.586   2.063
    1STR   H12813974   5.594   1.676   2.206
    1STR   O12913975   5.747   1.566   2.116
    1STR   C13013976   5.805   1.657   2.024
    1STR   H13113977   5.911   1.648   2.044
    1STR   C13213978   5.783   1.607   1.882
    1STR   H13313979   5.679   1.617   1.852
    1STR   H13413980   5.814   1.503   1.872
    1STR   H13513981   5.843   1.666   1.812
    1STR   C13613982   5.772   1.806   2.046
    1STR   H13713983   5.688   1.823   2.111
    1STR   H13813984   5.853   1.856   2.098
    1STR   O13913985   5.744   1.868   1.921
    1STR   C14013986   5.768   2.007   1.920
    1STR   H14113987   5.868   2.028   1.954
    1STR   C14213988   5.764   2.055   1.775
    1STR   H14313989   5.670   2.028   1.726
    1STR   H14413990   5.845   2.010   1.718
    1STR   H14513991   5.775   2.163   1.771
    1STR   C14613992   5.677   2.084   2.014
    1STR   H14713993   5.696   2.188   1.994
    1STR   H14813994   5.573   2.076   1.991
    1STR   O14913995   5.696   2.050   2.150
    1STR   C15013996   5.729   2.160   2.233
    1STR   H15113997   5.648   2.232   2.244
    1STR   C15213998   5.775   2.104   2.365
    1STR   H15313999   5.704   2.041   2.412
    1STR   H15414000   5.794   2.185   2.434
    1STR   H15514001   5.865   2.044   2.355
    1STR   C15614002   5.854   2.222   2.179
    1STR   H15714003   5.913   2.249   2.264
    1STR   H15814004   5.909   2.143   2.129
    1STR   O15914005   5.840   2.331   2.093
    1STR   C16014006   5.819   2.457   2.153
    1STR   H16114007   5.720   2.488   2.118
    1STR   C16214008   5.811   2.469   2.307
    1STR   H16314009   5.853   2.396   2.373
    1STR   H16414010   5.707   2.462   2.329
    1STR   H16514011   5.853   2.562   2.344
    1STR   C16614012   5.919   2.553   2.091
    1STR   H16714013   5.862   2.636   2.059
    1STR   H16814014   5.993   2.593   2.160
    1STR   O16914015   5.974   2.511   1.969
    1STR   C17014016   6.070   2.599   1.913
    1STR   H17114017   6.166   2.582   1.961
    1STR   C17214018   6.069   2.544   1.770
    1STR   H17314019   5.968   2.529   1.733
    1STR   H17414020   6.117   2.446   1.768
    1STR   H17514021   6.119   2.608   1.698
    1STR   C17614022   6.035   2.751   1.923
    1STR   H17714023   6.097   2.807   1.856
    1STR   H17814024   5.937   2.763   1.882
    1STR   O17914025   6.035   2.805   2.057
    1STR   C18014026   6.018   2.947   2.081
    1STR   H18114027   6.119   2.984   2.085
    1STR   C18214028   5.963   3.030   1.963
    1STR   H18314029   5.863   3.002   1.932
    1STR   H18414030   6.026   3.021   1.875
    1STR   H18514031   5.961   3.135   1.989
    1STR   C18614032   5.952   2.980   2.221
    1STR   H18714033   6.009   3.060   2.269
    1STR   H18814034   5.853   3.022   2.207
    1STR   O18914035   5.938   2.865   2.306
    1STR   C19014036   5.952   2.858   2.449
    1STR   H19114037   5.960   2.750   2.456
    1STR   C19214038   6.083   2.921   2.484
    1STR   H19314039   6.085   3.029   2.470
    1STR   H19414040   6.150   2.872   2.416
    1STR   H19514041   6.116   2.898   2.584
    1STR   C19614042   5.846   2.892   2.558
    1STR   H19714043   5.887   2.964   2.628
    1STR   H19814044   5.765   2.947   2.511
    1STR   O19914045   5.792   2.783   2.640
    1STR   C20014046   5.873   2.682   2.703
    1STR   H20114047   5.920   2.626   2.623
    1STR   C20214048   5.972   2.746   2.801
    1STR   H20314049   5.919   2.794   2.884
    1STR   H20414050   6.034   2.822   2.757
    1STR   H20514051   6.039   2.672   2.843
    1STR   C20614052   5.792   2.570   2.777
    1STR   H20714053   5.833   2.556   2.877
    1STR   H20814054   5.690   2.604   2.794
    1STR   O20914055   5.794   2.445   2.704
    1STR   C21014056   5.836   2.326   2.774
    1STR   H21114057   5.918   2.361   2.834
    1STR   C21214058   5.741   2.269   2.879
    1STR   H21314059   5.661   2.212   2.832
    1STR   H21414060   5.700   2.347   2.942
    1STR   H21514061   5.793   2.198   2.944
    1STR   C21614062   5.895   2.214   2.683
    1STR   H21714063   5.940   2.256   2.593
    1STR   H21814064   5.976   2.181   2.744
    1STR   O21914065   5.822   2.094   2.649
    1STR   C22014066   5.898   1.972   2.663
    1STR   H22114067   6.000   1.998   2.663
    1STR   C22214068   5.864   1.930   2.809
    1STR   H22314069   5.758   1.941   2.832
    1STR   H22414070   5.915   1.992   2.881
    1STR   H22514071   5.892   1.827   2.830
    1STR   C22614072   5.886   1.856   2.555
    1STR   H22714073   5.890   1.762   2.610
    1STR   H22814074   5.792   1.866   2.506
    1STR   O22914075   5.970   1.840   2.439
    1STR   C23014076   6.004   1.706   2.396
    1STR   H23114077   6.055   1.655   2.476
    1STR   C23214078   5.888   1.614   2.368
    1STR   H23314079   5.801   1.670   2.334
    1STR   H23414080   5.870   1.556   2.457
    1STR   H23514081   5.909   1.537   2.293
    1STR   C23614082   6.097   1.701   2.275
    1STR   H23714083   6.200   1.712   2.305
    1STR   H23814084   6.097   1.600   2.232
    1STR   O23914085   6.060   1.795   2.177
    1STR   C24014086   6.154   1.810   2.072
    1STR   H24114087   6.239   1.861   2.115
    1STR   C24214088   6.195   1.676   2.009
    1STR   H24314089   6.110   1.614   1.983
    1STR   H24414090   6.258   1.618   2.077
    1STR   H24514091   6.251   1.691   1.918
    1STR   C24614092   6.100   1.904   1.965
    1STR   H24714093   6.167   1.899   1.880
    1STR   H24814094   6.006   1.866   1.928
    1STR   O24914095   6.087   2.037   2.015
    1STR   C25014096   6.164   2.133   1.945
    1STR   H25114097   6.259   2.085   1.947
    1STR   C25214098   6.117   2.152   1.800
    1STR   H25314099   6.019   2.201   1.798
    1STR   H25414100   6.109   2.059   1.744
    1STR   H25514101   6.187   2.216   1.746
    1STR   C25614102   6.184   2.269   2.016
    1STR   H25714103   6.242   2.337   1.954
    1STR   H25814104   6.088   2.318   2.025
    1STR   O25914105   6.253   2.254   2.142
    1STR   C26014106   6.164   2.251   2.251
    1STR   H26114107   6.085   2.203   2.200
    1STR   C26214108   6.169   2.141   2.353
    1STR   H26314109   6.226   2.166   2.441
    1STR   H26414110   6.205   2.051   2.302
    1STR   H26514111   6.070   2.119   2.391
    1STR   C26614112   6.127   2.390   2.305
    1STR   H26714113   6.201   2.466   2.283
    1STR   H26814114   6.048   2.418   2.241
    1STR   O26914115   6.074   2.397   2.439
    1STR   C27014116   6.162   2.462   2.529
    1STR   H27114117   6.253   2.418   2.503
    1STR   C27214118   6.169   2.613   2.513
    1STR   H27314119   6.108   2.665   2.583
    1STR   H27414120   6.148   2.645   2.411
    1STR   H27514121   6.266   2.650   2.543
    1STR   C27614122   6.154   2.422   2.674
    1STR   H27714123   6.233   2.473   2.730
    1STR   H27814124   6.059   2.457   2.714
    1STR   O27914125   6.169   2.282   2.679
    1STR   C28014126   6.218   2.226   2.800
    1STR   H28114127   6.322   2.257   2.813
    1STR   C28214128   6.140   2.273   2.919
    1STR   H28314129   6.056   2.211   2.948
    1STR   H28414130   6.109   2.376   2.915
    1STR   H28514131   6.215   2.268   2.993
    1STR   C28614132   6.215   2.073   2.791
    1STR   H28714133   6.290   2.029   2.856
    1STR   H28814134   6.121   2.035   2.827
    1STR   O28914135   6.237   2.047   2.654
    1STR   C29014136   6.221   1.923   2.591
    1STR   H29114137   6.134   1.941   2.534
    1STR   C29214138   6.322   1.904   2.479
    1STR   H29314139   6.403   1.836   2.502
    1STR   H29414140   6.366   1.996   2.443
    1STR   H29514141   6.268   1.870   2.393
    1STR   C29614142   6.211   1.797   2.676
    1STR   H29714143   6.178   1.715   2.617
    1STR   H29814144   6.313   1.774   2.700
    1STR   O29914145   6.129   1.806   2.791
    1STR   C30014146   6.144   1.702   2.888
    1STR   H30114147   6.094   1.739   2.978
    1STR   C30214148   6.071   1.575   2.843
    1STR   H30314149   6.098   1.543   2.743
    1STR   H30414150   5.964   1.591   2.844
    1STR   H30514151   6.092   1.491   2.910
    1STR   C30614152   6.291   1.679   2.922
    1STR   H30714153   6.302   1.621   3.013
    1STR   H30814154   6.335   1.620   2.842
    1STR   O30914155   6.352   1.808   2.936
    1STR    H1R14156   6.521   1.904   2.976
    1STR    H1S14157   6.665   1.695   2.916
    1STR    H1T14158   6.524   1.605   2.928
    1STR    H1U14159   6.577   1.692   3.071
    1STR    H1V14160   6.519   1.786   2.695
    1STR    H1W14161   6.646   1.872   2.776
    1STR    H1X14162   6.358   2.136   2.646
    1STR    H1Y14163   6.413   2.199   2.355
    1STR    H1Z14164   6.419   2.423   2.244
    1STR    H2014165   6.513   2.733   2.405
    1STR    H2114166   6.491   2.643   2.255
    1STR    H2214167   6.351   2.688   2.340
    1STR    H2314168   6.484   2.720   2.617
    1STR    H2714169   6.462   2.376   2.726
    1STR    H2814170   4.900   2.900   1.908
    1STR    H2914171   4.738   2.785   2.058
    1STR    H2A14172   4.766   2.641   2.360
    1STR    H2B14173   4.852   2.527   2.251
    1STR    H2C14174   4.708   2.595   2.197
    1STR   BCK114175   5.182   1.918   4.761
    1STR    O0314176   5.214   1.829   4.839
    1STR    N0414177   5.232   2.041   4.763
    1STR    C0514178   5.299   2.099   4.870
    1STR    C0614179   5.368   2.020   4.967
    1STR    C0714180   5.387   2.068   5.097
    1STR    N0814181   5.452   2.002   5.201
    1STR    C0914182   5.493   1.878   5.218
    1STR    O0A14183   5.562   1.848   5.316
    1STR    O0B14184   5.452   1.795   5.124
    1STR    C0C14185   5.501   1.663   5.115
    1STR    C0D14186   5.425   1.577   5.217
    1STR    C0E14187   5.478   1.623   4.969
    1STR    O0F14188   5.547   1.711   4.881
    1STR    C0G14189   5.496   1.718   4.749
    1STR    C0H14190   5.532   1.859   4.698
    1STR    C0I14191   5.548   1.603   4.660
    1STR    O0J14192   5.455   1.541   4.569
    1STR    C0K14193   6.389   2.754   3.867
    1STR    C0M14194   6.409   2.771   3.715
    1STR    C0N14195   6.345   2.889   3.924
    1STR    O0O14196   6.412   2.932   4.043
    1STR    C0P14197   6.460   3.057   4.046
    1STR    O0Q14198   6.485   3.126   3.948
    1STR    N0R14199   6.472   3.112   4.167
    1STR    C0S14200   6.452   3.063   4.295
    1STR    C0T14201   6.370   3.135   4.382
    1STR    C0U14202   6.376   3.111   4.519
    1STR    C0V14203   6.462   3.014   4.572
    1STR    C0W14204   6.500   3.029   4.718
    1STR    C0X14205   6.524   2.923   4.483
    1STR    N0Y14206   6.607   2.819   4.519
    1STR   BCK214207   6.579   2.705   4.582
    1STR    O1014208   6.629   2.601   4.542
    1STR    C1314209   6.519   2.949   4.344
    1STR    C1414210   5.338   2.195   5.125
    1STR    C1514211   5.292   2.282   5.026
    1STR    C1614212   5.277   2.236   4.896
    1STR    C1714213   5.218   2.334   4.798
    1STR    H1B14214   5.189   2.107   4.699
    1STR    H1C14215   5.397   1.919   4.944
    1STR    H1D14216   5.475   2.058   5.282
    1STR    H1E14217   5.608   1.663   5.137
    1STR    H1F14218   5.317   1.577   5.197
    1STR    H1G14219   5.460   1.474   5.218
    1STR    H1H14220   5.437   1.615   5.318
    1STR    H1I14221   5.371   1.628   4.949
    1STR    H1J14222   5.513   1.521   4.951
    1STR    H1K14223   5.389   1.708   4.755
    1STR    H1M14224   5.510   1.935   4.771
    1STR    H1N14225   5.479   1.891   4.610
    1STR    H1O14226   5.637   1.870   4.676
    1STR    H1P14227   5.635   1.634   4.606
    1STR    H1Q14228   5.583   1.523   4.724
    1STR   C01014229   5.388   1.617   4.467
    1STR   H01114230   5.342   1.544   4.401
    1STR   C01214231   5.276   1.698   4.530
    1STR   H01314232   5.309   1.794   4.566
    1STR   H01414233   5.233   1.644   4.612
    1STR   H01514234   5.199   1.725   4.460
    1STR   C01614235   5.476   1.706   4.379
    1STR   H01714236   5.536   1.768   4.444
    1STR   H01814237   5.545   1.647   4.318
    1STR   O01914238   5.391   1.786   4.298
    1STR   C02014239   5.453   1.906   4.253
    1STR   H02114240   5.548   1.919   4.300
    1STR   C02214241   5.479   1.891   4.103
    1STR   H02314242   5.385   1.876   4.050
    1STR   H02414243   5.542   1.804   4.084
    1STR   H02514244   5.531   1.978   4.064
    1STR   C02614245   5.374   2.029   4.298
    1STR   H02714246   5.304   2.062   4.221
    1STR   H02814247   5.314   1.995   4.382
    1STR   O02914248   5.457   2.138   4.344
    1STR   C03014249   5.383   2.250   4.392
    1STR   H03114250   5.317   2.267   4.310
    1STR   C03214251   5.306   2.215   4.517
    1STR   H03314252   5.372   2.182   4.596
    1STR   H03414253   5.229   2.140   4.502
    1STR   H03514254   5.252   2.304   4.546
    1STR   C03614255   5.457   2.387   4.405
    1STR   H03714256   5.559   2.372   4.439
    1STR   H03814257   5.456   2.428   4.305
    1STR   O03914258   5.390   2.485   4.487
    1STR   C04014259   5.436   2.622   4.487
    1STR   H04114260   5.543   2.626   4.502
    1STR   C04214261   5.407   2.698   4.358
    1STR   H04314262   5.307   2.720   4.339
    1STR   H04414263   5.436   2.656   4.262
    1STR   H04514264   5.441   2.800   4.369
    1STR   C04614265   5.359   2.698   4.600
    1STR   H04714266   5.319   2.787   4.559
    1STR   H04814267   5.279   2.632   4.632
    1STR   O04914268   5.428   2.757   4.710
    1STR   C05014269   5.358   2.799   4.827
    1STR   H05114270   5.285   2.873   4.797
    1STR   C05214271   5.295   2.674   4.884
    1STR   H05314272   5.363   2.590   4.883
    1STR   H05414273   5.209   2.647   4.824
    1STR   H05514274   5.264   2.692   4.987
    1STR   C05614275   5.445   2.866   4.937
    1STR   H05714276   5.524   2.796   4.965
    1STR   H05814277   5.493   2.955   4.900
    1STR   O05914278   5.371   2.906   5.053
    1STR   C06014279   5.445   2.978   5.152
    1STR   H06114280   5.552   2.976   5.129
    1STR   C06214281   5.406   3.125   5.159
    1STR   H06314282   5.302   3.137   5.188
    1STR   H06414283   5.420   3.170   5.063
    1STR   H06514284   5.468   3.179   5.230
    1STR   C06614285   5.420   2.917   5.291
    1STR   H06714286   5.491   2.956   5.365
    1STR   H06814287   5.321   2.945   5.326
    1STR   O06914288   5.424   2.777   5.288
    1STR   C07014289   5.548   2.722   5.250
    1STR   H07114290   5.606   2.783   5.180
    1STR   C07214291   5.635   2.698   5.374
    1STR   H07314292   5.739   2.685   5.345
    1STR   H07414293   5.605   2.608   5.425
    1STR   H07514294   5.629   2.781   5.445
    1STR   C07614295   5.509   2.597   5.175
    1STR   H07714296   5.430   2.546   5.228
    1STR   H07814297   5.469   2.618   5.077
    1STR   O07914298   5.627   2.523   5.162
    1STR   C08014299   5.609   2.384   5.150
    1STR   H08114300   5.707   2.347   5.156
    1STR   C08214301   5.556   2.326   5.282
    1STR   H08314302   5.457   2.359   5.309
    1STR   H08414303   5.617   2.362   5.363
    1STR   H08514304   5.561   2.218   5.284
    1STR   C08614305   5.590   2.331   5.007
    1STR   H08714306   5.684   2.283   4.979
    1STR   H08814307   5.529   2.246   4.991
    1STR   O08914308   5.558   2.438   4.918
    1STR   C09014309   5.632   2.430   4.797
    1STR   H09114310   5.728   2.390   4.815
    1STR   C09214311   5.571   2.325   4.706
    1STR   H09314312   5.477   2.360   4.668
    1STR   H09414313   5.556   2.229   4.756
    1STR   H09514314   5.638   2.308   4.623
    1STR   C09614315   5.649   2.568   4.731
    1STR   H09714316   5.706   2.560   4.640
    1STR   H09814317   5.548   2.583   4.705
    1STR   O09914318   5.699   2.676   4.811
    1STR   C10014319   5.705   2.813   4.762
    1STR   H10114320   5.611   2.860   4.746
    1STR   C10214321   5.773   2.900   4.868
    1STR   H10314322   5.729   2.887   4.967
    1STR   H10414323   5.764   3.006   4.843
    1STR   H10514324   5.879   2.878   4.876
    1STR   C10614325   5.774   2.831   4.629
    1STR   H10714326   5.820   2.929   4.630
    1STR   H10814327   5.853   2.759   4.634
    1STR   O10914328   5.692   2.809   4.514
    1STR   C11014329   5.668   2.913   4.417
    1STR   H11114330   5.568   2.947   4.440
    1STR   C11214331   5.752   3.041   4.427
    1STR   H11314332   5.857   3.020   4.419
    1STR   H11414333   5.734   3.094   4.521
    1STR   H11514334   5.726   3.111   4.348
    1STR   C11614335   5.670   2.858   4.270
    1STR   H11714336   5.582   2.810   4.232
    1STR   H11814337   5.676   2.944   4.203
    1STR   O11914338   5.776   2.775   4.232
    1STR   C12014339   5.793   2.640   4.278
    1STR   H12114340   5.857   2.613   4.201
    1STR   C12214341   5.882   2.630   4.399
    1STR   H12314342   5.901   2.727   4.440
    1STR   H12414343   5.980   2.595   4.371
    1STR   H12514344   5.844   2.568   4.479
    1STR   C12614345   5.695   2.524   4.259
    1STR   H12714346   5.721   2.451   4.334
    1STR   H12814347   5.602   2.563   4.287
    1STR   O12914348   5.690   2.460   4.131
    1STR   C13014349   5.645   2.323   4.122
    1STR   H13114350   5.548   2.308   4.168
    1STR   C13214351   5.626   2.299   3.973
    1STR   H13314352   5.715   2.326   3.916
    1STR   H13414353   5.543   2.360   3.935
    1STR   H13514354   5.603   2.195   3.952
    1STR   C13614355   5.745   2.221   4.182
    1STR   H13714356   5.824   2.203   4.109
    1STR   H13814357   5.791   2.266   4.269
    1STR   O13914358   5.695   2.093   4.221
    1STR   C14014359   5.772   2.030   4.325
    1STR   H14114360   5.867   2.077   4.332
    1STR   C14214361   5.709   2.054   4.463
    1STR   H14314362   5.682   2.158   4.474
    1STR   H14414363   5.778   2.027   4.543
    1STR   H14514364   5.618   1.998   4.479
    1STR   C14614365   5.808   1.885   4.290
    1STR   H14714366   5.724   1.819   4.273
    1STR   H14814367   5.862   1.888   4.196
    1STR   O14914368   5.897   1.833   4.389
    1STR   C15014369   5.839   1.754   4.490
    1STR   H15114370   5.738   1.789   4.505
    1STR   C15214371   5.841   1.609   4.440
    1STR   H15314372   5.943   1.579   4.414
    1STR   H15414373   5.779   1.596   4.352
    1STR   H15514374   5.807   1.539   4.516
    1STR   C15614375   5.912   1.770   4.626
    1STR   H15714376   5.996   1.703   4.632
    1STR   H15814377   5.949   1.871   4.637
    1STR   O15914378   5.820   1.738   4.730
    1STR   C16014379   5.867   1.707   4.862
    1STR   H16114380   5.778   1.708   4.924
    1STR   C16214381   5.915   1.561   4.865
    1STR   H16314382   5.993   1.540   4.793
    1STR   H16414383   5.831   1.495   4.842
    1STR   H16514384   5.951   1.534   4.965
    1STR   C16614385   5.962   1.811   4.927
    1STR   H16714386   6.049   1.759   4.963
    1STR   H16814387   5.997   1.888   4.858
    1STR   O16914388   5.907   1.869   5.046
    1STR   C17014389   5.840   1.994   5.029
    1STR   H17114390   5.899   2.062   4.970
    1STR   C17214391   5.711   1.977   4.951
    1STR   H17314392   5.655   2.069   4.943
    1STR   H17414393   5.647   1.902   4.996
    1STR   H17514394   5.735   1.947   4.850
    1STR   C17614395   5.820   2.060   5.166
    1STR   H17714396   5.722   2.107   5.167
    1STR   H17814397   5.820   1.987   5.247
    1STR   O17914398   5.922   2.157   5.186
    1STR   C18014399   5.896   2.256   5.285
    1STR   H18114400   5.794   2.248   5.318
    1STR   C18214401   5.975   2.226   5.412
    1STR   H18314402   6.081   2.235   5.397
    1STR   H18414403   5.955   2.124   5.447
    1STR   H18514404   5.946   2.295   5.492
    1STR   C18614405   5.921   2.399   5.229
    1STR   H18714406   5.840   2.467   5.255
    1STR   H18814407   6.001   2.440   5.288
    1STR   O18914408   5.952   2.401   5.087
    1STR   C19014409   5.896   2.494   4.992
    1STR   H19114410   5.796   2.462   4.983
    1STR   C19214411   5.876   2.639   5.042
    1STR   H19314412   5.776   2.673   5.018
    1STR   H19414413   5.947   2.707   4.997
    1STR   H19514414   5.876   2.652   5.149
    1STR   C19614415   5.974   2.482   4.853
    1STR   H19714416   6.036   2.570   4.843
    1STR   H19814417   6.044   2.402   4.868
    1STR   O19914418   5.911   2.457   4.722
    1STR   C20014419   5.950   2.335   4.655
    1STR   H20114420   6.055   2.344   4.657
    1STR   C20214421   5.908   2.211   4.737
    1STR   H20314422   5.800   2.195   4.739
    1STR   H20414423   5.941   2.220   4.840
    1STR   H20514424   5.952   2.120   4.698
    1STR   C20614425   5.920   2.310   4.502
    1STR   H20714426   5.928   2.204   4.487
    1STR   H20814427   5.817   2.338   4.480
    1STR   O20914428   6.013   2.371   4.411
    1STR   C21014429   6.059   2.320   4.283
    1STR   H21114430   6.163   2.347   4.291
    1STR   C21214431   6.078   2.169   4.258
    1STR   H21314432   6.009   2.128   4.185
    1STR   H21414433   6.074   2.108   4.348
    1STR   H21514434   6.176   2.150   4.216
    1STR   C21614435   6.018   2.397   4.155
    1STR   H21714436   6.063   2.351   4.067
    1STR   H21814437   5.912   2.394   4.138
    1STR   O21914438   6.051   2.534   4.157
    1STR   C22014439   6.033   2.609   4.037
    1STR   H22114440   6.113   2.572   3.977
    1STR   C22214441   5.909   2.582   3.948
    1STR   H22314442   5.817   2.620   3.992
    1STR   H22414443   5.896   2.477   3.926
    1STR   H22514444   5.920   2.633   3.853
    1STR   C22614445   6.046   2.760   4.067
    1STR   H22714446   6.050   2.814   3.973
    1STR   H22814447   5.957   2.796   4.113
    1STR   O22914448   6.154   2.793   4.153
    1STR   C23014449   6.154   2.923   4.214
    1STR   H23114450   6.258   2.941   4.228
    1STR   C23214451   6.097   3.038   4.129
    1STR   H23314452   5.990   3.028   4.113
    1STR   H23414453   6.147   3.050   4.033
    1STR   H23514454   6.113   3.133   4.181
    1STR   C23614455   6.094   2.926   4.355
    1STR   H23714456   6.068   3.028   4.382
    1STR   H23814457   6.003   2.869   4.350
    1STR   O23914458   6.181   2.882   4.459
    1STR   C24014459   6.116   2.859   4.584
    1STR   H24114460   6.015   2.897   4.580
    1STR   C24214461   6.120   2.709   4.606
    1STR   H24314462   6.124   2.659   4.511
    1STR   H24414463   6.034   2.672   4.660
    1STR   H24514464   6.207   2.679   4.664
    1STR   C24614465   6.187   2.929   4.699
    1STR   H24714466   6.287   2.889   4.695
    1STR   H24814467   6.189   3.036   4.683
    1STR   O24914468   6.132   2.905   4.827
    1STR   C25014469   6.227   2.922   4.932
    1STR   H25114470   6.327   2.892   4.901
    1STR   C25214471   6.231   3.065   4.984
    1STR   H25314472   6.133   3.098   5.018
    1STR   H25414473   6.264   3.132   4.906
    1STR   H25514474   6.301   3.073   5.067
    1STR   C25614475   6.193   2.827   5.043
    1STR   H25714476   6.266   2.839   5.123
    1STR   H25814477   6.094   2.846   5.085
    1STR   O25914478   6.198   2.699   4.983
    1STR   C26014479   6.252   2.602   5.068
    1STR   H26114480   6.354   2.634   5.087
    1STR   C26214481   6.172   2.596   5.195
    1STR   H26314482   6.069   2.605   5.174
    1STR   H26414483   6.194   2.673   5.268
    1STR   H26514484   6.187   2.499   5.238
    1STR   C26614485   6.264   2.470   4.994
    1STR   H26714486   6.236   2.494   4.893
    1STR   H26814487   6.368   2.443   4.997
    1STR   O26914488   6.193   2.354   5.037
    1STR   C27014489   6.245   2.231   4.987
    1STR   H27114490   6.346   2.230   5.023
    1STR   C27214491   6.185   2.112   5.061
    1STR   H27314492   6.162   2.137   5.165
    1STR   H27414493   6.251   2.026   5.063
    1STR   H27514494   6.095   2.079   5.014
    1STR   C27614495   6.247   2.209   4.834
    1STR   H27714496   6.335   2.151   4.810
    1STR   H27814497   6.163   2.148   4.804
    1STR   O27914498   6.253   2.326   4.752
    1STR   C28014499   6.299   2.307   4.619
    1STR   H28114500   6.404   2.294   4.634
    1STR   C28214501   6.235   2.184   4.553
    1STR   H28314502   6.130   2.171   4.571
    1STR   H28414503   6.278   2.092   4.587
    1STR   H28514504   6.247   2.186   4.447
    1STR   C28614505   6.288   2.436   4.533
    1STR   H28714506   6.184   2.461   4.522
    1STR   H28814507   6.331   2.518   4.588
    1STR   O28914508   6.355   2.430   4.407
    1STR   C29014509   6.322   2.538   4.316
    1STR   H29114510   6.215   2.554   4.313
    1STR   C29214511   6.380   2.668   4.361
    1STR   H29314512   6.352   2.694   4.462
    1STR   H29414513   6.346   2.749   4.298
    1STR   H29514514   6.488   2.664   4.350
    1STR   C29614515   6.379   2.516   4.175
    1STR   H29714516   6.384   2.612   4.124
    1STR   H29814517   6.482   2.479   4.182
    1STR   O29914518   6.299   2.432   4.095
    1STR   C30014519   6.346   2.411   3.964
    1STR   H30114520   6.454   2.399   3.973
    1STR   C30214521   6.282   2.275   3.927
    1STR   H30314522   6.191   2.286   3.869
    1STR   H30414523   6.253   2.219   4.016
    1STR   H30514524   6.351   2.209   3.874
    1STR   C30614525   6.318   2.521   3.857
    1STR   H30714526   6.396   2.519   3.783
    1STR   H30814527   6.227   2.496   3.802
    1STR   O30914528   6.296   2.655   3.901
    1STR    H1R14529   6.477   2.721   3.919
    1STR    H1S14530   6.475   2.855   3.695
    1STR    H1T14531   6.314   2.792   3.665
    1STR    H1U14532   6.455   2.687   3.667
    1STR    H1V14533   6.240   2.883   3.946
    1STR    H1W14534   6.349   2.966   3.847
    1STR    H1X14535   6.498   3.209   4.159
    1STR    H1Y14536   6.311   3.218   4.346
    1STR    H1Z14537   6.323   3.176   4.586
    1STR    H2014538   6.415   3.056   4.778
    1STR    H2114539   6.545   2.942   4.763
    1STR    H2214540   6.571   3.110   4.726
    1STR    H2314541   6.686   2.814   4.457
    1STR    H2714542   6.571   2.886   4.274
    1STR    H2814543   5.339   2.230   5.226
    1STR    H2914544   5.269   2.384   5.051
    1STR    H2A14545   5.294   2.395   4.750
    1STR    H2B14546   5.153   2.403   4.850
    1STR    H2C14547   5.157   2.283   4.725
    1STR   BCK114548   5.199   1.805   7.268
    1STR    O0314549   5.246   1.849   7.372
    1STR    N0414550   5.202   1.675   7.243
    1STR    C0514551   5.312   1.599   7.204
    1STR    C0614552   5.355   1.610   7.071
    1STR    C0714553   5.459   1.533   7.016
    1STR    N0814554   5.503   1.548   6.883
    1STR    C0914555   5.438   1.612   6.784
    1STR    O0A14556   5.326   1.653   6.794
    1STR    O0B14557   5.511   1.635   6.676
    1STR    C0C14558   5.514   1.769   6.623
    1STR    C0D14559   5.624   1.761   6.516
    1STR    C0E14560   5.389   1.841   6.561
    1STR    O0F14561   5.269   1.872   6.633
    1STR    C0G14562   5.252   1.974   6.734
    1STR    C0H14563   5.313   1.931   6.864
    1STR    C0I14564   5.274   2.120   6.702
    1STR    O0J14565   5.230   2.200   6.816
    1STR    C0K14566   6.611   2.290   7.484
    1STR    C0M14567   6.685   2.405   7.418
    1STR    C0N14568   6.680   2.218   7.599
    1STR    O0O14569   6.606   2.104   7.637
    1STR    C0P14570   6.604   2.003   7.552
    1STR    O0Q14571   6.680   1.994   7.456
    1STR    N0R14572   6.507   1.916   7.579
    1STR    C0S14573   6.469   1.816   7.491
    1STR    C0T14574   6.436   1.689   7.540
    1STR    C0U14575   6.417   1.584   7.449
    1STR    C0V14576   6.422   1.607   7.310
    1STR    C0W14577   6.400   1.488   7.219
    1STR    C0X14578   6.446   1.738   7.259
    1STR    N0Y14579   6.446   1.757   7.120
    1STR   BCK214580   6.487   1.856   7.037
    1STR    O1014581   6.506   1.834   6.919
    1STR    C1314582   6.468   1.840   7.353
    1STR    C1414583   5.522   1.440   7.102
    1STR    C1514584   5.479   1.427   7.237
    1STR    C1614585   5.374   1.506   7.289
    1STR    C1714586   5.330   1.489   7.433
    1STR    H1B14587   5.110   1.648   7.205
    1STR    H1C14588   5.304   1.685   7.014
    1STR    H1D14589   5.592   1.511   6.855
    1STR    H1E14590   5.549   1.827   6.707
    1STR    H1F14591   5.593   1.694   6.436
    1STR    H1G14592   5.645   1.858   6.473
    1STR    H1H14593   5.717   1.721   6.558
    1STR    H1I14594   5.354   1.778   6.479
    1STR    H1J14595   5.420   1.934   6.514
    1STR    H1K14596   5.147   1.978   6.758
    1STR    H1M14597   5.414   1.893   6.854
    1STR    H1N14598   5.255   1.853   6.908
    1STR    H1O14599   5.312   2.013   6.935
    1STR    H1P14600   5.376   2.138   6.673
    1STR    H1Q14601   5.213   2.148   6.616
    1STR   C01014602   5.327   2.297   6.853
    1STR   H01114603   5.417   2.239   6.862
    1STR   C01214604   5.344   2.389   6.733
    1STR   H01314605   5.352   2.491   6.767
    1STR   H01414606   5.260   2.383   6.666
    1STR   H01514607   5.430   2.367   6.671
    1STR   C01614608   5.315   2.384   6.984
    1STR   H01714609   5.410   2.425   6.990
    1STR   H01814610   5.266   2.478   6.969
    1STR   O01914611   5.319   2.333   7.117
    1STR   C02014612   5.282   2.425   7.221
    1STR   H02114613   5.186   2.445   7.182
    1STR   C02214614   5.241   2.351   7.345
    1STR   H02314615   5.300   2.263   7.354
    1STR   H02414616   5.138   2.322   7.347
    1STR   H02514617   5.256   2.411   7.434
    1STR   C02614618   5.368   2.551   7.269
    1STR   H02714619   5.309   2.605   7.342
    1STR   H02814620   5.450   2.514   7.330
    1STR   O02914621   5.413   2.652   7.177
    1STR   C03014622   5.511   2.747   7.229
    1STR   H03114623   5.576   2.698   7.301
    1STR   C03214624   5.594   2.801   7.113
    1STR   H03314625   5.532   2.813   7.024
    1STR   H03414626   5.677   2.734   7.090
    1STR   H03514627   5.639   2.899   7.133
    1STR   C03614628   5.463   2.869   7.306
    1STR   H03714629   5.550   2.920   7.347
    1STR   H03814630   5.418   2.944   7.244
    1STR   O03914631   5.373   2.827   7.403
    1STR   C04014632   5.416   2.847   7.535
    1STR   H04114633   5.523   2.869   7.547
    1STR   C04214634   5.332   2.965   7.584
    1STR   H04314635   5.227   2.946   7.564
    1STR   H04414636   5.358   3.056   7.531
    1STR   H04514637   5.345   2.983   7.691
    1STR   C04614638   5.388   2.716   7.606
    1STR   H04714639   5.383   2.741   7.711
    1STR   H04814640   5.292   2.679   7.571
    1STR   O04914641   5.486   2.617   7.576
    1STR   C05014642   5.520   2.520   7.676
    1STR   H05114643   5.625   2.510   7.656
    1STR   C05214644   5.539   2.576   7.819
    1STR   H05314645   5.449   2.607   7.869
    1STR   H05414646   5.606   2.662   7.816
    1STR   H05514647   5.585   2.501   7.883
    1STR   C05614648   5.459   2.374   7.669
    1STR   H05714649   5.524   2.312   7.729
    1STR   H05814650   5.369   2.367   7.727
    1STR   O05914651   5.441   2.307   7.540
    1STR   C06014652   5.464   2.161   7.535
    1STR   H06114653   5.561   2.142   7.575
    1STR   C06214654   5.380   2.099   7.638
    1STR   H06314655   5.286   2.138   7.603
    1STR   H06414656   5.404   2.129   7.740
    1STR   H06514657   5.378   1.990   7.633
    1STR   C06614658   5.434   2.072   7.407
    1STR   H06714659   5.469   1.970   7.422
    1STR   H06814660   5.326   2.062   7.400
    1STR   O06914661   5.468   2.112   7.275
    1STR   C07014662   5.522   2.020   7.177
    1STR   H07114663   5.623   1.996   7.195
    1STR   C07214664   5.466   1.883   7.152
    1STR   H07314665   5.373   1.889   7.101
    1STR   H07414666   5.458   1.823   7.242
    1STR   H07514667   5.530   1.827   7.083
    1STR   C07614668   5.530   2.106   7.057
    1STR   H07714669   5.437   2.159   7.048
    1STR   H07814670   5.605   2.175   7.092
    1STR   O07914671   5.559   2.050   6.930
    1STR   C08014672   5.655   2.117   6.851
    1STR   H08114673   5.745   2.091   6.904
    1STR   C08214674   5.657   2.056   6.711
    1STR   H08314675   5.556   2.037   6.676
    1STR   H08414676   5.714   1.963   6.710
    1STR   H08514677   5.701   2.122   6.637
    1STR   C08614678   5.659   2.270   6.840
    1STR   H08714679   5.762   2.295   6.830
    1STR   H08814680   5.610   2.305   6.749
    1STR   O08914681   5.610   2.335   6.954
    1STR   C09014682   5.653   2.460   7.002
    1STR   H09114683   5.754   2.486   6.990
    1STR   C09214684   5.581   2.568   6.921
    1STR   H09314685   5.488   2.606   6.961
    1STR   H09414686   5.559   2.525   6.825
    1STR   H09514687   5.646   2.652   6.905
    1STR   C09614688   5.632   2.443   7.154
    1STR   H09714689   5.641   2.537   7.204
    1STR   H09814690   5.534   2.402   7.167
    1STR   O09914691   5.720   2.355   7.222
    1STR   C10014692   5.680   2.312   7.352
    1STR   H10114693   5.572   2.309   7.354
    1STR   C10214694   5.735   2.174   7.372
    1STR   H10314695   5.838   2.168   7.401
    1STR   H10414696   5.720   2.132   7.280
    1STR   H10514697   5.686   2.104   7.435
    1STR   C10614698   5.733   2.389   7.470
    1STR   H10714699   5.836   2.410   7.454
    1STR   H10814700   5.685   2.486   7.465
    1STR   O10914701   5.707   2.314   7.591
    1STR   C11014702   5.804   2.256   7.679
    1STR   H11114703   5.899   2.289   7.647
    1STR   C11214704   5.786   2.314   7.820
    1STR   H11314705   5.867   2.283   7.885
    1STR   H11414706   5.693   2.280   7.865
    1STR   H11514707   5.786   2.423   7.817
    1STR   C11614708   5.809   2.101   7.686
    1STR   H11714709   5.830   2.058   7.589
    1STR   H11814710   5.894   2.073   7.748
    1STR   O11914711   5.691   2.047   7.743
    1STR   C12014712   5.691   1.905   7.757
    1STR   H12114713   5.784   1.872   7.802
    1STR   C12214714   5.577   1.876   7.856
    1STR   H12314715   5.480   1.903   7.815
    1STR   H12414716   5.590   1.933   7.948
    1STR   H12514717   5.574   1.770   7.882
    1STR   C12614718   5.667   1.833   7.623
    1STR   H12714719   5.617   1.738   7.643
    1STR   H12814720   5.601   1.891   7.561
    1STR   O12914721   5.790   1.806   7.556
    1STR   C13014722   5.782   1.735   7.432
    1STR   H13114723   5.882   1.704   7.409
    1STR   C13214724   5.701   1.605   7.440
    1STR   H13314725   5.594   1.626   7.445
    1STR   H13414726   5.731   1.546   7.526
    1STR   H13514727   5.718   1.545   7.351
    1STR   C13614728   5.744   1.821   7.312
    1STR   H13714729   5.728   1.757   7.225
    1STR   H13814730   5.647   1.858   7.341
    1STR   O13914731   5.829   1.933   7.286
    1STR   C14014732   5.890   1.965   7.158
    1STR   H14114733   5.986   1.926   7.184
    1STR   C14214734   5.828   1.891   7.037
    1STR   H14314735   5.724   1.913   7.023
    1STR   H14414736   5.834   1.783   7.044
    1STR   H14514737   5.880   1.920   6.946
    1STR   C14614738   5.908   2.120   7.134
    1STR   H14714739   5.809   2.152   7.110
    1STR   H14814740   5.943   2.162   7.226
    1STR   O14914741   5.990   2.189   7.037
    1STR   C15014742   5.951   2.329   7.018
    1STR   H15114743   5.846   2.316   7.011
    1STR   C15214744   5.978   2.428   7.129
    1STR   H15314745   6.080   2.464   7.137
    1STR   H15414746   5.943   2.394   7.223
    1STR   H15514747   5.922   2.518   7.111
    1STR   C15614748   5.994   2.402   6.890
    1STR   H15714749   6.082   2.460   6.909
    1STR   H15814750   6.020   2.331   6.816
    1STR   O15914751   5.916   2.513   6.849
    1STR   C16014752   5.844   2.513   6.727
    1STR   H16114753   5.743   2.478   6.739
    1STR   C16214754   5.825   2.662   6.696
    1STR   H16314755   5.898   2.724   6.745
    1STR   H16414756   5.730   2.702   6.728
    1STR   H16514757   5.831   2.681   6.591
    1STR   C16614758   5.904   2.425   6.617
    1STR   H16714759   5.860   2.450   6.521
    1STR   H16814760   6.010   2.447   6.613
    1STR   O16914761   5.872   2.288   6.638
    1STR   C17014762   5.974   2.189   6.623
    1STR   H17114763   6.071   2.235   6.609
    1STR   C17214764   5.975   2.098   6.745
    1STR   H17314765   5.945   1.996   6.727
    1STR   H17414766   5.913   2.140   6.820
    1STR   H17514767   6.069   2.097   6.797
    1STR   C17614768   5.953   2.110   6.498
    1STR   H17714769   6.041   2.049   6.479
    1STR   H17814770   5.865   2.046   6.503
    1STR   O17914771   5.937   2.211   6.404
    1STR   C18014772   5.984   2.184   6.276
    1STR   H18114773   6.091   2.178   6.291
    1STR   C18214774   5.923   2.050   6.225
    1STR   H18314775   5.816   2.047   6.240
    1STR   H18414776   5.965   1.964   6.277
    1STR   H18514777   5.939   2.033   6.119
    1STR   C18614778   5.951   2.305   6.187
    1STR   H18714779   6.025   2.316   6.108
    1STR   H18814780   5.856   2.287   6.136
    1STR   O18914781   5.935   2.431   6.253
    1STR   C19014782   6.043   2.484   6.331
    1STR   H19114783   6.061   2.420   6.416
    1STR   C19214784   6.173   2.488   6.255
    1STR   H19314785   6.154   2.524   6.155
    1STR   H19414786   6.215   2.388   6.253
    1STR   H19514787   6.245   2.553   6.304
    1STR   C19614788   5.998   2.625   6.372
    1STR   H19714789   6.016   2.699   6.294
    1STR   H19814790   5.890   2.621   6.377
    1STR   O19914791   6.035   2.665   6.505
    1STR   C20014792   6.149   2.743   6.536
    1STR   H20114793   6.231   2.674   6.554
    1STR   C20214794   6.177   2.844   6.422
    1STR   H20314795   6.088   2.903   6.398
    1STR   H20414796   6.209   2.795   6.330
    1STR   H20514797   6.255   2.914   6.448
    1STR   C20614798   6.125   2.826   6.665
    1STR   H20714799   6.205   2.899   6.673
    1STR   H20814800   6.034   2.883   6.644
    1STR   O20914801   6.112   2.760   6.792
    1STR   C21014802   6.090   2.844   6.909
    1STR   H21114803   6.188   2.857   6.952
    1STR   C21214804   6.037   2.986   6.872
    1STR   H21314805   5.942   2.980   6.818
    1STR   H21414806   6.108   3.043   6.812
    1STR   H21514807   6.016   3.047   6.959
    1STR   C21614808   5.998   2.781   7.020
    1STR   H21714809   5.932   2.859   7.057
    1STR   H21814810   5.930   2.708   6.978
    1STR   O21914811   6.067   2.723   7.133
    1STR   C22014812   6.012   2.742   7.267
    1STR   H22114813   6.034   2.843   7.295
    1STR   C22214814   5.861   2.736   7.285
    1STR   H22314815   5.820   2.643   7.247
    1STR   H22414816   5.815   2.821   7.239
    1STR   H22514817   5.835   2.741   7.391
    1STR   C22614818   6.081   2.660   7.377
    1STR   H22714819   6.185   2.652   7.350
    1STR   H22814820   6.073   2.716   7.470
    1STR   O22914821   6.025   2.532   7.398
    1STR   C23014822   6.070   2.452   7.509
    1STR   H23114823   6.172   2.465   7.537
    1STR   C23214824   6.004   2.503   7.639
    1STR   H23314825   5.896   2.511   7.633
    1STR   H23414826   6.039   2.603   7.663
    1STR   H23514827   6.031   2.440   7.723
    1STR   C23614828   6.067   2.305   7.455
    1STR   H23714829   5.990   2.296   7.382
    1STR   H23814830   6.155   2.297   7.394
    1STR   O23914831   6.050   2.186   7.532
    1STR   C24014832   6.151   2.089   7.516
    1STR   H24114833   6.196   2.091   7.417
    1STR   C24214834   6.244   2.136   7.626
    1STR   H24314835   6.193   2.125   7.721
    1STR   H24414836   6.268   2.242   7.615
    1STR   H24514837   6.337   2.083   7.625
    1STR   C24614838   6.111   1.941   7.535
    1STR   H24714839   6.200   1.892   7.572
    1STR   H24814840   6.034   1.929   7.611
    1STR   O24914841   6.068   1.876   7.414
    1STR   C25014842   6.127   1.748   7.386
    1STR   H25114843   6.230   1.772   7.373
    1STR   C25214844   6.114   1.649   7.506
    1STR   H25314845   6.014   1.639   7.546
    1STR   H25414846   6.175   1.679   7.590
    1STR   H25514847   6.148   1.550   7.477
    1STR   C25614848   6.082   1.683   7.250
    1STR   H25714849   6.070   1.576   7.267
    1STR   H25814850   5.982   1.714   7.221
    1STR   O25914851   6.173   1.690   7.139
    1STR   C26014852   6.146   1.789   7.040
    1STR   H26114853   6.041   1.788   7.025
    1STR   C26214854   6.193   1.929   7.082
    1STR   H26314855   6.208   1.941   7.189
    1STR   H26414856   6.123   2.004   7.046
    1STR   H26514857   6.277   1.966   7.027
    1STR   C26614858   6.195   1.755   6.899
    1STR   H26714859   6.298   1.722   6.901
    1STR   H26814860   6.137   1.673   6.856
    1STR   O26914861   6.175   1.875   6.826
    1STR   C27014862   6.260   1.896   6.716
    1STR   H27114863   6.353   1.841   6.727
    1STR   C27214864   6.180   1.839   6.598
    1STR   H27314865   6.204   1.888   6.504
    1STR   H27414866   6.073   1.853   6.613
    1STR   H27514867   6.197   1.732   6.587
    1STR   C27614868   6.300   2.045   6.702
    1STR   H27714869   6.401   2.049   6.666
    1STR   H27814870   6.237   2.092   6.628
    1STR   O27914871   6.289   2.120   6.824
    1STR   C28014872   6.329   2.258   6.826
    1STR   H28114873   6.436   2.258   6.829
    1STR   C28214874   6.286   2.347   6.707
    1STR   H28314875   6.182   2.370   6.706
    1STR   H28414876   6.313   2.306   6.610
    1STR   H28514877   6.329   2.446   6.714
    1STR   C28614878   6.282   2.322   6.956
    1STR   H28714879   6.272   2.430   6.945
    1STR   H28814880   6.190   2.274   6.982
    1STR   O28914881   6.367   2.309   7.064
    1STR   C29014882   6.313   2.331   7.193
    1STR   H29114883   6.206   2.318   7.194
    1STR   C29214884   6.367   2.214   7.270
    1STR   H29314885   6.321   2.122   7.235
    1STR   H29414886   6.350   2.222   7.376
    1STR   H29514887   6.473   2.208   7.255
    1STR   C29614888   6.358   2.464   7.254
    1STR   H29714889   6.463   2.480   7.233
    1STR   H29814890   6.300   2.540   7.204
    1STR   O29914891   6.330   2.474   7.393
    1STR   C30014892   6.412   2.549   7.483
    1STR   H30114893   6.493   2.597   7.429
    1STR   C30214894   6.340   2.654   7.572
    1STR   H30314895   6.272   2.611   7.646
    1STR   H30414896   6.281   2.725   7.518
    1STR   H30514897   6.411   2.712   7.630
    1STR   C30614898   6.463   2.449   7.585
    1STR   H30714899   6.552   2.486   7.636
    1STR   H30814900   6.387   2.432   7.661
    1STR   O30914901   6.482   2.322   7.529
    1STR    H1R14902   6.603   2.216   7.406
    1STR    H1S14903   6.784   2.369   7.397
    1STR    H1T14904   6.692   2.498   7.472
    1STR    H1U14905   6.644   2.430   7.321
    1STR    H1V14906   6.684   2.284   7.684
    1STR    H1W14907   6.780   2.189   7.567
    1STR    H1X14908   6.461   1.931   7.667
    1STR    H1Y14909   6.435   1.668   7.646
    1STR    H1Z14910   6.399   1.484   7.486
    1STR    H2014911   6.351   1.406   7.271
    1STR    H2114912   6.338   1.512   7.133
    1STR    H2214913   6.498   1.452   7.186
    1STR    H2314914   6.409   1.680   7.070
    1STR    H2714915   6.486   1.941   7.322
    1STR    H2814916   5.602   1.378   7.066
    1STR    H2914917   5.528   1.355   7.300
    1STR    H2A14918   5.416   1.476   7.498
    1STR    H2B14919   5.265   1.403   7.442
    1STR    H2C14920   5.275   1.577   7.468
    1STR   BCK114921   4.962   4.823   0.021
    1STR    O0314922   5.010   4.880   0.117
    1STR    N0414923   4.868   4.877   9.270
    1STR    C0514924   4.900   4.989   9.201
    1STR    C0614925   4.940   5.115   9.251
    1STR    C0714926   4.958   5.223   9.162
    1STR    N0814927   5.017   5.342   9.197
    1STR    C0914928   5.112   5.408   9.130
    1STR    O0A14929   5.142   5.396   9.012
    1STR    O0B14930   5.184   5.477   9.215
    1STR    C0C14931   5.320   5.441   9.224
    1STR    C0D14932   5.387   5.543   9.317
    1STR    C0E14933   5.330   5.296   9.277
    1STR    O0F14934   5.334   5.201   9.170
    1STR    C0G14935   5.258   5.080   9.178
    1STR    C0H14936   5.232   5.040   9.034
    1STR    C0I14937   5.320   4.965   9.258
    1STR    O0J14938   5.247   4.849   9.295
    1STR    C0K14939   6.512   4.732   8.860
    1STR    C0M14940   6.523   4.656   8.990
    1STR    C0N14941   6.583   4.871   8.866
    1STR    O0O14942   6.541   4.945   8.982
    1STR    C0P14943   6.541   5.078   8.980
    1STR    O0Q14944   6.587   5.144   8.889
    1STR    N0R14945   6.478   5.144   9.078
    1STR    C0S14946   6.421   5.115   9.202
    1STR    C0T14947   6.332   5.208   9.256
    1STR    C0U14948   6.298   5.202   0.072
    1STR    C0V14949   6.354   5.108   0.158
    1STR    C0W14950   6.319   5.115   0.306
    1STR    C0X14951   6.430   5.004   0.101
    1STR    N0Y14952   6.464   4.900   0.185
    1STR   BCK214953   6.526   4.786   0.157
    1STR    O1014954   6.583   4.761   0.053
    1STR    C1314955   6.457   5.006   9.282
    1STR    C1414956   4.931   5.202   9.029
    1STR    C1514957   4.922   5.072   8.981
    1STR    C1614958   4.908   4.966   9.065
    1STR    C1714959   4.926   4.828   9.010
    1STR    H1B14960   4.835   4.804   9.210
    1STR    H1C14961   4.970   5.125   0.033
    1STR    H1D14962   4.997   5.374   9.292
    1STR    H1E14963   5.367   5.446   9.126
    1STR    H1F14964   5.345   5.539   0.098
    1STR    H1G14965   5.494   5.525   0.004
    1STR    H1H14966   5.372   5.644   9.279
    1STR    H1I14967   5.252   5.272   0.030
    1STR    H1J14968   5.424   5.294   0.009
    1STR    H1K14969   5.169   5.103   9.231
    1STR    H1M14970   5.321   5.011   8.981
    1STR    H1N14971   5.187   5.122   8.979
    1STR    H1O14972   5.166   4.955   9.029
    1STR    H1P14973   5.406   4.928   9.207
    1STR    H1Q14974   5.350   5.011   0.029
    1STR   C01014975   5.320   4.770   0.072
    1STR   H01114976   5.419   4.809   0.079
    1STR   C01214977   5.261   4.789   0.211
    1STR   H01314978   5.162   4.753   0.225
    1STR   H01414979   5.254   4.894   0.237
    1STR   H01514980   5.319   4.735   0.284
    1STR   C01614981   5.363   4.626   0.043
    1STR   H01714982   5.437   4.600   0.117
    1STR   H01814983   5.289   4.549   0.054
    1STR   O01914984   5.429   4.615   9.239
    1STR   C02014985   5.345   4.575   9.134
    1STR   H02114986   5.253   4.537   9.174
    1STR   C02214987   5.308   4.700   9.054
    1STR   H02314988   5.385   4.775   9.062
    1STR   H02414989   5.218   4.743   9.094
    1STR   H02514990   5.289   4.685   8.949
    1STR   C02614991   5.425   4.468   9.058
    1STR   H02714992   5.449   4.516   8.966
    1STR   H02814993   5.514   4.439   9.114
    1STR   O02914994   5.361   4.353   9.011
    1STR   C03014995   5.437   4.262   8.936
    1STR   H03114996   5.533   4.245   8.985
    1STR   C03214997   5.354   4.133   8.941
    1STR   H03314998   5.255   4.148   8.898
    1STR   H03414999   5.338   4.098   9.043
    1STR   H03515000   5.401   4.051   8.887
    1STR   C03615001   5.457   4.302   8.789
    1STR   H03715002   5.526   4.229   8.749
    1STR   H03815003   5.364   4.282   8.736
    1STR   O03915004   5.494   4.438   8.760
    1STR   C04015005   5.625   4.456   8.708
    1STR   H04115006   5.691   4.411   8.781
    1STR   C04215007   5.638   4.376   8.575
    1STR   H04315008   5.721   4.411   8.515
    1STR   H04415009   5.550   4.384   8.511
    1STR   H04515010   5.654   4.270   8.591
    1STR   C04615011   5.669   4.605   8.681
    1STR   H04715012   5.773   4.600   8.650
    1STR   H04815013   5.620   4.641   8.591
    1STR   O04915014   5.672   4.715   8.774
    1STR   C05015015   5.593   4.723   8.892
    1STR   H05115016   5.493   4.692   8.870
    1STR   C05215017   5.659   4.627   8.989
    1STR   H05315018   5.648   4.524   8.962
    1STR   H05415019   5.631   4.643   9.093
    1STR   H05515020   5.764   4.634   8.977
    1STR   C05615021   5.588   4.872   8.944
    1STR   H05715022   5.665   4.929   8.894
    1STR   H05815023   5.497   4.916   8.906
    1STR   O05915024   5.591   4.890   9.088
    1STR   C06015025   5.626   5.021   9.142
    1STR   H06115026   5.731   5.019   9.138
    1STR   C06215027   5.594   5.139   9.048
    1STR   H06315028   5.494   5.135   9.009
    1STR   H06415029   5.662   5.143   8.964
    1STR   H06515030   5.604   5.234   9.101
    1STR   C06615031   5.605   5.056   9.295
    1STR   H06715032   5.691   5.106   0.014
    1STR   H06815033   5.529   5.130   9.299
    1STR   O06915034   5.573   4.958   0.074
    1STR   C07015035   5.545   5.008   0.208
    1STR   H07115036   5.637   5.059   0.233
    1STR   C07215037   5.441   5.120   0.234
    1STR   H07315038   5.439   5.140   0.340
    1STR   H07415039   5.338   5.094   0.211
    1STR   H07515040   5.468   5.213   0.188
    1STR   C07615041   5.523   4.899   0.316
    1STR   H07715042   5.585   4.935   0.398
    1STR   H07815043   5.425   4.905   0.363
    1STR   O07915044   5.550   4.762   0.277
    1STR   C08015045   5.601   4.669   0.374
    1STR   H08115046   5.704   4.660   0.346
    1STR   C08215047   5.607   4.726   0.516
    1STR   H08315048   5.518   4.779   0.545
    1STR   H08415049   5.681   4.804   0.523
    1STR   H08515050   5.630   4.651   0.590
    1STR   C08615051   5.537   4.526   0.374
    1STR   H08715052   5.539   4.495   0.477
    1STR   H08815053   5.435   4.528   0.336
    1STR   O08915054   5.608   4.419   0.314
    1STR   C09015055   5.594   4.282   0.357
    1STR   H09115056   5.685   4.238   0.318
    1STR   C09215057   5.599   4.251   0.508
    1STR   H09315058   5.501   4.252   0.554
    1STR   H09415059   5.664   4.318   0.563
    1STR   H09515060   5.636   4.149   0.523
    1STR   C09615061   5.481   4.209   0.283
    1STR   H09715062   5.422   4.149   0.351
    1STR   H09815063   5.416   4.281   0.233
    1STR   O09915064   5.539   4.114   0.197
    1STR   C10015065   5.463   4.089   0.080
    1STR   H10115066   5.357   4.091   0.103
    1STR   C10215067   5.491   4.204   9.302
    1STR   H10315068   5.596   4.228   9.291
    1STR   H10415069   5.445   4.297   0.015
    1STR   H10515070   5.449   4.182   9.204
    1STR   C10615071   5.495   3.944   0.038
    1STR   H10715072   5.588   3.913   0.085
    1STR   H10815073   5.421   3.877   0.082
    1STR   O10915074   5.498   3.922   9.217
    1STR   C11015075   5.595   3.826   9.175
    1STR   H11115076   5.693   3.857   9.209
    1STR   C11215077   5.573   3.689   9.234
    1STR   H11315078   5.486   3.646   9.186
    1STR   H11415079   5.560   3.691   0.022
    1STR   H11515080   5.657   3.623   9.213
    1STR   C11615081   5.595   3.813   9.023
    1STR   H11715082   5.673   3.744   8.989
    1STR   H11815083   5.502   3.769   8.988
    1STR   O11915084   5.607   3.937   8.958
    1STR   C12015085   5.736   3.993   8.962
    1STR   H12115086   5.813   3.916   8.964
    1STR   C12215087   5.742   4.063   8.826
    1STR   H12315088   5.744   4.172   8.835
    1STR   H12415089   5.657   4.037   8.763
    1STR   H12515090   5.830   4.028   8.772
    1STR   C12615091   5.748   4.082   9.087
    1STR   H12715092   5.769   4.185   9.063
    1STR   H12815093   5.649   4.087   9.131
    1STR   O12915094   5.844   4.029   9.179
    1STR   C13015095   5.822   4.067   9.316
    1STR   H13115096   5.717   4.063   0.018
    1STR   C13215097   5.890   3.965   0.087
    1STR   H13315098   5.997   3.965   0.072
    1STR   H13415099   5.853   3.865   0.068
    1STR   H13515100   5.870   3.989   0.191
    1STR   C13615101   5.868   4.210   0.019
    1STR   H13715102   5.974   4.212   0.043
    1STR   H13815103   5.848   4.264   9.247
    1STR   O13915104   5.798   4.286   0.114
    1STR   C14015105   5.831   4.425   0.101
    1STR   H14115106   5.915   4.439   0.034
    1STR   C14215107   5.713   4.500   0.039
    1STR   H14315108   5.699   4.473   9.255
    1STR   H14415109   5.726   4.608   0.043
    1STR   H14515110   5.619   4.477   0.089
    1STR   C14615111   5.884   4.479   0.232
    1STR   H14715112   5.935   4.574   0.217
    1STR   H14815113   5.807   4.500   0.302
    1STR   O14915114   5.968   4.381   0.290
    1STR   C15015115   5.944   4.356   0.427
    1STR   H15115116   5.843   4.322   0.443
    1STR   C15215117   6.039   4.239   0.455
    1STR   H15315118   6.141   4.268   0.433
    1STR   H15415119   6.015   4.155   0.390
    1STR   H15515120   6.032   4.205   0.558
    1STR   C15615121   5.974   4.480   0.513
    1STR   H15715122   6.017   4.446   0.606
    1STR   H15815123   6.044   4.542   0.458
    1STR   O15915124   5.865   4.560   0.555
    1STR   C16015125   5.901   4.690   0.609
    1STR   H16115126   5.815   4.729   0.662
    1STR   C16215127   6.007   4.687   0.715
    1STR   H16315128   6.102   4.665   0.669
    1STR   H16415129   5.983   4.613   0.791
    1STR   H16515130   6.016   4.785   0.762
    1STR   C16615131   5.940   4.784   0.495
    1STR   H16715132   6.048   4.795   0.483
    1STR   H16815133   5.907   4.730   0.407
    1STR   O16915134   5.876   4.913   0.507
    1STR   C17015135   5.894   4.993   0.391
    1STR   H17115136   6.002   5.008   0.389
    1STR   C17215137   5.842   4.917   0.269
    1STR   H17315138   5.751   4.869   0.288
    1STR   H17415139   5.897   4.830   0.236
    1STR   H17515140   5.829   4.982   0.183
    1STR   C17615141   5.829   5.134   0.399
    1STR   H17715142   5.723   5.125   0.422
    1STR   H17815143   5.874   5.189   0.481
    1STR   O17915144   5.849   5.208   0.276
    1STR   C18015145   5.767   5.324   0.252
    1STR   H18115146   5.662   5.294   0.255
    1STR   C18215147   5.793   5.428   0.362
    1STR   H18315148   5.899   5.452   0.366
    1STR   H18415149   5.761   5.392   0.460
    1STR   H18515150   5.738   5.520   0.342
    1STR   C18615151   5.792   5.394   0.114
    1STR   H18715152   5.722   5.476   0.102
    1STR   H18815153   5.891   5.439   0.114
    1STR   O18915154   5.773   5.309   0.002
    1STR   C19015155   5.865   5.316   9.213
    1STR   H19115156   5.837   5.235   9.146
    1STR   C19215157   5.850   5.443   9.130
    1STR   H19315158   5.852   5.532   9.192
    1STR   H19415159   5.756   5.443   9.075
    1STR   H19515160   5.930   5.451   9.057
    1STR   C19615161   6.010   5.289   9.256
    1STR   H19715162   6.072   5.262   9.170
    1STR   H19815163   6.055   5.378   9.298
    1STR   O19915164   6.011   5.190   0.037
    1STR   C20015165   6.051   5.059   9.319
    1STR   H20115166   6.136   5.061   9.253
    1STR   C20215167   6.084   4.987   0.126
    1STR   H20315168   6.060   5.051   0.209
    1STR   H20415169   6.185   4.955   0.142
    1STR   H20515170   6.041   4.889   0.127
    1STR   C20615171   5.942   4.987   9.245
    1STR   H20715172   5.852   4.985   9.303
    1STR   H20815173   5.932   5.046   9.156
    1STR   O20915174   5.976   4.854   9.217
    1STR   C21015175   5.892   4.783   9.128
    1STR   H21115176   5.794   4.766   9.173
    1STR   C21215177   5.890   4.863   8.997
    1STR   H21315178   5.848   4.962   8.992
    1STR   H21415179   5.850   4.811   8.911
    1STR   H21515180   5.992   4.879   8.976
    1STR   C21615181   5.966   4.652   9.091
    1STR   H21715182   5.964   4.645   8.983
    1STR   H21815183   6.067   4.667   9.113
    1STR   O21915184   5.931   4.522   9.137
    1STR   C22015185   5.996   4.424   9.055
    1STR   H22115186   6.088   4.463   9.015
    1STR   C22215187   6.061   4.310   9.131
    1STR   H22315188   6.082   4.339   9.234
    1STR   H22415189   6.156   4.291   9.084
    1STR   H22515190   6.011   4.214   9.127
    1STR   C22615191   5.903   4.373   8.945
    1STR   H22715192   5.921   4.267   8.931
    1STR   H22815193   5.803   4.381   8.984
    1STR   O22915194   5.908   4.443   8.820
    1STR   C23015195   5.997   4.391   8.721
    1STR   H23115196   6.091   4.381   8.773
    1STR   C23215197   5.965   4.248   8.675
    1STR   H23315198   5.866   4.239   8.633
    1STR   H23415199   5.974   4.177   8.755
    1STR   H23515200   6.037   4.215   8.600
    1STR   C23615201   6.007   4.479   8.592
    1STR   H23715202   6.091   4.442   8.535
    1STR   H23815203   5.922   4.459   8.528
    1STR   O23915204   6.021   4.623   8.590
    1STR   C24015205   6.051   4.697   8.707
    1STR   H24115206   5.959   4.704   8.765
    1STR   C24215207   6.156   4.627   8.786
    1STR   H24315208   6.200   4.548   8.728
    1STR   H24415209   6.116   4.583   8.872
    1STR   H24515210   6.231   4.693   8.823
    1STR   C24615211   6.105   4.837   8.677
    1STR   H24715212   6.204   4.834   8.630
    1STR   H24815213   6.038   4.886   8.606
    1STR   O24915214   6.104   4.913   8.798
    1STR   C25015215   6.222   4.946   8.871
    1STR   H25115216   6.310   4.931   8.811
    1STR   C25215217   6.200   5.098   8.878
    1STR   H25315218   6.108   5.121   8.932
    1STR   H25415219   6.191   5.141   8.778
    1STR   H25515220   6.281   5.150   8.928
    1STR   C25615221   6.239   4.889   9.020
    1STR   H25715222   6.326   4.935   9.062
    1STR   H25815223   6.159   4.927   9.081
    1STR   O25915224   6.257   4.749   9.049
    1STR   C26015225   6.295   4.706   9.185
    1STR   H26115226   6.396   4.732   9.214
    1STR   C26215227   6.227   4.770   9.299
    1STR   H26315228   6.129   4.728   0.002
    1STR   H26415229   6.224   4.875   9.277
    1STR   H26515230   6.285   4.759   0.069
    1STR   C26615231   6.277   4.556   9.205
    1STR   H26715232   6.175   4.532   9.233
    1STR   H26815233   6.289   4.509   9.109
    1STR   O26915234   6.368   4.509   9.305
    1STR   C27015235   6.316   4.436   0.097
    1STR   H27115236   6.392   4.442   0.172
    1STR   C27215237   6.203   4.505   0.172
    1STR   H27315238   6.112   4.502   0.113
    1STR   H27415239   6.225   4.607   0.198
    1STR   H27515240   6.187   4.453   0.266
    1STR   C27615241   6.299   4.284   0.084
    1STR   H27715242   6.378   4.235   0.141
    1STR   H27815243   6.209   4.253   0.137
    1STR   O27915244   6.290   4.228   9.274
    1STR   C28015245   6.394   4.247   9.178
    1STR   H28115246   6.395   4.346   9.136
    1STR   C28215247   6.532   4.233   9.238
    1STR   H28315248   6.528   4.183   0.011
    1STR   H28415249   6.577   4.330   9.260
    1STR   H28515250   6.599   4.175   9.175
    1STR   C28615251   6.363   4.156   9.058
    1STR   H28715252   6.442   4.083   9.047
    1STR   H28815253   6.273   4.099   9.078
    1STR   O28915254   6.348   4.232   8.938
    1STR   C29015255   6.358   4.156   8.818
    1STR   H29115256   6.452   4.103   8.812
    1STR   C29215257   6.243   4.055   8.812
    1STR   H29315258   6.149   4.104   8.832
    1STR   H29415259   6.255   3.981   8.890
    1STR   H29515260   6.240   4.003   8.717
    1STR   C29615261   6.356   4.253   8.700
    1STR   H29715262   6.334   4.199   8.608
    1STR   H29815263   6.279   4.326   8.716
    1STR   O29915264   6.482   4.318   8.684
    1STR   C30015265   6.479   4.442   8.614
    1STR   H30115266   6.581   4.458   8.580
    1STR   C30215267   6.395   4.434   8.486
    1STR   H30315268   6.293   4.401   8.502
    1STR   H30415269   6.440   4.366   8.414
    1STR   H30515270   6.387   4.533   8.442
    1STR   C30615271   6.439   4.559   8.706
    1STR   H30715272   6.370   4.623   8.652
    1STR   H30815273   6.391   4.517   8.794
    1STR   O30915274   6.543   4.646   8.750
    1STR    H1R15275   6.410   4.759   8.852
    1STR    H1S15276   6.505   4.730   9.063
    1STR    H1T15277   6.618   4.620   9.025
    1STR    H1U15278   6.452   4.575   8.999
    1STR    H1V15279   6.557   4.929   8.778
    1STR    H1W15280   6.691   4.863   8.861
    1STR    H1X15281   6.481   5.242   9.055
    1STR    H1Y15282   6.295   5.291   9.198
    1STR    H1Z15283   6.230   5.274   0.114
    1STR    H2015284   6.320   5.020   0.358
    1STR    H2115285   6.388   5.184   0.353
    1STR    H2215286   6.220   5.159   0.320
    1STR    H2315287   6.428   4.902   0.279
    1STR    H2715288   6.513   4.927   9.235
    1STR    H2815289   4.937   5.288   8.967
    1STR    H2915290   4.933   5.047   8.880
    1STR    H2A15291   4.854   4.756   9.047
    1STR    H2B15292   5.023   4.791   9.040
    1STR    H2C15293   4.928   4.829   8.901
    1STR   BCK115294   5.090   4.444   2.567
    1STR    O0315295   5.197   4.492   2.598
    1STR    N0415296   5.011   4.374   2.650
    1STR    C0515297   5.049   4.335   2.777
    1STR    C0615298   5.054   4.200   2.819
    1STR    C0715299   5.130   4.165   2.934
    1STR    N0815300   5.162   4.035   2.968
    1STR    C0915301   5.109   3.923   2.921
    1STR    O0A15302   4.989   3.908   2.902
    1STR    O0B15303   5.204   3.836   2.883
    1STR    C0C15304   5.312   3.882   2.799
    1STR    C0D15305   5.402   3.760   2.774
    1STR    C0E15306   5.249   3.939   2.669
    1STR    O0F15307   5.323   4.021   2.580
    1STR    C0G15308   5.282   4.157   2.583
    1STR    C0H15309   5.337   4.208   2.713
    1STR    C0I15310   5.346   4.237   2.470
    1STR    O0J15311   5.283   4.228   2.347
    1STR    C0K15312   6.339   5.397   1.947
    1STR    C0M15313   6.255   5.294   1.870
    1STR    C0N15314   6.374   5.511   1.847
    1STR    O0O15315   6.470   5.604   1.894
    1STR    C0P15316   6.589   5.558   1.927
    1STR    O0Q15317   6.644   5.460   1.878
    1STR    N0R15318   6.629   5.626   2.034
    1STR    C0S15319   6.671   5.569   2.154
    1STR    C0T15320   6.660   5.649   2.269
    1STR    C0U15321   6.673   5.592   2.396
    1STR    C0V15322   6.711   5.458   2.411
    1STR    C0W15323   6.716   5.397   2.548
    1STR    C0X15324   6.724   5.377   2.298
    1STR    N0Y15325   6.746   5.244   2.320
    1STR   BCK215326   6.684   5.142   2.265
    1STR    O1015327   6.603   5.155   2.174
    1STR    C1315328   6.702   5.432   2.170
    1STR    C1415329   5.200   4.265   3.003
    1STR    C1515330   5.171   4.399   2.976
    1STR    C1615331   5.095   4.434   2.865
    1STR    C1715332   5.052   4.575   2.844
    1STR    H1B15333   4.920   4.348   2.617
    1STR    H1C15334   5.009   4.124   2.757
    1STR    H1D15335   5.252   4.021   3.010
    1STR    H1E15336   5.372   3.957   2.850
    1STR    H1F15337   5.348   3.680   2.724
    1STR    H1G15338   5.488   3.788   2.713
    1STR    H1H15339   5.440   3.721   2.869
    1STR    H1I15340   5.149   3.978   2.681
    1STR    H1J15341   5.236   3.853   2.610
    1STR    H1K15342   5.174   4.168   2.578
    1STR    H1M15343   5.441   4.190   2.715
    1STR    H1N15344   5.313   4.149   2.797
    1STR    H1O15345   5.317   4.313   2.733
    1STR    H1P15346   5.345   4.343   2.492
    1STR    H1Q15347   5.450   4.205   2.461
    1STR   C01015348   5.362   4.293   2.249
    1STR   H01115349   5.463   4.316   2.283
    1STR   C01215350   5.372   4.181   2.149
    1STR   H01315351   5.279   4.125   2.145
    1STR   H01415352   5.452   4.112   2.177
    1STR   H01515353   5.393   4.220   2.051
    1STR   C01615354   5.303   4.427   2.198
    1STR   H01715355   5.351   4.456   2.105
    1STR   H01815356   5.201   4.421   2.170
    1STR   O01915357   5.311   4.531   2.295
    1STR   C02015358   5.301   4.666   2.247
    1STR   H02115359   5.399   4.690   2.206
    1STR   C02215360   5.196   4.679   2.138
    1STR   H02315361   5.098   4.647   2.174
    1STR   H02415362   5.224   4.621   2.052
    1STR   H02515363   5.188   4.780   2.102
    1STR   C02615364   5.269   4.768   2.360
    1STR   H02715365   5.161   4.782   2.365
    1STR   H02815366   5.295   4.735   2.459
    1STR   O02915367   5.333   4.890   2.326
    1STR   C03015368   5.323   5.004   2.413
    1STR   H03115369   5.403   5.003   2.483
    1STR   C03215370   5.341   5.131   2.329
    1STR   H03315371   5.263   5.201   2.350
    1STR   H03415372   5.329   5.117   2.222
    1STR   H03515373   5.436   5.181   2.342
    1STR   C03615374   5.206   5.015   2.508
    1STR   H03715375   5.215   5.110   2.559
    1STR   H03815376   5.112   5.014   2.454
    1STR   O03915377   5.199   4.917   2.609
    1STR   C04015378   5.300   4.920   2.708
    1STR   H04115379   5.398   4.910   2.664
    1STR   C04215380   5.297   5.046   2.796
    1STR   H04315381   5.198   5.067   2.833
    1STR   H04415382   5.335   5.131   2.741
    1STR   H04515383   5.363   5.037   2.882
    1STR   C04615384   5.274   4.795   2.787
    1STR   H04715385   5.169   4.799   2.813
    1STR   H04815386   5.289   4.709   2.723
    1STR   O04915387   5.362   4.800   2.899
    1STR   C05015388   5.373   4.686   2.981
    1STR   H05115389   5.273   4.665   3.016
    1STR   C05215390   5.426   4.564   2.908
    1STR   H05315391   5.423   4.480   2.977
    1STR   H05415392   5.530   4.578   2.882
    1STR   H05515393   5.371   4.535   2.819
    1STR   C05615394   5.465   4.724   3.098
    1STR   H05715395   5.553   4.773   3.058
    1STR   H05815396   5.415   4.798   3.160
    1STR   O05915397   5.502   4.611   3.178
    1STR   C06015398   5.635   4.562   3.158
    1STR   H06115399   5.663   4.564   3.052
    1STR   C06215400   5.731   4.650   3.239
    1STR   H06315401   5.707   4.646   3.345
    1STR   H06415402   5.725   4.755   3.210
    1STR   H06515403   5.834   4.618   3.225
    1STR   C06615404   5.641   4.416   3.208
    1STR   H06715405   5.744   4.382   3.211
    1STR   H06815406   5.605   4.415   3.310
    1STR   O06915407   5.557   4.327   3.134
    1STR   C07015408   5.623   4.237   3.046
    1STR   H07115409   5.727   4.219   3.073
    1STR   C07215410   5.548   4.104   3.057
    1STR   H07315411   5.445   4.115   3.022
    1STR   H07415412   5.546   4.070   3.161
    1STR   H07515413   5.596   4.027   2.997
    1STR   C07615414   5.619   4.290   2.902
    1STR   H07715415   5.519   4.324   2.878
    1STR   H07815416   5.685   4.376   2.893
    1STR   O07915417   5.650   4.187   2.810
    1STR   C08015418   5.667   4.226   2.674
    1STR   H08115419   5.770   4.235   2.660
    1STR   C08215420   5.650   4.103   2.584
    1STR   H08315421   5.555   4.054   2.593
    1STR   H08415422   5.725   4.028   2.609
    1STR   H08515423   5.666   4.129   2.479
    1STR   C08615424   5.607   4.362   2.622
    1STR   H08715425   5.641   4.370   2.519
    1STR   H08815426   5.501   4.361   2.618
    1STR   O08915427   5.628   4.485   2.692
    1STR   C09015428   5.612   4.603   2.611
    1STR   H09115429   5.696   4.607   2.547
    1STR   C09215430   5.501   4.594   2.508
    1STR   H09315431   5.406   4.587   2.558
    1STR   H09415432   5.509   4.512   2.438
    1STR   H09515433   5.503   4.683   2.444
    1STR   C09615434   5.599   4.740   2.682
    1STR   H09715435   5.583   4.817   2.607
    1STR   H09815436   5.507   4.733   2.736
    1STR   O09915437   5.699   4.789   2.770
    1STR   C10015438   5.660   4.910   2.839
    1STR   H10115439   5.557   4.903   2.869
    1STR   C10215440   5.741   4.916   2.967
    1STR   H10315441   5.834   4.969   2.952
    1STR   H10415442   5.763   4.815   3.000
    1STR   H10515443   5.686   4.968   3.046
    1STR   C10615444   5.673   5.047   2.767
    1STR   H10715445   5.657   5.123   2.843
    1STR   H10815446   5.775   5.062   2.734
    1STR   O10915447   5.579   5.068   2.663
    1STR   C11015448   5.583   5.194   2.596
    1STR   H11115449   5.488   5.201   2.545
    1STR   C11215450   5.587   5.315   2.690
    1STR   H11315451   5.685   5.326   2.738
    1STR   H11415452   5.511   5.307   2.767
    1STR   H11515453   5.569   5.407   2.634
    1STR   C11615454   5.692   5.203   2.486
    1STR   H11715455   5.654   5.225   2.387
    1STR   H11815456   5.751   5.291   2.508
    1STR   O11915457   5.784   5.097   2.492
    1STR   C12015458   5.779   4.980   2.412
    1STR   H12115459   5.853   4.983   2.332
    1STR   C12215460   5.829   4.870   2.502
    1STR   H12315461   5.829   4.894   2.607
    1STR   H12415462   5.930   4.841   2.477
    1STR   H12515463   5.767   4.784   2.489
    1STR   C12615464   5.642   4.950   2.354
    1STR   H12715465   5.625   4.848   2.321
    1STR   H12815466   5.580   4.958   2.439
    1STR   O12915467   5.616   5.047   2.254
    1STR   C13015468   5.553   5.008   2.134
    1STR   H13115469   5.451   4.977   2.148
    1STR   C13215470   5.558   5.135   2.048
    1STR   H13315471   5.654   5.183   2.051
    1STR   H13415472   5.485   5.209   2.081
    1STR   H13515473   5.542   5.115   1.943
    1STR   C13615474   5.620   4.887   2.073
    1STR   H13715475   5.722   4.879   2.109
    1STR   H13815476   5.568   4.798   2.110
    1STR   O13915477   5.618   4.897   1.933
    1STR   C14015478   5.523   4.817   1.866
    1STR   H14115479   5.513   4.717   1.907
    1STR   C14215480   5.382   4.872   1.876
    1STR   H14315481   5.338   4.889   1.778
    1STR   H14415482   5.381   4.962   1.935
    1STR   H14515483   5.319   4.799   1.927
    1STR   C14615484   5.585   4.807   1.726
    1STR   H14715485   5.526   4.753   1.653
    1STR   H14815486   5.598   4.907   1.685
    1STR   O14915487   5.713   4.747   1.737
    1STR   C15015488   5.716   4.616   1.794
    1STR   H15115489   5.623   4.565   1.783
    1STR   C15215490   5.821   4.547   1.708
    1STR   H15315491   5.920   4.587   1.730
    1STR   H15415492   5.804   4.565   1.602
    1STR   H15515493   5.820   4.439   1.723
    1STR   C15615494   5.747   4.620   1.946
    1STR   H15715495   5.829   4.558   1.972
    1STR   H15815496   5.782   4.720   1.966
    1STR   O15915497   5.644   4.595   2.041
    1STR   C16015498   5.626   4.466   2.097
    1STR   H16115499   5.541   4.479   2.161
    1STR   C16215500   5.600   4.366   1.987
    1STR   H16315501   5.675   4.366   1.907
    1STR   H16415502   5.507   4.397   1.943
    1STR   H16515503   5.595   4.264   2.023
    1STR   C16615504   5.728   4.414   2.195
    1STR   H16715505   5.713   4.308   2.218
    1STR   H16815506   5.821   4.422   2.141
    1STR   O16915507   5.728   4.481   2.319
    1STR   C17015508   5.855   4.533   2.346
    1STR   H17115509   5.929   4.469   2.304
    1STR   C17215510   5.866   4.666   2.272
    1STR   H17315511   5.867   4.650   2.166
    1STR   H17415512   5.953   4.724   2.298
    1STR   H17515513   5.777   4.723   2.288
    1STR   C17615514   5.909   4.530   2.487
    1STR   H17715515   6.015   4.521   2.473
    1STR   H17815516   5.893   4.625   2.534
    1STR   O17915517   5.862   4.429   2.576
    1STR   C18015518   5.963   4.354   2.642
    1STR   H18115519   6.033   4.428   2.655
    1STR   C18215520   5.952   4.319   2.792
    1STR   H18315521   5.903   4.224   2.814
    1STR   H18415522   5.899   4.399   2.844
    1STR   H18515523   6.050   4.312   2.837
    1STR   C18615524   6.005   4.240   2.547
    1STR   H18715525   6.112   4.234   2.551
    1STR   H18815526   5.965   4.145   2.582
    1STR   O18915527   5.960   4.268   2.414
    1STR   C19015528   6.007   4.183   2.313
    1STR   H19115529   6.111   4.165   2.335
    1STR   C19215530   5.922   4.056   2.316
    1STR   H19315531   5.818   4.078   2.290
    1STR   H19415532   5.920   4.010   2.415
    1STR   H19515533   5.960   3.983   2.246
    1STR   C19615534   6.005   4.243   2.172
    1STR   H19715535   6.062   4.173   2.113
    1STR   H19815536   5.905   4.234   2.131
    1STR   O19915537   6.055   4.379   2.161
    1STR   C20015538   6.066   4.447   2.034
    1STR   H20115539   6.169   4.426   2.013
    1STR   C20215540   5.988   4.377   1.922
    1STR   H20315541   5.881   4.375   1.934
    1STR   H20415542   6.008   4.271   1.920
    1STR   H20515543   6.016   4.420   1.827
    1STR   C20615544   6.083   4.605   2.035
    1STR   H20715545   6.076   4.642   2.136
    1STR   H20815546   6.185   4.626   2.007
    1STR   O20915547   6.008   4.690   1.948
    1STR   C21015548   6.049   4.828   1.933
    1STR   H21115549   6.152   4.839   1.965
    1STR   C21215550   6.046   4.852   1.782
    1STR   H21315551   5.944   4.842   1.744
    1STR   H21415552   6.108   4.781   1.728
    1STR   H21515553   6.081   4.953   1.758
    1STR   C21615554   5.960   4.936   2.002
    1STR   H21715555   5.862   4.938   1.956
    1STR   H21815556   5.949   4.912   2.108
    1STR   O21915557   6.020   5.066   1.987
    1STR   C22015558   5.960   5.189   2.035
    1STR   H22115559   6.039   5.262   2.047
    1STR   C22215560   5.876   5.238   1.916
    1STR   H22315561   5.802   5.164   1.887
    1STR   H22415562   5.940   5.253   1.829
    1STR   H22515563   5.826   5.332   1.938
    1STR   C22615564   5.881   5.189   2.170
    1STR   H22715565   5.804   5.265   2.169
    1STR   H22815566   5.825   5.097   2.167
    1STR   O22915567   5.947   5.197   2.299
    1STR   C23015568   5.988   5.322   2.356
    1STR   H23115569   6.085   5.333   2.310
    1STR   C23215570   5.909   5.444   2.304
    1STR   H23315571   5.803   5.436   2.327
    1STR   H23415572   5.922   5.456   2.196
    1STR   H23515573   5.947   5.536   2.348
    1STR   C23615574   6.009   5.340   2.515
    1STR   H23715575   6.098   5.396   2.535
    1STR   H23815576   5.936   5.415   2.543
    1STR   O23915577   5.986   5.251   2.627
    1STR   C24015578   6.039   5.118   2.644
    1STR   H24115579   5.947   5.066   2.631
    1STR   C24215580   6.120   5.054   2.536
    1STR   H24315581   6.096   5.085   2.435
    1STR   H24415582   6.086   4.953   2.539
    1STR   H24515583   6.227   5.052   2.554
    1STR   C24615584   6.076   5.065   2.785
    1STR   H24715585   6.184   5.056   2.794
    1STR   H24815586   6.041   5.131   2.863
    1STR   O24915587   6.010   4.937   2.799
    1STR   C25015588   6.078   4.832   2.867
    1STR   H25115589   6.181   4.839   2.838
    1STR   C25215590   6.073   4.848   3.020
    1STR   H25315591   5.973   4.838   3.060
    1STR   H25415592   6.113   4.945   3.050
    1STR   H25515593   6.133   4.772   3.069
    1STR   C25615594   6.022   4.693   2.823
    1STR   H25715595   6.058   4.613   2.887
    1STR   H25815596   5.914   4.693   2.836
    1STR   O25915597   6.045   4.655   2.687
    1STR   C26015598   6.176   4.634   2.636
    1STR   H26115599   6.226   4.678   2.715
    1STR   C26215600   6.241   4.494   2.614
    1STR   H26315601   6.348   4.504   2.599
    1STR   H26415602   6.207   4.445   2.522
    1STR   H26515603   6.227   4.425   2.696
    1STR   C26615604   6.194   4.713   2.509
    1STR   H26715605   6.108   4.708   2.444
    1STR   H26815606   6.216   4.815   2.532
    1STR   O26915607   6.311   4.672   2.446
    1STR   C27015608   6.320   4.685   2.308
    1STR   H27115609   6.424   4.691   2.284
    1STR   C27215610   6.281   4.548   2.261
    1STR   H27315611   6.178   4.524   2.288
    1STR   H27415612   6.341   4.476   2.314
    1STR   H27515613   6.302   4.530   2.156
    1STR   C27615614   6.257   4.813   2.251
    1STR   H27715615   6.289   4.822   2.148
    1STR   H27815616   6.149   4.811   2.251
    1STR   O27915617   6.297   4.926   2.329
    1STR   C28015618   6.331   5.042   2.254
    1STR   H28115619   6.419   5.021   2.195
    1STR   C28215620   6.222   5.069   2.155
    1STR   H28315621   6.126   5.044   2.201
    1STR   H28415622   6.237   5.013   2.064
    1STR   H28515623   6.220   5.174   2.129
    1STR   C28615624   6.345   5.174   2.332
    1STR   H28715625   6.387   5.248   2.264
    1STR   H28815626   6.243   5.205   2.348
    1STR   O28915627   6.413   5.181   2.456
    1STR   C29015628   6.359   5.289   2.533
    1STR   H29115629   6.254   5.270   2.546
    1STR   C29215630   6.405   5.283   2.677
    1STR   H29315631   6.511   5.304   2.685
    1STR   H29415632   6.387   5.183   2.715
    1STR   H29515633   6.351   5.354   2.740
    1STR   C29615634   6.379   5.425   2.465
    1STR   H29715635   6.393   5.504   2.538
    1STR   H29815636   6.467   5.419   2.403
    1STR   O29915637   6.265   5.452   2.384
    1STR   C30015638   6.268   5.554   2.285
    1STR   H30115639   6.164   5.568   2.254
    1STR   C30215640   6.313   5.687   2.349
    1STR   H30315641   6.250   5.710   2.435
    1STR   H30415642   6.304   5.769   2.278
    1STR   H30515643   6.416   5.682   2.384
    1STR   C30615644   6.345   5.513   2.159
    1STR   H30715645   6.380   5.604   2.113
    1STR   H30815646   6.432   5.453   2.185
    1STR   O30915647   6.266   5.442   2.062
    1STR    H1R15648   6.429   5.343   1.980
    1STR    H1S15649   6.305   5.261   1.780
    1STR    H1T15650   6.157   5.334   1.843
    1STR    H1U15651   6.238   5.203   1.926
    1STR    H1V15652   6.283   5.564   1.821
    1STR    H1W15653   6.412   5.468   1.754
    1STR    H1X15654   6.586   5.716   2.039
    1STR    H1Y15655   6.631   5.753   2.263
    1STR    H1Z15656   6.646   5.646   2.484
    1STR    H2015657   6.659   5.454   2.620
    1STR    H2115658   6.668   5.300   2.543
    1STR    H2215659   6.819   5.386   2.582
    1STR    H2315660   6.803   5.217   2.400
    1STR    H2715661   6.706   5.365   2.085
    1STR    H2815662   5.266   4.243   3.085
    1STR    H2915663   5.208   4.474   3.042
    1STR    H2A15664   4.945   4.569   2.842
    1STR    H2B15665   5.081   4.621   2.750
    1STR    H2C15666   5.083   4.638   2.925
    1STR   BCK115667   5.223   4.645   4.464
    1STR    O0315668   5.153   4.743   4.445
    1STR    N0415669   5.260   4.555   4.373
    1STR    C0515670   5.278   4.577   4.238
    1STR    C0615671   5.316   4.704   4.195
    1STR    C0715672   5.352   4.729   4.062
    1STR    N0815673   5.381   4.861   4.036
    1STR    C0915674   5.474   4.914   3.960
    1STR    O0A15675   5.538   4.855   3.873
    1STR    O0B15676   5.498   5.039   4.000
    1STR    C0C15677   5.592   5.057   4.106
    1STR    C0D15678   5.685   5.171   4.065
    1STR    C0E15679   5.524   5.085   4.243
    1STR    O0F15680   5.525   4.983   4.342
    1STR    C0G15681   5.460   5.012   4.466
    1STR    C0H15682   5.417   4.889   4.541
    1STR    C0I15683   5.516   5.120   4.562
    1STR    O0J15684   5.452   5.110   4.691
    1STR    C0K15685   6.497   3.958   5.040
    1STR    C0M15686   6.637   3.942   5.097
    1STR    C0N15687   6.457   3.837   4.949
    1STR    O0O15688   6.425   3.857   4.810
    1STR    C0P15689   6.504   3.931   4.728
    1STR    O0Q15690   6.595   4.001   4.769
    1STR    N0R15691   6.471   3.913   4.599
    1STR    C0S15692   6.499   3.997   4.490
    1STR    C0T15693   6.440   3.972   4.364
    1STR    C0U15694   6.428   4.077   4.269
    1STR    C0V15695   6.463   4.210   4.304
    1STR    C0W15696   6.421   4.329   4.219
    1STR    C0X15697   6.528   4.232   4.427
    1STR    N0Y15698   6.536   4.363   4.474
    1STR   BCK215699   6.544   4.412   4.596
    1STR    O1015700   6.571   4.528   4.614
    1STR    C1315701   6.560   4.122   4.509
    1STR    C1415702   5.353   4.624   3.969
    1STR    C1515703   5.312   4.494   4.010
    1STR    C1615704   5.276   4.470   4.145
    1STR    C1715705   5.237   4.330   4.190
    1STR    H1B15706   5.284   4.463   4.409
    1STR    H1C15707   5.319   4.786   4.265
    1STR    H1D15708   5.341   4.925   4.103
    1STR    H1E15709   5.650   4.965   4.111
    1STR    H1F15710   5.632   5.267   4.066
    1STR    H1G15711   5.769   5.180   4.132
    1STR    H1H15712   5.723   5.155   3.964
    1STR    H1I15713   5.422   5.107   4.218
    1STR    H1J15714   5.568   5.174   4.288
    1STR    H1K15715   5.363   5.035   4.436
    1STR    H1M15716   5.492   4.854   4.611
    1STR    H1N15717   5.399   4.813   4.468
    1STR    H1O15718   5.325   4.906   4.597
    1STR    H1P15719   5.623   5.107   4.567
    1STR    H1Q15720   5.503   5.220   4.523
    1STR   C01015721   5.507   5.190   4.797
    1STR   H01115722   5.609   5.216   4.772
    1STR   C01215723   5.427   5.321   4.793
    1STR   H01315724   5.320   5.301   4.783
    1STR   H01415725   5.454   5.380   4.706
    1STR   H01515726   5.442   5.382   4.882
    1STR   C01615727   5.515   5.122   4.940
    1STR   H01715728   5.592   5.177   4.994
    1STR   H01815729   5.429   5.139   5.002
    1STR   O01915730   5.555   4.983   4.955
    1STR   C02015731   5.459   4.885   4.993
    1STR   H02115732   5.406   4.937   5.071
    1STR   C02215733   5.362   4.871   4.875
    1STR   H02315734   5.333   4.967   4.834
    1STR   H02415735   5.267   4.829   4.901
    1STR   H02515736   5.402   4.810   4.796
    1STR   C02615737   5.534   4.752   5.048
    1STR   H02715738   5.601   4.709   4.979
    1STR   H02815739   5.604   4.794   5.120
    1STR   O02915740   5.481   4.639   5.126
    1STR   C03015741   5.395   4.528   5.084
    1STR   H03115742   5.320   4.540   5.159
    1STR   C03215743   5.329   4.530   4.948
    1STR   H03315744   5.227   4.495   4.959
    1STR   H03415745   5.372   4.462   4.878
    1STR   H03515746   5.332   4.627   4.902
    1STR   C03615747   5.432   4.381   5.113
    1STR   H03715748   5.534   4.370   5.103
    1STR   H03815749   5.410   4.353   5.214
    1STR   O03915750   5.376   4.291   5.018
    1STR   C04015751   5.444   4.172   4.981
    1STR   H04115752   5.549   4.187   4.978
    1STR   C04215753   5.411   4.066   5.090
    1STR   H04315754   5.307   4.037   5.093
    1STR   H04415755   5.438   4.104   5.188
    1STR   H04515756   5.464   3.972   5.078
    1STR   C04615757   5.402   4.138   4.833
    1STR   H04715758   5.371   4.035   4.825
    1STR   H04815759   5.319   4.203   4.812
    1STR   O04915760   5.492   4.169   4.725
    1STR   C05015761   5.445   4.133   4.592
    1STR   H05115762   5.431   4.026   4.593
    1STR   C05215763   5.313   4.198   4.553
    1STR   H05315764   5.231   4.179   4.620
    1STR   H05415765   5.280   4.160   4.456
    1STR   H05515766   5.326   4.306   4.542
    1STR   C05615767   5.547   4.166   4.480
    1STR   H05715768   5.586   4.265   4.491
    1STR   H05815769   5.626   4.095   4.492
    1STR   O05915770   5.503   4.166   4.344
    1STR   C06015771   5.612   4.173   4.250
    1STR   H06115772   5.707   4.196   4.299
    1STR   C06215773   5.616   4.031   4.193
    1STR   H06315774   5.522   4.007   4.144
    1STR   H06415775   5.632   3.958   4.272
    1STR   H06515776   5.697   4.020   4.120
    1STR   C06615777   5.593   4.279   4.138
    1STR   H06715778   5.623   4.235   4.043
    1STR   H06815779   5.488   4.303   4.124
    1STR   O06915780   5.676   4.395   4.149
    1STR   C07015781   5.612   4.516   4.188
    1STR   H07115782   5.520   4.520   4.135
    1STR   C07215783   5.578   4.504   4.336
    1STR   H07315784   5.666   4.493   4.398
    1STR   H07415785   5.512   4.420   4.354
    1STR   H07515786   5.521   4.591   4.367
    1STR   C07615787   5.682   4.648   4.141
    1STR   H07715788   5.787   4.640   4.115
    1STR   H07815789   5.638   4.672   4.044
    1STR   O07915790   5.659   4.764   4.221
    1STR   C08015791   5.757   4.797   4.321
    1STR   H08115792   5.845   4.736   4.311
    1STR   C08215793   5.810   4.940   4.311
    1STR   H08315794   5.748   5.016   4.356
    1STR   H08415795   5.833   4.974   4.211
    1STR   H08515796   5.900   4.939   4.370
    1STR   C08615797   5.698   4.773   4.458
    1STR   H08715798   5.593   4.765   4.441
    1STR   H08815799   5.716   4.676   4.498
    1STR   O08915800   5.714   4.881   4.549
    1STR   C09015801   5.773   4.856   4.674
    1STR   H09115802   5.878   4.831   4.656
    1STR   C09215803   5.749   4.983   4.752
    1STR   H09315804   5.643   4.995   4.748
    1STR   H09415805   5.789   5.076   4.719
    1STR   H09515806   5.774   4.976   4.857
    1STR   C09615807   5.705   4.755   4.765
    1STR   H09715808   5.764   4.746   4.856
    1STR   H09815809   5.608   4.796   4.790
    1STR   O09915810   5.681   4.630   4.712
    1STR   C10015811   5.597   4.541   4.784
    1STR   H10115812   5.520   4.603   4.824
    1STR   C10215813   5.534   4.461   4.672
    1STR   H10315814   5.597   4.379   4.649
    1STR   H10415815   5.521   4.522   4.583
    1STR   H10515816   5.440   4.415   4.696
    1STR   C10615817   5.660   4.441   4.887
    1STR   H10715818   5.584   4.367   4.898
    1STR   H10815819   5.742   4.383   4.850
    1STR   O10915820   5.694   4.492   5.015
    1STR   C11015821   5.761   4.411   5.114
    1STR   H11115822   5.863   4.434   5.093
    1STR   C11215823   5.721   4.475   5.249
    1STR   H11315824   5.616   4.466   5.273
    1STR   H11415825   5.739   4.582   5.245
    1STR   H11515826   5.775   4.433   5.334
    1STR   C11615827   5.749   4.253   5.128
    1STR   H11715828   5.820   4.221   5.203
    1STR   H11815829   5.654   4.226   5.175
    1STR   O11915830   5.770   4.171   5.013
    1STR   C12015831   5.753   4.029   5.035
    1STR   H12115832   5.684   4.014   5.118
    1STR   C12215833   5.686   3.963   4.912
    1STR   H12315834   5.713   4.012   4.820
    1STR   H12415835   5.579   3.969   4.911
    1STR   H12515836   5.706   3.857   4.905
    1STR   C12615837   5.885   3.958   5.078
    1STR   H12715838   5.969   4.024   5.089
    1STR   H12815839   5.869   3.922   5.180
    1STR   O12915840   5.918   3.842   5.002
    1STR   C13015841   6.014   3.857   4.898
    1STR   H13115842   6.092   3.928   4.926
    1STR   C13215843   6.077   3.718   4.886
    1STR   H13315844   6.157   3.717   4.811
    1STR   H13415845   6.003   3.644   4.857
    1STR   H13515846   6.121   3.687   4.981
    1STR   C13615847   5.954   3.897   4.762
    1STR   H13715848   6.023   3.871   4.682
    1STR   H13815849   5.863   3.840   4.743
    1STR   O13915850   5.928   4.036   4.755
    1STR   C14015851   5.884   4.088   4.628
    1STR   H14115852   5.963   4.134   4.577
    1STR   C14215853   5.844   3.989   4.518
    1STR   H14315854   5.758   3.927   4.545
    1STR   H14415855   5.928   3.925   4.493
    1STR   H14515856   5.823   4.043   4.426
    1STR   C14615857   5.813   4.222   4.640
    1STR   H14715858   5.784   4.254   4.541
    1STR   H14815859   5.728   4.216   4.707
    1STR   O14915860   5.909   4.316   4.683
    1STR   C15015861   5.883   4.452   4.658
    1STR   H15115862   5.779   4.456   4.644
    1STR   C15215863   5.939   4.543   4.770
    1STR   H15315864   6.032   4.507   4.808
    1STR   H15415865   5.878   4.552   4.859
    1STR   H15515866   5.957   4.645   4.737
    1STR   C15615867   5.923   4.505   4.525
    1STR   H15715868   5.893   4.608   4.509
    1STR   H15815869   6.022   4.525   4.538
    1STR   O15915870   5.914   4.419   4.414
    1STR   C16015871   5.948   4.488   4.295
    1STR   H16115872   5.855   4.538   4.278
    1STR   C16215873   6.064   4.592   4.299
    1STR   H16315874   6.162   4.552   4.319
    1STR   H16415875   6.049   4.677   4.366
    1STR   H16515876   6.074   4.634   4.200
    1STR   C16615877   5.968   4.393   4.179
    1STR   H16715878   6.072   4.363   4.176
    1STR   H16815879   5.905   4.305   4.187
    1STR   O16915880   5.935   4.468   4.064
    1STR   C17015881   6.009   4.444   3.947
    1STR   H17115882   6.112   4.418   3.970
    1STR   C17215883   5.936   4.331   3.873
    1STR   H17315884   5.832   4.358   3.856
    1STR   H17415885   5.936   4.240   3.934
    1STR   H17515886   5.984   4.309   3.778
    1STR   C17615887   6.007   4.580   3.876
    1STR   H17715888   6.069   4.581   3.787
    1STR   H17815889   5.904   4.601   3.847
    1STR   O17915890   6.054   4.673   3.973
    1STR   C18015891   6.039   4.813   3.955
    1STR   H18115892   6.123   4.848   3.898
    1STR   C18215893   5.908   4.853   3.884
    1STR   H18315894   5.820   4.815   3.937
    1STR   H18415895   5.904   4.816   3.782
    1STR   H18515896   5.897   4.961   3.879
    1STR   C18615897   6.039   4.875   4.096
    1STR   H18715898   6.009   4.979   4.090
    1STR   H18815899   5.962   4.822   4.150
    1STR   O18915900   6.158   4.856   4.174
    1STR   C19015901   6.210   4.962   4.254
    1STR   H19115902   6.307   4.926   4.289
    1STR   C19215903   6.230   5.083   4.162
    1STR   H19315904   6.139   5.138   4.140
    1STR   H19415905   6.274   5.055   4.067
    1STR   H19515906   6.294   5.154   4.214
    1STR   C19615907   6.137   5.021   4.379
    1STR   H19715908   6.211   5.093   4.414
    1STR   H19815909   6.053   5.077   4.340
    1STR   O19915910   6.097   4.950   4.498
    1STR   C20015911   6.064   5.045   4.604
    1STR   H20115912   6.148   5.112   4.606
    1STR   C20215913   5.953   5.143   4.563
    1STR   H20315914   5.865   5.091   4.529
    1STR   H20415915   5.982   5.211   4.483
    1STR   H20515916   5.927   5.209   4.646
    1STR   C20615917   6.074   5.005   4.757
    1STR   H20715918   6.165   4.953   4.770
    1STR   H20815919   6.086   5.096   4.815
    1STR   O20915920   5.995   4.913   4.831
    1STR   C21015921   6.032   4.908   4.970
    1STR   H21115922   6.137   4.932   4.980
    1STR   C21215923   5.952   5.009   5.053
    1STR   H21315924   5.847   4.980   5.062
    1STR   H21415925   5.955   5.109   5.010
    1STR   H21515926   5.992   5.015   5.154
    1STR   C21615927   6.016   4.766   5.026
    1STR   H21715928   5.912   4.738   5.040
    1STR   H21815929   6.062   4.694   4.959
    1STR   O21915930   6.090   4.770   5.147
    1STR   C22015931   6.057   4.687   5.256
    1STR   H22115932   6.140   4.704   5.324
    1STR   C22215933   5.934   4.746   5.327
    1STR   H22315934   5.851   4.762   5.258
    1STR   H22415935   5.958   4.843   5.370
    1STR   H22515936   5.899   4.682   5.409
    1STR   C22615937   6.056   4.534   5.233
    1STR   H22715938   6.125   4.494   5.307
    1STR   H22815939   5.964   4.493   5.270
    1STR   O22915940   6.081   4.488   5.099
    1STR   C23015941   6.106   4.347   5.076
    1STR   H23115942   6.206   4.351   5.039
    1STR   C23215943   6.105   4.259   5.203
    1STR   H23315944   6.124   4.154   5.182
    1STR   H23415945   6.012   4.264   5.257
    1STR   H23515946   6.183   4.287   5.273
    1STR   C23615947   6.034   4.282   4.954
    1STR   H23715948   6.007   4.179   4.968
    1STR   H23815949   5.940   4.331   4.932
    1STR   O23915950   6.103   4.283   4.831
    1STR   C24015951   6.213   4.200   4.803
    1STR   H24115952   6.278   4.277   4.767
    1STR   C24215953   6.278   4.136   4.920
    1STR   H24315954   6.366   4.192   4.941
    1STR   H24415955   6.312   4.038   4.892
    1STR   H24515956   6.216   4.116   5.005
    1STR   C24615957   6.221   4.099   4.690
    1STR   H24715958   6.327   4.091   4.672
    1STR   H24815959   6.188   4.002   4.722
    1STR   O24915960   6.165   4.121   4.566
    1STR   C25015961   6.216   4.220   4.483
    1STR   H25115962   6.317   4.198   4.493
    1STR   C25215963   6.150   4.174   4.352
    1STR   H25315964   6.043   4.193   4.354
    1STR   H25415965   6.162   4.067   4.335
    1STR   H25515966   6.192   4.224   4.266
    1STR   C25615967   6.191   4.365   4.526
    1STR   H25715968   6.131   4.391   4.443
    1STR   H25815969   6.132   4.365   4.615
    1STR   O25915970   6.286   4.474   4.524
    1STR   C26015971   6.255   4.593   4.603
    1STR   H26115972   6.158   4.637   4.590
    1STR   C26215973   6.276   4.567   4.752
    1STR   H26315974   6.229   4.477   4.785
    1STR   H26415975   6.235   4.648   4.811
    1STR   H26515976   6.380   4.554   4.776
    1STR   C26615977   6.328   4.719   4.562
    1STR   H26715978   6.432   4.697   4.567
    1STR   H26815979   6.307   4.747   4.459
    1STR   O26915980   6.293   4.825   4.652
    1STR   C27015981   6.399   4.900   4.708
    1STR   H27115982   6.466   4.900   4.625
    1STR   C27215983   6.382   5.051   4.728
    1STR   H27315984   6.319   5.078   4.812
    1STR   H27415985   6.346   5.098   4.638
    1STR   H27515986   6.477   5.098   4.750
    1STR   C27615987   6.454   4.837   4.837
    1STR   H27715988   6.476   4.732   4.822
    1STR   H27815989   6.550   4.882   4.861
    1STR   O27915990   6.367   4.855   4.948
    1STR   C28015991   6.418   4.805   5.071
    1STR   H28115992   6.527   4.810   5.069
    1STR   C28215993   6.367   4.887   5.190
    1STR   H28315994   6.264   4.920   5.176
    1STR   H28415995   6.425   4.977   5.205
    1STR   H28515996   6.373   4.831   5.283
    1STR   C28615997   6.384   4.658   5.083
    1STR   H28715998   6.276   4.643   5.077
    1STR   H28815999   6.425   4.612   4.993
    1STR   O28916000   6.441   4.597   5.199
    1STR   C29016001   6.403   4.461   5.212
    1STR   H29116002   6.297   4.461   5.217
    1STR   C29216003   6.441   4.377   5.095
    1STR   H29316004   6.548   4.360   5.093
    1STR   H29416005   6.402   4.409   4.999
    1STR   H29516006   6.392   4.283   5.111
    1STR   C29616007   6.455   4.392   5.338
    1STR   H29716008   6.563   4.398   5.344
    1STR   H29816009   6.416   4.450   5.421
    1STR   O29916010   6.407   4.256   5.346
    1STR   C30016011   6.491   4.151   5.293
    1STR   H30116012   6.544   4.180   5.204
    1STR   C30216013   6.595   4.122   5.396
    1STR   H30316014   6.542   4.069   5.469
    1STR   H30416015   6.638   4.210   5.443
    1STR   H30516016   6.673   4.056   5.359
    1STR   C30616017   6.412   4.020   5.266
    1STR   H30716018   6.461   3.933   5.311
    1STR   H30816019   6.315   4.027   5.315
    1STR   O30916020   6.389   3.984   5.130
    1STR    H1R16021   6.508   4.048   4.981
    1STR    H1S16022   6.704   3.936   5.011
    1STR    H1T16023   6.649   3.854   5.160
    1STR    H1U16024   6.676   4.030   5.147
    1STR    H1V16025   6.369   3.788   4.992
    1STR    H1W16026   6.535   3.762   4.953
    1STR    H1X16027   6.401   3.843   4.584
    1STR    H1Y16028   6.397   3.876   4.342
    1STR    H1Z16029   6.378   4.058   4.176
    1STR    H2016030   6.358   4.398   4.277
    1STR    H2116031   6.507   4.386   4.184
    1STR    H2216032   6.363   4.299   4.132
    1STR    H2316033   6.525   4.439   4.409
    1STR    H2716034   6.620   4.140   4.595
    1STR    H2816035   5.381   4.642   3.866
    1STR    H2916036   5.311   4.414   3.938
    1STR    H2A16037   5.236   4.259   4.108
    1STR    H2B16038   5.139   4.332   4.237
    1STR    H2C16039   5.307   4.295   4.265
    1STR   BCK116040   4.976   4.778   7.070
    1STR    O0316041   4.986   4.820   7.183
    1STR    N0416042   5.005   4.844   6.956
    1STR    C0516043   5.085   4.955   6.927
    1STR    C0616044   5.173   5.004   7.022
    1STR    C0716045   5.237   5.130   7.008
    1STR    N0816046   5.316   5.189   7.104
    1STR    C0916047   5.348   5.152   7.228
    1STR    O0A16048   5.431   5.212   7.293
    1STR    O0B16049   5.278   5.052   7.269
    1STR    C0C16050   5.310   4.980   7.383
    1STR    C0D16051   5.249   5.039   7.510
    1STR    C0E16052   5.260   4.839   7.356
    1STR    O0F16053   5.305   4.779   7.237
    1STR    C0G16054   5.236   4.660   7.200
    1STR    C0H16055   5.250   4.648   7.050
    1STR    C0I16056   5.275   4.529   7.262
    1STR    O0J16057   5.187   4.425   7.220
    1STR    C0K16058   6.523   5.144   6.614
    1STR    C0M16059   6.624   5.029   6.637
    1STR    C0N16060   6.561   5.262   6.520
    1STR    O0O16061   6.473   5.374   6.526
    1STR    C0P16062   6.441   5.440   6.640
    1STR    O0Q16063   6.348   5.519   6.646
    1STR    N0R16064   6.522   5.411   6.742
    1STR    C0S16065   6.493   5.391   6.876
    1STR    C0T16066   6.373   5.431   6.935
    1STR    C0U16067   6.348   5.402   7.069
    1STR    C0V16068   6.440   5.326   7.143
    1STR    C0W16069   6.406   5.297   7.285
    1STR    C0X16070   6.559   5.278   7.084
    1STR    N0Y16071   6.638   5.187   7.156
    1STR   BCK216072   6.724   5.094   7.111
    1STR    O1016073   6.767   5.083   6.997
    1STR    C1316074   6.585   5.314   6.950
    1STR    C1416075   5.226   5.197   6.886
    1STR    C1516076   5.147   5.145   6.784
    1STR    C1616077   5.077   5.025   6.804
    1STR    C1716078   4.986   4.986   6.694
    1STR    H1B16079   4.948   4.806   6.880
    1STR    H1C16080   5.181   4.944   7.111
    1STR    H1D16081   5.375   5.266   7.078
    1STR    H1E16082   5.417   4.984   7.386
    1STR    H1F16083   5.141   5.028   7.508
    1STR    H1G16084   5.286   4.991   7.600
    1STR    H1H16085   5.268   5.146   7.517
    1STR    H1I16086   5.152   4.846   7.357
    1STR    H1J16087   5.295   4.779   7.437
    1STR    H1K16088   5.135   4.668   7.234
    1STR    H1M16089   5.238   4.742   6.998
    1STR    H1N16090   5.182   4.573   7.011
    1STR    H1O16091   5.347   4.611   7.029
    1STR    H1P16092   5.374   4.504   7.233
    1STR    H1Q16093   5.272   4.540   7.367
    1STR   C01016094   5.241   4.294   7.230
    1STR   H01116095   5.270   4.270   7.332
    1STR   C01216096   5.131   4.204   7.183
    1STR   H01316097   5.104   4.231   7.081
    1STR   H01416098   5.041   4.210   7.241
    1STR   H01516099   5.167   4.102   7.186
    1STR   C01616100   5.361   4.274   7.139
    1STR   H01716101   5.445   4.308   7.197
    1STR   H01816102   5.380   4.169   7.117
    1STR   O01916103   5.337   4.356   7.025
    1STR   C02016104   5.370   4.314   6.895
    1STR   H02116105   5.478   4.310   6.883
    1STR   C02216106   5.306   4.178   6.866
    1STR   H02316107   5.202   4.183   6.893
    1STR   H02416108   5.348   4.097   6.924
    1STR   H02516109   5.317   4.147   6.764
    1STR   C02616110   5.306   4.427   6.812
    1STR   H02716111   5.201   4.431   6.842
    1STR   H02816112   5.345   4.523   6.840
    1STR   O02916113   5.315   4.422   6.670
    1STR   C03016114   5.440   4.457   6.615
    1STR   H03116115   5.505   4.419   6.690
    1STR   C03216116   5.455   4.376   6.484
    1STR   H03316117   5.409   4.423   6.398
    1STR   H03416118   5.416   4.275   6.492
    1STR   H03516119   5.557   4.358   6.456
    1STR   C03616120   5.473   4.608   6.592
    1STR   H03716121   5.580   4.620   6.599
    1STR   H03816122   5.446   4.634   6.489
    1STR   O03916123   5.414   4.706   6.679
    1STR   C04016124   5.440   4.841   6.639
    1STR   H04116125   5.542   4.849   6.603
    1STR   C04216126   5.349   4.886   6.524
    1STR   H04316127   5.244   4.886   6.554
    1STR   H04416128   5.358   4.823   6.435
    1STR   H04516129   5.374   4.987   6.493
    1STR   C04616130   5.422   4.936   6.761
    1STR   H04716131   5.358   5.019   6.733
    1STR   H04816132   5.368   4.881   6.837
    1STR   O04916133   5.544   4.995   6.808
    1STR   C05016134   5.540   5.051   6.939
    1STR   H05116135   5.471   5.133   6.929
    1STR   C05216136   5.501   4.948   7.048
    1STR   H05316137   5.509   4.987   7.149
    1STR   H05416138   5.569   4.867   7.053
    1STR   H05516139   5.403   4.905   7.040
    1STR   C05616140   5.669   5.118   6.986
    1STR   H05716141   5.747   5.043   6.999
    1STR   H05816142   5.703   5.191   6.912
    1STR   O05916143   5.636   5.182   7.109
    1STR   C06016144   5.741   5.214   7.199
    1STR   H06116145   5.827   5.154   7.173
    1STR   C06216146   5.773   5.361   7.175
    1STR   H06316147   5.685   5.422   7.197
    1STR   H06416148   5.798   5.380   7.070
    1STR   H06516149   5.855   5.396   7.237
    1STR   C06616150   5.708   5.184   7.349
    1STR   H06716151   5.800   5.188   7.407
    1STR   H06816152   5.644   5.263   7.388
    1STR   O06916153   5.643   5.057   7.371
    1STR   C07016154   5.636   5.005   7.505
    1STR   H07116155   5.735   4.999   7.547
    1STR   C07216156   5.564   5.106   7.596
    1STR   H07316157   5.480   5.152   7.545
    1STR   H07416158   5.630   5.188   7.624
    1STR   H07516159   5.527   5.060   7.688
    1STR   C07616160   5.582   4.857   7.514
    1STR   H07716161   5.657   4.795   7.563
    1STR   H07816162   5.495   4.852   7.579
    1STR   O07916163   5.542   4.797   7.389
    1STR   C08016164   5.586   4.664   7.353
    1STR   H08116165   5.690   4.644   7.368
    1STR   C08216166   5.516   4.573   7.451
    1STR   H08316167   5.425   4.620   7.479
    1STR   H08416168   5.573   4.561   7.543
    1STR   H08516169   5.494   4.477   7.408
    1STR   C08616170   5.575   4.635   7.200
    1STR   H08716171   5.571   4.528   7.187
    1STR   H08816172   5.487   4.680   7.160
    1STR   O08916173   5.677   4.686   7.115
    1STR   C09016174   5.691   4.644   6.977
    1STR   H09116175   5.756   4.557   6.977
    1STR   C09216176   5.568   4.594   6.912
    1STR   H09316177   5.496   4.675   6.901
    1STR   H09416178   5.526   4.512   6.967
    1STR   H09516179   5.596   4.559   6.815
    1STR   C09616180   5.743   4.763   6.892
    1STR   H09716181   5.660   4.827   6.879
    1STR   H09816182   5.815   4.820   6.950
    1STR   O09916183   5.787   4.738   6.758
    1STR   C10016184   5.803   4.856   6.675
    1STR   H10116185   5.716   4.920   6.683
    1STR   C10216186   5.919   4.937   6.727
    1STR   H10316187   6.009   4.877   6.735
    1STR   H10416188   5.896   4.981   6.824
    1STR   H10516189   5.939   5.019   6.659
    1STR   C10616190   5.825   4.830   6.524
    1STR   H10716191   5.822   4.924   6.469
    1STR   H10816192   5.924   4.790   6.514
    1STR   O10916193   5.732   4.740   6.467
    1STR   C11016194   5.754   4.688   6.336
    1STR   H11116195   5.684   4.745   6.275
    1STR   C11216196   5.891   4.705   6.270
    1STR   H11316197   5.970   4.652   6.323
    1STR   H11416198   5.918   4.810   6.261
    1STR   H11516199   5.890   4.664   6.169
    1STR   C11616200   5.704   4.541   6.332
    1STR   H11716201   5.611   4.540   6.384
    1STR   H11816202   5.678   4.520   6.228
    1STR   O11916203   5.790   4.431   6.369
    1STR   C12016204   5.837   4.400   6.501
    1STR   H12116205   5.924   4.340   6.479
    1STR   C12216206   5.882   4.521   6.579
    1STR   H12316207   5.949   4.585   6.526
    1STR   H12416208   5.926   4.495   6.674
    1STR   H12516209   5.793   4.574   6.607
    1STR   C12616210   5.753   4.320   6.605
    1STR   H12716211   5.822   4.296   6.684
    1STR   H12816212   5.689   4.388   6.656
    1STR   O12916213   5.687   4.198   6.568
    1STR   C13016214   5.600   4.140   6.667
    1STR   H13116215   5.514   4.205   6.680
    1STR   C13216216   5.552   4.011   6.604
    1STR   H13316217   5.500   4.029   6.510
    1STR   H13416218   5.484   3.963   6.673
    1STR   H13516219   5.635   3.943   6.584
    1STR   C13616220   5.662   4.115   6.806
    1STR   H13716221   5.740   4.041   6.794
    1STR   H13816222   5.703   4.210   6.838
    1STR   O13916223   5.576   4.085   6.915
    1STR   C14016224   5.600   3.976   7.005
    1STR   H14116225   5.496   3.946   7.014
    1STR   C14216226   5.678   3.857   6.947
    1STR   H14316227   5.785   3.876   6.945
    1STR   H14416228   5.647   3.837   6.846
    1STR   H14516229   5.661   3.767   7.006
    1STR   C14616230   5.649   4.004   7.151
    1STR   H14716231   5.613   3.923   7.213
    1STR   H14816232   5.756   3.989   7.158
    1STR   O14916233   5.605   4.122   7.219
    1STR   C15016234   5.705   4.222   7.237
    1STR   H15116235   5.801   4.176   7.231
    1STR   C15216236   5.698   4.322   7.122
    1STR   H15316237   5.751   4.414   7.147
    1STR   H15416238   5.600   4.348   7.085
    1STR   H15516239   5.743   4.282   7.032
    1STR   C15616240   5.709   4.284   7.379
    1STR   H15716241   5.610   4.316   7.408
    1STR   H15816242   5.733   4.204   7.448
    1STR   O15916243   5.807   4.390   7.388
    1STR   C16016244   5.844   4.438   7.519
    1STR   H16116245   5.756   4.459   7.579
    1STR   C16216246   5.929   4.330   7.588
    1STR   H16316247   6.015   4.303   7.526
    1STR   H16416248   5.873   4.240   7.609
    1STR   H16516249   5.967   4.366   7.683
    1STR   C16616250   5.930   4.567   7.508
    1STR   H16716251   5.991   4.581   7.597
    1STR   H16816252   6.001   4.551   7.427
    1STR   O16916253   5.856   4.690   7.497
    1STR   C17016254   5.911   4.788   7.407
    1STR   H17116255   5.993   4.737   7.360
    1STR   C17216256   5.824   4.846   7.294
    1STR   H17316257   5.721   4.841   7.292
    1STR   H17416258   5.849   4.815   7.196
    1STR   H17516259   5.823   4.953   7.293
    1STR   C17616260   5.982   4.904   7.473
    1STR   H17716261   5.923   4.993   7.488
    1STR   H17816262   6.023   4.875   7.570
    1STR   O17916263   6.088   4.939   7.389
    1STR   C18016264   6.071   4.979   7.251
    1STR   H18116265   5.982   5.039   7.241
    1STR   C18216266   6.167   5.098   7.245
    1STR   H18316267   6.195   5.130   7.346
    1STR   H18416268   6.124   5.187   7.200
    1STR   H18516269   6.258   5.077   7.192
    1STR   C18616270   6.073   4.867   7.132
    1STR   H18716271   5.992   4.890   7.064
    1STR   H18816272   6.158   4.887   7.068
    1STR   O18916273   6.071   4.722   7.161
    1STR   C19016274   5.991   4.621   7.090
    1STR   H19116275   5.891   4.632   7.125
    1STR   C19216276   6.003   4.632   6.940
    1STR   H19316277   6.090   4.579   6.911
    1STR   H19416278   6.006   4.734   6.904
    1STR   H19516279   5.930   4.576   6.883
    1STR   C19616280   6.020   4.471   7.121
    1STR   H19716281   6.120   4.454   7.092
    1STR   H19816282   6.005   4.454   7.227
    1STR   O19916283   5.960   4.364   7.047
    1STR   C20016284   6.027   4.237   7.058
    1STR   H20116285   6.126   4.251   7.016
    1STR   C20216286   6.041   4.180   7.202
    1STR   H20316287   5.993   4.243   7.276
    1STR   H20416288   6.144   4.166   7.230
    1STR   H20516289   5.996   4.081   7.213
    1STR   C20616290   5.956   4.127   6.978
    1STR   H20716291   6.007   4.031   6.984
    1STR   H20816292   5.860   4.108   7.024
    1STR   O20916293   5.920   4.161   6.846
    1STR   C21016294   6.011   4.132   6.746
    1STR   H21116295   6.067   4.050   6.782
    1STR   C21216296   5.957   4.069   6.616
    1STR   H21316297   5.913   4.139   6.547
    1STR   H21416298   5.884   3.990   6.635
    1STR   H21516299   6.036   4.024   6.556
    1STR   C21616300   6.087   4.264   6.735
    1STR   H21716301   6.028   4.346   6.776
    1STR   H21816302   6.172   4.263   6.800
    1STR   O21916303   6.117   4.290   6.601
    1STR   C22016304   6.217   4.386   6.580
    1STR   H22116305   6.311   4.333   6.577
    1STR   C22216306   6.194   4.435   6.439
    1STR   H22316307   6.175   4.351   6.373
    1STR   H22416308   6.284   4.488   6.407
    1STR   H22516309   6.110   4.502   6.429
    1STR   C22616310   6.223   4.506   6.677
    1STR   H22716311   6.290   4.577   6.630
    1STR   H22816312   6.127   4.555   6.680
    1STR   O22916313   6.267   4.478   6.812
    1STR   C23016314   6.327   4.590   6.881
    1STR   H23116315   6.431   4.596   6.858
    1STR   C23216316   6.276   4.725   6.830
    1STR   H23316317   6.177   4.729   6.787
    1STR   H23416318   6.339   4.760   6.750
    1STR   H23516319   6.274   4.796   6.911
    1STR   C23616320   6.336   4.585   7.036
    1STR   H23716321   6.424   4.642   7.064
    1STR   H23816322   6.254   4.647   7.067
    1STR   O23916323   6.336   4.467   7.119
    1STR   C24016324   6.297   4.495   7.257
    1STR   H24116325   6.200   4.542   7.256
    1STR   C24216326   6.256   4.390   7.363
    1STR   H24316327   6.327   4.309   7.380
    1STR   H24416328   6.162   4.346   7.338
    1STR   H24516329   6.236   4.437   7.459
    1STR   C24616330   6.385   4.600   7.315
    1STR   H24716331   6.391   4.588   7.422
    1STR   H24816332   6.485   4.603   7.274
    1STR   O24916333   6.309   4.711   7.280
    1STR   C25016334   6.349   4.825   7.338
    1STR   H25116335   6.277   4.895   7.314
    1STR   C25216336   6.329   4.808   7.490
    1STR   H25316337   6.249   4.736   7.506
    1STR   H25416338   6.286   4.894   7.539
    1STR   H25516339   6.414   4.766   7.544
    1STR   C25616340   6.449   4.891   7.242
    1STR   H25716341   6.480   4.989   7.275
    1STR   H25816342   6.535   4.829   7.228
    1STR   O25916343   6.378   4.896   7.115
    1STR   C26016344   6.437   4.967   7.009
    1STR   H26116345   6.486   5.045   7.059
    1STR   C26216346   6.537   4.873   6.942
    1STR   H26316347   6.564   4.790   7.006
    1STR   H26416348   6.629   4.921   6.914
    1STR   H26516349   6.502   4.831   6.849
    1STR   C26616350   6.346   5.046   6.909
    1STR   H26716351   6.410   5.117   6.860
    1STR   H26816352   6.309   4.983   6.829
    1STR   O26916353   6.242   5.128   6.962
    1STR   C27016354   6.129   5.148   6.878
    1STR   H27116355   6.105   5.051   6.836
    1STR   C27216356   6.014   5.191   6.970
    1STR   H27316357   6.039   5.281   7.026
    1STR   H27416358   5.989   5.110   7.037
    1STR   H27516359   5.923   5.213   6.915
    1STR   C27616360   6.135   5.250   6.763
    1STR   H27716361   6.153   5.349   6.803
    1STR   H27816362   6.213   5.231   6.690
    1STR   O27916363   6.006   5.241   6.703
    1STR   C28016364   5.959   5.338   6.612
    1STR   H28116365   5.850   5.332   6.621
    1STR   C28216366   5.997   5.483   6.647
    1STR   H28316367   6.103   5.500   6.631
    1STR   H28416368   5.973   5.505   6.751
    1STR   H28516369   5.943   5.553   6.584
    1STR   C28616370   5.991   5.297   6.468
    1STR   H28716371   5.944   5.201   6.446
    1STR   H28816372   5.949   5.370   6.399
    1STR   O28916373   6.130   5.284   6.450
    1STR   C29016374   6.167   5.267   6.314
    1STR   H29116375   6.083   5.234   6.252
    1STR   C29216376   6.220   5.402   6.266
    1STR   H29316377   6.303   5.436   6.329
    1STR   H29416378   6.143   5.479   6.270
    1STR   H29516379   6.257   5.397   6.163
    1STR   C29616380   6.275   5.159   6.308
    1STR   H29716381   6.316   5.157   6.207
    1STR   H29816382   6.356   5.189   6.373
    1STR   O29916383   6.228   5.028   6.336
    1STR   C30016384   6.219   4.987   6.472
    1STR   H30116385   6.146   5.047   6.528
    1STR   C30216386   6.174   4.841   6.465
    1STR   H30316387   6.253   4.775   6.431
    1STR   H30416388   6.093   4.833   6.394
    1STR   H30516389   6.141   4.805   6.562
    1STR   C30616390   6.355   4.989   6.541
    1STR   H30716391   6.360   4.915   6.620
    1STR   H30816392   6.427   4.962   6.468
    1STR   O30916393   6.386   5.113   6.598
    1STR    H1R16394   6.525   5.184   6.713
    1STR    H1S16395   6.587   4.929   6.622
    1STR    H1T16396   6.659   5.032   6.740
    1STR    H1U16397   6.716   5.041   6.581
    1STR    H1V16398   6.564   5.233   6.416
    1STR    H1W16399   6.660   5.297   6.539
    1STR    H1X16400   6.608   5.370   6.715
    1STR    H1Y16401   6.299   5.484   6.878
    1STR    H1Z16402   6.256   5.437   7.113
    1STR    H2016403   6.306   5.332   7.312
    1STR    H2116404   6.415   5.192   7.308
    1STR    H2216405   6.477   5.351   7.345
    1STR    H2316406   6.619   5.189   7.255
    1STR    H2716407   6.676   5.280   6.904
    1STR    H2816408   5.280   5.287   6.868
    1STR    H2916409   5.139   5.201   6.692
    1STR    H2A16410   5.027   4.921   6.617
    1STR    H2B16411   4.966   5.077   6.639
    1STR    H2C16412   4.893   4.946   6.735
    1STR   BCK116413   5.262   6.871   0.033
    1STR    O0316414   5.274   6.759   9.304
    1STR    N0416415   5.261   6.892   0.167
    1STR    C0516416   5.245   6.785   0.257
    1STR    C0616417   5.167   6.678   0.214
    1STR    C0716418   5.161   6.555   0.275
    1STR    N0816419   5.100   6.463   0.194
    1STR    C0916420   5.163   6.357   0.150
    1STR    O0A16421   5.222   6.281   0.224
    1STR    O0B16422   5.152   6.348   0.017
    1STR    C0C16423   5.267   6.347   9.254
    1STR    C0D16424   5.308   6.209   9.203
    1STR    C0E16425   5.245   6.449   9.143
    1STR    O0F16426   5.360   6.522   9.106
    1STR    C0G16427   5.411   6.510   8.975
    1STR    C0H16428   5.470   6.371   8.948
    1STR    C0I16429   5.303   6.545   8.872
    1STR    O0J16430   5.321   6.668   8.806
    1STR    C0K16431   6.356   7.432   0.433
    1STR    C0M16432   6.329   7.550   0.527
    1STR    C0N16433   6.303   7.293   0.473
    1STR    O0O16434   6.326   7.207   0.363
    1STR    C0P16435   6.323   7.071   0.351
    1STR    O0Q16436   6.329   7.023   0.239
    1STR    N0R16437   6.312   6.996   0.462
    1STR    C0S16438   6.354   6.862   0.477
    1STR    C0T16439   6.350   6.800   0.603
    1STR    C0U16440   6.380   6.664   0.620
    1STR    C0V16441   6.425   6.586   0.514
    1STR    C0W16442   6.471   6.445   0.543
    1STR    C0X16443   6.430   6.644   0.386
    1STR    N0Y16444   6.467   6.561   0.280
    1STR   BCK216445   6.470   6.574   0.148
    1STR    O1016446   6.510   6.483   0.076
    1STR    C1316447   6.402   6.782   0.373
    1STR    C1416448   5.226   6.538   0.398
    1STR    C1516449   5.291   6.650   0.456
    1STR    C1616450   5.300   6.774   0.386
    1STR    C1716451   5.356   6.893   0.458
    1STR    H1B16452   5.272   6.989   0.198
    1STR    H1C16453   5.114   6.686   0.123
    1STR    H1D16454   5.044   6.505   0.121
    1STR    H1E16455   5.345   6.386   9.314
    1STR    H1F16456   5.254   6.178   9.115
    1STR    H1G16457   5.413   6.209   9.173
    1STR    H1H16458   5.296   6.131   9.278
    1STR    H1I16459   5.171   6.522   9.176
    1STR    H1J16460   5.207   6.400   9.056
    1STR    H1K16461   5.491   6.583   8.974
    1STR    H1M16462   5.395   6.293   8.949
    1STR    H1N16463   5.546   6.345   9.022
    1STR    H1O16464   5.519   6.370   8.851
    1STR    H1P16465   5.288   6.464   8.802
    1STR    H1Q16466   5.208   6.561   8.922
    1STR   C01016467   5.433   6.684   8.722
    1STR   H01116468   5.520   6.677   8.787
    1STR   C01216469   5.439   6.579   8.611
    1STR   H01316470   5.347   6.578   8.553
    1STR   H01416471   5.455   6.479   8.651
    1STR   H01516472   5.522   6.600   8.544
    1STR   C01616473   5.427   6.826   8.664
    1STR   H01716474   5.527   6.857   8.633
    1STR   H01816475   5.366   6.832   8.575
    1STR   O01916476   5.370   6.911   8.762
    1STR   C02016477   5.427   7.039   8.770
    1STR   H02116478   5.530   7.033   8.740
    1STR   C02216479   5.354   7.142   8.683
    1STR   H02316480   5.251   7.157   8.715
    1STR   H02416481   5.354   7.110   8.579
    1STR   H02516482   5.404   7.238   8.689
    1STR   C02616483   5.426   7.077   8.916
    1STR   H02716484   5.332   7.121   8.947
    1STR   H02816485   5.444   6.990   8.979
    1STR   O02916486   5.535   7.165   8.928
    1STR   C03016487   5.539   7.246   9.042
    1STR   H03116488   5.634   7.297   9.033
    1STR   C03216489   5.434   7.354   9.025
    1STR   H03316490   5.336   7.312   9.042
    1STR   H03416491   5.436   7.399   8.926
    1STR   H03516492   5.448   7.431   9.098
    1STR   C03616493   5.527   7.170   9.176
    1STR   H03716494   5.572   7.232   9.252
    1STR   H03816495   5.424   7.168   9.206
    1STR   O03916496   5.580   7.036   9.167
    1STR   C04016497   5.611   6.958   9.284
    1STR   H04116498   5.717   6.940   9.280
    1STR   C04216499   5.570   7.028   0.093
    1STR   H04316500   5.464   7.048   0.097
    1STR   H04416501   5.620   7.123   0.102
    1STR   H04516502   5.596   6.967   0.178
    1STR   C04616503   5.550   6.817   9.284
    1STR   H04716504   5.486   6.818   0.050
    1STR   H04816505   5.495   6.798   9.191
    1STR   O04916506   5.622   6.705   0.009
    1STR   C05016507   5.540   6.586   0.018
    1STR   H05116508   5.443   6.604   9.296
    1STR   C05216509   5.602   6.471   9.259
    1STR   H05316510   5.676   6.418   9.317
    1STR   H05416511   5.642   6.501   9.163
    1STR   H05516512   5.531   6.394   9.237
    1STR   C05616513   5.515   6.550   0.164
    1STR   H05716514   5.611   6.542   0.210
    1STR   H05816515   5.463   6.632   0.213
    1STR   O05916516   5.441   6.430   0.180
    1STR   C06016517   5.510   6.319   0.235
    1STR   H06116518   5.613   6.340   0.217
    1STR   C06216519   5.476   6.308   0.385
    1STR   H06316520   5.380   6.260   0.403
    1STR   H06416521   5.471   6.408   0.428
    1STR   H06516522   5.551   6.252   0.439
    1STR   C06616523   5.496   6.183   0.165
    1STR   H06716524   5.534   6.106   0.231
    1STR   H06816525   5.394   6.156   0.148
    1STR   O06916526   5.562   6.184   0.039
    1STR   C07016527   5.663   6.087   0.021
    1STR   H07116528   5.655   6.004   0.091
    1STR   C07216529   5.642   6.033   9.199
    1STR   H07316530   5.646   6.114   9.126
    1STR   H07416531   5.545   5.986   9.190
    1STR   H07516532   5.719   5.961   9.172
    1STR   C07616533   5.801   6.154   0.035
    1STR   H07716534   5.882   6.082   0.040
    1STR   H07816535   5.819   6.211   9.263
    1STR   O07916536   5.808   6.253   0.137
    1STR   C08016537   5.820   6.222   0.276
    1STR   H08116538   5.729   6.177   0.314
    1STR   C08216539   5.934   6.122   0.302
    1STR   H08316540   6.027   6.154   0.257
    1STR   H08416541   5.910   6.024   0.261
    1STR   H08516542   5.950   6.110   0.409
    1STR   C08616543   5.842   6.361   0.343
    1STR   H08716544   5.907   6.350   0.429
    1STR   H08816545   5.890   6.424   0.269
    1STR   O08916546   5.725   6.432   0.384
    1STR   C09016547   5.743   6.563   0.437
    1STR   H09116548   5.821   6.548   0.509
    1STR   C09216549   5.771   6.680   0.339
    1STR   H09316550   5.686   6.715   0.282
    1STR   H09416551   5.850   6.660   0.267
    1STR   H09516552   5.800   6.769   0.393
    1STR   C09616553   5.624   6.605   0.520
    1STR   H09716554   5.543   6.635   0.454
    1STR   H09816555   5.590   6.523   0.583
    1STR   O09916556   5.673   6.716   0.591
    1STR   C10016557   5.628   6.729   0.723
    1STR   H10116558   5.521   6.708   0.725
    1STR   C10216559   5.706   6.631   0.812
    1STR   H10316560   5.812   6.654   0.812
    1STR   H10416561   5.694   6.528   0.781
    1STR   H10516562   5.674   6.638   0.916
    1STR   C10616563   5.658   6.874   0.762
    1STR   H10716564   5.664   6.887   0.869
    1STR   H10816565   5.754   6.900   0.721
    1STR   O10916566   5.565   6.965   0.704
    1STR   C11016567   5.571   7.099   0.752
    1STR   H11116568   5.515   7.103   0.844
    1STR   C11216569   5.708   7.152   0.792
    1STR   H11316570   5.781   7.126   0.718
    1STR   H11416571   5.738   7.110   0.888
    1STR   H11516572   5.707   7.260   0.804
    1STR   C11616573   5.502   7.189   0.650
    1STR   H11716574   5.397   7.180   0.670
    1STR   H11816575   5.528   7.294   0.665
    1STR   O11916576   5.508   7.153   0.513
    1STR   C12016577   5.635   7.157   0.453
    1STR   H12116578   5.705   7.196   0.525
    1STR   C12216579   5.674   7.012   0.425
    1STR   H12316580   5.592   6.951   0.391
    1STR   H12416581   5.716   6.964   0.512
    1STR   H12516582   5.746   7.001   0.345
    1STR   C12616583   5.637   7.244   0.325
    1STR   H12716584   5.718   7.207   0.265
    1STR   H12816585   5.544   7.234   0.269
    1STR   O12916586   5.667   7.381   0.349
    1STR   C13016587   5.687   7.466   0.235
    1STR   H13116588   5.588   7.498   0.201
    1STR   C13216589   5.760   7.585   0.299
    1STR   H13316590   5.856   7.556   0.342
    1STR   H13416591   5.701   7.630   0.378
    1STR   H13516592   5.783   7.663   0.227
    1STR   C13616593   5.762   7.408   0.109
    1STR   H13716594   5.864   7.377   0.131
    1STR   H13816595   5.711   7.318   0.077
    1STR   O13916596   5.759   7.498   9.317
    1STR   C14016597   5.848   7.472   9.206
    1STR   H14116598   5.950   7.495   9.234
    1STR   C14216599   5.848   7.327   9.161
    1STR   H14316600   5.854   7.315   9.053
    1STR   H14416601   5.766   7.267   9.196
    1STR   H14516602   5.934   7.279   9.202
    1STR   C14616603   5.811   7.563   9.088
    1STR   H14716604   5.711   7.536   9.054
    1STR   H14816605   5.810   7.667   9.120
    1STR   O14916606   5.908   7.552   8.984
    1STR   C15016607   5.855   7.556   8.851
    1STR   H15116608   5.750   7.586   8.849
    1STR   C15216609   5.933   7.662   8.772
    1STR   H15316610   6.032   7.626   8.747
    1STR   H15416611   5.942   7.755   8.827
    1STR   H15516612   5.883   7.683   8.677
    1STR   C15616613   5.871   7.417   8.788
    1STR   H15716614   5.920   7.427   8.691
    1STR   H15816615   5.934   7.356   8.851
    1STR   O15916616   5.744   7.357   8.770
    1STR   C16016617   5.740   7.230   8.705
    1STR   H16116618   5.634   7.211   8.701
    1STR   C16216619   5.786   7.235   8.559
    1STR   H16316620   5.891   7.261   8.548
    1STR   H16416621   5.728   7.309   8.503
    1STR   H16516622   5.772   7.138   8.511
    1STR   C16616623   5.803   7.114   8.787
    1STR   H16716624   5.911   7.118   8.790
    1STR   H16816625   5.772   7.128   8.891
    1STR   O16916626   5.764   6.987   8.735
    1STR   C17016627   5.803   6.874   8.814
    1STR   H17116628   5.906   6.888   8.843
    1STR   C17216629   5.709   6.869   8.936
    1STR   H17316630   5.605   6.859   8.906
    1STR   H17416631   5.717   6.960   8.995
    1STR   H17516632   5.727   6.791   9.009
    1STR   C17616633   5.795   6.748   8.723
    1STR   H17716634   5.693   6.729   8.691
    1STR   H17816635   5.846   6.774   8.630
    1STR   O17916636   5.853   6.624   8.765
    1STR   C18016637   5.817   6.566   8.890
    1STR   H18116638   5.719   6.596   8.924
    1STR   C18216639   5.817   6.414   8.874
    1STR   H18316640   5.915   6.378   8.843
    1STR   H18416641   5.745   6.382   8.800
    1STR   H18516642   5.794   6.366   8.969
    1STR   C18616643   5.929   6.611   8.983
    1STR   H18716644   6.023   6.591   8.934
    1STR   H18816645   5.918   6.716   8.992
    1STR   O18916646   5.935   6.558   9.114
    1STR   C19016647   5.880   6.635   9.220
    1STR   H19116648   5.779   6.654   9.188
    1STR   C19216649   5.892   6.541   0.019
    1STR   H19316650   5.990   6.548   0.067
    1STR   H19416651   5.882   6.438   9.307
    1STR   H19516652   5.816   6.562   0.092
    1STR   C19616653   5.944   6.769   9.258
    1STR   H19716654   6.047   6.745   9.275
    1STR   H19816655   5.933   6.840   9.177
    1STR   O19916656   5.900   6.831   0.060
    1STR   C20016657   5.974   6.950   0.090
    1STR   H20116658   6.075   6.935   0.055
    1STR   C20216659   5.916   7.073   0.023
    1STR   H20316660   5.974   7.162   0.046
    1STR   H20416661   5.819   7.097   0.063
    1STR   H20516662   5.906   7.062   9.235
    1STR   C20616663   5.987   6.977   0.240
    1STR   H20716664   5.942   6.895   0.295
    1STR   H20816665   6.094   6.973   0.262
    1STR   O20916666   5.934   7.103   0.285
    1STR   C21016667   6.002   7.163   0.394
    1STR   H21116668   6.099   7.175   0.352
    1STR   C21216669   5.947   7.303   0.424
    1STR   H21316670   6.013   7.368   0.479
    1STR   H21416671   5.858   7.306   0.484
    1STR   H21516672   5.924   7.352   0.330
    1STR   C21616673   6.007   7.074   0.519
    1STR   H21716674   5.911   7.071   0.568
    1STR   H21816675   6.028   6.972   0.489
    1STR   O21916676   6.115   7.109   0.605
    1STR   C22016677   6.090   7.128   0.743
    1STR   H22116678   6.190   7.134   0.786
    1STR   C22216679   6.027   7.266   0.764
    1STR   H22316680   5.934   7.278   0.710
    1STR   H22416681   6.092   7.344   0.725
    1STR   H22516682   6.009   7.288   0.869
    1STR   C22616683   6.026   7.011   0.824
    1STR   H22716684   6.097   6.975   0.897
    1STR   H22816685   5.946   7.051   0.885
    1STR   O22916686   5.970   6.902   0.750
    1STR   C23016687   6.062   6.804   0.704
    1STR   H23116688   6.133   6.867   0.655
    1STR   C23216689   6.114   6.722   0.823
    1STR   H23316690   6.032   6.691   0.888
    1STR   H23416691   6.187   6.776   0.883
    1STR   H23516692   6.162   6.630   0.789
    1STR   C23616693   6.010   6.712   0.592
    1STR   H23716694   5.933   6.651   0.635
    1STR   H23816695   5.966   6.773   0.515
    1STR   O23916696   6.113   6.629   0.536
    1STR   C24016697   6.091   6.580   0.403
    1STR   H24116698   5.987   6.561   0.394
    1STR   C24216699   6.125   6.683   0.296
    1STR   H24316700   6.139   6.781   0.340
    1STR   H24416701   6.050   6.692   0.218
    1STR   H24516702   6.215   6.658   0.242
    1STR   C24616703   6.159   6.444   0.378
    1STR   H24716704   6.265   6.455   0.374
    1STR   H24816705   6.139   6.378   0.462
    1STR   O24916706   6.114   6.377   0.259
    1STR   C25016707   6.202   6.369   0.147
    1STR   H25116708   6.234   6.469   0.120
    1STR   C25216709   6.320   6.280   0.183
    1STR   H25316710   6.280   6.184   0.209
    1STR   H25416711   6.380   6.315   0.266
    1STR   H25516712   6.387   6.269   0.098
    1STR   C25616713   6.127   6.302   0.029
    1STR   H25716714   6.169   6.206   0.002
    1STR   H25816715   6.027   6.279   0.063
    1STR   O25916716   6.111   6.379   9.232
    1STR   C26016717   6.228   6.416   9.163
    1STR   H26116718   6.313   6.370   9.214
    1STR   C26216719   6.224   6.360   9.022
    1STR   H26316720   6.139   6.401   8.967
    1STR   H26416721   6.212   6.251   9.023
    1STR   H26516722   6.315   6.383   8.968
    1STR   C26616723   6.248   6.568   9.173
    1STR   H26716724   6.208   6.600   9.269
    1STR   H26816725   6.354   6.583   9.177
    1STR   O26916726   6.200   6.657   9.071
    1STR   C27016727   6.231   6.794   9.101
    1STR   H27116728   6.219   6.813   9.207
    1STR   C27216729   6.375   6.822   9.072
    1STR   H27316730   6.394   6.808   8.967
    1STR   H27416731   6.444   6.762   9.128
    1STR   H27516732   6.401   6.923   9.102
    1STR   C27616733   6.142   6.894   9.023
    1STR   H27716734   6.185   6.923   8.930
    1STR   H27816735   6.054   6.847   8.990
    1STR   O27916736   6.099   7.007   9.096
    1STR   C28016737   6.200   7.103   9.114
    1STR   H28116738   6.279   7.078   9.046
    1STR   C28216739   6.150   7.240   9.067
    1STR   H28316740   6.125   7.304   9.150
    1STR   H28416741   6.064   7.230   9.002
    1STR   H28516742   6.226   7.295   9.011
    1STR   C28616743   6.247   7.096   9.261
    1STR   H28716744   6.168   7.130   0.006
    1STR   H28816745   6.269   6.995   9.292
    1STR   O28916746   6.366   7.166   9.287
    1STR   C29016747   6.353   7.267   0.064
    1STR   H29116748   6.284   7.239   0.143
    1STR   C29216749   6.493   7.281   0.122
    1STR   H29316750   6.567   7.324   0.056
    1STR   H29416751   6.528   7.182   0.149
    1STR   H29516752   6.495   7.341   0.212
    1STR   C29616753   6.298   7.393   0.003
    1STR   H29716754   6.365   7.466   0.042
    1STR   H29816755   6.313   7.397   9.216
    1STR   O29916756   6.164   7.427   0.039
    1STR   C30016757   6.158   7.530   0.138
    1STR   H30116758   6.239   7.598   0.127
    1STR   C30216759   6.043   7.627   0.117
    1STR   H30316760   5.949   7.575   0.126
    1STR   H30416761   6.046   7.672   0.018
    1STR   H30516762   6.044   7.707   0.191
    1STR   C30616763   6.174   7.473   0.277
    1STR   H30716764   6.123   7.536   0.351
    1STR   H30816765   6.133   7.374   0.275
    1STR   O30916766   6.312   7.465   0.303
    1STR    H1R16767   6.465   7.426   0.422
    1STR    H1S16768   6.395   7.548   0.613
    1STR    H1T16769   6.226   7.553   0.560
    1STR    H1U16770   6.351   7.643   0.475
    1STR    H1V16771   6.199   7.300   0.496
    1STR    H1W16772   6.345   7.261   0.565
    1STR    H1X16773   6.275   7.045   0.542
    1STR    H1Y16774   6.323   6.853   0.691
    1STR    H1Z16775   6.371   6.621   0.718
    1STR    H2016776   6.579   6.447   0.555
    1STR    H2116777   6.426   6.410   0.635
    1STR    H2216778   6.445   6.375   0.465
    1STR    H2316779   6.512   6.476   0.309
    1STR    H2716780   6.424   6.830   0.282
    1STR    H2816781   5.226   6.443   0.448
    1STR    H2916782   5.334   6.641   0.554
    1STR    H2A16783   5.282   6.931   0.527
    1STR    H2B16784   5.382   6.972   0.388
    1STR    H2C16785   5.444   6.864   0.516
    1STR   BCK116786   5.250   7.218   2.291
    1STR    O0316787   5.334   7.258   2.211
    1STR    N0416788   5.141   7.288   2.326
    1STR    C0516789   5.081   7.361   2.226
    1STR    C0616790   5.127   7.491   2.192
    1STR    C0716791   5.089   7.548   2.068
    1STR    N0816792   5.155   7.658   2.012
    1STR    C0916793   5.111   7.730   1.908
    1STR    O0A16794   4.993   7.730   1.876
    1STR    O0B16795   5.195   7.816   1.844
    1STR    C0C16796   5.333   7.843   1.861
    1STR    C0D16797   5.387   7.847   2.004
    1STR    C0E16798   5.428   7.769   1.764
    1STR    O0F16799   5.394   7.772   1.626
    1STR    C0G16800   5.289   7.687   1.582
    1STR    C0H16801   5.291   7.698   1.430
    1STR    C0I16802   5.301   7.539   1.626
    1STR    O0J16803   5.233   7.512   1.749
    1STR    C0K16804   6.349   6.375   2.312
    1STR    C0M16805   6.335   6.340   2.163
    1STR    C0N16806   6.455   6.481   2.334
    1STR    O0O16807   6.417   6.594   2.408
    1STR    C0P16808   6.463   6.629   2.527
    1STR    O0Q16809   6.491   6.552   2.614
    1STR    N0R16810   6.466   6.760   2.541
    1STR    C0S16811   6.464   6.834   2.658
    1STR    C0T16812   6.529   6.957   2.661
    1STR    C0U16813   6.526   7.036   2.777
    1STR    C0V16814   6.458   6.994   2.892
    1STR    C0W16815   6.484   7.076   3.016
    1STR    C0X16816   6.384   6.873   2.887
    1STR    N0Y16817   6.309   6.826   2.994
    1STR   BCK216818   6.277   6.699   3.024
    1STR    O1016819   6.189   6.675   3.106
    1STR    C1316820   6.382   6.800   2.766
    1STR    C1416821   5.000   7.475   1.989
    1STR    C1516822   4.945   7.354   2.028
    1STR    C1616823   4.991   7.291   2.143
    1STR    C1716824   4.966   7.143   2.160
    1STR    H1B16825   5.081   7.252   2.397
    1STR    H1C16826   5.200   7.537   2.254
    1STR    H1D16827   5.252   7.669   2.032
    1STR    H1E16828   5.335   7.947   1.827
    1STR    H1F16829   5.455   7.766   2.018
    1STR    H1G16830   5.444   7.938   2.023
    1STR    H1H16831   5.313   7.836   2.082
    1STR    H1I16832   5.451   7.667   1.794
    1STR    H1J16833   5.524   7.820   1.772
    1STR    H1K16834   5.196   7.730   1.619
    1STR    H1M16835   5.386   7.665   1.390
    1STR    H1N16836   5.275   7.802   1.399
    1STR    H1O16837   5.212   7.638   1.384
    1STR    H1P16838   5.257   7.472   1.553
    1STR    H1Q16839   5.407   7.514   1.629
    1STR   C01016840   5.288   7.402   1.821
    1STR   H01116841   5.361   7.355   1.758
    1STR   C01216842   5.359   7.455   1.945
    1STR   H01316843   5.311   7.430   2.038
    1STR   H01416844   5.376   7.561   1.945
    1STR   H01516845   5.452   7.407   1.956
    1STR   C01616846   5.191   7.289   1.861
    1STR   H01716847   5.186   7.278   1.969
    1STR   H01816848   5.092   7.304   1.823
    1STR   O01916849   5.237   7.168   1.811
    1STR   C02016850   5.185   7.053   1.871
    1STR   H02116851   5.091   7.070   1.924
    1STR   C02216852   5.161   6.968   1.749
    1STR   H02316853   5.191   6.866   1.755
    1STR   H02416854   5.212   7.008   1.664
    1STR   H02516855   5.057   6.970   1.726
    1STR   C02616856   5.291   6.992   1.961
    1STR   H02716857   5.374   6.972   1.896
    1STR   H02816858   5.321   7.056   2.044
    1STR   O02916859   5.254   6.866   2.007
    1STR   C03016860   5.360   6.783   2.042
    1STR   H03116861   5.449   6.840   2.068
    1STR   C03216862   5.304   6.712   2.164
    1STR   H03316863   5.220   6.649   2.139
    1STR   H03416864   5.275   6.785   2.237
    1STR   H03516865   5.377   6.650   2.212
    1STR   C03616866   5.387   6.690   1.923
    1STR   H03716867   5.479   6.635   1.935
    1STR   H03816868   5.310   6.613   1.932
    1STR   O03916869   5.381   6.756   1.795
    1STR   C04016870   5.506   6.801   1.743
    1STR   H04116871   5.564   6.820   1.832
    1STR   C04216872   5.551   6.680   1.659
    1STR   H04316873   5.480   6.662   1.578
    1STR   H04416874   5.556   6.589   1.719
    1STR   H04516875   5.649   6.696   1.614
    1STR   C04616876   5.504   6.933   1.660
    1STR   H04716877   5.522   6.911   1.555
    1STR   H04816878   5.404   6.972   1.662
    1STR   O04916879   5.597   7.038   1.696
    1STR   C05016880   5.540   7.167   1.729
    1STR   H05116881   5.446   7.180   1.677
    1STR   C05216882   5.520   7.172   1.879
    1STR   H05316883   5.425   7.204   1.915
    1STR   H05416884   5.580   7.243   1.929
    1STR   H05516885   5.534   7.078   1.926
    1STR   C05616886   5.632   7.287   1.694
    1STR   H05716887   5.733   7.255   1.716
    1STR   H05816888   5.630   7.305   1.587
    1STR   O05916889   5.592   7.410   1.764
    1STR   C06016890   5.690   7.478   1.844
    1STR   H06116891   5.760   7.400   1.856
    1STR   C06216892   5.755   7.592   1.767
    1STR   H06316893   5.682   7.669   1.745
    1STR   H06416894   5.794   7.557   1.672
    1STR   H06516895   5.836   7.638   1.824
    1STR   C06616896   5.678   7.500   1.998
    1STR   H06716897   5.632   7.413   2.044
    1STR   H06816898   5.779   7.508   2.039
    1STR   O06916899   5.603   7.607   2.050
    1STR   C07016900   5.608   7.615   2.193
    1STR   H07116901   5.667   7.534   2.238
    1STR   C07216902   5.681   7.748   2.215
    1STR   H07316903   5.624   7.831   2.173
    1STR   H07416904   5.778   7.747   2.167
    1STR   H07516905   5.698   7.771   2.320
    1STR   C07616906   5.466   7.612   2.256
    1STR   H07716907   5.443   7.706   2.308
    1STR   H07816908   5.394   7.608   2.175
    1STR   O07916909   5.430   7.502   2.340
    1STR   C08016910   5.500   7.477   2.463
    1STR   H08116911   5.590   7.424   2.435
    1STR   C08216912   5.543   7.608   2.531
    1STR   H08316913   5.461   7.679   2.542
    1STR   H08416914   5.625   7.656   2.479
    1STR   H08516915   5.580   7.589   2.631
    1STR   C08616916   5.417   7.395   2.566
    1STR   H08716917   5.454   7.415   2.666
    1STR   H08816918   5.324   7.444   2.559
    1STR   O08916919   5.380   7.256   2.553
    1STR   C09016920   5.404   7.176   2.671
    1STR   H09116921   5.497   7.210   2.712
    1STR   C09216922   5.316   7.212   2.791
    1STR   H09316923   5.215   7.171   2.782
    1STR   H09416924   5.308   7.319   2.807
    1STR   H09516925   5.360   7.174   2.884
    1STR   C09616926   5.419   7.022   2.646
    1STR   H09716927   5.474   6.983   2.732
    1STR   H09816928   5.323   6.972   2.646
    1STR   O09916929   5.489   6.982   2.528
    1STR   C10016930   5.493   6.844   2.487
    1STR   H10116931   5.393   6.802   2.493
    1STR   C10216932   5.541   6.843   2.343
    1STR   H10316933   5.476   6.900   2.278
    1STR   H10416934   5.546   6.743   2.302
    1STR   H10516935   5.641   6.885   2.335
    1STR   C10616936   5.587   6.747   2.559
    1STR   H10716937   5.689   6.760   2.526
    1STR   H10816938   5.591   6.764   2.665
    1STR   O10916939   5.543   6.615   2.531
    1STR   C11016940   5.631   6.531   2.456
    1STR   H11116941   5.704   6.590   2.402
    1STR   C11216942   5.704   6.434   2.552
    1STR   H11316943   5.635   6.359   2.591
    1STR   H11416944   5.747   6.486   2.636
    1STR   H11516945   5.783   6.379   2.502
    1STR   C11616946   5.544   6.450   2.359
    1STR   H11716947   5.571   6.345   2.358
    1STR   H11816948   5.443   6.455   2.398
    1STR   O11916949   5.539   6.499   2.226
    1STR   C12016950   5.648   6.472   2.142
    1STR   H12116951   5.711   6.400   2.194
    1STR   C12216952   5.616   6.401   2.011
    1STR   H12316953   5.522   6.435   1.969
    1STR   H12416954   5.611   6.293   2.027
    1STR   H12516955   5.693   6.416   1.935
    1STR   C12616956   5.723   6.600   2.115
    1STR   H12716957   5.768   6.638   2.207
    1STR   H12816958   5.803   6.569   2.049
    1STR   O12916959   5.657   6.708   2.051
    1STR   C13016960   5.756   6.796   1.999
    1STR   H13116961   5.834   6.790   2.072
    1STR   C13216962   5.803   6.747   1.858
    1STR   H13316963   5.760   6.803   1.777
    1STR   H13416964   5.782   6.641   1.841
    1STR   H13516965   5.907   6.761   1.834
    1STR   C13616966   5.728   6.946   2.003
    1STR   H13716967   5.825   6.991   2.016
    1STR   H13816968   5.704   6.979   1.903
    1STR   O13916969   5.633   6.994   2.101
    1STR   C14016970   5.669   7.115   2.169
    1STR   H14116971   5.737   7.052   2.213
    1STR   C14216972   5.765   7.215   2.104
    1STR   H14316973   5.755   7.226   1.998
    1STR   H14416974   5.867   7.183   2.108
    1STR   H14516975   5.767   7.310   2.156
    1STR   C14616976   5.610   7.161   2.306
    1STR   H14716977   5.583   7.265   2.300
    1STR   H14816978   5.518   7.109   2.327
    1STR   O14916979   5.702   7.133   2.415
    1STR   C15016980   5.693   7.203   2.540
    1STR   H15116981   5.594   7.233   2.535
    1STR   C15216982   5.716   7.106   2.654
    1STR   H15316983   5.822   7.099   2.658
    1STR   H15416984   5.677   7.006   2.643
    1STR   H15516985   5.680   7.141   2.749
    1STR   C15616986   5.777   7.328   2.580
    1STR   H15716987   5.879   7.301   2.606
    1STR   H15816988   5.786   7.402   2.501
    1STR   O15916989   5.705   7.382   2.693
    1STR   C16016990   5.776   7.431   2.807
    1STR   H16116991   5.872   7.381   2.820
    1STR   C16216992   5.807   7.579   2.787
    1STR   H16316993   5.717   7.640   2.791
    1STR   H16416994   5.856   7.597   2.691
    1STR   H16516995   5.874   7.615   2.865
    1STR   C16616996   5.686   7.411   2.933
    1STR   H16716997   5.717   7.478   3.013
    1STR   H16816998   5.584   7.441   2.908
    1STR   O16916999   5.677   7.279   2.988
    1STR   C17017000   5.797   7.232   3.049
    1STR   H17117001   5.865   7.316   3.068
    1STR   C17217002   5.774   7.159   3.180
    1STR   H17317003   5.730   7.062   3.159
    1STR   H17417004   5.710   7.214   3.249
    1STR   H17517005   5.870   7.138   3.230
    1STR   C17617006   5.860   7.137   2.950
    1STR   H17717007   5.818   7.037   2.948
    1STR   H17817008   5.848   7.179   2.852
    1STR   O17917009   5.996   7.136   2.981
    1STR   C18017010   6.076   7.126   2.866
    1STR   H18117011   6.045   7.190   2.782
    1STR   C18217012   6.201   7.187   2.919
    1STR   H18317013   6.223   7.138   3.013
    1STR   H18417014   6.183   7.292   2.938
    1STR   H18517015   6.283   7.177   2.848
    1STR   C18617016   6.083   6.980   2.821
    1STR   H18717017   6.177   6.958   2.772
    1STR   H18817018   6.069   6.910   2.903
    1STR   O18917019   5.980   6.973   2.725
    1STR   C19017020   5.959   6.854   2.655
    1STR   H19117021   6.055   6.804   2.648
    1STR   C19217022   5.863   6.774   2.743
    1STR   H19317023   5.777   6.834   2.770
    1STR   H19417024   5.912   6.743   2.835
    1STR   H19517025   5.829   6.684   2.692
    1STR   C19617026   5.905   6.888   2.513
    1STR   H19717027   5.894   6.803   2.446
    1STR   H19817028   5.805   6.928   2.513
    1STR   O19917029   5.983   6.989   2.455
    1STR   C20017030   5.955   7.034   2.324
    1STR   H20117031   5.866   6.978   2.311
    1STR   C20217032   5.953   7.187   2.342
    1STR   H20317033   6.001   7.219   2.434
    1STR   H20417034   5.863   7.245   2.335
    1STR   H20517035   6.004   7.231   2.259
    1STR   C20617036   6.041   6.995   2.200
    1STR   H20717037   6.009   7.046   2.111
    1STR   H20817038   6.142   7.030   2.216
    1STR   O20917039   6.040   6.855   2.172
    1STR   C21017040   6.075   6.813   2.041
    1STR   H21117041   6.002   6.859   1.978
    1STR   C21217042   6.200   6.865   1.976
    1STR   H21317043   6.293   6.825   2.014
    1STR   H21417044   6.200   6.972   1.985
    1STR   H21517045   6.196   6.844   1.870
    1STR   C21617046   6.074   6.659   2.035
    1STR   H21717047   6.031   6.628   1.941
    1STR   H21817048   6.176   6.621   2.036
    1STR   O21917049   6.002   6.603   2.143
    1STR   C22017050   6.020   6.464   2.165
    1STR   H22117051   6.125   6.455   2.174
    1STR   C22217052   5.960   6.432   2.301
    1STR   H22317053   5.858   6.462   2.311
    1STR   H22417054   6.009   6.488   2.378
    1STR   H22517055   5.970   6.326   2.327
    1STR   C22617056   5.971   6.362   2.059
    1STR   H22717057   6.035   6.274   2.064
    1STR   H22817058   5.875   6.322   2.090
    1STR   O22917059   5.948   6.410   1.928
    1STR   C23017060   6.048   6.387   1.830
    1STR   H23117061   6.141   6.434   1.863
    1STR   C23217062   6.074   6.237   1.808
    1STR   H23317063   5.980   6.184   1.794
    1STR   H23417064   6.127   6.191   1.891
    1STR   H23517065   6.135   6.220   1.720
    1STR   C23617066   5.994   6.452   1.700
    1STR   H23717067   6.029   6.398   1.612
    1STR   H23817068   5.886   6.443   1.698
    1STR   O23917069   6.025   6.590   1.683
    1STR   C24017070   6.161   6.630   1.681
    1STR   H24117071   6.195   6.645   1.783
    1STR   C24217072   6.254   6.525   1.616
    1STR   H24317073   6.228   6.507   1.512
    1STR   H24417074   6.255   6.430   1.668
    1STR   H24517075   6.357   6.558   1.620
    1STR   C24617076   6.172   6.763   1.604
    1STR   H24717077   6.276   6.792   1.610
    1STR   H24817078   6.149   6.742   1.499
    1STR   O24917079   6.092   6.873   1.649
    1STR   C25017080   6.118   6.996   1.580
    1STR   H25117081   6.225   7.013   1.581
    1STR   C25217082   6.071   6.989   1.434
    1STR   H25317083   5.966   6.962   1.428
    1STR   H25417084   6.128   6.918   1.375
    1STR   H25517085   6.083   7.086   1.384
    1STR   C25617086   6.055   7.119   1.650
    1STR   H25717087   6.058   7.204   1.583
    1STR   H25817088   5.951   7.099   1.675
    1STR   O25917089   6.129   7.153   1.767
    1STR   C26017090   6.112   7.281   1.829
    1STR   H26117091   6.166   7.360   1.778
    1STR   C26217092   5.972   7.326   1.820
    1STR   H26317093   5.910   7.249   1.864
    1STR   H26417094   5.940   7.346   1.718
    1STR   H26517095   5.963   7.420   1.875
    1STR   C26617096   6.158   7.271   1.977
    1STR   H26717097   6.151   7.169   2.008
    1STR   H26817098   6.263   7.298   1.988
    1STR   O26917099   6.077   7.340   2.071
    1STR   C27017100   6.149   7.413   2.170
    1STR   H27117101   6.209   7.478   2.108
    1STR   C27217102   6.051   7.507   2.241
    1STR   H27317103   5.980   7.453   2.304
    1STR   H27417104   5.993   7.565   2.168
    1STR   H27517105   6.104   7.578   2.304
    1STR   C27617106   6.245   7.339   2.269
    1STR   H27717107   6.339   7.324   2.218
    1STR   H27817108   6.266   7.411   2.346
    1STR   O27917109   6.210   7.216   2.335
    1STR   C28017110   6.274   7.179   2.458
    1STR   H28117111   6.375   7.159   2.432
    1STR   C28217112   6.258   7.288   2.567
    1STR   H28317113   6.154   7.302   2.594
    1STR   H28417114   6.300   7.385   2.541
    1STR   H28517115   6.313   7.260   2.656
    1STR   C28617116   6.244   7.043   2.523
    1STR   H28717117   6.303   7.046   2.613
    1STR   H28817118   6.150   7.038   2.571
    1STR   O28917119   6.298   6.926   2.461
    1STR   C29017120   6.221   6.824   2.398
    1STR   H29117121   6.134   6.869   2.369
    1STR   C29217122   6.300   6.800   2.273
    1STR   H29317123   6.403   6.784   2.292
    1STR   H29417124   6.293   6.889   2.215
    1STR   H29517125   6.261   6.719   2.213
    1STR   C29617126   6.162   6.690   2.452
    1STR   H29717127   6.055   6.691   2.452
    1STR   H29817128   6.179   6.618   2.374
    1STR   O29917129   6.204   6.638   2.577
    1STR   C30017130   6.171   6.503   2.610
    1STR   H30117131   6.225   6.489   2.703
    1STR   C30217132   6.026   6.491   2.653
    1STR   H30317133   5.958   6.530   2.579
    1STR   H30417134   6.011   6.548   2.745
    1STR   H30517135   5.998   6.387   2.675
    1STR   C30617136   6.224   6.388   2.520
    1STR   H30717137   6.324   6.369   2.554
    1STR   H30817138   6.171   6.295   2.542
    1STR   O30917139   6.227   6.406   2.378
    1STR    H1R17140   6.379   6.284   2.357
    1STR    H1S17141   6.428   6.299   2.123
    1STR    H1T17142   6.316   6.428   2.101
    1STR    H1U17143   6.257   6.267   2.146
    1STR    H1V17144   6.470   6.524   2.238
    1STR    H1W17145   6.554   6.444   2.358
    1STR    H1X17146   6.411   6.808   2.470
    1STR    H1Y17147   6.583   6.986   2.574
    1STR    H1Z17148   6.584   7.126   2.782
    1STR    H2017149   6.488   7.016   3.105
    1STR    H2117150   6.581   7.123   3.003
    1STR    H2217151   6.421   7.162   3.033
    1STR    H2317152   6.272   6.895   3.059
    1STR    H2717153   6.319   6.715   2.755
    1STR    H2817154   4.980   7.505   1.888
    1STR    H2917155   4.878   7.308   1.959
    1STR    H2A17156   5.054   7.087   2.132
    1STR    H2B17157   4.882   7.103   2.105
    1STR    H2C17158   4.950   7.120   2.263
    1STR   BCK117159   5.206   6.773   4.627
    1STR    O0317160   5.163   6.780   4.514
    1STR    N0417161   5.271   6.876   4.681
    1STR    C0517162   5.323   6.872   4.807
    1STR    C0617163   5.400   6.761   4.845
    1STR    C0717164   5.405   6.716   4.977
    1STR    N0817165   5.449   6.587   5.001
    1STR    C0917166   5.381   6.489   4.940
    1STR    O0A17167   5.275   6.448   4.985
    1STR    O0B17168   5.433   6.442   4.820
    1STR    C0C17169   5.562   6.474   4.768
    1STR    C0D17170   5.653   6.362   4.818
    1STR    C0E17171   5.567   6.498   4.614
    1STR    O0F17172   5.506   6.621   4.573
    1STR    C0G17173   5.538   6.678   4.444
    1STR    C0H17174   5.519   6.569   4.339
    1STR    C0I17175   5.439   6.797   4.417
    1STR    O0J17176   5.425   6.863   4.290
    1STR    C0K17177   6.301   7.600   4.062
    1STR    C0M17178   6.170   7.652   4.124
    1STR    C0N17179   6.428   7.651   4.130
    1STR    O0O17180   6.433   7.624   4.269
    1STR    C0P17181   6.381   7.712   4.355
    1STR    O0Q17182   6.319   7.813   4.324
    1STR    N0R17183   6.411   7.690   4.482
    1STR    C0S17184   6.481   7.591   4.548
    1STR    C0T17185   6.532   7.622   4.675
    1STR    C0U17186   6.605   7.527   4.746
    1STR    C0V17187   6.619   7.397   4.697
    1STR    C0W17188   6.718   7.308   4.767
    1STR    C0X17189   6.549   7.357   4.581
    1STR    N0Y17190   6.530   7.224   4.544
    1STR   BCK217191   6.490   7.120   4.618
    1STR    O1017192   6.473   7.009   4.571
    1STR    C1317193   6.496   7.459   4.499
    1STR    C1417194   5.354   6.802   5.076
    1STR    C1517195   5.304   6.929   5.038
    1STR    C1617196   5.281   6.963   4.904
    1STR    C1717197   5.209   7.091   4.866
    1STR    H1B17198   5.258   6.965   4.635
    1STR    H1C17199   5.433   6.697   4.766
    1STR    H1D17200   5.549   6.580   4.997
    1STR    H1E17201   5.597   6.566   4.811
    1STR    H1F17202   5.628   6.267   4.771
    1STR    H1G17203   5.758   6.383   4.799
    1STR    H1H17204   5.643   6.348   4.926
    1STR    H1I17205   5.520   6.414   4.562
    1STR    H1J17206   5.671   6.500   4.583
    1STR    H1K17207   5.641   6.713   4.448
    1STR    H1M17208   5.424   6.519   4.354
    1STR    H1N17209   5.599   6.494   4.342
    1STR    H1O17210   5.516   6.610   4.238
    1STR    H1P17211   5.350   6.738   4.412
    1STR    H1Q17212   5.433   6.865   4.501
    1STR   C01017213   5.421   7.007   4.270
    1STR   H01117214   5.522   7.038   4.250
    1STR   C01217215   5.350   7.034   4.136
    1STR   H01317216   5.244   7.027   4.145
    1STR   H01417217   5.382   6.968   4.057
    1STR   H01517218   5.366   7.135   4.102
    1STR   C01617219   5.373   7.106   4.380
    1STR   H01717220   5.289   7.066   4.434
    1STR   H01817221   5.453   7.122   4.452
    1STR   O01917222   5.334   7.231   4.318
    1STR   C02017223   5.395   7.356   4.352
    1STR   H02117224   5.494   7.342   4.394
    1STR   C02217225   5.406   7.428   4.219
    1STR   H02317226   5.314   7.473   4.185
    1STR   H02417227   5.439   7.362   4.140
    1STR   H02517228   5.477   7.509   4.229
    1STR   C02617229   5.302   7.437   4.446
    1STR   H02717230   5.227   7.495   4.392
    1STR   H02817231   5.248   7.361   4.498
    1STR   O02917232   5.365   7.520   4.545
    1STR   C03017233   5.276   7.580   4.640
    1STR   H03117234   5.211   7.625   4.569
    1STR   C03217235   5.208   7.474   4.730
    1STR   H03317236   5.273   7.441   4.811
    1STR   H03417237   5.170   7.387   4.679
    1STR   H03517238   5.123   7.512   4.780
    1STR   C03617239   5.325   7.698   4.732
    1STR   H03717240   5.418   7.741   4.700
    1STR   H03817241   5.256   7.781   4.724
    1STR   O03917242   5.332   7.658   4.870
    1STR   C04017243   5.395   7.741   4.968
    1STR   H04117244   5.503   7.732   4.960
    1STR   C04217245   5.353   7.886   4.947
    1STR   H04317246   5.245   7.892   4.934
    1STR   H04417247   5.402   7.922   4.857
    1STR   H04517248   5.382   7.950   5.029
    1STR   C04617249   5.349   7.692   5.107
    1STR   H04717250   5.298   7.773   5.160
    1STR   H04817251   5.277   7.612   5.093
    1STR   O04917252   5.454   7.657   5.197
    1STR   C05017253   5.434   7.531   5.260
    1STR   H05117254   5.328   7.510   5.277
    1STR   C05217255   5.494   7.431   5.164
    1STR   H05317256   5.601   7.444   5.150
    1STR   H05417257   5.449   7.443   5.065
    1STR   H05517258   5.479   7.329   5.200
    1STR   C05617259   5.505   7.527   5.396
    1STR   H05717260   5.610   7.548   5.381
    1STR   H05817261   5.465   7.608   5.457
    1STR   O05917262   5.479   7.404   5.466
    1STR   C06017263   5.590   7.315   5.480
    1STR   H06117264   5.630   7.292   5.381
    1STR   C06217265   5.695   7.377   5.574
    1STR   H06317266   5.652   7.395   5.672
    1STR   H06417267   5.735   7.471   5.537
    1STR   H06517268   5.780   7.309   5.586
    1STR   C06617269   5.544   7.182   5.543
    1STR   H06717270   5.625   7.131   5.595
    1STR   H06817271   5.475   7.204   5.623
    1STR   O06917272   5.482   7.097   5.448
    1STR   C07017273   5.565   6.991   5.403
    1STR   H07117274   5.668   7.011   5.431
    1STR   C07217275   5.523   6.862   5.472
    1STR   H07317276   5.417   6.842   5.458
    1STR   H07417277   5.544   6.870   5.577
    1STR   H07517278   5.578   6.775   5.435
    1STR   C07617279   5.567   6.973   5.252
    1STR   H07717280   5.671   6.973   5.226
    1STR   H07817281   5.537   6.872   5.227
    1STR   O07917282   5.500   7.068   5.171
    1STR   C08017283   5.573   7.101   5.053
    1STR   H08117284   5.656   7.151   5.098
    1STR   C08217285   5.615   6.977   4.972
    1STR   H08317286   5.551   6.953   4.889
    1STR   H08417287   5.629   6.885   5.027
    1STR   H08517288   5.708   6.997   4.923
    1STR   C08617289   5.500   7.197   4.958
    1STR   H08717290   5.453   7.132   4.888
    1STR   H08817291   5.419   7.248   5.007
    1STR   O08917292   5.584   7.286   4.884
    1STR   C09017293   5.545   7.328   4.751
    1STR   H09117294   5.616   7.298   4.680
    1STR   C09217295   5.432   7.252   4.687
    1STR   H09317296   5.338   7.266   4.736
    1STR   H09417297   5.449   7.145   4.681
    1STR   H09517298   5.423   7.284   4.586
    1STR   C09617299   5.571   7.477   4.724
    1STR   H09717300   5.482   7.526   4.749
    1STR   H09817301   5.634   7.515   4.801
    1STR   O09917302   5.633   7.514   4.598
    1STR   C10017303   5.635   7.656   4.565
    1STR   H10117304   5.533   7.684   4.544
    1STR   C10217305   5.689   7.741   4.681
    1STR   H10317306   5.631   7.730   4.773
    1STR   H10417307   5.688   7.847   4.656
    1STR   H10517308   5.791   7.713   4.704
    1STR   C10617309   5.707   7.698   4.434
    1STR   H10717310   5.699   7.806   4.430
    1STR   H10817311   5.813   7.678   4.437
    1STR   O10917312   5.644   7.642   4.319
    1STR   C11017313   5.674   7.694   4.188
    1STR   H11117314   5.590   7.660   4.128
    1STR   C11217315   5.665   7.847   4.181
    1STR   H11317316   5.751   7.894   4.229
    1STR   H11417317   5.575   7.883   4.230
    1STR   H11517318   5.663   7.881   4.078
    1STR   C11617319   5.798   7.638   4.114
    1STR   H11717320   5.771   7.598   4.016
    1STR   H11817321   5.865   7.721   4.092
    1STR   O11917322   5.880   7.543   4.181
    1STR   C12017323   5.834   7.411   4.209
    1STR   H12117324   5.918   7.347   4.184
    1STR   C12217325   5.817   7.408   4.361
    1STR   H12317326   5.871   7.488   4.409
    1STR   H12417327   5.860   7.322   4.410
    1STR   H12517328   5.714   7.415   4.392
    1STR   C12617329   5.711   7.354   4.133
    1STR   H12717330   5.653   7.296   4.204
    1STR   H12817331   5.646   7.433   4.098
    1STR   O12917332   5.743   7.266   4.025
    1STR   C13017333   5.628   7.208   3.962
    1STR   H13117334   5.543   7.217   4.028
    1STR   C13217335   5.599   7.287   3.836
    1STR   H13317336   5.582   7.392   3.860
    1STR   H13417337   5.510   7.249   3.786
    1STR   H13517338   5.683   7.282   3.766
    1STR   C13617339   5.640   7.056   3.935
    1STR   H13717340   5.552   7.018   3.883
    1STR   H13817341   5.727   7.033   3.873
    1STR   O13917342   5.652   6.992   4.061
    1STR   C14017343   5.639   6.851   4.073
    1STR   H14117344   5.535   6.823   4.084
    1STR   C14217345   5.689   6.768   3.956
    1STR   H14317346   5.793   6.792   3.935
    1STR   H14417347   5.626   6.786   3.869
    1STR   H14517348   5.682   6.662   3.978
    1STR   C14617349   5.712   6.814   4.203
    1STR   H14717350   5.664   6.854   4.290
    1STR   H14817351   5.712   6.706   4.214
    1STR   O14917352   5.847   6.850   4.204
    1STR   C15017353   5.891   6.978   4.242
    1STR   H15117354   5.973   6.955   4.306
    1STR   C15217355   5.944   7.043   4.114
    1STR   H15317356   5.869   7.069   4.044
    1STR   H15417357   6.009   6.973   4.061
    1STR   H15517358   5.997   7.134   4.137
    1STR   C15617359   5.808   7.074   4.327
    1STR   H15717360   5.820   7.169   4.280
    1STR   H15817361   5.704   7.057   4.316
    1STR   O15917362   5.851   7.086   4.463
    1STR   C16017363   5.752   7.126   4.557
    1STR   H16117364   5.690   7.204   4.511
    1STR   C16217365   5.669   6.997   4.573
    1STR   H16317366   5.610   6.979   4.484
    1STR   H16417367   5.601   6.998   4.658
    1STR   H16517368   5.733   6.910   4.581
    1STR   C16617369   5.803   7.176   4.697
    1STR   H16717370   5.727   7.142   4.766
    1STR   H16817371   5.888   7.124   4.727
    1STR   O16917372   5.835   7.313   4.731
    1STR   C17017373   5.889   7.342   4.865
    1STR   H17117374   5.995   7.358   4.854
    1STR   C17217375   5.840   7.477   4.917
    1STR   H17317376   5.741   7.469   4.962
    1STR   H17417377   5.841   7.551   4.838
    1STR   H17517378   5.902   7.512   4.999
    1STR   C17617379   5.872   7.238   4.980
    1STR   H17717380   5.791   7.177   4.951
    1STR   H17817381   5.950   7.165   4.986
    1STR   O17917382   5.829   7.294   5.105
    1STR   C18017383   5.912   7.283   5.220
    1STR   H18117384   6.016   7.286   5.195
    1STR   C18217385   5.886   7.412   5.297
    1STR   H18317386   5.780   7.427   5.309
    1STR   H18417387   5.923   7.497   5.241
    1STR   H18517388   5.935   7.412   5.395
    1STR   C18617389   5.896   7.154   5.302
    1STR   H18717390   5.983   7.144   5.366
    1STR   H18817391   5.809   7.161   5.366
    1STR   O18917392   5.881   7.042   5.216
    1STR   C19017393   5.930   6.914   5.254
    1STR   H19117394   6.037   6.918   5.243
    1STR   C19217395   5.901   6.869   5.398
    1STR   H19317396   5.961   6.781   5.423
    1STR   H19417397   5.798   6.840   5.412
    1STR   H19517398   5.926   6.946   5.472
    1STR   C19617399   5.875   6.813   5.151
    1STR   H19717400   5.933   6.721   5.151
    1STR   H19817401   5.774   6.783   5.175
    1STR   O19917402   5.874   6.878   5.025
    1STR   C20017403   5.899   6.801   4.909
    1STR   H20117404   5.989   6.747   4.932
    1STR   C20217405   5.789   6.699   4.886
    1STR   H20317406   5.699   6.749   4.853
    1STR   H20417407   5.768   6.640   4.975
    1STR   H20517408   5.821   6.630   4.808
    1STR   C20617409   5.920   6.889   4.783
    1STR   H20717410   5.926   6.833   4.692
    1STR   H20817411   5.827   6.939   4.769
    1STR   O20917412   6.030   6.981   4.794
    1STR   C21017413   6.116   7.029   4.688
    1STR   H21117414   6.218   7.017   4.724
    1STR   C21217415   6.114   6.946   4.567
    1STR   H21317416   6.015   6.933   4.527
    1STR   H21417417   6.159   6.849   4.585
    1STR   H21517418   6.174   6.998   4.493
    1STR   C21617419   6.107   7.179   4.652
    1STR   H21717420   6.021   7.202   4.591
    1STR   H21817421   6.103   7.240   4.740
    1STR   O21917422   6.220   7.223   4.582
    1STR   C22017423   6.195   7.325   4.487
    1STR   H22117424   6.296   7.336   4.454
    1STR   C22217425   6.131   7.279   4.358
    1STR   H22317426   6.046   7.213   4.372
    1STR   H22417427   6.207   7.225   4.305
    1STR   H22517428   6.105   7.362   4.294
    1STR   C22617429   6.149   7.465   4.529
    1STR   H22717430   6.227   7.530   4.493
    1STR   H22817431   6.064   7.496   4.471
    1STR   O22917432   6.122   7.492   4.665
    1STR   C23017433   6.152   7.626   4.702
    1STR   H23117434   6.260   7.636   4.696
    1STR   C23217435   6.086   7.731   4.610
    1STR   H23317436   5.980   7.709   4.598
    1STR   H23417437   6.129   7.733   4.510
    1STR   H23517438   6.095   7.832   4.651
    1STR   C23617439   6.114   7.654   4.848
    1STR   H23717440   6.171   7.736   4.888
    1STR   H23817441   6.011   7.686   4.853
    1STR   O23917442   6.125   7.545   4.936
    1STR   C24017443   6.242   7.465   4.940
    1STR   H24117444   6.255   7.405   4.850
    1STR   C24217445   6.366   7.552   4.966
    1STR   H24317446   6.358   7.605   5.061
    1STR   H24417447   6.382   7.624   4.888
    1STR   H24517448   6.454   7.488   4.971
    1STR   C24617449   6.216   7.375   5.061
    1STR   H24717450   6.305   7.367   5.121
    1STR   H24817451   6.151   7.431   5.128
    1STR   O24917452   6.151   7.249   5.032
    1STR   C25017453   6.224   7.137   4.984
    1STR   H25117454   6.240   7.154   4.880
    1STR   C25217455   6.347   7.137   5.061
    1STR   H25317456   6.306   7.153   5.158
    1STR   H25417457   6.418   7.213   5.031
    1STR   H25517458   6.391   7.040   5.069
    1STR   C25617459   6.172   6.993   5.014
    1STR   H25717460   6.192   6.965   5.115
    1STR   H25817461   6.065   6.990   5.009
    1STR   O25917462   6.243   6.903   4.926
    1STR   C26017463   6.236   6.761   4.929
    1STR   H26117464   6.343   6.744   4.934
    1STR   C26217465   6.193   6.692   5.061
    1STR   H26317466   6.133   6.604   5.042
    1STR   H26417467   6.138   6.758   5.126
    1STR   H26517468   6.280   6.661   5.119
    1STR   C26617469   6.204   6.685   4.795
    1STR   H26717470   6.276   6.714   4.718
    1STR   H26817471   6.224   6.584   4.822
    1STR   O26917472   6.072   6.674   4.737
    1STR   C27017473   6.054   6.591   4.621
    1STR   H27117474   6.145   6.602   4.567
    1STR   C27217475   6.032   6.449   4.672
    1STR   H27317476   5.928   6.431   4.695
    1STR   H27417477   6.086   6.428   4.763
    1STR   H27517478   6.061   6.376   4.596
    1STR   C27617479   5.936   6.620   4.522
    1STR   H27717480   5.896   6.527   4.483
    1STR   H27817481   5.853   6.666   4.576
    1STR   O27917482   5.960   6.698   4.405
    1STR   C28017483   6.058   6.652   4.311
    1STR   H28117484   6.101   6.563   4.353
    1STR   C28217485   6.003   6.608   4.175
    1STR   H28317486   5.984   6.692   4.109
    1STR   H28417487   5.912   6.550   4.186
    1STR   H28517488   6.076   6.547   4.121
    1STR   C28617489   6.164   6.764   4.303
    1STR   H28717490   6.126   6.835   4.370
    1STR   H28817491   6.256   6.736   4.351
    1STR   O28917492   6.185   6.843   4.185
    1STR   C29017493   6.233   6.977   4.213
    1STR   H29117494   6.154   7.029   4.265
    1STR   C29217495   6.355   6.992   4.305
    1STR   H29317496   6.362   7.092   4.347
    1STR   H29417497   6.447   6.975   4.252
    1STR   H29517498   6.350   6.924   4.388
    1STR   C29617499   6.261   7.052   4.083
    1STR   H29717500   6.367   7.055   4.066
    1STR   H29817501   6.213   6.997   4.003
    1STR   O29917502   6.216   7.186   4.083
    1STR   C30017503   6.232   7.253   3.960
    1STR   H30117504   6.337   7.245   3.930
    1STR   C30217505   6.137   7.197   3.853
    1STR   H30317506   6.034   7.195   3.890
    1STR   H30417507   6.162   7.095   3.822
    1STR   H30517508   6.138   7.257   3.763
    1STR   C30617509   6.201   7.399   3.986
    1STR   H30717510   6.192   7.451   3.890
    1STR   H30817511   6.105   7.407   4.037
    1STR   O30917512   6.305   7.458   4.063
    1STR    H1R17513   6.306   7.634   3.958
    1STR    H1S17514   6.170   7.761   4.133
    1STR    H1T17515   6.154   7.610   4.223
    1STR    H1U17516   6.084   7.627   4.063
    1STR    H1V17517   6.441   7.758   4.112
    1STR    H1W17518   6.513   7.601   4.085
    1STR    H1X17519   6.377   7.766   4.539
    1STR    H1Y17520   6.522   7.722   4.715
    1STR    H1Z17521   6.654   7.554   4.838
    1STR    H2017522   6.678   7.271   4.860
    1STR    H2117523   6.752   7.225   4.705
    1STR    H2217524   6.804   7.367   4.795
    1STR    H2317525   6.531   7.195   4.448
    1STR    H2717526   6.459   7.434   4.402
    1STR    H2817527   5.354   6.772   5.180
    1STR    H2917528   5.273   7.001   5.111
    1STR    H2A17529   5.205   7.108   4.759
    1STR    H2B17530   5.247   7.179   4.915
    1STR    H2C17531   5.108   7.093   4.898
    1STR   BCK117532   5.246   6.341   7.109
    1STR    O0317533   5.309   6.427   7.052
    1STR    N0417534   5.255   6.211   7.078
    1STR    C0517535   5.330   6.161   6.972
    1STR    C0617536   5.293   6.192   6.840
    1STR    C0717537   5.378   6.168   6.731
    1STR    N0817538   5.348   6.227   6.608
    1STR    C0917539   5.362   6.175   6.486
    1STR    O0A17540   5.403   6.061   6.467
    1STR    O0B17541   5.317   6.251   6.383
    1STR    C0C17542   5.330   6.393   6.367
    1STR    C0D17543   5.305   6.410   6.217
    1STR    C0E17544   5.232   6.485   6.444
    1STR    O0F17545   5.255   6.470   6.582
    1STR    C0G17546   5.177   6.551   6.668
    1STR    C0H17547   5.205   6.489   6.800
    1STR    C0I17548   5.218   6.696   6.685
    1STR    O0J17549   5.202   6.774   6.569
    1STR    C0K17550   6.398   6.659   7.500
    1STR    C0M17551   6.261   6.603   7.468
    1STR    C0N17552   6.495   6.543   7.501
    1STR    O0O17553   6.458   6.461   7.610
    1STR    C0P17554   6.495   6.336   7.619
    1STR    O0Q17555   6.574   6.296   7.703
    1STR    N0R17556   6.435   6.248   7.537
    1STR    C0S17557   6.355   6.262   7.424
    1STR    C0T17558   6.219   6.223   7.423
    1STR    C0U17559   6.150   6.208   7.300
    1STR    C0V17560   6.215   6.232   7.177
    1STR    C0W17561   6.149   6.194   7.045
    1STR    C0X17562   6.347   6.281   7.178
    1STR    N0Y17563   6.413   6.317   7.062
    1STR   BCK217564   6.448   6.443   7.035
    1STR    O1017565   6.485   6.477   6.924
    1STR    C1317566   6.415   6.291   7.301
    1STR    C1417567   5.496   6.094   6.753
    1STR    C1517568   5.527   6.048   6.883
    1STR    C1617569   5.445   6.082   6.993
    1STR    C1717570   5.480   6.034   7.132
    1STR    H1B17571   5.189   6.153   7.130
    1STR    H1C17572   5.199   6.239   6.824
    1STR    H1D17573   5.310   6.323   6.610
    1STR    H1E17574   5.432   6.422   6.391
    1STR    H1F17575   5.208   6.369   6.189
    1STR    H1G17576   5.305   6.514   6.188
    1STR    H1H17577   5.382   6.359   6.159
    1STR    H1I17578   5.129   6.470   6.416
    1STR    H1J17579   5.248   6.589   6.418
    1STR    H1K17580   5.070   6.545   6.648
    1STR    H1M17581   5.303   6.441   6.802
    1STR    H1N17582   5.127   6.421   6.830
    1STR    H1O17583   5.213   6.563   6.879
    1STR    H1P17584   5.154   6.738   6.763
    1STR    H1Q17585   5.320   6.700   6.725
    1STR   C01017586   5.263   6.900   6.588
    1STR   H01117587   5.365   6.878   6.615
    1STR   C01217588   5.261   6.982   6.458
    1STR   H01317589   5.184   7.056   6.449
    1STR   H01417590   5.263   6.922   6.368
    1STR   H01517591   5.343   7.049   6.460
    1STR   C01617592   5.209   6.982   6.703
    1STR   H01717593   5.229   7.087   6.683
    1STR   H01817594   5.104   6.965   6.714
    1STR   O01917595   5.263   6.946   6.828
    1STR   C02017596   5.238   7.043   6.927
    1STR   H02117597   5.148   7.089   6.896
    1STR   C02217598   5.212   6.963   7.049
    1STR   H02317599   5.288   6.889   7.071
    1STR   H02417600   5.119   6.911   7.037
    1STR   H02517601   5.206   7.032   7.131
    1STR   C02617602   5.338   7.157   6.959
    1STR   H02717603   5.433   7.120   6.996
    1STR   H02817604   5.357   7.219   6.873
    1STR   O02917605   5.281   7.246   7.054
    1STR   C03017606   5.367   7.290   7.157
    1STR   H03117607   5.473   7.283   7.132
    1STR   C03217608   5.334   7.437   7.173
    1STR   H03317609   5.227   7.453   7.165
    1STR   H03417610   5.378   7.493   7.092
    1STR   H03517611   5.370   7.477   7.267
    1STR   C03617612   5.343   7.207   7.283
    1STR   H03717613   5.388   7.260   7.368
    1STR   H03817614   5.236   7.197   7.302
    1STR   O03917615   5.404   7.081   7.263
    1STR   C04017616   5.404   6.985   7.368
    1STR   H04117617   5.492   6.929   7.351
    1STR   C04217618   5.422   7.048   7.508
    1STR   H04317619   5.340   7.112   7.537
    1STR   H04417620   5.509   7.114   7.511
    1STR   H04517621   5.437   6.972   7.584
    1STR   C04617622   5.312   6.864   7.345
    1STR   H04717623   5.279   6.822   7.438
    1STR   H04817624   5.227   6.908   7.298
    1STR   O04917625   5.354   6.753   7.262
    1STR   C05017626   5.458   6.667   7.310
    1STR   H05117627   5.537   6.735   7.300
    1STR   C05217628   5.443   6.628   7.458
    1STR   H05317629   5.350   6.578   7.474
    1STR   H05417630   5.449   6.717   7.520
    1STR   H05517631   5.520   6.560   7.492
    1STR   C05617632   5.510   6.544   7.231
    1STR   H05717633   5.604   6.519   7.280
    1STR   H05817634   5.444   6.459   7.249
    1STR   O05917635   5.536   6.559   7.092
    1STR   C06017636   5.626   6.471   7.020
    1STR   H06117637   5.720   6.525   7.007
    1STR   C06217638   5.659   6.345   7.101
    1STR   H06317639   5.565   6.301   7.133
    1STR   H06417640   5.720   6.365   7.189
    1STR   H06517641   5.712   6.271   7.042
    1STR   C06617642   5.578   6.427   6.877
    1STR   H06717643   5.651   6.357   6.836
    1STR   H06817644   5.491   6.365   6.895
    1STR   O06917645   5.535   6.520   6.775
    1STR   C07017646   5.618   6.548   6.660
    1STR   H07117647   5.710   6.592   6.698
    1STR   C07217648   5.654   6.421   6.583
    1STR   H07317649   5.565   6.361   6.564
    1STR   H07417650   5.726   6.359   6.635
    1STR   H07517651   5.699   6.446   6.486
    1STR   C07617652   5.546   6.651   6.566
    1STR   H07717653   5.454   6.608   6.531
    1STR   H07817654   5.518   6.739   6.621
    1STR   O07917655   5.627   6.693   6.456
    1STR   C08017656   5.575   6.785   6.357
    1STR   H08117657   5.652   6.783   6.279
    1STR   C08217658   5.453   6.730   6.287
    1STR   H08317659   5.368   6.737   6.353
    1STR   H08417660   5.471   6.626   6.260
    1STR   H08517661   5.428   6.786   6.197
    1STR   C08617662   5.560   6.937   6.391
    1STR   H08717663   5.639   6.995   6.345
    1STR   H08817664   5.479   6.977   6.334
    1STR   O08917665   5.548   6.960   6.533
    1STR   C09017666   5.575   7.083   6.604
    1STR   H09117667   5.678   7.111   6.608
    1STR   C09217668   5.513   7.208   6.545
    1STR   H09317669   5.407   7.214   6.565
    1STR   H09417670   5.534   7.216   6.438
    1STR   H09517671   5.558   7.294   6.595
    1STR   C09617672   5.534   7.068   6.752
    1STR   H09717673   5.540   7.165   6.796
    1STR   H09817674   5.433   7.045   6.746
    1STR   O09917675   5.602   6.972   6.834
    1STR   C10017676   5.550   6.901   6.949
    1STR   H10117677   5.445   6.909   6.942
    1STR   C10217678   5.575   6.761   6.909
    1STR   H10317679   5.597   6.755   6.805
    1STR   H10417680   5.485   6.703   6.927
    1STR   H10517681   5.662   6.722   6.960
    1STR   C10617682   5.587   6.920   7.101
    1STR   H10717683   5.591   7.026   7.124
    1STR   H10817684   5.494   6.891   7.146
    1STR   O10917685   5.686   6.835   7.172
    1STR   C11017686   5.745   6.863   7.305
    1STR   H11117687   5.846   6.891   7.282
    1STR   C11217688   5.710   6.985   7.389
    1STR   H11317689   5.650   6.955   7.474
    1STR   H11417690   5.659   7.063   7.335
    1STR   H11517691   5.797   7.024   7.440
    1STR   C11617692   5.760   6.745   7.406
    1STR   H11717693   5.667   6.712   7.444
    1STR   H11817694   5.802   6.653   7.364
    1STR   O11917695   5.833   6.788   7.520
    1STR   C12017696   5.766   6.776   7.645
    1STR   H12117697   5.657   6.770   7.638
    1STR   C12217698   5.816   6.645   7.706
    1STR   H12317699   5.924   6.641   7.702
    1STR   H12417700   5.779   6.559   7.650
    1STR   H12517701   5.784   6.633   7.810
    1STR   C12617702   5.794   6.903   7.728
    1STR   H12717703   5.797   6.876   7.833
    1STR   H12817704   5.890   6.945   7.697
    1STR   O12917705   5.687   6.996   7.709
    1STR   C13017706   5.697   7.127   7.764
    1STR   H13117707   5.595   7.165   7.759
    1STR   C13217708   5.735   7.129   7.913
    1STR   H13317709   5.840   7.107   7.930
    1STR   H13417710   5.676   7.057   7.970
    1STR   H13517711   5.718   7.227   7.956
    1STR   C13617712   5.783   7.221   7.677
    1STR   H13717713   5.856   7.276   7.737
    1STR   H13817714   5.840   7.163   7.605
    1STR   O13917715   5.700   7.317   7.613
    1STR   C14017716   5.765   7.388   7.508
    1STR   H14117717   5.869   7.408   7.534
    1STR   C14217718   5.756   7.305   7.380
    1STR   H14317719   5.653   7.275   7.360
    1STR   H14417720   5.822   7.220   7.384
    1STR   H14517721   5.790   7.358   7.293
    1STR   C14617722   5.696   7.522   7.485
    1STR   H14717723   5.590   7.506   7.469
    1STR   H14817724   5.707   7.586   7.573
    1STR   O14917725   5.764   7.582   7.375
    1STR   C15017726   5.683   7.628   7.268
    1STR   H15117727   5.578   7.605   7.283
    1STR   C15217728   5.704   7.780   7.273
    1STR   H15317729   5.809   7.805   7.261
    1STR   H15417730   5.671   7.820   7.369
    1STR   H15517731   5.648   7.831   7.196
    1STR   C15617732   5.726   7.565   7.133
    1STR   H15717733   5.742   7.645   7.061
    1STR   H15817734   5.820   7.512   7.145
    1STR   O15917735   5.627   7.474   7.085
    1STR   C16017736   5.621   7.437   6.945
    1STR   H16117737   5.521   7.397   6.934
    1STR   C16217738   5.649   7.550   6.843
    1STR   H16317739   5.753   7.578   6.840
    1STR   H16417740   5.592   7.639   6.860
    1STR   H16517741   5.623   7.517   6.743
    1STR   C16617742   5.710   7.323   6.902
    1STR   H16717743   5.708   7.310   6.794
    1STR   H16817744   5.805   7.367   6.922
    1STR   O16917745   5.689   7.194   6.959
    1STR   C17017746   5.808   7.116   6.959
    1STR   H17117747   5.883   7.182   6.934
    1STR   C17217748   5.828   7.082   7.100
    1STR   H17317749   5.842   6.976   7.105
    1STR   H17417750   5.758   7.128   7.168
    1STR   H17517751   5.919   7.116   7.136
    1STR   C17617752   5.853   6.997   6.870
    1STR   H17717753   5.958   6.980   6.888
    1STR   H17817754   5.806   6.905   6.904
    1STR   O17917755   5.838   7.018   6.730
    1STR   C18017756   5.814   6.903   6.646
    1STR   H18117757   5.713   6.869   6.661
    1STR   C18217758   5.829   6.938   6.495
    1STR   H18317759   5.924   6.956   6.450
    1STR   H18417760   5.788   7.033   6.468
    1STR   H18517761   5.794   6.857   6.434
    1STR   C18617762   5.894   6.783   6.689
    1STR   H18717763   5.852   6.745   6.781
    1STR   H18817764   5.887   6.700   6.619
    1STR   O18917765   6.025   6.826   6.714
    1STR   C19017766   6.092   6.875   6.601
    1STR   H19117767   6.189   6.845   6.638
    1STR   C19217768   6.078   6.780   6.475
    1STR   H19317769   5.980   6.759   6.435
    1STR   H19417770   6.106   6.680   6.505
    1STR   H19517771   6.137   6.804   6.387
    1STR   C19617772   6.100   7.036   6.601
    1STR   H19717773   6.134   7.061   6.700
    1STR   H19817774   6.179   7.071   6.539
    1STR   O19917775   5.995   7.129   6.566
    1STR   C20017776   6.005   7.267   6.603
    1STR   H20117777   6.089   7.308   6.548
    1STR   C20217778   5.879   7.339   6.557
    1STR   H20317779   5.792   7.293   6.602
    1STR   H20417780   5.868   7.332   6.449
    1STR   H20517781   5.881   7.444   6.586
    1STR   C20617782   6.029   7.280   6.755
    1STR   H20717783   6.009   7.187   6.801
    1STR   H20817784   6.132   7.271   6.756
    1STR   O20917785   6.004   7.401   6.830
    1STR   C21017786   6.064   7.419   6.962
    1STR   H21117787   6.171   7.416   6.954
    1STR   C21217788   6.027   7.563   6.997
    1STR   H21317789   6.024   7.582   7.104
    1STR   H21417790   5.930   7.588   6.957
    1STR   H21517791   6.098   7.632   6.951
    1STR   C21617792   6.026   7.309   7.068
    1STR   H21717793   5.920   7.318   7.072
    1STR   H21817794   6.061   7.213   7.032
    1STR   O21917795   6.028   7.306   7.211
    1STR   C22017796   6.105   7.209   7.286
    1STR   H22117797   6.203   7.218   7.245
    1STR   C22217798   6.099   7.270   7.427
    1STR   H22317799   6.058   7.370   7.429
    1STR   H22417800   6.199   7.278   7.469
    1STR   H22517801   6.037   7.213   7.495
    1STR   C22617802   6.075   7.054   7.303
    1STR   H22717803   6.149   7.016   7.372
    1STR   H22817804   5.981   7.042   7.354
    1STR   O22917805   6.071   6.971   7.186
    1STR   C23017806   6.110   6.833   7.184
    1STR   H23117807   6.214   6.819   7.208
    1STR   C23217808   6.039   6.746   7.283
    1STR   H23317809   5.945   6.721   7.241
    1STR   H23417810   6.030   6.793   7.381
    1STR   H23517811   6.088   6.650   7.292
    1STR   C23617812   6.082   6.773   7.044
    1STR   H23717813   5.976   6.755   7.027
    1STR   H23817814   6.110   6.838   6.963
    1STR   O23917815   6.163   6.657   7.033
    1STR   C24017816   6.103   6.535   6.993
    1STR   H24117817   6.188   6.467   6.999
    1STR   C24217818   5.996   6.487   7.093
    1STR   H24317819   5.917   6.560   7.108
    1STR   H24417820   6.041   6.465   7.190
    1STR   H24517821   5.945   6.397   7.060
    1STR   C24617822   6.054   6.533   6.848
    1STR   H24717823   6.034   6.431   6.816
    1STR   H24817824   5.959   6.582   6.846
    1STR   O24917825   6.141   6.599   6.757
    1STR   C25017826   6.251   6.525   6.709
    1STR   H25117827   6.291   6.470   6.794
    1STR   C25217828   6.208   6.422   6.603
    1STR   H25317829   6.149   6.469   6.525
    1STR   H25417830   6.150   6.342   6.647
    1STR   H25517831   6.295   6.378   6.555
    1STR   C25617832   6.362   6.620   6.659
    1STR   H25717833   6.392   6.689   6.739
    1STR   H25817834   6.445   6.554   6.639
    1STR   O25917835   6.330   6.690   6.540
    1STR   C26017836   6.422   6.787   6.489
    1STR   H26117837   6.508   6.790   6.553
    1STR   C26217838   6.446   6.744   6.345
    1STR   H26317839   6.361   6.768   6.281
    1STR   H26417840   6.460   6.636   6.339
    1STR   H26517841   6.535   6.791   6.303
    1STR   C26617842   6.372   6.931   6.495
    1STR   H26717843   6.279   6.928   6.443
    1STR   H26817844   6.360   6.963   6.598
    1STR   O26917845   6.442   7.030   6.426
    1STR   C27017846   6.371   7.151   6.393
    1STR   H27117847   6.434   7.194   6.318
    1STR   C27217848   6.242   7.142   6.307
    1STR   H27317849   6.152   7.172   6.360
    1STR   H27417850   6.227   7.042   6.266
    1STR   H27517851   6.249   7.209   6.222
    1STR   C27617852   6.379   7.256   6.504
    1STR   H27717853   6.485   7.278   6.517
    1STR   H27817854   6.329   7.348   6.472
    1STR   O27917855   6.328   7.219   6.631
    1STR   C28017856   6.357   7.316   6.731
    1STR   H28117857   6.462   7.333   6.724
    1STR   C28217858   6.285   7.452   6.709
    1STR   H28317859   6.186   7.451   6.666
    1STR   H28417860   6.340   7.512   6.639
    1STR   H28517861   6.279   7.511   6.799
    1STR   C28617862   6.351   7.256   6.872
    1STR   H28717863   6.435   7.191   6.878
    1STR   H28817864   6.364   7.332   6.949
    1STR   O28917865   6.248   7.169   6.906
    1STR   C29017866   6.283   7.054   6.980
    1STR   H29117867   6.186   7.026   7.014
    1STR   C29217868   6.326   6.949   6.880
    1STR   H29317869   6.420   6.972   6.834
    1STR   H29417870   6.254   6.943   6.802
    1STR   H29517871   6.324   6.848   6.916
    1STR   C29617872   6.379   7.075   7.099
    1STR   H29717873   6.482   7.062   7.067
    1STR   H29817874   6.370   7.179   7.129
    1STR   O29917875   6.349   6.990   7.208
    1STR   C30017876   6.429   6.994   7.325
    1STR   H30117877   6.533   6.980   7.296
    1STR   C30217878   6.420   7.129   7.395
    1STR   H30317879   6.384   7.209   7.334
    1STR   H30417880   6.519   7.160   7.421
    1STR   H30517881   6.362   7.127   7.486
    1STR   C30617882   6.386   6.883   7.426
    1STR   H30717883   6.413   6.913   7.527
    1STR   H30817884   6.278   6.873   7.428
    1STR   O30917885   6.441   6.755   7.403
    1STR    H1R17886   6.395   6.703   7.599
    1STR    H1S17887   6.233   6.522   7.534
    1STR    H1T17888   6.259   6.563   7.366
    1STR    H1U17889   6.186   6.680   7.480
    1STR    H1V17890   6.597   6.575   7.509
    1STR    H1W17891   6.493   6.493   7.406
    1STR    H1X17892   6.464   6.155   7.563
    1STR    H1Y17893   6.170   6.200   7.516
    1STR    H1Z17894   6.048   6.172   7.301
    1STR    H2017895   6.099   6.275   6.995
    1STR    H2117896   6.223   6.161   6.972
    1STR    H2217897   6.076   6.115   7.059
    1STR    H2317898   6.442   6.248   6.992
    1STR    H2717899   6.518   6.318   7.297
    1STR    H2817900   5.563   6.073   6.672
    1STR    H2917901   5.616   5.990   6.899
    1STR    H2A17902   5.551   6.098   7.183
    1STR    H2B17903   5.524   5.934   7.125
    1STR    H2C17904   5.391   6.029   7.193
    1STR   BCK117905   7.377   9.105   0.252
    1STR    O0317906   7.324   9.100   0.361
    1STR    N0417907   7.413   9.212   0.180
    1STR    C0517908   7.420   0.026   0.209
    1STR    C0617909   7.423   0.066   0.343
    1STR    C0717910   7.484   0.186   0.379
    1STR    N0817911   7.531   0.196   0.507
    1STR    C0917912   7.657   0.224   0.543
    1STR    O0A17913   7.732   0.301   0.485
    1STR    O0B17914   7.689   0.148   0.646
    1STR    C0C17915   7.818   0.093   0.663
    1STR    C0D17916   7.861   0.137   0.803
    1STR    C0E17917   7.805   9.259   0.657
    1STR    O0F17918   7.837   9.196   0.533
    1STR    C0G17919   7.743   9.101   0.486
    1STR    C0H17920   7.636   9.181   0.419
    1STR    C0I17921   7.803   8.996   0.391
    1STR    O0J17922   7.746   8.986   0.260
    1STR    C0K17923   8.787   0.488   8.793
    1STR    C0M17924   8.713   0.622   8.792
    1STR    C0N17925   8.775   0.407   8.925
    1STR    O0O17926   8.830   0.450   9.047
    1STR    C0P17927   8.842   0.369   9.153
    1STR    O0Q17928   8.836   0.247   9.150
    1STR    N0R17929   8.859   0.437   9.264
    1STR    C0S17930   8.821   0.410   0.074
    1STR    C0T17931   8.785   0.519   0.153
    1STR    C0U17932   8.762   0.508   0.288
    1STR    C0V17933   8.778   0.384   0.349
    1STR    C0W17934   8.788   0.386   0.497
    1STR    C0X17935   8.795   0.267   0.271
    1STR    N0Y17936   8.803   0.142   0.332
    1STR   BCK217937   8.773   0.024   0.277
    1STR    O1017938   8.723   0.010   0.167
    1STR    C1317939   8.813   0.283   0.133
    1STR    C1417940   7.514   0.276   0.278
    1STR    C1517941   7.481   0.249   0.145
    1STR    C1617942   7.446   0.120   0.108
    1STR    C1717943   7.455   0.093   9.280
    1STR    H1B17944   7.457   9.188   0.094
    1STR    H1C17945   7.400   9.315   0.420
    1STR    H1D17946   7.484   0.131   0.571
    1STR    H1E17947   7.888   0.131   0.587
    1STR    H1F17948   7.802   0.086   0.879
    1STR    H1G17949   7.966   0.117   0.820
    1STR    H1H17950   7.843   0.243   0.818
    1STR    H1I17951   7.703   9.235   0.679
    1STR    H1J17952   7.862   9.212   0.736
    1STR    H1K17953   7.698   9.047   0.570
    1STR    H1M17954   7.653   9.198   0.313
    1STR    H1N17955   7.624   9.277   0.465
    1STR    H1O17956   7.544   9.127   0.433
    1STR    H1P17957   7.908   9.013   0.378
    1STR    H1Q17958   7.794   8.903   0.445
    1STR   C01017959   7.779   8.865   0.193
    1STR   H01117960   7.886   8.848   0.192
    1STR   C01217961   7.702   8.753   0.269
    1STR   H01317962   7.613   8.794   0.317
    1STR   H01417963   7.760   8.708   0.349
    1STR   H01517964   7.670   8.672   0.203
    1STR   C01617965   7.726   8.860   0.049
    1STR   H01717966   7.745   8.762   0.008
    1STR   H01817967   7.622   8.865   0.067
    1STR   O01917968   7.758   8.956   9.268
    1STR   C02017969   7.643   9.016   9.207
    1STR   H02117970   7.563   8.946   9.202
    1STR   C02217971   7.600   9.128   9.296
    1STR   H02317972   7.648   9.222   9.271
    1STR   H02417973   7.624   9.109   0.081
    1STR   H02517974   7.493   9.135   9.280
    1STR   C02617975   7.655   9.073   9.065
    1STR   H02717976   7.576   9.145   9.045
    1STR   H02817977   7.746   9.129   9.055
    1STR   O02917978   7.646   8.972   8.967
    1STR   C03017979   7.736   8.993   8.861
    1STR   H03117980   7.831   9.012   8.908
    1STR   C03217981   7.752   8.864   8.785
    1STR   H03317982   7.821   8.871   8.702
    1STR   H03417983   7.655   8.845   8.743
    1STR   H03517984   7.784   8.783   8.850
    1STR   C03617985   7.691   9.098   8.758
    1STR   H03717986   7.761   9.102   8.676
    1STR   H03817987   7.601   9.058   8.714
    1STR   O03917988   7.661   9.229   8.807
    1STR   C04017989   7.760   0.010   8.792
    1STR   H04117990   7.847   9.298   8.842
    1STR   C04217991   7.792   0.056   8.650
    1STR   H04317992   7.705   0.102   8.604
    1STR   H04417993   7.827   9.294   8.587
    1STR   H04517994   7.869   0.132   8.652
    1STR   C04617995   7.718   0.128   8.875
    1STR   H04717996   7.662   0.196   8.812
    1STR   H04817997   7.655   0.092   8.955
    1STR   O04917998   7.830   0.194   8.931
    1STR   C05017999   7.789   0.312   8.997
    1STR   H05118000   7.748   0.369   8.919
    1STR   C05218001   7.694   0.298   9.115
    1STR   H05318002   7.610   0.235   9.099
    1STR   H05418003   7.656   0.396   9.145
    1STR   H05518004   7.748   0.258   9.199
    1STR   C05618005   7.906   0.395   9.036
    1STR   H05718006   7.949   0.356   9.127
    1STR   H05818007   7.977   0.380   8.956
    1STR   O05918008   7.861   0.530   9.039
    1STR   C06018009   7.911   0.610   9.144
    1STR   H06118010   7.997   0.564   9.190
    1STR   C06218011   7.943   0.747   9.082
    1STR   H06318012   7.853   0.795   9.045
    1STR   H06418013   8.011   0.738   8.997
    1STR   H06518014   7.990   0.812   9.156
    1STR   C06618015   7.807   0.625   9.254
    1STR   H06718016   7.838   0.702   0.003
    1STR   H06818017   7.714   0.662   9.210
    1STR   O06918018   7.776   0.504   0.001
    1STR   C07018019   7.877   0.428   0.069
    1STR   H07118020   7.952   0.387   0.004
    1STR   C07218021   7.950   0.514   0.174
    1STR   H07318022   7.928   0.620   0.170
    1STR   H07418023   8.056   0.501   0.156
    1STR   H07518024   7.933   0.483   0.276
    1STR   C07618025   7.800   0.311   0.131
    1STR   H07718026   7.793   0.317   0.239
    1STR   H07818027   7.700   0.331   0.100
    1STR   O07918028   7.815   0.178   0.076
    1STR   C08018029   7.894   0.089   0.153
    1STR   H08118030   7.985   0.143   0.157
    1STR   C08218031   7.834   0.079   0.292
    1STR   H08318032   7.726   0.084   0.291
    1STR   H08418033   7.871   0.156   0.358
    1STR   H08518034   7.866   9.308   0.339
    1STR   C08618035   7.925   9.265   0.101
    1STR   H08718036   7.982   9.215   0.180
    1STR   H08818037   7.833   9.208   0.097
    1STR   O08918038   8.012   9.246   9.308
    1STR   C09018039   7.943   9.207   9.190
    1STR   H09118040   7.870   9.138   9.225
    1STR   C09218041   7.872   0.013   9.146
    1STR   H09318042   7.939   0.098   9.139
    1STR   H09418043   7.792   0.041   9.213
    1STR   H09518044   7.825   9.316   9.052
    1STR   C09618045   8.017   9.129   9.076
    1STR   H09718046   8.121   9.112   9.105
    1STR   H09818047   7.973   9.031   9.065
    1STR   O09918048   8.010   9.200   8.950
    1STR   C10018049   8.028   9.140   8.819
    1STR   H10118050   7.934   9.119   8.776
    1STR   C10218051   8.077   9.249   8.721
    1STR   H10318052   8.183   9.251   8.702
    1STR   H10418053   8.049   0.029   8.756
    1STR   H10518054   8.034   9.234   8.622
    1STR   C10618055   8.101   9.006   8.809
    1STR   H10718056   8.149   9.001   8.712
    1STR   H10818057   8.172   9.002   8.888
    1STR   O10918058   8.021   8.891   8.821
    1STR   C11018059   8.089   8.766   8.829
    1STR   H11118060   8.014   8.690   8.806
    1STR   C11218061   8.201   8.753   8.723
    1STR   H11318062   8.285   8.819   8.745
    1STR   H11418063   8.164   8.779   8.624
    1STR   H11518064   8.240   8.652   8.719
    1STR   C11618065   8.139   8.740   8.972
    1STR   H11718066   8.211   8.658   8.972
    1STR   H11818067   8.191   8.827   9.010
    1STR   O11918068   8.034   8.705   9.061
    1STR   C12018069   8.077   8.703   9.197
    1STR   H12118070   8.180   8.667   9.203
    1STR   C12218071   8.070   8.845   9.253
    1STR   H12318072   7.972   8.888   9.237
    1STR   H12418073   8.141   8.913   9.206
    1STR   H12518074   8.088   8.849   0.040
    1STR   C12618075   7.992   8.605   9.276
    1STR   H12718076   7.887   8.630   9.268
    1STR   H12818077   8.004   8.506   9.232
    1STR   O12918078   8.038   8.608   0.091
    1STR   C13018079   7.965   8.533   0.187
    1STR   H13118080   7.860   8.557   0.178
    1STR   C13218081   7.987   8.384   0.159
    1STR   H13318082   8.093   8.359   0.162
    1STR   H13418083   7.949   8.355   0.062
    1STR   H13518084   7.936   8.323   0.234
    1STR   C13618085   8.013   8.568   0.331
    1STR   H13718086   7.959   8.505   0.401
    1STR   H13818087   8.119   8.544   0.341
    1STR   O13918088   7.992   8.705   0.364
    1STR   C14018089   8.017   8.748   0.498
    1STR   H14118090   7.994   8.854   0.499
    1STR   C14218091   7.920   8.686   0.600
    1STR   H14318092   7.935   8.579   0.611
    1STR   H14418093   7.816   8.703   0.570
    1STR   H14518094   7.933   8.732   0.697
    1STR   C14618095   8.164   8.747   0.542
    1STR   H14718096   8.191   8.835   0.600
    1STR   H14818097   8.182   8.661   0.606
    1STR   O14918098   8.250   8.731   0.430
    1STR   C15018099   8.280   8.843   0.347
    1STR   H15118100   8.374   8.883   0.384
    1STR   C15218101   8.304   8.771   0.215
    1STR   H15318102   8.226   8.698   0.196
    1STR   H15418103   8.399   8.718   0.215
    1STR   H15518104   8.301   8.838   0.131
    1STR   C15618105   8.178   8.961   0.332
    1STR   H15718106   8.207   9.026   0.252
    1STR   H15818107   8.080   8.925   0.302
    1STR   O15918108   8.178   9.041   0.450
    1STR   C16018109   8.120   9.173   0.447
    1STR   H16118110   8.025   9.173   0.396
    1STR   C16218111   8.104   9.206   0.596
    1STR   H16318112   8.197   9.214   0.651
    1STR   H16418113   8.046   9.129   0.646
    1STR   H16518114   8.057   9.303   0.606
    1STR   C16618115   8.199   9.288   0.382
    1STR   H16718116   8.243   0.025   0.464
    1STR   H16818117   8.276   9.253   0.316
    1STR   O16918118   8.127   0.061   0.303
    1STR   C17018119   8.190   0.190   0.289
    1STR   H17118120   8.290   0.180   0.323
    1STR   C17218121   8.215   0.246   0.150
    1STR   H17318122   8.218   0.354   0.146
    1STR   H17418123   8.144   0.219   0.073
    1STR   H17518124   8.316   0.217   0.122
    1STR   C17618125   8.113   0.295   0.368
    1STR   H17718126   8.157   0.393   0.349
    1STR   H17818127   8.012   0.301   0.331
    1STR   O17918128   8.110   0.261   0.505
    1STR   C18018129   8.151   0.366   0.589
    1STR   H18118130   8.210   0.443   0.539
    1STR   C18218131   8.026   0.434   0.643
    1STR   H18318132   7.963   0.363   0.693
    1STR   H18418133   7.966   0.474   0.560
    1STR   H18518134   8.049   0.516   0.711
    1STR   C18618135   8.243   0.299   0.692
    1STR   H18718136   8.291   0.372   0.757
    1STR   H18818137   8.185   0.233   0.756
    1STR   O18918138   8.341   0.217   0.626
    1STR   C19018139   8.422   0.276   0.525
    1STR   H19118140   8.362   0.315   0.445
    1STR   C19218141   8.492   0.404   0.574
    1STR   H19318142   8.422   0.479   0.611
    1STR   H19418143   8.539   0.452   0.489
    1STR   H19518144   8.563   0.384   0.654
    1STR   C19618145   8.518   0.170   0.463
    1STR   H19718146   8.566   0.218   0.378
    1STR   H19818147   8.595   0.143   0.534
    1STR   O19918148   8.457   0.053   0.407
    1STR   C20018149   8.508   9.245   0.441
    1STR   H20118150   8.607   9.263   0.474
    1STR   C20218151   8.447   9.188   0.568
    1STR   H20318152   8.358   9.131   0.549
    1STR   H20418153   8.420   9.269   0.636
    1STR   H20518154   8.515   9.117   0.613
    1STR   C20618155   8.497   9.135   0.330
    1STR   H20718156   8.569   9.056   0.349
    1STR   H20818157   8.401   9.088   0.342
    1STR   O20918158   8.503   9.175   0.194
    1STR   C21018159   8.453   9.076   0.101
    1STR   H21118160   8.452   8.979   0.149
    1STR   C21218161   8.314   9.118   0.051
    1STR   H21318162   8.318   9.163   9.272
    1STR   H21418163   8.264   9.190   0.115
    1STR   H21518164   8.249   9.032   0.037
    1STR   C21618165   8.547   9.064   9.302
    1STR   H21718166   8.583   9.165   9.287
    1STR   H21818167   8.632   9.000   0.002
    1STR   O21918168   8.483   9.023   9.182
    1STR   C22018169   8.511   8.893   9.133
    1STR   H22118170   8.618   8.874   9.137
    1STR   C22218171   8.443   8.789   9.220
    1STR   H22318172   8.339   8.816   9.233
    1STR   H22418173   8.489   8.784   9.319
    1STR   H22518174   8.447   8.689   9.177
    1STR   C22618175   8.459   8.891   8.988
    1STR   H22718176   8.537   8.881   8.915
    1STR   H22818177   8.403   8.800   8.972
    1STR   O22918178   8.372   9.002   8.962
    1STR   C23018179   8.419   9.118   8.893
    1STR   H23118180   8.515   9.147   8.933
    1STR   C23218181   8.421   9.087   8.740
    1STR   H23318182   8.326   9.098   8.692
    1STR   H23418183   8.455   8.987   8.716
    1STR   H23518184   8.484   9.158   8.687
    1STR   C23618185   8.324   9.237   8.916
    1STR   H23718186   8.328   9.308   8.834
    1STR   H23818187   8.228   9.198   8.924
    1STR   O23918188   8.338   9.306   9.036
    1STR   C24018189   8.233   0.070   9.087
    1STR   H24118190   8.146   0.010   9.101
    1STR   C24218191   8.285   0.090   9.225
    1STR   H24318192   8.299   0.195   9.240
    1STR   H24418193   8.382   0.043   9.244
    1STR   H24518194   8.218   0.049   9.299
    1STR   C24618195   8.181   0.202   9.017
    1STR   H24718196   8.218   0.217   8.918
    1STR   H24818197   8.077   0.180   8.994
    1STR   O24918198   8.177   0.324   9.096
    1STR   C25018199   8.244   0.442   9.048
    1STR   H25118200   8.347   0.411   9.032
    1STR   C25218201   8.191   0.496   8.914
    1STR   H25318202   8.094   0.544   8.924
    1STR   H25418203   8.182   0.420   8.837
    1STR   H25518204   8.255   0.576   8.878
    1STR   C25618205   8.245   0.563   9.148
    1STR   H25718206   8.335   0.617   9.124
    1STR   H25818207   8.173   0.638   9.119
    1STR   O25918208   8.227   0.539   9.290
    1STR   C26018209   8.302   0.625   0.057
    1STR   H26118210   8.353   0.699   9.317
    1STR   C26218211   8.210   0.713   0.143
    1STR   H26318212   8.265   0.799   0.181
    1STR   H26418213   8.173   0.660   0.231
    1STR   H26518214   8.126   0.749   0.085
    1STR   C26618215   8.410   0.554   0.147
    1STR   H26718216   8.489   0.626   0.169
    1STR   H26818217   8.367   0.530   0.244
    1STR   O26918218   8.475   0.433   0.106
    1STR   C27018219   8.486   0.407   9.288
    1STR   H27118220   8.386   0.392   9.254
    1STR   C27218221   8.556   0.520   9.211
    1STR   H27318222   8.653   0.543   9.250
    1STR   H27418223   8.510   0.616   9.221
    1STR   H27518224   8.566   0.500   9.105
    1STR   C27618225   8.544   0.271   9.254
    1STR   H27718226   8.648   0.267   9.273
    1STR   H27818227   8.505   0.194   9.320
    1STR   O27918228   8.509   0.253   9.117
    1STR   C28018229   8.580   0.162   9.035
    1STR   H28118230   8.673   0.204   9.010
    1STR   C28218231   8.620   0.029   9.102
    1STR   H28318232   8.539   9.280   9.119
    1STR   H28418233   8.665   0.046   9.200
    1STR   H28518234   8.694   9.294   9.047
    1STR   C28618235   8.510   0.164   8.898
    1STR   H28718236   8.529   0.077   8.838
    1STR   H28818237   8.407   0.163   8.922
    1STR   O28918238   8.524   0.283   8.823
    1STR   C29018239   8.429   0.307   8.719
    1STR   H29118240   8.331   0.276   8.752
    1STR   C29218241   8.424   0.459   8.701
    1STR   H29318242   8.504   0.496   8.638
    1STR   H29418243   8.436   0.506   8.798
    1STR   H29518244   8.330   0.490   8.657
    1STR   C29618245   8.455   0.238   8.584
    1STR   H29718246   8.372   0.170   8.565
    1STR   H29818247   8.451   0.309   8.501
    1STR   O29918248   8.572   0.157   8.576
    1STR   C30018249   8.696   0.219   8.544
    1STR   H30118250   8.759   0.133   8.525
    1STR   C30218251   8.693   0.300   8.415
    1STR   H30318252   8.656   0.401   8.432
    1STR   H30418253   8.627   0.251   8.343
    1STR   H30518254   8.790   0.307   8.367
    1STR   C30618255   8.762   0.286   8.665
    1STR   H30718256   8.734   0.222   8.748
    1STR   H30818257   8.870   0.285   8.663
    1STR   O30918258   8.723   0.420   8.684
    1STR    H1R18259   8.892   0.500   8.766
    1STR    H1S18260   8.619   0.615   8.847
    1STR    H1T18261   8.690   0.653   8.690
    1STR    H1U18262   8.770   0.703   8.835
    1STR    H1V18263   8.823   0.312   8.911
    1STR    H1W18264   8.669   0.397   8.948
    1STR    H1X18265   8.886   0.534   9.245
    1STR    H1Y18266   8.779   0.615   0.110
    1STR    H1Z18267   8.741   0.595   0.346
    1STR    H2018268   8.743   0.473   0.543
    1STR    H2118269   8.746   0.296   0.540
    1STR    H2218270   8.894   0.394   0.514
    1STR    H2318271   8.845   0.137   0.423
    1STR    H2718272   8.827   0.199   0.070
    1STR    H2818273   7.570   0.363   0.304
    1STR    H2918274   7.498   0.322   0.068
    1STR    H2A18275   7.417   9.320   9.245
    1STR    H2B18276   7.560   0.098   9.252
    1STR    H2C18277   7.402   0.172   9.226
    1STR   BCK118278   7.407   0.083   2.384
    1STR    O0318279   7.520   0.046   2.414
    1STR    N0418280   7.310   0.091   2.473
    1STR    C0518281   7.342   0.060   2.600
    1STR    C0618282   7.358   9.245   2.638
    1STR    C0718283   7.437   9.214   2.749
    1STR    N0818284   7.464   9.087   2.790
    1STR    C0918285   7.372   8.994   2.813
    1STR    O0A18286   7.252   9.012   2.797
    1STR    O0B18287   7.431   8.883   2.855
    1STR    C0C18288   7.373   8.756   2.832
    1STR    C0D18289   7.276   8.732   2.948
    1STR    C0E18290   7.313   8.744   2.689
    1STR    O0F18291   7.406   8.733   2.582
    1STR    C0G18292   7.440   8.857   2.519
    1STR    C0H18293   7.569   8.885   2.582
    1STR    C0I18294   7.482   8.844   2.372
    1STR    O0J18295   7.504   8.975   2.319
    1STR    C0K18296   8.882   0.113   2.411
    1STR    C0M18297   8.859   0.167   2.272
    1STR    C0N18298   9.029   0.075   2.431
    1STR    O0O18299   9.059   0.007   2.553
    1STR    C0P18300   9.186   9.302   2.576
    1STR    O0Q18301   9.271   0.063   2.547
    1STR    N0R18302   9.217   9.183   2.630
    1STR    C0S18303   9.141   9.112   2.723
    1STR    C0T18304   9.073   9.188   2.818
    1STR    C0U18305   9.012   9.129   2.929
    1STR    C0V18306   9.012   8.991   2.943
    1STR    C0W18307   8.946   8.931   3.063
    1STR    C0X18308   9.070   8.909   2.846
    1STR    N0Y18309   9.032   8.777   2.863
    1STR   BCK218310   9.086   8.670   2.922
    1STR    O1018311   9.013   8.585   2.973
    1STR    C1318312   9.136   8.970   2.734
    1STR    C1418313   7.497   9.317   2.820
    1STR    C1518314   7.474   0.129   2.786
    1STR    C1618315   7.398   0.164   2.674
    1STR    C1718316   7.396   0.307   2.618
    1STR    H1B18317   7.222   0.136   2.448
    1STR    H1C18318   7.321   9.165   2.578
    1STR    H1D18319   7.561   9.057   2.787
    1STR    H1E18320   7.454   8.683   2.840
    1STR    H1F18321   7.189   8.796   2.939
    1STR    H1G18322   7.239   8.632   2.958
    1STR    H1H18323   7.326   8.752   3.043
    1STR    H1I18324   7.246   8.823   2.663
    1STR    H1J18325   7.247   8.659   2.688
    1STR    H1K18326   7.368   8.937   2.531
    1STR    H1M18327   7.621   8.792   2.565
    1STR    H1N18328   7.574   8.895   2.688
    1STR    H1O18329   7.621   8.968   2.535
    1STR    H1P18330   7.573   8.785   2.364
    1STR    H1Q18331   7.414   8.790   2.309
    1STR   C01018332   7.605   8.983   2.221
    1STR   H01118333   7.696   8.962   2.276
    1STR   C01218334   7.575   8.873   2.118
    1STR   H01318335   7.468   8.859   2.105
    1STR   H01418336   7.619   8.778   2.147
    1STR   H01518337   7.614   8.899   2.021
    1STR   C01618338   7.629   9.116   2.145
    1STR   H01718339   7.713   9.101   2.081
    1STR   H01818340   7.555   9.127   2.070
    1STR   O01918341   7.642   9.240   2.215
    1STR   C02018342   7.703   0.032   2.146
    1STR   H02118343   7.806   0.012   2.131
    1STR   C02218344   7.654   0.049   2.005
    1STR   H02318345   7.546   0.059   2.004
    1STR   H02418346   7.685   9.286   1.943
    1STR   H02518347   7.698   0.138   1.961
    1STR   C02618348   7.701   0.165   2.226
    1STR   H02718349   7.604   0.191   2.258
    1STR   H02818350   7.760   0.154   2.316
    1STR   O02918351   7.735   0.281   2.152
    1STR   C03018352   7.802   0.386   2.222
    1STR   H03118353   7.903   0.354   2.219
    1STR   C03218354   7.798   0.507   2.131
    1STR   H03318355   7.701   0.518   2.083
    1STR   H03418356   7.876   0.497   2.057
    1STR   H03518357   7.819   0.598   2.185
    1STR   C03618358   7.778   0.426   2.371
    1STR   H03718359   7.862   0.485   2.407
    1STR   H03818360   7.699   0.496   2.381
    1STR   O03918361   7.749   0.323   2.464
    1STR   C04018362   7.796   0.342   2.597
    1STR   H04118363   7.903   0.349   2.598
    1STR   C04218364   7.746   0.473   2.660
    1STR   H04318365   7.641   0.491   2.643
    1STR   H04418366   7.798   0.559   2.617
    1STR   H04518367   7.765   0.475   2.767
    1STR   C04618368   7.750   0.213   2.668
    1STR   H04718369   7.741   0.227   2.775
    1STR   H04818370   7.653   0.191   2.626
    1STR   O04918371   7.837   0.103   2.642
    1STR   C05018372   7.773   9.296   2.619
    1STR   H05118373   7.664   9.302   2.609
    1STR   C05218374   7.828   9.245   2.488
    1STR   H05318375   7.772   9.289   2.407
    1STR   H05418376   7.818   9.137   2.476
    1STR   H05518377   7.933   9.272   2.475
    1STR   C05618378   7.807   9.198   2.731
    1STR   H05718379   7.915   9.200   2.733
    1STR   H05818380   7.773   9.236   2.827
    1STR   O05918381   7.751   9.068   2.703
    1STR   C06018382   7.826   8.957   2.752
    1STR   H06118383   7.923   8.997   2.744
    1STR   C06218384   7.792   8.931   2.899
    1STR   H06318385   7.685   8.917   2.912
    1STR   H06418386   7.824   9.014   2.961
    1STR   H06518387   7.841   8.842   2.937
    1STR   C06618388   7.839   8.823   2.670
    1STR   H06718389   7.933   8.774   2.693
    1STR   H06818390   7.766   8.750   2.704
    1STR   O06918391   7.832   8.840   2.527
    1STR   C07018392   7.889   8.737   2.445
    1STR   H07118393   7.989   8.714   2.481
    1STR   C07218394   7.809   8.606   2.454
    1STR   H07318395   7.706   8.620   2.421
    1STR   H07418396   7.807   8.568   2.556
    1STR   H07518397   7.853   8.529   2.391
    1STR   C07618398   7.907   8.787   2.299
    1STR   H07718399   7.996   8.741   2.258
    1STR   H07818400   7.823   8.753   2.238
    1STR   O07918401   7.916   8.929   2.285
    1STR   C08018402   7.969   8.980   2.161
    1STR   H08118403   8.075   8.972   2.172
    1STR   C08218404   7.924   8.904   2.036
    1STR   H08318405   7.817   8.913   2.026
    1STR   H08418406   7.949   8.799   2.038
    1STR   H08518407   7.965   8.944   1.945
    1STR   C08618408   7.950   9.131   2.146
    1STR   H08718409   7.904   9.152   2.050
    1STR   H08818410   7.887   9.166   2.228
    1STR   O08918411   8.075   9.197   2.148
    1STR   C09018412   8.086   0.014   2.116
    1STR   H09118413   8.193   0.030   2.117
    1STR   C09218414   8.044   0.033   1.972
    1STR   H09318415   7.938   0.022   1.953
    1STR   H09418416   8.099   9.282   1.913
    1STR   H09518417   8.073   0.130   1.939
    1STR   C09618418   8.022   0.115   2.210
    1STR   H09718419   7.972   0.186   2.145
    1STR   H09818420   7.950   0.068   2.277
    1STR   O09918421   8.116   0.187   2.286
    1STR   C10018422   8.072   0.269   2.393
    1STR   H10118423   7.964   0.261   2.401
    1STR   C10218424   8.126   0.208   2.522
    1STR   H10318425   8.228   0.240   2.541
    1STR   H10418426   8.122   0.100   2.517
    1STR   H10518427   8.071   0.237   2.610
    1STR   C10618428   8.125   0.415   2.380
    1STR   H10718429   8.120   0.463   2.477
    1STR   H10818430   8.229   0.407   2.353
    1STR   O10918431   8.054   0.498   2.288
    1STR   C11018432   8.116   0.608   2.222
    1STR   H11118433   8.036   0.650   2.160
    1STR   C11218434   8.158   0.724   2.314
    1STR   H11318435   8.159   0.694   2.418
    1STR   H11418436   8.092   0.810   2.306
    1STR   H11518437   8.256   0.763   2.286
    1STR   C11618438   8.218   0.557   2.121
    1STR   H11718439   8.260   0.639   2.063
    1STR   H11818440   8.300   0.504   2.170
    1STR   O11918441   8.145   0.470   2.037
    1STR   C12018442   8.219   0.409   1.934
    1STR   H12118443   8.282   0.484   1.888
    1STR   C12218444   8.307   0.297   1.991
    1STR   H12318445   8.382   0.332   2.062
    1STR   H12418446   8.359   0.244   1.912
    1STR   H12518447   8.246   0.224   2.044
    1STR   C12618448   8.114   0.360   1.833
    1STR   H12718449   8.026   0.328   1.889
    1STR   H12818450   8.083   0.444   1.771
    1STR   O12918451   8.161   0.255   1.750
    1STR   C13018452   8.059   0.187   1.676
    1STR   H13118453   7.967   0.179   1.734
    1STR   C13218454   8.033   0.261   1.544
    1STR   H13318455   8.125   0.269   1.486
    1STR   H13418456   7.997   0.363   1.561
    1STR   H13518457   7.959   0.209   1.484
    1STR   C13618458   8.112   0.044   1.651
    1STR   H13718459   8.133   0.032   1.546
    1STR   H13818460   8.205   0.034   1.706
    1STR   O13918461   8.022   9.264   1.698
    1STR   C14018462   8.056   9.126   1.680
    1STR   H14118463   7.968   9.071   1.709
    1STR   C14218464   8.095   9.102   1.535
    1STR   H14318465   8.197   9.136   1.523
    1STR   H14418466   8.038   9.159   1.463
    1STR   H14518467   8.088   8.996   1.511
    1STR   C14618468   8.155   9.067   1.780
    1STR   H14718469   8.110   9.071   1.878
    1STR   H14818470   8.179   8.963   1.759
    1STR   O14918471   8.267   9.148   1.776
    1STR   C15018472   8.367   9.124   1.870
    1STR   H15118473   8.437   9.067   1.810
    1STR   C15218474   8.418   9.266   1.895
    1STR   H15318475   8.335   0.011   1.924
    1STR   H15418476   8.460   9.307   1.804
    1STR   H15518477   8.492   9.273   1.974
    1STR   C15618478   8.334   9.051   2.004
    1STR   H15718479   8.412   9.079   2.074
    1STR   H15818480   8.242   9.088   2.046
    1STR   O15918481   8.334   8.907   1.999
    1STR   C16018482   8.280   8.834   2.112
    1STR   H16118483   8.175   8.820   2.092
    1STR   C16218484   8.337   8.692   2.108
    1STR   H16318485   8.445   8.694   2.120
    1STR   H16418486   8.312   8.642   2.015
    1STR   H16518487   8.296   8.633   2.190
    1STR   C16618488   8.305   8.893   2.254
    1STR   H16718489   8.394   8.847   2.295
    1STR   H16818490   8.325   8.998   2.244
    1STR   O16918491   8.201   8.881   2.352
    1STR   C17018492   8.203   8.986   2.453
    1STR   H17118493   8.302   8.998   2.490
    1STR   C17218494   8.156   9.120   2.395
    1STR   H17318495   8.052   9.112   2.368
    1STR   H17418496   8.218   9.155   2.314
    1STR   H17518497   8.156   9.206   2.459
    1STR   C17618498   8.113   8.957   2.572
    1STR   H17718499   8.067   9.046   2.611
    1STR   H17818500   8.032   8.914   2.521
    1STR   O17918501   8.163   8.871   2.675
    1STR   C18018502   8.143   8.904   2.814
    1STR   H18118503   8.042   8.880   2.842
    1STR   C18218504   8.200   8.791   2.901
    1STR   H18318505   8.295   8.753   2.864
    1STR   H18418506   8.135   8.703   2.897
    1STR   H18518507   8.211   8.819   3.005
    1STR   C18618508   8.158   9.054   2.863
    1STR   H18718509   8.070   9.113   2.842
    1STR   H18818510   8.160   9.049   2.971
    1STR   O18918511   8.271   9.133   2.824
    1STR   C19018512   8.263   9.227   2.716
    1STR   H19118513   8.194   9.188   2.648
    1STR   C19218514   8.197   0.034   2.771
    1STR   H19318515   8.211   0.045   2.878
    1STR   H19418516   8.090   0.036   2.751
    1STR   H19518517   8.243   0.120   2.726
    1STR   C19618518   8.397   9.248   2.635
    1STR   H19718519   8.438   0.028   2.647
    1STR   H19818520   8.466   9.183   2.684
    1STR   O19918521   8.399   9.208   2.495
    1STR   C20018522   8.527   9.174   2.437
    1STR   H20118523   8.602   9.193   2.510
    1STR   C20218524   8.547   9.031   2.389
    1STR   H20318525   8.526   9.022   2.284
    1STR   H20418526   8.490   8.959   2.445
    1STR   H20518527   8.649   8.996   2.398
    1STR   C20618528   8.565   9.261   2.318
    1STR   H20718529   8.660   9.232   2.275
    1STR   H20818530   8.492   9.253   2.238
    1STR   O20918531   8.587   0.067   2.372
    1STR   C21018532   8.523   0.169   2.303
    1STR   H21118533   8.547   0.173   2.197
    1STR   C21218534   8.377   0.148   2.323
    1STR   H21318535   8.358   0.134   2.429
    1STR   H21418536   8.334   0.062   2.273
    1STR   H21518537   8.329   0.237   2.285
    1STR   C21618538   8.565   0.293   2.377
    1STR   H21718539   8.547   0.281   2.484
    1STR   H21818540   8.671   0.311   2.363
    1STR   O21918541   8.493   0.401   2.324
    1STR   C22018542   8.532   0.519   2.385
    1STR   H22118543   8.615   0.502   2.453
    1STR   C22218544   8.581   0.601   2.268
    1STR   H22318545   8.504   0.607   2.191
    1STR   H22418546   8.666   0.547   2.228
    1STR   H22518547   8.613   0.702   2.292
    1STR   C22618548   8.411   0.581   2.454
    1STR   H22718549   8.426   0.684   2.484
    1STR   H22818550   8.342   0.585   2.373
    1STR   O22918551   8.347   0.500   2.553
    1STR   C23018552   8.362   0.536   2.689
    1STR   H23118553   8.466   0.537   2.712
    1STR   C23218554   8.303   0.673   2.724
    1STR   H23318555   8.198   0.679   2.699
    1STR   H23418556   8.355   0.754   2.674
    1STR   H23518557   8.314   0.691   2.831
    1STR   C23618558   8.301   0.423   2.773
    1STR   H23718559   8.291   0.447   2.878
    1STR   H23818560   8.201   0.402   2.736
    1STR   O23918561   8.380   0.307   2.754
    1STR   C24018562   8.488   0.279   2.842
    1STR   H24118563   8.557   0.231   2.773
    1STR   C24218564   8.564   0.398   2.903
    1STR   H24318565   8.643   0.363   2.970
    1STR   H24418566   8.500   0.464   2.962
    1STR   H24518567   8.616   0.455   2.827
    1STR   C24618568   8.447   0.178   2.951
    1STR   H24718569   8.508   0.198   3.039
    1STR   H24818570   8.344   0.194   2.981
    1STR   O24918571   8.467   0.042   2.909
    1STR   C25018572   8.478   9.270   3.017
    1STR   H25118573   8.544   9.318   3.088
    1STR   C25218574   8.349   9.254   3.098
    1STR   H25318575   8.263   9.232   3.037
    1STR   H25418576   8.325   0.025   3.153
    1STR   H25518577   8.357   9.174   3.172
    1STR   C25618578   8.553   9.136   2.984
    1STR   H25718579   8.660   9.153   2.988
    1STR   H25818580   8.528   9.065   3.060
    1STR   O25918581   8.542   9.072   2.860
    1STR   C26018582   8.478   8.945   2.859
    1STR   H26118583   8.392   8.952   2.924
    1STR   C26218584   8.433   8.928   2.716
    1STR   H26318585   8.394   8.830   2.693
    1STR   H26418586   8.512   8.954   2.649
    1STR   H26518587   8.358   8.995   2.684
    1STR   C26618588   8.559   8.822   2.901
    1STR   H26718589   8.574   8.824   3.009
    1STR   H26818590   8.506   8.729   2.881
    1STR   O26918591   8.685   8.815   2.841
    1STR   C27018592   8.694   8.786   2.702
    1STR   H27118593   8.766   8.713   2.716
    1STR   C27218594   8.594   8.714   2.607
    1STR   H27318595   8.546   8.780   2.536
    1STR   H27418596   8.516   8.657   2.656
    1STR   H27518597   8.650   8.651   2.540
    1STR   C27618598   8.775   8.887   2.631
    1STR   H27718599   8.871   8.890   2.680
    1STR   H27818600   8.787   8.856   2.528
    1STR   O27918601   8.722   9.015   2.641
    1STR   C28018602   8.821   9.111   2.622
    1STR   H28118603   8.903   9.086   2.684
    1STR   C28218604   8.870   9.104   2.475
    1STR   H28318605   8.798   9.143   2.406
    1STR   H28418606   8.892   9.004   2.438
    1STR   H28518607   8.964   9.152   2.457
    1STR   C28618608   8.763   9.238   2.684
    1STR   H28718609   8.770   0.002   2.617
    1STR   H28818610   8.657   9.228   2.701
    1STR   O28918611   8.809   9.259   2.816
    1STR   C29018612   8.788   0.070   2.861
    1STR   H29118613   8.686   0.093   2.834
    1STR   C29218614   8.807   0.086   3.010
    1STR   H29318615   8.750   0.017   3.068
    1STR   H29418616   8.780   0.187   3.042
    1STR   H29518617   8.911   0.071   3.031
    1STR   C29618618   8.886   0.161   2.791
    1STR   H29718619   8.977   0.173   2.847
    1STR   H29818620   8.921   0.117   2.700
    1STR   O29918621   8.814   0.280   2.773
    1STR   C30018622   8.870   0.369   2.682
    1STR   H30118623   8.787   0.438   2.669
    1STR   C30218624   8.993   0.436   2.745
    1STR   H30318625   9.077   0.368   2.758
    1STR   H30418626   8.966   0.479   2.841
    1STR   H30518627   9.032   0.521   2.690
    1STR   C30618628   8.901   0.310   2.544
    1STR   H30718629   8.887   0.383   2.466
    1STR   H30818630   9.006   0.285   2.549
    1STR   O30918631   8.825   0.197   2.511
    1STR    H1R18632   8.824   0.023   2.413
    1STR    H1S18633   8.760   0.152   2.233
    1STR    H1T18634   8.921   0.113   2.202
    1STR    H1U18635   8.880   0.273   2.270
    1STR    H1V18636   9.095   0.160   2.413
    1STR    H1W18637   9.055   0.007   2.352
    1STR    H1X18638   9.315   9.159   2.623
    1STR    H1Y18639   9.066   9.294   2.809
    1STR    H1Z18640   8.963   9.190   3.001
    1STR    H2018641   8.854   8.880   3.035
    1STR    H2118642   9.016   8.861   3.107
    1STR    H2218643   8.926   9.005   3.137
    1STR    H2318644   8.931   8.770   2.868
    1STR    H2718645   9.177   8.910   2.655
    1STR    H2818646   7.560   9.292   2.901
    1STR    H2918647   7.522   0.200   2.846
    1STR    H2A18648   7.353   0.318   2.519
    1STR    H2B18649   7.498   0.342   2.606
    1STR    H2C18650   7.339   0.376   2.678
    1STR   BCK118651   7.498   0.443   4.551
    1STR    O0318652   7.416   0.531   4.554
    1STR    N0418653   7.567   0.411   4.444
    1STR    C0518654   7.589   0.503   4.344
    1STR    C0618655   7.648   0.626   4.378
    1STR    C0718656   7.700   0.710   4.279
    1STR    N0818657   7.756   0.828   4.320
    1STR    C0918658   7.873   0.828   4.382
    1STR    O0A18659   7.965   0.751   4.355
    1STR    O0B18660   7.869   0.915   4.482
    1STR    C0C18661   7.941   0.890   4.602
    1STR    C0D18662   7.934   1.021   4.681
    1STR    C0E18663   7.877   0.774   4.681
    1STR    O0F18664   7.915   0.652   4.619
    1STR    C0G18665   7.853   0.537   4.672
    1STR    C0H18666   7.877   0.426   4.571
    1STR    C0I18667   7.915   0.498   4.805
    1STR    O0J18668   7.832   0.538   4.911
    1STR    C0K18669   8.748   8.813   4.674
    1STR    C0M18670   8.878   8.822   4.601
    1STR    C0N18671   8.671   8.676   4.700
    1STR    O0O18672   8.676   8.558   4.615
    1STR    C0P18673   8.672   8.555   4.479
    1STR    O0Q18674   8.661   8.454   4.410
    1STR    N0R18675   8.689   8.675   4.432
    1STR    C0S18676   8.722   8.738   4.315
    1STR    C0T18677   8.752   8.680   4.191
    1STR    C0U18678   8.789   8.768   4.086
    1STR    C0V18679   8.794   8.908   4.105
    1STR    C0W18680   8.837   9.004   3.998
    1STR    C0X18681   8.760   8.964   4.228
    1STR    N0Y18682   8.737   9.101   4.246
    1STR   BCK218683   8.737   9.178   4.354
    1STR    O1018684   8.681   9.286   4.358
    1STR    C1318685   8.731   8.876   4.331
    1STR    C1418686   7.692   0.673   4.144
    1STR    C1518687   7.630   0.552   4.111
    1STR    C1618688   7.576   0.467   4.209
    1STR    C1718689   7.506   0.339   4.173
    1STR    H1B18690   7.616   0.323   4.443
    1STR    H1C18691   7.660   0.653   4.482
    1STR    H1D18692   7.689   0.900   4.343
    1STR    H1E18693   8.045   0.866   4.578
    1STR    H1F18694   7.831   1.045   4.705
    1STR    H1G18695   7.989   1.013   4.775
    1STR    H1H18696   7.976   1.103   4.623
    1STR    H1I18697   7.768   0.784   4.682
    1STR    H1J18698   7.911   0.773   4.784
    1STR    H1K18699   7.746   0.551   4.683
    1STR    H1M18700   7.825   0.334   4.598
    1STR    H1N18701   7.983   0.404   4.557
    1STR    H1O18702   7.836   0.459   4.478
    1STR    H1P18703   7.921   0.390   4.806
    1STR    H1Q18704   8.017   0.535   4.816
    1STR   C01018705   7.832   0.443   5.016
    1STR   H01118706   7.930   0.396   5.028
    1STR   C01218707   7.807   0.526   5.142
    1STR   H01318708   7.712   0.579   5.137
    1STR   H01418709   7.885   0.602   5.153
    1STR   H01518710   7.809   0.465   5.232
    1STR   C01618711   7.725   0.334   4.993
    1STR   H01718712   7.723   0.276   5.086
    1STR   H01818713   7.629   0.381   4.975
    1STR   O01918714   7.747   0.244   4.885
    1STR   C02018715   7.659   0.131   4.871
    1STR   H02118716   7.556   0.163   4.880
    1STR   C02218717   7.674   0.067   4.732
    1STR   H02318718   7.675   0.138   4.651
    1STR   H02418719   7.591   9.318   4.719
    1STR   H02518720   7.762   0.006   4.720
    1STR   C02618721   7.682   0.026   4.978
    1STR   H02718722   7.787   0.005   4.991
    1STR   H02818723   7.652   0.072   5.069
    1STR   O02918724   7.611   9.224   4.962
    1STR   C03018725   7.700   9.118   4.931
    1STR   H03118726   7.764   9.161   4.860
    1STR   C03218727   7.779   9.061   5.052
    1STR   H03318728   7.726   8.992   5.116
    1STR   H03418729   7.824   9.138   5.114
    1STR   H03518730   7.859   9.000   5.022
    1STR   C03618731   7.635   9.015   4.843
    1STR   H03718732   7.693   8.926   4.823
    1STR   H03818733   7.559   8.981   4.909
    1STR   O03918734   7.589   9.078   4.723
    1STR   C04018735   7.624   9.032   4.592
    1STR   H04118736   7.730   9.047   4.575
    1STR   C04218737   7.589   8.886   4.558
    1STR   H04318738   7.483   8.866   4.546
    1STR   H04418739   7.623   8.817   4.633
    1STR   H04518740   7.634   8.858   4.463
    1STR   C04618741   7.546   9.129   4.503
    1STR   H04718742   7.445   9.138   4.540
    1STR   H04818743   7.585   9.227   4.522
    1STR   O04918744   7.549   9.093   4.365
    1STR   C05018745   7.475   9.173   4.271
    1STR   H05118746   7.380   9.125   4.252
    1STR   C05218747   7.454   9.318   4.316
    1STR   H05318748   7.412   0.052   4.232
    1STR   H05418749   7.541   0.056   4.340
    1STR   H05518750   7.388   0.004   4.401
    1STR   C05618751   7.558   9.177   4.144
    1STR   H05718752   7.642   9.235   4.178
    1STR   H05818753   7.591   9.077   4.116
    1STR   O05918754   7.511   9.252   4.032
    1STR   C06018755   7.618   9.274   3.938
    1STR   H06118756   7.712   9.284   3.989
    1STR   C06218757   7.633   9.155   3.845
    1STR   H06318758   7.549   9.152   3.777
    1STR   H06418759   7.640   9.060   3.898
    1STR   H06518760   7.723   9.165   3.784
    1STR   C06618761   7.597   0.083   3.857
    1STR   H06718762   7.614   0.068   3.750
    1STR   H06818763   7.494   0.115   3.863
    1STR   O06918764   7.677   0.191   3.906
    1STR   C07018765   7.818   0.185   3.887
    1STR   H07118766   7.863   0.097   3.932
    1STR   C07218767   7.857   0.190   3.740
    1STR   H07318768   7.822   0.285   3.703
    1STR   H07418769   7.815   0.108   3.682
    1STR   H07518770   7.965   0.188   3.728
    1STR   C07618771   7.874   0.310   3.955
    1STR   H07718772   7.931   0.372   3.886
    1STR   H07818773   7.794   0.373   3.991
    1STR   O07918774   7.964   0.271   4.056
    1STR   C08018775   7.919   0.278   4.190
    1STR   H08118776   7.993   0.243   4.260
    1STR   C08218777   7.900   0.425   4.225
    1STR   H08318778   7.810   0.434   4.281
    1STR   H08418779   7.895   0.493   4.141
    1STR   H08518780   7.978   0.465   4.289
    1STR   C08618781   7.801   0.185   4.215
    1STR   H08718782   7.763   0.197   4.316
    1STR   H08818783   7.720   0.214   4.150
    1STR   O08918784   7.828   0.050   4.178
    1STR   C09018785   7.886   9.277   4.270
    1STR   H09118786   7.989   9.304   4.279
    1STR   C09218787   7.818   9.291   4.405
    1STR   H09318788   7.714   9.305   4.390
    1STR   H09418789   7.853   0.055   4.465
    1STR   H09518790   7.828   9.200   4.463
    1STR   C09618791   7.860   9.136   4.210
    1STR   H09718792   7.772   9.095   4.258
    1STR   H09818793   7.840   9.152   4.104
    1STR   O09918794   7.947   9.024   4.217
    1STR   C10018795   7.899   8.922   4.128
    1STR   H10118796   7.797   8.940   4.094
    1STR   C10218797   7.989   8.923   4.003
    1STR   H10318798   8.092   8.901   4.030
    1STR   H10418799   7.985   9.020   3.954
    1STR   H10518800   7.957   8.848   3.930
    1STR   C10618801   7.893   8.782   4.190
    1STR   H10718802   7.892   8.713   4.105
    1STR   H10818803   7.983   8.759   4.245
    1STR   O10918804   7.773   8.763   4.266
    1STR   C11018805   7.743   8.631   4.312
    1STR   H11118806   7.634   8.628   4.326
    1STR   C11218807   7.778   8.522   4.210
    1STR   H11318808   7.886   8.512   4.197
    1STR   H11418809   7.733   8.544   4.114
    1STR   H11518810   7.744   8.424   4.241
    1STR   C11618811   7.803   8.599   4.450
    1STR   H11718812   7.751   8.651   4.529
    1STR   H11818813   7.791   8.493   4.474
    1STR   O11918814   7.942   8.625   4.442
    1STR   C12018815   8.002   8.718   4.531
    1STR   H12118816   8.020   8.667   4.625
    1STR   C12218817   8.134   8.738   4.455
    1STR   H12318818   8.126   8.828   4.393
    1STR   H12418819   8.157   8.655   4.388
    1STR   H12518820   8.221   8.747   4.517
    1STR   C12618821   7.920   8.850   4.553
    1STR   H12718822   7.894   8.894   4.457
    1STR   H12818823   7.829   8.828   4.604
    1STR   O12918824   7.984   8.953   4.629
    1STR   C13018825   7.948   8.983   4.765
    1STR   H13118826   7.850   9.016   4.744
    1STR   C13218827   7.951   8.848   4.841
    1STR   H13318828   8.032   8.783   4.810
    1STR   H13418829   7.860   8.794   4.827
    1STR   H13518830   7.964   8.853   4.948
    1STR   C13618831   8.012   9.112   4.838
    1STR   H13718832   8.013   9.103   4.946
    1STR   H13818833   8.116   9.121   4.819
    1STR   O13918834   7.953   9.241   4.814
    1STR   C14018835   8.025   0.038   4.851
    1STR   H14118836   8.128   0.009   4.840
    1STR   C14218837   8.000   0.150   4.750
    1STR   H14318838   7.897   0.175   4.737
    1STR   H14418839   8.035   0.131   4.649
    1STR   H14518840   8.053   0.238   4.784
    1STR   C14618841   8.011   0.094   4.995
    1STR   H14718842   8.090   0.166   5.013
    1STR   H14818843   7.923   0.154   5.008
    1STR   O14918844   8.009   9.310   5.090
    1STR   C15018845   8.079   0.017   5.211
    1STR   H15118846   8.170   0.075   5.193
    1STR   C15218847   7.991   0.091   5.312
    1STR   H15318848   7.918   0.025   5.356
    1STR   H15418849   7.940   0.175   5.266
    1STR   H15518850   8.052   0.130   5.394
    1STR   C15618851   8.122   9.198   5.257
    1STR   H15718852   8.172   9.205   5.353
    1STR   H15818853   8.036   9.131   5.266
    1STR   O15918854   8.210   9.155   5.155
    1STR   C16018855   8.267   9.027   5.163
    1STR   H16118856   8.354   9.047   5.105
    1STR   C16218857   8.309   8.985   5.305
    1STR   H16318858   8.222   8.958   5.365
    1STR   H16418859   8.362   9.064   5.357
    1STR   H16518860   8.375   8.898   5.301
    1STR   C16618861   8.191   8.919   5.086
    1STR   H16718862   8.230   8.820   5.109
    1STR   H16818863   8.089   8.919   5.125
    1STR   O16918864   8.183   8.940   4.945
    1STR   C17018865   8.286   8.913   4.851
    1STR   H17118866   8.363   8.981   4.882
    1STR   C17218867   8.329   8.767   4.876
    1STR   H17318868   8.242   8.702   4.885
    1STR   H17418869   8.389   8.757   4.967
    1STR   H17518870   8.387   8.728   4.794
    1STR   C17618871   8.250   8.933   4.697
    1STR   H17718872   8.328   8.884   4.640
    1STR   H17818873   8.171   8.865   4.679
    1STR   O17918874   8.228   9.068   4.639
    1STR   C18018875   8.170   9.116   4.509
    1STR   H18118876   8.120   9.036   4.454
    1STR   C18218877   8.072   9.216   4.560
    1STR   H18318878   8.126   9.269   4.637
    1STR   H18418879   7.980   9.176   4.597
    1STR   H18518880   8.044   9.293   4.490
    1STR   C18618881   8.241   9.213   4.404
    1STR   H18718882   8.233   9.318   4.429
    1STR   H18818883   8.347   9.212   4.395
    1STR   O18918884   8.180   9.198   4.276
    1STR   C19018885   8.231   9.275   4.167
    1STR   H19118886   8.338   9.270   4.173
    1STR   C19218887   8.172   9.206   4.044
    1STR   H19318888   8.064   9.222   4.040
    1STR   H19418889   8.186   9.099   4.047
    1STR   H19518890   8.212   9.246   3.951
    1STR   C19618891   8.196   0.103   4.148
    1STR   H19718892   8.252   0.138   4.062
    1STR   H19818893   8.093   0.103   4.119
    1STR   O19918894   8.210   0.195   4.256
    1STR   C20018895   8.265   0.324   4.227
    1STR   H20118896   8.369   0.301   4.209
    1STR   C20218897   8.217   0.400   4.101
    1STR   H20318898   8.121   0.448   4.115
    1STR   H20418899   8.211   0.340   4.011
    1STR   H20518900   8.284   0.483   4.080
    1STR   C20618901   8.251   0.420   4.348
    1STR   H20718902   8.270   0.523   4.319
    1STR   H20818903   8.150   0.419   4.387
    1STR   O20918904   8.337   0.392   4.457
    1STR   C21018905   8.311   0.267   4.515
    1STR   H21118906   8.216   0.224   4.484
    1STR   C21218907   8.425   0.177   4.470
    1STR   H21318908   8.426   0.156   4.364
    1STR   H21418909   8.412   0.081   4.512
    1STR   H21518910   8.522   0.209   4.502
    1STR   C21618911   8.296   0.282   4.665
    1STR   H21718912   8.381   0.332   4.711
    1STR   H21818913   8.212   0.348   4.685
    1STR   O21918914   8.267   0.151   4.714
    1STR   C22018915   8.362   0.091   4.798
    1STR   H22118916   8.448   0.147   4.778
    1STR   C22218917   8.333   0.115   4.948
    1STR   H22318918   8.265   0.041   4.988
    1STR   H22418919   8.297   0.216   4.967
    1STR   H22518920   8.418   0.099   5.012
    1STR   C22618921   8.391   9.263   4.766
    1STR   H22718922   8.480   9.247   4.825
    1STR   H22818923   8.316   9.200   4.812
    1STR   O22918924   8.410   9.226   4.627
    1STR   C23018925   8.490   9.113   4.580
    1STR   H23118926   8.569   9.173   4.541
    1STR   C23218927   8.544   9.035   4.693
    1STR   H23318928   8.519   8.930   4.690
    1STR   H23418929   8.514   9.060   4.791
    1STR   H23518930   8.650   9.052   4.691
    1STR   C23618931   8.455   9.010   4.462
    1STR   H23718932   8.508   8.917   4.473
    1STR   H23818933   8.353   8.976   4.461
    1STR   O23918934   8.477   9.055   4.329
    1STR   C24018935   8.451   8.969   4.217
    1STR   H24118936   8.522   8.888   4.216
    1STR   C24218937   8.321   8.890   4.221
    1STR   H24318938   8.327   8.816   4.301
    1STR   H24418939   8.308   8.833   4.129
    1STR   H24518940   8.234   8.954   4.236
    1STR   C24618941   8.476   9.048   4.087
    1STR   H24718942   8.544   8.990   4.026
    1STR   H24818943   8.385   9.052   4.031
    1STR   O24918944   8.526   9.182   4.109
    1STR   C25018945   8.575   9.258   3.999
    1STR   H25118946   8.683   9.244   4.004
    1STR   C25218947   8.515   9.210   3.865
    1STR   H25318948   8.407   9.212   3.867
    1STR   H25418949   8.546   9.109   3.841
    1STR   H25518950   8.546   9.274   3.782
    1STR   C25618951   8.557   0.092   4.006
    1STR   H25718952   8.625   0.129   3.930
    1STR   H25818953   8.456   0.117   3.975
    1STR   O25918954   8.583   0.163   4.128
    1STR   C26018955   8.621   0.302   4.113
    1STR   H26118956   8.726   0.304   4.085
    1STR   C26218957   8.549   0.373   3.998
    1STR   H26318958   8.443   0.353   3.999
    1STR   H26418959   8.585   0.338   3.902
    1STR   H26518960   8.564   0.481   4.001
    1STR   C26618961   8.599   0.378   4.247
    1STR   H26718962   8.519   0.451   4.236
    1STR   H26818963   8.567   0.307   4.320
    1STR   O26918964   8.712   0.443   4.303
    1STR   C27018965   8.696   0.509   4.430
    1STR   H27118966   8.794   0.555   4.448
    1STR   C27218967   8.592   0.622   4.424
    1STR   H27318968   8.491   0.585   4.409
    1STR   H27418969   8.613   0.695   4.345
    1STR   H27518970   8.589   0.676   4.519
    1STR   C27618971   8.672   0.418   4.551
    1STR   H27718972   8.565   0.411   4.568
    1STR   H27818973   8.710   0.318   4.532
    1STR   O27918974   8.742   0.472   4.663
    1STR   C28018975   8.688   0.459   4.795
    1STR   H28118976   8.768   0.491   4.860
    1STR   C28218977   8.572   0.558   4.805
    1STR   H28318978   8.496   0.543   4.729
    1STR   H28418979   8.607   0.660   4.795
    1STR   H28518980   8.521   0.550   4.901
    1STR   C28618981   8.643   0.317   4.837
    1STR   H28718982   8.567   0.325   4.914
    1STR   H28818983   8.589   0.285   4.749
    1STR   O28918984   8.739   0.218   4.880
    1STR   C29018985   8.684   0.086   4.867
    1STR   H29118986   8.587   0.092   4.910
    1STR   C29218987   8.681   0.064   4.716
    1STR   H29318988   8.759   0.126   4.674
    1STR   H29418989   8.594   0.094   4.661
    1STR   H29518990   8.687   9.280   4.689
    1STR   C29618991   8.736   9.282   4.947
    1STR   H29718992   8.843   9.278   4.949
    1STR   H29818993   8.705   9.290   5.049
    1STR   O29918994   8.686   9.157   4.896
    1STR   C30018995   8.709   9.037   4.972
    1STR   H30118996   8.805   9.051   5.019
    1STR   C30218997   8.593   9.022   5.068
    1STR   H30318998   8.515   8.960   5.026
    1STR   H30418999   8.548   9.119   5.084
    1STR   H30519000   8.621   8.973   5.161
    1STR   C30619001   8.712   8.900   4.900
    1STR   H30719002   8.760   8.833   4.969
    1STR   H30819003   8.613   8.859   4.880
    1STR   O30919004   8.786   8.897   4.783
    1STR    H1R19005   8.685   8.865   4.606
    1STR    H1S19006   8.894   8.754   4.519
    1STR    H1T19007   8.956   8.818   4.675
    1STR    H1U19008   8.905   8.916   4.560
    1STR    H1V19009   8.566   8.701   4.701
    1STR    H1W19010   8.691   8.640   4.800
    1STR    H1X19011   8.708   8.736   4.510
    1STR    H1Y19012   8.748   8.573   4.177
    1STR    H1Z19013   8.812   8.724   3.992
    1STR    H2019014   8.883   9.094   4.038
    1STR    H2119015   8.906   8.960   3.927
    1STR    H2219016   8.747   9.041   3.953
    1STR    H2319017   8.675   9.146   4.178
    1STR    H2719018   8.703   8.921   4.422
    1STR    H2819019   7.733   0.737   4.068
    1STR    H2919020   7.629   0.522   4.009
    1STR    H2A19021   7.400   0.359   4.178
    1STR    H2B19022   7.525   0.259   4.243
    1STR    H2C19023   7.530   0.304   4.073
    1STR   BCK119024   7.340   9.206   6.873
    1STR    O0319025   7.266   9.255   6.955
    1STR    N0419026   7.455   9.257   6.843
    1STR    C0519027   7.535   0.002   6.932
    1STR    C0619028   7.550   9.280   7.066
    1STR    C0719029   7.651   0.013   7.151
    1STR    N0819030   7.685   9.273   7.274
    1STR    C0919031   7.787   9.292   7.358
    1STR    O0A19032   7.878   0.051   7.338
    1STR    O0B19033   7.765   9.236   7.480
    1STR    C0C19034   7.806   9.103   7.514
    1STR    C0D19035   7.881   9.094   7.648
    1STR    C0E19036   7.687   9.012   7.503
    1STR    O0F19037   7.713   8.887   7.566
    1STR    C0G19038   7.619   8.782   7.545
    1STR    C0H19039   7.485   8.826   7.486
    1STR    C0I19040   7.690   8.673   7.464
    1STR    O0J19041   7.604   8.592   7.384
    1STR    C0K19042   8.831   0.344   6.694
    1STR    C0M19043   8.947   0.306   6.606
    1STR    C0N19044   8.859   0.322   6.845
    1STR    O0O19045   8.769   0.293   6.951
    1STR    C0P19046   8.702   0.386   7.011
    1STR    O0Q19047   8.672   0.493   6.964
    1STR    N0R19048   8.665   0.365   7.137
    1STR    C0S19049   8.690   0.287   7.249
    1STR    C0T19050   8.679   0.366   7.365
    1STR    C0U19051   8.682   0.310   7.492
    1STR    C0V19052   8.700   0.172   7.507
    1STR    C0W19053   8.695   0.121   7.648
    1STR    C0X19054   8.722   0.087   7.394
    1STR    N0Y19055   8.744   9.271   7.424
    1STR   BCK219056   8.809   9.171   7.362
    1STR    O1019057   8.871   9.185   7.259
    1STR    C1319058   8.712   0.146   7.264
    1STR    C1419059   7.718   0.124   7.102
    1STR    C1519060   7.703   0.161   6.968
    1STR    C1619061   7.618   0.098   6.879
    1STR    C1719062   7.610   0.136   6.734
    1STR    H1B19063   7.474   9.262   6.743
    1STR    H1C19064   7.486   9.201   7.097
    1STR    H1D19065   7.621   9.202   7.303
    1STR    H1E19066   7.874   9.062   7.443
    1STR    H1F19067   7.940   9.183   7.667
    1STR    H1G19068   7.813   9.076   7.731
    1STR    H1H19069   7.948   9.008   7.647
    1STR    H1I19070   7.666   9.000   7.397
    1STR    H1J19071   7.603   9.062   7.547
    1STR    H1K19072   7.598   8.740   7.643
    1STR    H1M19073   7.434   8.904   7.540
    1STR    H1N19074   7.416   8.742   7.483
    1STR    H1O19075   7.499   8.867   7.387
    1STR    H1P19076   7.777   8.713   7.413
    1STR    H1Q19077   7.735   8.605   7.537
    1STR   C01019078   7.580   8.622   7.245
    1STR   H01119079   7.563   8.523   7.206
    1STR   C01219080   7.449   8.696   7.216
    1STR   H01319081   7.461   8.803   7.200
    1STR   H01419082   7.369   8.678   7.286
    1STR   H01519083   7.416   8.659   7.121
    1STR   C01619084   7.697   8.676   7.161
    1STR   H01719085   7.759   8.745   7.217
    1STR   H01819086   7.765   8.598   7.133
    1STR   O01919087   7.648   8.752   7.051
    1STR   C02019088   7.612   8.691   6.932
    1STR   H02119089   7.576   8.595   6.955
    1STR   C02219090   7.489   8.755   6.869
    1STR   H02319091   7.400   8.738   6.928
    1STR   H02419092   7.462   8.707   6.776
    1STR   H02519093   7.505   8.859   6.848
    1STR   C02619094   7.733   8.688   6.840
    1STR   H02719095   7.773   8.787   6.845
    1STR   H02819096   7.815   8.629   6.878
    1STR   O02919097   7.694   8.646   6.709
    1STR   C03019098   7.787   8.671   6.607
    1STR   H03119099   7.883   8.655   6.655
    1STR   C03219100   7.773   8.566   6.498
    1STR   H03319101   7.672   8.565   6.457
    1STR   H03419102   7.794   8.467   6.538
    1STR   H03519103   7.843   8.584   6.416
    1STR   C03619104   7.767   8.814   6.555
    1STR   H03719105   7.863   8.856   6.530
    1STR   H03819106   7.711   8.817   6.463
    1STR   O03919107   7.701   8.885   6.660
    1STR   C04019108   7.724   9.021   6.678
    1STR   H04119109   7.827   9.039   6.654
    1STR   C04219110   7.632   9.089   6.583
    1STR   H04319111   7.648   9.196   6.580
    1STR   H04419112   7.529   9.072   6.614
    1STR   H04519113   7.650   9.050   6.483
    1STR   C04619114   7.698   9.066   6.821
    1STR   H04719115   7.714   9.173   6.824
    1STR   H04819116   7.595   9.049   6.848
    1STR   O04919117   7.784   9.002   6.914
    1STR   C05019118   7.778   9.057   7.044
    1STR   H05119119   7.784   9.165   7.034
    1STR   C05219120   7.654   9.007   7.120
    1STR   H05319121   7.681   8.928   7.187
    1STR   H05419122   7.574   8.977   7.054
    1STR   H05519123   7.610   9.072   7.192
    1STR   C05619124   7.906   9.014   7.111
    1STR   H05719125   7.903   8.906   7.125
    1STR   H05819126   7.986   9.032   7.041
    1STR   O05919127   7.926   9.084   7.233
    1STR   C06019128   8.058   9.079   7.285
    1STR   H06119129   8.113   9.140   7.215
    1STR   C06219130   8.099   9.156   7.412
    1STR   H06319131   8.096   9.093   7.501
    1STR   H06419132   8.044   9.246   7.432
    1STR   H06519133   8.202   9.190   7.403
    1STR   C06619134   8.106   8.933   7.293
    1STR   H06719135   8.129   8.912   7.191
    1STR   H06819136   8.194   8.927   7.357
    1STR   O06919137   8.022   8.822   7.318
    1STR   C07019138   8.093   8.701   7.285
    1STR   H07119139   8.201   8.713   7.296
    1STR   C07219140   8.054   8.602   7.395
    1STR   H07319141   7.951   8.568   7.384
    1STR   H07419142   8.064   8.649   7.492
    1STR   H07519143   8.119   8.515   7.394
    1STR   C07619144   8.063   8.648   7.140
    1STR   H07719145   8.074   8.540   7.137
    1STR   H07819146   7.958   8.666   7.122
    1STR   O07919147   8.127   8.715   7.029
    1STR   C08019148   8.226   8.652   6.942
    1STR   H08119149   8.315   8.715   6.945
    1STR   C08219150   8.277   8.517   6.995
    1STR   H08319151   8.202   8.439   6.987
    1STR   H08419152   8.310   8.526   7.099
    1STR   H08519153   8.364   8.485   6.938
    1STR   C08619154   8.187   8.648   6.790
    1STR   H08719155   8.246   8.569   6.743
    1STR   H08819156   8.083   8.615   6.782
    1STR   O08919157   8.215   8.765   6.707
    1STR   C09019158   8.101   8.825   6.641
    1STR   H09119159   8.054   8.737   6.599
    1STR   C09219160   8.019   8.887   6.754
    1STR   H09319161   7.917   8.879   6.735
    1STR   H09419162   8.042   8.991   6.768
    1STR   H09519163   8.023   8.836   6.849
    1STR   C09619164   8.114   8.917   6.511
    1STR   H09719165   8.215   8.911   6.471
    1STR   H09819166   8.055   8.873   6.431
    1STR   O09919167   8.077   9.057   6.522
    1STR   C10019168   7.967   9.112   6.441
    1STR   H10119169   7.888   9.038   6.434
    1STR   C10219170   7.910   9.233   6.515
    1STR   H10319171   7.988   9.306   6.526
    1STR   H10419172   7.873   9.223   6.615
    1STR   H10519173   7.828   9.278   6.459
    1STR   C10619174   7.993   9.164   6.296
    1STR   H10719175   8.080   9.114   6.254
    1STR   H10819176   7.908   9.138   6.234
    1STR   O10919177   8.017   9.307   6.297
    1STR   C11019178   7.949   0.090   6.226
    1STR   H11119179   8.018   0.124   6.150
    1STR   C11219180   7.827   0.044   6.150
    1STR   H11319181   7.761   9.318   6.221
    1STR   H11419182   7.851   9.291   6.073
    1STR   H11519183   7.777   0.128   6.104
    1STR   C11619184   7.918   0.216   6.316
    1STR   H11719185   8.002   0.284   6.307
    1STR   H11819186   7.835   0.272   6.274
    1STR   O11919187   7.890   0.190   6.456
    1STR   C12019188   7.908   0.299   6.549
    1STR   H12119189   8.005   0.345   6.533
    1STR   C12219190   7.810   0.410   6.514
    1STR   H12319191   7.708   0.372   6.521
    1STR   H12419192   7.824   0.451   6.414
    1STR   H12519193   7.822   0.494   6.583
    1STR   C12619194   7.907   0.262   6.703
    1STR   H12719195   7.995   0.302   6.749
    1STR   H12819196   7.833   0.322   6.754
    1STR   O12919197   7.895   0.121   6.736
    1STR   C13019198   7.954   0.064   6.856
    1STR   H13119199   7.876   0.025   6.918
    1STR   C13219200   8.008   9.242   6.834
    1STR   H13319201   8.084   9.231   6.758
    1STR   H13419202   7.928   9.176   6.805
    1STR   H13519203   8.041   9.199   6.927
    1STR   C13619204   8.038   0.152   6.954
    1STR   H13719205   8.081   0.083   7.025
    1STR   H13819206   8.117   0.208   6.908
    1STR   O13919207   7.957   0.242   7.027
    1STR   C14019208   8.004   0.304   7.146
    1STR   H14119209   7.921   0.325   7.213
    1STR   C14219210   8.111   0.226   7.225
    1STR   H14319211   8.206   0.226   7.172
    1STR   H14419212   8.084   0.123   7.242
    1STR   H14519213   8.128   0.272   7.322
    1STR   C14619214   8.054   0.437   7.100
    1STR   H14719215   8.129   0.461   7.174
    1STR   H14819216   8.098   0.423   7.002
    1STR   O14919217   7.960   0.542   7.092
    1STR   C15019218   8.012   0.670   7.131
    1STR   H15119219   8.104   0.660   7.188
    1STR   C15219220   8.052   0.763   7.015
    1STR   H15319221   8.019   0.726   6.919
    1STR   H15419222   8.160   0.775   7.009
    1STR   H15519223   8.011   0.863   7.029
    1STR   C15619224   7.913   0.726   7.232
    1STR   H15719225   7.923   0.834   7.247
    1STR   H15819226   7.811   0.710   7.198
    1STR   O15919227   7.937   0.651   7.351
    1STR   C16019228   8.003   0.718   7.458
    1STR   H16119229   7.940   0.800   7.491
    1STR   C16219230   8.009   0.609   7.565
    1STR   H16319231   8.072   0.526   7.533
    1STR   H16419232   7.910   0.567   7.584
    1STR   H16519233   8.049   0.646   7.660
    1STR   C16619234   8.147   0.769   7.427
    1STR   H16719235   8.189   0.817   7.515
    1STR   H16819236   8.207   0.682   7.404
    1STR   O16919237   8.150   0.862   7.319
    1STR   C17019238   8.277   0.902   7.265
    1STR   H17119239   8.255   0.924   7.160
    1STR   C17219240   8.318   1.036   7.324
    1STR   H17319241   8.335   1.031   7.432
    1STR   H17419242   8.240   1.110   7.306
    1STR   H17519243   8.409   1.073   7.276
    1STR   C17619244   8.388   0.795   7.263
    1STR   H17719245   8.480   0.841   7.229
    1STR   H17819246   8.409   0.754   7.362
    1STR   O17919247   8.340   0.700   7.170
    1STR   C18019248   8.405   0.577   7.143
    1STR   H18119249   8.508   0.586   7.115
    1STR   C18219250   8.391   0.486   7.267
    1STR   H18319251   8.289   0.480   7.304
    1STR   H18419252   8.450   0.522   7.350
    1STR   H18519253   8.421   0.383   7.246
    1STR   C18619254   8.331   0.522   7.019
    1STR   H18719255   8.319   0.415   7.025
    1STR   H18819256   8.237   0.570   7.032
    1STR   O18919257   8.367   0.559   6.886
    1STR   C19019258   8.255   0.579   6.796
    1STR   H19119259   8.161   0.586   6.848
    1STR   C19219260   8.287   0.716   6.736
    1STR   H19319261   8.387   0.718   6.693
    1STR   H19419262   8.285   0.792   6.813
    1STR   H19519263   8.215   0.744   6.659
    1STR   C19619264   8.224   0.476   6.683
    1STR   H19719265   8.131   0.506   6.635
    1STR   H19819266   8.297   0.482   6.606
    1STR   O19919267   8.210   0.339   6.718
    1STR   C20019268   8.255   0.237   6.626
    1STR   H20119269   8.356   0.210   6.650
    1STR   C20219270   8.191   0.113   6.667
    1STR   H20319271   8.089   0.117   6.641
    1STR   H20419272   8.208   0.089   6.770
    1STR   H20519273   8.225   0.031   6.609
    1STR   C20619274   8.237   0.247   6.472
    1STR   H20719275   8.138   0.214   6.445
    1STR   H20819276   8.245   0.349   6.435
    1STR   O20919277   8.334   0.166   6.405
    1STR   C21019278   8.292   0.038   6.358
    1STR   H21119279   8.196   0.022   6.402
    1STR   C21219280   8.293   0.047   6.205
    1STR   H21319281   8.396   0.056   6.169
    1STR   H21419282   8.240   0.136   6.172
    1STR   H21519283   8.248   9.280   6.160
    1STR   C21619284   8.362   9.231   6.407
    1STR   H21719285   8.291   9.149   6.406
    1STR   H21819286   8.443   9.203   6.341
    1STR   O21919287   8.415   9.252   6.536
    1STR   C22019288   8.381   9.161   6.639
    1STR   H22119289   8.274   9.161   6.657
    1STR   C22219290   8.423   9.018   6.608
    1STR   H22319291   8.342   8.951   6.631
    1STR   H22419292   8.500   8.984   6.676
    1STR   H22519293   8.453   9.001   6.505
    1STR   C22619294   8.459   9.211   6.762
    1STR   H22719295   8.465   9.136   6.839
    1STR   H22819296   8.560   9.214   6.730
    1STR   O22919297   8.424   0.020   6.811
    1STR   C23019298   8.420   0.035   6.953
    1STR   H23119299   8.510   0.003   7.004
    1STR   C23219300   8.411   0.183   6.983
    1STR   H23319301   8.404   0.201   7.089
    1STR   H23419302   8.328   0.227   6.929
    1STR   H23519303   8.502   0.232   6.949
    1STR   C23619304   8.305   9.274   7.010
    1STR   H23719305   8.266   9.314   7.103
    1STR   H23819306   8.230   9.269   6.934
    1STR   O23919307   8.362   9.149   7.033
    1STR   C24019308   8.289   9.030   7.036
    1STR   H24119309   8.189   9.054   7.061
    1STR   C24219310   8.279   8.980   6.898
    1STR   H24319311   8.373   8.942   6.860
    1STR   H24419312   8.237   9.055   6.832
    1STR   H24519313   8.210   8.899   6.902
    1STR   C24619314   8.357   8.920   7.124
    1STR   H24719315   8.299   8.830   7.131
    1STR   H24819316   8.441   8.877   7.072
    1STR   O24919317   8.393   8.954   7.258
    1STR   C25019318   8.444   9.083   7.281
    1STR   H25119319   8.371   9.160   7.256
    1STR   C25219320   8.462   9.094   7.433
    1STR   H25319321   8.533   9.020   7.470
    1STR   H25419322   8.369   9.076   7.486
    1STR   H25519323   8.497   9.194   7.460
    1STR   C25619324   8.573   9.102   7.200
    1STR   H25719325   8.610   9.204   7.200
    1STR   H25819326   8.637   9.037   7.251
    1STR   O25919327   8.578   9.049   7.068
    1STR   C26019328   8.699   9.002   7.018
    1STR   H26119329   8.776   9.019   7.091
    1STR   C26219330   8.675   8.857   6.981
    1STR   H26319331   8.600   8.849   6.903
    1STR   H26419332   8.638   8.802   7.066
    1STR   H26519333   8.766   8.810   6.945
    1STR   C26619334   8.734   9.083   6.896
    1STR   H26719335   8.841   9.080   6.877
    1STR   H26819336   8.682   9.046   6.809
    1STR   O26919337   8.686   9.211   6.928
    1STR   C27019338   8.759   0.003   6.890
    1STR   H27119339   8.692   0.086   6.907
    1STR   C27219340   8.877   0.011   6.986
    1STR   H27319341   8.884   9.240   7.041
    1STR   H27419342   8.874   0.095   7.054
    1STR   H27519343   8.969   0.021   6.934
    1STR   C27619344   8.794   0.001   6.742
    1STR   H27719345   8.879   0.062   6.729
    1STR   H27819346   8.814   9.221   6.708
    1STR   O27919347   8.692   0.058   6.666
    1STR   C28019348   8.711   0.068   6.526
    1STR   H28119349   8.807   0.112   6.501
    1STR   C28219350   8.696   9.250   6.466
    1STR   H28319351   8.659   9.248   6.365
    1STR   H28419352   8.628   9.192   6.524
    1STR   H28519353   8.789   9.197   6.466
    1STR   C28619354   8.600   0.162   6.483
    1STR   H28719355   8.565   0.142   6.383
    1STR   H28819356   8.517   0.138   6.548
    1STR   O28919357   8.633   0.300   6.494
    1STR   C29019358   8.533   0.378   6.560
    1STR   H29119359   8.445   0.348   6.511
    1STR   C29219360   8.530   0.355   6.712
    1STR   H29319361   8.554   0.252   6.740
    1STR   H29419362   8.437   0.376   6.761
    1STR   H29519363   8.597   0.421   6.763
    1STR   C29619364   8.536   0.527   6.527
    1STR   H29719365   8.440   0.574   6.513
    1STR   H29819366   8.584   0.588   6.603
    1STR   O29919367   8.589   0.531   6.399
    1STR   C30019368   8.728   0.547   6.396
    1STR   H30119369   8.761   0.473   6.324
    1STR   C30219370   8.726   0.691   6.338
    1STR   H30319371   8.672   0.758   6.404
    1STR   H30419372   8.674   0.693   6.242
    1STR   H30519373   8.824   0.735   6.323
    1STR   C30619374   8.816   0.534   6.525
    1STR   H30719375   8.921   0.530   6.500
    1STR   H30819376   8.798   0.631   6.562
    1STR   O30919377   8.786   0.474   6.653
    1STR    H1R19378   8.755   0.272   6.675
    1STR    H1S19379   8.986   0.207   6.622
    1STR    H1T19380   9.023   0.379   6.627
    1STR    H1U19381   8.919   0.308   6.501
    1STR    H1V19382   8.937   0.384   6.882
    1STR    H1W19383   8.902   0.225   6.844
    1STR    H1X19384   8.604   0.443   7.153
    1STR    H1Y19385   8.668   0.473   7.357
    1STR    H1Z19386   8.671   0.374   7.577
    1STR    H2019387   8.797   0.104   7.680
    1STR    H2119388   8.652   0.194   7.716
    1STR    H2219389   8.635   0.030   7.654
    1STR    H2319390   8.711   9.243   7.514
    1STR    H2719391   8.714   0.082   7.177
    1STR    H2819392   7.784   0.178   7.165
    1STR    H2919393   7.763   0.240   6.928
    1STR    H2A19394   7.655   0.060   6.671
    1STR    H2B19395   7.659   0.228   6.710
    1STR    H2C19396   7.507   0.153   6.707
    1STR   BCK119397   7.467   1.988   0.408
    1STR    O0319398   7.551   2.007   0.493
    1STR    N0419399   7.436   1.872   0.353
    1STR    C0519400   7.522   1.764   0.338
    1STR    C0619401   7.550   1.730   0.206
    1STR    C0719402   7.634   1.626   0.165
    1STR    N0819403   7.648   1.602   0.027
    1STR    C0919404   7.690   1.492   9.284
    1STR    O0A19405   7.740   1.396   0.023
    1STR    O0B19406   7.669   1.483   9.149
    1STR    C0C19407   7.650   1.584   9.048
    1STR    C0D19408   7.619   1.512   8.916
    1STR    C0E19409   7.553   1.699   9.069
    1STR    O0F19410   7.616   1.789   9.157
    1STR    C0G19411   7.555   1.915   9.168
    1STR    C0H19412   7.594   1.951   9.309
    1STR    C0I19413   7.605   2.022   9.068
    1STR    O0J19414   7.557   2.150   9.112
    1STR    C0K19415   8.533   2.554   0.812
    1STR    C0M19416   8.387   2.568   0.773
    1STR    C0N19417   8.542   2.440   0.915
    1STR    O0O19418   8.502   2.312   0.869
    1STR    C0P19419   8.593   2.227   0.822
    1STR    O0Q19420   8.710   2.251   0.797
    1STR    N0R19421   8.537   2.107   0.814
    1STR    C0S19422   8.581   1.994   0.746
    1STR    C0T19423   8.531   1.869   0.786
    1STR    C0U19424   8.539   1.759   0.699
    1STR    C0V19425   8.592   1.777   0.570
    1STR    C0W19426   8.545   1.686   0.458
    1STR    C0X19427   8.661   1.894   0.537
    1STR    N0Y19428   8.717   1.897   0.410
    1STR   BCK219429   8.828   1.951   0.361
    1STR    O1019430   8.869   1.918   0.251
    1STR    C1319431   8.656   2.003   0.627
    1STR    C1419432   7.698   1.555   0.268
    1STR    C1519433   7.672   1.586   0.404
    1STR    C1619434   7.584   1.690   0.441
    1STR    C1719435   7.564   1.718   0.588
    1STR    H1B19436   7.358   1.877   0.290
    1STR    H1C19437   7.498   1.781   0.130
    1STR    H1D19438   7.627   1.678   9.282
    1STR    H1E19439   7.747   1.629   9.035
    1STR    H1F19440   7.518   1.472   8.913
    1STR    H1G19441   7.627   1.579   8.831
    1STR    H1H19442   7.689   1.430   8.900
    1STR    H1I19443   7.454   1.668   9.102
    1STR    H1J19444   7.541   1.751   8.974
    1STR    H1K19445   7.447   1.905   9.167
    1STR    H1M19446   7.667   1.884   0.034
    1STR    H1N19447   7.503   1.954   0.046
    1STR    H1O19448   7.640   2.047   9.314
    1STR    H1P19449   7.713   2.019   9.066
    1STR    H1Q19450   7.574   1.998   8.967
    1STR   C01019451   7.587   2.269   9.039
    1STR   H01119452   7.690   2.281   9.014
    1STR   C01219453   7.512   2.269   8.909
    1STR   H01319454   7.408   2.291   8.932
    1STR   H01419455   7.519   2.176   8.853
    1STR   H01519456   7.555   2.348   8.849
    1STR   C01619457   7.561   2.398   9.119
    1STR   H01719458   7.523   2.476   9.054
    1STR   H01819459   7.486   2.383   9.195
    1STR   O01919460   7.687   2.446   9.168
    1STR   C02019461   7.682   2.511   9.293
    1STR   H02119462   7.582   2.550   9.311
    1STR   C02219463   7.710   2.406   0.079
    1STR   H02319464   7.695   2.444   0.180
    1STR   H02419465   7.810   2.365   0.072
    1STR   H02519466   7.647   2.320   0.065
    1STR   C02619467   7.785   2.625   9.297
    1STR   H02719468   7.881   2.584   9.268
    1STR   H02819469   7.770   2.703   9.222
    1STR   O02919470   7.779   2.680   0.108
    1STR   C03019471   7.893   2.745   0.163
    1STR   H03119472   7.983   2.717   0.109
    1STR   C03219473   7.889   2.897   0.145
    1STR   H03319474   7.813   2.945   0.205
    1STR   H03419475   7.872   2.924   0.041
    1STR   H03519476   7.984   2.943   0.174
    1STR   C03619477   7.897   2.698   0.311
    1STR   H03719478   7.989   2.733   0.355
    1STR   H03819479   7.823   2.754   0.366
    1STR   O03919480   7.879   2.555   0.329
    1STR   C04019481   7.841   2.505   0.458
    1STR   H04119482   7.903   2.553   0.534
    1STR   C04219483   7.701   2.551   0.476
    1STR   H04319484   7.649   2.539   0.382
    1STR   H04419485   7.699   2.655   0.508
    1STR   H04519486   7.651   2.492   0.552
    1STR   C04619487   7.847   2.351   0.484
    1STR   H04719488   7.951   2.326   0.498
    1STR   H04819489   7.804   2.332   0.583
    1STR   O04919490   7.782   2.261   0.391
    1STR   C05019491   7.825   2.122   0.397
    1STR   H05119492   7.926   2.117   0.365
    1STR   C05219493   7.822   2.065   0.540
    1STR   H05319494   7.741   2.107   0.598
    1STR   H05419495   7.914   2.087   0.595
    1STR   H05519496   7.809   1.957   0.541
    1STR   C05619497   7.776   2.032   0.281
    1STR   H05719498   7.696   1.964   0.305
    1STR   H05819499   7.739   2.106   0.212
    1STR   O05919500   7.870   1.968   0.194
    1STR   C06019501   7.927   1.838   0.210
    1STR   H06119502   8.032   1.861   0.201
    1STR   C06219503   7.904   1.784   0.350
    1STR   H06319504   7.800   1.795   0.378
    1STR   H06419505   7.957   1.841   0.425
    1STR   H06519506   7.930   1.679   0.359
    1STR   C06619507   7.931   1.733   0.093
    1STR   H06719508   8.035   1.707   0.083
    1STR   H06819509   7.887   1.639   0.121
    1STR   O06919510   7.892   1.766   9.280
    1STR   C07019511   7.974   1.707   9.176
    1STR   H07119512   8.076   1.733   9.191
    1STR   C07219513   7.983   1.553   9.174
    1STR   H07319514   7.901   1.506   9.123
    1STR   H07419515   7.992   1.510   9.273
    1STR   H07519516   8.072   1.523   9.118
    1STR   C07619517   7.945   1.775   9.042
    1STR   H07719518   7.846   1.821   9.046
    1STR   H07819519   8.014   1.858   9.028
    1STR   O07919520   7.956   1.681   8.936
    1STR   C08019521   7.964   1.733   8.805
    1STR   H08119522   8.053   1.795   8.798
    1STR   C08219523   7.983   1.611   8.715
    1STR   H08319524   7.898   1.544   8.722
    1STR   H08419525   8.072   1.556   8.745
    1STR   H08519526   7.996   1.641   8.611
    1STR   C08619527   7.838   1.811   8.763
    1STR   H08719528   7.839   1.833   8.656
    1STR   H08819529   7.750   1.750   8.780
    1STR   O08919530   7.819   1.930   8.838
    1STR   C09019531   7.909   2.036   8.809
    1STR   H09119532   8.012   2.003   8.798
    1STR   C09219533   7.858   2.104   8.680
    1STR   H09319534   7.753   2.132   8.691
    1STR   H09419535   7.866   2.041   8.593
    1STR   H09519536   7.912   2.196   8.658
    1STR   C09619537   7.903   2.132   8.926
    1STR   H09719538   7.955   2.222   8.903
    1STR   H09819539   7.799   2.153   8.929
    1STR   O09919540   7.952   2.089   9.052
    1STR   C10019541   7.918   2.171   9.166
    1STR   H10119542   7.827   2.227   9.152
    1STR   C10219543   7.885   2.070   9.269
    1STR   H10319544   7.971   2.030   0.001
    1STR   H10419545   7.832   1.984   9.230
    1STR   H10519546   7.826   2.122   0.023
    1STR   C10619547   8.024   2.264   9.227
    1STR   H10719548   8.119   2.229   9.191
    1STR   H10819549   8.012   2.365   9.188
    1STR   O10919550   8.020   2.263   0.052
    1STR   C11019551   8.104   2.350   0.127
    1STR   H11119552   8.206   2.337   0.099
    1STR   C11219553   8.060   2.491   0.100
    1STR   H11319554   7.956   2.496   0.126
    1STR   H11419555   8.069   2.530   0.000
    1STR   H11519556   8.111   2.560   0.165
    1STR   C11619557   8.087   2.333   0.279
    1STR   H11719558   8.073   2.429   0.328
    1STR   H11819559   7.991   2.286   0.287
    1STR   O11919560   8.192   2.277   0.360
    1STR   C12019561   8.164   2.152   0.417
    1STR   H12119562   8.076   2.164   0.477
    1STR   C12219563   8.153   2.058   0.301
    1STR   H12319564   8.252   2.033   0.267
    1STR   H12419565   8.095   2.090   0.215
    1STR   H12519566   8.107   1.971   0.341
    1STR   C12619567   8.258   2.087   0.518
    1STR   H12719568   8.357   2.068   0.477
    1STR   H12819569   8.271   2.150   0.606
    1STR   O12919570   8.189   1.966   0.553
    1STR   C13019571   8.259   1.843   0.536
    1STR   H13119572   8.363   1.866   0.545
    1STR   C13219573   8.214   1.766   0.661
    1STR   H13319574   8.106   1.751   0.660
    1STR   H13419575   8.238   1.822   0.752
    1STR   H13519576   8.261   1.668   0.668
    1STR   C13619577   8.236   1.754   0.408
    1STR   H13719578   8.284   1.658   0.426
    1STR   H13819579   8.133   1.725   0.403
    1STR   O13919580   8.279   1.804   0.279
    1STR   C14019581   8.310   1.710   0.172
    1STR   H14119582   8.412   1.679   0.191
    1STR   C14219583   8.230   1.578   0.181
    1STR   H14319584   8.130   1.590   0.222
    1STR   H14419585   8.281   1.507   0.246
    1STR   H14519586   8.220   1.529   0.084
    1STR   C14619587   8.318   1.771   0.026
    1STR   H14719588   8.411   1.825   0.012
    1STR   H14819589   8.322   1.692   9.272
    1STR   O14919590   8.211   1.855   9.302
    1STR   C15019591   8.231   1.973   9.220
    1STR   H15119592   8.130   2.008   9.211
    1STR   C15219593   8.305   2.067   9.310
    1STR   H15319594   8.398   2.092   9.265
    1STR   H15419595   8.329   2.022   0.085
    1STR   H15519596   8.249   2.155   0.014
    1STR   C15619597   8.275   1.984   9.069
    1STR   H15719598   8.384   1.989   9.063
    1STR   H15819599   8.245   1.893   9.016
    1STR   O15919600   8.213   2.099   9.002
    1STR   C16019601   8.272   2.169   8.889
    1STR   H16119602   8.363   2.218   8.925
    1STR   C16219603   8.314   2.063   8.787
    1STR   H16319604   8.230   2.000   8.758
    1STR   H16419605   8.391   1.997   8.827
    1STR   H16519606   8.354   2.108   8.697
    1STR   C16619607   8.184   2.281   8.815
    1STR   H16719608   8.245   2.324   8.736
    1STR   H16819609   8.106   2.229   8.760
    1STR   O16919610   8.128   2.396   8.885
    1STR   C17019611   8.004   2.458   8.836
    1STR   H17119612   7.955   2.391   8.766
    1STR   C17219613   7.915   2.474   8.962
    1STR   H17319614   7.965   2.536   9.036
    1STR   H17419615   7.891   2.382   9.012
    1STR   H17519616   7.820   2.521   8.939
    1STR   C17619617   7.995   2.601   8.774
    1STR   H17719618   7.894   2.610   8.733
    1STR   H17819619   7.997   2.674   8.854
    1STR   O17919620   8.086   2.645   8.674
    1STR   C18019621   8.074   2.784   8.634
    1STR   H18119622   8.143   2.792   8.550
    1STR   C18219623   7.934   2.818   8.581
    1STR   H18319624   7.861   2.823   8.662
    1STR   H18419625   7.901   2.745   8.507
    1STR   H18519626   7.934   2.916   8.533
    1STR   C18619627   8.119   2.893   8.735
    1STR   H18719628   8.223   2.881   8.762
    1STR   H18819629   8.118   2.991   8.687
    1STR   O18919630   8.035   2.902   8.850
    1STR   C19019631   8.103   2.939   8.970
    1STR   H19119632   8.178   3.017   8.951
    1STR   C19219633   8.000   2.997   9.067
    1STR   H19319634   7.923   2.923   9.091
    1STR   H19419635   7.950   3.084   9.024
    1STR   H19519636   8.046   3.028   9.160
    1STR   C19619637   8.172   2.816   9.030
    1STR   H19719638   8.183   2.829   9.136
    1STR   H19819639   8.107   2.729   9.027
    1STR   O19919640   8.300   2.796   8.969
    1STR   C20019641   8.311   2.672   8.899
    1STR   H20119642   8.215   2.642   8.863
    1STR   C20219643   8.402   2.681   8.777
    1STR   H20319644   8.495   2.729   8.805
    1STR   H20419645   8.359   2.737   8.695
    1STR   H20519646   8.423   2.582   8.737
    1STR   C20619647   8.351   2.560   8.992
    1STR   H20719648   8.354   2.467   8.936
    1STR   H20819649   8.448   2.575   9.036
    1STR   O20919650   8.257   2.550   9.095
    1STR   C21019651   8.306   2.474   9.203
    1STR   H21119652   8.217   2.435   9.243
    1STR   C21219653   8.372   2.344   9.168
    1STR   H21319654   8.451   2.346   9.095
    1STR   H21419655   8.301   2.274   9.128
    1STR   H21519656   8.407   2.305   9.263
    1STR   C21619657   8.379   2.556   9.309
    1STR   H21719658   8.420   2.493   0.069
    1STR   H21819659   8.464   2.606   9.264
    1STR   O21919660   8.290   2.651   0.045
    1STR   C22019661   8.356   2.751   0.119
    1STR   H22119662   8.436   2.709   0.177
    1STR   C22219663   8.401   2.852   0.017
    1STR   H22319664   8.426   2.949   0.059
    1STR   H22419665   8.328   2.869   9.260
    1STR   H22519666   8.486   2.811   9.287
    1STR   C22619667   8.267   2.819   0.220
    1STR   H22719668   8.323   2.894   0.276
    1STR   H22819669   8.188   2.871   0.166
    1STR   O22919670   8.210   2.723   0.304
    1STR   C23019671   8.292   2.666   0.404
    1STR   H23119672   8.376   2.730   0.430
    1STR   C23219673   8.190   2.664   0.517
    1STR   H23319674   8.100   2.615   0.484
    1STR   H23419675   8.166   2.765   0.551
    1STR   H23519676   8.218   2.604   0.601
    1STR   C23619677   8.338   2.523   0.365
    1STR   H23719678   8.308   2.457   0.445
    1STR   H23819679   8.284   2.497   0.276
    1STR   O23919680   8.477   2.501   0.337
    1STR   C24019681   8.525   2.364   0.341
    1STR   H24119682   8.627   2.369   0.302
    1STR   C24219683   8.534   2.306   0.484
    1STR   H24319684   8.543   2.198   0.481
    1STR   H24419685   8.447   2.327   0.546
    1STR   H24519686   8.622   2.338   0.539
    1STR   C24619687   8.444   2.268   0.252
    1STR   H24719688   8.398   2.191   0.311
    1STR   H24819689   8.368   2.323   0.203
    1STR   O24919690   8.505   2.199   0.147
    1STR   C25019691   8.609   2.114   0.185
    1STR   H25119692   8.613   2.102   0.293
    1STR   C25219693   8.586   1.976   0.124
    1STR   H25319694   8.566   1.983   0.017
    1STR   H25419695   8.503   1.929   0.175
    1STR   H25519696   8.670   1.908   0.132
    1STR   C25619697   8.734   2.183   0.137
    1STR   H25719698   8.790   2.204   0.227
    1STR   H25819699   8.795   2.112   0.084
    1STR   O25919700   8.703   2.308   0.072
    1STR   C26019701   8.725   2.321   9.252
    1STR   H26119702   8.830   2.321   9.230
    1STR   C26219703   8.655   2.209   9.175
    1STR   H26319704   8.559   2.190   9.214
    1STR   H26419705   8.698   2.111   9.189
    1STR   H26519706   8.646   2.230   9.068
    1STR   C26619707   8.688   2.463   9.208
    1STR   H26719708   8.589   2.469   9.168
    1STR   H26819709   8.690   2.530   9.293
    1STR   O26919710   8.781   2.510   9.113
    1STR   C27019711   8.732   2.586   9.004
    1STR   H27119712   8.822   2.614   8.952
    1STR   C27219713   8.665   2.494   8.900
    1STR   H27319714   8.585   2.433   8.940
    1STR   H27419715   8.738   2.424   8.860
    1STR   H27519716   8.629   2.549   8.814
    1STR   C27619717   8.666   2.723   9.038
    1STR   H27719718   8.711   2.796   8.973
    1STR   H27819719   8.562   2.732   9.012
    1STR   O27919720   8.681   2.768   9.171
    1STR   C28019721   8.692   2.910   9.188
    1STR   H28119722   8.788   2.937   9.143
    1STR   C28219723   8.587   2.989   9.106
    1STR   H28319724   8.486   2.949   9.115
    1STR   H28419725   8.610   2.987   9.000
    1STR   H28519726   8.584   3.094   9.134
    1STR   C28619727   8.701   2.956   0.017
    1STR   H28719728   8.804   2.969   0.044
    1STR   H28819729   8.659   3.055   0.024
    1STR   O28919730   8.648   2.886   0.130
    1STR   C29019731   8.692   2.753   0.160
    1STR   H29119732   8.625   2.683   0.113
    1STR   C29219733   8.828   2.720   0.103
    1STR   H29319734   8.907   2.769   0.159
    1STR   H29419735   8.848   2.741   9.319
    1STR   H29519736   8.840   2.614   0.109
    1STR   C29619737   8.704   2.727   0.312
    1STR   H29719738   8.721   2.620   0.324
    1STR   H29819739   8.793   2.778   0.342
    1STR   O29919740   8.606   2.774   0.404
    1STR   C30019741   8.639   2.746   0.542
    1STR   H30119742   8.745   2.758   0.557
    1STR   C30219743   8.570   2.852   0.628
    1STR   H30319744   8.462   2.849   0.616
    1STR   H30419745   8.604   2.951   0.598
    1STR   H30519746   8.595   2.839   0.733
    1STR   C30619747   8.600   2.601   0.578
    1STR   H30719748   8.498   2.583   0.552
    1STR   H30819749   8.659   2.540   0.509
    1STR   O30919750   8.627   2.540   0.705
    1STR    H1R19751   8.558   2.648   0.859
    1STR    H1S19752   8.321   2.570   0.860
    1STR    H1T19753   8.358   2.484   0.710
    1STR    H1U19754   8.374   2.663   0.722
    1STR    H1V19755   8.477   2.465   0.999
    1STR    H1W19756   8.640   2.431   0.958
    1STR    H1X19757   8.445   2.104   0.855
    1STR    H1Y19758   8.477   1.859   0.879
    1STR    H1Z19759   8.489   1.667   0.726
    1STR    H2019760   8.479   1.747   0.398
    1STR    H2119761   8.618   1.662   0.383
    1STR    H2219762   8.495   1.596   0.492
    1STR    H2319763   8.676   1.834   0.342
    1STR    H2719764   8.700   2.098   0.599
    1STR    H2819765   7.766   1.475   0.245
    1STR    H2919766   7.721   1.529   0.481
    1STR    H2A19767   7.658   1.750   0.634
    1STR    H2B19768   7.530   1.627   0.638
    1STR    H2C19769   7.490   1.794   0.606
    1STR   BCK119770   7.356   2.654   2.008
    1STR    O0319771   7.349   2.704   2.119
    1STR    N0419772   7.385   2.719   1.894
    1STR    C0519773   7.413   2.850   1.855
    1STR    C0619774   7.421   2.960   1.942
    1STR    C0719775   7.442   3.091   1.892
    1STR    N0819776   7.467   3.193   1.981
    1STR    C0919777   7.567   3.280   1.978
    1STR    O0A19778   7.635   3.310   1.880
    1STR    O0B19779   7.595   3.310   2.103
    1STR    C0C19780   7.727   3.301   2.152
    1STR    C0D19781   7.761   3.444   2.191
    1STR    C0E19782   7.730   3.205   2.274
    1STR    O0F19783   7.766   3.071   2.244
    1STR    C0G19784   7.669   2.980   2.195
    1STR    C0H19785   7.701   2.978   2.046
    1STR    C0I19786   7.691   2.841   2.261
    1STR    O0J19787   7.574   2.768   2.302
    1STR    C0K19788   8.662   1.723   2.262
    1STR    C0M19789   8.809   1.752   2.274
    1STR    C0N19790   8.623   1.678   2.118
    1STR    O0O19791   8.705   1.724   2.012
    1STR    C0P19792   8.712   1.853   1.992
    1STR    O0Q19793   8.690   1.936   2.080
    1STR    N0R19794   8.729   1.879   1.863
    1STR    C0S19795   8.727   2.003   1.800
    1STR    C0T19796   8.737   2.010   1.660
    1STR    C0U19797   8.751   2.135   1.597
    1STR    C0V19798   8.754   2.254   1.673
    1STR    C0W19799   8.748   2.385   1.601
    1STR    C0X19800   8.738   2.248   1.812
    1STR    N0Y19801   8.722   2.363   1.888
    1STR   BCK219802   8.763   2.384   2.012
    1STR    O1019803   8.809   2.296   2.082
    1STR    C1319804   8.721   2.124   1.872
    1STR    C1419805   7.454   3.115   1.755
    1STR    C1519806   7.456   3.006   1.668
    1STR    C1619807   7.440   2.877   1.720
    1STR    C1719808   7.466   2.767   1.624
    1STR    H1B19809   7.377   2.656   1.816
    1STR    H1C19810   7.418   2.940   2.048
    1STR    H1D19811   7.431   3.180   2.074
    1STR    H1E19812   7.797   3.265   2.076
    1STR    H1F19813   7.858   3.451   2.240
    1STR    H1G19814   7.762   3.508   2.103
    1STR    H1H19815   7.683   3.482   2.257
    1STR    H1I19816   7.640   3.207   2.334
    1STR    H1J19817   7.808   3.239   2.342
    1STR    H1K19818   7.568   3.012   2.216
    1STR    H1M19819   7.806   2.972   2.029
    1STR    H1N19820   7.679   3.068   1.994
    1STR    H1O19821   7.655   2.896   1.995
    1STR    H1P19822   7.756   2.780   2.201
    1STR    H1Q19823   7.747   2.859   2.351
    1STR   C01019824   7.595   2.638   2.360
    1STR   H01119825   7.628   2.582   2.276
    1STR   C01219826   7.696   2.640   2.478
    1STR   H01319827   7.662   2.703   2.560
    1STR   H01419828   7.794   2.677   2.449
    1STR   H01519829   7.715   2.541   2.518
    1STR   C01619830   7.462   2.575   2.409
    1STR   H01719831   7.442   2.617   2.506
    1STR   H01819832   7.384   2.605   2.342
    1STR   O01919833   7.432   2.434   2.413
    1STR   C02019834   7.525   2.338   2.458
    1STR   H02119835   7.584   2.377   2.540
    1STR   C02219836   7.448   2.214   2.504
    1STR   H02319837   7.393   2.174   2.422
    1STR   H02419838   7.377   2.235   2.582
    1STR   H02519839   7.506   2.129   2.534
    1STR   C02619840   7.608   2.306   2.336
    1STR   H02719841   7.601   2.388   2.269
    1STR   H02819842   7.712   2.295   2.360
    1STR   O02919843   7.561   2.197   2.260
    1STR   C03019844   7.660   2.146   2.173
    1STR   H03119845   7.754   2.134   2.226
    1STR   C03219846   7.611   2.010   2.137
    1STR   H03319847   7.686   1.953   2.084
    1STR   H03419848   7.518   2.007   2.081
    1STR   H03519849   7.594   1.969   2.235
    1STR   C03619850   7.686   2.232   2.051
    1STR   H03719851   7.654   2.333   2.067
    1STR   H03819852   7.794   2.230   2.038
    1STR   O03919853   7.620   2.190   1.934
    1STR   C04019854   7.676   2.255   1.822
    1STR   H04119855   7.784   2.257   1.831
    1STR   C04219856   7.647   2.160   1.708
    1STR   H04319857   7.545   2.126   1.708
    1STR   H04419858   7.703   2.069   1.718
    1STR   H04519859   7.676   2.205   1.614
    1STR   C04619860   7.621   2.398   1.804
    1STR   H04719861   7.565   2.404   1.712
    1STR   H04819862   7.546   2.410   1.880
    1STR   O04919863   7.721   2.501   1.812
    1STR   C05019864   7.694   2.629   1.871
    1STR   H05119865   7.613   2.670   1.813
    1STR   C05219866   7.649   2.615   2.015
    1STR   H05319867   7.735   2.604   2.076
    1STR   H05419868   7.586   2.532   2.040
    1STR   H05519869   7.600   2.704   2.051
    1STR   C05619870   7.815   2.729   1.864
    1STR   H05719871   7.888   2.689   1.796
    1STR   H05819872   7.782   2.822   1.818
    1STR   O05919873   7.872   2.760   1.994
    1STR   C06019874   8.004   2.815   2.014
    1STR   H06119875   8.074   2.732   2.022
    1STR   C06219876   8.046   2.899   1.892
    1STR   H06319877   7.972   2.975   1.869
    1STR   H06419878   8.059   2.836   1.804
    1STR   H06519879   8.140   2.950   1.908
    1STR   C06619880   8.021   2.900   2.147
    1STR   H06719881   8.126   2.920   2.159
    1STR   H06819882   7.980   3.000   2.135
    1STR   O06919883   7.978   2.851   2.276
    1STR   C07019884   8.029   2.927   2.388
    1STR   H07119885   8.075   3.019   2.352
    1STR   C07219886   7.923   2.966   2.492
    1STR   H07319887   7.872   2.879   2.533
    1STR   H07419888   7.847   3.034   2.454
    1STR   H07519889   7.969   3.018   2.577
    1STR   C07619890   8.133   2.848   2.467
    1STR   H07719891   8.194   2.916   2.526
    1STR   H07819892   8.082   2.784   2.539
    1STR   O07919893   8.218   2.774   2.383
    1STR   C08019894   8.214   2.633   2.397
    1STR   H08119895   8.295   2.594   2.335
    1STR   C08219896   8.241   2.588   2.542
    1STR   H08319897   8.150   2.583   2.602
    1STR   H08419898   8.309   2.655   2.593
    1STR   H08519899   8.284   2.489   2.541
    1STR   C08619900   8.082   2.572   2.348
    1STR   H08719901   8.080   2.470   2.385
    1STR   H08819902   8.001   2.622   2.398
    1STR   O08919903   8.060   2.573   2.205
    1STR   C09019904   7.973   2.469   2.154
    1STR   H09119905   8.002   2.372   2.178
    1STR   C09219906   7.854   2.481   2.241
    1STR   H09319907   7.774   2.433   2.192
    1STR   H09419908   7.834   2.587   2.254
    1STR   H09519909   7.866   2.437   2.340
    1STR   C09619910   7.947   2.458   2.000
    1STR   H09719911   7.843   2.433   1.987
    1STR   H09819912   7.960   2.556   1.962
    1STR   O09919913   8.019   2.367   1.913
    1STR   C10019914   8.007   2.394   1.770
    1STR   H10119915   7.903   2.405   1.746
    1STR   C10219916   8.072   2.525   1.723
    1STR   H10319917   8.165   2.509   1.672
    1STR   H10419918   8.092   2.596   1.803
    1STR   H10519919   8.008   2.574   1.650
    1STR   C10619920   8.046   2.277   1.677
    1STR   H10719921   8.037   2.309   1.573
    1STR   H10819922   8.148   2.249   1.697
    1STR   O10919923   7.961   2.167   1.700
    1STR   C11019924   7.953   2.054   1.613
    1STR   H11119925   7.864   2.070   1.554
    1STR   C11219926   8.068   2.027   1.515
    1STR   H11319927   8.152   1.979   1.565
    1STR   H11419928   8.102   2.116   1.463
    1STR   H11519929   8.035   1.956   1.439
    1STR   C11619930   7.931   1.934   1.706
    1STR   H11719931   7.861   1.962   1.782
    1STR   H11819932   7.887   1.850   1.651
    1STR   O11919933   8.049   1.892   1.771
    1STR   C12019934   8.061   1.924   1.910
    1STR   H12119935   8.162   1.898   1.929
    1STR   C12219936   8.036   2.069   1.950
    1STR   H12319937   7.931   2.097   1.942
    1STR   H12419938   8.093   2.139   1.891
    1STR   H12519939   8.066   2.087   2.052
    1STR   C12619940   7.985   1.835   2.005
    1STR   H12719941   7.881   1.862   1.995
    1STR   H12819942   8.003   1.730   1.983
    1STR   O12919943   8.036   1.866   2.133
    1STR   C13019944   7.944   1.844   2.237
    1STR   H13119945   7.847   1.873   2.201
    1STR   C13219946   7.962   1.704   2.300
    1STR   H13319947   8.060   1.697   2.347
    1STR   H13419948   7.954   1.624   2.227
    1STR   H13519949   7.895   1.684   2.383
    1STR   C13619950   7.965   1.949   2.340
    1STR   H13719951   8.033   1.907   2.413
    1STR   H13819952   8.004   2.037   2.293
    1STR   O13919953   7.845   1.993   2.395
    1STR   C14019954   7.867   2.032   2.527
    1STR   H14119955   7.971   2.047   2.550
    1STR   C14219956   7.799   2.163   2.551
    1STR   H14319957   7.699   2.154   2.519
    1STR   H14419958   7.849   2.246   2.501
    1STR   H14519959   7.798   2.188   2.656
    1STR   C14619960   7.818   1.922   2.617
    1STR   H14719961   7.797   1.971   2.709
    1STR   H14819962   7.725   1.880   2.584
    1STR   O14919963   7.913   1.819   2.636
    1STR   C15019964   7.976   1.825   2.763
    1STR   H15119965   7.905   1.841   2.841
    1STR   C15219966   8.021   1.682   2.794
    1STR   H15319967   8.060   1.631   2.706
    1STR   H15419968   7.935   1.622   2.822
    1STR   H15519969   8.093   1.678   2.875
    1STR   C15619970   8.070   1.948   2.777
    1STR   H15719971   8.133   1.942   2.865
    1STR   H15819972   8.132   1.953   2.690
    1STR   O15919973   7.989   2.067   2.780
    1STR   C16019974   8.043   2.198   2.768
    1STR   H16119975   7.960   2.265   2.756
    1STR   C16219976   8.099   2.229   2.908
    1STR   H16319977   8.175   2.158   2.940
    1STR   H16419978   8.022   2.221   2.985
    1STR   H16519979   8.136   2.331   2.915
    1STR   C16619980   8.132   2.235   2.645
    1STR   H16719981   8.171   2.335   2.661
    1STR   H16819982   8.217   2.169   2.650
    1STR   O16919983   8.080   2.237   2.509
    1STR   C17019984   8.185   2.212   2.414
    1STR   H17119985   8.260   2.281   2.450
    1STR   C17219986   8.228   2.067   2.423
    1STR   H17319987   8.202   2.009   2.337
    1STR   H17419988   8.186   2.014   2.506
    1STR   H17519989   8.335   2.055   2.425
    1STR   C17619990   8.177   2.237   2.261
    1STR   H17719991   8.242   2.169   2.205
    1STR   H17819992   8.081   2.207   2.223
    1STR   O17919993   8.222   2.367   2.230
    1STR   C18019994   8.311   2.388   2.120
    1STR   H18119995   8.323   2.301   2.056
    1STR   C18219996   8.269   2.506   2.036
    1STR   H18319997   8.256   2.594   2.095
    1STR   H18419998   8.182   2.494   1.977
    1STR   H18519999   8.347   2.526   1.967
    1STR   C18620000   8.445   2.434   2.172
    1STR   H18720001   8.524   2.400   2.106
    1STR   H18820002   8.454   2.542   2.172
    1STR   O18920003   8.461   2.407   2.308
    1STR   C19020004   8.484   2.275   2.343
    1STR   H19120005   8.402   2.215   2.320
    1STR   C19220006   8.580   2.200   2.254
    1STR   H19320007   8.672   2.253   2.259
    1STR   H19420008   8.550   2.194   2.150
    1STR   H19520009   8.587   2.097   2.286
    1STR   C19620010   8.508   2.285   2.493
    1STR   H19720011   8.614   2.289   2.503
    1STR   H19820012   8.470   2.380   2.530
    1STR   O19920013   8.447   2.181   2.568
    1STR   C20020014   8.475   2.170   2.707
    1STR   H20120015   8.581   2.174   2.720
    1STR   C20220016   8.410   2.281   2.788
    1STR   H20320017   8.316   2.248   2.824
    1STR   H20420018   8.386   2.369   2.730
    1STR   H20520019   8.464   2.305   2.879
    1STR   C20620020   8.432   2.032   2.757
    1STR   H20720021   8.522   1.977   2.787
    1STR   H20820022   8.372   2.038   2.847
    1STR   O20920023   8.355   1.970   2.655
    1STR   C21020024   8.389   1.840   2.615
    1STR   H21120025   8.485   1.823   2.659
    1STR   C21220026   8.291   1.741   2.673
    1STR   H21320027   8.198   1.758   2.619
    1STR   H21420028   8.279   1.757   2.779
    1STR   H21520029   8.318   1.637   2.655
    1STR   C21620030   8.405   1.816   2.465
    1STR   H21720031   8.470   1.894   2.424
    1STR   H21820032   8.459   1.723   2.463
    1STR   O21920033   8.289   1.795   2.381
    1STR   C22020034   8.327   1.765   2.246
    1STR   H22120035   8.421   1.718   2.258
    1STR   C22220036   8.254   1.644   2.187
    1STR   H22320037   8.162   1.671   2.139
    1STR   H22420038   8.233   1.570   2.264
    1STR   H22520039   8.314   1.596   2.110
    1STR   C22620040   8.343   1.888   2.149
    1STR   H22720041   8.256   1.951   2.150
    1STR   H22820042   8.428   1.949   2.180
    1STR   O22920043   8.357   1.845   2.014
    1STR   C23020044   8.411   1.936   1.916
    1STR   H23120045   8.504   1.972   1.955
    1STR   C23220046   8.428   1.848   1.792
    1STR   H23320047   8.332   1.814   1.755
    1STR   H23420048   8.488   1.760   1.816
    1STR   H23520049   8.479   1.903   1.713
    1STR   C23620050   8.342   2.069   1.881
    1STR   H23720051   8.268   2.054   1.804
    1STR   H23820052   8.294   2.109   1.970
    1STR   O23920053   8.441   2.163   1.841
    1STR   C24020054   8.425   2.245   1.724
    1STR   H24120055   8.524   2.267   1.696
    1STR   C24220056   8.384   2.173   1.596
    1STR   H24320057   8.287   2.129   1.603
    1STR   H24420058   8.453   2.092   1.574
    1STR   H24520059   8.384   2.240   1.510
    1STR   C24620060   8.381   2.390   1.746
    1STR   H24720061   8.352   2.426   1.649
    1STR   H24820062   8.294   2.390   1.811
    1STR   O24920063   8.489   2.470   1.799
    1STR   C25020064   8.509   2.610   1.768
    1STR   H25120065   8.618   2.621   1.770
    1STR   C25220066   8.465   2.647   1.626
    1STR   H25320067   8.356   2.650   1.618
    1STR   H25420068   8.503   2.575   1.553
    1STR   H25520069   8.503   2.745   1.598
    1STR   C25620070   8.462   2.716   1.871
    1STR   H25720071   8.499   2.812   1.836
    1STR   H25820072   8.354   2.722   1.870
    1STR   O25920073   8.510   2.693   2.004
    1STR   C26020074   8.495   2.803   2.094
    1STR   H26120075   8.534   2.886   2.038
    1STR   C26220076   8.354   2.849   2.117
    1STR   H26320077   8.353   2.939   2.179
    1STR   H26420078   8.299   2.774   2.171
    1STR   H26520079   8.303   2.872   2.024
    1STR   C26620080   8.574   2.799   2.228
    1STR   H26720081   8.681   2.791   2.206
    1STR   H26820082   8.563   2.898   2.269
    1STR   O26920083   8.537   2.706   2.332
    1STR   C27020084   8.599   2.737   2.458
    1STR   H27120085   8.702   2.768   2.441
    1STR   C27220086   8.521   2.853   2.523
    1STR   H27320087   8.416   2.829   2.533
    1STR   H27420088   8.525   2.946   2.466
    1STR   H27520089   8.559   2.877   2.621
    1STR   C27620090   8.611   2.623   2.564
    1STR   H27720091   8.657   2.673   2.649
    1STR   H27820092   8.510   2.596   2.594
    1STR   O27920093   8.683   2.500   2.542
    1STR   C28020094   8.738   2.434   2.660
    1STR   H28120095   8.828   2.494   2.668
    1STR   C28220096   8.653   2.463   2.787
    1STR   H28320097   8.550   2.476   2.764
    1STR   H28420098   8.674   2.557   2.835
    1STR   H28520099   8.664   2.387   2.864
    1STR   C28620100   8.795   2.283   2.667
    1STR   H28720101   8.898   2.300   2.691
    1STR   H28820102   8.766   2.232   2.758
    1STR   O28920103   8.824   2.189   2.560
    1STR   C29020104   8.749   2.071   2.516
    1STR   H29120105   8.644   2.087   2.499
    1STR   C29220106   8.817   2.063   2.382
    1STR   H29320107   8.920   2.038   2.387
    1STR   H29420108   8.822   2.162   2.340
    1STR   H29520109   8.768   1.998   2.312
    1STR   C29620110   8.753   1.931   2.585
    1STR   H29720111   8.854   1.895   2.579
    1STR   H29820112   8.718   1.939   2.687
    1STR   O29920113   8.677   1.823   2.531
    1STR   C30020114   8.711   1.690   2.578
    1STR   H30120115   8.814   1.690   2.612
    1STR   C30220116   8.629   1.637   2.697
    1STR   H30320117   8.528   1.611   2.665
    1STR   H30420118   8.622   1.708   2.779
    1STR   H30520119   8.669   1.544   2.735
    1STR   C30620120   8.700   1.585   2.465
    1STR   H30720121   8.799   1.557   2.436
    1STR   H30820122   8.660   1.491   2.503
    1STR   O30920123   8.622   1.616   2.349
    1STR    H1R20124   8.613   1.816   2.287
    1STR    H1S20125   8.847   1.821   2.201
    1STR    H1T20126   8.848   1.658   2.254
    1STR    H1U20127   8.844   1.788   2.369
    1STR    H1V20128   8.527   1.716   2.089
    1STR    H1W20129   8.606   1.572   2.114
    1STR    H1X20130   8.745   1.797   1.807
    1STR    H1Y20131   8.740   1.920   1.600
    1STR    H1Z20132   8.760   2.138   1.490
    1STR    H2020133   8.845   2.405   1.555
    1STR    H2120134   8.667   2.382   1.531
    1STR    H2220135   8.724   2.470   1.664
    1STR    H2320136   8.681   2.444   1.844
    1STR    H2720137   8.701   2.126   1.977
    1STR    H2820138   7.470   3.215   1.717
    1STR    H2920139   7.474   3.022   1.563
    1STR    H2A20140   7.572   2.748   1.624
    1STR    H2B20141   7.439   2.802   1.526
    1STR    H2C20142   7.410   2.678   1.649
    1STR   BCK120143   7.522   2.239   5.088
    1STR    O0320144   7.550   2.121   5.077
    1STR    N0420145   7.565   2.318   5.187
    1STR    C0520146   7.639   2.287   5.301
    1STR    C0620147   7.689   2.157   5.324
    1STR    C0720148   7.782   2.127   5.424
    1STR    N0820149   7.836   1.999   5.416
    1STR    C0920150   7.905   1.927   5.503
    1STR    O0A20151   7.927   1.963   5.618
    1STR    O0B20152   7.949   1.806   5.456
    1STR    C0C20153   7.952   1.771   5.317
    1STR    C0D20154   8.065   1.670   5.298
    1STR    C0E20155   7.817   1.713   5.267
    1STR    O0F20156   7.818   1.719   5.124
    1STR    C0G20157   7.693   1.702   5.056
    1STR    C0H20158   7.595   1.805   5.112
    1STR    C0I20159   7.702   1.717   4.900
    1STR    O0J20160   7.590   1.657   4.836
    1STR    C0K20161   8.662   2.757   4.831
    1STR    C0M20162   8.764   2.652   4.790
    1STR    C0N20163   8.722   2.847   4.936
    1STR    O0O20164   8.787   2.768   5.033
    1STR    C0P20165   8.829   2.821   5.146
    1STR    O0Q20166   8.827   2.938   5.177
    1STR    N0R20167   8.867   2.732   5.236
    1STR    C0S20168   8.837   2.598   5.235
    1STR    C0T20169   8.752   2.554   5.337
    1STR    C0U20170   8.735   2.418   5.357
    1STR    C0V20171   8.804   2.325   5.281
    1STR    C0W20172   8.818   2.192   5.347
    1STR    C0X20173   8.869   2.367   5.161
    1STR    N0Y20174   8.908   2.288   5.054
    1STR   BCK220175   8.881   2.167   5.006
    1STR    O1020176   8.924   2.139   4.896
    1STR    C1320177   8.884   2.506   5.140
    1STR    C1420178   7.822   2.229   5.512
    1STR    C1520179   7.771   2.359   5.494
    1STR    C1620180   7.679   2.389   5.391
    1STR    C1720181   7.642   2.535   5.367
    1STR    H1B20182   7.556   2.416   5.165
    1STR    H1C20183   7.663   2.076   5.259
    1STR    H1D20184   7.822   1.954   5.327
    1STR    H1E20185   7.979   1.859   5.259
    1STR    H1F20186   8.047   1.580   5.356
    1STR    H1G20187   8.074   1.643   5.193
    1STR    H1H20188   8.160   1.713   5.330
    1STR    H1I20189   7.737   1.772   5.312
    1STR    H1J20190   7.801   1.611   5.302
    1STR    H1K20191   7.661   1.601   5.078
    1STR    H1M20192   7.527   1.845   5.038
    1STR    H1N20193   7.646   1.892   5.151
    1STR    H1O20194   7.537   1.761   5.193
    1STR    H1P20195   7.707   1.821   4.870
    1STR    H1Q20196   7.793   1.672   4.862
    1STR   C01020197   7.524   1.720   4.724
    1STR   H01120198   7.490   1.632   4.673
    1STR   C01220199   7.394   1.799   4.751
    1STR   H01320200   7.403   1.879   4.822
    1STR   H01420201   7.316   1.741   4.795
    1STR   H01520202   7.348   1.836   4.660
    1STR   C01620203   7.611   1.782   4.616
    1STR   H01720204   7.688   1.711   4.591
    1STR   H01820205   7.556   1.798   4.524
    1STR   O01920206   7.668   1.904   4.650
    1STR   C02020207   7.585   2.017   4.652
    1STR   H02120208   7.486   1.992   4.619
    1STR   C02220209   7.588   2.059   4.797
    1STR   H02320210   7.560   1.984   4.870
    1STR   H02420211   7.527   2.145   4.809
    1STR   H02520212   7.684   2.090   4.832
    1STR   C02620213   7.638   2.125   4.558
    1STR   H02720214   7.707   2.079   4.491
    1STR   H02820215   7.566   2.172   4.494
    1STR   O02920216   7.712   2.222   4.625
    1STR   C03020217   7.634   2.331   4.657
    1STR   H03120218   7.529   2.306   4.662
    1STR   C03220219   7.676   2.372   4.795
    1STR   H03320220   7.602   2.440   4.835
    1STR   H03420221   7.775   2.416   4.797
    1STR   H03520222   7.677   2.292   4.867
    1STR   C03620223   7.662   2.436   4.553
    1STR   H03720224   7.767   2.456   4.549
    1STR   H03820225   7.630   2.407   4.453
    1STR   O03920226   7.586   2.543   4.597
    1STR   C04020227   7.654   2.663   4.602
    1STR   H04120228   7.757   2.652   4.584
    1STR   C04220229   7.625   2.739   4.479
    1STR   H04320230   7.520   2.750   4.468
    1STR   H04420231   7.659   2.687   4.391
    1STR   H04520232   7.677   2.834   4.483
    1STR   C04620233   7.626   2.725   4.738
    1STR   H04720234   7.674   2.823   4.737
    1STR   H04820235   7.519   2.730   4.754
    1STR   O04920236   7.679   2.645   4.842
    1STR   C05020237   7.672   2.687   4.976
    1STR   H05120238   7.699   2.791   4.986
    1STR   C05220239   7.534   2.661   5.033
    1STR   H05320240   7.520   2.554   5.043
    1STR   H05420241   7.457   2.697   4.965
    1STR   H05520242   7.520   2.709   5.129
    1STR   C05620243   7.778   2.607   5.050
    1STR   H05720244   7.871   2.629   5.001
    1STR   H05820245   7.788   2.647   5.150
    1STR   O05920246   7.755   2.466   5.051
    1STR   C06020247   7.872   2.387   5.078
    1STR   H06120248   7.945   2.416   5.007
    1STR   C06220249   7.921   2.413   5.221
    1STR   H06320250   7.918   2.324   5.282
    1STR   H06420251   7.864   2.490   5.269
    1STR   H06520252   8.020   2.453   5.233
    1STR   C06620253   7.863   2.237   5.049
    1STR   H06720254   7.932   2.189   5.116
    1STR   H06820255   7.768   2.198   5.076
    1STR   O06920256   7.890   2.197   4.913
    1STR   C07020257   7.929   2.061   4.892
    1STR   H07120258   8.033   2.057   4.905
    1STR   C07220259   7.876   1.965   4.996
    1STR   H07320260   7.914   1.983   5.095
    1STR   H07420261   7.908   1.865   4.968
    1STR   H07520262   7.768   1.972   4.999
    1STR   C07620263   7.915   2.013   4.747
    1STR   H07720264   7.832   2.056   4.701
    1STR   H07820265   7.993   2.061   4.692
    1STR   O07920266   7.912   1.870   4.726
    1STR   C08020267   7.954   1.824   4.596
    1STR   H08120268   8.051   1.866   4.591
    1STR   C08220269   7.967   1.672   4.600
    1STR   H08320270   7.874   1.622   4.627
    1STR   H08420271   8.041   1.642   4.674
    1STR   H08520272   7.998   1.633   4.503
    1STR   C08620273   7.887   1.880   4.467
    1STR   H08720274   7.788   1.843   4.445
    1STR   H08820275   7.881   1.986   4.484
    1STR   O08920276   7.971   1.862   4.354
    1STR   C09020277   7.944   1.939   4.234
    1STR   H09120278   8.039   1.969   4.196
    1STR   C09220279   7.918   1.837   4.123
    1STR   H09320280   7.845   1.764   4.155
    1STR   H09420281   8.008   1.780   4.102
    1STR   H09520282   7.889   1.885   4.030
    1STR   C09620283   7.874   2.080   4.239
    1STR   H09720284   7.835   2.107   4.141
    1STR   H09820285   7.794   2.079   4.307
    1STR   O09920286   7.955   2.191   4.280
    1STR   C10020287   7.901   2.293   4.366
    1STR   H10120288   7.793   2.288   4.371
    1STR   C10220289   7.960   2.271   4.504
    1STR   H10320290   7.925   2.178   4.543
    1STR   H10420291   7.935   2.348   4.575
    1STR   H10520292   8.067   2.268   4.501
    1STR   C10620293   7.947   2.432   4.319
    1STR   H10720294   8.047   2.443   4.359
    1STR   H10820295   7.952   2.434   4.211
    1STR   O10920296   7.874   2.548   4.355
    1STR   C11020297   7.949   2.668   4.336
    1STR   H11120298   8.044   2.643   4.290
    1STR   C11220299   7.892   2.775   4.240
    1STR   H11320300   7.787   2.797   4.258
    1STR   H11420301   7.903   2.746   4.136
    1STR   H11520302   7.947   2.868   4.250
    1STR   C11620303   7.973   2.724   4.475
    1STR   H11720304   8.063   2.784   4.475
    1STR   H11820305   7.891   2.792   4.499
    1STR   O11920306   7.981   2.615   4.567
    1STR   C12020307   7.957   2.633   4.707
    1STR   H12120308   7.861   2.596   4.733
    1STR   C12220309   8.037   2.531   4.784
    1STR   H12320310   8.010   2.429   4.757
    1STR   H12420311   8.016   2.550   4.886
    1STR   H12520312   8.143   2.542   4.782
    1STR   C12620313   7.975   2.776   4.759
    1STR   H12720314   8.065   2.762   4.814
    1STR   H12820315   7.986   2.850   4.681
    1STR   O12920316   7.890   2.836   4.853
    1STR   C13020317   7.961   2.941   4.919
    1STR   H13120318   8.052   2.970   4.866
    1STR   C13220319   7.871   3.061   4.921
    1STR   H13320320   7.785   3.037   4.982
    1STR   H13420321   7.841   3.086   4.819
    1STR   H13520322   7.922   3.148   4.963
    1STR   C13620323   7.998   2.894   5.059
    1STR   H13720324   8.070   2.965   5.102
    1STR   H13820325   7.910   2.891   5.123
    1STR   O13920326   8.051   2.763   5.048
    1STR   C14020327   8.134   2.724   5.154
    1STR   H14120328   8.210   2.800   5.161
    1STR   C14220329   8.059   2.723   5.288
    1STR   H14320330   7.962   2.676   5.279
    1STR   H14420331   8.042   2.825   5.323
    1STR   H14520332   8.115   2.672   5.366
    1STR   C14620333   8.211   2.595   5.119
    1STR   H14720334   8.288   2.620   5.048
    1STR   H14820335   8.255   2.565   5.213
    1STR   O14920336   8.150   2.481   5.061
    1STR   C15020337   8.226   2.360   5.064
    1STR   H15120338   8.322   2.386   5.024
    1STR   C15220339   8.231   2.300   5.207
    1STR   H15320340   8.133   2.272   5.243
    1STR   H15420341   8.275   2.365   5.282
    1STR   H15520342   8.285   2.206   5.211
    1STR   C15620343   8.176   2.254   4.965
    1STR   H15720344   8.115   2.190   5.025
    1STR   H15820345   8.115   2.297   4.887
    1STR   O15920346   8.280   2.179   4.903
    1STR   C16020347   8.276   2.035   4.900
    1STR   H16120348   8.381   2.017   4.895
    1STR   C16220349   8.246   1.964   5.033
    1STR   H16320350   8.144   1.976   5.069
    1STR   H16420351   8.312   2.002   5.112
    1STR   H16520352   8.264   1.857   5.025
    1STR   C16620353   8.226   1.962   4.770
    1STR   H16720354   8.289   1.877   4.751
    1STR   H16820355   8.135   1.907   4.795
    1STR   O16920356   8.206   2.042   4.651
    1STR   C17020357   8.247   1.997   4.520
    1STR   H17120358   8.332   2.056   4.505
    1STR   C17220359   8.287   1.846   4.504
    1STR   H17320360   8.210   1.772   4.521
    1STR   H17420361   8.371   1.816   4.566
    1STR   H17520362   8.318   1.826   4.401
    1STR   C17620363   8.174   2.053   4.396
    1STR   H17720364   8.183   1.972   4.326
    1STR   H17820365   8.072   2.061   4.425
    1STR   O17920366   8.217   2.176   4.328
    1STR   C18020367   8.240   2.192   4.183
    1STR   H18120368   8.345   2.217   4.179
    1STR   C18220369   8.232   2.069   4.088
    1STR   H18320370   8.134   2.063   4.041
    1STR   H18420371   8.256   1.973   4.133
    1STR   H18520372   8.302   2.078   4.006
    1STR   C18620373   8.172   2.314   4.115
    1STR   H18720374   8.197   2.330   4.012
    1STR   H18820375   8.067   2.290   4.105
    1STR   O18920376   8.179   2.440   4.181
    1STR   C19020377   8.292   2.525   4.182
    1STR   H19120378   8.382   2.470   4.160
    1STR   C19220379   8.270   2.635   4.078
    1STR   H19320380   8.178   2.689   4.099
    1STR   H19420381   8.261   2.592   3.978
    1STR   H19520382   8.352   2.706   4.079
    1STR   C19620383   8.304   2.579   4.327
    1STR   H19720384   8.400   2.628   4.342
    1STR   H19820385   8.230   2.653   4.355
    1STR   O19920386   8.292   2.463   4.407
    1STR   C20020387   8.257   2.472   4.543
    1STR   H20120388   8.150   2.474   4.549
    1STR   C20220389   8.300   2.342   4.606
    1STR   H20320390   8.407   2.339   4.618
    1STR   H20420391   8.274   2.259   4.543
    1STR   H20520392   8.252   2.326   4.703
    1STR   C20620393   8.319   2.587   4.621
    1STR   H20720394   8.339   2.551   4.722
    1STR   H20820395   8.414   2.616   4.584
    1STR   O20920396   8.226   2.695   4.622
    1STR   C21020397   8.262   2.813   4.689
    1STR   H21120398   8.182   2.883   4.702
    1STR   C21220399   8.323   2.793   4.827
    1STR   H21320400   8.394   2.712   4.832
    1STR   H21420401   8.249   2.772   4.902
    1STR   H21520402   8.375   2.882   4.858
    1STR   C21620403   8.336   2.893   4.593
    1STR   H21720404   8.379   2.972   4.651
    1STR   H21820405   8.410   2.825   4.558
    1STR   O21920406   8.256   2.941   4.487
    1STR   C22020407   8.268   3.080   4.468
    1STR   H22120408   8.370   3.115   4.486
    1STR   C22220409   8.239   3.101   4.319
    1STR   H22320410   8.139   3.066   4.294
    1STR   H22420411   8.309   3.044   4.258
    1STR   H22520412   8.247   3.206   4.290
    1STR   C22620413   8.168   3.152   4.560
    1STR   H22720414   8.163   3.258   4.538
    1STR   H22820415   8.069   3.114   4.536
    1STR   O22920416   8.185   3.127   4.701
    1STR   C23020417   8.289   3.189   4.777
    1STR   H23120418   8.385   3.139   4.766
    1STR   C23220419   8.312   3.335   4.735
    1STR   H23320420   8.219   3.392   4.737
    1STR   H23420421   8.353   3.342   4.634
    1STR   H23520422   8.383   3.384   4.800
    1STR   C23620423   8.245   3.179   4.925
    1STR   H23720424   8.269   3.270   4.978
    1STR   H23820425   8.136   3.180   4.925
    1STR   O23920426   8.285   3.061   4.997
    1STR   C24020427   8.419   3.056   5.049
    1STR   H24120428   8.488   3.053   4.964
    1STR   C24220429   8.446   3.183   5.132
    1STR   H24320430   8.533   3.172   5.196
    1STR   H24420431   8.362   3.205   5.198
    1STR   H24520432   8.465   3.270   5.069
    1STR   C24620433   8.444   2.933   5.141
    1STR   H24720434   8.543   2.946   5.185
    1STR   H24820435   8.373   2.938   5.224
    1STR   O24920436   8.441   2.799   5.085
    1STR   C25020437   8.505   2.698   5.166
    1STR   H25120438   8.607   2.728   5.169
    1STR   C25220439   8.460   2.708   5.314
    1STR   H25320440   8.353   2.725   5.325
    1STR   H25420441   8.510   2.791   5.365
    1STR   H25520442   8.483   2.618   5.371
    1STR   C25620443   8.513   2.547   5.122
    1STR   H25720444   8.604   2.512   5.164
    1STR   H25820445   8.439   2.493   5.179
    1STR   O25920446   8.520   2.488   4.991
    1STR   C26020447   8.576   2.352   4.996
    1STR   H26120448   8.680   2.373   5.014
    1STR   C26220449   8.527   2.260   5.111
    1STR   H26320450   8.442   2.203   5.078
    1STR   H26420451   8.509   2.304   5.208
    1STR   H26520452   8.600   2.184   5.132
    1STR   C26620453   8.580   2.272   4.865
    1STR   H26720454   8.496   2.303   4.804
    1STR   H26820455   8.674   2.296   4.817
    1STR   O26920456   8.577   2.129   4.883
    1STR   C27020457   8.601   2.042   4.771
    1STR   H27120458   8.706   2.043   4.754
    1STR   C27220459   8.576   1.895   4.813
    1STR   H27320460   8.484   1.852   4.776
    1STR   H27420461   8.573   1.884   4.921
    1STR   H27520462   8.652   1.829   4.771
    1STR   C27620463   8.515   2.072   4.646
    1STR   H27720464   8.502   1.978   4.595
    1STR   H27820465   8.422   2.110   4.685
    1STR   O27920466   8.555   2.167   4.548
    1STR   C28020467   8.528   2.163   4.405
    1STR   H28120468   8.627   2.148   4.382
    1STR   C28220469   8.487   2.039   4.326
    1STR   H28320470   8.387   2.032   4.294
    1STR   H28420471   8.500   1.951   4.386
    1STR   H28520472   8.540   2.034   4.232
    1STR   C28620473   8.542   2.290   4.323
    1STR   H28720474   8.568   2.261   4.223
    1STR   H28820475   8.448   2.340   4.315
    1STR   O28920476   8.651   2.372   4.363
    1STR   C29020477   8.614   2.470   4.456
    1STR   H29120478   8.508   2.477   4.460
    1STR   C29220479   8.658   2.440   4.597
    1STR   H29320480   8.764   2.448   4.610
    1STR   H29420481   8.633   2.343   4.627
    1STR   H29520482   8.603   2.504   4.665
    1STR   C29620483   8.667   2.603   4.413
    1STR   H29720484   8.776   2.604   4.423
    1STR   H29820485   8.640   2.620   4.309
    1STR   O29920486   8.605   2.696   4.498
    1STR   C30020487   8.643   2.828   4.479
    1STR   H30120488   8.747   2.823   4.445
    1STR   C30220489   8.556   2.886   4.363
    1STR   H30320490   8.566   2.994   4.352
    1STR   H30420491   8.451   2.863   4.367
    1STR   H30520492   8.582   2.841   4.269
    1STR   C30620493   8.633   2.902   4.616
    1STR   H30720494   8.709   2.970   4.644
    1STR   H30820495   8.566   2.984   4.597
    1STR   O30920496   8.585   2.823   4.727
    1STR    H1R20497   8.589   2.699   4.886
    1STR    H1S20498   8.742   2.556   4.836
    1STR    H1T20499   8.866   2.676   4.818
    1STR    H1U20500   8.759   2.643   4.684
    1STR    H1V20501   8.645   2.907   4.981
    1STR    H1W20502   8.792   2.912   4.889
    1STR    H1X20503   8.900   2.775   5.320
    1STR    H1Y20504   8.703   2.625   5.401
    1STR    H1Z20505   8.678   2.380   5.440
    1STR    H2020506   8.731   2.128   5.333
    1STR    H2120507   8.907   2.149   5.308
    1STR    H2220508   8.837   2.203   5.454
    1STR    H2320509   8.965   2.337   4.987
    1STR    H2720510   8.935   2.543   5.053
    1STR    H2820511   7.894   2.210   5.590
    1STR    H2920512   7.808   2.437   5.558
    1STR    H2A20513   7.561   2.564   5.432
    1STR    H2B20514   7.609   2.554   5.266
    1STR    H2C20515   7.724   2.602   5.388
    1STR   BCK120516   7.400   2.436   6.777
    1STR    O0320517   7.314   2.461   6.693
    1STR    N0420518   7.466   2.321   6.779
    1STR    C0520519   7.455   2.228   6.678
    1STR    C0620520   7.484   2.268   6.548
    1STR    C0720521   7.505   2.176   6.445
    1STR    N0820522   7.587   2.222   6.345
    1STR    C0920523   7.585   2.226   6.213
    1STR    O0A20524   7.509   2.159   6.145
    1STR    O0B20525   7.676   2.316   6.161
    1STR    C0C20526   7.773   2.387   6.241
    1STR    C0D20527   7.888   2.435   6.152
    1STR    C0E20528   7.716   2.501   6.330
    1STR    O0F20529   7.812   2.555   6.423
    1STR    C0G20530   7.753   2.618   6.538
    1STR    C0H20531   7.674   2.519   6.622
    1STR    C0I20532   7.845   2.692   6.639
    1STR    O0J20533   7.764   2.749   6.746
    1STR    C0K20534   8.573   2.201   7.561
    1STR    C0M20535   8.550   2.161   7.706
    1STR    C0N20536   8.702   2.278   7.536
    1STR    O0O20537   8.728   2.283   7.396
    1STR    C0P20538   8.794   2.181   7.344
    1STR    O0Q20539   8.838   2.087   7.407
    1STR    N0R20540   8.825   2.182   7.216
    1STR    C0S20541   8.820   2.264   7.106
    1STR    C0T20542   8.897   2.214   7.000
    1STR    C0U20543   8.908   2.279   6.881
    1STR    C0V20544   8.833   2.393   6.863
    1STR    C0W20545   8.814   2.421   6.721
    1STR    C0X20546   8.758   2.453   6.967
    1STR    N0Y20547   8.690   2.570   6.934
    1STR   BCK220548   8.657   2.679   7.002
    1STR    O1020549   8.599   2.772   6.947
    1STR    C1320550   8.749   2.386   7.092
    1STR    C1420551   7.467   2.043   6.464
    1STR    C1520552   7.430   2.004   6.595
    1STR    C1620553   7.433   2.093   6.703
    1STR    C1720554   7.413   2.048   6.846
    1STR    H1B20555   7.536   2.304   6.852
    1STR    H1C20556   7.498   2.371   6.529
    1STR    H1D20557   7.669   2.265   6.385
    1STR    H1E20558   7.816   2.311   6.303
    1STR    H1F20559   7.856   2.510   6.080
    1STR    H1G20560   7.967   2.479   6.212
    1STR    H1H20561   7.931   2.351   6.096
    1STR    H1I20562   7.628   2.465   6.381
    1STR    H1J20563   7.675   2.582   6.271
    1STR    H1K20564   7.686   2.687   6.490
    1STR    H1M20565   7.689   2.418   6.587
    1STR    H1N20566   7.569   2.544   6.618
    1STR    H1O20567   7.701   2.516   6.728
    1STR    H1P20568   7.914   2.618   6.679
    1STR    H1Q20569   7.903   2.769   6.589
    1STR   C01020570   7.824   2.793   6.868
    1STR   H01120571   7.860   2.701   6.907
    1STR   C01220572   7.936   2.896   6.842
    1STR   H01320573   8.013   2.861   6.774
    1STR   H01420574   7.984   2.926   6.935
    1STR   H01520575   7.895   2.987   6.798
    1STR   C01620576   7.722   2.852   6.970
    1STR   H01720577   7.718   2.957   6.945
    1STR   H01820578   7.622   2.816   6.949
    1STR   O01920579   7.758   2.848   7.113
    1STR   C02020580   7.683   2.764   7.206
    1STR   H02120581   7.582   2.800   7.221
    1STR   C02220582   7.670   2.634   7.141
    1STR   H02320583   7.771   2.604   7.126
    1STR   H02420584   7.624   2.637   7.044
    1STR   H02520585   7.616   2.562   7.201
    1STR   C02620586   7.756   2.730   7.341
    1STR   H02720587   7.858   2.708   7.315
    1STR   H02820588   7.755   2.817   7.405
    1STR   O02920589   7.707   2.614   7.414
    1STR   C03020590   7.789   2.561   7.520
    1STR   H03120591   7.887   2.548   7.478
    1STR   C03220592   7.806   2.663   7.635
    1STR   H03320593   7.716   2.675   7.694
    1STR   H03420594   7.835   2.761   7.600
    1STR   H03520595   7.885   2.630   7.702
    1STR   C03620596   7.741   2.424   7.584
    1STR   H03720597   7.801   2.410   7.673
    1STR   H03820598   7.639   2.433   7.620
    1STR   O03920599   7.747   2.304   7.505
    1STR   C04020600   7.778   2.176   7.568
    1STR   H04120601   7.881   2.178   7.594
    1STR   C04220602   7.723   2.153   7.707
    1STR   H04320603   7.618   2.136   7.700
    1STR   H04420604   7.739   2.234   7.777
    1STR   H04520605   7.768   2.064   7.752
    1STR   C04620606   7.771   2.049   7.476
    1STR   H04720607   7.866   2.031   7.428
    1STR   H04820608   7.761   1.963   7.543
    1STR   O04920609   7.670   2.044   7.375
    1STR   C05020610   7.672   1.931   7.284
    1STR   H05120611   7.761   1.941   7.225
    1STR   C05220612   7.674   1.796   7.360
    1STR   H05320613   7.584   1.781   7.420
    1STR   H05420614   7.758   1.786   7.428
    1STR   H05520615   7.684   1.713   7.291
    1STR   C05620616   7.551   1.942   7.187
    1STR   H05720617   7.465   1.900   7.235
    1STR   H05820618   7.524   2.047   7.178
    1STR   O05920619   7.559   1.895   7.050
    1STR   C06020620   7.577   1.757   7.016
    1STR   H06120621   7.676   1.723   7.046
    1STR   C06220622   7.477   1.679   7.096
    1STR   H06320623   7.386   1.736   7.104
    1STR   H06420624   7.509   1.655   7.197
    1STR   H06520625   7.451   1.587   7.047
    1STR   C06620626   7.560   1.723   6.863
    1STR   H06720627   7.614   1.631   6.843
    1STR   H06820628   7.456   1.702   6.841
    1STR   O06920629   7.599   1.822   6.767
    1STR   C07020630   7.662   1.778   6.646
    1STR   H07120631   7.739   1.705   6.670
    1STR   C07220632   7.562   1.715   6.555
    1STR   H07320633   7.506   1.780   6.489
    1STR   H07420634   7.492   1.663   6.618
    1STR   H07520635   7.617   1.650   6.486
    1STR   C07620636   7.728   1.892   6.569
    1STR   H07720637   7.686   1.988   6.599
    1STR   H07820638   7.831   1.898   6.597
    1STR   O07920639   7.713   1.878   6.427
    1STR   C08020640   7.822   1.914   6.346
    1STR   H08120641   7.895   1.833   6.354
    1STR   C08220642   7.777   1.917   6.201
    1STR   H08320643   7.699   1.991   6.186
    1STR   H08420644   7.737   1.820   6.170
    1STR   H08520645   7.859   1.942   6.133
    1STR   C08620646   7.893   2.043   6.390
    1STR   H08720647   7.967   1.998   6.454
    1STR   H08820648   7.946   2.090   6.307
    1STR   O08920649   7.820   2.141   6.465
    1STR   C09020650   7.895   2.206   6.568
    1STR   H09120651   7.972   2.136   6.596
    1STR   C09220652   7.961   2.339   6.528
    1STR   H09320653   7.905   2.419   6.572
    1STR   H09420654   7.975   2.353   6.422
    1STR   H09520655   8.058   2.360   6.570
    1STR   C09620656   7.816   2.216   6.697
    1STR   H09720657   7.851   2.299   6.760
    1STR   H09820658   7.710   2.227   6.680
    1STR   O09920659   7.844   2.096   6.762
    1STR   C10020660   7.754   2.054   6.861
    1STR   H10120661   7.657   2.041   6.820
    1STR   C10220662   7.810   1.928   6.915
    1STR   H10320663   7.910   1.960   6.928
    1STR   H10420664   7.808   1.841   6.852
    1STR   H10520665   7.783   1.900   7.015
    1STR   C10620666   7.761   2.143   6.980
    1STR   H10720667   7.706   2.097   7.061
    1STR   H10820668   7.864   2.148   7.011
    1STR   O10920669   7.708   2.269   6.953
    1STR   C11020670   7.740   2.354   7.059
    1STR   H11120671   7.680   2.436   7.025
    1STR   C11220672   7.696   2.301   7.198
    1STR   H11320673   7.763   2.222   7.230
    1STR   H11420674   7.599   2.255   7.201
    1STR   H11520675   7.700   2.377   7.275
    1STR   C11620676   7.884   2.401   7.067
    1STR   H11720677   7.893   2.448   7.164
    1STR   H11820678   7.953   2.318   7.065
    1STR   O11920679   7.922   2.499   6.972
    1STR   C12020680   8.047   2.561   7.005
    1STR   H12120681   8.105   2.492   7.062
    1STR   C12220682   8.116   2.584   6.871
    1STR   H12320683   8.064   2.657   6.811
    1STR   H12420684   8.121   2.492   6.814
    1STR   H12520685   8.215   2.626   6.886
    1STR   C12620686   8.048   2.690   7.090
    1STR   H12720687   8.123   2.757   7.048
    1STR   H12820688   7.955   2.744   7.084
    1STR   O12920689   8.072   2.673   7.229
    1STR   C13020690   8.116   2.795   7.290
    1STR   H13120691   8.075   2.882   7.237
    1STR   C13220692   8.066   2.807   7.434
    1STR   H13320693   8.059   2.708   7.481
    1STR   H13420694   7.969   2.854   7.439
    1STR   H13520695   8.132   2.868   7.495
    1STR   C13620696   8.269   2.801   7.284
    1STR   H13720697   8.301   2.799   7.180
    1STR   H13820698   8.305   2.896   7.322
    1STR   O13920699   8.326   2.685   7.345
    1STR   C14020700   8.386   2.691   7.474
    1STR   H14120701   8.471   2.624   7.462
    1STR   C14220702   8.448   2.827   7.512
    1STR   H14320703   8.371   2.902   7.533
    1STR   H14420704   8.512   2.865   7.432
    1STR   H14520705   8.508   2.818   7.601
    1STR   C14620706   8.302   2.629   7.588
    1STR   H14720707   8.373   2.597   7.663
    1STR   H14820708   8.240   2.705   7.636
    1STR   O14920709   8.216   2.521   7.549
    1STR   C15020710   8.201   2.407   7.635
    1STR   H15120711   8.289   2.343   7.626
    1STR   C15220712   8.187   2.453   7.783
    1STR   H15320713   8.107   2.526   7.793
    1STR   H15420714   8.278   2.498   7.823
    1STR   H15520715   8.165   2.369   7.849
    1STR   C15620716   8.074   2.325   7.597
    1STR   H15720717   8.041   2.276   7.688
    1STR   H15820718   7.996   2.395   7.573
    1STR   O15920719   8.079   2.218   7.498
    1STR   C16020720   8.014   2.233   7.368
    1STR   H16120721   7.908   2.244   7.370
    1STR   C16220722   8.065   2.368   7.321
    1STR   H16320723   8.002   2.452   7.347
    1STR   H16420724   8.078   2.369   7.216
    1STR   H16520725   8.163   2.394   7.358
    1STR   C16620726   8.045   2.107   7.274
    1STR   H16720727   8.117   2.146   7.206
    1STR   H16820728   8.088   2.040   7.347
    1STR   O16920729   7.968   2.019   7.184
    1STR   C17020730   8.032   1.888   7.152
    1STR   H17120731   8.126   1.896   7.201
    1STR   C17220732   7.964   1.771   7.222
    1STR   H17320733   7.871   1.746   7.172
    1STR   H17420734   7.945   1.796   7.326
    1STR   H17520735   8.027   1.682   7.219
    1STR   C17620736   8.084   1.838   7.009
    1STR   H17720737   8.098   1.922   6.942
    1STR   H17820738   8.183   1.800   7.015
    1STR   O17920739   8.017   1.727   6.945
    1STR   C18020740   8.027   1.706   6.801
    1STR   H18120741   7.931   1.660   6.779
    1STR   C18220742   8.037   1.832   6.720
    1STR   H18320743   8.024   1.809   6.615
    1STR   H18420744   8.133   1.871   6.741
    1STR   H18520745   7.973   1.913   6.741
    1STR   C18620746   8.133   1.610   6.740
    1STR   H18720747   8.170   1.545   6.819
    1STR   H18820748   8.085   1.543   6.669
    1STR   O18920749   8.248   1.672   6.676
    1STR   C19020750   8.257   1.716   6.538
    1STR   H19120751   8.360   1.693   6.514
    1STR   C19220752   8.175   1.631   6.440
    1STR   H19320753   8.068   1.645   6.455
    1STR   H19420754   8.198   1.526   6.452
    1STR   H19520755   8.197   1.659   6.337
    1STR   C19620756   8.247   1.870   6.503
    1STR   H19720757   8.312   1.890   6.418
    1STR   H19820758   8.148   1.893   6.467
    1STR   O19920759   8.280   1.958   6.610
    1STR   C20020760   8.260   2.100   6.603
    1STR   H20120761   8.361   2.138   6.615
    1STR   C20220762   8.210   2.152   6.467
    1STR   H20320763   8.108   2.136   6.447
    1STR   H20420764   8.258   2.107   6.381
    1STR   H20520765   8.220   2.260   6.460
    1STR   C20620766   8.183   2.157   6.727
    1STR   H20720767   8.109   2.230   6.705
    1STR   H20820768   8.127   2.080   6.778
    1STR   O20920769   8.258   2.240   6.812
    1STR   C21020770   8.225   2.229   6.949
    1STR   H21120771   8.118   2.240   6.962
    1STR   C21220772   8.273   2.093   6.988
    1STR   H21320773   8.294   2.025   6.907
    1STR   H21420774   8.206   2.049   7.057
    1STR   H21520775   8.363   2.101   7.045
    1STR   C21620776   8.303   2.327   7.037
    1STR   H21720777   8.407   2.318   7.015
    1STR   H21820778   8.283   2.432   7.024
    1STR   O21920779   8.281   2.298   7.171
    1STR   C22020780   8.392   2.269   7.250
    1STR   H22120781   8.474   2.244   7.186
    1STR   C22220782   8.433   2.400   7.317
    1STR   H22320783   8.371   2.422   7.402
    1STR   H22420784   8.426   2.482   7.247
    1STR   H22520785   8.536   2.399   7.351
    1STR   C22620786   8.339   2.153   7.338
    1STR   H22720787   8.365   2.139   7.440
    1STR   H22820788   8.251   2.199   7.370
    1STR   O22920789   8.301   2.032   7.269
    1STR   C23020790   8.331   1.904   7.324
    1STR   H23120791   8.420   1.931   7.372
    1STR   C23220792   8.245   1.861   7.443
    1STR   H23320793   8.144   1.833   7.415
    1STR   H23420794   8.238   1.942   7.516
    1STR   H23520795   8.290   1.776   7.494
    1STR   C23620796   8.356   1.794   7.212
    1STR   H23720797   8.434   1.725   7.242
    1STR   H23820798   8.268   1.730   7.206
    1STR   O23920799   8.385   1.845   7.079
    1STR   C24020800   8.453   1.766   6.980
    1STR   H24120801   8.557   1.770   7.007
    1STR   C24220802   8.403   1.620   6.991
    1STR   H24320803   8.295   1.615   6.990
    1STR   H24420804   8.438   1.571   7.082
    1STR   H24520805   8.438   1.559   6.908
    1STR   C24620806   8.437   1.815   6.830
    1STR   H24720807   8.452   1.729   6.766
    1STR   H24820808   8.331   1.835   6.820
    1STR   O24920809   8.500   1.932   6.769
    1STR   C25020810   8.603   1.930   6.665
    1STR   H25120811   8.695   1.969   6.704
    1STR   C25220812   8.637   1.790   6.625
    1STR   H25320813   8.556   1.737   6.578
    1STR   H25420814   8.666   1.743   6.717
    1STR   H25520815   8.722   1.790   6.557
    1STR   C25620816   8.585   2.013   6.537
    1STR   H25720817   8.651   1.972   6.460
    1STR   H25820818   8.486   1.997   6.499
    1STR   O25920819   8.619   2.153   6.544
    1STR   C26020820   8.625   2.216   6.415
    1STR   H26120821   8.698   2.160   6.357
    1STR   C26220822   8.486   2.207   6.353
    1STR   H26320823   8.424   2.241   6.432
    1STR   H26420824   8.459   2.107   6.320
    1STR   H26520825   8.464   2.277   6.274
    1STR   C26620826   8.669   2.364   6.412
    1STR   H26720827   8.726   2.395   6.497
    1STR   H26820828   8.742   2.374   6.332
    1STR   O26920829   8.566   2.458   6.380
    1STR   C27020830   8.516   2.539   6.485
    1STR   H27120831   8.595   2.569   6.554
    1STR   C27220832   8.464   2.665   6.415
    1STR   H27320833   8.383   2.641   6.346
    1STR   H27420834   8.542   2.713   6.356
    1STR   H27520835   8.427   2.739   6.487
    1STR   C27620836   8.402   2.468   6.559
    1STR   H27720837   8.341   2.539   6.615
    1STR   H27820838   8.333   2.435   6.483
    1STR   O27920839   8.440   2.354   6.637
    1STR   C28020840   8.506   2.368   6.763
    1STR   H28120841   8.591   2.420   6.734
    1STR   C28220842   8.438   2.484   6.836
    1STR   H28320843   8.332   2.467   6.826
    1STR   H28420844   8.459   2.581   6.791
    1STR   H28520845   8.465   2.495   6.940
    1STR   C28620846   8.546   2.225   6.830
    1STR   H28720847   8.466   2.156   6.809
    1STR   H28820848   8.628   2.186   6.772
    1STR   O28920849   8.588   2.200   6.968
    1STR   C29020850   8.609   2.061   7.014
    1STR   H29120851   8.526   2.010   6.973
    1STR   C29220852   8.728   1.991   6.953
    1STR   H29320853   8.770   2.049   6.872
    1STR   H29420854   8.704   1.894   6.913
    1STR   H29520855   8.805   1.975   7.026
    1STR   C29620856   8.597   2.027   7.169
    1STR   H29720857   8.601   2.113   7.230
    1STR   H29820858   8.497   2.002   7.182
    1STR   O29920859   8.679   1.929   7.237
    1STR   C30020860   8.645   1.879   7.371
    1STR   H30120861   8.569   1.804   7.363
    1STR   C30220862   8.756   1.791   7.411
    1STR   H30320863   8.847   1.850   7.410
    1STR   H30420864   8.765   1.709   7.342
    1STR   H30520865   8.742   1.750   7.511
    1STR   C30620866   8.618   1.966   7.500
    1STR   H30720867   8.548   1.915   7.565
    1STR   H30820868   8.708   1.977   7.562
    1STR   O30920869   8.568   2.093   7.469
    1STR    H1R20870   8.495   2.272   7.536
    1STR    H1S20871   8.551   2.248   7.770
    1STR    H1T20872   8.630   2.095   7.740
    1STR    H1U20873   8.455   2.110   7.719
    1STR    H1V20874   8.778   2.224   7.589
    1STR    H1W20875   8.699   2.378   7.577
    1STR    H1X20876   8.861   2.090   7.196
    1STR    H1Y20877   8.950   2.121   7.005
    1STR    H1Z20878   8.962   2.231   6.801
    1STR    H2020879   8.761   2.334   6.684
    1STR    H2120880   8.765   2.513   6.693
    1STR    H2220881   8.901   2.409   6.667
    1STR    H2320882   8.651   2.566   6.843
    1STR    H2720883   8.689   2.424   7.173
    1STR    H2820884   7.480   1.972   6.384
    1STR    H2920885   7.407   1.901   6.616
    1STR    H2A20886   7.485   2.088   6.916
    1STR    H2B20887   7.404   1.941   6.858
    1STR    H2C20888   7.323   2.093   6.879
    1STR   BCK120889   7.457   4.431   0.203
    1STR    O0320890   7.476   4.401   0.320
    1STR    N0420891   7.413   4.545   0.158
    1STR    C0520892   7.402   4.668   0.220
    1STR    C0620893   7.418   4.688   0.358
    1STR    C0720894   7.420   4.819   0.411
    1STR    N0820895   7.469   4.842   0.539
    1STR    C0920896   7.538   4.949   0.579
    1STR    O0A20897   7.542   5.054   0.520
    1STR    O0B20898   7.620   4.925   0.680
    1STR    C0C20899   7.737   5.006   0.687
    1STR    C0D20900   7.823   4.989   0.813
    1STR    C0E20901   7.817   4.978   0.561
    1STR    O0F20902   7.834   4.840   0.524
    1STR    C0G20903   7.753   4.787   0.418
    1STR    C0H20904   7.716   4.888   0.306
    1STR    C0I20905   7.817   4.665   0.355
    1STR    O0J20906   7.728   4.628   0.249
    1STR    C0K20907   8.708   4.852   8.924
    1STR    C0M20908   8.836   4.887   8.862
    1STR    C0N20909   8.694   4.894   9.073
    1STR    O0O20910   8.780   4.851   9.177
    1STR    C0P20911   8.802   4.722   9.188
    1STR    O0Q20912   8.811   4.645   9.094
    1STR    N0R20913   8.801   4.669   9.308
    1STR    C0S20914   8.772   4.703   0.119
    1STR    C0T20915   8.757   4.830   0.173
    1STR    C0U20916   8.739   4.842   0.314
    1STR    C0V20917   8.744   4.731   0.399
    1STR    C0W20918   8.724   4.743   0.547
    1STR    C0X20919   8.751   4.604   0.344
    1STR    N0Y20920   8.760   4.494   0.425
    1STR   BCK220921   8.724   4.374   0.384
    1STR    O1020922   8.641   4.351   0.298
    1STR    C1320923   8.760   4.593   0.204
    1STR    C1420924   7.382   4.923   0.327
    1STR    C1520925   7.370   4.904   0.190
    1STR    C1620926   7.381   4.778   0.136
    1STR    C1720927   7.367   4.771   9.307
    1STR    H1B20928   7.399   4.550   0.059
    1STR    H1C20929   7.430   4.606   0.424
    1STR    H1D20930   7.483   4.759   0.596
    1STR    H1E20931   7.706   5.111   0.686
    1STR    H1F20932   7.910   5.053   0.808
    1STR    H1G20933   7.769   5.019   0.903
    1STR    H1H20934   7.858   4.887   0.826
    1STR    H1I20935   7.914   5.021   0.578
    1STR    H1J20936   7.780   5.040   0.480
    1STR    H1K20937   7.665   4.744   0.462
    1STR    H1M20938   7.802   4.946   0.274
    1STR    H1N20939   7.643   4.961   0.333
    1STR    H1O20940   7.672   4.843   0.217
    1STR    H1P20941   7.917   4.691   0.323
    1STR    H1Q20942   7.825   4.583   0.426
    1STR   C01020943   7.786   4.574   0.132
    1STR   H01120944   7.886   4.609   0.118
    1STR   C01220945   7.782   4.425   0.153
    1STR   H01320946   7.717   4.402   0.236
    1STR   H01420947   7.877   4.386   0.180
    1STR   H01520948   7.755   4.371   0.063
    1STR   C01620949   7.712   4.626   0.009
    1STR   H01720950   7.607   4.625   0.033
    1STR   H01820951   7.733   4.732   9.318
    1STR   O01920952   7.750   4.565   9.204
    1STR   C02020953   7.657   4.476   9.140
    1STR   H02120954   7.656   4.382   9.191
    1STR   C02220955   7.522   4.540   9.146
    1STR   H02320956   7.536   4.647   9.140
    1STR   H02420957   7.472   4.512   9.235
    1STR   H02520958   7.462   4.511   9.063
    1STR   C02620959   7.683   4.452   8.990
    1STR   H02720960   7.783   4.422   8.968
    1STR   H02820961   7.627   4.369   8.952
    1STR   O02920962   7.640   4.568   8.920
    1STR   C03020963   7.696   4.585   8.794
    1STR   H03120964   7.799   4.564   8.805
    1STR   C03220965   7.662   4.472   8.698
    1STR   H03320966   7.563   4.433   8.719
    1STR   H03420967   7.730   4.387   8.713
    1STR   H03520968   7.674   4.502   8.594
    1STR   C03620969   7.675   4.733   8.750
    1STR   H03720970   7.754   4.771   8.686
    1STR   H03820971   7.588   4.732   8.686
    1STR   O03920972   7.636   4.828   8.851
    1STR   C04020973   7.722   4.874   8.954
    1STR   H04120974   7.766   4.790   9.005
    1STR   C04220975   7.814   4.971   8.886
    1STR   H04320976   7.902   4.932   8.837
    1STR   H04420977   7.840   5.052   8.953
    1STR   H04520978   7.756   5.020   8.811
    1STR   C04620979   7.645   4.958   9.058
    1STR   H04720980   7.606   5.044   9.005
    1STR   H04820981   7.565   4.901   9.102
    1STR   O04920982   7.720   5.005   9.170
    1STR   C05020983   7.668   5.123   9.230
    1STR   H05120984   7.568   5.144   9.194
    1STR   C05220985   7.656   5.098   0.060
    1STR   H05320986   7.602   5.006   0.080
    1STR   H05420987   7.604   5.180   0.107
    1STR   H05520988   7.752   5.098   0.110
    1STR   C05620989   7.762   5.241   9.199
    1STR   H05720990   7.849   5.206   9.147
    1STR   H05820991   7.713   5.306   9.129
    1STR   O05920992   7.798   5.315   9.316
    1STR   C06020993   7.910   5.403   9.310
    1STR   H06120994   7.998   5.348   9.280
    1STR   C06220995   7.887   5.517   9.211
    1STR   H06320996   7.795   5.571   9.233
    1STR   H06420997   7.880   5.478   9.110
    1STR   H06520998   7.970   5.588   9.212
    1STR   C06620999   7.933   5.459   0.131
    1STR   H06721000   8.026   5.515   0.134
    1STR   H06821001   7.851   5.527   0.156
    1STR   O06921002   7.936   5.355   0.226
    1STR   C07021003   7.975   5.392   0.358
    1STR   H07121004   8.074   5.439   0.356
    1STR   C07221005   7.875   5.489   0.422
    1STR   H07321006   7.774   5.450   0.418
    1STR   H07421007   7.877   5.586   0.373
    1STR   H07521008   7.900   5.506   0.527
    1STR   C07621009   7.986   5.262   0.438
    1STR   H07721010   7.964   5.275   0.544
    1STR   H07821011   7.913   5.191   0.397
    1STR   O07921012   8.120   5.219   0.422
    1STR   C08021013   8.149   5.082   0.442
    1STR   H08121014   8.252   5.079   0.408
    1STR   C08221015   8.156   5.042   0.590
    1STR   H08321016   8.092   5.102   0.654
    1STR   H08421017   8.258   5.054   0.628
    1STR   H08521018   8.129   4.937   0.603
    1STR   C08621019   8.073   4.985   0.349
    1STR   H08721020   8.133   4.898   0.326
    1STR   H08821021   7.987   4.939   0.392
    1STR   O08921022   8.027   5.054   0.235
    1STR   C09021023   8.050   4.985   0.115
    1STR   H09121024   8.147   4.937   0.117
    1STR   C09221025   7.943   4.883   0.079
    1STR   H09321026   7.845   4.925   0.061
    1STR   H09421027   7.936   4.810   0.157
    1STR   H09521028   7.964   4.830   9.308
    1STR   C09621029   8.063   5.092   0.011
    1STR   H09721030   7.965   5.134   9.313
    1STR   H09821031   8.129   5.171   0.048
    1STR   O09921032   8.123   5.027   9.223
    1STR   C10021033   8.039   4.999   9.115
    1STR   H10121034   7.936   5.002   9.145
    1STR   C10221035   8.072   5.114   9.015
    1STR   H10321036   8.178   5.131   9.004
    1STR   H10421037   8.032   5.209   9.047
    1STR   H10521038   8.039   5.096   8.913
    1STR   C10621039   8.062   4.854   9.065
    1STR   H10721040   8.068   4.872   8.961
    1STR   H10821041   8.153   4.811   9.102
    1STR   O10921042   7.970   4.750   9.088
    1STR   C11021043   7.978   4.637   8.999
    1STR   H11121044   7.877   4.603   9.010
    1STR   C11221045   7.994   4.671   8.850
    1STR   H11321046   8.073   4.735   8.823
    1STR   H11421047   7.911   4.730   8.817
    1STR   H11521048   8.003   4.584   8.786
    1STR   C11621049   8.062   4.515   9.041
    1STR   H11721050   8.139   4.500   8.966
    1STR   H11821051   8.116   4.534   9.131
    1STR   O11921052   7.985   4.393   9.042
    1STR   C12021053   7.999   4.295   9.146
    1STR   H12121054   8.090   4.240   9.143
    1STR   C12221055   8.008   4.359   9.280
    1STR   H12321056   7.938   4.441   9.283
    1STR   H12421057   8.107   4.397   9.299
    1STR   H12521058   7.987   4.287   0.037
    1STR   C12621059   7.893   4.187   9.140
    1STR   H12721060   7.795   4.230   9.156
    1STR   H12821061   7.892   4.144   9.040
    1STR   O12921062   7.921   4.089   9.240
    1STR   C13021063   7.847   3.968   9.232
    1STR   H13121064   7.746   3.992   9.202
    1STR   C13221065   7.910   3.878   9.124
    1STR   H13321066   8.012   3.852   9.151
    1STR   H13421067   7.911   3.925   9.026
    1STR   H13521068   7.853   3.786   9.115
    1STR   C13621069   7.839   3.893   0.048
    1STR   H13721070   7.764   3.815   0.036
    1STR   H13821071   7.932   3.842   0.072
    1STR   O13921072   7.803   3.979   0.157
    1STR   C14021073   7.789   3.923   0.289
    1STR   H14121074   7.719   3.987   0.341
    1STR   C14221075   7.729   3.782   0.288
    1STR   H14321076   7.800   3.709   0.249
    1STR   H14421077   7.640   3.777   0.226
    1STR   H14521078   7.701   3.750   0.388
    1STR   C14621079   7.914   3.933   0.378
    1STR   H14721080   7.915   4.026   0.434
    1STR   H14821081   7.908   3.858   0.457
    1STR   O14921082   8.031   3.907   0.304
    1STR   C15021083   8.114   4.017   0.265
    1STR   H15121084   8.198   4.019   0.334
    1STR   C15221085   8.162   3.967   0.129
    1STR   H15321086   8.184   3.860   0.131
    1STR   H15421087   8.251   4.014   0.093
    1STR   H15521088   8.088   3.985   0.053
    1STR   C15621089   8.052   4.160   0.262
    1STR   H15721090   8.117   4.227   0.206
    1STR   H15821091   7.955   4.160   0.212
    1STR   O15921092   8.040   4.210   0.395
    1STR   C16021093   7.980   4.339   0.414
    1STR   H16121094   7.878   4.342   0.379
    1STR   C16221095   7.972   4.349   0.567
    1STR   H16321096   8.071   4.345   0.612
    1STR   H16421097   7.913   4.268   0.609
    1STR   H16521098   7.926   4.443   0.598
    1STR   C16621099   8.070   4.452   0.361
    1STR   H16721100   8.075   4.530   0.436
    1STR   H16821101   8.165   4.405   0.348
    1STR   O16921102   8.049   4.520   0.239
    1STR   C17021103   8.167   4.574   0.178
    1STR   H17121104   8.219   4.483   0.153
    1STR   C17221105   8.141   4.640   0.042
    1STR   H17321106   8.152   4.746   0.042
    1STR   H17421107   8.046   4.619   9.317
    1STR   H17521108   8.216   4.605   9.293
    1STR   C17621109   8.260   4.658   0.267
    1STR   H17721110   8.212   4.678   0.363
    1STR   H17821111   8.349   4.599   0.286
    1STR   O17921112   8.297   4.784   0.212
    1STR   C18021113   8.406   4.852   0.273
    1STR   H18121114   8.498   4.805   0.241
    1STR   C18221115   8.406   4.994   0.216
    1STR   H18321116   8.307   5.039   0.208
    1STR   H18421117   8.449   4.998   0.116
    1STR   H18521118   8.464   5.058   0.281
    1STR   C18621119   8.404   4.849   0.426
    1STR   H18721120   8.476   4.922   0.465
    1STR   H18821121   8.306   4.874   0.464
    1STR   O18921122   8.439   4.720   0.472
    1STR   C19021123   8.405   4.683   0.605
    1STR   H19121124   8.483   4.619   0.641
    1STR   C19221125   8.402   4.797   0.707
    1STR   H19321126   8.304   4.844   0.714
    1STR   H19421127   8.476   4.874   0.685
    1STR   H19521128   8.426   4.759   0.806
    1STR   C19621129   8.289   4.583   0.609
    1STR   H19721130   8.285   4.536   0.707
    1STR   H19821131   8.196   4.638   0.598
    1STR   O19921132   8.293   4.481   0.508
    1STR   C20021133   8.407   4.403   0.471
    1STR   H20121134   8.479   4.471   0.428
    1STR   C20221135   8.463   4.340   0.599
    1STR   H20321136   8.386   4.290   0.656
    1STR   H20421137   8.509   4.416   0.660
    1STR   H20521138   8.543   4.269   0.577
    1STR   C20621139   8.377   4.285   0.369
    1STR   H20721140   8.459   4.215   0.378
    1STR   H20821141   8.292   4.228   0.407
    1STR   O20921142   8.351   4.315   0.229
    1STR   C21021143   8.416   4.245   0.118
    1STR   H21121144   8.503   4.306   0.094
    1STR   C21221145   8.473   4.108   0.157
    1STR   H21321146   8.495   4.047   0.069
    1STR   H21421147   8.408   4.051   0.223
    1STR   H21521148   8.566   4.121   0.212
    1STR   C21621149   8.331   4.241   9.304
    1STR   H21721150   8.233   4.200   0.003
    1STR   H21821151   8.314   4.343   9.272
    1STR   O21921152   8.396   4.172   9.194
    1STR   C22021153   8.328   4.148   9.067
    1STR   H22121154   8.397   4.105   8.996
    1STR   C22221155   8.234   4.029   9.088
    1STR   H22321156   8.162   4.045   9.167
    1STR   H22421157   8.291   3.941   9.117
    1STR   H22521158   8.179   4.004   8.997
    1STR   C22621159   8.265   4.269   8.989
    1STR   H22721160   8.168   4.235   8.955
    1STR   H22821161   8.250   4.347   9.062
    1STR   O22921162   8.329   4.334   8.878
    1STR   C23021163   8.257   4.366   8.755
    1STR   H23121164   8.303   4.296   8.686
    1STR   C23221165   8.109   4.326   8.738
    1STR   H23321166   8.044   4.373   8.810
    1STR   H23421167   8.097   4.218   8.747
    1STR   H23521168   8.073   4.354   8.640
    1STR   C23621169   8.291   4.503   8.688
    1STR   H23721170   8.396   4.509   8.667
    1STR   H23821171   8.247   4.501   8.588
    1STR   O23921172   8.246   4.628   8.742
    1STR   C24021173   8.309   4.691   8.856
    1STR   H24121174   8.263   4.660   8.949
    1STR   C24221175   8.452   4.652   8.857
    1STR   H24321176   8.495   4.685   8.765
    1STR   H24421177   8.470   4.545   8.861
    1STR   H24521178   8.498   4.702   8.940
    1STR   C24621179   8.299   4.846   8.846
    1STR   H24721180   8.381   4.882   8.789
    1STR   H24821181   8.215   4.874   8.782
    1STR   O24921182   8.286   4.928   8.962
    1STR   C25021183   8.383   4.937   9.065
    1STR   H25121184   8.466   4.916   9.005
    1STR   C25221185   8.404   5.081   9.109
    1STR   H25321186   8.320   5.125   9.162
    1STR   H25421187   8.431   5.146   9.027
    1STR   H25521188   8.483   5.081   9.183
    1STR   C25621189   8.378   4.844   9.191
    1STR   H25721190   8.462   4.864   9.258
    1STR   H25821191   8.294   4.868   9.255
    1STR   O25921192   8.373   4.706   9.159
    1STR   C26021193   8.479   4.624   9.208
    1STR   H26121194   8.570   4.678   9.208
    1STR   C26221195   8.471   4.579   0.031
    1STR   H26321196   8.390   4.512   0.050
    1STR   H26421197   8.466   4.663   0.097
    1STR   H26521198   8.560   4.523   0.059
    1STR   C26621199   8.496   4.510   9.110
    1STR   H26721200   8.402   4.492   9.059
    1STR   H26821201   8.571   4.542   9.039
    1STR   O26921202   8.538   4.392   9.168
    1STR   C27021203   8.660   4.346   9.117
    1STR   H27121204   8.729   4.426   9.092
    1STR   C27221205   8.715   4.286   9.241
    1STR   H27321206   8.662   4.196   9.270
    1STR   H27421207   8.708   4.356   0.003
    1STR   H27521208   8.820   4.269   9.218
    1STR   C27621209   8.646   4.249   9.000
    1STR   H27721210   8.737   4.195   8.981
    1STR   H27821211   8.579   4.170   9.029
    1STR   O27921212   8.606   4.319   8.883
    1STR   C28021213   8.622   4.248   8.761
    1STR   H28121214   8.726   4.217   8.757
    1STR   C28221215   8.531   4.124   8.754
    1STR   H28321216   8.427   4.147   8.773
    1STR   H28421217   8.558   4.049   8.829
    1STR   H28521218   8.534   4.076   8.656
    1STR   C28621219   8.600   4.341   8.640
    1STR   H28721220   8.656   4.304   8.555
    1STR   H28821221   8.497   4.336   8.607
    1STR   O28921222   8.635   4.477   8.669
    1STR   C29021223   8.667   4.562   8.559
    1STR   H29121224   8.764   4.530   8.521
    1STR   C29221225   8.564   4.554   8.445
    1STR   H29321226   8.464   4.580   8.478
    1STR   H29421227   8.562   4.457   8.397
    1STR   H29521228   8.590   4.630   8.372
    1STR   C29621229   8.682   4.708   8.610
    1STR   H29721230   8.696   4.699   8.716
    1STR   H29821231   8.776   4.748   8.576
    1STR   O29921232   8.568   4.790   8.577
    1STR   C30021233   8.557   4.932   8.604
    1STR   H30121234   8.616   4.992   8.539
    1STR   C30221235   8.417   4.965   8.553
    1STR   H30321236   8.416   4.964   8.444
    1STR   H30421237   8.383   5.064   8.585
    1STR   H30521238   8.343   4.891   8.582
    1STR   C30621239   8.594   4.988   8.745
    1STR   H30721240   8.683   5.049   8.742
    1STR   H30821241   8.518   5.059   8.780
    1STR   O30921242   8.600   4.883   8.838
    1STR    H1R21243   8.705   4.744   8.922
    1STR    H1S21244   8.849   4.994   8.858
    1STR    H1T21245   8.850   4.840   8.766
    1STR    H1U21246   8.905   4.844   8.931
    1STR    H1V21247   8.610   4.838   9.104
    1STR    H1W21248   8.663   4.997   9.086
    1STR    H1X21249   8.835   4.572   9.299
    1STR    H1Y21250   8.757   4.916   0.109
    1STR    H1Z21251   8.714   4.933   0.361
    1STR    H2021252   8.687   4.839   0.582
    1STR    H2121253   8.651   4.669   0.566
    1STR    H2221254   8.803   4.703   0.608
    1STR    H2321255   8.826   4.498   0.502
    1STR    H2721256   8.761   4.496   0.161
    1STR    H2821257   7.368   5.019   0.371
    1STR    H2921258   7.353   4.983   0.121
    1STR    H2A21259   7.348   4.670   9.277
    1STR    H2B21260   7.457   4.810   9.263
    1STR    H2C21261   7.281   4.827   9.272
    1STR   BCK121262   7.307   4.154   2.651
    1STR    O0321263   7.280   4.264   2.607
    1STR    N0421264   7.325   4.143   2.782
    1STR    C0521265   7.386   4.054   2.869
    1STR    C0621266   7.412   3.918   2.842
    1STR    C0721267   7.501   3.844   2.924
    1STR    N0821268   7.578   3.738   2.877
    1STR    C0921269   7.587   3.698   2.750
    1STR    O0A21270   7.493   3.682   2.673
    1STR    O0B21271   7.715   3.688   2.716
    1STR    C0C21272   7.758   3.717   2.582
    1STR    C0D21273   7.738   3.594   2.494
    1STR    C0E21274   7.695   3.842   2.515
    1STR    O0F21275   7.744   3.966   2.564
    1STR    C0G21276   7.677   4.021   2.677
    1STR    C0H21277   7.761   3.991   2.800
    1STR    C0I21278   7.651   4.173   2.671
    1STR    O0J21279   7.556   4.209   2.572
    1STR    C0K21280   8.649   5.009   3.041
    1STR    C0M21281   8.713   5.139   3.092
    1STR    C0N21282   8.502   5.001   3.090
    1STR    O0O21283   8.452   4.869   3.079
    1STR    C0P21284   8.499   4.777   3.162
    1STR    O0Q21285   8.564   4.796   3.264
    1STR    N0R21286   8.473   4.659   3.109
    1STR    C0S21287   8.541   4.541   3.128
    1STR    C0T21288   8.521   4.461   3.242
    1STR    C0U21289   8.575   4.331   3.245
    1STR    C0V21290   8.646   4.282   3.134
    1STR    C0W21291   8.685   4.136   3.127
    1STR    C0X21292   8.674   4.364   3.023
    1STR    N0Y21293   8.735   4.300   2.916
    1STR   BCK221294   8.763   4.332   2.790
    1STR    O1021295   8.794   4.241   2.714
    1STR    C1321296   8.623   4.495   3.024
    1STR    C1421297   7.540   3.899   3.048
    1STR    C1521298   7.510   4.033   3.078
    1STR    C1621299   7.440   4.112   2.985
    1STR    C1721300   7.439   4.264   2.999
    1STR    H1B21301   7.305   4.234   2.819
    1STR    H1C21302   7.380   3.877   2.748
    1STR    H1D21303   7.661   3.715   2.928
    1STR    H1E21304   7.865   3.736   2.589
    1STR    H1F21305   7.632   3.574   2.478
    1STR    H1G21306   7.785   3.612   2.398
    1STR    H1H21307   7.783   3.505   2.538
    1STR    H1I21308   7.586   3.840   2.511
    1STR    H1J21309   7.724   3.841   2.410
    1STR    H1K21310   7.580   3.974   2.682
    1STR    H1M21311   7.795   3.889   2.808
    1STR    H1N21312   7.709   4.019   2.891
    1STR    H1O21313   7.848   4.053   2.795
    1STR    H1P21314   7.607   4.203   2.765
    1STR    H1Q21315   7.742   4.232   2.665
    1STR   C01021316   7.605   4.231   2.443
    1STR   H01121317   7.710   4.220   2.458
    1STR   C01221318   7.566   4.128   2.336
    1STR   H01321319   7.463   4.138   2.306
    1STR   H01421320   7.579   4.027   2.372
    1STR   H01521321   7.624   4.142   2.246
    1STR   C01621322   7.566   4.370   2.396
    1STR   H01721323   7.624   4.399   2.309
    1STR   H01821324   7.467   4.363   2.357
    1STR   O01921325   7.573   4.473   2.495
    1STR   C02021326   7.498   4.586   2.452
    1STR   H02121327   7.507   4.599   2.346
    1STR   C02221328   7.354   4.556   2.477
    1STR   H02321329   7.349   4.499   2.567
    1STR   H02421330   7.308   4.490   2.406
    1STR   H02521331   7.297   4.646   2.485
    1STR   C02621332   7.545   4.717   2.514
    1STR   H02721333   7.463   4.774   2.554
    1STR   H02821334   7.615   4.703   2.595
    1STR   O02921335   7.593   4.794   2.405
    1STR   C03021336   7.703   4.879   2.423
    1STR   H03121337   7.796   4.828   2.441
    1STR   C03221338   7.702   4.944   2.284
    1STR   H03321339   7.605   4.988   2.262
    1STR   H03421340   7.724   4.873   2.204
    1STR   H03521341   7.772   5.024   2.274
    1STR   C03621342   7.681   4.980   2.534
    1STR   H03721343   7.746   5.066   2.529
    1STR   H03821344   7.589   5.011   2.493
    1STR   O03921345   7.644   4.938   2.665
    1STR   C04021346   7.730   4.980   2.770
    1STR   H04121347   7.828   4.986   2.731
    1STR   C04221348   7.717   5.126   2.817
    1STR   H04321349   7.623   5.153   2.861
    1STR   H04421350   7.731   5.193   2.733
    1STR   H04521351   7.794   5.148   2.891
    1STR   C04621352   7.741   4.872   2.877
    1STR   H04721353   7.836   4.881   2.930
    1STR   H04821354   7.663   4.883   2.949
    1STR   O04921355   7.724   4.742   2.823
    1STR   C05021356   7.753   4.637   2.914
    1STR   H05121357   7.856   4.649   2.944
    1STR   C05221358   7.668   4.645   3.041
    1STR   H05321359   7.564   4.665   3.017
    1STR   H05421360   7.702   4.723   3.108
    1STR   H05521361   7.670   4.551   3.093
    1STR   C05621362   7.735   4.503   2.839
    1STR   H05721363   7.652   4.446   2.878
    1STR   H05821364   7.709   4.521   2.735
    1STR   O05921365   7.854   4.425   2.839
    1STR   C06021366   7.908   4.381   2.963
    1STR   H06121367   7.932   4.467   3.026
    1STR   C06221368   7.812   4.289   3.040
    1STR   H06321369   7.779   4.208   2.976
    1STR   H06421370   7.724   4.342   3.075
    1STR   H06521371   7.861   4.246   3.127
    1STR   C06621372   8.040   4.312   2.928
    1STR   H06721373   8.097   4.377   2.862
    1STR   H06821374   8.100   4.299   3.018
    1STR   O06921375   8.016   4.182   2.873
    1STR   C07021376   8.079   4.155   2.748
    1STR   H07121377   8.177   4.202   2.752
    1STR   C07221378   8.108   4.006   2.729
    1STR   H07321379   8.017   3.950   2.705
    1STR   H07421380   8.153   3.963   2.818
    1STR   H07521381   8.176   3.991   2.645
    1STR   C07621382   8.012   4.221   2.628
    1STR   H07721383   7.963   4.316   2.652
    1STR   H07821384   8.100   4.244   2.573
    1STR   O07921385   7.933   4.142   2.539
    1STR   C08021386   7.946   4.174   2.399
    1STR   H08121387   8.049   4.185   2.382
    1STR   C08221388   7.909   4.053   2.314
    1STR   H08321389   7.803   4.032   2.321
    1STR   H08421390   7.962   3.965   2.347
    1STR   H08521391   7.933   4.071   2.209
    1STR   C08621392   7.888   4.306   2.343
    1STR   H08721393   7.946   4.341   2.262
    1STR   H08821394   7.798   4.288   2.286
    1STR   O08921395   7.868   4.405   2.444
    1STR   C09021396   7.901   4.539   2.409
    1STR   H09121397   7.997   4.545   2.364
    1STR   C09221398   7.804   4.595   2.310
    1STR   H09321399   7.710   4.604   2.356
    1STR   H09421400   7.791   4.531   2.224
    1STR   H09521401   7.832   4.695   2.277
    1STR   C09621402   7.909   4.616   2.540
    1STR   H09721403   7.810   4.639   2.575
    1STR   H09821404   7.951   4.548   2.614
    1STR   O09921405   7.990   4.734   2.529
    1STR   C10021406   7.997   4.806   2.651
    1STR   H10121407   7.895   4.810   2.682
    1STR   C10221408   8.069   4.720   2.754
    1STR   H10321409   8.004   4.645   2.799
    1STR   H10421410   8.114   4.777   2.834
    1STR   H10521411   8.143   4.661   2.701
    1STR   C10621412   8.056   4.951   2.644
    1STR   H10721413   8.076   4.982   2.746
    1STR   H10821414   8.151   4.950   2.595
    1STR   O10921415   7.971   5.047   2.581
    1STR   C11021416   7.994   5.189   2.594
    1STR   H11121417   7.905   5.234   2.551
    1STR   C11221418   8.005   5.248   2.737
    1STR   H11321419   8.027   5.175   2.815
    1STR   H11421420   7.914   5.299   2.765
    1STR   H11521421   8.081   5.326   2.744
    1STR   C11621422   8.111   5.229   2.505
    1STR   H11721423   8.189   5.279   2.562
    1STR   H11821424   8.150   5.135   2.470
    1STR   O11921425   8.080   5.312   2.392
    1STR   C12021426   8.093   5.247   2.266
    1STR   H12121427   8.193   5.208   2.247
    1STR   C12221428   7.998   5.127   2.266
    1STR   H12321429   7.916   5.148   2.334
    1STR   H12421430   8.045   5.038   2.306
    1STR   H12521431   7.960   5.099   2.169
    1STR   C12621432   8.070   5.350   2.154
    1STR   H12721433   7.973   5.395   2.162
    1STR   H12821434   8.143   5.430   2.163
    1STR   O12921435   8.083   5.287   2.028
    1STR   C13021436   8.028   5.354   1.916
    1STR   H13121437   7.930   5.394   1.942
    1STR   C13221438   8.119   5.470   1.876
    1STR   H13321439   8.219   5.434   1.853
    1STR   H13421440   8.127   5.543   1.956
    1STR   H13521441   8.080   5.521   1.788
    1STR   C13621442   8.003   5.255   1.801
    1STR   H13721443   7.947   5.310   1.726
    1STR   H13821444   8.096   5.223   1.753
    1STR   O13921445   7.931   5.141   1.847
    1STR   C14021446   7.877   5.049   1.752
    1STR   H14121447   7.783   5.019   1.798
    1STR   C14221448   7.841   5.113   1.616
    1STR   H14321449   7.929   5.150   1.565
    1STR   H14421450   7.770   5.195   1.629
    1STR   H14521451   7.795   5.042   1.549
    1STR   C14621452   7.954   4.915   1.737
    1STR   H14721453   7.901   4.832   1.783
    1STR   H14821454   7.957   4.888   1.631
    1STR   O14921455   8.087   4.917   1.782
    1STR   C15021456   8.112   4.903   1.922
    1STR   H15121457   8.201   4.845   1.921
    1STR   C15221458   8.184   5.026   1.974
    1STR   H15321459   8.134   5.065   2.060
    1STR   H15421460   8.192   5.104   1.899
    1STR   H15521461   8.287   5.007   2.003
    1STR   C15621462   8.022   4.812   2.015
    1STR   H15721463   8.039   4.838   2.119
    1STR   H15821464   7.916   4.829   2.001
    1STR   O15921465   8.058   4.673   1.993
    1STR   C16021466   8.041   4.568   2.090
    1STR   H16121467   7.970   4.613   2.153
    1STR   C16221468   7.981   4.455   2.010
    1STR   H16321469   7.910   4.400   2.070
    1STR   H16421470   8.051   4.381   1.976
    1STR   H16521471   7.939   4.495   1.919
    1STR   C16621472   8.159   4.516   2.180
    1STR   H16721473   8.252   4.500   2.131
    1STR   H16821474   8.181   4.588   2.255
    1STR   O16921475   8.149   4.391   2.245
    1STR   C17021476   8.248   4.371   2.345
    1STR   H17121477   8.342   4.420   2.316
    1STR   C17221478   8.201   4.441   2.472
    1STR   H17321479   8.201   4.548   2.463
    1STR   H17421480   8.257   4.415   2.559
    1STR   H17521481   8.099   4.420   2.494
    1STR   C17621482   8.278   4.220   2.360
    1STR   H17721483   8.383   4.210   2.362
    1STR   H17821484   8.248   4.175   2.454
    1STR   O17921485   8.224   4.147   2.251
    1STR   C18021486   8.296   4.036   2.201
    1STR   H18121487   8.404   4.055   2.197
    1STR   C18221488   8.271   3.919   2.296
    1STR   H18321489   8.166   3.895   2.301
    1STR   H18421490   8.304   3.943   2.397
    1STR   H18521491   8.325   3.830   2.264
    1STR   C18621492   8.243   4.016   2.056
    1STR   H18721493   8.267   3.916   2.023
    1STR   H18821494   8.134   4.022   2.058
    1STR   O18921495   8.291   4.107   1.955
    1STR   C19021496   8.283   4.246   1.986
    1STR   H19121497   8.196   4.263   2.048
    1STR   C19221498   8.409   4.278   2.061
    1STR   H19321499   8.433   4.383   2.048
    1STR   H19421500   8.487   4.210   2.029
    1STR   H19521501   8.404   4.271   2.166
    1STR   C19621502   8.282   4.345   1.868
    1STR   H19721503   8.379   4.348   1.823
    1STR   H19821504   8.210   4.313   1.793
    1STR   O19921505   8.250   4.475   1.918
    1STR   C20021506   8.337   4.588   1.906
    1STR   H20121507   8.431   4.551   1.866
    1STR   C20221508   8.267   4.658   1.791
    1STR   H20321509   8.160   4.668   1.801
    1STR   H20421510   8.274   4.599   1.703
    1STR   H20521511   8.303   4.757   1.771
    1STR   C20621512   8.374   4.679   2.035
    1STR   H20721513   8.429   4.619   2.107
    1STR   H20821514   8.438   4.757   2.001
    1STR   O20921515   8.271   4.743   2.113
    1STR   C21021516   8.281   4.836   2.224
    1STR   H21121517   8.230   4.924   2.189
    1STR   C21221518   8.195   4.806   2.344
    1STR   H21321519   8.244   4.736   2.410
    1STR   H21421520   8.095   4.771   2.318
    1STR   H21521521   8.182   4.896   2.402
    1STR   C21621522   8.413   4.884   2.279
    1STR   H21721523   8.424   4.863   2.385
    1STR   H21821524   8.490   4.830   2.229
    1STR   O21921525   8.412   5.024   2.257
    1STR   C22021526   8.491   5.101   2.344
    1STR   H22121527   8.570   5.045   2.392
    1STR   C22221528   8.541   5.210   2.249
    1STR   H22321529   8.463   5.284   2.229
    1STR   H22421530   8.567   5.170   2.151
    1STR   H22521531   8.629   5.259   2.287
    1STR   C22621532   8.403   5.158   2.453
    1STR   H22721533   8.444   5.243   2.505
    1STR   H22821534   8.326   5.207   2.397
    1STR   O22921535   8.350   5.056   2.540
    1STR   C23021536   8.405   5.047   2.670
    1STR   H23121537   8.511   5.041   2.653
    1STR   C23221538   8.364   5.170   2.754
    1STR   H23321539   8.257   5.170   2.768
    1STR   H23421540   8.393   5.265   2.709
    1STR   H23521541   8.409   5.167   2.852
    1STR   C23621542   8.376   4.916   2.747
    1STR   H23721543   8.465   4.884   2.801
    1STR   H23821544   8.299   4.930   2.822
    1STR   O23921545   8.330   4.816   2.658
    1STR   C24021546   8.389   4.687   2.664
    1STR   H24121547   8.340   4.632   2.585
    1STR   C24221548   8.532   4.697   2.620
    1STR   H24321549   8.599   4.734   2.697
    1STR   H24421550   8.538   4.764   2.534
    1STR   H24521551   8.564   4.599   2.588
    1STR   C24621552   8.372   4.608   2.794
    1STR   H24721553   8.463   4.615   2.851
    1STR   H24821554   8.296   4.653   2.857
    1STR   O24921555   8.329   4.473   2.768
    1STR   C25021556   8.430   4.373   2.774
    1STR   H25121557   8.523   4.423   2.793
    1STR   C25221558   8.401   4.287   2.898
    1STR   H25321559   8.309   4.232   2.896
    1STR   H25421560   8.397   4.348   2.987
    1STR   H25521561   8.480   4.212   2.911
    1STR   C25621562   8.457   4.288   2.647
    1STR   H25721563   8.540   4.221   2.667
    1STR   H25821564   8.372   4.224   2.628
    1STR   O25921565   8.483   4.365   2.528
    1STR   C26021566   8.602   4.333   2.454
    1STR   H26121567   8.681   4.341   2.527
    1STR   C26221568   8.612   4.188   2.402
    1STR   H26321569   8.588   4.182   2.296
    1STR   H26421570   8.549   4.119   2.458
    1STR   H26521571   8.712   4.148   2.413
    1STR   C26621572   8.639   4.442   2.349
    1STR   H26721573   8.615   4.542   2.384
    1STR   H26821574   8.746   4.434   2.352
    1STR   O26921575   8.590   4.430   2.214
    1STR   C27021576   8.685   4.463   2.110
    1STR   H27121577   8.779   4.464   2.159
    1STR   C27221578   8.686   4.355   2.000
    1STR   H27321579   8.600   4.361   1.934
    1STR   H27421580   8.694   4.259   2.049
    1STR   H27521581   8.761   4.363   1.922
    1STR   C27621582   8.680   4.599   2.041
    1STR   H27721583   8.775   4.616   1.992
    1STR   H27821584   8.606   4.598   1.963
    1STR   O27921585   8.654   4.704   2.130
    1STR   C28021586   8.709   4.831   2.099
    1STR   H28121587   8.807   4.820   2.052
    1STR   C28221588   8.618   4.925   2.014
    1STR   H28321589   8.530   4.958   2.065
    1STR   H28421590   8.579   4.887   1.921
    1STR   H28521591   8.669   5.016   1.987
    1STR   C28621592   8.734   4.894   2.236
    1STR   H28721593   8.837   4.921   2.247
    1STR   H28821594   8.687   4.990   2.238
    1STR   O28921595   8.688   4.813   2.344
    1STR   C29021596   8.786   4.767   2.434
    1STR   H29121597   8.742   4.692   2.499
    1STR   C29221598   8.897   4.689   2.361
    1STR   H29321599   8.934   4.738   2.274
    1STR   H29421600   8.859   4.597   2.322
    1STR   H29521601   8.982   4.664   2.424
    1STR   C29621602   8.828   4.882   2.526
    1STR   H29721603   8.910   4.849   2.588
    1STR   H29821604   8.866   4.961   2.462
    1STR   O29921605   8.721   4.934   2.608
    1STR   C30021606   8.754   5.057   2.671
    1STR   H30121607   8.859   5.062   2.677
    1STR   C30221608   8.725   5.176   2.581
    1STR   H30321609   8.621   5.194   2.570
    1STR   H30421610   8.769   5.167   2.482
    1STR   H30521611   8.761   5.266   2.630
    1STR   C30621612   8.704   5.086   2.815
    1STR   H30721613   8.789   5.134   2.859
    1STR   H30821614   8.626   5.162   2.814
    1STR   O30921615   8.665   4.979   2.901
    1STR    H1R21616   8.703   4.930   3.092
    1STR    H1S21617   8.693   5.154   3.198
    1STR    H1T21618   8.676   5.228   3.041
    1STR    H1U21619   8.821   5.133   3.082
    1STR    H1V21620   8.437   5.067   3.035
    1STR    H1W21621   8.495   5.030   3.195
    1STR    H1X21622   8.419   4.668   3.024
    1STR    H1Y21623   8.461   4.498   3.324
    1STR    H1Z21624   8.556   4.267   3.329
    1STR    H2021625   8.646   4.092   3.035
    1STR    H2121626   8.793   4.129   3.127
    1STR    H2221627   8.642   4.078   3.207
    1STR    H2321628   8.762   4.205   2.929
    1STR    H2721629   8.643   4.563   2.943
    1STR    H2821630   7.605   3.844   3.114
    1STR    H2921631   7.552   4.078   3.167
    1STR    H2A21632   7.484   4.308   2.910
    1STR    H2B21633   7.501   4.295   3.081
    1STR    H2C21634   7.339   4.306   3.009
    1STR   BCK121635   7.546   5.115   4.936
    1STR    O0321636   7.616   5.216   4.936
    1STR    N0421637   7.451   5.087   4.848
    1STR    C0521638   7.420   5.136   4.724
    1STR    C0621639   7.486   5.242   4.656
    1STR    C0721640   7.451   5.271   4.522
    1STR    N0821641   7.539   5.337   4.436
    1STR    C0921642   7.533   5.342   4.303
    1STR    O0A21643   7.432   5.324   4.236
    1STR    O0B21644   7.651   5.369   4.249
    1STR    C0C21645   7.665   5.383   4.108
    1STR    C0D21646   7.810   5.422   4.082
    1STR    C0E21647   7.619   5.263   4.022
    1STR    O0F21648   7.669   5.138   4.068
    1STR    C0G21649   7.625   5.025   3.993
    1STR    C0H21650   7.715   5.017   3.869
    1STR    C0I21651   7.629   4.885   4.064
    1STR    O0J21652   7.524   4.840   4.152
    1STR    C0K21653   8.566   4.246   4.445
    1STR    C0M21654   8.705   4.191   4.446
    1STR    C0N21655   8.476   4.163   4.351
    1STR    O0O21656   8.502   4.220   4.223
    1STR    C0P21657   8.534   4.146   4.117
    1STR    O0Q21658   8.520   4.024   4.109
    1STR    N0R21659   8.583   4.216   4.015
    1STR    C0S21660   8.622   4.350   4.014
    1STR    C0T21661   8.593   4.430   3.901
    1STR    C0U21662   8.647   4.559   3.891
    1STR    C0V21663   8.728   4.612   3.992
    1STR    C0W21664   8.788   4.750   3.975
    1STR    C0X21665   8.741   4.541   4.112
    1STR    N0Y21666   8.758   4.617   4.227
    1STR   BCK221667   8.748   4.585   4.356
    1STR    O1021668   8.770   4.477   4.409
    1STR    C1321669   8.695   4.408   4.119
    1STR    C1421670   7.330   5.216   4.474
    1STR    C1521671   7.263   5.119   4.546
    1STR    C1621672   7.322   5.062   4.656
    1STR    C1721673   7.272   4.925   4.696
    1STR    H1B21674   7.397   5.007   4.872
    1STR    H1C21675   7.571   5.289   4.703
    1STR    H1D21676   7.630   5.363   4.471
    1STR    H1E21677   7.602   5.467   4.079
    1STR    H1F21678   7.876   5.346   4.124
    1STR    H1G21679   7.831   5.432   3.976
    1STR    H1H21680   7.834   5.517   4.131
    1STR    H1I21681   7.647   5.280   3.918
    1STR    H1J21682   7.511   5.258   4.020
    1STR    H1K21683   7.524   5.047   3.966
    1STR    H1M21684   7.761   5.112   3.843
    1STR    H1N21685   7.660   4.982   3.783
    1STR    H1O21686   7.795   4.947   3.886
    1STR    H1P21687   7.619   4.812   3.987
    1STR    H1Q21688   7.728   4.862   4.101
    1STR   C01021689   7.558   4.870   4.286
    1STR   H01121690   7.666   4.869   4.293
    1STR   C01221691   7.492   5.005   4.303
    1STR   H01321692   7.497   5.036   4.407
    1STR   H01421693   7.389   5.004   4.273
    1STR   H01521694   7.538   5.082   4.243
    1STR   C01621695   7.512   4.786   4.407
    1STR   H01721696   7.551   4.837   4.492
    1STR   H01821697   7.413   4.809   4.431
    1STR   O01921698   7.532   4.645   4.424
    1STR   C02021699   7.456   4.594   4.536
    1STR   H02121700   7.443   4.667   4.615
    1STR   C02221701   7.329   4.570   4.471
    1STR   H02321702   7.350   4.535   4.372
    1STR   H02421703   7.270   4.659   4.476
    1STR   H02521704   7.273   4.493   4.519
    1STR   C02621705   7.482   4.457   4.598
    1STR   H02721706   7.408   4.426   4.668
    1STR   H02821707   7.467   4.387   4.518
    1STR   O02921708   7.598   4.444   4.674
    1STR   C03021709   7.629   4.309   4.695
    1STR   H03121710   7.730   4.301   4.726
    1STR   C03221711   7.573   4.283   4.835
    1STR   H03321712   7.464   4.281   4.840
    1STR   H03421713   7.606   4.363   4.901
    1STR   H03521714   7.615   4.198   4.882
    1STR   C03621715   7.624   4.215   4.568
    1STR   H03721716   7.701   4.140   4.577
    1STR   H03821717   7.530   4.164   4.559
    1STR   O03921718   7.634   4.279   4.438
    1STR   C04021719   7.687   4.212   4.323
    1STR   H04121720   7.795   4.216   4.329
    1STR   C04221721   7.652   4.069   4.324
    1STR   H04321722   7.705   4.017   4.403
    1STR   H04421723   7.683   4.028   4.229
    1STR   H04521724   7.544   4.062   4.337
    1STR   C04621725   7.634   4.275   4.191
    1STR   H04721726   7.587   4.202   4.125
    1STR   H04821727   7.556   4.343   4.221
    1STR   O04921728   7.735   4.344   4.118
    1STR   C05021729   7.695   4.446   4.024
    1STR   H05121730   7.644   4.396   3.942
    1STR   C05221731   7.600   4.552   4.080
    1STR   H05321732   7.509   4.517   4.128
    1STR   H05421733   7.567   4.612   3.998
    1STR   H05521734   7.650   4.620   4.150
    1STR   C05621735   7.828   4.508   3.972
    1STR   H05721736   7.907   4.464   4.033
    1STR   H05821737   7.845   4.470   3.871
    1STR   O05921738   7.847   4.652   3.971
    1STR   C06021739   7.985   4.691   3.982
    1STR   H06121740   8.018   4.655   4.078
    1STR   C06221741   8.071   4.627   3.871
    1STR   H06321742   8.037   4.660   3.773
    1STR   H06421743   8.068   4.518   3.872
    1STR   H06521744   8.176   4.655   3.882
    1STR   C06621745   8.020   4.842   3.987
    1STR   H06721746   8.127   4.853   4.001
    1STR   H06821747   7.997   4.890   3.892
    1STR   O06921748   7.957   4.909   4.094
    1STR   C07021749   8.014   5.032   4.141
    1STR   H07121750   8.112   5.012   4.186
    1STR   C07221751   8.025   5.135   4.028
    1STR   H07321752   8.063   5.229   4.065
    1STR   H07421753   7.927   5.154   3.985
    1STR   H07521754   8.092   5.102   3.949
    1STR   C07621755   7.916   5.071   4.252
    1STR   H07721756   7.818   5.074   4.210
    1STR   H07821757   7.911   4.985   4.315
    1STR   O07921758   7.934   5.187   4.334
    1STR   C08021759   7.878   5.175   4.467
    1STR   H08121760   7.943   5.116   4.532
    1STR   C08221761   7.861   5.314   4.532
    1STR   H08321762   7.856   5.393   4.457
    1STR   H08421763   7.942   5.333   4.601
    1STR   H08521764   7.774   5.321   4.597
    1STR   C08621765   7.743   5.105   4.463
    1STR   H08721766   7.676   5.144   4.535
    1STR   H08821767   7.697   5.134   4.370
    1STR   O08921768   7.746   4.962   4.472
    1STR   C09021769   7.766   4.901   4.597
    1STR   H09121770   7.868   4.928   4.621
    1STR   C09221771   7.677   4.968   4.697
    1STR   H09321772   7.578   4.966   4.657
    1STR   H09421773   7.706   5.070   4.720
    1STR   H09521774   7.679   4.919   4.793
    1STR   C09621775   7.739   4.746   4.606
    1STR   H09721776   7.784   4.720   4.694
    1STR   H09821777   7.640   4.719   4.632
    1STR   O09921778   7.792   4.665   4.503
    1STR   C10021779   7.793   4.522   4.490
    1STR   H10121780   7.693   4.494   4.498
    1STR   C10221781   7.800   4.501   4.342
    1STR   H10321782   7.833   4.585   4.284
    1STR   H10421783   7.699   4.486   4.307
    1STR   H10521784   7.858   4.412   4.320
    1STR   C10621785   7.882   4.423   4.577
    1STR   H10721786   7.983   4.448   4.583
    1STR   H10821787   7.853   4.438   4.678
    1STR   O10921788   7.888   4.282   4.547
    1STR   C11021789   7.979   4.203   4.627
    1STR   H11121790   8.052   4.267   4.674
    1STR   C11221791   7.919   4.127   4.747
    1STR   H11321792   7.845   4.056   4.714
    1STR   H11421793   7.877   4.193   4.822
    1STR   H11521794   7.996   4.070   4.798
    1STR   C11621795   8.054   4.104   4.535
    1STR   H11721796   8.144   4.153   4.500
    1STR   H11821797   8.089   4.016   4.589
    1STR   O11921798   7.976   4.063   4.423
    1STR   C12021799   8.053   4.047   4.305
    1STR   H12121800   8.153   4.010   4.328
    1STR   C12221801   7.986   3.941   4.218
    1STR   H12321802   7.889   3.976   4.186
    1STR   H12421803   7.974   3.849   4.275
    1STR   H12521804   8.046   3.919   4.130
    1STR   C12621805   8.063   4.179   4.228
    1STR   H12721806   8.104   4.154   4.130
    1STR   H12821807   7.967   4.227   4.211
    1STR   O12921808   8.149   4.267   4.297
    1STR   C13021809   8.184   4.391   4.237
    1STR   H13121810   8.284   4.407   4.277
    1STR   C13221811   8.200   4.379   4.084
    1STR   H13321812   8.107   4.351   4.034
    1STR   H13421813   8.276   4.305   4.059
    1STR   H13521814   8.231   4.473   4.039
    1STR   C13621815   8.102   4.515   4.279
    1STR   H13721816   8.148   4.602   4.238
    1STR   H13821817   8.010   4.508   4.224
    1STR   O13921818   8.080   4.538   4.420
    1STR   C14021819   8.068   4.667   4.487
    1STR   H14121820   8.167   4.706   4.493
    1STR   C14221821   8.001   4.774   4.396
    1STR   H14321822   7.904   4.758   4.352
    1STR   H14421823   8.048   4.799   4.304
    1STR   H14521824   7.990   4.865   4.455
    1STR   C14621825   8.033   4.684   4.646
    1STR   H14721826   8.120   4.719   4.694
    1STR   H14821827   7.978   4.772   4.658
    1STR   O14921828   8.006   4.588   4.752
    1STR   C15021829   7.907   4.607   4.858
    1STR   H15121830   7.808   4.584   4.820
    1STR   C15221831   7.911   4.489   4.953
    1STR   H15321832   7.978   4.508   5.036
    1STR   H15421833   7.937   4.396   4.903
    1STR   H15521834   7.811   4.471   4.991
    1STR   C15621835   7.903   4.742   4.936
    1STR   H15721836   7.819   4.741   5.004
    1STR   H15821837   7.988   4.758   4.998
    1STR   O15921838   7.882   4.851   4.850
    1STR   C16021839   7.943   4.977   4.873
    1STR   H16121840   7.898   5.050   4.806
    1STR   C16221841   7.917   5.034   5.012
    1STR   H16321842   7.931   4.962   5.093
    1STR   H16421843   7.818   5.074   5.019
    1STR   H16521844   7.982   5.119   5.029
    1STR   C16621845   8.088   4.978   4.825
    1STR   H16721846   8.129   5.074   4.852
    1STR   H16821847   8.142   4.899   4.873
    1STR   O16921848   8.102   4.966   4.686
    1STR   C17021849   8.235   4.984   4.641
    1STR   H17121850   8.273   5.079   4.677
    1STR   C17221851   8.330   4.877   4.691
    1STR   H17321852   8.422   4.874   4.635
    1STR   H17421853   8.296   4.778   4.672
    1STR   H17521854   8.354   4.886   4.796
    1STR   C17621855   8.232   4.994   4.489
    1STR   H17721856   8.329   4.989   4.441
    1STR   H17821857   8.189   4.907   4.448
    1STR   O17921858   8.159   5.108   4.450
    1STR   C18021859   8.234   5.226   4.438
    1STR   H18121860   8.334   5.200   4.467
    1STR   C18221861   8.228   5.269   4.291
    1STR   H18321862   8.261   5.188   4.226
    1STR   H18421863   8.289   5.357   4.270
    1STR   H18521864   8.127   5.296   4.263
    1STR   C18621865   8.198   5.340   4.534
    1STR   H18721866   8.276   5.414   4.526
    1STR   H18821867   8.109   5.390   4.498
    1STR   O18921868   8.184   5.290   4.668
    1STR   C19021869   8.241   5.370   4.770
    1STR   H19121870   8.333   5.413   4.732
    1STR   C19221871   8.144   5.481   4.809
    1STR   H19321872   8.052   5.438   4.849
    1STR   H19421873   8.117   5.542   4.723
    1STR   H19521874   8.187   5.546   4.885
    1STR   C19621875   8.285   5.283   4.890
    1STR   H19721876   8.324   5.191   4.848
    1STR   H19821877   8.369   5.334   4.938
    1STR   O19921878   8.187   5.249   4.989
    1STR   C20021879   8.240   5.175   5.099
    1STR   H20121880   8.339   5.216   5.120
    1STR   C20221881   8.161   5.203   5.227
    1STR   H20321882   8.061   5.161   5.223
    1STR   H20421883   8.151   5.311   5.243
    1STR   H20521884   8.211   5.160   5.313
    1STR   C20621885   8.264   5.022   5.078
    1STR   H20721886   8.301   5.004   4.978
    1STR   H20821887   8.344   5.001   5.144
    1STR   O20921888   8.163   4.927   5.111
    1STR   C21021889   8.207   4.793   5.141
    1STR   H21121890   8.300   4.797   5.197
    1STR   C21221891   8.106   4.741   5.246
    1STR   H21321892   8.006   4.730   5.207
    1STR   H21421893   8.100   4.811   5.330
    1STR   H21521894   8.137   4.645   5.286
    1STR   C21621895   8.232   4.694   5.021
    1STR   H21721896   8.168   4.702   4.935
    1STR   H21821897   8.329   4.714   4.978
    1STR   O21921898   8.214   4.561   5.071
    1STR   C22021899   8.255   4.446   4.996
    1STR   H22121900   8.359   4.428   5.015
    1STR   C22221901   8.193   4.328   5.075
    1STR   H22321902   8.085   4.337   5.089
    1STR   H22421903   8.236   4.323   5.175
    1STR   H22521904   8.209   4.233   5.027
    1STR   C22621905   8.229   4.433   4.842
    1STR   H22721906   8.280   4.342   4.817
    1STR   H22821907   8.126   4.407   4.822
    1STR   O22921908   8.268   4.534   4.746
    1STR   C23021909   8.331   4.485   4.625
    1STR   H23121910   8.420   4.447   4.668
    1STR   C23221911   8.269   4.362   4.563
    1STR   H23321912   8.166   4.375   4.536
    1STR   H23421913   8.277   4.274   4.624
    1STR   H23521914   8.320   4.343   4.471
    1STR   C23621915   8.398   4.578   4.517
    1STR   H23721916   8.433   4.671   4.558
    1STR   H23821917   8.489   4.526   4.487
    1STR   O23921918   8.330   4.610   4.396
    1STR   C24021919   8.399   4.689   4.300
    1STR   H24121920   8.466   4.757   4.350
    1STR   C24221921   8.462   4.587   4.209
    1STR   H24321922   8.392   4.530   4.152
    1STR   H24421923   8.520   4.515   4.266
    1STR   H24521924   8.520   4.639   4.135
    1STR   C24621925   8.314   4.777   4.209
    1STR   H24721926   8.282   4.729   4.116
    1STR   H24821927   8.229   4.799   4.267
    1STR   O24921928   8.359   4.908   4.185
    1STR   C25021929   8.487   4.922   4.131
    1STR   H25121930   8.556   4.845   4.165
    1STR   C25221931   8.478   4.923   3.979
    1STR   H25321932   8.403   4.994   3.944
    1STR   H25421933   8.450   4.824   3.942
    1STR   H25521934   8.573   4.950   3.933
    1STR   C25621935   8.536   5.051   4.195
    1STR   H25721936   8.639   5.063   4.166
    1STR   H25821937   8.478   5.136   4.161
    1STR   O25921938   8.522   5.034   4.335
    1STR   C26021939   8.597   5.119   4.420
    1STR   H26121940   8.701   5.102   4.400
    1STR   C26221941   8.552   5.264   4.407
    1STR   H26321942   8.627   5.324   4.364
    1STR   H26421943   8.522   5.309   4.502
    1STR   H26521944   8.474   5.276   4.333
    1STR   C26621945   8.568   5.062   4.557
    1STR   H26721946   8.463   5.070   4.575
    1STR   H26821947   8.596   4.957   4.548
    1STR   O26921948   8.621   5.122   4.674
    1STR   C27021949   8.636   5.025   4.778
    1STR   H27121950   8.576   4.939   4.756
    1STR   C27221951   8.782   4.983   4.776
    1STR   H27321952   8.843   5.051   4.827
    1STR   H27421953   8.825   4.987   4.676
    1STR   H27521954   8.796   4.886   4.824
    1STR   C27621955   8.584   5.068   4.915
    1STR   H27721956   8.660   5.117   4.974
    1STR   H27821957   8.512   5.147   4.900
    1STR   O27921958   8.520   4.956   4.979
    1STR   C28021959   8.592   4.896   5.084
    1STR   H28121960   8.691   4.920   5.055
    1STR   C28221961   8.563   4.955   5.224
    1STR   H28321962   8.476   4.910   5.271
    1STR   H28421963   8.550   5.063   5.221
    1STR   H28521964   8.642   4.931   5.293
    1STR   C28621965   8.588   4.742   5.093
    1STR   H28721966   8.647   4.713   5.179
    1STR   H28821967   8.488   4.709   5.118
    1STR   O28921968   8.646   4.680   4.978
    1STR   C29021969   8.569   4.580   4.913
    1STR   H29121970   8.476   4.574   4.964
    1STR   C29221971   8.544   4.648   4.783
    1STR   H29321972   8.577   4.586   4.700
    1STR   H29421973   8.594   4.742   4.775
    1STR   H29521974   8.440   4.671   4.778
    1STR   C29621975   8.620   4.434   4.895
    1STR   H29721976   8.705   4.427   4.828
    1STR   H29821977   8.649   4.392   4.991
    1STR   O29921978   8.512   4.354   4.844
    1STR   C30021979   8.534   4.215   4.821
    1STR   H30121980   8.636   4.196   4.853
    1STR   C30221981   8.432   4.138   4.907
    1STR   H30321982   8.333   4.141   4.863
    1STR   H30421983   8.424   4.181   5.007
    1STR   H30521984   8.456   4.033   4.917
    1STR   C30621985   8.520   4.168   4.674
    1STR   H30721986   8.598   4.098   4.657
    1STR   H30821987   8.427   4.114   4.655
    1STR   O30921988   8.532   4.273   4.580
    1STR    H1R21989   8.569   4.345   4.403
    1STR    H1S21990   8.703   4.084   4.460
    1STR    H1T21991   8.759   4.239   4.527
    1STR    H1U21992   8.758   4.212   4.353
    1STR    H1V21993   8.370   4.171   4.371
    1STR    H1W21994   8.500   4.057   4.355
    1STR    H1X21995   8.606   4.159   3.936
    1STR    H1Y21996   8.535   4.391   3.819
    1STR    H1Z21997   8.627   4.616   3.802
    1STR    H2021998   8.781   4.785   3.873
    1STR    H2121999   8.734   4.823   4.035
    1STR    H2222000   8.893   4.750   4.005
    1STR    H2322001   8.765   4.717   4.217
    1STR    H2722002   8.710   4.353   4.210
    1STR    H2822003   7.284   5.242   4.380
    1STR    H2922004   7.167   5.084   4.515
    1STR    H2A22005   7.270   4.906   4.802
    1STR    H2B22006   7.332   4.850   4.647
    1STR    H2C22007   7.170   4.910   4.661
    1STR   BCK122008   7.498   4.288   7.052
    1STR    O0322009   7.558   4.193   7.094
    1STR    N0422010   7.509   4.407   7.105
    1STR    C0522011   7.597   4.442   7.206
    1STR    C0622012   7.655   4.355   7.301
    1STR    C0722013   7.749   4.403   7.393
    1STR    N0822014   7.821   4.324   7.482
    1STR    C0922015   7.809   4.201   7.530
    1STR    O0A22016   7.889   4.163   7.616
    1STR    O0B22017   7.709   4.123   7.483
    1STR    C0C22018   7.709   3.985   7.518
    1STR    C0D22019   7.664   3.965   7.664
    1STR    C0E22020   7.618   3.900   7.428
    1STR    O0F22021   7.628   3.922   7.290
    1STR    C0G22022   7.751   3.914   7.220
    1STR    C0H22023   7.818   3.778   7.222
    1STR    C0I22024   7.706   3.959   7.079
    1STR    O0J22025   7.746   3.888   6.963
    1STR    C0K22026   8.736   5.144   6.891
    1STR    C0M22027   8.701   5.252   6.990
    1STR    C0N22028   8.704   5.001   6.941
    1STR    O0O22029   8.766   4.947   7.057
    1STR    C0P22030   8.804   4.818   7.048
    1STR    O0Q22031   8.818   4.759   6.942
    1STR    N0R22032   8.839   4.753   7.156
    1STR    C0S22033   8.816   4.763   7.292
    1STR    C0T22034   8.739   4.861   7.355
    1STR    C0U22035   8.709   4.849   7.492
    1STR    C0V22036   8.740   4.731   7.562
    1STR    C0W22037   8.683   4.711   7.700
    1STR    C0X22038   8.821   4.633   7.499
    1STR    N0Y22039   8.842   4.508   7.558
    1STR   BCK222040   8.832   4.393   7.491
    1STR    O1022041   8.839   4.388   7.370
    1STR    C1322042   8.866   4.658   7.368
    1STR    C1422043   7.780   4.541   7.391
    1STR    C1522044   7.719   4.627   7.299
    1STR    C1622045   7.628   4.577   7.206
    1STR    C1722046   7.556   4.670   7.112
    1STR    H1B22047   7.462   4.479   7.054
    1STR    H1C22048   7.627   4.251   7.304
    1STR    H1D22049   7.915   4.356   7.503
    1STR    H1E22050   7.811   3.949   7.506
    1STR    H1F22051   7.559   3.993   7.677
    1STR    H1G22052   7.675   3.861   7.695
    1STR    H1H22053   7.722   4.026   7.734
    1STR    H1I22054   7.514   3.923   7.450
    1STR    H1J22055   7.632   3.793   7.447
    1STR    H1K22056   7.816   3.990   7.264
    1STR    H1M22057   7.762   3.707   7.163
    1STR    H1N22058   7.828   3.739   7.323
    1STR    H1O22059   7.918   3.784   7.178
    1STR    H1P22060   7.598   3.961   7.075
    1STR    H1Q22061   7.737   4.061   7.073
    1STR   C01022062   7.817   3.969   6.871
    1STR   H01122063   7.896   4.008   6.931
    1STR   C01222064   7.883   3.873   6.770
    1STR   H01322065   7.808   3.829   6.705
    1STR   H01422066   7.935   3.793   6.823
    1STR   H01522067   7.955   3.924   6.708
    1STR   C01622068   7.748   4.090   6.803
    1STR   H01722069   7.809   4.114   6.718
    1STR   H01822070   7.652   4.063   6.759
    1STR   O01922071   7.735   4.211   6.882
    1STR   C02022072   7.762   4.340   6.820
    1STR   H02122073   7.865   4.340   6.789
    1STR   C02222074   7.679   4.336   6.694
    1STR   H02322075   7.577   4.304   6.712
    1STR   H02422076   7.720   4.273   6.615
    1STR   H02522077   7.678   4.436   6.658
    1STR   C02622078   7.729   4.468   6.911
    1STR   H02722079   7.624   4.488   6.903
    1STR   H02822080   7.740   4.421   7.007
    1STR   O02922081   7.805   4.594   6.935
    1STR   C03022082   7.777   4.730   6.883
    1STR   H03122083   7.877   4.761   6.854
    1STR   C03222084   7.687   4.731   6.761
    1STR   H03322085   7.582   4.749   6.785
    1STR   H03422086   7.688   4.635   6.715
    1STR   H03522087   7.716   4.807   6.688
    1STR   C03622088   7.729   4.859   6.962
    1STR   H03722089   7.758   4.942   6.899
    1STR   H03822090   7.620   4.862   6.962
    1STR   O03922091   7.771   4.893   7.094
    1STR   C04022092   7.725   5.017   7.158
    1STR   H04122093   7.819   5.035   7.204
    1STR   C04222094   7.726   5.155   7.094
    1STR   H04322095   7.774   5.156   6.998
    1STR   H04422096   7.778   5.228   7.156
    1STR   H04522097   7.626   5.195   7.087
    1STR   C04622098   7.628   5.015   7.278
    1STR   H04722099   7.527   5.035   7.244
    1STR   H04822100   7.628   4.918   7.326
    1STR   O04922101   7.673   5.121   7.364
    1STR   C05022102   7.659   5.110   7.506
    1STR   H05122103   7.558   5.085   7.533
    1STR   C05222104   7.746   5.001   7.564
    1STR   H05322105   7.846   5.036   7.575
    1STR   H05422106   7.745   4.911   7.506
    1STR   H05522107   7.711   4.975   7.664
    1STR   C05622108   7.703   5.245   7.567
    1STR   H05722109   7.795   5.280   7.520
    1STR   H05822110   7.627   5.318   7.543
    1STR   O05922111   7.714   5.243   7.709
    1STR   C06022112   7.847   5.242   7.762
    1STR   H06122113   7.918   5.194   7.694
    1STR   C06222114   7.897   5.384   7.788
    1STR   H06322115   7.819   5.445   7.832
    1STR   H06422116   7.932   5.429   7.696
    1STR   H06522117   7.983   5.383   7.855
    1STR   C06622118   7.847   5.160   7.891
    1STR   H06722119   7.939   5.176   7.947
    1STR   H06822120   7.763   5.186   7.954
    1STR   O06922121   7.842   5.025   7.851
    1STR   C07022122   7.871   4.929   7.949
    1STR   H07122123   7.960   4.954   8.007
    1STR   C07222124   7.752   4.912   8.037
    1STR   H07322125   7.769   4.835   8.113
    1STR   H07422126   7.665   4.883   7.979
    1STR   H07522127   7.733   5.007   8.086
    1STR   C07622128   7.893   4.802   7.872
    1STR   H07722129   7.883   4.714   7.937
    1STR   H07822130   7.817   4.795   7.794
    1STR   O07922131   8.024   4.809   7.822
    1STR   C08022132   8.048   4.724   7.712
    1STR   H08122133   8.156   4.708   7.710
    1STR   C08222134   7.975   4.588   7.724
    1STR   H08322135   7.866   4.595   7.713
    1STR   H08422136   7.993   4.540   7.820
    1STR   H08522137   8.004   4.518   7.647
    1STR   C08622138   8.009   4.791   7.581
    1STR   H08722139   8.063   4.730   7.513
    1STR   H08822140   7.902   4.775   7.565
    1STR   O08922141   8.039   4.929   7.551
    1STR   C09022142   8.041   4.958   7.409
    1STR   H09122143   8.139   4.927   7.383
    1STR   C09222144   7.954   4.867   7.324
    1STR   H09322145   7.852   4.896   7.338
    1STR   H09422146   7.947   4.763   7.347
    1STR   H09522147   7.980   4.872   7.218
    1STR   C09622148   8.010   5.102   7.356
    1STR   H09722149   8.004   5.092   7.248
    1STR   H09822150   7.912   5.134   7.389
    1STR   O09922151   8.101   5.211   7.366
    1STR   C10022152   8.061   5.322   7.283
    1STR   H10122153   7.953   5.336   7.289
    1STR   C10222154   8.126   5.443   7.351
    1STR   H10322155   8.235   5.433   7.355
    1STR   H10422156   8.090   5.451   7.453
    1STR   H10522157   8.103   5.536   7.299
    1STR   C10622158   8.099   5.314   7.130
    1STR   H10722159   8.149   5.405   7.097
    1STR   H10822160   8.170   5.235   7.111
    1STR   O10922161   7.989   5.282   7.046
    1STR   C11022162   7.961   5.357   6.926
    1STR   H11122163   7.860   5.325   6.903
    1STR   C11222164   7.952   5.507   6.955
    1STR   H11322165   8.049   5.553   6.975
    1STR   H11422166   7.888   5.525   7.041
    1STR   H11522167   7.909   5.561   6.870
    1STR   C11622168   8.036   5.329   6.793
    1STR   H11722169   7.968   5.338   6.709
    1STR   H11822170   8.108   5.410   6.780
    1STR   O11922171   8.117   5.213   6.776
    1STR   C12022172   8.064   5.081   6.763
    1STR   H12122173   8.155   5.035   6.735
    1STR   C12222174   8.027   5.021   6.899
    1STR   H12322175   8.098   5.047   6.976
    1STR   H12422176   8.020   4.913   6.897
    1STR   H12522177   7.933   5.059   6.933
    1STR   C12622178   7.978   5.034   6.644
    1STR   H12722179   7.890   4.986   6.686
    1STR   H12822180   7.954   5.118   6.579
    1STR   O12922181   8.039   4.935   6.563
    1STR   C13022182   7.959   4.846   6.484
    1STR   H13122183   7.872   4.811   6.539
    1STR   C13222184   7.917   4.907   6.350
    1STR   H13322185   8.003   4.941   6.293
    1STR   H13422186   7.851   4.992   6.361
    1STR   H13522187   7.864   4.834   6.290
    1STR   C13622188   8.056   4.730   6.461
    1STR   H13722189   8.118   4.749   6.374
    1STR   H13822190   8.117   4.736   6.551
    1STR   O13922191   8.013   4.594   6.454
    1STR   C14022192   8.044   4.521   6.574
    1STR   H14122193   8.143   4.544   6.615
    1STR   C14222194   7.944   4.572   6.670
    1STR   H14322195   7.848   4.561   6.626
    1STR   H14422196   7.962   4.676   6.692
    1STR   H14522197   7.945   4.518   6.762
    1STR   C14622198   8.041   4.368   6.561
    1STR   H14722199   7.939   4.333   6.552
    1STR   H14822200   8.095   4.335   6.473
    1STR   O14922201   8.102   4.316   6.678
    1STR   C15022202   8.088   4.176   6.693
    1STR   H15122203   7.995   4.143   6.648
    1STR   C15222204   8.204   4.107   6.620
    1STR   H15322205   8.300   4.141   6.660
    1STR   H15422206   8.203   4.130   6.514
    1STR   H15522207   8.198   3.999   6.631
    1STR   C15622208   8.088   4.143   6.844
    1STR   H15722209   8.083   4.037   6.863
    1STR   H15822210   8.186   4.167   6.870
    1STR   O15922211   8.000   4.225   6.922
    1STR   C16022212   7.975   4.213   7.065
    1STR   H16122213   7.868   4.208   7.078
    1STR   C16222214   8.032   4.090   7.137
    1STR   H16322215   8.132   4.068   7.107
    1STR   H16422216   7.977   3.999   7.118
    1STR   H16522217   8.032   4.104   7.245
    1STR   C16622218   7.999   4.348   7.133
    1STR   H16722219   8.079   4.396   7.082
    1STR   H16822220   7.916   4.415   7.114
    1STR   O16922221   8.020   4.345   7.274
    1STR   C17022222   8.119   4.440   7.311
    1STR   H17122223   8.203   4.410   7.252
    1STR   C17222224   8.089   4.581   7.267
    1STR   H17322225   7.988   4.595   7.230
    1STR   H17422226   8.157   4.609   7.190
    1STR   H17522227   8.115   4.654   7.340
    1STR   C17622228   8.171   4.435   7.454
    1STR   H17722229   8.276   4.419   7.438
    1STR   H17822230   8.166   4.529   7.507
    1STR   O17922231   8.118   4.330   7.533
    1STR   C18022232   8.209   4.280   7.630
    1STR   H18122233   8.311   4.314   7.616
    1STR   C18222234   8.171   4.328   7.770
    1STR   H18322235   8.067   4.307   7.792
    1STR   H18422236   8.188   4.436   7.778
    1STR   H18522237   8.233   4.281   7.846
    1STR   C18622238   8.212   4.127   7.615
    1STR   H18722239   8.285   4.083   7.683
    1STR   H18822240   8.116   4.086   7.644
    1STR   O18922241   8.236   4.087   7.481
    1STR   C19022242   8.358   4.128   7.421
    1STR   H19122243   8.373   4.235   7.428
    1STR   C19222244   8.478   4.059   7.489
    1STR   H19322245   8.466   3.951   7.489
    1STR   H19422246   8.490   4.093   7.592
    1STR   H19522247   8.570   4.084   7.437
    1STR   C19622248   8.352   4.098   7.272
    1STR   H19722249   8.455   4.086   7.238
    1STR   H19822250   8.301   4.004   7.253
    1STR   O19922251   8.288   4.204   7.199
    1STR   C20022252   8.341   4.226   7.068
    1STR   H20122253   8.435   4.256   7.101
    1STR   C20222254   8.370   4.094   6.988
    1STR   H20322255   8.288   4.023   6.986
    1STR   H20422256   8.453   4.038   7.029
    1STR   H20522257   8.397   4.116   6.885
    1STR   C20622258   8.303   4.357   6.985
    1STR   H20722259   8.377   4.359   6.907
    1STR   H20822260   8.210   4.350   6.932
    1STR   O20922261   8.303   4.487   7.048
    1STR   C21022262   8.267   4.603   6.969
    1STR   H21122263   8.302   4.596   6.868
    1STR   C21222264   8.119   4.606   6.935
    1STR   H21322265   8.048   4.611   7.017
    1STR   H21422266   8.099   4.514   6.882
    1STR   H21522267   8.093   4.688   6.870
    1STR   C21622268   8.319   4.736   7.033
    1STR   H21722269   8.239   4.807   7.054
    1STR   H21822270   8.362   4.708   7.129
    1STR   O21922271   8.429   4.802   6.969
    1STR   C22022272   8.404   4.899   6.867
    1STR   H22122273   8.495   4.904   6.808
    1STR   C22222274   8.306   4.849   6.766
    1STR   H22322275   8.205   4.845   6.804
    1STR   H22422276   8.333   4.751   6.735
    1STR   H22522277   8.309   4.911   6.678
    1STR   C22622278   8.377   5.045   6.912
    1STR   H22722279   8.465   5.107   6.910
    1STR   H22822280   8.315   5.098   6.841
    1STR   O22922281   8.320   5.053   7.040
    1STR   C23022282   8.404   5.092   7.147
    1STR   H23122283   8.500   5.040   7.148
    1STR   C23222284   8.420   5.244   7.156
    1STR   H23322285   8.349   5.290   7.225
    1STR   H23422286   8.404   5.293   7.060
    1STR   H23522287   8.518   5.270   7.195
    1STR   C23622288   8.323   5.045   7.264
    1STR   H23722289   8.340   5.105   7.353
    1STR   H23822290   8.222   5.063   7.235
    1STR   O23922291   8.327   4.905   7.282
    1STR   C24022292   8.408   4.862   7.389
    1STR   H24122293   8.504   4.893   7.353
    1STR   C24222294   8.381   4.927   7.527
    1STR   H24322295   8.277   4.921   7.556
    1STR   H24422296   8.412   5.031   7.532
    1STR   H24522297   8.437   4.876   7.605
    1STR   C24622298   8.401   4.709   7.395
    1STR   H24722299   8.385   4.682   7.499
    1STR   H24822300   8.319   4.670   7.337
    1STR   O24922301   8.520   4.656   7.342
    1STR   C25022302   8.550   4.520   7.365
    1STR   H25122303   8.655   4.523   7.347
    1STR   C25222304   8.524   4.467   7.508
    1STR   H25322305   8.540   4.360   7.514
    1STR   H25422306   8.427   4.489   7.550
    1STR   H25522307   8.592   4.510   7.578
    1STR   C25622308   8.511   4.419   7.259
    1STR   H25722309   8.543   4.319   7.287
    1STR   H25822310   8.403   4.418   7.257
    1STR   O25922311   8.553   4.447   7.126
    1STR   C26022312   8.662   4.373   7.072
    1STR   H26122313   8.746   4.386   7.140
    1STR   C26222314   8.649   4.226   7.027
    1STR   H26322315   8.575   4.218   6.949
    1STR   H26422316   8.630   4.156   7.108
    1STR   H26522317   8.735   4.188   6.971
    1STR   C26622318   8.692   4.446   6.947
    1STR   H26722319   8.704   4.552   6.969
    1STR   H26822320   8.785   4.402   6.923
    1STR   O26922321   8.617   4.417   6.828
    1STR   C27022322   8.534   4.521   6.784
    1STR   H27122323   8.483   4.541   6.875
    1STR   C27222324   8.603   4.654   6.753
    1STR   H27322325   8.702   4.641   6.717
    1STR   H27422326   8.609   4.711   6.844
    1STR   H27522327   8.550   4.716   6.682
    1STR   C27622328   8.445   4.471   6.668
    1STR   H27722329   8.503   4.420   6.592
    1STR   H27822330   8.371   4.397   6.701
    1STR   O27922331   8.374   4.577   6.608
    1STR   C28022332   8.407   4.607   6.473
    1STR   H28122333   8.513   4.595   6.458
    1STR   C28222334   8.327   4.503   6.391
    1STR   H28322335   8.229   4.492   6.428
    1STR   H28422336   8.373   4.405   6.393
    1STR   H28522337   8.306   4.531   6.288
    1STR   C28622338   8.371   4.755   6.444
    1STR   H28722339   8.333   4.771   6.344
    1STR   H28822340   8.295   4.782   6.512
    1STR   O28922341   8.466   4.854   6.477
    1STR   C29022342   8.428   4.988   6.438
    1STR   H29122343   8.454   4.998   6.335
    1STR   C29222344   8.282   5.033   6.438
    1STR   H29322345   8.245   5.052   6.537
    1STR   H29422346   8.216   4.965   6.385
    1STR   H29522347   8.274   5.129   6.386
    1STR   C29622348   8.513   5.078   6.526
    1STR   H29722349   8.506   5.044   6.629
    1STR   H29822350   8.616   5.070   6.494
    1STR   O29922351   8.478   5.215   6.518
    1STR   C30022352   8.574   5.300   6.579
    1STR   H30122353   8.671   5.286   6.531
    1STR   C30222354   8.526   5.440   6.546
    1STR   H30322355   8.429   5.461   6.591
    1STR   H30422356   8.516   5.452   6.438
    1STR   H30522357   8.597   5.516   6.579
    1STR   C30622358   8.585   5.274   6.731
    1STR   H30722359   8.612   5.366   6.781
    1STR   H30822360   8.485   5.254   6.768
    1STR   O30922361   8.679   5.169   6.760
    1STR    H1R22362   8.845   5.148   6.878
    1STR    H1S22363   8.597   5.277   6.987
    1STR    H1T22364   8.755   5.342   6.965
    1STR    H1U22365   8.727   5.222   7.091
    1STR    H1V22366   8.709   4.936   6.854
    1STR    H1W22367   8.605   4.988   6.977
    1STR    H1X22368   8.885   4.668   7.130
    1STR    H1Y22369   8.701   4.944   7.298
    1STR    H1Z22370   8.652   4.927   7.540
    1STR    H2022371   8.693   4.610   7.736
    1STR    H2122372   8.734   4.775   7.771
    1STR    H2222373   8.577   4.736   7.702
    1STR    H2322374   8.866   4.506   7.656
    1STR    H2722375   8.932   4.589   7.319
    1STR    H2822376   7.853   4.580   7.460
    1STR    H2922377   7.739   4.732   7.296
    1STR    H2A22378   7.453   4.648   7.098
    1STR    H2B22379   7.588   4.658   7.011
    1STR    H2C22380   7.564   4.773   7.144
    1STR   BCK122381   7.510   6.678   0.224
    1STR    O0322382   7.524   6.690   0.105
    1STR    N0422383   7.526   6.564   0.293
    1STR    C0522384   7.569   6.440   0.245
    1STR    C0622385   7.561   6.407   0.109
    1STR    C0722386   7.645   6.310   0.051
    1STR    N0822387   7.639   6.304   9.233
    1STR    C0922388   7.728   6.326   9.135
    1STR    O0A22389   7.849   6.312   9.145
    1STR    O0B22390   7.659   6.373   9.026
    1STR    C0C22391   7.723   6.413   8.905
    1STR    C0D22392   7.700   6.295   8.809
    1STR    C0E22393   7.671   6.549   8.844
    1STR    O0F22394   7.673   6.663   8.931
    1STR    C0G22395   7.592   6.779   8.898
    1STR    C0H22396   7.550   6.846   9.030
    1STR    C0I22397   7.661   6.883   8.804
    1STR    O0J22398   7.612   7.016   8.825
    1STR    C0K22399   8.529   6.890   0.625
    1STR    C0M22400   8.638   6.909   0.722
    1STR    C0N22401   8.445   6.774   0.676
    1STR    O0O22402   8.484   6.659   0.604
    1STR    C0P22403   8.483   6.539   0.661
    1STR    O0Q22404   8.446   6.514   0.775
    1STR    N0R22405   8.527   6.442   0.580
    1STR    C0S22406   8.571   6.455   0.449
    1STR    C0T22407   8.526   6.360   0.355
    1STR    C0U22408   8.560   6.373   0.219
    1STR    C0V22409   8.642   6.479   0.176
    1STR    C0W22410   8.679   6.497   0.028
    1STR    C0X22411   8.694   6.568   0.270
    1STR    N0Y22412   8.781   6.659   0.216
    1STR   BCK222413   8.831   6.775   0.249
    1STR    O1022414   8.913   6.821   0.173
    1STR    C1322415   8.659   6.557   0.407
    1STR    C1422416   7.726   6.230   0.133
    1STR    C1522417   7.714   6.243   0.274
    1STR    C1622418   7.633   6.347   0.329
    1STR    C1722419   7.615   6.358   0.478
    1STR    H1B22420   7.528   6.582   0.391
    1STR    H1C22421   7.494   6.463   0.047
    1STR    H1D22422   7.542   6.304   9.205
    1STR    H1E22423   7.830   6.417   8.921
    1STR    H1F22424   7.594   6.273   8.799
    1STR    H1G22425   7.742   6.315   8.711
    1STR    H1H22426   7.747   6.205   8.848
    1STR    H1I22427   7.569   6.536   8.810
    1STR    H1J22428   7.729   6.575   8.756
    1STR    H1K22429   7.498   6.747   8.852
    1STR    H1M22430   7.581   6.787   9.114
    1STR    H1N22431   7.442   6.861   9.036
    1STR    H1O22432   7.594   6.944   9.047
    1STR    H1P22433   7.767   6.883   8.812
    1STR    H1Q22434   7.642   6.854   8.701
    1STR   C01022435   7.700   7.120   8.869
    1STR   H01122436   7.786   7.075   8.917
    1STR   C01222437   7.742   7.200   8.747
    1STR   H01322438   7.656   7.234   8.689
    1STR   H01422439   7.807   7.140   8.686
    1STR   H01522440   7.800   7.288   8.773
    1STR   C01622441   7.628   7.223   8.956
    1STR   H01722442   7.682   7.317   8.952
    1STR   H01822443   7.532   7.239   8.910
    1STR   O01922444   7.608   7.195   9.094
    1STR   C02022445   7.549   7.304   9.164
    1STR   H02122446   7.582   7.399   9.124
    1STR   C02222447   7.402   7.292   9.131
    1STR   H02322448   7.366   7.195   9.163
    1STR   H02422449   7.377   7.300   9.026
    1STR   H02522450   7.344   7.370   9.176
    1STR   C02622451   7.589   7.301   9.316
    1STR   H02722452   7.541   7.222   0.052
    1STR   H02822453   7.695   7.281   9.316
    1STR   O02922454   7.568   7.423   0.067
    1STR   C03022455   7.661   7.457   0.170
    1STR   H03122456   7.758   7.434   0.133
    1STR   C03222457   7.658   7.609   0.178
    1STR   H03322458   7.564   7.644   0.219
    1STR   H03422459   7.666   7.652   0.079
    1STR   H03522460   7.741   7.647   0.238
    1STR   C03622461   7.646   7.408   0.317
    1STR   H03722462   7.742   7.424   0.364
    1STR   H03822463   7.577   7.474   0.369
    1STR   O03922464   7.603   7.276   0.345
    1STR   C04022465   7.627   7.237   0.482
    1STR   H04122466   7.733   7.229   0.489
    1STR   C04222467   7.603   7.344   0.590
    1STR   H04322468   7.505   7.388   0.581
    1STR   H04422469   7.675   7.426   0.584
    1STR   H04522470   7.615   7.300   0.688
    1STR   C04622471   7.572   7.096   0.518
    1STR   H04722472   7.475   7.108   0.563
    1STR   H04822473   7.550   7.037   0.431
    1STR   O04922474   7.666   7.025   0.601
    1STR   C05022475   7.655   6.884   0.630
    1STR   H05122476   7.686   6.886   0.734
    1STR   C05222477   7.520   6.818   0.633
    1STR   H05322478   7.457   6.861   0.557
    1STR   H05422479   7.473   6.831   0.730
    1STR   H05522480   7.527   6.711   0.616
    1STR   C05622481   7.760   6.794   0.565
    1STR   H05722482   7.834   6.865   0.532
    1STR   H05822483   7.806   6.740   0.648
    1STR   O05922484   7.726   6.700   0.460
    1STR   C06022485   7.839   6.618   0.422
    1STR   H06122486   7.921   6.686   0.419
    1STR   C06222487   7.868   6.518   0.537
    1STR   H06322488   7.782   6.504   0.602
    1STR   H06422489   7.941   6.554   0.609
    1STR   H06522490   7.902   6.421   0.500
    1STR   C06622491   7.856   6.557   0.278
    1STR   H06722492   7.960   6.534   0.261
    1STR   H06822493   7.825   6.457   0.272
    1STR   O06922494   7.812   6.629   0.162
    1STR   C07022495   7.836   6.566   0.035
    1STR   H07122496   7.835   6.459   0.048
    1STR   C07222497   7.731   6.610   9.252
    1STR   H07322498   7.762   6.592   9.150
    1STR   H07422499   7.713   6.716   9.262
    1STR   H07522500   7.639   6.559   9.259
    1STR   C07622501   7.969   6.595   9.291
    1STR   H07722502   8.044   6.606   0.047
    1STR   H07822503   7.995   6.510   9.227
    1STR   O07922504   7.953   6.716   9.219
    1STR   C08022505   8.010   6.742   9.092
    1STR   H08122506   8.112   6.778   9.098
    1STR   C08222507   8.009   6.624   8.995
    1STR   H08322508   7.906   6.593   8.983
    1STR   H08422509   8.067   6.539   9.028
    1STR   H08522510   8.047   6.652   8.897
    1STR   C08622511   7.923   6.858   9.043
    1STR   H08722512   7.981   6.939   9.001
    1STR   H08822513   7.865   6.813   8.965
    1STR   O08922514   7.817   6.903   9.125
    1STR   C09022515   7.851   6.993   9.227
    1STR   H09122516   7.922   6.944   9.288
    1STR   C09222517   7.896   7.125   9.167
    1STR   H09322518   7.890   7.204   9.240
    1STR   H09422519   7.832   7.161   9.091
    1STR   H09522520   7.996   7.119   9.127
    1STR   C09622521   7.737   7.010   0.004
    1STR   H09722522   7.656   7.050   9.265
    1STR   H09822523   7.705   6.908   0.027
    1STR   O09922524   7.761   7.096   0.120
    1STR   C10022525   7.795   7.045   0.252
    1STR   H10122526   7.705   7.059   0.307
    1STR   C10222527   7.817   6.896   0.250
    1STR   H10322528   7.870   6.863   0.162
    1STR   H10422529   7.727   6.838   0.256
    1STR   H10522530   7.875   6.870   0.336
    1STR   C10622531   7.898   7.123   0.341
    1STR   H10722532   8.001   7.109   0.315
    1STR   H10822533   7.877   7.228   0.329
    1STR   O10922534   7.898   7.088   0.480
    1STR   C11022535   7.992   7.154   0.566
    1STR   H11122536   8.092   7.134   0.528
    1STR   C11222537   7.969   7.306   0.577
    1STR   H11322538   7.886   7.329   0.643
    1STR   H11422539   7.944   7.354   0.483
    1STR   H11522540   8.057   7.356   0.617
    1STR   C11622541   7.977   7.100   0.710
    1STR   H11722542   8.051   7.146   0.776
    1STR   H11822543   7.879   7.129   0.748
    1STR   O11922544   7.981   6.960   0.726
    1STR   C12022545   8.104   6.897   0.696
    1STR   H12122546   8.187   6.967   0.690
    1STR   C12222547   8.122   6.796   0.811
    1STR   H12322548   8.029   6.742   0.829
    1STR   H12422549   8.149   6.847   0.903
    1STR   H12522550   8.197   6.720   0.790
    1STR   C12622551   8.081   6.829   0.562
    1STR   H12722552   8.013   6.749   0.584
    1STR   H12822553   8.038   6.897   0.490
    1STR   O12922554   8.195   6.774   0.506
    1STR   C13022555   8.180   6.701   0.387
    1STR   H13122556   8.282   6.700   0.354
    1STR   C13222557   8.174   6.551   0.421
    1STR   H13322558   8.119   6.532   0.512
    1STR   H13422559   8.274   6.516   0.446
    1STR   H13522560   8.139   6.485   0.343
    1STR   C13622561   8.112   6.766   0.260
    1STR   H13722562   8.174   6.732   0.181
    1STR   H13822563   8.019   6.724   0.233
    1STR   O13922564   8.083   6.908   0.247
    1STR   C14022565   8.115   6.981   0.126
    1STR   H14122566   8.205   6.989   0.172
    1STR   C14222567   8.153   6.905   0.001
    1STR   H14322568   8.120   6.804   0.006
    1STR   H14422569   8.259   6.898   9.307
    1STR   H14522570   8.116   6.947   9.229
    1STR   C14622571   8.070   7.129   0.090
    1STR   H14722572   8.093   7.156   9.311
    1STR   H14822573   7.967   7.121   0.091
    1STR   O14922574   8.101   7.253   0.154
    1STR   C15022575   8.011   7.363   0.130
    1STR   H15122576   7.914   7.318   0.135
    1STR   C15222577   8.036   7.450   0.255
    1STR   H15322578   8.082   7.391   0.334
    1STR   H15422579   7.943   7.493   0.292
    1STR   H15522580   8.104   7.532   0.236
    1STR   C15622581   8.018   7.458   0.005
    1STR   H15722582   7.967   7.550   0.034
    1STR   H15822583   8.119   7.489   9.302
    1STR   O15922584   7.961   7.416   9.201
    1STR   C16022585   7.902   7.515   9.113
    1STR   H16122586   7.865   7.456   9.029
    1STR   C16222587   7.778   7.573   9.176
    1STR   H16322588   7.802   7.658   9.240
    1STR   H16422589   7.732   7.498   9.238
    1STR   H16522590   7.705   7.603   9.102
    1STR   C16622591   7.988   7.632   9.057
    1STR   H16722592   8.009   7.624   8.950
    1STR   H16822593   7.931   7.725   9.061
    1STR   O16922594   8.105   7.654   9.130
    1STR   C17022595   8.224   7.617   9.064
    1STR   H17122596   8.237   7.677   8.974
    1STR   C17222597   8.330   7.663   9.164
    1STR   H17322598   8.328   7.771   9.176
    1STR   H17422599   8.430   7.635   9.133
    1STR   H17522600   8.311   7.620   9.262
    1STR   C17622601   8.230   7.467   9.024
    1STR   H17722602   8.332   7.430   9.037
    1STR   H17822603   8.170   7.402   9.088
    1STR   O17922604   8.201   7.452   8.884
    1STR   C18022605   8.082   7.388   8.836
    1STR   H18122606   7.993   7.444   8.860
    1STR   C18222607   8.093   7.405   8.685
    1STR   H18322608   8.191   7.374   8.649
    1STR   H18422609   8.085   7.510   8.658
    1STR   H18522610   8.016   7.350   8.632
    1STR   C18622611   8.056   7.244   8.890
    1STR   H18722612   8.133   7.208   8.955
    1STR   H18822613   7.977   7.261   8.963
    1STR   O18922614   7.998   7.144   8.803
    1STR   C19022615   8.075   7.038   8.746
    1STR   H19122616   8.145   7.008   8.822
    1STR   C19222617   8.003   6.907   8.716
    1STR   H19322618   7.912   6.922   8.659
    1STR   H19422619   7.985   6.849   8.804
    1STR   H19522620   8.068   6.840   8.658
    1STR   C19622621   8.135   7.081   8.613
    1STR   H19722622   8.160   6.997   8.547
    1STR   H19822623   8.064   7.142   8.557
    1STR   O19922624   8.251   7.153   8.636
    1STR   C20022625   8.353   7.083   8.704
    1STR   H20122626   8.329   6.989   8.753
    1STR   C20222627   8.434   7.039   8.579
    1STR   H20322628   8.461   7.121   8.513
    1STR   H20422629   8.375   6.971   8.518
    1STR   H20522630   8.521   6.979   8.601
    1STR   C20622631   8.385   7.191   8.816
    1STR   H20722632   8.441   7.278   8.783
    1STR   H20822633   8.294   7.242   8.834
    1STR   O20922634   8.428   7.158   8.949
    1STR   C21022635   8.349   7.078   9.033
    1STR   H21122636   8.257   7.053   8.984
    1STR   C21222637   8.413   6.940   9.046
    1STR   H21322638   8.513   6.947   9.085
    1STR   H21422639   8.416   6.893   8.948
    1STR   H21522640   8.357   6.872   9.110
    1STR   C21622641   8.316   7.131   9.175
    1STR   H21722642   8.211   7.118   9.169
    1STR   H21822643   8.357   7.058   9.241
    1STR   O21922644   8.332   7.260   9.236
    1STR   C22022645   8.373   7.269   0.057
    1STR   H22122646   8.477   7.278   0.055
    1STR   C22222647   8.360   7.410   0.112
    1STR   H22322648   8.419   7.479   0.053
    1STR   H22422649   8.397   7.418   0.214
    1STR   H22522650   8.259   7.444   0.116
    1STR   C22622651   8.366   7.154   0.165
    1STR   H22722652   8.430   7.192   0.240
    1STR   H22822653   8.282   7.159   0.231
    1STR   O22922654   8.404   7.016   0.126
    1STR   C23022655   8.437   6.906   0.215
    1STR   H23122656   8.542   6.911   0.238
    1STR   C23222657   8.373   6.930   0.349
    1STR   H23322658   8.268   6.940   0.358
    1STR   H23422659   8.400   7.027   0.386
    1STR   H23522660   8.405   6.854   0.417
    1STR   C23622661   8.446   6.757   0.162
    1STR   H23722662   8.544   6.741   0.120
    1STR   H23822663   8.450   6.688   0.246
    1STR   O23922664   8.356   6.715   0.060
    1STR   C24022665   8.356   6.579   0.018
    1STR   H24122666   8.454   6.548   9.316
    1STR   C24222667   8.295   6.484   0.121
    1STR   H24322668   8.188   6.497   0.133
    1STR   H24422669   8.339   6.500   0.219
    1STR   H24522670   8.310   6.381   0.092
    1STR   C24622671   8.281   6.569   9.207
    1STR   H24722672   8.235   6.471   9.192
    1STR   H24822673   8.200   6.637   9.217
    1STR   O24922674   8.350   6.612   9.092
    1STR   C25022675   8.453   6.530   9.037
    1STR   H25122676   8.548   6.564   9.078
    1STR   C25222677   8.437   6.379   9.065
    1STR   H25322678   8.343   6.341   9.025
    1STR   H25422679   8.442   6.356   9.171
    1STR   H25522680   8.518   6.325   9.016
    1STR   C25622681   8.446   6.556   8.886
    1STR   H25722682   8.509   6.486   8.832
    1STR   H25822683   8.344   6.538   8.852
    1STR   O25922684   8.476   6.691   8.855
    1STR   C26022685   8.614   6.712   8.833
    1STR   H26122686   8.672   6.648   8.900
    1STR   C26222687   8.647   6.674   8.690
    1STR   H26322688   8.597   6.741   8.620
    1STR   H26422689   8.623   6.572   8.664
    1STR   H26522690   8.754   6.686   8.677
    1STR   C26622691   8.664   6.854   8.864
    1STR   H26722692   8.674   6.865   8.972
    1STR   H26822693   8.763   6.852   8.821
    1STR   O26922694   8.599   6.969   8.810
    1STR   C27022695   8.676   7.092   8.812
    1STR   H27122696   8.772   7.055   8.798
    1STR   C27222697   8.669   7.177   8.681
    1STR   H27322698   8.577   7.223   8.656
    1STR   H27422699   8.697   7.115   8.596
    1STR   H27522700   8.732   7.263   8.677
    1STR   C27622701   8.697   7.161   8.950
    1STR   H27722702   8.655   7.099   9.027
    1STR   H27822703   8.802   7.166   8.975
    1STR   O27922704   8.657   7.297   8.963
    1STR   C28022705   8.705   7.355   9.084
    1STR   H28122706   8.814   7.352   9.092
    1STR   C28222707   8.659   7.501   9.079
    1STR   H28322708   8.573   7.512   9.013
    1STR   H28422709   8.739   7.565   9.042
    1STR   H28522710   8.631   7.542   9.176
    1STR   C28622711   8.642   7.284   9.204
    1STR   H28722712   8.631   7.357   9.282
    1STR   H28822713   8.545   7.254   9.167
    1STR   O28922714   8.710   7.172   9.261
    1STR   C29022715   8.646   7.092   0.040
    1STR   H29122716   8.550   7.109   0.003
    1STR   C29222717   8.646   6.944   9.318
    1STR   H29322718   8.545   6.906   9.302
    1STR   H29422719   8.694   6.881   0.070
    1STR   H29522720   8.686   6.925   9.219
    1STR   C29622721   8.671   7.139   0.194
    1STR   H29722722   8.771   7.121   0.224
    1STR   H29822723   8.654   7.245   0.186
    1STR   O29922724   8.602   7.099   0.318
    1STR   C30022725   8.606   7.177   0.441
    1STR   H30122726   8.711   7.177   0.466
    1STR   C30222727   8.563   7.325   0.418
    1STR   H30322728   8.456   7.331   0.398
    1STR   H30422729   8.616   7.376   0.339
    1STR   H30522730   8.577   7.385   0.507
    1STR   C30622731   8.522   7.133   0.571
    1STR   H30722732   8.574   7.156   0.662
    1STR   H30822733   8.435   7.199   0.577
    1STR   O30922734   8.455   7.009   0.602
    1STR    H1R22735   8.574   6.860   0.530
    1STR    H1S22736   8.670   6.814   0.765
    1STR    H1T22737   8.620   6.982   0.801
    1STR    H1U22738   8.716   6.939   0.655
    1STR    H1V22739   8.343   6.798   0.659
    1STR    H1W22740   8.453   6.761   0.784
    1STR    H1X22741   8.520   6.351   0.622
    1STR    H1Y22742   8.459   6.281   0.385
    1STR    H1Z22743   8.519   6.304   0.147
    1STR    H2022744   8.786   6.496   0.017
    1STR    H2122745   8.637   6.422   9.283
    1STR    H2222746   8.653   6.596   9.311
    1STR    H2322747   8.820   6.633   0.127
    1STR    H2722748   8.699   6.628   0.478
    1STR    H2822749   7.790   6.154   0.089
    1STR    H2922750   7.766   6.175   0.338
    1STR    H2A22751   7.692   6.306   0.534
    1STR    H2B22752   7.521   6.313   0.501
    1STR    H2C22753   7.605   6.461   0.511
    1STR   BCK122754   7.280   7.414   2.252
    1STR    O0322755   7.357   7.461   2.334
    1STR    N0422756   7.217   7.488   2.164
    1STR    C0522757   7.283   7.580   2.088
    1STR    C0622758   7.346   7.695   2.138
    1STR    C0722759   7.402   7.791   2.051
    1STR    N0822760   7.473   7.897   2.103
    1STR    C0922761   7.593   7.936   2.058
    1STR    O0A22762   7.630   7.943   1.941
    1STR    O0B22763   7.672   7.953   2.163
    1STR    C0C22764   7.763   7.849   2.196
    1STR    C0D22765   7.833   7.890   2.327
    1STR    C0E22766   7.697   7.708   2.194
    1STR    O0F22767   7.719   7.660   2.062
    1STR    C0G22768   7.646   7.549   2.014
    1STR    C0H22769   7.671   7.548   1.864
    1STR    C0I22770   7.682   7.416   2.077
    1STR    O0J22771   7.575   7.377   2.162
    1STR    C0K22772   8.390   6.688   1.480
    1STR    C0M22773   8.268   6.700   1.389
    1STR    C0N22774   8.401   6.805   1.578
    1STR    O0O22775   8.527   6.784   1.638
    1STR    C0P22776   8.581   6.865   1.728
    1STR    O0Q22777   8.678   6.827   1.792
    1STR    N0R22778   8.528   6.988   1.733
    1STR    C0S22779   8.558   7.094   1.818
    1STR    C0T22780   8.487   7.214   1.801
    1STR    C0U22781   8.503   7.320   1.893
    1STR    C0V22782   8.586   7.302   2.004
    1STR    C0W22783   8.602   7.410   2.107
    1STR    C0X22784   8.658   7.183   2.020
    1STR    N0Y22785   8.732   7.173   2.137
    1STR   BCK222786   8.806   7.078   2.189
    1STR    O1022787   8.828   6.969   2.140
    1STR    C1322788   8.650   7.083   1.924
    1STR    C1422789   7.398   7.768   1.913
    1STR    C1522790   7.349   7.645   1.867
    1STR    C1622791   7.291   7.550   1.953
    1STR    C1722792   7.244   7.413   1.905
    1STR    H1B22793   7.143   7.440   2.116
    1STR    H1C22794   7.349   7.708   2.245
    1STR    H1D22795   7.462   7.913   2.203
    1STR    H1E22796   7.838   7.853   2.118
    1STR    H1F22797   7.777   7.859   2.415
    1STR    H1G22798   7.932   7.847   2.334
    1STR    H1H22799   7.848   7.998   2.330
    1STR    H1I22800   7.591   7.710   2.214
    1STR    H1J22801   7.732   7.641   2.271
    1STR    H1K22802   7.540   7.564   2.031
    1STR    H1M22803   7.777   7.555   1.842
    1STR    H1N22804   7.623   7.633   1.816
    1STR    H1O22805   7.636   7.456   1.820
    1STR    H1P22806   7.700   7.338   2.004
    1STR    H1Q22807   7.775   7.424   2.131
    1STR   C01022808   7.610   7.265   2.240
    1STR   H01122809   7.715   7.245   2.224
    1STR   C01222810   7.588   7.299   2.387
    1STR   H01322811   7.487   7.293   2.418
    1STR   H01422812   7.623   7.400   2.408
    1STR   H01522813   7.640   7.228   2.450
    1STR   C01622814   7.548   7.133   2.197
    1STR   H01722815   7.546   7.068   2.281
    1STR   H01822816   7.447   7.136   2.164
    1STR   O01922817   7.632   7.078   2.099
    1STR   C02022818   7.580   7.068   1.969
    1STR   H02122819   7.517   6.980   1.969
    1STR   C02222820   7.493   7.187   1.925
    1STR   H02322821   7.399   7.146   1.891
    1STR   H02422822   7.540   7.247   1.847
    1STR   H02522823   7.464   7.259   1.999
    1STR   C02622824   7.704   7.043   1.881
    1STR   H02722825   7.732   7.133   1.827
    1STR   H02822826   7.789   7.017   1.943
    1STR   O02922827   7.670   6.938   1.793
    1STR   C03022828   7.769   6.878   1.712
    1STR   H03122829   7.850   6.854   1.777
    1STR   C03222830   7.694   6.755   1.665
    1STR   H03322831   7.606   6.786   1.613
    1STR   H03422832   7.653   6.699   1.748
    1STR   H03522833   7.749   6.691   1.597
    1STR   C03622834   7.833   6.954   1.595
    1STR   H03722835   7.939   6.927   1.594
    1STR   H03822836   7.795   6.916   1.500
    1STR   O03922837   7.819   7.095   1.601
    1STR   C04022838   7.895   7.163   1.502
    1STR   H04122839   7.993   7.117   1.492
    1STR   C04222840   7.824   7.161   1.366
    1STR   H04322841   7.735   7.223   1.368
    1STR   H04422842   7.795   7.061   1.334
    1STR   H04522843   7.889   7.201   1.288
    1STR   C04622844   7.916   7.306   1.551
    1STR   H04722845   7.958   7.366   1.470
    1STR   H04822846   7.822   7.353   1.578
    1STR   O04922847   8.012   7.306   1.655
    1STR   C05022848   7.959   7.313   1.786
    1STR   H05122849   7.851   7.323   1.788
    1STR   C05222850   8.000   7.185   1.858
    1STR   H05322851   7.959   7.097   1.808
    1STR   H05422852   7.960   7.185   1.959
    1STR   H05522853   8.107   7.170   1.861
    1STR   C05622854   8.021   7.441   1.844
    1STR   H05722855   8.129   7.429   1.849
    1STR   H05822856   8.001   7.521   1.774
    1STR   O05922857   7.967   7.475   1.970
    1STR   C06022858   8.023   7.592   2.029
    1STR   H06122859   8.130   7.584   2.013
    1STR   C06222860   7.992   7.722   1.951
    1STR   H06322861   7.886   7.737   1.930
    1STR   H06422862   8.041   7.724   1.854
    1STR   H06522863   8.028   7.810   2.005
    1STR   C06622864   8.011   7.600   2.184
    1STR   H06722865   8.100   7.548   2.211
    1STR   H06822866   8.021   7.702   2.218
    1STR   O06922867   7.917   7.527   2.265
    1STR   C07022868   7.956   7.500   2.402
    1STR   H07122869   8.062   7.479   2.407
    1STR   C07222870   7.923   7.616   2.498
    1STR   H07322871   7.818   7.642   2.493
    1STR   H07422872   7.983   7.704   2.478
    1STR   H07522873   7.945   7.587   2.600
    1STR   C07622874   7.895   7.373   2.463
    1STR   H07722875   7.965   7.338   2.539
    1STR   H07822876   7.804   7.398   2.517
    1STR   O07922877   7.865   7.267   2.372
    1STR   C08022878   7.887   7.132   2.414
    1STR   H08122879   7.994   7.133   2.422
    1STR   C08222880   7.835   7.110   2.558
    1STR   H08322881   7.804   7.201   2.606
    1STR   H08422882   7.907   7.067   2.627
    1STR   H08522883   7.749   7.045   2.559
    1STR   C08622884   7.830   7.012   2.324
    1STR   H08722885   7.850   6.930   2.389
    1STR   H08822886   7.725   7.013   2.331
    1STR   O08922887   7.865   6.970   2.187
    1STR   C09022888   7.889   6.826   2.157
    1STR   H09122889   7.991   6.810   2.188
    1STR   C09222890   7.800   6.728   2.229
    1STR   H09322891   7.702   6.729   2.186
    1STR   H09422892   7.789   6.746   2.333
    1STR   H09522893   7.835   6.626   2.221
    1STR   C09622894   7.875   6.776   2.010
    1STR   H09722895   7.775   6.799   1.975
    1STR   H09822896   7.948   6.832   1.952
    1STR   O09922897   7.893   6.631   1.993
    1STR   C10022898   7.863   6.556   1.871
    1STR   H10122899   7.757   6.571   1.858
    1STR   C10222900   7.942   6.589   1.741
    1STR   H10322901   8.042   6.546   1.743
    1STR   H10422902   7.958   6.694   1.721
    1STR   H10522903   7.894   6.543   1.654
    1STR   C10622904   7.878   6.401   1.884
    1STR   H10722905   7.785   6.352   1.858
    1STR   H10822906   7.951   6.362   1.813
    1STR   O10922907   7.915   6.361   2.014
    1STR   C11022908   8.012   6.258   2.031
    1STR   H11122909   8.015   6.242   2.139
    1STR   C11222910   7.961   6.131   1.967
    1STR   H11322911   7.964   6.135   1.858
    1STR   H11422912   7.857   6.124   1.998
    1STR   H11522913   8.015   6.043   2.001
    1STR   C11622914   8.155   6.296   1.990
    1STR   H11722915   8.226   6.284   2.073
    1STR   H11822916   8.191   6.231   1.910
    1STR   O11922917   8.157   6.428   1.940
    1STR   C12022918   8.184   6.530   2.034
    1STR   H12122919   8.285   6.516   2.064
    1STR   C12222920   8.177   6.660   1.952
    1STR   H12322921   8.087   6.678   1.901
    1STR   H12422922   8.248   6.659   1.870
    1STR   H12522923   8.184   6.749   2.011
    1STR   C12622924   8.105   6.529   2.168
    1STR   H12722925   8.085   6.629   2.197
    1STR   H12822926   8.005   6.495   2.158
    1STR   O12922927   8.173   6.460   2.274
    1STR   C13022928   8.094   6.426   2.386
    1STR   H13122929   8.017   6.373   2.334
    1STR   C13222930   8.133   6.301   2.467
    1STR   H13322931   8.192   6.320   2.555
    1STR   H13422932   8.186   6.230   2.404
    1STR   H13522933   8.044   6.252   2.506
    1STR   C13622934   8.027   6.542   2.464
    1STR   H13722935   7.944   6.571   2.401
    1STR   H13822936   7.988   6.505   2.558
    1STR   O13922937   8.098   6.660   2.496
    1STR   C14022938   8.024   6.779   2.511
    1STR   H14122939   7.960   6.774   2.427
    1STR   C14222940   7.941   6.784   2.639
    1STR   H14322941   7.919   6.685   2.679
    1STR   H14422942   7.847   6.835   2.619
    1STR   H14522943   7.991   6.840   2.718
    1STR   C14622944   8.106   6.906   2.489
    1STR   H14722945   8.075   6.985   2.556
    1STR   H14822946   8.210   6.895   2.518
    1STR   O14922947   8.087   6.949   2.354
    1STR   C15022948   8.204   6.967   2.280
    1STR   H15122949   8.258   7.036   2.342
    1STR   C15222950   8.252   6.825   2.276
    1STR   H15322951   8.279   6.796   2.177
    1STR   H15422952   8.182   6.753   2.308
    1STR   H15522953   8.336   6.810   2.341
    1STR   C15622954   8.205   7.029   2.139
    1STR   H15722955   8.271   6.975   2.072
    1STR   H15822956   8.108   7.027   2.088
    1STR   O15922957   8.273   7.154   2.150
    1STR   C16022958   8.201   7.272   2.124
    1STR   H16122959   8.191   7.283   2.017
    1STR   C16222960   8.067   7.267   2.192
    1STR   H16322961   8.007   7.178   2.177
    1STR   H16422962   8.001   7.345   2.159
    1STR   H16522963   8.084   7.276   2.298
    1STR   C16622964   8.286   7.387   2.178
    1STR   H16722965   8.385   7.349   2.166
    1STR   H16822966   8.279   7.476   2.115
    1STR   O16922967   8.270   7.416   2.316
    1STR   C17022968   8.339   7.530   2.366
    1STR   H17122969   8.438   7.532   2.321
    1STR   C17222970   8.268   7.664   2.340
    1STR   H17322971   8.168   7.662   2.378
    1STR   H17422972   8.269   7.692   2.235
    1STR   H17522973   8.307   7.746   2.397
    1STR   C17622974   8.357   7.514   2.517
    1STR   H17722975   8.422   7.429   2.537
    1STR   H17822976   8.405   7.603   2.555
    1STR   O17922977   8.235   7.501   2.588
    1STR   C18022978   8.253   7.519   2.728
    1STR   H18122979   8.354   7.493   2.761
    1STR   C18222980   8.226   7.668   2.757
    1STR   H18322981   8.126   7.697   2.724
    1STR   H18422982   8.297   7.733   2.706
    1STR   H18522983   8.233   7.690   2.864
    1STR   C18622984   8.154   7.428   2.800
    1STR   H18722985   8.115   7.478   2.888
    1STR   H18822986   8.071   7.410   2.733
    1STR   O18922987   8.212   7.306   2.846
    1STR   C19022988   8.176   7.187   2.774
    1STR   H19122989   8.069   7.171   2.774
    1STR   C19222990   8.228   7.200   2.631
    1STR   H19322991   8.317   7.261   2.634
    1STR   H19422992   8.159   7.249   2.563
    1STR   H19522993   8.257   7.105   2.587
    1STR   C19622994   8.242   7.070   2.850
    1STR   H19722995   8.347   7.071   2.824
    1STR   H19822996   8.238   7.090   2.957
    1STR   O19922997   8.184   6.942   2.824
    1STR   C20022998   8.268   6.832   2.860
    1STR   H20122999   8.364   6.852   2.815
    1STR   C20223000   8.279   6.820   3.013
    1STR   H20323001   8.181   6.810   3.057
    1STR   H20423002   8.327   6.908   3.057
    1STR   H20523003   8.338   6.733   3.040
    1STR   C20623004   8.222   6.699   2.797
    1STR   H20723005   8.139   6.653   2.852
    1STR   H20823006   8.181   6.726   2.702
    1STR   O20923007   8.328   6.603   2.777
    1STR   C21023008   8.327   6.542   2.647
    1STR   H21123009   8.225   6.507   2.635
    1STR   C21223010   8.358   6.639   2.533
    1STR   H21323011   8.461   6.640   2.502
    1STR   H21423012   8.327   6.739   2.551
    1STR   H21523013   8.308   6.604   2.444
    1STR   C21623014   8.422   6.424   2.621
    1STR   H21723015   8.525   6.449   2.643
    1STR   H21823016   8.395   6.341   2.686
    1STR   O21923017   8.401   6.385   2.484
    1STR   C22023018   8.503   6.407   2.387
    1STR   H22123019   8.582   6.463   2.434
    1STR   C22223020   8.543   6.262   2.358
    1STR   H22323021   8.456   6.205   2.324
    1STR   H22423022   8.581   6.214   2.448
    1STR   H22523023   8.618   6.254   2.281
    1STR   C22623024   8.464   6.483   2.255
    1STR   H22723025   8.540   6.464   2.183
    1STR   H22823026   8.383   6.427   2.213
    1STR   O22923027   8.440   6.627   2.257
    1STR   C23023028   8.497   6.713   2.154
    1STR   H23123029   8.586   6.661   2.154
    1STR   C23223030   8.454   6.709   2.008
    1STR   H23323031   8.430   6.611   1.971
    1STR   H23423032   8.539   6.732   1.947
    1STR   H23523033   8.386   6.789   1.982
    1STR   C23623034   8.554   6.856   2.174
    1STR   H23723035   8.654   6.840   2.208
    1STR   H23823036   8.576   6.897   2.077
    1STR   O23923037   8.484   6.968   2.232
    1STR   C24023038   8.501   7.001   2.370
    1STR   H24123039   8.419   6.970   2.433
    1STR   C24223040   8.609   6.920   2.427
    1STR   H24323041   8.700   6.931   2.374
    1STR   H24423042   8.579   6.816   2.424
    1STR   H24523043   8.628   6.948   2.527
    1STR   C24623044   8.511   7.153   2.391
    1STR   H24723045   8.599   7.196   2.347
    1STR   H24823046   8.426   7.199   2.343
    1STR   O24923047   8.502   7.184   2.529
    1STR   C25023048   8.623   7.190   2.602
    1STR   H25123049   8.703   7.139   2.551
    1STR   C25223050   8.664   7.336   2.615
    1STR   H25323051   8.593   7.391   2.676
    1STR   H25423052   8.669   7.382   2.516
    1STR   H25523053   8.762   7.346   2.661
    1STR   C25623054   8.601   7.121   2.737
    1STR   H25723055   8.698   7.110   2.780
    1STR   H25823056   8.542   7.184   2.803
    1STR   O25923057   8.545   6.991   2.732
    1STR   C26023058   8.633   6.883   2.764
    1STR   H26123059   8.731   6.907   2.724
    1STR   C26223060   8.627   6.866   2.915
    1STR   H26323061   8.528   6.846   2.951
    1STR   H26423062   8.661   6.954   2.970
    1STR   H26523063   8.686   6.780   2.942
    1STR   C26623064   8.580   6.757   2.696
    1STR   H26723065   8.526   6.701   2.771
    1STR   H26823066   8.506   6.798   2.629
    1STR   O26923067   8.655   6.655   2.628
    1STR   C27023068   8.766   6.689   2.548
    1STR   H27123069   8.772   6.789   2.520
    1STR   C27223070   8.870   6.676   2.653
    1STR   H27323071   8.856   6.588   2.713
    1STR   H27423072   8.865   6.756   2.723
    1STR   H27523073   8.965   6.675   2.604
    1STR   C27623074   8.799   6.605   2.421
    1STR   H27723075   8.906   6.606   2.407
    1STR   H27823076   8.771   6.504   2.443
    1STR   O27923077   8.751   6.642   2.291
    1STR   C28023078   8.818   6.582   2.176
    1STR   H28123079   8.919   6.621   2.182
    1STR   C28223080   8.814   6.430   2.181
    1STR   H28323081   8.720   6.386   2.153
    1STR   H28423082   8.833   6.389   2.279
    1STR   H28523083   8.884   6.391   2.110
    1STR   C28623084   8.774   6.618   2.031
    1STR   H28723085   8.749   6.724   2.026
    1STR   H28823086   8.856   6.616   1.962
    1STR   O28923087   8.661   6.536   1.993
    1STR   C29023088   8.653   6.443   1.886
    1STR   H29123089   8.735   6.372   1.888
    1STR   C29223090   8.528   6.356   1.909
    1STR   H29323091   8.435   6.410   1.893
    1STR   H29423092   8.525   6.314   2.010
    1STR   H29523093   8.527   6.272   1.839
    1STR   C29623094   8.636   6.515   1.753
    1STR   H29723095   8.542   6.569   1.752
    1STR   H29823096   8.714   6.589   1.738
    1STR   O29923097   8.641   6.416   1.653
    1STR   C30023098   8.608   6.460   1.523
    1STR   H30123099   8.649   6.560   1.506
    1STR   C30223100   8.682   6.360   1.433
    1STR   H30323101   8.646   6.258   1.451
    1STR   H30423102   8.789   6.361   1.454
    1STR   H30523103   8.669   6.381   1.327
    1STR   C30623104   8.455   6.457   1.499
    1STR   H30723105   8.432   6.450   1.393
    1STR   H30823106   8.415   6.367   1.544
    1STR   O30923107   8.386   6.568   1.556
    1STR    H1R23108   8.480   6.691   1.419
    1STR    H1S23109   8.266   6.618   1.317
    1STR    H1T23110   8.271   6.793   1.332
    1STR    H1U23111   8.176   6.697   1.446
    1STR    H1V23112   8.323   6.802   1.655
    1STR    H1W23113   8.398   6.900   1.526
    1STR    H1X23114   8.461   7.009   1.662
    1STR    H1Y23115   8.419   7.228   1.718
    1STR    H1Z23116   8.449   7.412   1.879
    1STR    H2023117   8.580   7.378   2.209
    1STR    H2123118   8.707   7.434   2.109
    1STR    H2223119   8.544   7.499   2.084
    1STR    H2323120   8.721   7.252   2.197
    1STR    H2723121   8.711   6.996   1.937
    1STR    H2823122   7.439   7.837   1.842
    1STR    H2923123   7.359   7.632   1.763
    1STR    H2A23124   7.321   7.370   1.845
    1STR    H2B23125   7.149   7.414   1.853
    1STR    H2C23126   7.235   7.337   1.981
    1STR   BCK123127   7.340   6.881   4.531
    1STR    O0323128   7.228   6.927   4.524
    1STR    N0423129   7.433   6.918   4.618
    1STR    C0523130   7.409   6.971   4.742
    1STR    C0623131   7.405   6.881   4.848
    1STR    C0723132   7.350   6.917   4.971
    1STR    N0823133   7.303   6.819   5.057
    1STR    C0923134   7.339   6.691   5.062
    1STR    O0A23135   7.262   6.606   5.103
    1STR    O0B23136   7.466   6.670   5.030
    1STR    C0C23137   7.535   6.551   5.064
    1STR    C0D23138   7.514   6.505   5.210
    1STR    C0E23139   7.531   6.439   4.959
    1STR    O0F23140   7.637   6.435   4.863
    1STR    C0G23141   7.614   6.491   4.735
    1STR    C0H23142   7.608   6.641   4.740
    1STR    C0I23143   7.721   6.439   4.636
    1STR    O0J23144   7.704   6.499   4.508
    1STR    C0K23145   8.659   7.091   4.720
    1STR    C0M23146   8.579   6.978   4.655
    1STR    C0N23147   8.649   7.207   4.628
    1STR    O0O23148   8.748   7.298   4.656
    1STR    C0P23149   8.732   7.426   4.645
    1STR    O0Q23150   8.658   7.482   4.566
    1STR    N0R23151   8.809   7.487   4.735
    1STR    C0S23152   8.874   7.423   4.840
    1STR    C0T23153   8.847   7.463   4.970
    1STR    C0U23154   8.907   7.399   5.079
    1STR    C0V23155   8.984   7.285   5.055
    1STR    C0W23156   9.052   7.221   5.163
    1STR    C0X23157   8.995   7.229   4.930
    1STR    N0Y23158   9.045   7.104   4.898
    1STR   BCK223159   9.066   6.981   4.944
    1STR    O1023160   9.079   6.902   4.855
    1STR    C1323161   8.946   7.304   4.824
    1STR    C1423162   7.329   7.053   4.996
    1STR    C1523163   7.335   7.145   4.892
    1STR    C1623164   7.368   7.102   4.763
    1STR    C1723165   7.372   7.199   4.652
    1STR    H1B23166   7.526   6.885   4.600
    1STR    H1C23167   7.420   6.778   4.827
    1STR    H1D23168   7.238   6.845   5.130
    1STR    H1E23169   7.635   6.585   5.059
    1STR    H1F23170   7.413   6.474   5.232
    1STR    H1G23171   7.579   6.422   5.236
    1STR    H1H23172   7.539   6.587   5.278
    1STR    H1I23173   7.432   6.421   4.921
    1STR    H1J23174   7.559   6.352   5.016
    1STR    H1K23175   7.516   6.461   4.704
    1STR    H1M23176   7.590   6.674   4.840
    1STR    H1N23177   7.530   6.678   4.675
    1STR    H1O23178   7.698   6.690   4.711
    1STR    H1P23179   7.820   6.460   4.675
    1STR    H1Q23180   7.714   6.331   4.627
    1STR   C01023181   7.814   6.489   4.417
    1STR   H01123182   7.907   6.505   4.469
    1STR   C01223183   7.816   6.347   4.360
    1STR   H01323184   7.723   6.325   4.309
    1STR   H01423185   7.830   6.272   4.438
    1STR   H01523186   7.897   6.335   4.288
    1STR   C01623187   7.804   6.594   4.303
    1STR   H01723188   7.869   6.563   4.221
    1STR   H01823189   7.703   6.594   4.262
    1STR   O01923190   7.850   6.726   4.337
    1STR   C02023191   7.746   6.823   4.343
    1STR   H02123192   7.680   6.810   4.260
    1STR   C02223193   7.680   6.805   4.473
    1STR   H02323194   7.748   6.822   4.555
    1STR   H02423195   7.632   6.709   4.481
    1STR   H02523196   7.605   6.882   4.472
    1STR   C02623197   7.794   6.968   4.348
    1STR   H02723198   7.875   6.958   4.418
    1STR   H02823199   7.830   6.998   4.250
    1STR   O02923200   7.708   7.070   4.403
    1STR   C03023201   7.777   7.194   4.419
    1STR   H03123202   7.879   7.164   4.420
    1STR   C03223203   7.766   7.291   4.301
    1STR   H03323204   7.680   7.356   4.307
    1STR   H03423205   7.766   7.240   4.205
    1STR   H03523206   7.851   7.357   4.300
    1STR   C03623207   7.772   7.267   4.553
    1STR   H03723208   7.868   7.254   4.602
    1STR   H03823209   7.778   7.372   4.529
    1STR   O03923210   7.665   7.237   4.645
    1STR   C04023211   7.686   7.294   4.776
    1STR   H04123212   7.785   7.274   4.800
    1STR   C04223213   7.684   7.438   4.757
    1STR   H04323214   7.598   7.457   4.694
    1STR   H04423215   7.772   7.473   4.705
    1STR   H04523216   7.679   7.488   4.852
    1STR   C04623217   7.608   7.249   4.903
    1STR   H04723218   7.525   7.315   4.924
    1STR   H04823219   7.570   7.153   4.882
    1STR   O04923220   7.688   7.228   5.021
    1STR   C05023221   7.634   7.156   5.134
    1STR   H05123222   7.543   7.207   5.167
    1STR   C05223223   7.601   7.011   5.105
    1STR   H05323224   7.590   6.989   5.000
    1STR   H05423225   7.511   6.987   5.160
    1STR   H05523226   7.673   6.939   5.143
    1STR   C05623227   7.737   7.148   5.248
    1STR   H05723228   7.830   7.120   5.203
    1STR   H05823229   7.755   7.245   5.293
    1STR   O05923230   7.698   7.055   5.351
    1STR   C06023231   7.796   6.960   5.393
    1STR   H06123232   7.839   6.912   5.305
    1STR   C06223233   7.904   7.034   5.472
    1STR   H06323234   7.860   7.083   5.559
    1STR   H06423235   7.952   7.111   5.411
    1STR   H06523236   7.981   6.966   5.506
    1STR   C06623237   7.729   6.851   5.482
    1STR   H06723238   7.787   6.832   5.572
    1STR   H06823239   7.634   6.889   5.517
    1STR   O06923240   7.710   6.725   5.416
    1STR   C07023241   7.828   6.648   5.398
    1STR   H07123242   7.916   6.709   5.417
    1STR   C07223243   7.826   6.528   5.491
    1STR   H07323244   7.744   6.462   5.464
    1STR   H07423245   7.814   6.559   5.595
    1STR   H07523246   7.918   6.469   5.483
    1STR   C07623247   7.835   6.599   5.253
    1STR   H07723248   7.936   6.569   5.229
    1STR   H07823249   7.775   6.511   5.236
    1STR   O07923250   7.791   6.702   5.169
    1STR   C08023251   7.852   6.700   5.041
    1STR   H08123252   7.953   6.712   5.062
    1STR   C08223253   7.868   6.566   4.967
    1STR   H08323254   7.828   6.573   4.867
    1STR   H08423255   7.823   6.480   5.016
    1STR   H08523256   7.973   6.541   4.952
    1STR   C08623257   7.809   6.820   4.956
    1STR   H08723258   7.856   6.794   4.864
    1STR   H08823259   7.702   6.819   4.939
    1STR   O08923260   7.852   6.953   4.996
    1STR   C09023261   7.889   7.046   4.892
    1STR   H09123262   7.979   7.009   4.850
    1STR   C09223263   7.796   7.022   4.770
    1STR   H09323264   7.792   6.922   4.730
    1STR   H09423265   7.829   7.075   4.684
    1STR   H09523266   7.691   7.036   4.787
    1STR   C09623267   7.961   7.186   4.922
    1STR   H09723268   8.065   7.166   4.930
    1STR   H09823269   7.971   7.249   4.834
    1STR   O09923270   7.943   7.262   5.043
    1STR   C10023271   7.923   7.405   5.031
    1STR   H10123272   7.857   7.424   4.947
    1STR   C10223273   7.849   7.451   5.157
    1STR   H10323274   7.900   7.417   5.247
    1STR   H10423275   7.747   7.415   5.158
    1STR   H10523276   7.841   7.560   5.162
    1STR   C10623277   8.052   7.489   5.015
    1STR   H10723278   8.052   7.574   5.083
    1STR   H10823279   8.136   7.430   5.050
    1STR   O10923280   8.078   7.539   4.883
    1STR   C11023281   7.992   7.637   4.824
    1STR   H11123282   7.896   7.593   4.804
    1STR   C11223283   7.965   7.756   4.918
    1STR   H11323284   8.058   7.801   4.952
    1STR   H11423285   7.906   7.726   5.004
    1STR   H11523286   7.907   7.833   4.867
    1STR   C11623287   8.052   7.686   4.690
    1STR   H11723288   7.999   7.776   4.658
    1STR   H11823289   8.156   7.714   4.706
    1STR   O11923290   8.044   7.591   4.583
    1STR   C12023291   8.087   7.640   4.455
    1STR   H12123292   8.039   7.736   4.433
    1STR   C12223293   8.239   7.660   4.452
    1STR   H12323294   8.270   7.745   4.513
    1STR   H12423295   8.275   7.678   4.351
    1STR   H12523296   8.292   7.573   4.490
    1STR   C12623297   8.037   7.540   4.348
    1STR   H12723298   8.043   7.441   4.389
    1STR   H12823299   7.932   7.560   4.333
    1STR   O12923300   8.104   7.547   4.222
    1STR   C13023301   8.040   7.478   4.114
    1STR   H13123302   7.933   7.470   4.131
    1STR   C13223303   8.057   7.570   3.993
    1STR   H13323304   8.163   7.584   3.969
    1STR   H13423305   8.014   7.668   4.012
    1STR   H13523306   8.007   7.528   3.905
    1STR   C13623307   8.097   7.337   4.084
    1STR   H13723308   8.142   7.336   3.985
    1STR   H13823309   8.177   7.311   4.152
    1STR   O13923310   7.991   7.242   4.090
    1STR   C14023311   8.020   7.104   4.062
    1STR   H14123312   7.925   7.053   4.057
    1STR   C14223313   8.091   7.090   3.927
    1STR   H14323314   8.045   7.153   3.851
    1STR   H14423315   8.086   6.986   3.892
    1STR   H14523316   8.196   7.116   3.933
    1STR   C14623317   8.103   7.029   4.167
    1STR   H14723318   8.116   6.930   4.124
    1STR   H14823319   8.199   7.078   4.172
    1STR   O14923320   8.054   7.001   4.298
    1STR   C15023321   8.128   7.053   4.408
    1STR   H15123322   8.230   7.029   4.389
    1STR   C15223323   8.112   7.203   4.398
    1STR   H15323324   8.037   7.233   4.326
    1STR   H15423325   8.199   7.246   4.353
    1STR   H15523326   8.092   7.250   4.494
    1STR   C15623327   8.097   7.002   4.552
    1STR   H15723328   8.154   7.062   4.621
    1STR   H15823329   7.994   7.025   4.574
    1STR   O15923330   8.130   6.866   4.584
    1STR   C16023331   8.066   6.807   4.697
    1STR   H16123332   7.987   6.873   4.717
    1STR   C16223333   7.989   6.688   4.648
    1STR   H16323334   7.982   6.692   4.540
    1STR   H16423335   7.888   6.692   4.682
    1STR   H16523336   8.026   6.592   4.684
    1STR   C16623337   8.146   6.781   4.830
    1STR   H16723338   8.155   6.675   4.852
    1STR   H16823339   8.247   6.816   4.813
    1STR   O16923340   8.079   6.843   4.942
    1STR   C17023341   8.133   6.867   5.074
    1STR   H17123342   8.225   6.884   5.033
    1STR   C17223343   8.092   6.995   5.148
    1STR   H17323344   7.987   6.998   5.168
    1STR   H17423345   8.122   7.086   5.099
    1STR   H17523346   8.138   7.004   5.247
    1STR   C17623347   8.142   6.760   5.185
    1STR   H17723348   8.205   6.799   5.264
    1STR   H17823349   8.048   6.752   5.237
    1STR   O17923350   8.189   6.635   5.139
    1STR   C18023351   8.239   6.541   5.235
    1STR   H18123352   8.340   6.520   5.202
    1STR   C18223353   8.251   6.590   5.382
    1STR   H18323354   8.155   6.623   5.422
    1STR   H18423355   8.322   6.672   5.391
    1STR   H18523356   8.287   6.510   5.447
    1STR   C18623357   8.155   6.412   5.223
    1STR   H18723358   8.210   6.330   5.270
    1STR   H18823359   8.066   6.419   5.285
    1STR   O18923360   8.113   6.379   5.089
    1STR   C19023361   8.218   6.355   4.995
    1STR   H19123362   8.272   6.450   4.991
    1STR   C19223363   8.307   6.242   5.051
    1STR   H19323364   8.372   6.197   4.975
    1STR   H19423365   8.247   6.162   5.093
    1STR   H19523366   8.375   6.279   5.128
    1STR   C19623367   8.170   6.324   4.849
    1STR   H19723368   8.220   6.234   4.814
    1STR   H19823369   8.063   6.304   4.849
    1STR   O19923370   8.199   6.430   4.754
    1STR   C20023371   8.226   6.400   4.615
    1STR   H20123372   8.323   6.351   4.607
    1STR   C20223373   8.120   6.305   4.560
    1STR   H20323374   8.020   6.342   4.580
    1STR   H20423375   8.128   6.205   4.604
    1STR   H20523376   8.131   6.293   4.452
    1STR   C20623377   8.226   6.536   4.536
    1STR   H20723378   8.126   6.547   4.496
    1STR   H20823379   8.241   6.614   4.611
    1STR   O20923380   8.309   6.570   4.423
    1STR   C21023381   8.291   6.710   4.386
    1STR   H21123382   8.187   6.736   4.403
    1STR   C21223383   8.376   6.802   4.475
    1STR   H21323384   8.351   6.796   4.581
    1STR   H21423385   8.366   6.906   4.453
    1STR   H21523386   8.481   6.788   4.466
    1STR   C21623387   8.305   6.744   4.235
    1STR   H21723388   8.374   6.681   4.180
    1STR   H21823389   8.210   6.717   4.190
    1STR   O21923390   8.319   6.886   4.211
    1STR   C22023391   8.444   6.953   4.195
    1STR   H22123392   8.505   6.919   4.276
    1STR   C22223393   8.492   6.920   4.053
    1STR   H22323394   8.424   6.962   3.979
    1STR   H22423395   8.495   6.812   4.035
    1STR   H22523396   8.591   6.961   4.034
    1STR   C22623397   8.448   7.108   4.216
    1STR   H22723398   8.551   7.138   4.203
    1STR   H22823399   8.391   7.160   4.140
    1STR   O22923400   8.410   7.151   4.346
    1STR   C23023401   8.442   7.283   4.390
    1STR   H23123402   8.550   7.289   4.399
    1STR   C23223403   8.414   7.395   4.289
    1STR   H23323404   8.309   7.421   4.283
    1STR   H23423405   8.448   7.371   4.189
    1STR   H23523406   8.466   7.486   4.319
    1STR   C23623407   8.372   7.313   4.527
    1STR   H23723408   8.426   7.392   4.578
    1STR   H23823409   8.276   7.360   4.511
    1STR   O23923410   8.349   7.197   4.614
    1STR   C24023411   8.334   7.221   4.756
    1STR   H24123412   8.421   7.270   4.796
    1STR   C24223413   8.227   7.328   4.768
    1STR   H24323414   8.137   7.303   4.712
    1STR   H24423415   8.260   7.426   4.736
    1STR   H24523416   8.202   7.338   4.873
    1STR   C24623417   8.302   7.102   4.856
    1STR   H24723418   8.290   7.148   4.953
    1STR   H24823419   8.206   7.059   4.828
    1STR   O24923420   8.383   6.984   4.870
    1STR   C25023421   8.439   6.932   4.994
    1STR   H25123422   8.535   6.975   4.993
    1STR   C25223423   8.397   6.986   5.136
    1STR   H25323424   8.359   6.906   5.199
    1STR   H25423425   8.331   7.071   5.136
    1STR   H25523426   8.475   7.020   5.201
    1STR   C25623427   8.448   6.772   4.990
    1STR   H25723428   8.502   6.729   5.074
    1STR   H25823429   8.350   6.727   4.999
    1STR   O25923430   8.505   6.717   4.873
    1STR   C26023431   8.464   6.586   4.833
    1STR   H26123432   8.356   6.585   4.833
    1STR   C26223433   8.512   6.572   4.691
    1STR   H26323434   8.496   6.663   4.637
    1STR   H26423435   8.467   6.492   4.636
    1STR   H26523436   8.618   6.552   4.687
    1STR   C26623437   8.520   6.461   4.904
    1STR   H26723438   8.445   6.385   4.903
    1STR   H26823439   8.589   6.406   4.839
    1STR   O26923440   8.574   6.480   5.033
    1STR   C27023441   8.712   6.442   5.043
    1STR   H27123442   8.746   6.481   5.139
    1STR   C27223443   8.724   6.290   5.048
    1STR   H27323444   8.694   6.242   4.955
    1STR   H27423445   8.661   6.250   5.127
    1STR   H27523446   8.827   6.259   5.070
    1STR   C27623447   8.797   6.513   4.934
    1STR   H27723448   8.902   6.499   4.949
    1STR   H27823449   8.779   6.480   4.832
    1STR   O27923450   8.758   6.646   4.952
    1STR   C28023451   8.820   6.748   4.878
    1STR   H28123452   8.926   6.733   4.878
    1STR   C28223453   8.782   6.747   4.732
    1STR   H28323454   8.676   6.750   4.720
    1STR   H28423455   8.817   6.657   4.682
    1STR   H28523456   8.818   6.836   4.683
    1STR   C28623457   8.776   6.873   4.954
    1STR   H28723458   8.818   6.967   4.920
    1STR   H28823459   8.675   6.875   4.922
    1STR   O28923460   8.795   6.856   5.095
    1STR   C29023461   8.708   6.903   5.195
    1STR   H29123462   8.612   6.880   5.157
    1STR   C29223463   8.716   6.809   5.315
    1STR   H29323464   8.809   6.821   5.370
    1STR   H29423465   8.709   6.706   5.281
    1STR   H29523466   8.634   6.827   5.384
    1STR   C29623467   8.723   7.052   5.236
    1STR   H29723468   8.647   7.085   5.306
    1STR   H29823469   8.816   7.058   5.292
    1STR   O29923470   8.735   7.143   5.127
    1STR   C30023471   8.623   7.213   5.073
    1STR   H30123472   8.531   7.162   5.072
    1STR   C30223473   8.586   7.341   5.149
    1STR   H30323474   8.666   7.413   5.156
    1STR   H30423475   8.556   7.317   5.251
    1STR   H30523476   8.502   7.391   5.100
    1STR   C30623477   8.652   7.227   4.923
    1STR   H30723478   8.627   7.325   4.884
    1STR   H30823479   8.755   7.207   4.915
    1STR   O30923480   8.598   7.123   4.844
    1STR    H1R23481   8.762   7.061   4.733
    1STR    H1S23482   8.632   6.931   4.573
    1STR    H1T23483   8.485   7.013   4.615
    1STR    H1U23484   8.550   6.904   4.727
    1STR    H1V23485   8.562   7.260   4.651
    1STR    H1W23486   8.646   7.172   4.526
    1STR    H1X23487   8.814   7.589   4.730
    1STR    H1Y23488   8.775   7.541   4.984
    1STR    H1Z23489   8.892   7.434   5.180
    1STR    H2023490   9.140   7.167   5.133
    1STR    H2123491   9.086   7.303   5.221
    1STR    H2223492   8.980   7.156   5.210
    1STR    H2323493   9.080   7.104   4.803
    1STR    H2723494   8.953   7.257   4.729
    1STR    H2823495   7.306   7.092   5.093
    1STR    H2923496   7.321   7.249   4.912
    1STR    H2A23497   7.453   7.165   4.590
    1STR    H2B23498   7.398   7.298   4.688
    1STR    H2C23499   7.278   7.197   4.599
    1STR   BCK123500   7.401   7.318   7.011
    1STR    O0323501   7.408   7.438   6.991
    1STR    N0423502   7.401   7.230   6.913
    1STR    C0523503   7.449   7.236   6.784
    1STR    C0623504   7.531   7.339   6.730
    1STR    C0723505   7.579   7.328   6.598
    1STR    N0823506   7.667   7.409   6.531
    1STR    C0923507   7.759   7.497   6.565
    1STR    O0A23508   7.839   7.527   6.479
    1STR    O0B23509   7.752   7.543   6.689
    1STR    C0C23510   7.847   7.639   6.735
    1STR    C0D23511   7.848   7.760   6.642
    1STR    C0E23512   7.807   7.686   6.875
    1STR    O0F23513   7.821   7.590   6.976
    1STR    C0G23514   7.701   7.523   7.011
    1STR    C0H23515   7.717   7.378   6.965
    1STR    C0I23516   7.686   7.526   7.163
    1STR    O0J23517   7.682   7.655   7.221
    1STR    C0K23518   8.488   7.141   7.347
    1STR    C0M23519   8.602   7.240   7.370
    1STR    C0N23520   8.514   6.995   7.376
    1STR    O0O23521   8.632   6.974   7.306
    1STR    C0P23522   8.669   6.855   7.276
    1STR    O0Q23523   8.623   6.751   7.322
    1STR    N0R23524   8.760   6.854   7.181
    1STR    C0S23525   8.780   6.938   7.073
    1STR    C0T23526   8.848   6.877   6.968
    1STR    C0U23527   8.882   6.947   6.852
    1STR    C0V23528   8.838   7.077   6.836
    1STR    C0W23529   8.823   7.123   6.695
    1STR    C0X23530   8.788   7.148   6.946
    1STR    N0Y23531   8.786   7.286   6.936
    1STR   BCK223532   8.822   7.380   7.023
    1STR    O1023533   8.822   7.496   6.988
    1STR    C1323534   8.748   7.076   7.061
    1STR    C1423535   7.538   7.222   6.520
    1STR    C1523536   7.454   7.125   6.570
    1STR    C1623537   7.416   7.127   6.703
    1STR    C1723538   7.336   7.011   6.752
    1STR    H1B23539   7.387   7.136   6.945
    1STR    H1C23540   7.555   7.427   6.786
    1STR    H1D23541   7.677   7.387   6.434
    1STR    H1E23542   7.946   7.597   6.739
    1STR    H1F23543   7.746   7.795   6.646
    1STR    H1G23544   7.920   7.834   6.674
    1STR    H1H23545   7.873   7.743   6.538
    1STR    H1I23546   7.706   7.724   6.868
    1STR    H1J23547   7.871   7.770   6.905
    1STR    H1K23548   7.612   7.568   6.966
    1STR    H1M23549   7.780   7.324   7.030
    1STR    H1N23550   7.751   7.367   6.862
    1STR    H1O23551   7.631   7.317   6.974
    1STR    H1P23552   7.600   7.468   7.193
    1STR    H1Q23553   7.770   7.472   7.204
    1STR   C01023554   7.768   7.670   7.334
    1STR   H01123555   7.871   7.660   7.301
    1STR   C01223556   7.745   7.813   7.383
    1STR   H01323557   7.767   7.883   7.303
    1STR   H01423558   7.810   7.836   7.467
    1STR   H01523559   7.641   7.827   7.413
    1STR   C01623560   7.741   7.565   7.446
    1STR   H01723561   7.756   7.609   7.545
    1STR   H01823562   7.636   7.534   7.442
    1STR   O01923563   7.832   7.456   7.435
    1STR   C02023564   7.782   7.333   7.487
    1STR   H02123565   7.723   7.357   7.574
    1STR   C02223566   7.694   7.267   7.379
    1STR   H02323567   7.732   7.279   7.278
    1STR   H02423568   7.594   7.310   7.382
    1STR   H02523569   7.685   7.159   7.392
    1STR   C02623570   7.893   7.238   7.537
    1STR   H02723571   7.942   7.187   7.455
    1STR   H02823572   7.971   7.294   7.589
    1STR   O02923573   7.829   7.150   7.629
    1STR   C03023574   7.885   7.022   7.651
    1STR   H03123575   7.992   7.032   7.668
    1STR   C03223576   7.820   6.964   7.777
    1STR   H03323577   7.717   6.939   7.757
    1STR   H03423578   7.823   7.035   7.859
    1STR   H03523579   7.870   6.872   7.809
    1STR   C03623580   7.860   6.927   7.533
    1STR   H03723581   7.927   6.956   7.452
    1STR   H03823582   7.894   6.828   7.564
    1STR   O03923583   7.722   6.919   7.490
    1STR   C04023584   7.714   6.863   7.359
    1STR   H04123585   7.782   6.926   7.305
    1STR   C04223586   7.765   6.721   7.359
    1STR   H04323587   7.756   6.682   7.261
    1STR   H04423588   7.700   6.654   7.408
    1STR   H04523589   7.866   6.705   7.394
    1STR   C04623590   7.581   6.870   7.279
    1STR   H04723591   7.504   6.825   7.340
    1STR   H04823592   7.553   6.974   7.273
    1STR   O04923593   7.592   6.801   7.148
    1STR   C05023594   7.538   6.847   7.020
    1STR   H05123595   7.436   6.813   7.016
    1STR   C05223596   7.535   6.997   7.024
    1STR   H05323597   7.437   7.023   7.060
    1STR   H05423598   7.554   7.043   6.928
    1STR   H05523599   7.609   7.041   7.089
    1STR   C05623600   7.595   6.789   6.883
    1STR   H05723601   7.690   6.740   6.897
    1STR   H05823602   7.536   6.709   6.844
    1STR   O05923603   7.597   6.883   6.775
    1STR   C06023604   7.664   6.845   6.654
    1STR   H06123605   7.749   6.787   6.682
    1STR   C06223606   7.574   6.753   6.573
    1STR   H06323607   7.473   6.788   6.581
    1STR   H06423608   7.574   6.652   6.612
    1STR   H06523609   7.601   6.751   6.467
    1STR   C06623610   7.705   6.974   6.577
    1STR   H06723611   7.636   6.988   6.495
    1STR   H06823612   7.698   7.057   6.647
    1STR   O06923613   7.828   6.975   6.509
    1STR   C07023614   7.905   7.095   6.491
    1STR   H07123615   8.007   7.060   6.474
    1STR   C07223616   7.869   7.159   6.357
    1STR   H07323617   7.765   7.187   6.353
    1STR   H07423618   7.886   7.088   6.276
    1STR   H07523619   7.929   7.247   6.337
    1STR   C07623620   7.921   7.194   6.611
    1STR   H07723621   7.886   7.291   6.580
    1STR   H07823622   7.866   7.167   6.700
    1STR   O07923623   8.058   7.208   6.644
    1STR   C08023624   8.097   7.314   6.731
    1STR   H08123625   8.198   7.292   6.762
    1STR   C08223626   8.119   7.437   6.645
    1STR   H08323627   8.034   7.459   6.583
    1STR   H08423628   8.203   7.423   6.578
    1STR   H08523629   8.138   7.524   6.707
    1STR   C08623630   8.025   7.338   6.868
    1STR   H08723631   8.096   7.390   6.931
    1STR   H08823632   7.948   7.412   6.853
    1STR   O08923633   7.968   7.225   6.937
    1STR   C09023634   7.983   7.213   7.082
    1STR   H09123635   8.074   7.167   7.103
    1STR   C09223636   7.990   7.348   7.159
    1STR   H09323637   7.942   7.429   7.106
    1STR   H09423638   8.089   7.389   7.171
    1STR   H09523639   7.951   7.340   7.259
    1STR   C09623640   7.896   7.103   7.150
    1STR   H09723641   7.891   7.124   7.256
    1STR   H09823642   7.794   7.112   7.115
    1STR   O09923643   7.948   6.966   7.147
    1STR   C10023644   7.875   6.867   7.072
    1STR   H10123645   7.782   6.876   7.116
    1STR   C10223646   7.846   6.929   6.936
    1STR   H10323647   7.754   6.984   6.928
    1STR   H10423648   7.853   6.858   6.856
    1STR   H10523649   7.913   7.009   6.918
    1STR   C10623650   7.909   6.708   7.075
    1STR   H10723651   7.817   6.659   7.048
    1STR   H10823652   7.967   6.670   6.994
    1STR   O10923653   7.963   6.639   7.191
    1STR   C11023654   7.990   6.496   7.191
    1STR   H11123655   8.040   6.467   7.099
    1STR   C11223656   8.086   6.464   7.306
    1STR   H11323657   8.051   6.508   7.399
    1STR   H11423658   8.186   6.498   7.284
    1STR   H11523659   8.099   6.357   7.322
    1STR   C11623660   7.872   6.399   7.204
    1STR   H11723661   7.907   6.307   7.250
    1STR   H11823662   7.795   6.438   7.271
    1STR   O11923663   7.823   6.365   7.075
    1STR   C12023664   7.768   6.236   7.050
    1STR   H12123665   7.851   6.164   7.046
    1STR   C12223666   7.682   6.196   7.168
    1STR   H12323667   7.627   6.280   7.208
    1STR   H12423668   7.743   6.163   7.252
    1STR   H12523669   7.609   6.121   7.141
    1STR   C12623670   7.686   6.228   6.916
    1STR   H12723671   7.665   6.124   6.899
    1STR   H12823672   7.586   6.270   6.925
    1STR   O12923673   7.740   6.274   6.791
    1STR   C13023674   7.823   6.388   6.799
    1STR   H13123675   7.789   6.457   6.876
    1STR   C13223676   7.956   6.322   6.827
    1STR   H13323677   8.008   6.302   6.734
    1STR   H13423678   7.952   6.224   6.873
    1STR   H13523679   8.011   6.386   6.894
    1STR   C13623680   7.832   6.474   6.672
    1STR   H13723681   7.884   6.419   6.593
    1STR   H13823682   7.731   6.492   6.637
    1STR   O13923683   7.894   6.601   6.699
    1STR   C14023684   7.965   6.661   6.590
    1STR   H14123685   8.050   6.598   6.571
    1STR   C14223686   7.879   6.650   6.461
    1STR   H14323687   7.775   6.631   6.480
    1STR   H14423688   7.915   6.567   6.400
    1STR   H14523689   7.881   6.740   6.401
    1STR   C14623690   8.010   6.810   6.612
    1STR   H14723691   8.018   6.852   6.513
    1STR   H14823692   7.932   6.861   6.665
    1STR   O14923693   8.131   6.864   6.667
    1STR   C15023694   8.116   6.949   6.781
    1STR   H15123695   8.030   7.012   6.765
    1STR   C15223696   8.111   6.850   6.889
    1STR   H15323697   8.205   6.811   6.917
    1STR   H15423698   8.049   6.769   6.856
    1STR   H15523699   8.085   6.895   6.981
    1STR   C15623700   8.228   7.040   6.825
    1STR   H15723701   8.307   6.975   6.850
    1STR   H15823702   8.248   7.097   6.737
    1STR   O15923703   8.212   7.127   6.935
    1STR   C16023704   8.305   7.121   7.042
    1STR   H16123705   8.407   7.126   7.008
    1STR   C16223706   8.294   7.253   7.119
    1STR   H16323707   8.233   7.245   7.209
    1STR   H16423708   8.257   7.332   7.055
    1STR   H16523709   8.388   7.289   7.155
    1STR   C16623710   8.274   7.000   7.133
    1STR   H16723711   8.292   7.025   7.236
    1STR   H16823712   8.168   6.988   7.136
    1STR   O16923713   8.333   6.876   7.095
    1STR   C17023714   8.292   6.754   7.161
    1STR   H17123715   8.381   6.731   7.219
    1STR   C17223716   8.195   6.777   7.280
    1STR   H17323717   8.098   6.813   7.248
    1STR   H17423718   8.232   6.852   7.350
    1STR   H17523719   8.180   6.692   7.344
    1STR   C17623720   8.287   6.628   7.062
    1STR   H17723721   8.352   6.658   6.983
    1STR   H17823722   8.326   6.540   7.111
    1STR   O17923723   8.182   6.585   6.974
    1STR   C18023724   8.203   6.548   6.833
    1STR   H18123725   8.099   6.559   6.803
    1STR   C18223726   8.276   6.641   6.739
    1STR   H18323727   8.297   6.741   6.766
    1STR   H18423728   8.221   6.652   6.648
    1STR   H18523729   8.366   6.600   6.701
    1STR   C18623730   8.243   6.409   6.779
    1STR   H18723731   8.350   6.393   6.780
    1STR   H18823732   8.206   6.328   6.842
    1STR   O18923733   8.187   6.407   6.645
    1STR   C19023734   8.274   6.393   6.532
    1STR   H19123735   8.368   6.444   6.550
    1STR   C19223736   8.298   6.242   6.528
    1STR   H19323737   8.203   6.189   6.528
    1STR   H19423738   8.353   6.209   6.616
    1STR   H19523739   8.352   6.213   6.439
    1STR   C19623740   8.215   6.442   6.393
    1STR   H19723741   8.291   6.419   6.319
    1STR   H19823742   8.128   6.382   6.368
    1STR   O19923743   8.177   6.580   6.375
    1STR   C20023744   8.189   6.639   6.243
    1STR   H20123745   8.195   6.558   6.170
    1STR   C20223746   8.065   6.721   6.207
    1STR   H20323747   8.051   6.803   6.278
    1STR   H20423748   7.975   6.659   6.206
    1STR   H20523749   8.074   6.766   6.109
    1STR   C20623750   8.311   6.732   6.220
    1STR   H20723751   8.403   6.675   6.234
    1STR   H20823752   8.315   6.758   6.115
    1STR   O20923753   8.314   6.860   6.288
    1STR   C21023754   8.319   6.859   6.431
    1STR   H21123755   8.219   6.834   6.461
    1STR   C21223756   8.405   6.743   6.477
    1STR   H21323757   8.490   6.726   6.414
    1STR   H21423758   8.355   6.649   6.483
    1STR   H21523759   8.436   6.761   6.578
    1STR   C21623760   8.362   6.992   6.503
    1STR   H21723761   8.446   7.040   6.458
    1STR   H21823762   8.280   7.065   6.501
    1STR   O21923763   8.395   6.966   6.640
    1STR   C22023764   8.504   7.024   6.712
    1STR   H22123765   8.586   7.015   6.644
    1STR   C22223766   8.503   7.173   6.750
    1STR   H22323767   8.559   7.232   6.679
    1STR   H22423768   8.555   7.187   6.844
    1STR   H22523769   8.406   7.219   6.765
    1STR   C22623770   8.534   6.941   6.840
    1STR   H22723771   8.639   6.946   6.849
    1STR   H22823772   8.505   6.980   6.936
    1STR   O22923773   8.485   6.808   6.842
    1STR   C23023774   8.575   6.709   6.886
    1STR   H23123775   8.667   6.757   6.885
    1STR   C23223776   8.579   6.672   7.030
    1STR   H23323777   8.529   6.579   7.055
    1STR   H23423778   8.539   6.755   7.086
    1STR   H23523779   8.681   6.659   7.060
    1STR   C23623780   8.586   6.592   6.790
    1STR   H23723781   8.676   6.544   6.818
    1STR   H23823782   8.512   6.516   6.812
    1STR   O23923783   8.595   6.627   6.650
    1STR   C24023784   8.681   6.738   6.625
    1STR   H24123785   8.651   6.826   6.675
    1STR   C24223786   8.808   6.701   6.687
    1STR   H24323787   8.822   6.595   6.685
    1STR   H24423788   8.823   6.710   6.791
    1STR   H24523789   8.888   6.757   6.644
    1STR   C24623790   8.706   6.789   6.484
    1STR   H24723791   8.805   6.831   6.481
    1STR   H24823792   8.702   6.706   6.414
    1STR   O24923793   8.636   6.907   6.446
    1STR   C25023794   8.686   6.969   6.328
    1STR   H25123795   8.794   6.984   6.336
    1STR   C25223796   8.652   6.876   6.212
    1STR   H25323797   8.545   6.860   6.205
    1STR   H25423798   8.700   6.778   6.217
    1STR   H25523799   8.682   6.921   6.121
    1STR   C25623800   8.624   7.109   6.302
    1STR   H25723801   8.676   7.151   6.217
    1STR   H25823802   8.519   7.099   6.272
    1STR   O25923803   8.635   7.199   6.413
    1STR   C26023804   8.585   7.333   6.398
    1STR   H26123805   8.658   7.394   6.451
    1STR   C26223806   8.583   7.385   6.253
    1STR   H26323807   8.512   7.329   6.191
    1STR   H26423808   8.682   7.379   6.207
    1STR   H26523809   8.552   7.489   6.251
    1STR   C26623810   8.448   7.359   6.466
    1STR   H26723811   8.369   7.338   6.394
    1STR   H26823812   8.423   7.291   6.545
    1STR   O26923813   8.435   7.495   6.508
    1STR   C27023814   8.503   7.539   6.627
    1STR   H27123815   8.585   7.472   6.655
    1STR   C27223816   8.559   7.676   6.588
    1STR   H27323817   8.479   7.742   6.555
    1STR   H27423818   8.632   7.668   6.508
    1STR   H27523819   8.607   7.724   6.674
    1STR   C27623820   8.405   7.554   6.745
    1STR   H27723821   8.323   7.617   6.714
    1STR   H27823822   8.365   7.456   6.770
    1STR   O27923823   8.461   7.620   6.860
    1STR   C28023824   8.428   7.561   6.986
    1STR   H28123825   8.321   7.541   6.993
    1STR   C28223826   8.511   7.433   6.988
    1STR   H28323827   8.551   7.408   7.086
    1STR   H28423828   8.595   7.445   6.921
    1STR   H28523829   8.455   7.349   6.949
    1STR   C28623830   8.469   7.653   7.102
    1STR   H28723831   8.574   7.638   7.121
    1STR   H28823832   8.459   7.756   7.068
    1STR   O28923833   8.389   7.643   7.222
    1STR   C29023834   8.426   7.550   7.324
    1STR   H29123835   8.428   7.451   7.282
    1STR   C29223836   8.564   7.585   7.383
    1STR   H29323837   8.573   7.691   7.405
    1STR   H29423838   8.644   7.557   7.314
    1STR   H29523839   8.587   7.531   7.475
    1STR   C29623840   8.315   7.551   7.433
    1STR   H29723841   8.342   7.615   7.518
    1STR   H29823842   8.226   7.596   7.389
    1STR   O29923843   8.274   7.422   7.476
    1STR   C30023844   8.356   7.355   7.571
    1STR   H30123845   8.458   7.392   7.565
    1STR   C30223846   8.305   7.382   7.713
    1STR   H30323847   8.202   7.350   7.724
    1STR   H30423848   8.310   7.488   7.737
    1STR   H30523849   8.365   7.328   7.786
    1STR   C30623850   8.354   7.205   7.538
    1STR   H30723851   8.432   7.151   7.593
    1STR   H30823852   8.259   7.161   7.569
    1STR   O30923853   8.364   7.185   7.398
    1STR    H1R23854   8.483   7.136   7.239
    1STR    H1S23855   8.602   7.283   7.468
    1STR    H1T23856   8.597   7.321   7.298
    1STR    H1U23857   8.699   7.194   7.356
    1STR    H1V23858   8.440   6.928   7.333
    1STR    H1W23859   8.515   6.969   7.480
    1STR    H1X23860   8.803   6.763   7.173
    1STR    H1Y23861   8.880   6.774   6.978
    1STR    H1Z23862   8.936   6.901   6.773
    1STR    H2023863   8.918   7.141   6.654
    1STR    H2123864   8.784   7.045   6.630
    1STR    H2223865   8.761   7.211   6.687
    1STR    H2323866   8.768   7.324   6.845
    1STR    H2723867   8.700   7.128   7.141
    1STR    H2823868   7.570   7.209   6.419
    1STR    H2923869   7.428   7.048   6.502
    1STR    H2A23870   7.361   6.983   6.852
    1STR    H2B23871   7.365   6.923   6.698
    1STR    H2C23872   7.230   7.030   6.742
    1STR   BCK123873   8.905   0.700   9.101
    1STR    O0323874   8.956   0.668   9.207
    1STR    N0423875   8.783   0.758   9.090
    1STR    C0523876   8.699   0.812   9.189
    1STR    C0623877   8.740   0.821   0.003
    1STR    C0723878   8.660   0.864   0.110
    1STR    N0823879   8.714   0.851   0.239
    1STR    C0923880   8.651   0.835   0.356
    1STR    O0A23881   8.529   0.834   0.367
    1STR    O0B23882   8.732   0.810   0.465
    1STR    C0C23883   8.871   0.838   0.477
    1STR    C0D23884   8.885   0.906   0.614
    1STR    C0E23885   8.962   0.713   0.469
    1STR    O0F23886   9.020   0.705   0.340
    1STR    C0G23887   9.101   0.591   0.307
    1STR    C0H23888   9.087   0.576   0.154
    1STR    C0I23889   9.254   0.595   0.349
    1STR    O0J23890   0.002   0.516   0.254
    1STR    C0K23891   9.035   1.688   8.629
    1STR    C0M23892   9.046   1.832   8.576
    1STR    C0N23893   8.906   1.627   8.569
    1STR    O0O23894   8.856   1.505   8.623
    1STR    C0P23895   8.722   1.483   8.617
    1STR    O0Q23896   8.643   1.548   8.548
    1STR    N0R23897   8.684   1.396   8.710
    1STR    C0S23898   8.637   1.444   8.831
    1STR    C0T23899   8.540   1.378   8.909
    1STR    C0U23900   8.513   1.422   9.040
    1STR    C0V23901   8.584   1.530   9.097
    1STR    C0W23902   8.564   1.573   9.240
    1STR    C0X23903   8.679   1.598   9.018
    1STR    N0Y23904   8.762   1.696   9.069
    1STR   BCK223905   8.788   1.801   8.991
    1STR    O1023906   8.900   1.817   8.946
    1STR    C1323907   8.703   1.555   8.887
    1STR    C1423908   8.532   0.913   0.078
    1STR    C1523909   8.488   0.913   9.263
    1STR    C1623910   8.570   0.861   9.159
    1STR    C1723911   8.515   0.850   9.019
    1STR    H1B23912   8.752   0.763   8.995
    1STR    H1C23913   8.837   0.787   0.025
    1STR    H1D23914   8.814   0.839   0.245
    1STR    H1E23915   8.903   0.911   0.403
    1STR    H1F23916   8.851   0.840   0.693
    1STR    H1G23917   8.988   0.934   0.635
    1STR    H1H23918   8.824   0.997   0.618
    1STR    H1I23919   8.907   0.623   0.496
    1STR    H1J23920   9.044   0.719   0.539
    1STR    H1K23921   9.049   0.507   0.350
    1STR    H1M23922   9.008   0.636   0.114
    1STR    H1N23923   9.063   0.476   0.125
    1STR    H1O23924   9.176   0.599   0.095
    1STR    H1P23925   9.303   0.688   0.338
    1STR    H1Q23926   9.274   0.567   0.452
    1STR   C01023927   0.139   0.481   0.268
    1STR   H01123928   0.186   0.568   0.301
    1STR   C01223929   0.172   0.384   0.384
    1STR   H01323930   0.118   0.410   0.475
    1STR   H01423931   0.277   0.389   0.410
    1STR   H01523932   0.150   0.281   0.359
    1STR   C01623933   0.196   0.441   0.127
    1STR   H01723934   0.294   0.484   0.116
    1STR   H01823935   0.207   0.333   0.123
    1STR   O01923936   0.120   0.484   0.012
    1STR   C02023937   0.167   0.434   9.205
    1STR   H02123938   0.267   0.397   9.209
    1STR   C02223939   0.081   0.320   9.159
    1STR   H02323940   9.301   0.355   9.137
    1STR   H02423941   0.078   0.243   9.236
    1STR   H02523942   0.122   0.275   9.069
    1STR   C02623943   0.171   0.548   9.103
    1STR   H02723944   0.080   0.607   9.101
    1STR   H02823945   0.244   0.609   9.151
    1STR   O02923946   0.215   0.513   8.971
    1STR   C03023947   0.289   0.617   8.904
    1STR   H03123948   0.316   0.693   8.974
    1STR   C03223949   0.420   0.556   8.857
    1STR   H03323950   0.405   0.460   8.809
    1STR   H03423951   0.482   0.540   8.943
    1STR   H03523952   0.474   0.618   8.787
    1STR   C03623953   0.227   0.693   8.787
    1STR   H03723954   0.287   0.782   8.770
    1STR   H03823955   0.237   0.635   8.697
    1STR   O03923956   0.091   0.729   8.801
    1STR   C04023957   0.050   0.836   8.717
    1STR   H04123958   0.108   0.922   8.747
    1STR   C04223959   0.076   0.824   8.566
    1STR   H04323960   0.017   0.746   8.520
    1STR   H04423961   0.181   0.805   8.544
    1STR   H04523962   0.049   0.916   8.516
    1STR   C04623963   9.220   0.855   8.743
    1STR   H04723964   9.164   0.771   8.703
    1STR   H04823965   9.205   0.852   8.851
    1STR   O04923966   9.178   0.977   8.683
    1STR   C05023967   9.049   1.030   8.711
    1STR   H05123968   9.061   1.120   8.770
    1STR   C05223969   8.991   1.070   8.576
    1STR   H05323970   8.977   0.982   8.513
    1STR   H05423971   9.059   1.138   8.524
    1STR   H05523972   8.895   1.120   8.587
    1STR   C05623973   8.952   0.941   8.790
    1STR   H05723974   8.850   0.979   8.787
    1STR   H05823975   8.946   0.844   8.742
    1STR   O05923976   8.997   0.921   8.924
    1STR   C06023977   8.982   1.018   9.025
    1STR   H06123978   9.052   1.097   9.002
    1STR   C06223979   8.841   1.080   9.020
    1STR   H06323980   8.764   1.004   9.018
    1STR   H06423981   8.825   1.142   8.932
    1STR   H06523982   8.819   1.143   9.106
    1STR   C06623983   9.016   0.968   9.169
    1STR   H06723984   9.063   1.056   9.200
    1STR   H06823985   8.922   0.959   9.220
    1STR   O06923986   9.112   0.877   9.228
    1STR   C07023987   9.135   0.912   0.049
    1STR   H07123988   9.178   1.008   0.039
    1STR   C07223989   9.011   0.924   0.137
    1STR   H07323990   8.969   0.828   0.159
    1STR   H07423991   8.933   0.991   0.104
    1STR   H07523992   9.046   0.958   0.234
    1STR   C07623993   9.241   0.846   0.140
    1STR   H07723994   9.187   0.789   0.210
    1STR   H07823995   9.304   0.777   0.087
    1STR   O07923996   9.309   0.941   0.223
    1STR   C08023997   0.026   0.918   0.360
    1STR   H08123998   0.051   1.018   0.372
    1STR   C08223999   9.237   0.901   0.466
    1STR   H08324000   9.242   0.802   0.511
    1STR   H08424001   9.139   0.920   0.425
    1STR   H08524002   9.252   0.971   0.548
    1STR   C08624003   0.167   0.893   0.410
    1STR   H08724004   0.237   0.973   0.386
    1STR   H08824005   0.166   0.892   0.519
    1STR   O08924006   0.211   0.769   0.371
    1STR   C09024007   0.307   0.777   0.269
    1STR   H09124008   0.356   0.870   0.263
    1STR   C09224009   0.417   0.693   0.312
    1STR   H09324010   0.390   0.589   0.325
    1STR   H09424011   0.455   0.734   0.405
    1STR   H09524012   0.493   0.701   0.234
    1STR   C09624013   0.256   0.748   0.132
    1STR   H09724014   0.329   0.692   0.075
    1STR   H09824015   0.163   0.692   0.133
    1STR   O09924016   0.234   0.873   0.077
    1STR   C10024017   0.182   0.863   9.269
    1STR   H10124018   0.121   0.775   9.250
    1STR   C10224019   0.101   0.985   9.261
    1STR   H10324020   0.169   1.064   9.238
    1STR   H10424021   0.065   1.023   0.034
    1STR   H10524022   0.020   0.976   9.190
    1STR   C10624023   0.295   0.874   9.170
    1STR   H10724024   0.250   0.867   9.073
    1STR   H10824025   0.347   0.969   9.183
    1STR   O10924026   0.381   0.767   9.188
    1STR   C11024027   0.511   0.793   9.152
    1STR   H11124028   0.545   0.696   9.135
    1STR   C11224029   0.538   0.841   9.010
    1STR   H11324030   0.466   0.913   8.979
    1STR   H11424031   0.527   0.763   8.937
    1STR   H11524032   0.639   0.878   8.999
    1STR   C11624033   0.593   0.850   9.269
    1STR   H11724034   0.664   0.777   9.306
    1STR   H11824035   0.651   0.923   9.218
    1STR   O11924036   0.521   0.898   0.063
    1STR   C12024037   0.549   1.032   0.104
    1STR   H12124038   0.513   1.096   0.025
    1STR   C12224039   0.476   1.070   0.234
    1STR   H12324040   0.493   1.173   0.264
    1STR   H12424041   0.506   1.007   0.318
    1STR   H12524042   0.368   1.063   0.222
    1STR   C12624043   0.698   1.055   0.131
    1STR   H12724044   0.714   1.148   0.186
    1STR   H12824045   0.735   0.974   0.195
    1STR   O12924046   0.773   1.058   0.011
    1STR   C13024047   0.747   1.169   9.246
    1STR   H13124048   0.694   1.246   9.301
    1STR   C13224049   0.894   1.210   9.228
    1STR   H13324050   0.951   1.127   9.186
    1STR   H13424051   0.938   1.235   0.004
    1STR   H13524052   0.909   1.295   9.163
    1STR   C13624053   0.672   1.145   9.109
    1STR   H13724054   0.688   1.235   9.052
    1STR   H13824055   0.726   1.068   9.055
    1STR   O13924056   0.529   1.116   9.105
    1STR   C14024057   0.456   1.152   8.983
    1STR   H14124058   0.438   1.256   8.995
    1STR   C14224059   0.542   1.125   8.856
    1STR   H14324060   0.607   1.039   8.863
    1STR   H14424061   0.607   1.210   8.834
    1STR   H14524062   0.480   1.106   8.769
    1STR   C14624063   0.305   1.113   8.959
    1STR   H14724064   0.277   1.153   8.862
    1STR   H14824065   0.290   1.008   8.939
    1STR   O14924066   0.210   1.165   9.056
    1STR   C15024067   0.069   1.175   9.022
    1STR   H15124068   0.064   1.245   8.943
    1STR   C15224069   0.019   1.052   8.953
    1STR   H15324070   0.076   0.962   8.974
    1STR   H15424071   0.020   1.073   8.846
    1STR   H15524072   9.238   1.029   8.980
    1STR   C15624073   9.285   1.251   9.113
    1STR   H15724074   0.003   1.350   9.133
    1STR   H15824075   9.196   1.266   9.054
    1STR   O15924076   9.235   1.192   9.234
    1STR   C16024077   9.145   1.272   9.314
    1STR   H16124078   9.193   1.370   9.319
    1STR   C16224079   8.997   1.270   9.263
    1STR   H16324080   8.942   1.181   9.290
    1STR   H16424081   8.992   1.282   9.156
    1STR   H16524082   8.926   1.338   9.307
    1STR   C16624083   9.139   1.224   0.138
    1STR   H16724084   9.059   1.155   0.144
    1STR   H16824085   9.226   1.168   0.167
    1STR   O16924086   9.107   1.327   0.229
    1STR   C17024087   9.047   1.286   0.351
    1STR   H17124088   9.016   1.381   0.387
    1STR   C17224089   8.916   1.204   0.339
    1STR   H17324090   8.931   1.103   0.306
    1STR   H17424091   8.848   1.250   0.268
    1STR   H17524092   8.865   1.193   0.434
    1STR   C17624093   9.144   1.240   0.460
    1STR   H17724094   9.167   1.320   0.529
    1STR   H17824095   9.097   1.161   0.520
    1STR   O17924096   9.260   1.188   0.401
    1STR   C18024097   0.062   1.260   0.396
    1STR   H18124098   0.023   1.358   0.408
    1STR   C18224099   0.151   1.233   0.517
    1STR   H18324100   0.181   1.129   0.525
    1STR   H18424101   0.100   1.260   0.609
    1STR   H18524102   0.242   1.292   0.509
    1STR   C18624103   0.131   1.244   0.256
    1STR   H18724104   0.132   1.141   0.220
    1STR   H18824105   0.060   1.298   0.194
    1STR   O18924106   0.261   1.302   0.225
    1STR   C19024107   0.303   1.286   0.086
    1STR   H19124108   0.317   1.181   0.062
    1STR   C19224109   0.190   1.320   9.312
    1STR   H19324110   0.127   1.401   0.025
    1STR   H19424111   0.121   1.239   9.313
    1STR   H19524112   0.223   1.336   9.210
    1STR   C19624113   0.436   1.358   0.047
    1STR   H19724114   0.436   1.459   0.081
    1STR   H19824115   0.520   1.314   0.101
    1STR   O19924116   0.466   1.359   9.226
    1STR   C20024117   0.531   1.475   9.173
    1STR   H20124118   0.478   1.562   9.208
    1STR   C20224119   0.673   1.490   9.228
    1STR   H20324120   0.741   1.422   9.180
    1STR   H20424121   0.679   1.480   0.016
    1STR   H20524122   0.709   1.588   9.202
    1STR   C20624123   0.529   1.477   9.018
    1STR   H20724124   0.585   1.557   8.973
    1STR   H20824125   0.580   1.392   8.977
    1STR   O20924126   0.394   1.484   8.976
    1STR   C21024127   0.352   1.479   8.838
    1STR   H21124128   0.346   1.580   8.801
    1STR   C21224129   0.440   1.409   8.735
    1STR   H21324130   0.420   1.303   8.732
    1STR   H21424131   0.546   1.429   8.747
    1STR   H21524132   0.413   1.445   8.635
    1STR   C21624133   0.213   1.412   8.855
    1STR   H21724134   0.238   1.347   8.935
    1STR   H21824135   0.136   1.462   8.909
    1STR   O21924136   0.156   1.329   8.753
    1STR   C22024137   0.027   1.367   8.705
    1STR   H22124138   0.043   1.466   8.669
    1STR   C22224139   0.011   1.280   8.580
    1STR   H22324140   0.097   1.290   8.514
    1STR   H22424141   9.242   1.308   8.523
    1STR   H22524142   0.002   1.175   8.607
    1STR   C22624143   9.212   1.366   8.790
    1STR   H22724144   9.132   1.392   8.721
    1STR   H22824145   9.196   1.264   8.820
    1STR   O22924146   9.193   1.449   8.908
    1STR   C23024147   9.060   1.488   8.956
    1STR   H23124148   9.028   1.574   8.899
    1STR   C23224149   8.959   1.378   8.929
    1STR   H23324150   9.004   1.282   8.943
    1STR   H23424151   8.926   1.382   8.825
    1STR   H23524152   8.872   1.386   8.994
    1STR   C23624153   9.065   1.538   9.106
    1STR   H23724154   9.144   1.483   9.153
    1STR   H23824155   9.098   1.640   9.098
    1STR   O23924156   8.954   1.555   9.198
    1STR   C24024157   8.994   1.572   0.019
    1STR   H24124158   9.036   1.481   0.057
    1STR   C24224159   9.116   1.655   0.044
    1STR   H24324160   9.096   1.761   0.033
    1STR   H24424161   9.201   1.618   9.309
    1STR   H24524162   9.150   1.636   0.145
    1STR   C24624163   8.887   1.594   0.128
    1STR   H24724164   8.848   1.695   0.122
    1STR   H24824165   8.806   1.523   0.116
    1STR   O24924166   8.947   1.566   0.256
    1STR   C25024167   8.872   1.595   0.374
    1STR   H25124168   8.817   1.683   0.347
    1STR   C25224169   8.775   1.481   0.412
    1STR   H25324170   8.825   1.398   0.457
    1STR   H25424171   8.714   1.448   0.329
    1STR   H25524172   8.712   1.509   0.496
    1STR   C25624173   8.958   1.636   0.496
    1STR   H25724174   8.993   1.738   0.480
    1STR   H25824175   8.894   1.641   0.584
    1STR   O25924176   9.069   1.551   0.522
    1STR   C26024177   9.143   1.586   0.637
    1STR   H26124178   9.117   1.688   0.664
    1STR   C26224179   9.103   1.493   0.752
    1STR   H26324180   9.131   1.390   0.733
    1STR   H26424181   8.995   1.496   0.769
    1STR   H26524182   9.152   1.524   0.845
    1STR   C26624183   9.295   1.580   0.608
    1STR   H26724184   0.032   1.595   0.700
    1STR   H26824185   0.001   1.482   0.571
    1STR   O26924186   0.013   1.683   0.516
    1STR   C27024187   0.124   1.659   0.428
    1STR   H27124188   0.155   1.754   0.388
    1STR   C27224189   0.245   1.610   0.511
    1STR   H27324190   0.229   1.511   0.554
    1STR   H27424191   0.263   1.678   0.593
    1STR   H27524192   0.336   1.605   0.452
    1STR   C27624193   0.079   1.564   0.313
    1STR   H27724194   0.149   1.483   0.323
    1STR   H27824195   9.296   1.535   0.333
    1STR   O27924196   0.075   1.580   0.170
    1STR   C28024197   0.184   1.637   0.102
    1STR   H28124198   0.137   1.731   0.116
    1STR   C28224199   0.317   1.643   0.180
    1STR   H28324200   0.338   1.551   0.234
    1STR   H28424201   0.316   1.722   0.254
    1STR   H28524202   0.401   1.668   0.115
    1STR   C28624203   0.205   1.613   9.265
    1STR   H28724204   0.261   1.692   9.225
    1STR   H28824205   0.278   1.536   9.256
    1STR   O28924206   0.104   1.574   9.170
    1STR   C29024207   0.052   1.660   9.066
    1STR   H29124208   9.292   1.597   9.036
    1STR   C29224209   9.307   1.780   9.125
    1STR   H29324210   0.047   1.867   9.110
    1STR   H29424211   9.295   1.772   9.231
    1STR   H29524212   9.213   1.801   9.078
    1STR   C29624213   0.113   1.691   8.925
    1STR   H29724214   0.122   1.795   8.911
    1STR   H29824215   0.216   1.664   8.925
    1STR   O29924216   0.034   1.648   8.809
    1STR   C30024217   0.051   1.710   8.678
    1STR   H30124218   0.033   1.816   8.685
    1STR   C30224219   0.194   1.701   8.627
    1STR   H30324220   0.226   1.598   8.615
    1STR   H30424221   0.261   1.752   8.695
    1STR   H30524222   0.205   1.751   8.530
    1STR   C30624223   9.274   1.664   8.564
    1STR   H30724224   9.265   1.743   8.489
    1STR   H30824225   0.005   1.586   8.506
    1STR   O30924226   9.147   1.606   8.595
    1STR    H1R24227   9.029   1.697   8.737
    1STR    H1S24228   8.960   1.889   8.608
    1STR    H1T24229   9.052   1.833   8.468
    1STR    H1U24230   9.133   1.884   8.616
    1STR    H1V24231   8.919   1.609   8.463
    1STR    H1W24232   8.827   1.702   8.578
    1STR    H1X24233   8.755   1.325   8.721
    1STR    H1Y24234   8.488   1.292   8.869
    1STR    H1Z24235   8.438   1.370   9.099
    1STR    H2024236   8.477   1.526   9.286
    1STR    H2124237   8.652   1.547   9.297
    1STR    H2224238   8.554   1.681   9.243
    1STR    H2324239   8.842   1.658   9.120
    1STR    H2724240   8.782   1.604   8.833
    1STR    H2824241   8.466   0.949   0.156
    1STR    H2924242   8.389   0.949   9.241
    1STR    H2A24243   8.422   0.906   9.008
    1STR    H2B24244   8.494   0.745   8.996
    1STR    H2C24245   8.585   0.888   8.945
    1STR   BCK124246   0.145   0.246   2.378
    1STR    O0324247   0.223   0.160   2.340
    1STR    N0424248   0.150   0.287   2.502
    1STR    C0524249   0.217   0.406   2.517
    1STR    C0624250   0.322   0.443   2.430
    1STR    C0724251   0.390   0.562   2.441
    1STR    N0824252   0.464   0.599   2.328
    1STR    C0924253   0.534   0.699   2.279
    1STR    O0A24254   0.584   0.791   2.342
    1STR    O0B24255   0.530   0.691   2.143
    1STR    C0C24256   0.529   0.802   2.057
    1STR    C0D24257   0.674   0.850   2.038
    1STR    C0E24258   0.456   0.778   1.920
    1STR    O0F24259   0.384   0.657   1.890
    1STR    C0G24260   0.264   0.606   1.953
    1STR    C0H24261   0.264   0.601   2.105
    1STR    C0I24262   0.127   0.649   1.903
    1STR    O0J24263   0.030   0.557   1.958
    1STR    C0K24264   8.879   1.633   2.924
    1STR    C0M24265   8.785   1.569   3.027
    1STR    C0N24266   8.871   1.784   2.921
    1STR    O0O24267   8.965   1.839   2.829
    1STR    C0P24268   8.945   1.967   2.797
    1STR    O0Q24269   8.855   2.035   2.847
    1STR    N0R24270   9.017   2.014   2.697
    1STR    C0S24271   9.132   1.971   2.633
    1STR    C0T24272   9.254   1.983   2.698
    1STR    C0U24273   0.056   1.979   2.630
    1STR    C0V24274   0.054   1.973   2.490
    1STR    C0W24275   0.173   2.007   2.405
    1STR    C0X24276   9.255   1.945   2.425
    1STR    N0Y24277   9.271   1.918   2.292
    1STR   BCK224278   9.192   1.865   2.203
    1STR    O1024279   9.071   1.862   2.210
    1STR    C1324280   9.134   1.941   2.497
    1STR    C1424281   0.365   0.637   2.557
    1STR    C1524282   0.251   0.610   2.638
    1STR    C1624283   0.170   0.497   2.611
    1STR    C1724284   0.038   0.464   2.677
    1STR    H1B24285   0.059   0.280   2.544
    1STR    H1C24286   0.348   0.379   2.348
    1STR    H1D24287   0.467   0.526   2.259
    1STR    H1E24288   0.471   0.875   2.112
    1STR    H1F24289   0.731   0.787   1.971
    1STR    H1G24290   0.678   0.951   1.999
    1STR    H1H24291   0.727   0.851   2.133
    1STR    H1I24292   0.535   0.775   1.846
    1STR    H1J24293   0.400   0.866   1.891
    1STR    H1K24294   0.267   0.503   1.918
    1STR    H1M24295   0.299   0.692   2.150
    1STR    H1N24296   0.323   0.519   2.142
    1STR    H1O24297   0.165   0.588   2.148
    1STR    H1P24298   0.108   0.751   1.931
    1STR    H1Q24299   0.124   0.651   1.794
    1STR   C01024300   9.231   0.618   2.007
    1STR   H01124301   9.267   0.695   2.071
    1STR   C01224302   9.160   0.657   1.876
    1STR   H01324303   9.178   0.582   1.801
    1STR   H01424304   9.197   0.750   1.834
    1STR   H01524305   9.053   0.662   1.884
    1STR   C01624306   9.144   0.545   2.114
    1STR   H01724307   9.052   0.517   2.064
    1STR   H01824308   9.196   0.456   2.143
    1STR   O01924309   9.104   0.621   2.232
    1STR   C02024310   9.029   0.555   2.336
    1STR   H02124311   8.956   0.489   2.291
    1STR   C02224312   9.135   0.476   2.408
    1STR   H02324313   9.230   0.529   2.408
    1STR   H02424314   9.146   0.378   2.363
    1STR   H02524315   9.108   0.463   2.511
    1STR   C02624316   8.956   0.651   2.437
    1STR   H02724317   9.033   0.708   2.488
    1STR   H02824318   8.887   0.709   2.378
    1STR   O02924319   8.872   0.606   2.544
    1STR   C03024320   8.807   0.706   2.627
    1STR   H03124321   8.824   0.805   2.597
    1STR   C03224322   8.661   0.698   2.603
    1STR   H03324323   8.633   0.597   2.628
    1STR   H03424324   8.643   0.720   2.499
    1STR   H03524325   8.602   0.767   2.663
    1STR   C03624326   8.822   0.702   2.779
    1STR   H03724327   8.760   0.780   2.823
    1STR   H03824328   8.786   0.607   2.818
    1STR   O03924329   8.954   0.726   2.823
    1STR   C04024330   8.966   0.757   2.962
    1STR   H04124331   8.932   0.859   2.979
    1STR   C04224332   8.889   0.661   3.055
    1STR   H04324333   8.918   0.558   3.040
    1STR   H04424334   8.781   0.668   3.043
    1STR   H04524335   8.910   0.685   3.160
    1STR   C04624336   9.115   0.748   2.990
    1STR   H04724337   9.138   0.746   3.096
    1STR   H04824338   9.151   0.654   2.947
    1STR   O04924339   9.177   0.861   2.933
    1STR   C05024340   9.294   0.828   2.862
    1STR   H05124341   0.026   0.744   2.907
    1STR   C05224342   9.250   0.798   2.718
    1STR   H05324343   9.167   0.728   2.713
    1STR   H05424344   0.010   0.752   2.661
    1STR   H05524345   9.220   0.887   2.664
    1STR   C05624346   0.065   0.950   2.875
    1STR   H05724347   0.041   1.016   2.793
    1STR   H05824348   0.041   1.002   2.967
    1STR   O05924349   0.204   0.918   2.879
    1STR   C06024350   0.280   1.004   2.797
    1STR   H06124351   0.233   1.102   2.789
    1STR   C06224352   0.417   1.035   2.858
    1STR   H06324353   0.491   0.957   2.841
    1STR   H06424354   0.410   1.056   2.964
    1STR   H06524355   0.458   1.121   2.807
    1STR   C06624356   0.296   0.938   2.660
    1STR   H06724357   0.353   1.001   2.596
    1STR   H06824358   0.361   0.857   2.683
    1STR   O06924359   0.178   0.889   2.593
    1STR   C07024360   0.176   0.890   2.448
    1STR   H07124361   0.163   0.989   2.416
    1STR   C07224362   0.304   0.854   2.382
    1STR   H07324363   0.323   0.906   2.290
    1STR   H07424364   0.291   0.754   2.348
    1STR   H07524365   0.391   0.868   2.442
    1STR   C07624366   0.064   0.810   2.379
    1STR   H07724367   0.062   0.709   2.419
    1STR   H07824368   9.286   0.854   2.398
    1STR   O07924369   0.092   0.799   2.237
    1STR   C08024370   0.090   0.919   2.160
    1STR   H08124371   0.091   1.003   2.226
    1STR   C08224372   0.207   0.944   2.068
    1STR   H08324373   0.254   0.853   2.040
    1STR   H08424374   0.279   1.005   2.120
    1STR   H08524375   0.180   0.997   1.977
    1STR   C08624376   9.284   0.929   2.081
    1STR   H08724377   9.298   1.026   2.045
    1STR   H08824378   9.276   0.875   1.989
    1STR   O08924379   9.188   0.896   2.177
    1STR   C09024380   9.054   0.929   2.160
    1STR   H09124381   9.037   1.022   2.115
    1STR   C09224382   8.982   0.842   2.063
    1STR   H09324383   8.978   0.740   2.095
    1STR   H09424384   9.031   0.844   1.968
    1STR   H09524385   8.882   0.881   2.053
    1STR   C09624386   8.997   0.918   2.299
    1STR   H09724387   8.892   0.891   2.293
    1STR   H09824388   9.057   0.839   2.340
    1STR   O09924389   9.015   1.023   2.391
    1STR   C10024390   8.946   1.003   2.510
    1STR   H10124391   8.971   0.902   2.535
    1STR   C10224392   9.012   1.074   2.623
    1STR   H10324393   8.971   1.173   2.629
    1STR   H10424394   9.119   1.080   2.608
    1STR   H10524395   8.995   1.022   2.718
    1STR   C10624396   8.796   1.046   2.501
    1STR   H10724397   8.761   1.055   2.604
    1STR   H10824398   8.789   1.145   2.456
    1STR   O10924399   8.709   0.956   2.431
    1STR   C11024400   8.568   0.984   2.430
    1STR   H11124401   8.520   0.887   2.417
    1STR   C11224402   8.514   1.042   2.563
    1STR   H11324403   8.548   1.144   2.579
    1STR   H11424404   8.544   0.982   2.649
    1STR   H11524405   8.405   1.044   2.562
    1STR   C11624406   8.521   1.068   2.310
    1STR   H11724407   8.415   1.089   2.318
    1STR   H11824408   8.570   1.165   2.313
    1STR   O11924409   8.540   0.997   2.188
    1STR   C12024410   8.593   1.075   2.081
    1STR   H12124411   8.536   1.167   2.068
    1STR   C12224412   8.735   1.107   2.122
    1STR   H12324413   8.775   1.026   2.182
    1STR   H12424414   8.740   1.196   2.184
    1STR   H12524415   8.803   1.120   2.039
    1STR   C12624416   8.586   0.994   1.950
    1STR   H12724417   8.635   0.899   1.963
    1STR   H12824418   8.482   0.971   1.929
    1STR   O12924419   8.639   1.067   1.839
    1STR   C13024420   8.768   1.030   1.792
    1STR   H13124421   8.822   0.970   1.865
    1STR   C13224422   8.753   0.949   1.663
    1STR   H13324423   8.695   1.004   1.589
    1STR   H13424424   8.703   0.854   1.682
    1STR   H13524425   8.851   0.928   1.619
    1STR   C13624426   8.844   1.161   1.766
    1STR   H13724427   8.799   1.212   1.682
    1STR   H13824428   8.828   1.228   1.850
    1STR   O13924429   8.984   1.147   1.737
    1STR   C14024430   9.074   1.107   1.841
    1STR   H14124431   9.037   1.016   1.881
    1STR   C14224432   9.205   1.078   1.767
    1STR   H14324433   9.236   1.164   1.708
    1STR   H14424434   9.194   0.994   1.700
    1STR   H14524435   9.287   1.056   1.835
    1STR   C14624436   9.088   1.210   1.956
    1STR   H14724437   9.139   1.293   1.919
    1STR   H14824438   8.991   1.238   1.990
    1STR   O14924439   9.170   1.180   2.067
    1STR   C15024440   9.159   1.243   2.193
    1STR   H15124441   9.202   1.339   2.182
    1STR   C15224442   9.013   1.243   2.241
    1STR   H15324443   8.953   1.310   2.188
    1STR   H15424444   9.002   1.262   2.347
    1STR   H15524445   8.955   1.155   2.225
    1STR   C15624446   9.246   1.186   2.306
    1STR   H15724447   9.203   1.233   2.394
    1STR   H15824448   9.231   1.080   2.319
    1STR   O15924449   0.066   1.214   2.306
    1STR   C16024450   0.123   1.224   2.438
    1STR   H16124451   0.102   1.326   2.468
    1STR   C16224452   0.047   1.150   2.548
    1STR   H16324453   9.319   1.057   2.520
    1STR   H16424454   9.289   1.214   2.585
    1STR   H16524455   0.111   1.131   2.631
    1STR   C16624456   0.277   1.206   2.452
    1STR   H16724457   0.312   1.306   2.445
    1STR   H16824458   0.303   1.188   2.555
    1STR   O16924459   0.348   1.118   2.361
    1STR   C17024460   0.492   1.123   2.355
    1STR   H17124461   0.506   1.225   2.364
    1STR   C17224462   0.574   1.071   2.476
    1STR   H17324463   0.574   0.963   2.487
    1STR   H17424464   0.538   1.106   2.572
    1STR   H17524465   0.678   1.101   2.468
    1STR   C17624466   0.563   1.106   2.216
    1STR   H17724467   0.646   1.175   2.205
    1STR   H17824468   0.611   1.009   2.223
    1STR   O17924469   0.482   1.108   2.097
    1STR   C18024470   0.489   1.212   1.998
    1STR   H18124471   0.513   1.308   2.044
    1STR   C18224472   0.599   1.181   1.896
    1STR   H18324473   0.580   1.087   1.846
    1STR   H18424474   0.696   1.177   1.944
    1STR   H18524475   0.602   1.260   1.820
    1STR   C18624476   0.347   1.212   1.935
    1STR   H18724477   0.335   1.124   1.871
    1STR   H18824478   0.285   1.194   2.022
    1STR   O18924479   0.293   1.327   1.867
    1STR   C19024480   0.149   1.325   1.859
    1STR   H19124481   0.120   1.228   1.819
    1STR   C19224482   0.092   1.338   2.001
    1STR   H19324483   0.156   1.394   2.066
    1STR   H19424484   0.080   1.240   2.048
    1STR   H19524485   9.315   1.387   2.005
    1STR   C19624486   0.078   1.431   1.768
    1STR   H19724487   0.098   1.532   1.804
    1STR   H19824488   0.111   1.424   1.665
    1STR   O19924489   9.257   1.400   1.779
    1STR   C20024490   9.152   1.480   1.725
    1STR   H20124491   9.191   1.579   1.719
    1STR   C20224492   9.128   1.428   1.584
    1STR   H20324493   9.097   1.323   1.585
    1STR   H20424494   9.219   1.435   1.525
    1STR   H20524495   9.051   1.485   1.533
    1STR   C20624496   9.017   1.478   1.811
    1STR   H20724497   8.945   1.553   1.779
    1STR   H20824498   8.966   1.385   1.791
    1STR   O20924499   9.041   1.484   1.953
    1STR   C21024500   8.945   1.523   2.053
    1STR   H21124501   8.909   1.622   2.029
    1STR   C21224502   8.815   1.443   2.051
    1STR   H21324503   8.825   1.339   2.028
    1STR   H21424504   8.748   1.480   1.974
    1STR   H21524505   8.768   1.447   2.149
    1STR   C21624506   9.028   1.538   2.189
    1STR   H21724507   9.130   1.513   2.169
    1STR   H21824508   9.045   1.641   2.208
    1STR   O21924509   8.977   1.491   2.317
    1STR   C22024510   9.062   1.498   2.435
    1STR   H22124511   9.156   1.449   2.412
    1STR   C22224512   9.083   1.643   2.475
    1STR   H22324513   8.991   1.694   2.496
    1STR   H22424514   9.134   1.701   2.400
    1STR   H22524515   9.143   1.650   2.565
    1STR   C22624516   9.009   1.426   2.561
    1STR   H22724517   8.966   1.498   2.630
    1STR   H22824518   8.928   1.359   2.533
    1STR   O22924519   9.115   1.352   2.624
    1STR   C23024520   9.126   1.354   2.767
    1STR   H23124521   9.149   1.456   2.787
    1STR   C23224522   8.994   1.317   2.840
    1STR   H23324523   8.975   1.210   2.842
    1STR   H23424524   8.907   1.367   2.799
    1STR   H23524525   9.001   1.346   2.945
    1STR   C23624526   9.239   1.264   2.828
    1STR   H23724527   9.223   1.257   2.935
    1STR   H23824528   9.216   1.163   2.795
    1STR   O23924529   0.058   1.288   2.798
    1STR   C24024530   0.146   1.341   2.899
    1STR   H24124531   0.108   1.439   2.923
    1STR   C24224532   0.147   1.260   3.031
    1STR   H24324533   0.186   1.159   3.016
    1STR   H24424534   0.050   1.251   3.080
    1STR   H24524535   0.213   1.307   3.104
    1STR   C24624536   0.295   1.362   2.856
    1STR   H24724537   0.328   1.455   2.901
    1STR   H24824538   0.354   1.286   2.907
    1STR   O24924539   0.336   1.358   2.718
    1STR   C25024540   0.465   1.418   2.694
    1STR   H25124541   0.451   1.520   2.719
    1STR   C25224542   0.577   1.367   2.788
    1STR   H25324543   0.605   1.264   2.767
    1STR   H25424544   0.554   1.376   2.894
    1STR   H25524545   0.668   1.425   2.774
    1STR   C25624546   0.520   1.409   2.547
    1STR   H25724547   0.625   1.440   2.542
    1STR   H25824548   0.524   1.305   2.536
    1STR   O25924549   0.451   1.476   2.439
    1STR   C26024550   0.488   1.448   2.300
    1STR   H26124551   0.577   1.386   2.290
    1STR   C26224552   0.364   1.391   2.227
    1STR   H26324553   0.272   1.418   2.276
    1STR   H26424554   0.361   1.285   2.216
    1STR   H26524555   0.351   1.420   2.124
    1STR   C26624556   0.539   1.569   2.225
    1STR   H26724557   0.492   1.651   2.271
    1STR   H26824558   0.646   1.582   2.235
    1STR   O26924559   0.508   1.566   2.088
    1STR   C27024560   0.412   1.662   2.048
    1STR   H27124561   0.460   1.757   2.062
    1STR   C27224562   0.406   1.638   1.898
    1STR   H27324563   0.336   1.559   1.872
    1STR   H27424564   0.503   1.609   1.859
    1STR   H27524565   0.378   1.727   1.843
    1STR   C27624566   0.272   1.668   2.121
    1STR   H27724567   0.228   1.766   2.107
    1STR   H27824568   0.209   1.597   2.070
    1STR   O27924569   0.269   1.647   2.264
    1STR   C28024570   0.145   1.645   2.335
    1STR   H28124571   0.105   1.744   2.330
    1STR   C28224572   0.045   1.550   2.272
    1STR   H28324573   0.062   1.447   2.297
    1STR   H28424574   0.034   1.556   2.165
    1STR   H28524575   9.271   1.580   2.311
    1STR   C28624576   0.161   1.612   2.486
    1STR   H28724577   0.180   1.507   2.502
    1STR   H28824578   0.256   1.654   2.513
    1STR   O28924579   0.059   1.662   2.577
    1STR   C29024580   0.066   1.616   2.714
    1STR   H29124581   0.060   1.508   2.711
    1STR   C29224582   0.199   1.662   2.771
    1STR   H29324583   0.202   1.770   2.761
    1STR   H29424584   0.280   1.620   2.716
    1STR   H29524585   0.214   1.638   2.876
    1STR   C29624586   9.280   1.672   2.815
    1STR   H29724587   9.288   1.779   2.815
    1STR   H29824588   9.177   1.657   2.784
    1STR   O29924589   9.310   1.641   2.953
    1STR   C30024590   9.221   1.562   3.032
    1STR   H30124591   9.207   1.467   2.984
    1STR   C30224592   9.284   1.522   3.167
    1STR   H30324593   9.236   1.432   3.205
    1STR   H30424594   9.272   1.598   3.244
    1STR   H30524595   0.070   1.502   3.156
    1STR   C30624596   9.085   1.629   3.050
    1STR   H30724597   9.036   1.595   3.142
    1STR   H30824598   9.095   1.737   3.055
    1STR   O30924599   9.011   1.587   2.938
    1STR    H1R24600   8.853   1.597   2.825
    1STR    H1S24601   8.681   1.593   3.005
    1STR    H1T24602   8.806   1.604   3.128
    1STR    H1U24603   8.795   1.460   3.027
    1STR    H1V24604   8.887   1.826   3.020
    1STR    H1W24605   8.770   1.815   2.894
    1STR    H1X24606   8.975   2.098   2.658
    1STR    H1Y24607   9.259   1.999   2.802
    1STR    H1Z24608   0.144   1.990   2.688
    1STR    H2024609   0.148   2.096   2.348
    1STR    H2124610   0.263   2.033   2.456
    1STR    H2224611   0.195   1.931   2.331
    1STR    H2324612   0.044   1.931   2.257
    1STR    H2724613   9.045   1.910   2.447
    1STR    H2824614   0.434   0.717   2.574
    1STR    H2924615   0.224   0.678   2.717
    1STR    H2A24616   9.287   0.428   2.604
    1STR    H2B24617   9.309   0.546   2.727
    1STR    H2C24618   0.052   0.381   2.745
    1STR   BCK124619   9.198   0.268   4.277
    1STR    O0324620   9.108   0.302   4.204
    1STR    N0424621   0.010   0.288   4.256
    1STR    C0524622   0.064   0.368   4.154
    1STR    C0624623   9.300   0.427   4.059
    1STR    C0724624   0.004   0.550   3.999
    1STR    N0824625   9.216   0.631   3.960
    1STR    C0924626   9.084   0.608   3.978
    1STR    O0A24627   9.028   0.500   3.989
    1STR    O0B24628   9.018   0.720   3.992
    1STR    C0C24629   8.901   0.721   4.075
    1STR    C0D24630   8.776   0.685   3.994
    1STR    C0E24631   8.908   0.639   4.206
    1STR    O0F24632   9.009   0.670   4.301
    1STR    C0G24633   9.139   0.625   4.272
    1STR    C0H24634   9.230   0.736   4.233
    1STR    C0I24635   9.208   0.565   4.385
    1STR    O0J24636   9.119   0.479   4.446
    1STR    C0K24637   0.100   1.509   4.075
    1STR    C0M24638   0.094   1.365   4.028
    1STR    C0N24639   9.287   1.557   4.134
    1STR    O0O24640   9.297   1.698   4.139
    1STR    C0P24641   9.239   1.773   4.230
    1STR    O0Q24642   9.300   1.861   4.287
    1STR    N0R24643   9.108   1.759   4.255
    1STR    C0S24644   9.005   1.679   4.205
    1STR    C0T24645   8.986   1.661   4.067
    1STR    C0U24646   8.872   1.594   4.018
    1STR    C0V24647   8.775   1.544   4.107
    1STR    C0W24648   8.652   1.473   4.054
    1STR    C0X24649   8.798   1.552   4.246
    1STR    N0Y24650   8.722   1.476   4.333
    1STR   BCK224651   8.602   1.495   4.388
    1STR    O1024652   8.541   1.403   4.440
    1STR    C1324653   8.913   1.620   4.293
    1STR    C1424654   0.138   0.592   3.997
    1STR    C1524655   0.237   0.514   4.063
    1STR    C1624656   0.201   0.404   4.145
    1STR    C1724657   0.309   0.320   4.209
    1STR    H1B24658   0.072   0.253   4.326
    1STR    H1C24659   9.207   0.383   4.035
    1STR    H1D24660   9.237   0.730   3.959
    1STR    H1E24661   8.892   0.824   4.102
    1STR    H1F24662   8.779   0.580   3.965
    1STR    H1G24663   8.686   0.700   4.054
    1STR    H1H24664   8.768   0.746   3.904
    1STR    H1I24665   8.906   0.531   4.191
    1STR    H1J24666   8.815   0.662   4.258
    1STR    H1K24667   9.133   0.543   4.203
    1STR    H1M24668   9.195   0.782   4.144
    1STR    H1N24669   0.007   0.696   4.209
    1STR    H1O24670   9.242   0.813   4.309
    1STR    H1P24671   9.297   0.514   4.350
    1STR    H1Q24672   9.248   0.642   4.449
    1STR   C01024673   9.158   0.451   4.576
    1STR   H01124674   9.140   0.544   4.615
    1STR   C01224675   9.044   0.384   4.654
    1STR   H01324676   9.051   0.277   4.668
    1STR   H01424677   8.952   0.407   4.604
    1STR   H01524678   9.025   0.431   4.749
    1STR   C01624679   9.310   0.412   4.589
    1STR   H01724680   0.006   0.389   4.692
    1STR   H01824681   0.011   0.324   4.531
    1STR   O01924682   0.089   0.512   4.557
    1STR   C02024683   0.221   0.489   4.606
    1STR   H02124684   0.203   0.460   4.708
    1STR   C02224685   0.276   0.394   4.503
    1STR   H02324686   0.264   0.448   4.410
    1STR   H02424687   0.223   0.299   4.499
    1STR   H02524688   0.381   0.374   4.519
    1STR   C02624689   0.317   0.608   4.622
    1STR   H02724690   0.317   0.661   4.529
    1STR   H02824691   0.280   0.664   4.705
    1STR   O02924692   0.453   0.593   4.663
    1STR   C03024693   0.520   0.719   4.684
    1STR   H03124694   0.450   0.798   4.695
    1STR   C03224695   0.594   0.727   4.816
    1STR   H03324696   0.697   0.694   4.805
    1STR   H03424697   0.542   0.671   4.894
    1STR   H03524698   0.600   0.830   4.850
    1STR   C03624699   0.609   0.761   4.568
    1STR   H03724700   0.647   0.861   4.589
    1STR   H03824701   0.694   0.693   4.562
    1STR   O03924702   0.536   0.762   4.446
    1STR   C04024703   0.594   0.839   4.341
    1STR   H04124704   0.585   0.944   4.367
    1STR   C04224705   0.743   0.805   4.330
    1STR   H04324706   0.757   0.700   4.349
    1STR   H04424707   0.803   0.858   4.405
    1STR   H04524708   0.785   0.831   4.232
    1STR   C04624709   0.516   0.810   4.211
    1STR   H04724710   0.580   0.825   4.124
    1STR   H04824711   0.486   0.705   4.209
    1STR   O04924712   0.407   0.901   4.197
    1STR   C05024713   0.280   0.845   4.162
    1STR   H05124714   0.298   0.781   4.077
    1STR   C05224715   0.235   0.763   4.284
    1STR   H05324716   0.309   0.771   4.362
    1STR   H05424717   0.221   0.657   4.267
    1STR   H05524718   0.143   0.801   4.329
    1STR   C05624719   0.185   0.961   4.122
    1STR   H05724720   0.183   1.035   4.201
    1STR   H05824721   0.231   1.011   4.037
    1STR   O05924722   0.049   0.925   4.087
    1STR   C06024723   9.278   1.034   4.059
    1STR   H06124724   9.299   1.114   4.130
    1STR   C06224725   9.310   1.073   3.914
    1STR   H06324726   9.293   0.989   3.848
    1STR   H06424727   0.094   1.105   3.900
    1STR   H06524728   9.246   1.155   3.880
    1STR   C06624729   9.123   1.008   4.068
    1STR   H06724730   9.067   1.092   4.031
    1STR   H06824731   9.101   0.934   3.992
    1STR   O06924732   9.067   0.954   4.190
    1STR   C07024733   8.970   1.013   4.279
    1STR   H07124734   9.010   1.104   4.318
    1STR   C07224735   8.830   1.037   4.220
    1STR   H07324736   8.835   1.077   4.119
    1STR   H07424737   8.776   1.108   4.282
    1STR   H07524738   8.769   0.947   4.219
    1STR   C07624739   8.965   0.921   4.402
    1STR   H07724740   8.889   0.845   4.388
    1STR   H07824741   9.061   0.872   4.407
    1STR   O07924742   8.948   0.983   4.528
    1STR   C08024743   8.927   0.890   4.636
    1STR   H08124744   8.959   0.940   4.726
    1STR   C08224745   8.777   0.871   4.647
    1STR   H08324746   8.736   0.831   4.554
    1STR   H08424747   8.727   0.965   4.668
    1STR   H08524748   8.754   0.800   4.726
    1STR   C08624749   9.000   0.752   4.631
    1STR   H08724750   8.986   0.696   4.723
    1STR   H08824751   8.955   0.689   4.554
    1STR   O08924752   9.139   0.760   4.595
    1STR   C09024753   9.241   0.734   4.693
    1STR   H09124754   9.186   0.782   4.767
    1STR   C09224755   9.253   0.625   4.797
    1STR   H09324756   0.016   0.560   4.780
    1STR   H09424757   9.162   0.574   4.829
    1STR   H09524758   9.293   0.673   4.883
    1STR   C09624759   0.064   0.782   4.656
    1STR   H09724760   0.120   0.764   4.746
    1STR   H09824761   0.099   0.726   4.571
    1STR   O09924762   0.099   0.911   4.615
    1STR   C10024763   0.237   0.936   4.617
    1STR   H10124764   0.288   0.847   4.593
    1STR   C10224765   0.272   1.012   4.494
    1STR   H10324766   0.240   1.113   4.500
    1STR   H10424767   0.224   0.972   4.408
    1STR   H10524768   0.378   0.999   4.472
    1STR   C10624769   0.287   0.994   4.750
    1STR   H10724770   0.385   1.038   4.739
    1STR   H10824771   0.221   1.074   4.781
    1STR   O10924772   0.295   0.882   4.840
    1STR   C11024773   0.284   0.901   4.980
    1STR   H11124774   0.291   0.802   5.024
    1STR   C11224775   0.400   0.985   5.035
    1STR   H11324776   0.418   1.074   4.975
    1STR   H11424777   0.492   0.928   5.035
    1STR   H11524778   0.380   1.017   5.137
    1STR   C11624779   0.144   0.952   5.014
    1STR   H11724780   0.127   0.958   5.121
    1STR   H11824781   0.134   1.052   4.974
    1STR   O11924782   0.045   0.870   4.955
    1STR   C12024783   9.244   0.938   4.924
    1STR   H12124784   9.254   1.023   4.984
    1STR   C12224785   9.236   0.998   4.784
    1STR   H12324786   9.213   0.957   4.689
    1STR   H12424787   0.002   1.060   4.763
    1STR   H12524788   9.141   1.042   4.773
    1STR   C12624789   9.113   0.884   4.983
    1STR   H12724790   9.025   0.931   4.941
    1STR   H12824791   9.106   0.779   4.962
    1STR   O12924792   9.136   0.923   5.117
    1STR   C13024793   9.055   0.907   5.230
    1STR   H13124794   9.030   0.803   5.239
    1STR   C13224795   9.169   0.944   5.325
    1STR   H13324796   9.246   0.870   5.310
    1STR   H13424797   9.140   0.952   5.430
    1STR   H13524798   9.216   1.038   5.303
    1STR   C13624799   8.931   0.995   5.256
    1STR   H13724800   8.841   0.936   5.259
    1STR   H13824801   8.938   1.035   5.357
    1STR   O13924802   8.905   1.094   5.160
    1STR   C14024803   8.855   1.217   5.210
    1STR   H14124804   8.852   1.282   5.123
    1STR   C14224805   8.710   1.196   5.254
    1STR   H14324806   8.703   1.130   5.341
    1STR   H14424807   8.652   1.151   5.174
    1STR   H14524808   8.663   1.291   5.280
    1STR   C14624809   8.942   1.287   5.319
    1STR   H14724810   8.941   1.394   5.304
    1STR   H14824811   8.893   1.272   5.416
    1STR   O14924812   9.074   1.238   5.340
    1STR   C15024813   9.176   1.290   5.255
    1STR   H15124814   9.154   1.393   5.235
    1STR   C15224815   9.306   1.295   5.335
    1STR   H15324816   0.029   1.197   5.355
    1STR   H15424817   9.293   1.346   5.430
    1STR   H15524818   0.060   1.351   5.277
    1STR   C15624819   9.190   1.209   5.125
    1STR   H15724820   9.280   1.148   5.133
    1STR   H15824821   9.109   1.143   5.113
    1STR   O15924822   9.189   1.287   5.009
    1STR   C16024823   9.158   1.249   4.874
    1STR   H16124824   9.237   1.187   4.897
    1STR   C16224825   9.010   1.208   4.869
    1STR   H16324826   8.986   1.126   4.935
    1STR   H16424827   8.985   1.179   4.768
    1STR   H16524828   8.944   1.288   4.899
    1STR   C16624829   9.226   1.288   4.732
    1STR   H16724830   9.229   1.392   4.702
    1STR   H16824831   0.012   1.266   4.741
    1STR   O16924832   9.188   1.208   4.618
    1STR   C17024833   9.282   1.202   4.510
    1STR   H17124834   0.063   1.212   4.551
    1STR   C17224835   9.277   1.072   4.430
    1STR   H17324836   9.255   0.984   4.487
    1STR   H17424837   0.047   1.059   4.372
    1STR   H17524838   9.203   1.069   4.354
    1STR   C17624839   9.263   1.315   4.411
    1STR   H17724840   9.246   1.407   4.462
    1STR   H17824841   0.035   1.322   4.352
    1STR   O17924842   9.164   1.286   4.316
    1STR   C18024843   9.039   1.347   4.333
    1STR   H18124844   9.066   1.450   4.340
    1STR   C18224845   8.977   1.323   4.196
    1STR   H18324846   9.012   1.233   4.154
    1STR   H18424847   9.008   1.398   4.125
    1STR   H18524848   8.869   1.314   4.198
    1STR   C18624849   8.952   1.310   4.458
    1STR   H18724850   8.857   1.267   4.429
    1STR   H18824851   8.996   1.231   4.517
    1STR   O18924852   8.933   1.430   4.535
    1STR   C19024853   8.853   1.434   4.654
    1STR   H19124854   8.776   1.505   4.625
    1STR   C19224855   8.769   1.308   4.684
    1STR   H19324856   8.818   1.214   4.660
    1STR   H19424857   8.678   1.308   4.624
    1STR   H19524858   8.737   1.304   4.788
    1STR   C19624859   8.919   1.508   4.776
    1STR   H19724860   8.906   1.613   4.759
    1STR   H19824861   8.857   1.486   4.862
    1STR   O19924862   9.060   1.485   4.803
    1STR   C20024863   9.130   1.528   4.924
    1STR   H20124864   9.126   1.635   4.925
    1STR   C20224865   9.039   1.509   5.046
    1STR   H20324866   9.015   1.407   5.068
    1STR   H20424867   8.941   1.554   5.040
    1STR   H20524868   9.092   1.552   5.130
    1STR   C20624869   9.291   1.494   4.951
    1STR   H20724870   0.028   1.575   4.932
    1STR   H20824871   9.305   1.475   5.057
    1STR   O20924872   0.075   1.416   4.883
    1STR   C21024873   0.205   1.409   4.949
    1STR   H21124874   0.211   1.500   5.006
    1STR   C21224875   0.216   1.296   5.048
    1STR   H21324876   0.256   1.211   4.996
    1STR   H21424877   0.119   1.271   5.088
    1STR   H21524878   0.284   1.318   5.130
    1STR   C21624879   0.338   1.414   4.869
    1STR   H21724880   0.340   1.503   4.810
    1STR   H21824881   0.410   1.436   4.947
    1STR   O21924882   0.388   1.299   4.797
    1STR   C22024883   0.522   1.320   4.746
    1STR   H22124884   0.523   1.416   4.694
    1STR   C22224885   0.624   1.321   4.862
    1STR   H22324886   0.620   1.228   4.919
    1STR   H22424887   0.612   1.402   4.933
    1STR   H22524888   0.726   1.332   4.824
    1STR   C22624889   0.579   1.214   4.647
    1STR   H22724890   0.676   1.248   4.610
    1STR   H22824891   0.600   1.122   4.703
    1STR   O22924892   0.506   1.168   4.534
    1STR   C23024893   0.480   1.259   4.428
    1STR   H23124894   0.566   1.322   4.418
    1STR   C23224895   0.473   1.191   4.291
    1STR   H23324896   0.389   1.123   4.284
    1STR   H23424897   0.564   1.136   4.269
    1STR   H23524898   0.460   1.265   4.212
    1STR   C23624899   0.349   1.331   4.460
    1STR   H23724900   0.273   1.317   4.383
    1STR   H23824901   0.310   1.290   4.553
    1STR   O23924902   0.371   1.466   4.480
    1STR   C24024903   0.268   1.528   4.553
    1STR   H24124904   0.234   1.462   4.633
    1STR   C24224905   0.324   1.652   4.617
    1STR   H24324906   0.420   1.629   4.662
    1STR   H24424907   0.253   1.679   4.691
    1STR   H24524908   0.331   1.741   4.556
    1STR   C24624909   0.148   1.568   4.473
    1STR   H24724910   0.163   1.664   4.422
    1STR   H24824911   0.127   1.497   4.396
    1STR   O24924912   0.048   1.564   4.572
    1STR   C25024913   9.286   1.676   4.576
    1STR   H25124914   9.312   1.751   4.502
    1STR   C25224915   9.151   1.633   4.530
    1STR   H25324916   9.118   1.549   4.588
    1STR   H25424917   9.160   1.602   4.428
    1STR   H25524918   9.077   1.714   4.538
    1STR   C25624919   9.276   1.731   4.717
    1STR   H25724920   9.238   1.828   4.698
    1STR   H25824921   9.195   1.677   4.755
    1STR   O25924922   0.071   1.728   4.804
    1STR   C26024923   0.082   1.797   4.934
    1STR   H26124924   0.080   1.903   4.918
    1STR   C26224925   9.312   1.764   5.055
    1STR   H26324926   0.007   1.671   5.105
    1STR   H26424927   9.207   1.780   5.048
    1STR   H26524928   0.029   1.826   5.133
    1STR   C26624929   0.218   1.771   4.996
    1STR   H26724930   0.242   1.860   5.052
    1STR   H26824931   0.216   1.693   5.070
    1STR   O26924932   0.306   1.728   4.898
    1STR   C27024933   0.433   1.786   4.890
    1STR   H27124934   0.456   1.790   4.784
    1STR   C27224935   0.434   1.929   4.927
    1STR   H27324936   0.440   1.944   5.033
    1STR   H27424937   0.344   1.975   4.887
    1STR   H27524938   0.516   1.977   4.877
    1STR   C27624939   0.533   1.699   4.963
    1STR   H27724940   0.601   1.756   5.027
    1STR   H27824941   0.482   1.629   5.029
    1STR   O27924942   0.602   1.630   4.862
    1STR   C28024943   0.702   1.707   4.799
    1STR   H28124944   0.682   1.814   4.805
    1STR   C28224945   0.830   1.672   4.876
    1STR   H28324946   0.919   1.705   4.825
    1STR   H28424947   0.838   1.564   4.889
    1STR   H28524948   0.829   1.716   4.976
    1STR   C28624949   0.710   1.671   4.650
    1STR   H28724950   0.806   1.701   4.610
    1STR   H28824951   0.708   1.563   4.648
    1STR   O28924952   0.607   1.732   4.568
    1STR   C29024953   0.607   1.700   4.426
    1STR   H29124954   0.678   1.759   4.375
    1STR   C29224955   0.650   1.557   4.406
    1STR   H29324956   0.598   1.501   4.482
    1STR   H29424957   0.757   1.546   4.424
    1STR   H29524958   0.625   1.520   4.307
    1STR   C29624959   0.474   1.729   4.351
    1STR   H29724960   0.401   1.658   4.380
    1STR   H29824961   0.430   1.825   4.379
    1STR   O29924962   0.481   1.719   4.209
    1STR   C30024963   0.352   1.698   4.151
    1STR   H30124964   0.274   1.743   4.215
    1STR   C30224965   0.341   1.767   4.015
    1STR   H30324966   0.420   1.734   3.948
    1STR   H30424967   0.349   1.875   4.025
    1STR   H30524968   0.246   1.749   3.967
    1STR   C30624969   0.329   1.546   4.142
    1STR   H30724970   0.358   1.506   4.045
    1STR   H30824971   0.392   1.496   4.215
    1STR   O30924972   0.196   1.514   4.179
    1STR    H1R24973   0.126   1.573   3.991
    1STR    H1S24974   0.017   1.352   3.952
    1STR    H1T24975   0.071   1.301   4.113
    1STR    H1U24976   0.189   1.332   3.987
    1STR    H1V24977   9.269   1.518   4.234
    1STR    H1W24978   9.204   1.527   4.071
    1STR    H1X24979   9.084   1.827   4.327
    1STR    H1Y24980   9.057   1.700   3.999
    1STR    H1Z24981   8.860   1.584   3.911
    1STR    H2024982   8.643   1.374   4.100
    1STR    H2124983   8.563   1.530   4.082
    1STR    H2224984   8.654   1.462   3.946
    1STR    H2324985   8.766   1.392   4.365
    1STR    H2724986   8.930   1.627   4.399
    1STR    H2824987   0.165   0.682   3.944
    1STR    H2924988   0.341   0.541   4.055
    1STR    H2A24989   0.270   0.253   4.285
    1STR    H2B24990   0.388   0.383   4.250
    1STR    H2C24991   0.356   0.256   4.136
    1STR   BCK124992   0.022   0.340   7.111
    1STR    O0324993   0.131   0.294   7.132
    1STR    N0424994   9.242   0.341   7.196
    1STR    C0524995   9.250   0.372   7.331
    1STR    C0624996   0.054   0.394   7.395
    1STR    C0724997   0.063   0.472   7.512
    1STR    N0824998   0.189   0.520   7.548
    1STR    C0924999   0.219   0.634   7.611
    1STR    O0A25000   0.153   0.680   7.703
    1STR    O0B25001   0.328   0.698   7.563
    1STR    C0C25002   0.415   0.660   7.454
    1STR    C0D25003   0.522   0.567   7.514
    1STR    C0E25004   0.356   0.612   7.317
    1STR    O0F25005   0.275   0.700   7.239
    1STR    C0G25006   0.171   0.639   7.161
    1STR    C0H25007   0.049   0.646   7.250
    1STR    C0I25008   0.114   0.708   7.036
    1STR    O0J25009   0.160   0.670   6.909
    1STR    C0K25010   9.166   1.521   6.484
    1STR    C0M25011   9.240   1.394   6.444
    1STR    C0N25012   9.022   1.482   6.522
    1STR    O0O25013   8.943   1.584   6.575
    1STR    C0P25014   8.818   1.553   6.600
    1STR    O0Q25015   8.737   1.531   6.512
    1STR    N0R25016   8.784   1.542   6.729
    1STR    C0S25017   8.842   1.595   6.844
    1STR    C0T25018   8.761   1.622   6.956
    1STR    C0U25019   8.809   1.705   7.060
    1STR    C0V25020   8.938   1.761   7.055
    1STR    C0W25021   8.991   1.854   7.162
    1STR    C0X25022   9.018   1.732   6.944
    1STR    N0Y25023   9.135   1.802   6.919
    1STR   BCK225024   9.142   1.903   6.832
    1STR    O1025025   9.247   1.953   6.794
    1STR    C1325026   8.973   1.643   6.847
    1STR    C1425027   9.263   0.515   7.571
    1STR    C1525028   9.141   0.500   7.504
    1STR    C1625029   9.132   0.422   7.388
    1STR    C1725030   8.996   0.393   7.330
    1STR    H1B25031   9.152   0.352   7.152
    1STR    H1C25032   0.146   0.365   7.348
    1STR    H1D25033   0.266   0.484   7.495
    1STR    H1E25034   0.471   0.751   7.431
    1STR    H1F25035   0.481   0.474   7.550
    1STR    H1G25036   0.601   0.544   7.442
    1STR    H1H25037   0.570   0.615   7.599
    1STR    H1I25038   0.306   0.517   7.327
    1STR    H1J25039   0.440   0.598   7.251
    1STR    H1K25040   0.197   0.538   7.136
    1STR    H1M25041   0.072   0.649   7.355
    1STR    H1N25042   9.295   0.576   7.223
    1STR    H1O25043   9.309   0.733   7.230
    1STR    H1P25044   0.013   0.673   7.031
    1STR    H1Q25045   0.095   0.814   7.048
    1STR   C01025046   0.085   0.734   6.806
    1STR   H01125047   0.080   0.840   6.827
    1STR   C01225048   0.168   0.708   6.682
    1STR   H01325049   0.161   0.604   6.655
    1STR   H01425050   0.273   0.727   6.696
    1STR   H01525051   0.134   0.771   6.600
    1STR   C01625052   9.259   0.687   6.781
    1STR   H01725053   9.216   0.746   6.700
    1STR   H01825054   9.266   0.585   6.742
    1STR   O01925055   9.170   0.697   6.893
    1STR   C02025056   9.072   0.593   6.902
    1STR   H02125057   9.099   0.509   6.840
    1STR   C02225058   9.049   0.544   7.044
    1STR   H02325059   9.107   0.600   7.117
    1STR   H02425060   9.074   0.440   7.050
    1STR   H02525061   8.944   0.543   7.070
    1STR   C02625062   8.943   0.643   6.849
    1STR   H02725063   8.861   0.574   6.850
    1STR   H02825064   8.912   0.719   6.916
    1STR   O02925065   8.962   0.686   6.720
    1STR   C03025066   8.902   0.809   6.699
    1STR   H03125067   8.954   0.879   6.763
    1STR   C03225068   8.950   0.819   6.554
    1STR   H03325069   8.971   0.728   6.501
    1STR   H03425070   9.050   0.860   6.556
    1STR   H03525071   8.881   0.875   6.491
    1STR   C03625072   8.747   0.824   6.727
    1STR   H03725073   8.718   0.929   6.725
    1STR   H03825074   8.687   0.781   6.648
    1STR   O03925075   8.700   0.764   6.849
    1STR   C04025076   8.678   0.845   6.964
    1STR   H04125077   8.736   0.935   6.960
    1STR   C04225078   8.529   0.877   6.958
    1STR   H04325079   8.470   0.787   6.969
    1STR   H04425080   8.502   0.919   6.861
    1STR   H04525081   8.498   0.948   7.035
    1STR   C04625082   8.719   0.769   7.094
    1STR   H04725083   8.631   0.733   7.143
    1STR   H04825084   8.771   0.678   7.069
    1STR   O04925085   8.786   0.839   7.200
    1STR   C05025086   8.923   0.803   7.212
    1STR   H05125087   8.934   0.696   7.202
    1STR   C05225088   8.993   0.882   7.104
    1STR   H05325089   8.955   0.882   7.004
    1STR   H05425090   9.100   0.861   7.100
    1STR   H05525091   8.972   0.984   7.130
    1STR   C05625092   8.989   0.833   7.347
    1STR   H05725093   8.965   0.936   7.367
    1STR   H05825094   8.944   0.774   7.427
    1STR   O05925095   9.132   0.809   7.342
    1STR   C06025096   9.218   0.880   7.436
    1STR   H06125097   9.186   0.980   7.445
    1STR   C06225098   9.198   0.825   7.575
    1STR   H06325099   9.272   0.749   7.588
    1STR   H06425100   9.098   0.787   7.595
    1STR   H06525101   9.224   0.895   7.652
    1STR   C06625102   0.049   0.907   7.403
    1STR   H06725103   0.078   0.996   7.457
    1STR   H06825104   0.106   0.828   7.450
    1STR   O06925105   0.092   0.921   7.265
    1STR   C07025106   0.217   0.987   7.236
    1STR   H07125107   0.204   1.095   7.243
    1STR   C07225108   0.320   0.958   7.342
    1STR   H07325109   0.298   0.872   7.401
    1STR   H07425110   0.319   1.041   7.409
    1STR   H07525111   0.420   0.944   7.302
    1STR   C07625112   0.282   0.964   7.097
    1STR   H07725113   0.375   1.021   7.098
    1STR   H07825114   0.316   0.862   7.092
    1STR   O07925115   0.212   0.992   6.973
    1STR   C08025116   0.302   0.991   6.859
    1STR   H08125117   0.366   1.072   6.880
    1STR   C08225118   0.410   0.884   6.864
    1STR   H08325119   0.366   0.786   6.874
    1STR   H08425120   0.480   0.896   6.946
    1STR   H08525121   0.469   0.893   6.774
    1STR   C08625122   0.253   1.017   6.712
    1STR   H08725123   0.301   1.107   6.677
    1STR   H08825124   0.293   0.940   6.647
    1STR   O08925125   0.113   1.026   6.687
    1STR   C09025126   0.072   1.085   6.562
    1STR   H09125127   0.079   1.193   6.574
    1STR   C09225128   0.158   1.043   6.443
    1STR   H09325129   0.168   0.935   6.442
    1STR   H09425130   0.258   1.087   6.446
    1STR   H09525131   0.111   1.074   6.349
    1STR   C09625132   9.245   1.043   6.540
    1STR   H09725133   9.243   0.941   6.505
    1STR   H09825134   9.207   1.037   6.641
    1STR   O09925135   9.165   1.128   6.455
    1STR   C10025136   9.025   1.096   6.445
    1STR   H10125137   9.028   0.997   6.401
    1STR   C10225138   8.962   1.105   6.583
    1STR   H10325139   8.956   1.205   6.622
    1STR   H10425140   9.011   1.045   6.655
    1STR   H10525141   8.862   1.064   6.584
    1STR   C10625142   8.932   1.173   6.347
    1STR   H10725143   8.994   1.232   6.280
    1STR   H10825144   8.879   1.102   6.283
    1STR   O10925145   8.836   1.261   6.409
    1STR   C11025146   8.706   1.220   6.461
    1STR   H11125147   8.642   1.293   6.411
    1STR   C11225148   8.648   1.084   6.421
    1STR   H11325149   8.703   0.999   6.462
    1STR   H11425150   8.644   1.072   6.313
    1STR   H11525151   8.546   1.075   6.459
    1STR   C11625152   8.690   1.258   6.612
    1STR   H11725153   8.777   1.318   6.631
    1STR   H11825154   8.602   1.320   6.627
    1STR   O11925155   8.699   1.161   6.715
    1STR   C12025156   8.722   1.217   6.846
    1STR   H12125157   8.740   1.324   6.844
    1STR   C12225158   8.595   1.198   6.929
    1STR   H12325159   8.520   1.141   6.874
    1STR   H12425160   8.550   1.293   6.954
    1STR   H12525161   8.615   1.146   7.023
    1STR   C12625162   8.850   1.157   6.909
    1STR   H12725163   8.843   1.145   7.017
    1STR   H12825164   8.866   1.059   6.866
    1STR   O12925165   8.963   1.238   6.882
    1STR   C13025166   9.087   1.168   6.879
    1STR   H13125167   9.077   1.069   6.836
    1STR   C13225168   9.179   1.252   6.793
    1STR   H13325169   9.189   1.351   6.835
    1STR   H13425170   9.141   1.263   6.693
    1STR   H13525171   9.277   1.208   6.785
    1STR   C13625172   9.155   1.136   7.010
    1STR   H13725173   9.185   1.032   7.012
    1STR   H13825174   9.252   1.186   7.004
    1STR   O13925175   9.083   1.174   7.127
    1STR   C14025176   9.141   1.134   7.251
    1STR   H14125177   9.139   1.027   7.251
    1STR   C14225178   9.288   1.168   7.242
    1STR   H14325179   9.314   1.266   7.206
    1STR   H14425180   0.014   1.104   7.169
    1STR   H14525181   0.016   1.151   7.336
    1STR   C14625182   9.074   1.190   7.383
    1STR   H14725183   9.150   1.245   7.435
    1STR   H14825184   8.996   1.259   7.357
    1STR   O14925185   9.023   1.108   7.489
    1STR   C15025186   9.028   1.168   7.619
    1STR   H15125187   9.018   1.276   7.609
    1STR   C15225188   8.899   1.119   7.686
    1STR   H15325189   8.902   1.010   7.698
    1STR   H15425190   8.812   1.141   7.624
    1STR   H15525191   8.884   1.164   7.783
    1STR   C15625192   9.152   1.140   7.709
    1STR   H15725193   9.160   1.223   7.780
    1STR   H15825194   9.128   1.052   7.768
    1STR   O15925195   9.283   1.118   7.651
    1STR   C16025196   0.075   1.116   7.744
    1STR   H16125197   0.094   1.220   7.771
    1STR   C16225198   0.043   1.038   7.873
    1STR   H16325199   0.019   0.934   7.851
    1STR   H16425200   9.281   1.082   7.929
    1STR   H16525201   0.128   1.038   7.940
    1STR   C16625202   0.209   1.058   7.685
    1STR   H16725203   0.274   1.029   7.767
    1STR   H16825204   0.191   0.964   7.633
    1STR   O16925205   0.277   1.150   7.599
    1STR   C17025206   0.416   1.185   7.618
    1STR   H17125207   0.419   1.283   7.571
    1STR   C17225208   0.450   1.208   7.765
    1STR   H17325209   0.473   1.115   7.817
    1STR   H17425210   0.367   1.256   7.817
    1STR   H17525211   0.538   1.273   7.774
    1STR   C17625212   0.528   1.102   7.545
    1STR   H17725213   0.624   1.132   7.588
    1STR   H17825214   0.515   0.996   7.566
    1STR   O17925215   0.537   1.122   7.403
    1STR   C18025216   0.662   1.101   7.336
    1STR   H18125217   0.728   1.182   7.368
    1STR   C18225218   0.724   0.966   7.374
    1STR   H18325219   0.657   0.884   7.348
    1STR   H18425220   0.747   0.959   7.480
    1STR   H18525221   0.817   0.951   7.320
    1STR   C18625222   0.649   1.109   7.181
    1STR   H18725223   0.606   1.016   7.143
    1STR   H18825224   0.581   1.186   7.146
    1STR   O18925225   0.778   1.131   7.124
    1STR   C19025226   0.789   1.160   6.983
    1STR   H19125227   0.891   1.130   6.961
    1STR   C19225228   0.698   1.073   6.896
    1STR   H19325229   0.720   1.087   6.790
    1STR   H19425230   0.594   1.100   6.911
    1STR   H19525231   0.709   0.968   6.920
    1STR   C19625232   0.784   1.312   6.951
    1STR   H19725233   0.798   1.366   7.044
    1STR   H19825234   0.868   1.341   6.889
    1STR   O19925235   0.660   1.359   6.897
    1STR   C20025236   0.639   1.386   6.757
    1STR   H20125237   0.600   1.487   6.752
    1STR   C20225238   0.762   1.383   6.665
    1STR   H20325239   0.808   1.285   6.665
    1STR   H20425240   0.835   1.458   6.695
    1STR   H20525241   0.733   1.405   6.562
    1STR   C20625242   0.522   1.302   6.704
    1STR   H20725243   0.460   1.356   6.633
    1STR   H20825244   0.559   1.212   6.654
    1STR   O20925245   0.445   1.258   6.812
    1STR   C21025246   0.345   1.343   6.863
    1STR   H21125247   0.382   1.445   6.859
    1STR   C21225248   0.217   1.331   6.783
    1STR   H21325249   0.168   1.236   6.804
    1STR   H21425250   0.231   1.341   6.676
    1STR   H21525251   0.148   1.406   6.821
    1STR   C21625252   0.309   1.302   7.007
    1STR   H21725253   0.207   1.332   7.030
    1STR   H21825254   0.303   1.198   7.021
    1STR   O21925255   0.403   1.354   7.097
    1STR   C22025256   0.375   1.328   7.233
    1STR   H22125257   0.371   1.221   7.250
    1STR   C22225258   0.499   1.386   7.298
    1STR   H22325259   0.485   1.491   7.289
    1STR   H22425260   0.592   1.365   7.247
    1STR   H22525261   0.510   1.362   7.402
    1STR   C22625262   0.247   1.398   7.288
    1STR   H22725263   0.271   1.493   7.335
    1STR   H22825264   0.176   1.422   7.210
    1STR   O22925265   0.181   1.313   7.379
    1STR   C23025266   0.074   1.368   7.457
    1STR   H23125267   0.023   1.284   7.500
    1STR   C23225268   0.137   1.436   7.578
    1STR   H23325269   0.176   1.534   7.554
    1STR   H23425270   0.217   1.378   7.622
    1STR   H23525271   0.060   1.446   7.654
    1STR   C23625272   9.291   1.461   7.387
    1STR   H23725273   9.239   1.507   7.469
    1STR   H23825274   0.029   1.533   7.336
    1STR   O23925275   9.185   1.415   7.304
    1STR   C24025276   9.124   1.491   7.200
    1STR   H24125277   9.108   1.592   7.231
    1STR   C24225278   9.212   1.483   7.077
    1STR   H24325279   9.206   1.383   7.039
    1STR   H24425280   9.316   1.501   7.097
    1STR   H24525281   9.181   1.549   6.997
    1STR   C24625282   8.979   1.447   7.173
    1STR   H24725283   8.936   1.509   7.098
    1STR   H24825284   8.965   1.350   7.130
    1STR   O24925285   8.914   1.457   7.297
    1STR   C25025286   8.777   1.435   7.319
    1STR   H25125287   8.720   1.519   7.281
    1STR   C25225288   8.726   1.309   7.247
    1STR   H25325289   8.784   1.221   7.274
    1STR   H25425290   8.734   1.322   7.139
    1STR   H25525291   8.622   1.290   7.270
    1STR   C25625292   8.768   1.422   7.473
    1STR   H25725293   8.663   1.415   7.500
    1STR   H25825294   8.814   1.329   7.503
    1STR   O25925295   8.825   1.528   7.553
    1STR   C26025296   8.968   1.542   7.553
    1STR   H26125297   9.017   1.456   7.508
    1STR   C26225298   9.007   1.663   7.471
    1STR   H26325299   8.988   1.755   7.526
    1STR   H26425300   8.960   1.664   7.375
    1STR   H26525301   9.110   1.662   7.444
    1STR   C26625302   9.023   1.562   7.694
    1STR   H26725303   8.974   1.646   7.742
    1STR   H26825304   8.999   1.474   7.754
    1STR   O26925305   9.165   1.574   7.687
    1STR   C27025306   9.222   1.702   7.713
    1STR   H27125307   9.152   1.763   7.769
    1STR   C27225308   0.026   1.676   7.798
    1STR   H27325309   0.108   1.634   7.740
    1STR   H27425310   0.006   1.611   7.883
    1STR   H27525311   0.065   1.770   7.833
    1STR   C27625312   9.264   1.789   7.593
    1STR   H27725313   9.180   1.846   7.553
    1STR   H27825314   0.012   1.864   7.629
    1STR   O27925315   0.007   1.714   7.491
    1STR   C28025316   0.067   1.792   7.391
    1STR   H28125317   0.024   1.889   7.398
    1STR   C28225318   0.213   1.787   7.425
    1STR   H28325319   0.246   1.685   7.427
    1STR   H28425320   0.234   1.832   7.522
    1STR   H28525321   0.272   1.836   7.350
    1STR   C28625322   0.034   1.754   7.246
    1STR   H28725323   9.261   1.704   7.253
    1STR   H28825324   9.318   1.835   7.185
    1STR   O28925325   0.128   1.665   7.185
    1STR   C29025326   0.212   1.715   7.082
    1STR   H29125327   0.283   1.785   7.122
    1STR   C29225328   0.308   1.612   7.046
    1STR   H29325329   0.248   1.532   7.009
    1STR   H29425330   0.370   1.584   7.130
    1STR   H29525331   0.372   1.648   6.967
    1STR   C29625332   0.138   1.758   6.954
    1STR   H29725333   0.059   1.827   6.972
    1STR   H29825334   0.206   1.815   6.891
    1STR   O29925335   0.079   1.646   6.888
    1STR   C30025336   0.074   1.662   6.748
    1STR   H30125337   0.037   1.760   6.723
    1STR   C30225338   0.218   1.652   6.695
    1STR   H30325339   0.295   1.671   6.769
    1STR   H30425340   0.231   1.727   6.618
    1STR   H30525341   0.245   1.555   6.656
    1STR   C30625342   9.296   1.560   6.688
    1STR   H30725343   0.024   1.465   6.669
    1STR   H30825344   9.220   1.540   6.762
    1STR   O30925345   9.237   1.610   6.569
    1STR    H1R25346   9.156   1.579   6.395
    1STR    H1S25347   9.187   1.343   6.364
    1STR    H1T25348   9.244   1.329   6.530
    1STR    H1U25349   0.022   1.400   6.410
    1STR    H1V25350   9.021   1.402   6.594
    1STR    H1W25351   8.973   1.445   6.432
    1STR    H1X25352   8.689   1.510   6.738
    1STR    H1Y25353   8.661   1.583   6.961
    1STR    H1Z25354   8.742   1.729   7.141
    1STR    H2025355   9.050   1.801   7.237
    1STR    H2125356   9.057   1.925   7.117
    1STR    H2225357   8.913   1.909   7.213
    1STR    H2325358   9.222   1.771   6.960
    1STR    H2725359   9.039   1.620   6.767
    1STR    H2825360   9.265   0.566   7.666
    1STR    H2925361   9.051   0.542   7.547
    1STR    H2A25362   8.996   0.321   7.248
    1STR    H2B25363   8.948   0.485   7.297
    1STR    H2C25364   8.936   0.348   7.408
    1STR   BCK125365   9.264   2.546   0.076
    1STR    O0325366   9.317   2.578   9.294
    1STR    N0425367   0.004   2.473   0.166
    1STR    C0525368   0.136   2.444   0.174
    1STR    C0625369   0.236   2.514   0.105
    1STR    C0725370   0.371   2.495   0.135
    1STR    N0825371   0.459   2.594   0.100
    1STR    C0925372   0.507   2.678   0.194
    1STR    O0A25373   0.596   2.653   0.271
    1STR    O0B25374   0.465   2.802   0.186
    1STR    C0C25375   0.479   2.873   0.067
    1STR    C0D25376   0.614   2.840   0.006
    1STR    C0E25377   0.347   2.863   9.311
    1STR    O0F25378   0.235   2.935   0.035
    1STR    C0G25379   0.123   2.854   0.051
    1STR    C0H25380   0.134   2.805   0.191
    1STR    C0I25381   9.314   2.926   0.032
    1STR    O0J25382   9.279   2.953   9.220
    1STR    C0K25383   0.202   4.118   0.284
    1STR    C0M25384   0.309   4.170   0.191
    1STR    C0N25385   0.081   4.076   0.200
    1STR    O0O25386   9.279   4.100   0.265
    1STR    C0P25387   9.252   4.213   0.327
    1STR    O0Q25388   9.168   4.219   0.413
    1STR    N0R25389   9.307   4.327   0.288
    1STR    C0S25390   0.037   4.364   0.165
    1STR    C0T25391   0.156   4.436   0.164
    1STR    C0U25392   0.210   4.477   0.044
    1STR    C0V25393   0.155   4.434   9.246
    1STR    C0W25394   0.227   4.467   9.124
    1STR    C0X25395   0.034   4.366   9.241
    1STR    N0Y25396   9.302   4.342   9.114
    1STR   BCK225397   9.174   4.328   9.081
    1STR    O1025398   9.084   4.305   9.160
    1STR    C1325399   9.295   4.330   0.043
    1STR    C1425400   0.404   2.383   0.211
    1STR    C1525401   0.306   2.315   0.282
    1STR    C1625402   0.172   2.352   0.272
    1STR    C1725403   0.072   2.302   0.373
    1STR    H1B25404   9.263   2.427   0.232
    1STR    H1C25405   0.211   2.593   0.039
    1STR    H1D25406   0.439   2.643   0.015
    1STR    H1E25407   0.502   2.973   0.090
    1STR    H1F25408   0.644   2.901   9.243
    1STR    H1G25409   0.684   2.859   0.086
    1STR    H1H25410   0.632   2.736   9.297
    1STR    H1I25411   0.323   2.760   9.298
    1STR    H1J25412   0.349   2.911   9.216
    1STR    H1K25413   0.121   2.773   9.301
    1STR    H1M25414   0.133   2.886   0.263
    1STR    H1N25415   0.226   2.751   0.208
    1STR    H1O25416   0.051   2.739   0.212
    1STR    H1P25417   9.243   2.853   0.070
    1STR    H1Q25418   9.312   3.017   0.090
    1STR   C01025419   9.159   3.024   9.206
    1STR   H01125420   9.188   3.122   9.241
    1STR   C01225421   9.123   3.017   9.054
    1STR   H01325422   9.050   2.939   9.033
    1STR   H01425423   9.212   2.995   8.995
    1STR   H01525424   9.078   3.103   9.007
    1STR   C01625425   9.036   2.978   9.288
    1STR   H01725426   8.961   3.055   9.273
    1STR   H01825427   8.999   2.886   9.242
    1STR   O01925428   9.049   2.945   0.107
    1STR   C02025429   9.054   3.048   0.203
    1STR   H02125430   9.064   3.143   0.150
    1STR   C02225431   8.926   3.043   0.286
    1STR   H02325432   8.916   2.945   0.332
    1STR   H02425433   8.836   3.061   0.230
    1STR   H02525434   8.930   3.113   0.369
    1STR   C02625435   9.172   3.028   0.301
    1STR   H02725436   9.135   2.985   0.392
    1STR   H02825437   9.246   2.956   0.272
    1STR   O02925438   9.227   3.156   0.320
    1STR   C03025439   9.297   3.189   0.438
    1STR   H03125440   0.003   3.294   0.427
    1STR   C03225441   9.195   3.188   0.551
    1STR   H03325442   9.140   3.097   0.556
    1STR   H03425443   9.119   3.262   0.532
    1STR   H03525444   9.239   3.205   0.648
    1STR   C03625445   0.113   3.117   0.461
    1STR   H03725446   0.169   3.175   0.534
    1STR   H03825447   0.098   3.019   0.506
    1STR   O03925448   0.194   3.097   0.344
    1STR   C04025449   0.322   3.161   0.341
    1STR   H04125450   0.306   3.264   0.368
    1STR   C04225451   0.413   3.089   0.439
    1STR   H04325452   0.442   2.997   0.389
    1STR   H04425453   0.366   3.065   0.534
    1STR   H04525454   0.504   3.145   0.456
    1STR   C04625455   0.396   3.148   0.206
    1STR   H04725456   0.501   3.125   0.224
    1STR   H04825457   0.345   3.065   0.165
    1STR   O04925458   0.398   3.254   0.111
    1STR   C05025459   0.496   3.266   0.007
    1STR   H05125460   0.596   3.256   0.050
    1STR   C05225461   0.461   3.155   9.235
    1STR   H05325462   0.435   3.190   9.137
    1STR   H05425463   0.369   3.109   9.266
    1STR   H05525464   0.545   3.088   9.231
    1STR   C05625465   0.487   3.399   9.244
    1STR   H05725466   0.414   3.394   9.164
    1STR   H05825467   0.447   3.479   9.304
    1STR   O05925468   0.611   3.453   9.200
    1STR   C06025469   0.668   3.406   9.079
    1STR   H06125470   0.735   3.488   9.052
    1STR   C06225471   0.760   3.289   9.109
    1STR   H06325472   0.700   3.204   9.136
    1STR   H06425473   0.825   3.311   9.194
    1STR   H06525474   0.823   3.264   9.024
    1STR   C06625475   0.575   3.391   8.956
    1STR   H06725476   0.505   3.472   8.964
    1STR   H06825477   0.634   3.407   8.867
    1STR   O06925478   0.501   3.269   8.941
    1STR   C07025479   0.398   3.272   8.841
    1STR   H07125480   0.342   3.364   8.851
    1STR   C07225481   0.462   3.265   8.703
    1STR   H07325482   0.468   3.162   8.670
    1STR   H07425483   0.562   3.307   8.696
    1STR   H07525484   0.400   3.319   8.633
    1STR   C07625485   0.291   3.160   8.852
    1STR   H07725486   0.210   3.177   8.782
    1STR   H07825487   0.334   3.066   8.817
    1STR   O07925488   0.242   3.136   8.984
    1STR   C08025489   0.155   3.235   9.032
    1STR   H08125490   0.208   3.326   9.010
    1STR   C08225491   0.028   3.225   8.947
    1STR   H08325492   0.017   3.314   8.886
    1STR   H08425493   9.259   3.219   9.008
    1STR   H08525494   0.024   3.137   8.882
    1STR   C08625495   0.133   3.235   9.185
    1STR   H08725496   0.029   3.258   9.203
    1STR   H08825497   0.147   3.133   9.222
    1STR   O08925498   0.211   3.331   9.261
    1STR   C09025499   0.161   3.366   0.073
    1STR   H09125500   0.072   3.424   0.056
    1STR   C09225501   0.090   3.250   0.133
    1STR   H09325502   0.147   3.158   0.123
    1STR   H09425503   9.309   3.236   0.096
    1STR   H09525504   0.081   3.274   0.236
    1STR   C09625505   0.242   3.451   0.182
    1STR   H09725506   0.209   3.546   0.146
    1STR   H09825507   0.198   3.443   0.280
    1STR   O09925508   0.385   3.482   0.191
    1STR   C10025509   0.478   3.445   0.298
    1STR   H10125510   0.501   3.340   0.297
    1STR   C10225511   0.613   3.506   0.261
    1STR   H10325512   0.613   3.614   0.262
    1STR   H10425513   0.641   3.475   0.160
    1STR   H10525514   0.691   3.471   0.329
    1STR   C10625515   0.439   3.473   0.445
    1STR   H10725516   0.446   3.579   0.468
    1STR   H10825517   0.336   3.445   0.460
    1STR   O10925518   0.522   3.406   0.539
    1STR   C11025519   0.453   3.339   0.646
    1STR   H11125520   0.382   3.269   0.603
    1STR   C11225521   0.557   3.256   0.721
    1STR   H11325522   0.610   3.189   0.653
    1STR   H11425523   0.510   3.193   0.797
    1STR   H11525524   0.632   3.319   0.770
    1STR   C11625525   0.370   3.432   0.736
    1STR   H11725526   0.387   3.409   0.842
    1STR   H11825527   0.398   3.536   0.721
    1STR   O11925528   0.233   3.404   0.709
    1STR   C12025529   0.141   3.512   0.715
    1STR   H12125530   0.159   3.574   0.803
    1STR   C12225531   0.158   3.587   0.584
    1STR   H12325532   0.254   3.637   0.576
    1STR   H12425533   0.083   3.663   0.572
    1STR   H12525534   0.144   3.521   0.498
    1STR   C12625535   0.003   3.445   0.723
    1STR   H12725536   9.309   3.401   0.625
    1STR   H12825537   0.006   3.364   0.796
    1STR   O12925538   9.212   3.530   0.752
    1STR   C13025539   9.085   3.466   0.730
    1STR   H13125540   9.094   3.358   0.740
    1STR   C13225541   8.987   3.512   0.838
    1STR   H13325542   8.964   3.618   0.829
    1STR   H13425543   9.027   3.494   0.937
    1STR   H13525544   8.893   3.457   0.828
    1STR   C13625545   9.036   3.501   0.588
    1STR   H13725546   9.008   3.606   0.581
    1STR   H13825547   9.125   3.488   0.530
    1STR   O13925548   8.935   3.418   0.529
    1STR   C14025549   8.916   3.446   0.389
    1STR   H14125550   8.905   3.553   0.375
    1STR   C14225551   9.036   3.396   0.305
    1STR   H14325552   9.135   3.424   0.337
    1STR   H14425553   9.032   3.428   0.201
    1STR   H14525554   9.035   3.289   0.303
    1STR   C14625555   8.788   3.381   0.333
    1STR   H14725556   8.784   3.275   0.358
    1STR   H14825557   8.699   3.427   0.376
    1STR   O14925558   8.790   3.402   0.192
    1STR   C15025559   8.722   3.314   0.104
    1STR   H15125560   8.732   3.214   0.142
    1STR   C15225561   8.574   3.355   0.104
    1STR   H15325562   8.562   3.458   0.072
    1STR   H15425563   8.531   3.346   0.204
    1STR   H15525564   8.516   3.292   0.038
    1STR   C15625565   8.781   3.320   9.279
    1STR   H15725566   8.732   3.245   9.219
    1STR   H15825567   8.755   3.416   9.234
    1STR   O15925568   8.923   3.300   9.272
    1STR   C16025569   8.990   3.314   9.144
    1STR   H16125570   9.063   3.240   9.150
    1STR   C16225571   8.901   3.286   9.021
    1STR   H16325572   8.819   3.356   9.012
    1STR   H16425573   8.859   3.185   9.025
    1STR   H16525574   8.960   3.291   8.930
    1STR   C16625575   9.085   3.434   9.129
    1STR   H16725576   9.049   3.491   9.046
    1STR   H16825577   9.071   3.487   9.220
    1STR   O16925578   9.225   3.422   9.099
    1STR   C17025579   9.296   3.547   9.094
    1STR   H17125580   9.241   3.618   9.033
    1STR   C17225581   9.300   3.599   9.233
    1STR   H17325582   0.078   3.600   9.278
    1STR   H17425583   9.241   3.540   9.302
    1STR   H17525584   9.262   3.700   9.229
    1STR   C17625585   0.123   3.555   9.048
    1STR   H17725586   0.164   3.653   9.067
    1STR   H17825587   0.189   3.497   9.111
    1STR   O17925588   0.143   3.524   8.912
    1STR   C18025589   0.193   3.629   8.832
    1STR   H18125590   0.146   3.724   8.861
    1STR   C18225591   0.346   3.638   8.849
    1STR   H18325592   0.396   3.556   8.799
    1STR   H18425593   0.372   3.637   8.955
    1STR   H18525594   0.394   3.726   8.810
    1STR   C18625595   0.146   3.589   8.692
    1STR   H18725596   0.158   3.668   8.619
    1STR   H18825597   0.206   3.504   8.659
    1STR   O18925598   0.012   3.541   8.700
    1STR   C19025599   9.229   3.637   8.719
    1STR   H19125600   9.267   3.724   8.772
    1STR   C19225601   9.184   3.670   8.577
    1STR   H19325602   9.154   3.582   8.521
    1STR   H19425603   9.265   3.715   8.520
    1STR   H19525604   9.099   3.739   8.577
    1STR   C19625605   9.113   3.579   8.805
    1STR   H19725606   9.038   3.537   8.738
    1STR   H19825607   9.152   3.495   8.862
    1STR   O19925608   9.061   3.680   8.894
    1STR   C20025609   8.923   3.686   8.934
    1STR   H20125610   8.903   3.792   8.924
    1STR   C20225611   8.825   3.611   8.841
    1STR   H20325612   8.840   3.503   8.847
    1STR   H20425613   8.839   3.638   8.737
    1STR   H20525614   8.722   3.632   8.868
    1STR   C20625615   8.891   3.665   9.084
    1STR   H20725616   8.802   3.720   9.112
    1STR   H20825617   8.861   3.563   9.103
    1STR   O20925618   9.004   3.697   9.168
    1STR   C21025619   8.979   3.711   9.308
    1STR   H21125620   8.916   3.796   9.310
    1STR   C21225621   8.886   3.612   0.052
    1STR   H21325622   8.929   3.515   0.044
    1STR   H21425623   8.786   3.614   0.010
    1STR   H21525624   8.876   3.633   0.158
    1STR   C21625625   9.097   3.752   0.081
    1STR   H21725626   9.161   3.823   0.034
    1STR   H21825627   9.047   3.810   0.154
    1STR   O21925628   9.183   3.665   0.155
    1STR   C22025629   9.252   3.739   0.257
    1STR   H22125630   9.230   3.845   0.249
    1STR   C22225631   9.200   3.681   0.385
    1STR   H22325632   9.255   3.591   0.409
    1STR   H22425633   9.097   3.654   0.375
    1STR   H22525634   9.209   3.750   0.467
    1STR   C22625635   0.083   3.736   0.268
    1STR   H22725636   0.108   3.812   0.342
    1STR   H22825637   0.115   3.643   0.310
    1STR   O22925638   0.153   3.761   0.147
    1STR   C23025639   0.291   3.798   0.156
    1STR   H23125640   0.297   3.905   0.162
    1STR   C23225641   0.358   3.751   0.285
    1STR   H23325642   0.331   3.652   0.309
    1STR   H23425643   0.318   3.797   0.372
    1STR   H23525644   0.466   3.764   0.285
    1STR   C23625645   0.363   3.754   0.026
    1STR   H23725646   0.466   3.727   0.048
    1STR   H23825647   0.318   3.663   9.308
    1STR   O23925648   0.367   3.852   9.241
    1STR   C24025649   0.260   3.946   9.224
    1STR   H24125650   0.254   4.012   9.309
    1STR   C24225651   0.299   4.028   9.104
    1STR   H24325652   0.272   3.972   9.016
    1STR   H24425653   0.405   4.043   9.095
    1STR   H24525654   0.251   4.126   9.102
    1STR   C24625655   0.127   3.879   9.198
    1STR   H24725656   0.113   3.849   9.095
    1STR   H24825657   0.138   3.785   9.246
    1STR   O24925658   0.011   3.935   9.259
    1STR   C25025659   9.248   4.025   9.187
    1STR   H25125660   9.275   4.121   9.227
    1STR   C25225661   9.278   4.025   9.037
    1STR   H25325662   9.262   3.928   8.990
    1STR   H25425663   0.060   4.055   9.023
    1STR   H25525664   9.218   4.097   8.984
    1STR   C25625665   9.096   4.005   9.201
    1STR   H25725666   9.052   4.079   9.136
    1STR   H25825667   9.075   3.911   9.153
    1STR   O25925668   9.032   4.012   0.011
    1STR   C26025669   8.889   4.030   0.012
    1STR   H26125670   8.891   4.136   0.022
    1STR   C26225671   8.820   4.003   9.194
    1STR   H26325672   8.854   3.913   9.147
    1STR   H26425673   8.844   4.080   9.123
    1STR   H26525674   8.711   3.997   9.200
    1STR   C26625675   8.799   3.981   0.134
    1STR   H26725676   8.769   4.060   0.201
    1STR   H26825677   8.703   3.952   0.092
    1STR   O26925678   8.829   3.867   0.214
    1STR   C27025679   8.902   3.874   0.338
    1STR   H27125680   8.939   3.773   0.339
    1STR   C27225681   9.022   3.966   0.343
    1STR   H27325682   9.063   3.994   0.247
    1STR   H27425683   9.101   3.919   0.399
    1STR   H27525684   9.001   4.054   0.401
    1STR   C27625685   8.830   3.882   0.474
    1STR   H27725686   8.795   3.983   0.493
    1STR   H27825687   8.744   3.816   0.475
    1STR   O27925688   8.927   3.836   0.571
    1STR   C28025689   8.964   3.921   0.680
    1STR   H28125690   8.990   4.021   0.645
    1STR   C28225691   8.837   3.927   0.766
    1STR   H28325692   8.803   3.827   0.791
    1STR   H28425693   8.756   3.979   0.715
    1STR   H28525694   8.853   3.980   0.859
    1STR   C28625695   9.085   3.856   0.757
    1STR   H28725696   9.052   3.828   0.857
    1STR   H28825697   9.107   3.759   0.712
    1STR   O28925698   9.208   3.931   0.778
    1STR   C29025699   9.308   3.910   0.678
    1STR   H29125700   9.293   3.811   0.640
    1STR   C29225701   9.286   4.011   0.569
    1STR   H29325702   0.009   4.108   0.594
    1STR   H29425703   9.181   4.029   0.555
    1STR   H29525704   0.010   3.979   0.475
    1STR   C29625705   0.137   3.917   0.717
    1STR   H29725706   0.158   4.016   0.756
    1STR   H29825707   0.161   3.845   0.795
    1STR   O29925708   0.214   3.888   0.598
    1STR   C30025709   0.341   3.951   0.582
    1STR   H30125710   0.349   4.028   0.655
    1STR   C30225711   0.456   3.856   0.615
    1STR   H30325712   0.463   3.774   0.544
    1STR   H30425713   0.444   3.814   0.714
    1STR   H30525714   0.552   3.909   0.613
    1STR   C30625715   0.356   4.022   0.445
    1STR   H30725716   0.383   4.126   0.455
    1STR   H30825717   0.439   3.981   0.388
    1STR   O30925718   0.237   4.011   0.369
    1STR    H1R25719   0.180   4.200   0.352
    1STR    H1S25720   0.273   4.206   0.095
    1STR    H1T25721   0.383   4.095   0.169
    1STR    H1U25722   0.354   4.256   0.236
    1STR    H1V25723   0.083   3.972   0.175
    1STR    H1W25724   0.079   4.120   0.101
    1STR    H1X25725   9.305   4.395   0.363
    1STR    H1Y25726   0.212   4.461   0.251
    1STR    H1Z25727   0.294   4.545   0.043
    1STR    H2025728   0.273   4.379   9.081
    1STR    H2125729   0.153   4.514   9.062
    1STR    H2225730   0.302   4.541   9.146
    1STR    H2325731   0.050   4.355   9.042
    1STR    H2725732   9.204   4.273   0.041
    1STR    H2825733   0.503   2.348   0.224
    1STR    H2925734   0.337   2.238   0.351
    1STR    H2A25735   0.003   2.381   0.400
    1STR    H2B25736   0.122   2.270   0.464
    1STR    H2C25737   0.009   2.222   0.336
    1STR   BCK125738   8.835   2.956   1.880
    1STR    O0325739   8.884   3.053   1.823
    1STR    N0425740   8.756   2.959   1.986
    1STR    C0525741   8.697   3.063   2.056
    1STR    C0625742   8.724   3.076   2.193
    1STR    C0725743   8.658   3.170   2.275
    1STR    N0825744   8.690   3.188   2.410
    1STR    C0925745   8.752   3.103   2.493
    1STR    O0A25746   8.781   2.988   2.462
    1STR    O0B25747   8.768   3.159   2.613
    1STR    C0C25748   8.834   3.096   2.724
    1STR    C0D25749   8.730   3.044   2.823
    1STR    C0E25750   8.942   2.991   2.693
    1STR    O0F25751   9.037   3.041   2.599
    1STR    C0G25752   9.143   2.951   2.571
    1STR    C0H25753   9.080   2.838   2.490
    1STR    C0I25754   9.266   3.013   2.498
    1STR    O0J25755   0.071   2.975   2.557
    1STR    C0K25756   0.453   4.190   2.085
    1STR    C0M25757   0.519   4.190   2.221
    1STR    C0N25758   0.333   4.288   2.073
    1STR    O0O25759   0.232   4.243   1.982
    1STR    C0P25760   0.102   4.246   2.019
    1STR    O0Q25761   0.060   4.301   2.119
    1STR    N0R25762   0.024   4.176   1.935
    1STR    C0S25763   9.215   4.125   1.954
    1STR    C0T25764   9.157   4.042   1.857
    1STR    C0U25765   9.026   3.992   1.872
    1STR    C0V25766   8.947   4.033   1.980
    1STR    C0W25767   8.797   4.023   1.971
    1STR    C0X25768   9.010   4.098   2.088
    1STR    N0Y25769   8.939   4.135   2.201
    1STR   BCK225770   8.946   4.250   2.268
    1STR    O1025771   8.913   4.256   2.385
    1STR    C1325772   9.144   4.139   2.074
    1STR    C1425773   8.558   3.251   2.217
    1STR    C1525774   8.528   3.239   2.079
    1STR    C1625775   8.598   3.146   1.998
    1STR    C1725776   8.565   3.137   1.850
    1STR    H1B25777   8.739   2.865   2.021
    1STR    H1C25778   8.797   3.009   2.234
    1STR    H1D25779   8.671   3.275   2.456
    1STR    H1E25780   8.885   3.178   2.774
    1STR    H1F25781   8.679   2.956   2.785
    1STR    H1G25782   8.778   3.017   2.917
    1STR    H1H25783   8.656   3.122   2.844
    1STR    H1I25784   8.895   2.900   2.656
    1STR    H1J25785   8.993   2.961   2.785
    1STR    H1K25786   9.180   2.914   2.667
    1STR    H1M25787   9.152   2.794   2.424
    1STR    H1N25788   8.997   2.871   2.429
    1STR    H1O25789   9.039   2.760   2.554
    1STR    H1P25790   9.263   2.988   2.393
    1STR    H1Q25791   9.264   3.120   2.499
    1STR   C01025792   0.181   2.965   2.466
    1STR   H01125793   0.179   3.041   2.392
    1STR   C01225794   0.312   2.974   2.546
    1STR   H01325795   0.303   2.916   2.637
    1STR   H01425796   0.339   3.071   2.582
    1STR   H01525797   0.398   2.939   2.489
    1STR   C01625798   0.183   2.835   2.387
    1STR   H01725799   0.275   2.811   2.337
    1STR   H01825800   0.174   2.766   2.465
    1STR   O01925801   0.070   2.792   2.320
    1STR   C02025802   0.081   2.788   2.181
    1STR   H02125803   0.117   2.881   2.141
    1STR   C02225804   0.159   2.672   2.121
    1STR   H02325805   0.095   2.585   2.109
    1STR   H02425806   0.247   2.645   2.179
    1STR   H02525807   0.189   2.700   2.021
    1STR   C02625808   9.258   2.779   2.144
    1STR   H02725809   9.251   2.758   2.039
    1STR   H02825810   9.204   2.703   2.193
    1STR   O02925811   9.212   2.902   2.191
    1STR   C03025812   9.116   2.958   2.111
    1STR   H03125813   9.038   2.886   2.090
    1STR   C03225814   9.052   3.057   2.198
    1STR   H03325815   9.128   3.124   2.233
    1STR   H03425816   9.004   3.013   2.285
    1STR   H03525817   8.978   3.110   2.140
    1STR   C03625818   9.188   3.027   1.994
    1STR   H03725819   9.113   3.049   1.920
    1STR   H03825820   9.238   3.118   2.027
    1STR   O03925821   9.280   2.941   1.930
    1STR   C04025822   0.062   2.996   1.853
    1STR   H04125823   0.109   2.907   1.821
    1STR   C04225824   0.005   3.078   1.736
    1STR   H04325825   9.260   3.154   1.772
    1STR   H04425826   9.258   3.023   1.672
    1STR   H04525827   0.082   3.125   1.675
    1STR   C04625828   0.177   3.055   1.931
    1STR   H04725829   0.204   3.144   1.877
    1STR   H04825830   0.143   3.073   2.032
    1STR   O04925831   0.298   2.983   1.930
    1STR   C05025832   0.392   3.037   2.021
    1STR   H05125833   0.373   3.141   2.048
    1STR   C05225834   0.366   2.950   2.143
    1STR   H05325835   0.346   2.847   2.115
    1STR   H05425836   0.281   2.988   2.197
    1STR   H05525837   0.443   2.946   2.217
    1STR   C05625838   0.536   3.027   1.967
    1STR   H05725839   0.597   2.989   2.046
    1STR   H05825840   0.543   2.958   1.884
    1STR   O05925841   0.595   3.150   1.932
    1STR   C06025842   0.737   3.153   1.951
    1STR   H06125843   0.783   3.055   1.946
    1STR   C06225844   0.791   3.241   1.837
    1STR   H06325845   0.744   3.339   1.837
    1STR   H06425846   0.771   3.198   1.739
    1STR   H06525847   0.898   3.255   1.845
    1STR   C06625848   0.772   3.214   2.087
    1STR   H06725849   0.871   3.258   2.082
    1STR   H06825850   0.706   3.297   2.097
    1STR   O06925851   0.776   3.133   2.205
    1STR   C07025852   0.660   3.103   2.284
    1STR   H07125853   0.626   3.008   2.248
    1STR   C07225854   0.712   3.077   2.425
    1STR   H07325855   0.752   3.168   2.469
    1STR   H07425856   0.791   3.002   2.425
    1STR   H07525857   0.632   3.042   2.491
    1STR   C07625858   0.544   3.206   2.287
    1STR   H07725859   0.576   3.286   2.352
    1STR   H07825860   0.526   3.246   2.188
    1STR   O07925861   0.416   3.164   2.334
    1STR   C08025862   0.327   3.275   2.353
    1STR   H08125863   0.368   3.364   2.305
    1STR   C08225864   0.190   3.256   2.290
    1STR   H08325865   0.112   3.231   2.361
    1STR   H08425866   0.191   3.176   2.216
    1STR   H08525867   0.157   3.347   2.243
    1STR   C08625868   0.311   3.306   2.501
    1STR   H08725869   0.267   3.403   2.511
    1STR   H08825870   0.239   3.241   2.550
    1STR   O08925871   0.440   3.301   2.557
    1STR   C09025872   0.456   3.369   2.680
    1STR   H09125873   0.405   3.464   2.682
    1STR   C09225874   0.400   3.278   2.788
    1STR   H09325875   0.445   3.181   2.773
    1STR   H09425876   0.292   3.266   2.779
    1STR   H09525877   0.422   3.314   2.888
    1STR   C09625878   0.607   3.393   2.693
    1STR   H09725879   0.627   3.475   2.763
    1STR   H09825880   0.653   3.305   2.738
    1STR   O09925881   0.676   3.412   2.569
    1STR   C10025882   0.635   3.515   2.479
    1STR   H10125883   0.531   3.500   2.449
    1STR   C10225884   0.649   3.651   2.549
    1STR   H10325885   0.751   3.665   2.585
    1STR   H10425886   0.583   3.660   2.634
    1STR   H10525887   0.626   3.734   2.481
    1STR   C10625888   0.727   3.504   2.355
    1STR   H10725889   0.785   3.595   2.340
    1STR   H10825890   0.802   3.429   2.377
    1STR   O10925891   0.667   3.459   2.232
    1STR   C11025892   0.572   3.536   2.160
    1STR   H11125893   0.485   3.539   2.223
    1STR   C11225894   0.640   3.671   2.133
    1STR   H11325895   0.736   3.657   2.084
    1STR   H11425896   0.656   3.729   2.224
    1STR   H11525897   0.579   3.731   2.068
    1STR   C11625898   0.514   3.476   2.027
    1STR   H11725899   0.489   3.560   1.963
    1STR   H11825900   0.588   3.421   1.970
    1STR   O11925901   0.394   3.396   2.044
    1STR   C12025902   0.298   3.401   1.936
    1STR   H12125903   0.293   3.505   1.914
    1STR   C12225904   0.356   3.337   1.809
    1STR   H12325905   0.282   3.334   1.729
    1STR   H12425906   0.391   3.236   1.826
    1STR   H12525907   0.441   3.393   1.771
    1STR   C12625908   0.150   3.356   1.975
    1STR   H12725909   0.162   3.271   2.038
    1STR   H12825910   0.096   3.415   2.045
    1STR   O12925911   0.058   3.323   1.870
    1STR   C13025912   9.250   3.388   1.860
    1STR   H13125913   9.258   3.483   1.909
    1STR   C13225914   9.225   3.410   1.709
    1STR   H13325915   9.180   3.323   1.662
    1STR   H13425916   9.315   3.431   1.653
    1STR   H13525917   9.156   3.493   1.692
    1STR   C13625918   9.119   3.327   1.919
    1STR   H13725919   9.041   3.385   1.873
    1STR   H13825920   9.092   3.234   1.873
    1STR   O13925921   9.105   3.325   2.063
    1STR   C14025922   8.979   3.368   2.121
    1STR   H14125923   8.976   3.474   2.127
    1STR   C14225924   8.859   3.331   2.034
    1STR   H14325925   8.868   3.229   1.999
    1STR   H14425926   8.847   3.392   1.946
    1STR   H14525927   8.768   3.345   2.090
    1STR   C14625928   8.955   3.345   2.273
    1STR   H14725929   8.855   3.380   2.297
    1STR   H14825930   8.956   3.244   2.312
    1STR   O14925931   9.039   3.426   2.350
    1STR   C15025932   9.174   3.386   2.355
    1STR   H15125933   9.196   3.291   2.309
    1STR   C15225934   9.246   3.494   2.279
    1STR   H15325935   9.200   3.589   2.301
    1STR   H15425936   9.241   3.480   2.172
    1STR   H15525937   0.030   3.499   2.308
    1STR   C15625938   9.216   3.378   2.499
    1STR   H15725939   9.320   3.346   2.502
    1STR   H15825940   9.208   3.475   2.545
    1STR   O15925941   9.137   3.287   2.572
    1STR   C16025942   9.149   3.293   2.713
    1STR   H16125943   9.104   3.203   2.753
    1STR   C16225944   9.293   3.291   2.765
    1STR   H16325945   0.045   3.347   2.708
    1STR   H16425946   0.011   3.189   2.770
    1STR   H16525947   9.293   3.336   2.863
    1STR   C16625948   9.059   3.405   2.764
    1STR   H16725949   9.043   3.401   2.871
    1STR   H16825950   9.102   3.502   2.742
    1STR   O16925951   8.936   3.393   2.695
    1STR   C17025952   8.869   3.515   2.682
    1STR   H17125953   8.892   3.572   2.771
    1STR   C17225954   8.920   3.592   2.561
    1STR   H17325955   9.027   3.585   2.549
    1STR   H17425956   8.899   3.697   2.573
    1STR   H17525957   8.874   3.557   2.470
    1STR   C17625958   8.719   3.490   2.677
    1STR   H17725959   8.667   3.559   2.609
    1STR   H17825960   8.700   3.391   2.638
    1STR   O17925961   8.669   3.501   2.809
    1STR   C18025962   8.652   3.635   2.853
    1STR   H18125963   8.685   3.708   2.779
    1STR   C18225964   8.500   3.649   2.868
    1STR   H18325965   8.461   3.575   2.937
    1STR   H18425966   8.451   3.635   2.772
    1STR   H18525967   8.473   3.748   2.904
    1STR   C18625968   8.729   3.657   2.985
    1STR   H18725969   8.683   3.737   3.043
    1STR   H18825970   8.719   3.568   3.046
    1STR   O18925971   8.870   3.684   2.973
    1STR   C19025972   8.914   3.797   2.895
    1STR   H19125973   8.902   3.780   2.788
    1STR   C19225974   8.834   3.922   2.929
    1STR   H19325975   8.878   4.011   2.883
    1STR   H19425976   8.834   3.935   3.037
    1STR   H19525977   8.731   3.915   2.894
    1STR   C19625978   9.064   3.821   2.921
    1STR   H19725979   9.096   3.909   2.864
    1STR   H19825980   9.078   3.846   3.027
    1STR   O19925981   9.146   3.709   2.888
    1STR   C20025982   9.286   3.740   2.876
    1STR   H20125983   9.294   3.815   2.798
    1STR   C20225984   0.020   3.795   3.009
    1STR   H20325985   9.310   3.732   3.093
    1STR   H20425986   9.303   3.896   3.028
    1STR   H20525987   0.128   3.802   3.011
    1STR   C20625988   0.044   3.613   2.831
    1STR   H20725989   0.082   3.560   2.919
    1STR   H20825990   9.295   3.545   2.785
    1STR   O20925991   0.152   3.633   2.739
    1STR   C21025992   0.123   3.615   2.600
    1STR   H21125993   0.101   3.510   2.587
    1STR   C21225994   0.006   3.700   2.555
    1STR   H21325995   0.026   3.805   2.563
    1STR   H21425996   9.234   3.678   2.609
    1STR   H21525997   9.308   3.684   2.450
    1STR   C21625998   0.243   3.646   2.509
    1STR   H21725999   0.256   3.753   2.506
    1STR   H21826000   0.336   3.607   2.550
    1STR   O21926001   0.227   3.592   2.378
    1STR   C22026002   0.234   3.687   2.273
    1STR   H22126003   0.155   3.755   2.297
    1STR   C22226004   0.373   3.755   2.287
    1STR   H22326005   0.448   3.693   2.333
    1STR   H22426006   0.375   3.836   2.360
    1STR   H22526007   0.409   3.797   2.193
    1STR   C22626008   0.209   3.626   2.129
    1STR   H22726009   0.288   3.660   2.063
    1STR   H22826010   0.234   3.523   2.149
    1STR   O22926011   0.078   3.633   2.058
    1STR   C23026012   0.059   3.682   1.919
    1STR   H23126013   0.110   3.771   1.929
    1STR   C23226014   0.134   3.632   1.793
    1STR   H23326015   0.132   3.526   1.779
    1STR   H23426016   0.238   3.664   1.790
    1STR   H23526017   0.090   3.672   1.701
    1STR   C23626018   9.244   3.749   1.877
    1STR   H23726019   9.223   3.827   1.946
    1STR   H23826020   9.262   3.801   1.783
    1STR   O23926021   9.122   3.684   1.847
    1STR   C24026022   9.038   3.651   1.956
    1STR   H24126023   9.068   3.553   1.974
    1STR   C24226024   9.069   3.717   2.088
    1STR   H24326025   9.172   3.702   2.117
    1STR   H24426026   9.011   3.673   2.168
    1STR   H24526027   9.047   3.822   2.080
    1STR   C24626028   8.888   3.659   1.922
    1STR   H24726029   8.865   3.759   1.887
    1STR   H24826030   8.864   3.592   1.839
    1STR   O24926031   8.808   3.624   2.036
    1STR   C25026032   8.694   3.705   2.065
    1STR   H25126033   8.728   3.807   2.076
    1STR   C25226034   8.592   3.697   1.951
    1STR   H25326035   8.556   3.595   1.938
    1STR   H25426036   8.632   3.730   1.855
    1STR   H25526037   8.505   3.761   1.972
    1STR   C25626038   8.629   3.667   2.200
    1STR   H25726039   8.535   3.720   2.214
    1STR   H25826040   8.605   3.560   2.198
    1STR   O25926041   8.711   3.690   2.314
    1STR   C26026042   8.740   3.826   2.346
    1STR   H26126043   8.692   3.897   2.278
    1STR   C26226044   8.686   3.856   2.487
    1STR   H26326045   8.710   3.780   2.559
    1STR   H26426046   8.577   3.864   2.485
    1STR   H26526047   8.725   3.950   2.525
    1STR   C26626048   8.891   3.838   2.331
    1STR   H26726049   8.944   3.749   2.365
    1STR   H26826050   8.906   3.847   2.225
    1STR   O26926051   8.945   3.955   2.387
    1STR   C27026052   9.086   3.963   2.410
    1STR   H27126053   9.103   4.068   2.396
    1STR   C27226054   9.102   3.927   2.558
    1STR   H27326055   9.081   3.823   2.577
    1STR   H27426056   9.032   3.985   2.618
    1STR   H27526057   9.201   3.951   2.595
    1STR   C27626058   9.188   3.900   2.310
    1STR   H27726059   9.175   3.793   2.316
    1STR   H27826060   9.165   3.929   2.209
    1STR   O27926061   0.007   3.927   2.331
    1STR   C28026062   0.085   4.001   2.232
    1STR   H28126063   0.036   4.096   2.223
    1STR   C28226064   0.221   4.021   2.289
    1STR   H28326065   0.224   3.981   2.389
    1STR   H28426066   0.244   4.126   2.283
    1STR   H28526067   0.305   3.981   2.235
    1STR   C28626068   0.115   3.940   2.095
    1STR   H28726069   0.125   3.840   2.118
    1STR   H28826070   0.030   3.947   2.033
    1STR   O28926071   0.235   3.984   2.026
    1STR   C29026072   0.290   3.919   1.910
    1STR   H29126073   0.303   3.814   1.928
    1STR   C29226074   0.201   3.954   1.793
    1STR   H29326075   0.229   3.903   1.702
    1STR   H29426076   0.216   4.060   1.782
    1STR   H29526077   0.096   3.943   1.811
    1STR   C29626078   0.431   3.961   1.868
    1STR   H29726079   0.458   3.908   1.777
    1STR   H29826080   0.432   4.066   1.842
    1STR   O29926081   0.525   3.929   1.968
    1STR   C30026082   0.656   3.983   1.952
    1STR   H30126083   0.713   3.939   2.034
    1STR   C30226084   0.721   3.932   1.822
    1STR   H30326085   0.673   3.973   1.734
    1STR   H30426086   0.715   3.823   1.816
    1STR   H30526087   0.826   3.960   1.818
    1STR   C30626088   0.667   4.136   1.972
    1STR   H30726089   0.729   4.158   2.058
    1STR   H30826090   0.724   4.179   1.890
    1STR   O30926091   0.544   4.210   1.977
    1STR    H1R26092   0.415   4.091   2.082
    1STR    H1S26093   0.453   4.148   2.295
    1STR    H1T26094   0.539   4.291   2.252
    1STR    H1U26095   0.608   4.128   2.228
    1STR    H1V26096   0.365   4.386   2.038
    1STR    H1W26097   0.292   4.307   2.172
    1STR    H1X26098   0.076   4.156   1.850
    1STR    H1Y26099   9.212   4.016   1.768
    1STR    H1Z26100   8.985   3.931   1.794
    1STR    H2026101   8.762   4.111   1.918
    1STR    H2126102   8.762   3.939   1.912
    1STR    H2226103   8.749   4.022   2.069
    1STR    H2326104   8.904   4.062   2.263
    1STR    H2726105   9.187   4.191   2.157
    1STR    H2826106   8.504   3.323   2.277
    1STR    H2926107   8.452   3.302   2.036
    1STR    H2A26108   8.556   3.032   1.820
    1STR    H2B26109   8.647   3.180   1.793
    1STR    H2C26110   8.473   3.188   1.825
    1STR   BCK126111   9.316   2.716   4.995
    1STR    O0326112   0.107   2.718   4.943
    1STR    N0426113   9.284   2.789   5.102
    1STR    C0526114   0.037   2.875   5.185
    1STR    C0626115   0.177   2.892   5.173
    1STR    C0726116   0.251   2.978   5.256
    1STR    N0826117   0.385   3.003   5.221
    1STR    C0926118   0.480   3.073   5.285
    1STR    O0A26119   0.459   3.141   5.385
    1STR    O0B26120   0.607   3.058   5.238
    1STR    C0C26121   0.655   3.069   5.103
    1STR    C0D26122   0.798   3.122   5.119
    1STR    C0E26123   0.654   2.942   5.017
    1STR    O0F26124   0.526   2.931   4.957
    1STR    C0G26125   0.520   2.838   4.850
    1STR    C0H26126   0.466   2.716   4.911
    1STR    C0I26127   0.430   2.878   4.732
    1STR    O0J26128   0.338   2.783   4.677
    1STR    C0K26129   8.702   4.081   5.112
    1STR    C0M26130   8.648   3.964   5.197
    1STR    C0N26131   8.768   4.192   5.196
    1STR    O0O26132   8.910   4.199   5.186
    1STR    C0P26133   8.967   4.243   5.072
    1STR    O0Q26134   8.907   4.263   4.967
    1STR    N0R26135   9.094   4.276   5.093
    1STR    C0S26136   9.191   4.318   5.001
    1STR    C0T26137   0.004   4.324   5.045
    1STR    C0U26138   0.107   4.351   4.954
    1STR    C0V26139   0.079   4.362   4.816
    1STR    C0W26140   0.195   4.349   4.721
    1STR    C0X26141   9.267   4.357   4.769
    1STR    N0Y26142   9.256   4.347   4.631
    1STR   BCK226143   9.185   4.286   4.535
    1STR    O1026144   9.248   4.252   4.438
    1STR    C1326145   9.165   4.347   4.865
    1STR    C1426146   0.185   3.034   5.368
    1STR    C1526147   0.047   3.014   5.386
    1STR    C1626148   9.292   2.940   5.293
    1STR    C1726149   9.142   2.931   5.311
    1STR    H1B26150   9.187   2.781   5.125
    1STR    H1C26151   0.228   2.836   5.098
    1STR    H1D26152   0.419   2.962   5.135
    1STR    H1E26153   0.604   3.145   5.046
    1STR    H1F26154   0.860   3.049   5.170
    1STR    H1G26155   0.843   3.143   5.022
    1STR    H1H26156   0.798   3.214   5.176
    1STR    H1I26157   0.684   2.853   5.072
    1STR    H1J26158   0.728   2.954   4.937
    1STR    H1K26159   0.619   2.813   4.814
    1STR    H1M26160   0.361   2.728   4.938
    1STR    H1N26161   0.524   2.684   4.996
    1STR    H1O26162   0.477   2.643   4.832
    1STR    H1P26163   0.392   2.977   4.743
    1STR    H1Q26164   0.493   2.894   4.650
    1STR   C01026165   0.251   2.837   4.576
    1STR   H01126166   0.178   2.897   4.624
    1STR   C01226167   0.310   2.927   4.468
    1STR   H01326168   0.339   2.873   4.380
    1STR   H01426169   0.394   2.985   4.500
    1STR   H01526170   0.236   3.000   4.436
    1STR   C01626171   0.163   2.731   4.515
    1STR   H01726172   0.179   2.723   4.410
    1STR   H01826173   0.180   2.634   4.561
    1STR   O01926174   0.029   2.765   4.521
    1STR   C02026175   9.299   2.879   4.449
    1STR   H02126176   0.013   2.973   4.491
    1STR   C02226177   0.003   2.889   4.304
    1STR   H02326178   9.308   2.788   4.272
    1STR   H02426179   0.102   2.925   4.278
    1STR   H02526180   9.248   2.948   4.256
    1STR   C02626181   9.155   2.849   4.476
    1STR   H02726182   9.130   2.749   4.504
    1STR   H02826183   9.167   2.890   4.570
    1STR   O02926184   9.044   2.908   4.412
    1STR   C03026185   8.958   2.958   4.511
    1STR   H03126186   9.027   3.020   4.555
    1STR   C03226187   8.856   3.061   4.454
    1STR   H03326188   8.810   3.125   4.529
    1STR   H03426189   8.775   3.021   4.397
    1STR   H03526190   8.903   3.130   4.385
    1STR   C03626191   8.931   2.878   4.644
    1STR   H03726192   8.884   2.942   4.715
    1STR   H03826193   8.863   2.800   4.617
    1STR   O03926194   9.036   2.821   4.725
    1STR   C04026195   9.116   2.908   4.805
    1STR   H04126196   9.088   2.994   4.754
    1STR   C04226197   9.060   2.915   4.945
    1STR   H04326198   9.032   2.818   4.983
    1STR   H04426199   8.975   2.980   4.951
    1STR   H04526200   9.135   2.959   5.009
    1STR   C04626201   9.271   2.924   4.787
    1STR   H04726202   0.006   2.835   4.766
    1STR   H04826203   9.283   2.980   4.697
    1STR   O04926204   0.026   2.999   4.882
    1STR   C05026205   0.160   3.022   4.836
    1STR   H05126206   0.196   2.922   4.819
    1STR   C05226207   0.173   3.117   4.714
    1STR   H05326208   0.268   3.112   4.661
    1STR   H05426209   0.173   3.216   4.749
    1STR   H05526210   0.099   3.110   4.636
    1STR   C05626211   0.257   3.072   4.944
    1STR   H05726212   0.211   3.116   5.031
    1STR   H05826213   0.301   2.982   4.980
    1STR   O05926214   0.372   3.137   4.893
    1STR   C06026215   0.384   3.277   4.900
    1STR   H06126216   0.298   3.330   4.862
    1STR   C06226217   0.405   3.309   5.048
    1STR   H06326218   0.480   3.386   5.065
    1STR   H06426219   0.434   3.223   5.103
    1STR   H06526220   0.312   3.333   5.097
    1STR   C06626221   0.501   3.314   4.808
    1STR   H06726222   0.507   3.422   4.799
    1STR   H06826223   0.595   3.278   4.850
    1STR   O06926224   0.480   3.253   4.681
    1STR   C07026225   0.549   3.313   4.571
    1STR   H07126226   0.507   3.412   4.553
    1STR   C07226227   0.699   3.325   4.601
    1STR   H07326228   0.741   3.230   4.634
    1STR   H07426229   0.720   3.399   4.679
    1STR   H07526230   0.755   3.357   4.513
    1STR   C07626231   0.527   3.225   4.446
    1STR   H07726232   0.586   3.263   4.363
    1STR   H07826233   0.571   3.128   4.466
    1STR   O07926234   0.392   3.196   4.408
    1STR   C08026235   0.312   3.301   4.358
    1STR   H08126236   0.303   3.372   4.439
    1STR   C08226237   0.389   3.370   4.243
    1STR   H08326238   0.323   3.417   4.170
    1STR   H08426239   0.451   3.300   4.188
    1STR   H08526240   0.452   3.449   4.284
    1STR   C08626241   0.170   3.254   4.311
    1STR   H08726242   0.128   3.342   4.263
    1STR   H08826243   0.180   3.179   4.233
    1STR   O08926244   0.072   3.207   4.407
    1STR   C09026245   9.256   3.256   4.390
    1STR   H09126246   9.249   3.355   4.421
    1STR   C09226247   9.208   3.243   4.244
    1STR   H09326248   9.230   3.145   4.208
    1STR   H09426249   9.257   3.312   4.175
    1STR   H09526250   9.101   3.260   4.235
    1STR   C09626251   9.155   3.198   4.490
    1STR   H09726252   9.107   3.132   4.420
    1STR   H09826253   9.211   3.136   4.558
    1STR   O09926254   9.049   3.276   4.560
    1STR   C10026255   9.001   3.227   4.691
    1STR   H10126256   8.958   3.132   4.682
    1STR   C10226257   9.108   3.215   4.790
    1STR   H10326258   9.129   3.305   4.844
    1STR   H10426259   9.197   3.168   4.754
    1STR   H10526260   9.068   3.151   4.865
    1STR   C10626261   8.878   3.272   4.773
    1STR   H10726262   8.823   3.335   4.706
    1STR   H10826263   8.808   3.189   4.787
    1STR   O10926264   8.912   3.325   4.904
    1STR   C11026265   8.901   3.249   5.028
    1STR   H11126266   8.871   3.319   5.103
    1STR   C11226267   8.766   3.181   5.038
    1STR   H11326268   8.765   3.091   4.980
    1STR   H11426269   8.687   3.245   5.000
    1STR   H11526270   8.743   3.157   5.142
    1STR   C11626271   9.024   3.195   5.113
    1STR   H11726272   9.034   3.247   5.208
    1STR   H11826273   8.998   3.096   5.145
    1STR   O11926274   9.156   3.182   5.057
    1STR   C12026275   9.248   3.289   5.065
    1STR   H12126276   9.189   3.376   5.057
    1STR   C12226277   0.002   3.266   5.195
    1STR   H12326278   0.052   3.170   5.185
    1STR   H12426279   9.257   3.262   5.282
    1STR   H12526280   0.081   3.338   5.213
    1STR   C12626281   0.028   3.297   4.947
    1STR   H12726282   0.127   3.290   4.988
    1STR   H12826283   0.015   3.212   4.889
    1STR   O12926284   0.032   3.409   4.860
    1STR   C13026285   0.015   3.400   4.716
    1STR   H13126286   9.318   3.302   4.676
    1STR   C13226287   9.210   3.478   4.693
    1STR   H13326288   9.203   3.547   4.774
    1STR   H13426289   9.112   3.438   4.699
    1STR   H13526290   9.210   3.522   4.596
    1STR   C13626291   0.132   3.454   4.630
    1STR   H13726292   0.183   3.539   4.671
    1STR   H13826293   0.212   3.381   4.635
    1STR   O13926294   0.099   3.462   4.491
    1STR   C14026295   0.056   3.580   4.424
    1STR   H14126296   0.038   3.652   4.501
    1STR   C14226297   0.181   3.622   4.351
    1STR   H14326298   0.201   3.557   4.268
    1STR   H14426299   0.264   3.618   4.420
    1STR   H14526300   0.174   3.722   4.309
    1STR   C14626301   9.253   3.574   4.323
    1STR   H14726302   9.237   3.671   4.279
    1STR   H14826303   9.281   3.513   4.239
    1STR   O14926304   9.124   3.528   4.372
    1STR   C15026305   9.003   3.569   4.306
    1STR   H15126306   8.983   3.674   4.327
    1STR   C15226307   9.018   3.553   4.153
    1STR   H15326308   9.048   3.452   4.128
    1STR   H15426309   9.092   3.621   4.112
    1STR   H15526310   8.924   3.573   4.102
    1STR   C15626311   8.881   3.485   4.356
    1STR   H15726312   8.794   3.502   4.293
    1STR   H15826313   8.907   3.380   4.339
    1STR   O15926314   8.843   3.490   4.496
    1STR   C16026315   8.750   3.588   4.548
    1STR   H16126316   8.786   3.687   4.523
    1STR   C16226317   8.612   3.569   4.486
    1STR   H16326318   8.578   3.466   4.494
    1STR   H16426319   8.612   3.595   4.380
    1STR   H16526320   8.538   3.633   4.534
    1STR   C16626321   8.749   3.565   4.704
    1STR   H16726322   8.683   3.480   4.722
    1STR   H16826323   8.851   3.538   4.731
    1STR   O16926324   8.711   3.668   4.797
    1STR   C17026325   8.700   3.634   4.938
    1STR   H17126326   8.682   3.726   4.994
    1STR   C17226327   8.569   3.555   4.954
    1STR   H17326328   8.577   3.454   4.911
    1STR   H17426329   8.487   3.605   4.904
    1STR   H17526330   8.543   3.543   5.059
    1STR   C17626331   8.823   3.564   5.006
    1STR   H17726332   8.779   3.468   5.021
    1STR   H17826333   8.904   3.552   4.937
    1STR   O17926334   8.877   3.599   5.137
    1STR   C18026335   9.008   3.543   5.175
    1STR   H18126336   9.013   3.445   5.137
    1STR   C18226337   9.134   3.599   5.112
    1STR   H18326338   9.163   3.698   5.142
    1STR   H18426339   9.142   3.581   5.007
    1STR   H18526340   9.223   3.548   5.144
    1STR   C18626341   9.033   3.531   5.327
    1STR   H18726342   9.010   3.625   5.378
    1STR   H18826343   8.964   3.457   5.367
    1STR   O18926344   9.169   3.487   5.356
    1STR   C19026345   9.262   3.591   5.393
    1STR   H19126346   9.233   3.686   5.349
    1STR   C19226347   9.250   3.600   5.545
    1STR   H19326348   9.276   3.504   5.590
    1STR   H19426349   9.148   3.624   5.574
    1STR   H19526350   9.316   3.676   5.586
    1STR   C19626351   0.092   3.568   5.352
    1STR   H19726352   0.150   3.650   5.395
    1STR   H19826353   0.130   3.476   5.396
    1STR   O19926354   0.119   3.566   5.211
    1STR   C20026355   0.246   3.608   5.160
    1STR   H20126356   0.254   3.715   5.162
    1STR   C20226357   0.364   3.558   5.247
    1STR   H20326358   0.358   3.452   5.270
    1STR   H20426359   0.368   3.611   5.342
    1STR   H20526360   0.459   3.577   5.197
    1STR   C20626361   0.257   3.567   5.011
    1STR   H20726362   0.361   3.547   4.986
    1STR   H20826363   0.202   3.477   4.998
    1STR   O20926364   0.220   3.650   4.901
    1STR   C21026365   0.086   3.694   4.891
    1STR   H21126366   0.012   3.621   4.917
    1STR   C21226367   0.082   3.799   4.995
    1STR   H21326368   0.057   3.757   5.091
    1STR   H21426369   0.013   3.877   4.975
    1STR   H21526370   0.178   3.845   4.995
    1STR   C21626371   0.064   3.755   4.752
    1STR   H21726372   0.094   3.854   4.752
    1STR   H21826373   0.143   3.726   4.685
    1STR   O21926374   9.263   3.733   4.679
    1STR   C22026375   9.127   3.771   4.702
    1STR   H22126376   9.116   3.866   4.659
    1STR   C22226377   9.050   3.715   4.585
    1STR   H22326378   8.969   3.778   4.552
    1STR   H22426379   9.014   3.614   4.601
    1STR   H22526380   9.118   3.717   4.501
    1STR   C22626381   9.059   3.758   4.843
    1STR   H22726382   8.956   3.785   4.842
    1STR   H22826383   9.050   3.652   4.853
    1STR   O22926384   9.126   3.818   4.957
    1STR   C23026385   9.070   3.908   5.058
    1STR   H23126386   9.012   3.977   5.003
    1STR   C23226387   8.969   3.862   5.162
    1STR   H23326388   9.008   3.795   5.237
    1STR   H23426389   8.881   3.821   5.113
    1STR   H23526390   8.935   3.948   5.219
    1STR   C23626391   9.178   3.987   5.137
    1STR   H23726392   9.234   4.049   5.069
    1STR   H23826393   9.128   4.055   5.206
    1STR   O23926394   9.271   3.913   5.216
    1STR   C24026395   0.043   3.995   5.287
    1STR   H24126396   0.021   4.100   5.274
    1STR   C24226397   0.018   3.953   5.432
    1STR   H24326398   0.060   3.854   5.451
    1STR   H24426399   9.232   3.943   5.452
    1STR   H24526400   0.064   4.021   5.503
    1STR   C24626401   0.193   3.972   5.258
    1STR   H24726402   0.248   4.032   5.330
    1STR   H24826403   0.212   3.868   5.284
    1STR   O24926404   0.245   4.002   5.127
    1STR   C25026405   0.385   3.973   5.101
    1STR   H25126406   0.423   4.069   5.071
    1STR   C25226407   0.463   3.928   5.227
    1STR   H25326408   0.423   3.837   5.271
    1STR   H25426409   0.467   4.007   5.302
    1STR   H25526410   0.565   3.903   5.202
    1STR   C25626411   0.427   3.878   4.984
    1STR   H25726412   0.535   3.882   4.980
    1STR   H25826413   0.406   3.776   5.012
    1STR   O25926414   0.379   3.896   4.850
    1STR   C26026415   0.466   3.838   4.750
    1STR   H26126416   0.553   3.902   4.749
    1STR   C26226417   0.513   3.694   4.776
    1STR   H26326418   0.428   3.627   4.777
    1STR   H26426419   0.569   3.683   4.868
    1STR   H26526420   0.578   3.661   4.695
    1STR   C26626421   0.407   3.844   4.608
    1STR   H26726422   0.378   3.746   4.571
    1STR   H26826423   0.316   3.900   4.618
    1STR   O26926424   0.498   3.906   4.517
    1STR   C27026425   0.448   3.940   4.388
    1STR   H27126426   0.521   4.005   4.341
    1STR   C27226427   0.452   3.823   4.290
    1STR   H27326428   0.410   3.734   4.333
    1STR   H27426429   0.555   3.798   4.264
    1STR   H27526430   0.399   3.845   4.197
    1STR   C27626431   0.320   4.026   4.396
    1STR   H27726432   0.315   4.077   4.492
    1STR   H27826433   0.325   4.108   4.327
    1STR   O27926434   0.208   3.944   4.372
    1STR   C28026435   0.082   4.004   4.393
    1STR   H28126436   0.074   4.095   4.333
    1STR   C28226437   9.305   3.901   4.342
    1STR   H28326438   9.308   3.822   4.415
    1STR   H28426439   0.011   3.866   4.243
    1STR   H28526440   9.202   3.927   4.344
    1STR   C28626441   0.064   4.030   4.543
    1STR   H28726442   0.130   3.965   4.596
    1STR   H28826443   0.101   4.129   4.556
    1STR   O28926444   9.254   4.024   4.601
    1STR   C29026445   9.238   4.040   4.745
    1STR   H29126446   9.238   3.948   4.795
    1STR   C29226447   0.044   4.080   4.823
    1STR   H29326448   0.114   4.133   4.765
    1STR   H29426449   0.114   4.008   4.861
    1STR   H29526450   0.017   4.126   4.914
    1STR   C29626451   9.093   4.083   4.791
    1STR   H29726452   9.100   4.107   4.894
    1STR   H29826453   9.061   4.174   4.749
    1STR   O29926454   8.982   3.997   4.762
    1STR   C30026455   8.842   4.027   4.772
    1STR   H30126456   8.823   4.132   4.748
    1STR   C30226457   8.792   3.933   4.662
    1STR   H30326458   8.826   3.834   4.685
    1STR   H30426459   8.834   3.956   4.566
    1STR   H30526460   8.685   3.920   4.654
    1STR   C30626461   8.766   3.977   4.898
    1STR   H30726462   8.659   3.976   4.882
    1STR   H30826463   8.792   3.875   4.914
    1STR   O30926464   8.800   4.039   5.020
    1STR    H1R26465   8.621   4.128   5.061
    1STR    H1S26466   8.563   3.997   5.257
    1STR    H1T26467   8.723   3.923   5.264
    1STR    H1U26468   8.613   3.883   5.133
    1STR    H1V26469   8.736   4.182   5.299
    1STR    H1W26470   8.729   4.289   5.164
    1STR    H1X26471   9.118   4.270   5.191
    1STR    H1Y26472   0.033   4.302   5.146
    1STR    H1Z26473   0.209   4.351   4.989
    1STR    H2026474   0.211   4.438   4.666
    1STR    H2126475   0.282   4.320   4.779
    1STR    H2226476   0.187   4.277   4.642
    1STR    H2326477   0.020   4.378   4.586
    1STR    H2726478   9.064   4.352   4.829
    1STR    H2826479   0.237   3.097   5.439
    1STR    H2926480   9.318   3.060   5.471
    1STR    H2A26481   9.091   2.921   5.216
    1STR    H2B26482   9.103   3.019   5.362
    1STR    H2C26483   9.117   2.843   5.368
    1STR   BCK126484   9.176   2.717   6.608
    1STR    O0326485   9.133   2.772   6.509
    1STR    N0426486   9.304   2.677   6.623
    1STR    C0526487   0.084   2.673   6.529
    1STR    C0626488   0.047   2.650   6.399
    1STR    C0726489   0.118   2.705   6.295
    1STR    N0826490   0.042   2.777   6.201
    1STR    C0926491   9.228   2.799   6.202
    1STR    O0A26492   9.145   2.715   6.231
    1STR    O0B26493   9.191   2.921   6.159
    1STR    C0C26494   9.090   3.000   6.223
    1STR    C0D26495   8.948   2.944   6.246
    1STR    C0E26496   9.143   3.051   6.354
    1STR    O0F26497   9.277   3.088   6.341
    1STR    C0G26498   0.049   3.001   6.402
    1STR    C0H26499   0.175   3.015   6.311
    1STR    C0I26500   0.058   3.011   6.555
    1STR    O0J26501   9.257   2.977   6.614
    1STR    C0K26502   0.443   4.206   6.774
    1STR    C0M26503   0.581   4.160   6.728
    1STR    C0N26504   0.341   4.203   6.663
    1STR    O0O26505   0.385   4.272   6.548
    1STR    C0P26506   0.438   4.206   6.444
    1STR    O0Q26507   0.552   4.222   6.405
    1STR    N0R26508   0.364   4.117   6.379
    1STR    C0S26509   0.228   4.103   6.352
    1STR    C0T26510   0.198   4.040   6.230
    1STR    C0U26511   0.065   4.022   6.190
    1STR    C0V26512   9.280   4.062   6.275
    1STR    C0W26513   9.142   4.037   6.225
    1STR    C0X26514   9.306   4.119   6.402
    1STR    N0Y26515   9.219   4.134   6.512
    1STR   BCK226516   9.094   4.113   6.556
    1STR    O1026517   9.080   4.094   6.677
    1STR    C1326518   0.121   4.143   6.434
    1STR    C1426519   0.258   2.715   6.313
    1STR    C1526520   0.310   2.706   6.445
    1STR    C1626521   0.220   2.696   6.554
    1STR    C1726522   0.263   2.716   6.696
    1STR    H1B26523   0.003   2.620   6.704
    1STR    H1C26524   9.268   2.621   6.386
    1STR    H1D26525   0.092   2.828   6.130
    1STR    H1E26526   9.081   3.088   6.159
    1STR    H1F26527   8.952   2.846   6.293
    1STR    H1G26528   8.891   3.008   6.313
    1STR    H1H26529   8.887   2.934   6.156
    1STR    H1I26530   9.121   2.985   6.435
    1STR    H1J26531   9.088   3.139   6.380
    1STR    H1K26532   0.010   2.902   6.399
    1STR    H1M26533   0.217   3.113   6.302
    1STR    H1N26534   0.151   2.993   6.208
    1STR    H1O26535   0.257   2.952   6.341
    1STR    H1P26536   0.134   2.946   6.596
    1STR    H1Q26537   0.073   3.110   6.590
    1STR   C01026538   9.235   3.026   6.743
    1STR   H01126539   9.259   3.132   6.748
    1STR   C01226540   9.090   2.994   6.764
    1STR   H01326541   9.080   2.911   6.828
    1STR   H01426542   9.037   2.979   6.670
    1STR   H01526543   9.037   3.060   6.827
    1STR   C01626544   9.305   2.950   6.849
    1STR   H01726545   9.258   2.982   6.941
    1STR   H01826546   9.289   2.844   6.833
    1STR   O01926547   0.121   2.974   6.861
    1STR   C02026548   0.168   2.946   6.990
    1STR   H02126549   0.132   3.019   7.059
    1STR   C02226550   0.122   2.812   7.041
    1STR   H02326551   0.018   2.784   7.028
    1STR   H02426552   0.142   2.804   7.146
    1STR   H02526553   0.182   2.746   6.984
    1STR   C02626554   0.319   2.952   6.973
    1STR   H02726555   0.353   2.881   6.898
    1STR   H02826556   0.340   3.052   6.938
    1STR   O02926557   0.394   2.928   7.087
    1STR   C03026558   0.497   3.023   7.106
    1STR   H03126559   0.458   3.124   7.107
    1STR   C03226560   0.538   2.985   7.247
    1STR   H03326561   0.565   2.880   7.249
    1STR   H03426562   0.457   2.987   7.318
    1STR   H03526563   0.615   3.050   7.286
    1STR   C03626564   0.612   3.030   7.002
    1STR   H03726565   0.654   3.131   7.007
    1STR   H03826566   0.691   2.963   7.034
    1STR   O03926567   0.570   3.000   6.868
    1STR   C04026568   0.616   3.080   6.759
    1STR   H04126569   0.576   3.178   6.774
    1STR   C04226570   0.767   3.095   6.751
    1STR   H04326571   0.808   3.001   6.718
    1STR   H04426572   0.813   3.122   6.845
    1STR   H04526573   0.794   3.170   6.677
    1STR   C04626574   0.558   3.028   6.624
    1STR   H04726575   0.639   2.992   6.560
    1STR   H04826576   0.496   2.940   6.640
    1STR   O04926577   0.490   3.132   6.554
    1STR   C05026578   0.347   3.127   6.560
    1STR   H05126579   0.319   3.035   6.513
    1STR   C05226580   0.304   3.120   6.706
    1STR   H05326581   0.308   3.015   6.732
    1STR   H05426582   0.206   3.159   6.729
    1STR   H05526583   0.368   3.177   6.771
    1STR   C05626584   0.283   3.251   6.494
    1STR   H05726585   0.280   3.310   6.583
    1STR   H05826586   0.348   3.291   6.417
    1STR   O05926587   0.143   3.256   6.457
    1STR   C06026588   0.076   3.358   6.380
    1STR   H06126589   0.107   3.457   6.407
    1STR   C06226590   0.111   3.345   6.231
    1STR   H06326591   0.074   3.251   6.191
    1STR   H06426592   0.218   3.348   6.216
    1STR   H06526593   0.066   3.425   6.174
    1STR   C06626594   9.242   3.361   6.406
    1STR   H06726595   9.212   3.465   6.406
    1STR   H06826596   9.192   3.318   6.320
    1STR   O06926597   9.191   3.296   6.526
    1STR   C07026598   9.058   3.336   6.568
    1STR   H07126599   9.068   3.440   6.588
    1STR   C07226600   8.947   3.324   6.461
    1STR   H07326601   8.911   3.222   6.448
    1STR   H07426602   8.977   3.363   6.364
    1STR   H07526603   8.859   3.382   6.491
    1STR   C07626604   9.007   3.272   6.700
    1STR   H07726605   8.911   3.313   6.724
    1STR   H07826606   8.974   3.175   6.670
    1STR   O07926607   9.099   3.272   6.813
    1STR   C08026608   9.063   3.270   6.954
    1STR   H08126609   9.063   3.374   6.982
    1STR   C08226610   8.925   3.209   6.991
    1STR   H08326611   8.924   3.101   6.992
    1STR   H08426612   8.843   3.241   6.926
    1STR   H08526613   8.899   3.239   7.093
    1STR   C08626614   9.166   3.228   7.062
    1STR   H08726615   9.152   3.294   7.147
    1STR   H08826616   9.127   3.144   7.111
    1STR   O08926617   9.306   3.211   7.039
    1STR   C09026618   0.066   3.253   7.151
    1STR   H09126619   0.040   3.354   7.171
    1STR   C09226620   0.038   3.173   7.276
    1STR   H09326621   0.080   3.073   7.269
    1STR   H09426622   9.254   3.172   7.305
    1STR   H09526623   0.086   3.216   7.361
    1STR   C09626624   0.218   3.262   7.131
    1STR   H09726625   0.258   3.164   7.118
    1STR   H09826626   0.246   3.317   7.041
    1STR   O09926627   0.270   3.328   7.247
    1STR   C10026628   0.367   3.261   7.325
    1STR   H10126629   0.364   3.160   7.290
    1STR   C10226630   0.506   3.323   7.298
    1STR   H10326631   0.523   3.407   7.365
    1STR   H10426632   0.515   3.359   7.196
    1STR   H10526633   0.588   3.255   7.317
    1STR   C10626634   0.340   3.245   7.477
    1STR   H10726635   0.343   3.137   7.496
    1STR   H10826636   0.422   3.283   7.537
    1STR   O10926637   0.213   3.283   7.530
    1STR   C11026638   0.180   3.419   7.555
    1STR   H11126639   0.117   3.416   7.644
    1STR   C11226640   0.303   3.506   7.589
    1STR   H11326641   0.362   3.460   7.669
    1STR   H11426642   0.273   3.605   7.623
    1STR   H11526643   0.368   3.519   7.503
    1STR   C11626644   0.092   3.481   7.444
    1STR   H11726645   0.085   3.587   7.464
    1STR   H11826646   0.139   3.475   7.349
    1STR   O11926647   9.284   3.421   7.425
    1STR   C12026648   9.190   3.505   7.357
    1STR   H12126649   9.185   3.594   7.414
    1STR   C12226650   9.221   3.547   7.213
    1STR   H12326651   9.173   3.487   7.138
    1STR   H12426652   0.006   3.550   7.195
    1STR   H12526653   9.185   3.646   7.191
    1STR   C12626654   9.051   3.451   7.371
    1STR   H12726655   8.982   3.522   7.327
    1STR   H12826656   9.040   3.357   7.318
    1STR   O12926657   9.022   3.444   7.508
    1STR   C13026658   8.965   3.322   7.545
    1STR   H13126659   9.020   3.240   7.498
    1STR   C13226660   8.989   3.311   7.695
    1STR   H13326661   8.950   3.397   7.749
    1STR   H13426662   9.097   3.306   7.714
    1STR   H13526663   8.943   3.221   7.735
    1STR   C13626664   8.815   3.320   7.508
    1STR   H13726665   8.770   3.229   7.546
    1STR   H13826666   8.767   3.402   7.561
    1STR   O13926667   8.792   3.333   7.367
    1STR   C14026668   8.658   3.313   7.322
    1STR   H14126669   8.647   3.205   7.313
    1STR   C14226670   8.548   3.363   7.419
    1STR   H14326671   8.558   3.469   7.439
    1STR   H14426672   8.550   3.309   7.514
    1STR   H14526673   8.449   3.347   7.375
    1STR   C14626674   8.638   3.373   7.180
    1STR   H14726675   8.712   3.339   7.110
    1STR   H14826676   8.545   3.332   7.142
    1STR   O14926677   8.620   3.515   7.170
    1STR   C15026678   8.731   3.604   7.180
    1STR   H15126679   8.697   3.697   7.133
    1STR   C15226680   8.751   3.642   7.327
    1STR   H15326681   8.669   3.706   7.362
    1STR   H15426682   8.844   3.693   7.346
    1STR   H15526683   8.755   3.558   7.393
    1STR   C15626684   8.858   3.565   7.099
    1STR   H15726685   8.939   3.631   7.125
    1STR   H15826686   8.891   3.464   7.122
    1STR   O15926687   8.826   3.582   6.961
    1STR   C16026688   8.918   3.540   6.859
    1STR   H16126689   8.912   3.437   6.878
    1STR   C16226690   8.834   3.551   6.732
    1STR   H16326691   8.897   3.558   6.644
    1STR   H16426692   8.769   3.637   6.738
    1STR   H16526693   8.765   3.468   6.721
    1STR   C16626694   9.070   3.591   6.854
    1STR   H16726695   9.076   3.694   6.822
    1STR   H16826696   9.113   3.590   6.953
    1STR   O16926697   9.162   3.527   6.763
    1STR   C17026698   9.306   3.541   6.780
    1STR   H17126699   0.007   3.639   6.823
    1STR   C17226700   0.019   3.427   6.871
    1STR   H17326701   9.312   3.332   6.827
    1STR   H17426702   9.293   3.440   6.968
    1STR   H17526703   0.124   3.411   6.884
    1STR   C17626704   0.077   3.517   6.655
    1STR   H17726705   0.075   3.410   6.633
    1STR   H17826706   0.032   3.567   6.572
    1STR   O17926707   0.216   3.559   6.670
    1STR   C18026708   0.313   3.548   6.562
    1STR   H18126709   0.278   3.476   6.496
    1STR   C18226710   0.317   3.646   6.445
    1STR   H18326711   0.296   3.745   6.477
    1STR   H18426712   0.244   3.623   6.367
    1STR   H18526713   0.413   3.644   6.394
    1STR   C18626714   0.454   3.502   6.608
    1STR   H18726715   0.513   3.476   6.521
    1STR   H18826716   0.503   3.586   6.653
    1STR   O18926717   0.460   3.389   6.695
    1STR   C19026718   0.496   3.405   6.832
    1STR   H19126719   0.472   3.315   6.889
    1STR   C19226720   0.645   3.428   6.847
    1STR   H19326721   0.680   3.498   6.773
    1STR   H19426722   0.703   3.338   6.833
    1STR   H19526723   0.666   3.463   6.948
    1STR   C19626724   0.405   3.507   6.894
    1STR   H19726725   0.411   3.602   6.846
    1STR   H19826726   0.308   3.470   6.868
    1STR   O19926727   0.414   3.519   7.035
    1STR   C20026728   0.342   3.632   7.083
    1STR   H20126729   0.384   3.725   7.042
    1STR   C20226730   0.197   3.618   7.036
    1STR   H20326731   0.167   3.517   7.058
    1STR   H20426732   0.191   3.640   6.930
    1STR   H20526733   0.119   3.679   7.079
    1STR   C20626734   0.358   3.633   7.236
    1STR   H20726735   0.316   3.719   7.288
    1STR   H20826736   0.308   3.548   7.275
    1STR   O20926737   0.491   3.614   7.277
    1STR   C21026738   0.573   3.727   7.265
    1STR   H21126739   0.516   3.811   7.227
    1STR   C21226740   0.622   3.753   7.407
    1STR   H21326741   0.676   3.668   7.446
    1STR   H21426742   0.536   3.770   7.472
    1STR   H21526743   0.687   3.841   7.411
    1STR   C21626744   0.684   3.693   7.167
    1STR   H21726745   0.763   3.768   7.174
    1STR   H21826746   0.728   3.596   7.192
    1STR   O21926747   0.626   3.684   7.037
    1STR   C22026748   0.687   3.765   6.940
    1STR   H22126749   0.692   3.864   6.985
    1STR   C22226750   0.826   3.704   6.909
    1STR   H22326751   0.824   3.601   6.880
    1STR   H22426752   0.893   3.707   6.995
    1STR   H22526753   0.874   3.757   6.826
    1STR   C22626754   0.605   3.785   6.811
    1STR   H22726755   0.656   3.867   6.762
    1STR   H22826756   0.628   3.702   6.747
    1STR   O22926757   0.462   3.809   6.816
    1STR   C23026758   0.400   3.863   6.697
    1STR   H23126759   0.422   3.961   6.732
    1STR   C23226760   0.490   3.863   6.569
    1STR   H23326761   0.527   3.765   6.543
    1STR   H23426762   0.577   3.927   6.576
    1STR   H23526763   0.437   3.901   6.482
    1STR   C23626764   0.243   3.887   6.675
    1STR   H23726765   0.207   3.963   6.745
    1STR   H23826766   0.240   3.935   6.578
    1STR   O23926767   0.133   3.794   6.661
    1STR   C24026768   0.024   3.839   6.576
    1STR   H24126769   0.025   3.946   6.587
    1STR   C24226770   0.048   3.798   6.429
    1STR   H24326771   0.051   3.691   6.414
    1STR   H24426772   0.138   3.843   6.389
    1STR   H24526773   9.288   3.829   6.364
    1STR   C24626774   9.197   3.801   6.609
    1STR   H24726775   9.185   3.695   6.612
    1STR   H24826776   9.170   3.844   6.705
    1STR   O24926777   9.111   3.853   6.506
    1STR   C25026778   8.984   3.798   6.471
    1STR   H25126779   8.952   3.858   6.387
    1STR   C25226780   9.002   3.662   6.406
    1STR   H25326781   9.053   3.598   6.475
    1STR   H25426782   9.065   3.670   6.318
    1STR   H25526783   8.907   3.616   6.378
    1STR   C25626784   8.866   3.817   6.569
    1STR   H25726785   8.811   3.903   6.536
    1STR   H25826786   8.792   3.738   6.555
    1STR   O25926787   8.909   3.829   6.704
    1STR   C26026788   8.843   3.908   6.804
    1STR   H26126789   8.856   4.014   6.789
    1STR   C26226790   8.695   3.875   6.831
    1STR   H26326791   8.683   3.776   6.875
    1STR   H26426792   8.635   3.881   6.741
    1STR   H26526793   8.655   3.946   6.904
    1STR   C26626794   8.935   3.878   6.919
    1STR   H26726795   8.927   3.774   6.935
    1STR   H26826796   9.034   3.900   6.880
    1STR   O26926797   8.918   3.924   7.052
    1STR   C27026798   9.041   3.893   7.119
    1STR   H27126799   9.080   3.797   7.089
    1STR   C27226800   9.139   3.999   7.072
    1STR   H27326801   9.093   4.074   7.008
    1STR   H27426802   9.217   3.955   7.012
    1STR   H27526803   9.181   4.051   7.157
    1STR   C27626804   9.026   3.888   7.271
    1STR   H27726805   9.042   3.984   7.315
    1STR   H27826806   8.924   3.864   7.293
    1STR   O27926807   9.106   3.795   7.341
    1STR   C28026808   9.221   3.848   7.407
    1STR   H28126809   9.207   3.955   7.420
    1STR   C28226810   9.227   3.792   7.551
    1STR   H28326811   9.261   3.691   7.566
    1STR   H28426812   9.129   3.797   7.597
    1STR   H28526813   9.299   3.848   7.610
    1STR   C28626814   0.031   3.828   7.326
    1STR   H28726815   0.117   3.839   7.390
    1STR   H28826816   0.043   3.728   7.290
    1STR   O28926817   0.038   3.921   7.220
    1STR   C29026818   0.160   3.923   7.150
    1STR   H29126819   0.208   3.829   7.161
    1STR   C29226820   0.145   3.946   6.999
    1STR   H29326821   0.105   4.044   6.974
    1STR   H29426822   0.083   3.871   6.952
    1STR   H29526823   0.242   3.939   6.951
    1STR   C29626824   0.264   4.008   7.217
    1STR   H29726825   0.228   4.108   7.229
    1STR   H29826826   0.289   3.970   7.315
    1STR   O29926827   0.374   3.999   7.131
    1STR   C30026828   0.460   4.108   7.137
    1STR   H30126829   0.412   4.199   7.175
    1STR   C30226830   0.571   4.061   7.230
    1STR   H30326831   0.639   3.992   7.181
    1STR   H30426832   0.528   4.008   7.314
    1STR   H30526833   0.629   4.141   7.274
    1STR   C30626834   0.502   4.125   6.992
    1STR   H30726835   0.572   4.207   6.986
    1STR   H30826836   0.549   4.031   6.967
    1STR   O30926837   0.400   4.143   6.895
    1STR    H1R26838   0.448   4.310   6.795
    1STR    H1S26839   0.653   4.231   6.764
    1STR    H1T26840   0.596   4.149   6.623
    1STR    H1U26841   0.605   4.063   6.768
    1STR    H1V26842   0.246   4.237   6.703
    1STR    H1W26843   0.323   4.105   6.630
    1STR    H1X26844   0.426   4.069   6.316
    1STR    H1Y26845   0.277   4.008   6.163
    1STR    H1Z26846   0.044   3.977   6.095
    1STR    H2026847   9.137   4.025   6.117
    1STR    H2126848   9.099   3.952   6.275
    1STR    H2226849   9.090   4.128   6.251
    1STR    H2326850   9.267   4.165   6.595
    1STR    H2726851   0.140   4.190   6.528
    1STR    H2826852   0.323   2.745   6.232
    1STR    H2926853   0.416   2.721   6.462
    1STR    H2A26854   0.273   2.618   6.740
    1STR    H2B26855   0.187   2.770   6.752
    1STR    H2C26856   0.354   2.773   6.702
    1STR   BCK126857   8.764   5.223   9.032
    1STR    O0326858   8.842   5.144   9.080
    1STR    N0426859   8.665   5.280   9.099
    1STR    C0526860   8.630   5.270   9.234
    1STR    C0626861   8.692   5.181   0.006
    1STR    C0726862   8.664   5.188   0.144
    1STR    N0826863   8.760   5.136   0.231
    1STR    C0926864   8.785   5.151   0.361
    1STR    O0A26865   8.708   5.203   0.441
    1STR    O0B26866   8.907   5.096   0.390
    1STR    C0C26867   8.973   5.127   0.512
    1STR    C0D26868   8.900   5.064   0.631
    1STR    C0E26869   9.131   5.138   0.523
    1STR    O0F26870   9.220   5.062   0.444
    1STR    C0G26871   0.022   5.126   0.397
    1STR    C0H26872   9.305   5.225   0.291
    1STR    C0I26873   0.112   5.188   0.506
    1STR    O0J26874   0.255   5.195   0.482
    1STR    C0K26875   9.069   6.289   8.756
    1STR    C0M26876   8.996   6.405   8.693
    1STR    C0N26877   8.969   6.177   8.765
    1STR    O0O26878   8.887   6.202   8.878
    1STR    C0P26879   8.761   6.162   8.885
    1STR    O0Q26880   8.694   6.129   8.788
    1STR    N0R26881   8.712   6.152   9.008
    1STR    C0S26882   8.766   6.182   9.134
    1STR    C0T26883   8.691   6.149   9.249
    1STR    C0U26884   8.739   6.178   0.059
    1STR    C0V26885   8.857   6.252   0.077
    1STR    C0W26886   8.899   6.304   0.215
    1STR    C0X26887   8.926   6.294   9.282
    1STR    N0Y26888   9.016   6.396   9.302
    1STR   BCK226889   9.020   6.513   9.240
    1STR    O1026890   9.080   6.603   9.294
    1STR    C1326891   8.887   6.251   9.154
    1STR    C1426892   8.558   5.270   0.188
    1STR    C1526893   8.489   5.351   0.096
    1STR    C1626894   8.527   5.354   9.281
    1STR    C1726895   8.459   5.451   9.186
    1STR    H1B26896   8.611   5.344   9.045
    1STR    H1C26897   8.770   5.115   9.294
    1STR    H1D26898   8.847   5.102   0.191
    1STR    H1E26899   8.944   5.229   0.525
    1STR    H1F26900   8.861   4.966   0.608
    1STR    H1G26901   8.964   5.060   0.716
    1STR    H1H26902   8.812   5.122   0.658
    1STR    H1I26903   9.162   5.121   0.624
    1STR    H1J26904   9.163   5.240   0.515
    1STR    H1K26905   0.079   5.052   0.344
    1STR    H1M26906   9.221   5.288   0.319
    1STR    H1N26907   9.284   5.172   0.200
    1STR    H1O26908   0.068   5.289   0.271
    1STR    H1P26909   0.068   5.282   0.539
    1STR    H1Q26910   0.100   5.123   0.592
    1STR   C01026911   0.312   5.313   0.422
    1STR   H01126912   0.229   5.375   0.396
    1STR   C01226913   0.409   5.396   0.507
    1STR   H01326914   0.498   5.339   0.532
    1STR   H01426915   0.367   5.432   0.598
    1STR   H01526916   0.442   5.484   0.452
    1STR   C01626917   0.387   5.282   0.293
    1STR   H01726918   0.436   5.370   0.252
    1STR   H01826919   0.464   5.206   0.307
    1STR   O01926920   0.285   5.241   0.208
    1STR   C02026921   0.324   5.198   0.082
    1STR   H02126922   0.418   5.144   0.088
    1STR   C02226923   0.204   5.109   0.049
    1STR   H02326924   0.183   5.034   0.124
    1STR   H02426925   0.217   5.053   9.277
    1STR   H02526926   0.115   5.169   0.041
    1STR   C02626927   0.337   5.318   9.310
    1STR   H02726928   0.242   5.325   9.260
    1STR   H02826929   0.348   5.410   0.047
    1STR   O02926930   0.450   5.312   9.224
    1STR   C03026931   0.422   5.319   9.086
    1STR   H03126932   0.347   5.390   9.062
    1STR   C03226933   0.539   5.391   9.016
    1STR   H03326934   0.636   5.354   9.042
    1STR   H03426935   0.541   5.495   9.047
    1STR   H03526936   0.528   5.389   8.907
    1STR   C03626937   0.367   5.187   9.030
    1STR   H03726938   0.367   5.188   8.922
    1STR   H03826939   0.434   5.106   9.060
    1STR   O03926940   0.234   5.156   9.077
    1STR   C04026941   0.127   5.243   9.038
    1STR   H04126942   0.161   5.341   9.061
    1STR   C04226943   0.120   5.259   8.885
    1STR   H04326944   0.132   5.164   8.835
    1STR   H04426945   0.198   5.326   8.850
    1STR   H04526946   0.026   5.303   8.852
    1STR   C04626947   9.312   5.254   9.117
    1STR   H04726948   9.313   5.355   9.158
    1STR   H04826949   9.238   5.254   9.039
    1STR   O04926950   9.255   5.171   9.222
    1STR   C05026951   9.150   5.241   9.295
    1STR   H05126952   9.206   5.306   0.039
    1STR   C05226953   9.054   5.304   9.195
    1STR   H05326954   8.955   5.323   9.232
    1STR   H05426955   9.045   5.230   9.118
    1STR   H05526956   9.089   5.395   9.148
    1STR   C05626957   9.059   5.168   0.076
    1STR   H05726958   8.976   5.121   0.023
    1STR   H05826959   9.119   5.084   0.106
    1STR   O05926960   9.013   5.235   0.198
    1STR   C06026961   8.975   5.375   0.213
    1STR   H06126962   9.054   5.424   0.163
    1STR   C06226963   8.846   5.426   0.147
    1STR   H06326964   8.761   5.405   0.209
    1STR   H06426965   8.828   5.391   0.047
    1STR   H06526966   8.841   5.534   0.142
    1STR   C06626967   8.953   5.429   0.360
    1STR   H06726968   8.927   5.533   0.354
    1STR   H06826969   8.863   5.386   0.403
    1STR   O06926970   9.054   5.418   0.460
    1STR   C07026971   9.021   5.474   0.589
    1STR   H07126972   8.922   5.519   0.587
    1STR   C07226973   9.027   5.380   0.712
    1STR   H07326974   9.121   5.325   0.717
    1STR   H07426975   8.944   5.311   0.717
    1STR   H07526976   9.024   5.439   0.804
    1STR   C07626977   9.123   5.583   0.612
    1STR   H07726978   9.153   5.612   0.513
    1STR   H07826979   9.080   5.668   0.664
    1STR   O07926980   9.238   5.539   0.681
    1STR   C08026981   0.028   5.620   0.645
    1STR   H08126982   9.313   5.713   0.603
    1STR   C08226983   0.106   5.658   0.771
    1STR   H08326984   0.126   5.571   0.833
    1STR   H08426985   0.048   5.727   0.832
    1STR   H08526986   0.201   5.705   0.746
    1STR   C08626987   0.110   5.551   0.536
    1STR   H08726988   0.198   5.607   0.509
    1STR   H08826989   0.151   5.466   0.583
    1STR   O08926990   0.035   5.500   0.424
    1STR   C09026991   0.048   5.572   0.303
    1STR   H09126992   0.029   5.674   0.329
    1STR   C09226993   0.174   5.539   0.219
    1STR   H09326994   0.167   5.441   0.174
    1STR   H09426995   0.268   5.546   0.274
    1STR   H09526996   0.182   5.605   0.133
    1STR   C09626997   9.255   5.548   0.210
    1STR   H09726998   9.262   5.446   0.179
    1STR   H09826999   9.165   5.560   0.267
    1STR   O09927000   9.263   5.637   0.100
    1STR   C10027001   9.189   5.593   9.309
    1STR   H10127002   9.202   5.488   9.302
    1STR   C10227003   9.046   5.624   0.010
    1STR   H10327004   9.022   5.628   0.115
    1STR   H10427005   8.984   5.551   9.278
    1STR   H10527006   9.026   5.720   9.289
    1STR   C10627007   9.237   5.640   9.175
    1STR   H10727008   9.263   5.744   9.175
    1STR   H10827009   0.008   5.584   9.163
    1STR   O10927010   9.142   5.611   9.073
    1STR   C11027011   9.191   5.549   8.955
    1STR   H11127012   9.212   5.445   8.973
    1STR   C11227013   9.081   5.554   8.851
    1STR   H11327014   9.059   5.653   8.822
    1STR   H11427015   8.985   5.521   8.892
    1STR   H11527016   9.110   5.502   8.761
    1STR   C11627017   9.316   5.614   8.902
    1STR   H11727018   0.002   5.608   8.795
    1STR   H11827019   9.304   5.719   8.921
    1STR   O11927020   0.107   5.551   8.964
    1STR   C12027021   0.210   5.636   9.008
    1STR   H12127022   0.173   5.734   9.030
    1STR   C12227023   0.255   5.588   9.144
    1STR   H12327024   0.202   5.500   9.175
    1STR   H12427025   0.222   5.654   9.219
    1STR   H12527026   0.362   5.577   9.155
    1STR   C12627027   0.319   5.643   8.903
    1STR   H12727028   0.393   5.719   8.930
    1STR   H12827029   0.370   5.548   8.895
    1STR   O12927030   0.254   5.665   8.779
    1STR   C13027031   0.297   5.778   8.707
    1STR   H13127032   0.322   5.861   8.773
    1STR   C13227033   0.423   5.732   8.633
    1STR   H13327034   0.403   5.642   8.575
    1STR   H13427035   0.503   5.706   8.704
    1STR   H13527036   0.462   5.808   8.566
    1STR   C13627037   0.180   5.821   8.617
    1STR   H13727038   0.196   5.924   8.586
    1STR   H13827039   0.181   5.760   8.527
    1STR   O13927040   0.051   5.806   8.680
    1STR   C14027041   9.262   5.885   8.628
    1STR   H14127042   9.288   5.990   8.644
    1STR   C14227043   9.253   5.856   8.477
    1STR   H14327044   9.167   5.906   8.432
    1STR   H14427045   9.244   5.749   8.459
    1STR   H14527046   0.021   5.892   8.422
    1STR   C14627047   9.120   5.859   8.691
    1STR   H14727048   9.059   5.932   8.639
    1STR   H14827049   9.086   5.763   8.653
    1STR   O14927050   9.091   5.869   8.835
    1STR   C15027051   8.951   5.875   8.883
    1STR   H15127052   8.940   5.974   8.924
    1STR   C15227053   8.849   5.855   8.768
    1STR   H15327054   8.746   5.866   8.804
    1STR   H15427055   8.857   5.756   8.724
    1STR   H15527056   8.857   5.929   8.690
    1STR   C15627057   8.900   5.795   9.010
    1STR   H15727058   8.792   5.789   8.999
    1STR   H15827059   8.931   5.692   9.012
    1STR   O15927060   8.921   5.854   9.139
    1STR   C16027061   8.817   5.839   9.240
    1STR   H16127062   8.744   5.910   9.203
    1STR   C16227063   8.736   5.707   9.240
    1STR   H16327064   8.798   5.620   9.224
    1STR   H16427065   8.661   5.708   9.162
    1STR   H16527066   8.684   5.694   0.015
    1STR   C16627067   8.854   5.892   0.064
    1STR   H16727068   8.921   5.976   0.049
    1STR   H16827069   8.761   5.932   0.104
    1STR   O16927070   8.898   5.810   0.176
    1STR   C17027071   8.993   5.874   0.265
    1STR   H17127072   9.083   5.880   0.204
    1STR   C17227073   8.933   6.002   0.323
    1STR   H17327074   8.859   5.980   0.400
    1STR   H17427075   8.883   6.060   0.248
    1STR   H17527076   9.009   6.066   0.367
    1STR   C17627077   9.048   5.797   0.386
    1STR   H17727078   8.980   5.798   0.470
    1STR   H17827079   9.047   5.696   0.352
    1STR   O17927080   9.186   5.822   0.427
    1STR   C18027081   9.224   5.940   0.500
    1STR   H18127082   9.217   6.021   0.430
    1STR   C18227083   9.125   5.973   0.614
    1STR   H18327084   9.122   5.893   0.688
    1STR   H18427085   9.024   5.992   0.579
    1STR   H18527086   9.158   6.064   0.665
    1STR   C18627087   0.049   5.947   0.562
    1STR   H18727088   0.079   6.049   0.565
    1STR   H18827089   0.039   5.923   0.668
    1STR   O18927090   0.160   5.862   0.527
    1STR   C19027091   0.258   5.903   0.431
    1STR   H19127092   0.257   6.007   0.406
    1STR   C19227093   0.398   5.860   0.477
    1STR   H19327094   0.403   5.753   0.495
    1STR   H19427095   0.428   5.912   0.568
    1STR   H19527096   0.471   5.883   0.399
    1STR   C19627097   0.216   5.826   0.311
    1STR   H19727098   0.218   5.731   0.357
    1STR   H19827099   0.115   5.850   0.281
    1STR   O19927100   0.307   5.795   0.209
    1STR   C20027101   0.285   5.855   0.084
    1STR   H20127102   0.318   5.953   0.105
    1STR   C20227103   0.396   5.789   0.002
    1STR   H20327104   0.494   5.826   0.029
    1STR   H20427105   0.382   5.808   9.216
    1STR   H20527106   0.401   5.682   0.021
    1STR   C20627107   0.142   5.863   0.017
    1STR   H20727108   0.151   5.907   9.238
    1STR   H20827109   0.103   5.765   0.003
    1STR   O20927110   0.032   5.923   0.086
    1STR   C21027111   9.279   6.029   0.024
    1STR   H21127112   0.027   6.090   9.285
    1STR   C21227113   9.169   5.977   9.253
    1STR   H21327114   9.116   5.899   9.304
    1STR   H21427115   9.206   5.937   9.160
    1STR   H21527116   9.098   6.055   9.225
    1STR   C21627117   9.210   6.111   0.135
    1STR   H21727118   9.161   6.203   0.108
    1STR   H21827119   9.120   6.063   0.164
    1STR   O21927120   9.288   6.126   0.250
    1STR   C22027121   0.074   6.217   0.241
    1STR   H22127122   0.038   6.306   0.192
    1STR   C22227123   0.092   6.255   0.383
    1STR   H22327124   9.316   6.257   0.433
    1STR   H22427125   0.144   6.350   0.396
    1STR   H22527126   0.149   6.178   0.428
    1STR   C22627127   0.199   6.146   0.182
    1STR   H22727128   0.174   6.047   0.213
    1STR   H22827129   0.203   6.139   0.074
    1STR   O22927130   0.330   6.159   0.239
    1STR   C23027131   0.439   6.199   0.156
    1STR   H23127132   0.415   6.289   0.103
    1STR   C23227133   0.547   6.226   0.261
    1STR   H23327134   0.568   6.135   0.317
    1STR   H23427135   0.513   6.301   0.331
    1STR   H23527136   0.639   6.259   0.214
    1STR   C23627137   0.495   6.111   0.042
    1STR   H23727138   0.575   6.167   9.315
    1STR   H23827139   0.542   6.022   0.084
    1STR   O23927140   0.397   6.077   9.264
    1STR   C24027141   0.433   6.076   9.128
    1STR   H24127142   0.449   6.177   9.103
    1STR   C24227143   0.561   5.999   9.092
    1STR   H24327144   0.647   6.033   9.149
    1STR   H24427145   0.585   6.015   8.987
    1STR   H24527146   0.552   5.892   9.107
    1STR   C24627147   0.315   6.034   9.041
    1STR   H24727148   0.338   6.063   8.939
    1STR   H24827149   0.308   5.925   9.043
    1STR   O24927150   0.188   6.088   9.081
    1STR   C25027151   0.091   6.080   8.977
    1STR   H25127152   0.136   6.123   8.890
    1STR   C25227153   0.068   5.939   8.942
    1STR   H25327154   9.308   5.932   8.872
    1STR   H25427155   0.039   5.886   9.032
    1STR   H25527156   0.153   5.892   8.895
    1STR   C25627157   9.269   6.141   8.991
    1STR   H25727158   9.248   6.184   8.897
    1STR   H25827159   9.190   6.066   8.998
    1STR   O25927160   9.240   6.235   9.089
    1STR   C26027161   0.015   6.335   9.110
    1STR   H26127162   0.116   6.303   9.086
    1STR   C26227163   9.304   6.459   9.035
    1STR   H26327164   9.245   6.437   8.947
    1STR   H26427165   0.073   6.513   9.007
    1STR   H26527166   9.251   6.526   9.101
    1STR   C26627167   0.006   6.359   9.256
    1STR   H26727168   9.276   6.448   9.292
    1STR   H26827169   9.261   6.285   9.292
    1STR   O26927170   0.130   6.332   9.311
    1STR   C27027171   0.199   6.448   0.016
    1STR   H27127172   0.137   6.534   0.013
    1STR   C27227173   0.242   6.463   0.158
    1STR   H27327174   0.280   6.380   0.213
    1STR   H27427175   0.156   6.494   0.216
    1STR   H27527176   0.319   6.538   0.157
    1STR   C27627177   0.292   6.473   9.223
    1STR   H27727178   0.234   6.485   9.133
    1STR   H27827179   0.323   6.571   9.242
    1STR   O27927180   0.397   6.380   9.206
    1STR   C28027181   0.473   6.412   9.092
    1STR   H28127182   0.479   6.519   9.096
    1STR   C28227183   0.618   6.363   9.102
    1STR   H28327184   0.636   6.272   9.045
    1STR   H28427185   0.644   6.344   9.205
    1STR   H28527186   0.687   6.438   9.065
    1STR   C28627187   0.396   6.379   8.963
    1STR   H28727188   0.300   6.333   8.983
    1STR   H28827189   0.378   6.480   8.930
    1STR   O28927190   0.463   6.305   8.861
    1STR   C29027191   0.439   6.353   8.729
    1STR   H29127192   0.425   6.461   8.728
    1STR   C29227193   0.574   6.329   8.660
    1STR   H29327194   0.597   6.222   8.657
    1STR   H29427195   0.654   6.377   8.715
    1STR   H29527196   0.574   6.368   8.558
    1STR   C29627197   0.325   6.287   8.646
    1STR   H29727198   0.300   6.350   8.562
    1STR   H29827199   0.363   6.194   8.603
    1STR   O29927200   0.206   6.245   8.714
    1STR   C30027201   0.102   6.338   8.745
    1STR   H30127202   0.076   6.317   8.846
    1STR   C30227203   0.148   6.482   8.757
    1STR   H30327204   0.190   6.524   8.666
    1STR   H30427205   0.214   6.503   8.838
    1STR   H30527206   0.062   6.536   8.790
    1STR   C30627207   9.291   6.331   8.659
    1STR   H30727208   9.241   6.423   8.680
    1STR   H30827209   9.315   6.332   8.553
    1STR   O30927210   9.186   6.238   8.686
    1STR    H1R27211   9.093   6.318   8.858
    1STR    H1S27212   8.889   6.404   8.713
    1STR    H1T27213   9.010   6.404   8.585
    1STR    H1U27214   9.031   6.498   8.738
    1STR    H1V27215   9.029   6.090   8.781
    1STR    H1W27216   8.913   6.164   8.672
    1STR    H1X27217   8.617   6.118   9.005
    1STR    H1Y27218   8.597   6.096   9.240
    1STR    H1Z27219   8.683   6.147   0.145
    1STR    H2027220   8.996   6.264   0.245
    1STR    H2127221   8.909   6.412   0.216
    1STR    H2227222   8.827   6.278   0.292
    1STR    H2327223   9.061   6.400   0.072
    1STR    H2727224   8.950   6.283   9.073
    1STR    H2827225   8.533   5.278   0.293
    1STR    H2927226   8.410   5.415   0.132
    1STR    H2A27227   8.534   5.513   9.135
    1STR    H2B27228   8.392   5.517   9.239
    1STR    H2C27229   8.402   5.396   9.111
    1STR   BCK127230   9.279   5.021   1.875
    1STR    O0327231   9.266   5.048   1.757
    1STR    N0427232   0.067   5.042   1.948
    1STR    C0527233   0.160   5.143   1.939
    1STR    C0627234   0.175   5.223   1.826
    1STR    C0727235   0.269   5.326   1.820
    1STR    N0827236   0.247   5.416   1.719
    1STR    C0927237   0.269   5.545   1.720
    1STR    O0A27238   0.376   5.594   1.755
    1STR    O0B27239   0.158   5.617   1.688
    1STR    C0C27240   0.049   5.587   1.598
    1STR    C0D27241   0.109   5.600   1.459
    1STR    C0E27242   9.281   5.461   1.614
    1STR    O0F27243   9.170   5.465   1.704
    1STR    C0G27244   9.176   5.376   1.817
    1STR    C0H27245   9.269   5.446   1.912
    1STR    C0I27246   9.039   5.347   1.881
    1STR    O0J27247   9.049   5.328   2.025
    1STR    C0K27248   8.934   6.209   2.768
    1STR    C0M27249   8.845   6.161   2.884
    1STR    C0N27250   8.934   6.360   2.753
    1STR    O0O27251   9.042   6.415   2.677
    1STR    C0P27252   9.037   6.431   2.547
    1STR    O0Q27253   8.952   6.377   2.480
    1STR    N0R27254   9.132   6.514   2.500
    1STR    C0S27255   9.171   6.550   2.369
    1STR    C0T27256   9.280   6.636   2.345
    1STR    C0U27257   0.008   6.664   2.216
    1STR    C0V27258   9.272   6.604   2.104
    1STR    C0W27259   0.024   6.604   1.969
    1STR    C0X27260   9.163   6.519   2.124
    1STR    N0Y27261   9.107   6.464   2.012
    1STR   BCK227262   9.161   6.366   1.939
    1STR    O1027263   9.257   6.299   1.972
    1STR    C1327264   9.114   6.494   2.253
    1STR    C1427265   0.359   5.342   1.925
    1STR    C1527266   0.331   5.274   2.044
    1STR    C1627267   0.227   5.180   2.055
    1STR    C1727268   0.178   5.132   2.191
    1STR    H1B27269   0.072   4.989   2.034
    1STR    H1C27270   0.105   5.214   1.747
    1STR    H1D27271   0.173   5.393   1.656
    1STR    H1E27272   9.299   5.670   1.609
    1STR    H1F27273   0.179   5.519   1.441
    1STR    H1G27274   0.033   5.599   1.381
    1STR    H1H27275   0.164   5.694   1.448
    1STR    H1I27276   0.020   5.372   1.629
    1STR    H1J27277   9.235   5.447   1.516
    1STR    H1K27278   9.218   5.280   1.789
    1STR    H1M27279   0.048   5.457   1.870
    1STR    H1N27280   9.279   5.395   2.008
    1STR    H1O27281   9.233   5.547   1.924
    1STR    H1P27282   8.972   5.428   1.855
    1STR    H1Q27283   8.998   5.258   1.834
    1STR   C01027284   8.935   5.285   2.100
    1STR   H01127285   8.854   5.349   2.077
    1STR   C01227286   8.865   5.160   2.049
    1STR   H01327287   8.924   5.071   2.037
    1STR   H01427288   8.820   5.180   1.952
    1STR   H01527289   8.784   5.138   2.117
    1STR   C01627290   8.948   5.298   2.256
    1STR   H01727291   8.953   5.404   2.282
    1STR   H01827292   8.856   5.262   2.302
    1STR   O01927293   9.060   5.233   2.317
    1STR   C02027294   9.057   5.202   2.459
    1STR   H02127295   8.990   5.118   2.471
    1STR   C02227296   9.196   5.155   2.505
    1STR   H02327297   9.258   5.113   2.427
    1STR   H02427298   9.191   5.085   2.586
    1STR   H02527299   9.256   5.234   2.548
    1STR   C02627300   9.009   5.312   2.555
    1STR   H02727301   9.074   5.397   2.554
    1STR   H02827302   8.915   5.354   2.521
    1STR   O02927303   9.000   5.257   2.686
    1STR   C03027304   9.032   5.343   2.795
    1STR   H03127305   9.062   5.440   2.764
    1STR   C03227306   8.910   5.362   2.884
    1STR   H03327307   8.900   5.280   2.954
    1STR   H03427308   8.818   5.375   2.828
    1STR   H03527309   8.922   5.450   2.946
    1STR   C03627310   9.149   5.292   2.877
    1STR   H03727311   9.173   5.368   2.950
    1STR   H03827312   9.116   5.205   2.932
    1STR   O03927313   9.267   5.260   2.803
    1STR   C04027314   0.059   5.242   2.888
    1STR   H04127315   0.067   5.325   2.957
    1STR   C04227316   0.038   5.114   2.967
    1STR   H04327317   0.031   5.029   2.902
    1STR   H04427318   9.272   5.113   3.033
    1STR   H04527319   0.120   5.102   3.034
    1STR   C04627320   0.193   5.237   2.814
    1STR   H04727321   0.258   5.166   2.865
    1STR   H04827322   0.177   5.197   2.714
    1STR   O04927323   0.265   5.362   2.810
    1STR   C05027324   0.380   5.352   2.727
    1STR   H05127325   0.407   5.251   2.736
    1STR   C05227326   0.347   5.371   2.582
    1STR   H05327327   0.264   5.309   2.549
    1STR   H05427328   0.432   5.342   2.523
    1STR   H05527329   0.331   5.474   2.558
    1STR   C05627330   0.509   5.428   2.763
    1STR   H05727331   0.484   5.533   2.771
    1STR   H05827332   0.543   5.394   2.861
    1STR   O05927333   0.614   5.400   2.666
    1STR   C06027334   0.673   5.516   2.609
    1STR   H06127335   0.589   5.576   2.575
    1STR   C06227336   0.754   5.583   2.722
    1STR   H06327337   0.822   5.512   2.768
    1STR   H06427338   0.691   5.622   2.802
    1STR   H06527339   0.815   5.665   2.686
    1STR   C06627340   0.763   5.500   2.483
    1STR   H06727341   0.792   5.598   2.445
    1STR   H06827342   0.857   5.456   2.511
    1STR   O06927343   0.716   5.417   2.377
    1STR   C07027344   0.656   5.480   2.264
    1STR   H07127345   0.697   5.579   2.246
    1STR   C07227346   0.694   5.397   2.142
    1STR   H07327347   0.665   5.294   2.154
    1STR   H07427348   0.801   5.399   2.125
    1STR   H07527349   0.645   5.436   2.052
    1STR   C07627350   0.506   5.485   2.291
    1STR   H07727351   0.473   5.391   2.324
    1STR   H07827352   0.486   5.551   2.374
    1STR   O07927353   0.423   5.512   2.180
    1STR   C08027354   0.288   5.544   2.213
    1STR   H08127355   0.287   5.638   2.266
    1STR   C08227356   0.214   5.560   2.080
    1STR   H08327357   0.167   5.469   2.048
    1STR   H08427358   0.282   5.589   2.001
    1STR   H08527359   0.137   5.636   2.083
    1STR   C08627360   0.214   5.444   2.302
    1STR   H08727361   0.148   5.388   2.238
    1STR   H08827362   0.275   5.366   2.344
    1STR   O08927363   0.155   5.521   2.406
    1STR   C09027364   0.028   5.488   2.460
    1STR   H09127365   9.288   5.575   2.460
    1STR   C09227366   9.265   5.412   2.359
    1STR   H09327367   9.294   5.309   2.349
    1STR   H09427368   9.275   5.451   2.260
    1STR   H09527369   9.161   5.427   2.377
    1STR   C09627370   0.021   5.471   2.613
    1STR   H09727371   9.251   5.421   2.642
    1STR   H09827372   0.103   5.412   2.650
    1STR   O09927373   0.015   5.598   2.679
    1STR   C10027374   0.015   5.601   2.822
    1STR   H10127375   9.315   5.502   2.860
    1STR   C10227376   0.151   5.648   2.877
    1STR   H10327377   0.172   5.752   2.855
    1STR   H10427378   0.234   5.591   2.835
    1STR   H10527379   0.155   5.637   2.985
    1STR   C10627380   9.224   5.697   2.866
    1STR   H10727381   9.267   5.775   2.928
    1STR   H10827382   9.184   5.748   2.778
    1STR   O10927383   9.122   5.628   2.937
    1STR   C11027384   9.013   5.706   2.985
    1STR   H11127385   8.951   5.639   3.044
    1STR   C11227386   9.058   5.817   3.079
    1STR   H11327387   9.100   5.899   3.022
    1STR   H11427388   9.134   5.781   3.149
    1STR   H11527389   8.975   5.856   3.137
    1STR   C11627390   8.925   5.759   2.870
    1STR   H11727391   8.843   5.818   2.909
    1STR   H11827392   8.983   5.827   2.807
    1STR   O11927393   8.871   5.649   2.798
    1STR   C12027394   8.858   5.672   2.659
    1STR   H12127395   8.823   5.773   2.644
    1STR   C12227396   8.996   5.652   2.596
    1STR   H12327397   9.065   5.593   2.651
    1STR   H12427398   9.049   5.745   2.594
    1STR   H12527399   8.991   5.609   2.497
    1STR   C12627400   8.751   5.580   2.600
    1STR   H12727401   8.775   5.477   2.623
    1STR   H12827402   8.658   5.602   2.652
    1STR   O12927403   8.735   5.602   2.460
    1STR   C13027404   8.648   5.512   2.390
    1STR   H13127405   8.693   5.414   2.404
    1STR   C13227406   8.508   5.515   2.453
    1STR   H13327407   8.472   5.618   2.460
    1STR   H13427408   8.507   5.472   2.553
    1STR   H13527409   8.437   5.459   2.393
    1STR   C13627410   8.636   5.543   2.238
    1STR   H13727411   8.564   5.477   2.191
    1STR   H13827412   8.594   5.642   2.225
    1STR   O13927413   8.760   5.527   2.168
    1STR   C14027414   8.776   5.568   2.030
    1STR   H14127415   8.871   5.528   1.997
    1STR   C14227416   8.665   5.514   1.939
    1STR   H14327417   8.571   5.563   1.959
    1STR   H14427418   8.653   5.406   1.953
    1STR   H14527419   8.690   5.531   1.834
    1STR   C14627420   8.810   5.714   2.005
    1STR   H14727421   8.916   5.738   2.018
    1STR   H14827422   8.786   5.746   1.903
    1STR   O14927423   8.728   5.776   2.096
    1STR   C15027424   8.797   5.831   2.206
    1STR   H15127425   8.842   5.912   2.155
    1STR   C15227426   8.677   5.881   2.289
    1STR   H15327427   8.656   5.817   2.374
    1STR   H15427428   8.586   5.886   2.230
    1STR   H15527429   8.693   5.983   2.322
    1STR   C15627430   8.918   5.754   2.276
    1STR   H15727431   8.905   5.761   2.382
    1STR   H15827432   8.918   5.648   2.258
    1STR   O15927433   9.051   5.804   2.251
    1STR   C16027434   9.163   5.716   2.271
    1STR   H16127435   9.135   5.645   2.347
    1STR   C16227436   9.162   5.646   2.137
    1STR   H16327437   9.084   5.571   2.129
    1STR   H16427438   9.257   5.597   2.122
    1STR   H16527439   9.150   5.717   2.056
    1STR   C16627440   9.311   5.769   2.306
    1STR   H16727441   0.063   5.697   2.271
    1STR   H16827442   0.017   5.858   2.249
    1STR   O16927443   0.022   5.779   2.448
    1STR   C17027444   0.152   5.820   2.497
    1STR   H17127445   0.202   5.874   2.419
    1STR   C17227446   0.102   5.901   2.615
    1STR   H17327447   0.057   5.836   2.689
    1STR   H17427448   0.022   5.966   2.584
    1STR   H17527449   0.180   5.957   2.666
    1STR   C17627450   0.261   5.729   2.564
    1STR   H17727451   0.293   5.769   2.660
    1STR   H17827452   0.218   5.636   2.593
    1STR   O17927453   0.382   5.707   2.492
    1STR   C18027454   0.478   5.811   2.492
    1STR   H18127455   0.418   5.899   2.504
    1STR   C18227456   0.563   5.820   2.619
    1STR   H18327457   0.527   5.751   2.696
    1STR   H18427458   0.558   5.919   2.664
    1STR   H18527459   0.668   5.801   2.598
    1STR   C18627460   0.560   5.807   2.357
    1STR   H18727461   0.609   5.901   2.335
    1STR   H18827462   0.641   5.737   2.367
    1STR   O18927463   0.475   5.764   2.249
    1STR   C19027464   0.483   5.815   2.115
    1STR   H19127465   0.543   5.904   2.118
    1STR   C19227466   0.562   5.725   2.020
    1STR   H19327467   0.510   5.631   2.000
    1STR   H19427468   0.662   5.704   2.057
    1STR   H19527469   0.571   5.774   1.923
    1STR   C19627470   0.336   5.841   2.062
    1STR   H19727471   0.262   5.797   2.127
    1STR   H19827472   0.306   5.941   2.077
    1STR   O19927473   0.312   5.812   1.924
    1STR   C20027474   0.207   5.885   1.858
    1STR   H20127475   0.192   5.981   1.905
    1STR   C20227476   0.260   5.903   1.713
    1STR   H20327477   0.260   5.813   1.655
    1STR   H20427478   0.365   5.932   1.711
    1STR   H20527479   0.203   5.976   1.657
    1STR   C20627480   0.068   5.818   1.857
    1STR   H20727481   0.028   5.820   1.756
    1STR   H20827482   0.079   5.713   1.883
    1STR   O20927483   9.290   5.870   1.945
    1STR   C21027484   9.214   5.984   1.905
    1STR   H21127485   9.284   6.065   1.888
    1STR   C21227486   9.129   5.963   1.778
    1STR   H21327487   9.065   5.876   1.788
    1STR   H21427488   9.189   5.953   1.688
    1STR   H21527489   9.064   6.049   1.762
    1STR   C21627490   9.125   6.020   2.026
    1STR   H21727491   9.151   5.959   2.112
    1STR   H21827492   9.148   6.119   2.058
    1STR   O21927493   8.985   6.013   2.001
    1STR   C22027494   8.911   6.124   2.053
    1STR   H22127495   8.953   6.213   2.008
    1STR   C22227496   8.769   6.114   1.995
    1STR   H22327497   8.720   6.020   2.020
    1STR   H22427498   8.772   6.122   1.887
    1STR   H22527499   8.707   6.193   2.034
    1STR   C22627500   8.913   6.145   2.208
    1STR   H22727501   8.981   6.227   2.226
    1STR   H22827502   8.815   6.173   2.245
    1STR   O22927503   8.957   6.039   2.289
    1STR   C23027504   8.970   6.055   2.429
    1STR   H23127505   8.976   6.159   2.453
    1STR   C23227506   8.854   6.004   2.515
    1STR   H23327507   8.820   5.908   2.485
    1STR   H23427508   8.770   6.072   2.513
    1STR   H23527509   8.886   5.988   2.618
    1STR   C23627510   9.102   5.990   2.465
    1STR   H23727511   9.136   6.014   2.566
    1STR   H23827512   9.087   5.884   2.466
    1STR   O23927513   9.200   6.002   2.363
    1STR   C24027514   9.267   6.120   2.332
    1STR   H24127515   9.250   6.145   2.229
    1STR   C24227516   9.211   6.233   2.415
    1STR   H24327517   9.126   6.267   2.360
    1STR   H24427518   9.274   6.317   2.424
    1STR   H24527519   9.180   6.213   2.516
    1STR   C24627520   0.098   6.106   2.343
    1STR   H24727521   0.124   6.204   2.369
    1STR   H24827522   0.129   6.056   2.430
    1STR   O24927523   0.177   6.070   2.229
    1STR   C25027524   0.309   6.128   2.240
    1STR   H25127525   0.307   6.224   2.284
    1STR   C25227526   0.391   6.054   2.333
    1STR   H25327527   0.364   5.952   2.313
    1STR   H25427528   0.368   6.082   2.434
    1STR   H25527529   0.496   6.073   2.318
    1STR   C25627530   0.393   6.153   2.118
    1STR   H25727531   0.456   6.237   2.143
    1STR   H25827532   0.468   6.079   2.098
    1STR   O25927533   0.314   6.167   2.004
    1STR   C26027534   0.385   6.161   1.883
    1STR   H26127535   0.408   6.056   1.868
    1STR   C26227536   0.282   6.209   1.781
    1STR   H26327537   0.246   6.310   1.800
    1STR   H26427538   0.190   6.152   1.787
    1STR   H26527539   0.321   6.200   1.680
    1STR   C26627540   0.525   6.229   1.880
    1STR   H26727541   0.598   6.155   1.912
    1STR   H26827542   0.557   6.253   1.779
    1STR   O26927543   0.545   6.337   1.970
    1STR   C27027544   0.463   6.453   1.968
    1STR   H27127545   0.523   6.531   2.014
    1STR   C27227546   0.441   6.492   1.822
    1STR   H27327547   0.418   6.411   1.755
    1STR   H27427548   0.534   6.532   1.784
    1STR   H27527549   0.358   6.559   1.804
    1STR   C27627550   0.335   6.448   2.055
    1STR   H27727551   0.275   6.535   2.037
    1STR   H27827552   0.270   6.377   2.008
    1STR   O27927553   0.349   6.431   2.199
    1STR   C28027554   0.227   6.446   2.277
    1STR   H28127555   0.215   6.553   2.269
    1STR   C28227556   0.115   6.376   2.200
    1STR   H28327557   0.135   6.278   2.161
    1STR   H28427558   0.098   6.421   2.107
    1STR   H28527559   0.020   6.376   2.247
    1STR   C28627560   0.213   6.419   2.434
    1STR   H28727561   0.239   6.509   2.486
    1STR   H28827562   0.110   6.422   2.462
    1STR   O28927563   0.280   6.304   2.492
    1STR   C29027564   0.244   6.236   2.615
    1STR   H29127565   0.256   6.133   2.586
    1STR   C29227566   0.354   6.239   2.723
    1STR   H29327567   0.372   6.336   2.768
    1STR   H29427568   0.449   6.205   2.683
    1STR   H29527569   0.330   6.171   2.805
    1STR   C29627570   0.097   6.228   2.661
    1STR   H29727571   0.047   6.325   2.662
    1STR   H29827572   0.043   6.168   2.591
    1STR   O29927573   0.091   6.158   2.785
    1STR   C30027574   9.288   6.102   2.833
    1STR   H30127575   9.259   6.015   2.777
    1STR   C30227576   0.008   6.058   2.974
    1STR   H30327577   0.074   6.132   3.017
    1STR   H30427578   0.063   5.964   2.973
    1STR   H30527579   9.243   6.050   3.041
    1STR   C30627580   9.168   6.198   2.834
    1STR   H30727581   9.142   6.227   2.935
    1STR   H30827582   9.197   6.287   2.782
    1STR   O30927583   9.058   6.139   2.767
    1STR    H1R27584   8.883   6.182   2.678
    1STR    H1S27585   8.744   6.202   2.875
    1STR    H1T27586   8.884   6.192   2.980
    1STR    H1U27587   8.837   6.053   2.885
    1STR    H1V27588   8.935   6.407   2.851
    1STR    H1W27589   8.838   6.386   2.708
    1STR    H1X27590   9.181   6.555   2.579
    1STR    H1Y27591   0.023   6.676   2.421
    1STR    H1Z27592   0.100   6.718   2.206
    1STR    H2027593   9.280   6.637   1.890
    1STR    H2127594   0.117   6.659   1.970
    1STR    H2227595   0.055   6.507   1.933
    1STR    H2327596   9.052   6.531   1.961
    1STR    H2727597   9.036   6.424   2.265
    1STR    H2827598   0.434   5.421   1.926
    1STR    H2927599   0.382   5.303   2.133
    1STR    H2A27600   0.082   5.178   2.212
    1STR    H2B27601   0.240   5.162   2.274
    1STR    H2C27602   0.168   5.023   2.195
    1STR   BCK127603   9.287   5.148   4.236
    1STR    O0327604   9.245   5.257   4.267
    1STR    N0427605   0.012   5.123   4.116
    1STR    C0527606   9.312   5.210   4.011
    1STR    C0627607   9.184   5.221   3.954
    1STR    C0727608   9.156   5.310   3.848
    1STR    N0827609   9.023   5.336   3.808
    1STR    C0927610   8.920   5.250   3.803
    1STR    O0A27611   8.932   5.128   3.808
    1STR    O0B27612   8.799   5.311   3.798
    1STR    C0C27613   8.743   5.378   3.913
    1STR    C0D27614   8.629   5.467   3.863
    1STR    C0E27615   8.692   5.280   4.023
    1STR    O0F27616   8.725   5.320   4.158
    1STR    C0G27617   8.834   5.250   4.223
    1STR    C0H27618   8.947   5.282   4.131
    1STR    C0I27619   8.878   5.289   4.367
    1STR    O0J27620   8.891   5.197   4.476
    1STR    C0K27621   0.233   6.339   4.264
    1STR    C0M27622   0.115   6.269   4.202
    1STR    C0N27623   0.205   6.356   4.414
    1STR    O0O27624   0.084   6.427   4.428
    1STR    C0P27625   0.085   6.547   4.376
    1STR    O0Q27626   0.183   6.618   4.372
    1STR    N0R27627   9.301   6.573   4.300
    1STR    C0S27628   9.188   6.502   4.272
    1STR    C0T27629   9.170   6.447   4.145
    1STR    C0U27630   9.043   6.408   4.103
    1STR    C0V27631   8.930   6.439   4.181
    1STR    C0W27632   8.796   6.419   4.110
    1STR    C0X27633   8.951   6.481   4.317
    1STR    N0Y27634   8.862   6.467   4.422
    1STR   BCK227635   8.734   6.492   4.441
    1STR    O1027636   8.654   6.409   4.483
    1STR    C1327637   9.082   6.503   4.360
    1STR    C1427638   9.266   5.376   3.789
    1STR    C1527639   0.077   5.353   3.836
    1STR    C1627640   0.100   5.275   3.953
    1STR    C1727641   0.236   5.260   4.018
    1STR    H1B27642   0.067   5.036   4.108
    1STR    H1C27643   9.110   5.154   3.992
    1STR    H1D27644   9.000   5.430   3.782
    1STR    H1E27645   8.819   5.444   3.955
    1STR    H1F27646   8.552   5.406   3.815
    1STR    H1G27647   8.583   5.521   3.945
    1STR    H1H27648   8.665   5.540   3.790
    1STR    H1I27649   8.726   5.178   4.002
    1STR    H1J27650   8.583   5.273   4.017
    1STR    H1K27651   8.814   5.145   4.224
    1STR    H1M27652   8.933   5.224   4.042
    1STR    H1N27653   9.041   5.254   4.172
    1STR    H1O27654   8.954   5.387   4.104
    1STR    H1P27655   8.978   5.332   4.359
    1STR    H1Q27656   8.814   5.362   4.408
    1STR   C01027657   8.944   5.269   4.588
    1STR   H01127658   8.979   5.367   4.557
    1STR   C01227659   8.835   5.305   4.690
    1STR   H01327660   8.865   5.385   4.757
    1STR   H01427661   8.809   5.228   4.758
    1STR   H01527662   8.744   5.336   4.640
    1STR   C01627663   9.078   5.218   4.638
    1STR   H01727664   9.092   5.260   4.735
    1STR   H01827665   9.081   5.109   4.648
    1STR   O01927666   9.184   5.272   4.558
    1STR   C02027667   9.314   5.254   4.613
    1STR   H02127668   9.309   5.167   4.673
    1STR   C02227669   0.097   5.242   4.502
    1STR   H02327670   0.089   5.315   4.423
    1STR   H02427671   0.109   5.142   4.467
    1STR   H02527672   0.194   5.262   4.544
    1STR   C02627673   0.051   5.361   4.704
    1STR   H02727674   0.091   5.433   4.637
    1STR   H02827675   9.292   5.399   4.767
    1STR   O02927676   0.160   5.317   4.784
    1STR   C03027677   0.270   5.402   4.808
    1STR   H03127678   0.233   5.501   4.815
    1STR   C03227679   0.317   5.396   4.953
    1STR   H03327680   0.303   5.306   5.007
    1STR   H03427681   0.269   5.472   5.013
    1STR   H03527682   0.422   5.404   4.961
    1STR   C03627683   0.387   5.380   4.708
    1STR   H03727684   0.470   5.436   4.743
    1STR   H03827685   0.418   5.277   4.722
    1STR   O03927686   0.362   5.406   4.568
    1STR   C04027687   0.450   5.487   4.487
    1STR   H04127688   0.439   5.590   4.519
    1STR   C04227689   0.600   5.457   4.490
    1STR   H04327690   0.626   5.399   4.574
    1STR   H04427691   0.657   5.549   4.490
    1STR   H04527692   0.636   5.406   4.401
    1STR   C04627693   0.409   5.469   4.340
    1STR   H04727694   0.411   5.363   4.319
    1STR   H04827695   0.307   5.500   4.319
    1STR   O04927696   0.504   5.543   4.263
    1STR   C05027697   0.525   5.511   4.127
    1STR   H05127698   0.616   5.564   4.100
    1STR   C05227699   0.555   5.362   4.100
    1STR   H05327700   0.474   5.295   4.128
    1STR   H05427701   0.642   5.332   4.157
    1STR   H05527702   0.577   5.343   3.995
    1STR   C05627703   0.414   5.573   4.042
    1STR   H05727704   0.417   5.680   4.058
    1STR   H05827705   0.432   5.555   3.936
    1STR   O05927706   0.288   5.520   4.078
    1STR   C06027707   0.178   5.608   4.070
    1STR   H06127708   0.197   5.675   4.152
    1STR   C06227709   0.170   5.668   3.929
    1STR   H06327710   0.185   5.592   3.854
    1STR   H06427711   0.247   5.742   3.909
    1STR   H06527712   0.072   5.710   3.911
    1STR   C06627713   0.047   5.538   4.106
    1STR   H06727714   0.004   5.491   4.020
    1STR   H06827715   0.071   5.459   4.177
    1STR   O06927716   9.262   5.625   4.149
    1STR   C07027717   9.161   5.548   4.211
    1STR   H07127718   9.150   5.453   4.161
    1STR   C07227719   9.210   5.531   4.353
    1STR   H07327720   9.209   5.628   4.402
    1STR   H07427721   9.309   5.491   4.361
    1STR   H07527722   9.147   5.460   4.406
    1STR   C07627723   9.024   5.617   4.217
    1STR   H07727724   9.043   5.710   4.267
    1STR   H07827725   8.989   5.640   4.117
    1STR   O07927726   8.928   5.536   4.286
    1STR   C08027727   8.843   5.593   4.386
    1STR   H08127728   8.830   5.680   4.333
    1STR   C08227729   8.691   5.570   4.379
    1STR   H08327730   8.656   5.507   4.460
    1STR   H08427731   8.663   5.527   4.283
    1STR   H08527732   8.636   5.663   4.389
    1STR   C08627733   8.894   5.599   4.536
    1STR   H08727734   8.861   5.688   4.583
    1STR   H08827735   8.840   5.527   4.594
    1STR   O08927736   9.036   5.584   4.560
    1STR   C09027737   9.098   5.642   4.677
    1STR   H09127738   9.073   5.745   4.690
    1STR   C09227739   9.047   5.563   4.796
    1STR   H09327740   9.066   5.459   4.777
    1STR   H09427741   8.941   5.575   4.814
    1STR   H09527742   9.100   5.586   4.888
    1STR   C09627743   9.252   5.634   4.673
    1STR   H09727744   9.286   5.599   4.770
    1STR   H09827745   9.269   5.561   4.596
    1STR   O09927746   0.024   5.743   4.653
    1STR   C10027747   0.160   5.696   4.629
    1STR   H10127748   0.163   5.606   4.680
    1STR   C10227749   0.171   5.652   4.484
    1STR   H10327750   0.162   5.544   4.473
    1STR   H10427751   0.267   5.679   4.441
    1STR   H10527752   0.095   5.698   4.422
    1STR   C10627753   0.287   5.763   4.694
    1STR   H10727754   0.342   5.821   4.620
    1STR   H10827755   0.255   5.831   4.773
    1STR   O10927756   0.375   5.662   4.751
    1STR   C11027757   0.494   5.697   4.824
    1STR   H11127758   0.483   5.800   4.851
    1STR   C11227759   0.523   5.619   4.953
    1STR   H11327760   0.572   5.524   4.933
    1STR   H11427761   0.438   5.604   5.016
    1STR   H11527762   0.593   5.666   5.019
    1STR   C11627763   0.621   5.665   4.747
    1STR   H11727764   0.709   5.658   4.813
    1STR   H11827765   0.610   5.568   4.708
    1STR   O11927766   0.647   5.743   4.635
    1STR   C12027767   0.749   5.834   4.664
    1STR   H12127768   0.836   5.793   4.716
    1STR   C12227769   0.791   5.872   4.523
    1STR   H12327770   0.832   5.786   4.469
    1STR   H12427771   0.867   5.949   4.526
    1STR   H12527772   0.705   5.907   4.467
    1STR   C12627773   0.680   5.944   4.744
    1STR   H12727774   0.698   6.026   4.679
    1STR   H12827775   0.572   5.942   4.739
    1STR   O12927776   0.734   5.986   4.870
    1STR   C13027777   0.681   5.932   4.992
    1STR   H13127778   0.702   5.826   4.984
    1STR   C13227779   0.774   5.987   5.099
    1STR   H13327780   0.767   6.096   5.103
    1STR   H13427781   0.878   5.962   5.077
    1STR   H13527782   0.749   5.947   5.197
    1STR   C13627783   0.532   5.962   5.030
    1STR   H13727784   0.525   6.053   5.090
    1STR   H13827785   0.472   5.981   4.942
    1STR   O13927786   0.473   5.852   5.103
    1STR   C14027787   0.332   5.857   5.135
    1STR   H14127788   0.285   5.940   5.085
    1STR   C14227789   0.250   5.736   5.088
    1STR   H14327790   0.280   5.646   5.142
    1STR   H14427791   0.256   5.719   4.981
    1STR   H14527792   0.145   5.749   5.113
    1STR   C14627793   0.316   5.859   5.287
    1STR   H14727794   0.221   5.815   5.320
    1STR   H14827795   0.393   5.797   5.333
    1STR   O14927796   0.324   5.988   5.342
    1STR   C15027797   0.224   6.082   5.306
    1STR   H15127798   0.215   6.137   5.397
    1STR   C15227799   0.287   6.178   5.206
    1STR   H15327800   0.301   6.139   5.106
    1STR   H15427801   0.385   6.208   5.243
    1STR   H15527802   0.229   6.268   5.193
    1STR   C15627803   0.079   6.038   5.270
    1STR   H15727804   0.019   6.129   5.262
    1STR   H15827805   0.078   5.991   5.172
    1STR   O15927806   0.018   5.949   5.362
    1STR   C16027807   9.195   5.932   5.354
    1STR   H16127808   9.176   5.827   5.375
    1STR   C16227809   9.133   6.014   5.467
    1STR   H16327810   9.158   6.119   5.459
    1STR   H16427811   9.167   5.977   5.564
    1STR   H16527812   9.024   6.006   5.466
    1STR   C16627813   9.125   5.964   5.220
    1STR   H16727814   9.017   5.947   5.225
    1STR   H16827815   9.136   6.070   5.195
    1STR   O16927816   9.177   5.878   5.121
    1STR   C17027817   9.180   5.934   4.991
    1STR   H17127818   9.184   6.042   4.989
    1STR   C17227819   9.308   5.874   4.932
    1STR   H17327820   9.311   5.766   4.943
    1STR   H17427821   0.078   5.916   4.975
    1STR   H17527822   9.311   5.894   4.826
    1STR   C17627823   9.066   5.891   4.901
    1STR   H17727824   9.097   5.922   4.801
    1STR   H17827825   9.064   5.784   4.907
    1STR   O17927826   8.934   5.937   4.922
    1STR   C18027827   8.841   5.874   4.833
    1STR   H18127828   8.855   5.766   4.838
    1STR   C18227829   8.704   5.903   4.894
    1STR   H18327830   8.685   6.010   4.896
    1STR   H18427831   8.699   5.866   4.996
    1STR   H18527832   8.624   5.856   4.836
    1STR   C18627833   8.842   5.916   4.684
    1STR   H18727834   8.769   5.857   4.632
    1STR   H18827835   8.793   6.013   4.681
    1STR   O18927836   8.971   5.927   4.616
    1STR   C19027837   8.995   5.879   4.481
    1STR   H19127838   9.035   5.781   4.479
    1STR   C19227839   8.878   5.886   4.389
    1STR   H19327840   8.876   5.982   4.358
    1STR   H19427841   8.779   5.859   4.425
    1STR   H19527842   8.898   5.851   4.289
    1STR   C19627843   9.111   5.939   4.405
    1STR   H19727844   9.123   5.894   4.307
    1STR   H19827845   9.087   6.042   4.385
    1STR   O19927846   9.234   5.918   4.468
    1STR   C20027847   0.005   6.014   4.419
    1STR   H20127848   0.001   6.015   4.310
    1STR   C20227849   9.279   6.146   4.480
    1STR   H20327850   0.029   6.191   4.548
    1STR   H20427851   9.193   6.127   4.542
    1STR   H20527852   9.247   6.219   4.406
    1STR   C20627853   0.143   5.977   4.467
    1STR   H20727854   0.195   6.063   4.498
    1STR   H20827855   0.130   5.925   4.560
    1STR   O20927856   0.220   5.895   4.383
    1STR   C21027857   0.286   5.951   4.274
    1STR   H21127858   0.294   6.056   4.290
    1STR   C21227859   0.425   5.888   4.276
    1STR   H21327860   0.418   5.779   4.270
    1STR   H21427861   0.476   5.910   4.370
    1STR   H21527862   0.487   5.923   4.194
    1STR   C21627863   0.205   5.919   4.148
    1STR   H21727864   0.267   5.861   4.081
    1STR   H21827865   0.119   5.862   4.181
    1STR   O21927866   0.160   6.032   4.076
    1STR   C22027867   0.063   6.017   3.973
    1STR   H22127868   0.027   6.118   3.958
    1STR   C22227869   0.134   5.979   3.843
    1STR   H22327870   0.118   6.057   3.769
    1STR   H22427871   0.096   5.888   3.797
    1STR   H22527872   0.241   5.969   3.857
    1STR   C22627873   9.257   5.930   4.005
    1STR   H22727874   9.208   5.900   3.912
    1STR   H22827875   9.286   5.835   4.048
    1STR   O22927876   9.160   5.983   4.095
    1STR   C23027877   9.086   6.099   4.058
    1STR   H23127878   9.148   6.182   4.092
    1STR   C23227879   9.063   6.110   3.906
    1STR   H23327880   9.013   6.022   3.867
    1STR   H23427881   9.156   6.123   3.851
    1STR   H23527882   9.001   6.196   3.880
    1STR   C23627883   8.949   6.100   4.131
    1STR   H23727884   8.875   6.145   4.067
    1STR   H23827885   8.915   5.997   4.138
    1STR   O23927886   8.949   6.166   4.258
    1STR   C24027887   8.826   6.192   4.334
    1STR   H24127888   8.791   6.285   4.305
    1STR   C24227889   8.695   6.117   4.297
    1STR   H24327890   8.665   6.047   4.374
    1STR   H24427891   8.699   6.065   4.202
    1STR   H24527892   8.612   6.188   4.291
    1STR   C24627893   8.858   6.196   4.488
    1STR   H24727894   8.772   6.223   4.547
    1STR   H24827895   8.878   6.098   4.519
    1STR   O24927896   8.978   6.259   4.531
    1STR   C25027897   8.993   6.297   4.670
    1STR   H25127898   8.958   6.400   4.675
    1STR   C25227899   8.918   6.220   4.776
    1STR   H25327900   8.958   6.120   4.778
    1STR   H25427901   8.810   6.218   4.763
    1STR   H25527902   8.939   6.261   4.875
    1STR   C25627903   9.140   6.298   4.712
    1STR   H25727904   9.193   6.332   4.625
    1STR   H25827905   9.147   6.373   4.788
    1STR   O25927906   9.206   6.180   4.767
    1STR   C26027907   0.018   6.211   4.816
    1STR   H26127908   0.048   6.292   4.754
    1STR   C26227909   0.017   6.248   4.965
    1STR   H26327910   0.037   6.162   5.028
    1STR   H26427911   9.239   6.286   4.995
    1STR   H26527912   0.093   6.322   4.989
    1STR   C26627913   0.136   6.120   4.783
    1STR   H26727914   0.184   6.084   4.875
    1STR   H26827915   0.101   6.034   4.728
    1STR   O26927916   0.230   6.193   4.704
    1STR   C27027917   0.360   6.140   4.704
    1STR   H27127918   0.359   6.033   4.723
    1STR   C27227919   0.424   6.162   4.567
    1STR   H27327920   0.369   6.141   4.477
    1STR   H27427921   0.505   6.092   4.560
    1STR   H27527922   0.459   6.264   4.556
    1STR   C27627923   0.444   6.214   4.809
    1STR   H27727924   0.428   6.319   4.805
    1STR   H27827925   0.416   6.186   4.910
    1STR   O27927926   0.579   6.186   4.782
    1STR   C28027927   0.660   6.290   4.730
    1STR   H28127928   0.601   6.369   4.684
    1STR   C28227929   0.729   6.338   4.855
    1STR   H28327930   0.781   6.257   4.906
    1STR   H28427931   0.661   6.383   4.926
    1STR   H28527932   0.802   6.412   4.826
    1STR   C28627933   0.762   6.247   4.621
    1STR   H28727934   0.813   6.336   4.587
    1STR   H28827935   0.835   6.180   4.664
    1STR   O28927936   0.704   6.177   4.512
    1STR   C29027937   0.740   6.211   4.379
    1STR   H29127938   0.771   6.315   4.376
    1STR   C29227939   0.839   6.112   4.315
    1STR   H29327940   0.795   6.014   4.302
    1STR   H29427941   0.931   6.101   4.372
    1STR   H29527942   0.865   6.144   4.214
    1STR   C29627943   0.612   6.203   4.302
    1STR   H29727944   0.568   6.104   4.307
    1STR   H29827945   0.542   6.268   4.353
    1STR   O29927946   0.636   6.239   4.167
    1STR   C30027947   0.533   6.314   4.107
    1STR   H30127948   0.519   6.405   4.163
    1STR   C30227949   0.587   6.353   3.969
    1STR   H30327950   0.585   6.269   3.901
    1STR   H30427951   0.690   6.387   3.977
    1STR   H30527952   0.531   6.437   3.927
    1STR   C30627953   0.397   6.245   4.111
    1STR   H30727954   0.327   6.285   4.038
    1STR   H30827955   0.407   6.139   4.087
    1STR   O30927956   0.349   6.261   4.244
    1STR    H1R27957   0.250   6.437   4.222
    1STR    H1S27958   0.021   6.307   4.234
    1STR    H1T27959   0.113   6.170   4.241
    1STR    H1U27960   0.116   6.268   4.093
    1STR    H1V27961   0.284   6.408   4.464
    1STR    H1W27962   0.196   6.263   4.464
    1STR    H1X27963   9.310   6.664   4.254
    1STR    H1Y27964   9.254   6.439   4.078
    1STR    H1Z27965   9.032   6.372   4.003
    1STR    H2027966   8.791   6.326   4.055
    1STR    H2127967   8.711   6.418   4.177
    1STR    H2227968   8.779   6.494   4.034
    1STR    H2327969   8.897   6.386   4.475
    1STR    H2727970   9.102   6.521   4.463
    1STR    H2827971   9.251   5.441   3.704
    1STR    H2927972   0.161   5.396   3.785
    1STR    H2A27973   0.270   5.158   4.024
    1STR    H2B27974   0.230   5.293   4.122
    1STR    H2C27975   0.311   5.317   3.966
    1STR   BCK127976   0.047   5.053   7.052
    1STR    O0327977   0.111   5.126   6.980
    1STR    N0427978   0.094   4.970   7.140
    1STR    C0527979   0.206   4.965   7.219
    1STR    C0627980   0.334   5.020   7.199
    1STR    C0727981   0.428   5.029   7.305
    1STR    N0827982   0.543   5.108   7.295
    1STR    C0927983   0.638   5.122   7.390
    1STR    O0A27984   0.676   5.032   7.463
    1STR    O0B27985   0.687   5.246   7.401
    1STR    C0C27986   0.605   5.363   7.395
    1STR    C0D27987   0.621   5.429   7.256
    1STR    C0E27988   0.458   5.349   7.444
    1STR    O0F27989   0.448   5.357   7.586
    1STR    C0G27990   0.365   5.262   7.653
    1STR    C0H27991   0.432   5.254   7.790
    1STR    C0I27992   0.212   5.295   7.664
    1STR    O0J27993   0.122   5.191   7.622
    1STR    C0K27994   8.770   6.192   6.422
    1STR    C0M27995   8.770   6.129   6.282
    1STR    C0N27996   8.625   6.215   6.471
    1STR    O0O27997   8.609   6.211   6.613
    1STR    C0P27998   8.682   6.293   6.686
    1STR    O0Q27999   8.763   6.372   6.640
    1STR    N0R28000   8.655   6.279   6.816
    1STR    C0S28001   8.723   6.340   6.921
    1STR    C0T28002   8.657   6.359   7.044
    1STR    C0U28003   8.720   6.427   7.150
    1STR    C0V28004   8.843   6.489   7.127
    1STR    C0W28005   8.907   6.574   7.233
    1STR    C0X28006   8.905   6.481   7.002
    1STR    N0Y28007   9.027   6.542   6.998
    1STR   BCK228008   9.111   6.600   6.917
    1STR    O1028009   9.220   6.624   6.964
    1STR    C1328010   8.853   6.394   6.906
    1STR    C1428011   0.388   4.981   7.430
    1STR    C1528012   0.265   4.918   7.442
    1STR    C1628013   0.182   4.898   7.336
    1STR    C1728014   0.078   4.791   7.345
    1STR    H1B28015   0.022   4.904   7.166
    1STR    H1C28016   0.354   5.063   7.104
    1STR    H1D28017   0.545   5.177   7.223
    1STR    H1E28018   0.652   5.432   7.465
    1STR    H1F28019   0.592   5.364   7.174
    1STR    H1G28020   0.561   5.520   7.249
    1STR    H1H28021   0.724   5.458   7.240
    1STR    H1I28022   0.401   5.265   7.407
    1STR    H1J28023   0.405   5.431   7.399
    1STR    H1K28024   0.378   5.166   7.605
    1STR    H1M28025   0.444   5.354   7.832
    1STR    H1N28026   0.532   5.211   7.781
    1STR    H1O28027   0.376   5.194   7.861
    1STR    H1P28028   0.183   5.315   7.767
    1STR    H1Q28029   0.192   5.388   7.615
    1STR   C01028030   0.002   5.229   7.556
    1STR   H01128031   9.302   5.334   7.573
    1STR   C01228032   0.030   5.199   7.413
    1STR   H01328033   0.133   5.214   7.388
    1STR   H01428034   9.282   5.263   7.361
    1STR   H01528035   0.012   5.095   7.385
    1STR   C01628036   9.198   5.145   7.590
    1STR   H01728037   9.231   5.044   7.594
    1STR   H01828038   9.163   5.173   7.688
    1STR   O01928039   9.080   5.149   7.508
    1STR   C02028040   9.072   5.085   7.379
    1STR   H02128041   9.128   5.139   7.305
    1STR   C02228042   9.113   4.939   7.367
    1STR   H02328043   9.201   4.916   7.423
    1STR   H02428044   9.128   4.911   7.263
    1STR   H02528045   9.033   4.873   7.396
    1STR   C02628046   8.927   5.090   7.335
    1STR   H02728047   8.910   5.007   7.267
    1STR   H02828048   8.857   5.089   7.419
    1STR   O02928049   8.900   5.192   7.246
    1STR   C03028050   8.927   5.319   7.295
    1STR   H03128051   9.006   5.325   7.369
    1STR   C03228052   8.986   5.372   7.168
    1STR   H03328053   8.932   5.342   7.080
    1STR   H03428054   9.082   5.324   7.156
    1STR   H03528055   9.001   5.479   7.169
    1STR   C03628056   8.797   5.375   7.350
    1STR   H03728057   8.793   5.481   7.333
    1STR   H03828058   8.711   5.329   7.302
    1STR   O03928059   8.799   5.346   7.488
    1STR   C04028060   8.711   5.425   7.565
    1STR   H04128061   8.700   5.525   7.524
    1STR   C04228062   8.577   5.352   7.565
    1STR   H04328063   8.588   5.250   7.601
    1STR   H04428064   8.535   5.347   7.465
    1STR   H04528065   8.504   5.403   7.628
    1STR   C04628066   8.774   5.440   7.705
    1STR   H04728067   8.703   5.491   7.770
    1STR   H04828068   8.792   5.343   7.750
    1STR   O04928069   8.893   5.518   7.703
    1STR   C05028070   9.014   5.450   7.672
    1STR   H05128071   8.996   5.345   7.649
    1STR   C05228072   9.072   5.514   7.546
    1STR   H05328073   9.155   5.458   7.505
    1STR   H05428074   9.105   5.615   7.562
    1STR   H05528075   8.996   5.516   7.469
    1STR   C05628076   9.105   5.460   7.796
    1STR   H05728077   9.066   5.535   7.864
    1STR   H05828078   9.098   5.365   7.849
    1STR   O05928079   9.243   5.482   7.770
    1STR   C06028080   9.285   5.619   7.772
    1STR   H06128081   9.210   5.684   7.729
    1STR   C06228082   9.312   5.665   7.915
    1STR   H06328083   0.060   5.597   7.966
    1STR   H06428084   9.220   5.674   7.972
    1STR   H06528085   0.038   5.764   7.916
    1STR   C06628086   0.092   5.632   7.687
    1STR   H06728087   0.120   5.736   7.683
    1STR   H06828088   0.175   5.578   7.733
    1STR   O06928089   0.065   5.583   7.558
    1STR   C07028090   0.159   5.608   7.453
    1STR   H07128091   0.123   5.693   7.396
    1STR   C07228092   0.304   5.633   7.497
    1STR   H07328093   0.369   5.643   7.411
    1STR   H07428094   0.340   5.556   7.563
    1STR   H07528095   0.317   5.722   7.555
    1STR   C07628096   0.144   5.484   7.365
    1STR   H07728097   0.193   5.401   7.413
    1STR   H07828098   0.038   5.464   7.361
    1STR   O07928099   0.200   5.494   7.236
    1STR   C08028100   0.165   5.395   7.136
    1STR   H08128101   0.186   5.427   7.036
    1STR   C08228102   0.277   5.299   7.152
    1STR   H08328103   0.251   5.234   7.233
    1STR   H08428104   0.370   5.347   7.178
    1STR   H08528105   0.294   5.247   7.059
    1STR   C08628106   0.014   5.354   7.124
    1STR   H08728107   0.011   5.259   7.172
    1STR   H08828108   9.270   5.414   7.187
    1STR   O08928109   9.255   5.333   7.003
    1STR   C09028110   9.253   5.409   6.884
    1STR   H09128111   9.292   5.504   6.900
    1STR   C09228112   0.034   5.345   6.792
    1STR   H09328113   9.320   5.246   6.763
    1STR   H09428114   0.128   5.333   6.845
    1STR   H09528115   0.057   5.406   6.705
    1STR   C09628116   9.113   5.433   6.820
    1STR   H09728117   9.123   5.508   6.741
    1STR   H09828118   9.071   5.343   6.778
    1STR   O09928119   9.017   5.483   6.909
    1STR   C10028120   8.916   5.570   6.859
    1STR   H10128121   8.960   5.656   6.809
    1STR   C10228122   8.817   5.513   6.761
    1STR   H10328123   8.824   5.405   6.757
    1STR   H10428124   8.836   5.556   6.663
    1STR   H10528125   8.716   5.545   6.785
    1STR   C10628126   8.850   5.609   6.990
    1STR   H10728127   8.831   5.520   7.047
    1STR   H10828128   8.927   5.665   7.041
    1STR   O10928129   8.727   5.680   6.987
    1STR   C11028130   8.662   5.683   7.115
    1STR   H11128131   8.585   5.758   7.103
    1STR   C11228132   8.585   5.554   7.140
    1STR   H11328133   8.650   5.467   7.144
    1STR   H11428134   8.513   5.536   7.061
    1STR   H11528135   8.530   5.558   7.235
    1STR   C11628136   8.751   5.732   7.233
    1STR   H11728137   8.771   5.835   7.210
    1STR   H11828138   8.696   5.728   7.326
    1STR   O11928139   8.879   5.672   7.253
    1STR   C12028140   8.979   5.758   7.307
    1STR   H12128141   8.978   5.853   7.254
    1STR   C12228142   8.938   5.787   7.453
    1STR   H12328143   8.862   5.865   7.456
    1STR   H12428144   9.022   5.821   7.514
    1STR   H12528145   8.894   5.701   7.502
    1STR   C12628146   9.121   5.698   7.282
    1STR   H12728147   9.192   5.730   7.359
    1STR   H12828148   9.125   5.590   7.286
    1STR   O12928149   9.167   5.752   7.159
    1STR   C13028150   9.230   5.671   7.062
    1STR   H13128151   9.178   5.576   7.063
    1STR   C13228152   9.200   5.738   6.935
    1STR   H13328153   9.095   5.751   6.923
    1STR   H13428154   9.242   5.694   6.845
    1STR   H13528155   9.243   5.834   6.949
    1STR   C13628156   0.064   5.663   7.067
    1STR   H13728157   0.115   5.703   7.153
    1STR   H13828158   0.042   5.583   7.128
    1STR   O13928159   0.141   5.620   6.948
    1STR   C14028160   0.286   5.621   6.916
    1STR   H14128161   0.328   5.718   6.908
    1STR   C14228162   0.390   5.564   7.013
    1STR   H14328163   0.405   5.458   6.997
    1STR   H14428164   0.367   5.588   7.116
    1STR   H14528165   0.487   5.611   6.998
    1STR   C14628166   0.312   5.578   6.770
    1STR   H14728167   0.415   5.555   6.771
    1STR   H14828168   0.253   5.492   6.740
    1STR   O14928169   0.311   5.678   6.669
    1STR   C15028170   0.380   5.652   6.546
    1STR   H15128171   0.413   5.551   6.544
    1STR   C15228172   0.283   5.657   6.430
    1STR   H15328173   0.249   5.758   6.407
    1STR   H15428174   0.199   5.594   6.453
    1STR   H15528175   0.333   5.623   6.340
    1STR   C15628176   0.499   5.745   6.512
    1STR   H15728177   0.564   5.690   6.444
    1STR   H15828178   0.467   5.830   6.453
    1STR   O15928179   0.579   5.790   6.621
    1STR   C16028180   0.519   5.879   6.715
    1STR   H16128181   0.466   5.821   6.789
    1STR   C16228182   0.638   5.946   6.784
    1STR   H16328183   0.695   6.007   6.714
    1STR   H16428184   0.705   5.871   6.826
    1STR   H16528185   0.605   6.010   6.866
    1STR   C16628186   0.422   5.984   6.657
    1STR   H16728187   0.393   6.057   6.731
    1STR   H16828188   0.473   6.037   6.578
    1STR   O16928189   0.305   5.928   6.600
    1STR   C17028190   0.182   5.936   6.670
    1STR   H17128191   0.152   6.040   6.661
    1STR   C17228192   0.087   5.852   6.583
    1STR   H17328193   0.111   5.747   6.584
    1STR   H17428194   0.085   5.886   6.479
    1STR   H17528195   9.305   5.846   6.618
    1STR   C17628196   0.176   5.887   6.819
    1STR   H17728197   0.081   5.914   6.857
    1STR   H17828198   0.158   5.784   6.807
    1STR   O17928199   0.274   5.929   6.920
    1STR   C18028200   0.261   5.899   7.064
    1STR   H18128201   0.266   5.795   7.078
    1STR   C18228202   0.400   5.920   7.126
    1STR   H18328203   0.444   6.015   7.100
    1STR   H18428204   0.470   5.846   7.088
    1STR   H18528205   0.397   5.909   7.234
    1STR   C18628206   0.131   5.940   7.147
    1STR   H18728207   0.102   6.042   7.153
    1STR   H18828208   0.045   5.904   7.094
    1STR   O18928209   0.117   5.893   7.281
    1STR   C19028210   0.038   5.978   7.367
    1STR   H19128211   0.072   6.080   7.356
    1STR   C19228212   9.212   5.997   7.327
    1STR   H19328213   9.144   5.949   7.397
    1STR   H19428214   9.194   5.963   7.227
    1STR   H19528215   9.184   6.101   7.324
    1STR   C19628216   0.059   5.933   7.512
    1STR   H19728217   0.018   6.000   7.586
    1STR   H19828218   0.004   5.841   7.525
    1STR   O19928219   0.197   5.907   7.533
    1STR   C20028220   0.278   5.985   7.620
    1STR   H20128221   0.232   6.079   7.647
    1STR   C20228222   0.295   5.916   7.756
    1STR   H20328223   0.342   5.818   7.748
    1STR   H20428224   0.199   5.904   7.806
    1STR   H20528225   0.357   5.976   7.822
    1STR   C20628226   0.414   6.002   7.547
    1STR   H20728227   0.492   6.024   7.619
    1STR   H20828228   0.443   5.907   7.502
    1STR   O20928229   0.429   6.101   7.444
    1STR   C21028230   0.315   6.147   7.372
    1STR   H21128231   0.269   6.054   7.349
    1STR   C21228232   0.238   6.242   7.468
    1STR   H21328233   0.297   6.265   7.556
    1STR   H21428234   0.145   6.201   7.504
    1STR   H21528235   0.213   6.337   7.425
    1STR   C21628236   0.342   6.215   7.235
    1STR   H21728237   0.315   6.319   7.241
    1STR   H21828238   0.444   6.199   7.204
    1STR   O21928239   0.261   6.170   7.129
    1STR   C22028240   0.248   6.236   7.003
    1STR   H22128241   0.223   6.340   7.016
    1STR   C22228242   0.384   6.239   6.932
    1STR   H22328243   0.424   6.140   6.919
    1STR   H22428244   0.459   6.296   6.984
    1STR   H22528245   0.372   6.287   6.835
    1STR   C22628246   0.138   6.170   6.911
    1STR   H22728247   0.120   6.243   6.837
    1STR   H22828248   0.195   6.116   6.841
    1STR   O22928249   0.018   6.096   6.962
    1STR   C23028250   9.202   6.077   6.904
    1STR   H23128251   9.170   6.172   6.873
    1STR   C23228252   9.186   6.001   6.775
    1STR   H23328253   9.175   5.895   6.770
    1STR   H23428254   9.263   6.028   6.706
    1STR   H23528255   9.091   6.030   6.736
    1STR   C23628256   9.079   6.044   6.997
    1STR   H23728257   9.065   5.940   7.019
    1STR   H23828258   9.084   6.088   7.095
    1STR   O23928259   8.966   6.107   6.935
    1STR   C24028260   8.848   6.034   6.901
    1STR   H24128261   8.807   6.089   6.817
    1STR   C24228262   8.870   5.897   6.841
    1STR   H24328263   8.907   5.837   6.921
    1STR   H24428264   8.939   5.892   6.758
    1STR   H24528265   8.776   5.853   6.807
    1STR   C24628266   8.745   6.028   7.015
    1STR   H24728267   8.668   6.102   7.000
    1STR   H24828268   8.691   5.934   7.013
    1STR   O24928269   8.807   6.047   7.141
    1STR   C25028270   8.725   6.100   7.243
    1STR   H25128271   8.674   6.188   7.210
    1STR   C25228272   8.613   6.009   7.296
    1STR   H25328273   8.650   5.937   7.368
    1STR   H25428274   8.559   5.958   7.216
    1STR   H25528275   8.540   6.069   7.350
    1STR   C25628276   8.823   6.144   7.351
    1STR   H25728277   8.901   6.068   7.360
    1STR   H25828278   8.874   6.236   7.321
    1STR   O25928279   8.749   6.158   7.470
    1STR   C26028280   8.819   6.212   7.580
    1STR   H26128281   8.839   6.316   7.557
    1STR   C26228282   8.717   6.202   7.693
    1STR   H26328283   8.678   6.100   7.702
    1STR   H26428284   8.632   6.268   7.673
    1STR   H26528285   8.759   6.230   7.789
    1STR   C26628286   8.950   6.135   7.611
    1STR   H26728287   8.981   6.148   7.714
    1STR   H26828288   8.930   6.028   7.602
    1STR   O26928289   9.055   6.169   7.521
    1STR   C27028290   9.121   6.292   7.546
    1STR   H27128291   9.052   6.371   7.568
    1STR   C27228292   9.221   6.269   7.661
    1STR   H27328293   9.283   6.183   7.643
    1STR   H27428294   9.173   6.251   7.757
    1STR   H27528295   9.290   6.352   7.670
    1STR   C27628296   9.200   6.341   7.426
    1STR   H27728297   9.239   6.440   7.449
    1STR   H27828298   9.284   6.273   7.421
    1STR   O27928299   9.137   6.343   7.297
    1STR   C28028300   9.219   6.400   7.192
    1STR   H28128301   9.202   6.507   7.187
    1STR   C28228302   0.046   6.383   7.222
    1STR   H28328303   0.100   6.424   7.141
    1STR   H28428304   0.075   6.279   7.232
    1STR   H28528305   0.077   6.439   7.308
    1STR   C28628306   9.196   6.326   7.058
    1STR   H28728307   9.226   6.230   7.095
    1STR   H28828308   9.092   6.312   7.030
    1STR   O28928309   9.285   6.357   6.946
    1STR   C29028310   9.255   6.377   6.803
    1STR   H29128311   9.155   6.406   6.811
    1STR   C29228312   0.051   6.474   6.773
    1STR   H29328313   0.115   6.441   6.692
    1STR   H29428314   0.118   6.483   6.858
    1STR   H29528315   0.017   6.574   6.752
    1STR   C29628316   9.244   6.283   6.673
    1STR   H29728317   9.269   6.341   6.585
    1STR   H29828318   0.005   6.212   6.671
    1STR   O29928319   9.112   6.227   6.642
    1STR   C30028320   9.088   6.164   6.513
    1STR   H30128321   9.077   6.247   6.445
    1STR   C30228322   9.201   6.070   6.465
    1STR   H30328323   9.186   5.970   6.503
    1STR   H30428324   9.301   6.100   6.494
    1STR   H30528325   9.201   6.058   6.357
    1STR   C30628326   8.965   6.069   6.500
    1STR   H30728327   8.968   6.018   6.404
    1STR   H30828328   8.976   5.986   6.569
    1STR   O30928329   8.833   6.113   6.522
    1STR    H1R28330   8.821   6.288   6.420
    1STR    H1S28331   8.710   6.189   6.213
    1STR    H1T28332   8.728   6.029   6.283
    1STR    H1U28333   8.870   6.124   6.239
    1STR    H1V28334   8.561   6.136   6.432
    1STR    H1W28335   8.588   6.311   6.435
    1STR    H1X28336   8.577   6.219   6.834
    1STR    H1Y28337   8.557   6.321   7.059
    1STR    H1Z28338   8.672   6.438   7.245
    1STR    H2028339   8.826   6.624   7.280
    1STR    H2128340   8.963   6.511   7.301
    1STR    H2228341   8.970   6.655   7.197
    1STR    H2328342   9.079   6.529   7.084
    1STR    H2728343   8.911   6.368   6.822
    1STR    H2828344   0.450   4.988   7.518
    1STR    H2928345   0.235   4.876   7.532
    1STR    H2A28346   0.131   4.701   7.317
    1STR    H2B28347   9.313   4.797   7.278
    1STR    H2C28348   0.044   4.777   7.446
    1STR   BCK128349   9.129   7.484   0.126
    1STR    O0328350   9.107   7.481   0.006
    1STR    N0428351   9.221   7.412   0.186
    1STR    C0528352   0.012   7.345   0.137
    1STR    C0628353   0.092   7.385   0.028
    1STR    C0728354   0.232   7.364   0.026
    1STR    N0828355   0.329   7.432   9.268
    1STR    C0928356   0.314   7.509   9.158
    1STR    O0A28357   0.205   7.526   9.112
    1STR    O0B28358   0.420   7.569   9.096
    1STR    C0C28359   0.558   7.543   9.113
    1STR    C0D28360   0.619   7.513   8.975
    1STR    C0E28361   0.623   7.663   9.175
    1STR    O0F28362   0.737   7.625   9.251
    1STR    C0G28363   0.785   7.722   0.023
    1STR    C0H28364   0.861   7.832   9.267
    1STR    C0I28365   0.679   7.771   0.125
    1STR    O0J28366   0.592   7.669   0.175
    1STR    C0K28367   0.338   8.963   0.350
    1STR    C0M28368   0.378   8.885   0.225
    1STR    C0N28369   0.188   8.983   0.370
    1STR    O0O28370   0.099   9.070   0.308
    1STR    C0P28371   9.294   9.020   0.300
    1STR    O0Q28372   9.238   8.952   0.381
    1STR    N0R28373   9.232   9.027   0.187
    1STR    C0S28374   9.289   9.036   0.064
    1STR    C0T28375   0.105   9.062   0.042
    1STR    C0U28376   0.156   9.008   9.248
    1STR    C0V28377   0.079   8.978   9.140
    1STR    C0W28378   0.164   8.958   9.020
    1STR    C0X28379   9.258   8.979   9.152
    1STR    N0Y28380   9.173   8.960   9.047
    1STR   BCK228381   9.040   8.966   9.050
    1STR    O1028382   8.966   8.964   9.148
    1STR    C1328383   9.208   8.995   9.281
    1STR    C1428384   0.275   7.267   0.117
    1STR    C1528385   0.190   7.200   0.204
    1STR    C1628386   0.062   7.248   0.221
    1STR    C1728387   9.302   7.202   0.337
    1STR    H1B28388   9.218   7.418   0.287
    1STR    H1C28389   0.048   7.441   9.270
    1STR    H1D28390   0.424   7.426   9.303
    1STR    H1E28391   0.573   7.467   9.186
    1STR    H1F28392   0.611   7.598   8.908
    1STR    H1G28393   0.724   7.485   8.984
    1STR    H1H28394   0.567   7.431   8.925
    1STR    H1I28395   0.547   7.705   9.239
    1STR    H1J28396   0.651   7.732   9.096
    1STR    H1K28397   0.862   7.674   0.081
    1STR    H1M28398   0.800   7.887   9.196
    1STR    H1N28399   0.942   7.787   9.210
    1STR    H1O28400   0.905   7.904   0.017
    1STR    H1P28401   0.728   7.823   0.207
    1STR    H1Q28402   0.617   7.839   0.073
    1STR   C01028403   0.471   7.712   0.238
    1STR   H01128404   0.434   7.794   0.180
    1STR   C01228405   0.363   7.606   0.219
    1STR   H01328406   0.391   7.504   0.229
    1STR   H01428407   0.319   7.615   0.120
    1STR   H01528408   0.284   7.615   0.293
    1STR   C01628409   0.477   7.763   0.385
    1STR   H01728410   0.570   7.815   0.406
    1STR   H01828411   0.392   7.828   0.399
    1STR   O01928412   0.469   7.662   0.482
    1STR   C02028413   0.434   7.691   0.615
    1STR   H02128414   0.450   7.597   0.668
    1STR   C02228415   0.523   7.797   0.682
    1STR   H02328416   0.498   7.897   0.648
    1STR   H02428417   0.628   7.778   0.660
    1STR   H02528418   0.510   7.794   0.790
    1STR   C02628419   0.285   7.720   0.621
    1STR   H02728420   0.253   7.708   0.724
    1STR   H02828421   0.270   7.823   0.596
    1STR   O02928422   0.221   7.634   0.528
    1STR   C03028423   0.078   7.627   0.521
    1STR   H03128424   0.060   7.522   0.506
    1STR   C03228425   0.010   7.681   0.647
    1STR   H03328426   0.053   7.648   0.741
    1STR   H03428427   9.227   7.650   0.648
    1STR   H03528428   0.013   7.789   0.646
    1STR   C03628429   0.014   7.694   0.399
    1STR   H03728430   9.226   7.684   0.405
    1STR   H03828431   0.034   7.799   0.409
    1STR   O03928432   0.056   7.638   0.274
    1STR   C04028433   0.047   7.731   0.166
    1STR   H04128434   9.268   7.773   0.169
    1STR   C04228435   0.158   7.829   0.190
    1STR   H04328436   0.209   7.811   0.284
    1STR   H04428437   0.114   7.925   0.195
    1STR   H04528438   0.234   7.826   0.114
    1STR   C04628439   0.054   7.674   0.025
    1STR   H04728440   0.152   7.642   9.315
    1STR   H04828441   9.310   7.595   0.041
    1STR   O04928442   9.300   7.733   9.241
    1STR   C05028443   9.274   7.667   9.116
    1STR   H05128444   9.295   7.563   9.131
    1STR   C05228445   9.120   7.680   9.114
    1STR   H05328446   9.086   7.755   9.044
    1STR   H05428447   9.080   7.706   9.212
    1STR   H05528448   9.066   7.590   9.088
    1STR   C05628449   0.023   7.715   8.977
    1STR   H05728450   0.019   7.629   8.914
    1STR   H05828451   9.278   7.778   8.920
    1STR   O05928452   0.164   7.734   8.951
    1STR   C06028453   0.226   7.847   8.885
    1STR   H06128454   0.245   7.924   8.957
    1STR   C06228455   0.360   7.788   8.839
    1STR   H06328456   0.411   7.740   8.922
    1STR   H06428457   0.425   7.864   8.796
    1STR   H06528458   0.346   7.708   8.767
    1STR   C06628459   0.157   7.922   8.770
    1STR   H06728460   0.185   7.878   8.680
    1STR   H06828461   0.051   7.906   8.778
    1STR   O06928462   0.198   8.054   8.737
    1STR   C07028463   0.151   8.115   8.615
    1STR   H07128464   0.193   8.215   8.620
    1STR   C07228465   0.217   8.053   8.490
    1STR   H07328466   0.168   7.961   8.461
    1STR   H07428467   0.322   8.033   8.508
    1STR   H07528468   0.209   8.121   8.406
    1STR   C07628469   9.318   8.134   8.596
    1STR   H07728470   9.291   8.238   8.613
    1STR   H07828471   9.292   8.118   8.491
    1STR   O07928472   9.237   8.044   8.671
    1STR   C08028473   9.173   8.100   8.785
    1STR   H08128474   9.233   8.184   8.807
    1STR   C08228475   9.034   8.151   8.742
    1STR   H08328476   9.002   8.120   8.644
    1STR   H08428477   9.025   8.258   8.736
    1STR   H08528478   8.959   8.118   8.814
    1STR   C08628479   9.173   8.018   8.918
    1STR   H08728480   9.118   8.079   8.988
    1STR   H08828481   9.113   7.929   8.909
    1STR   O08928482   9.302   7.989   8.976
    1STR   C09028483   0.001   7.983   9.119
    1STR   H09128484   9.314   8.087   9.143
    1STR   C09228485   9.186   7.968   9.198
    1STR   H09328486   9.201   7.920   9.292
    1STR   H09428487   9.102   7.924   9.147
    1STR   H09528488   9.145   8.064   9.230
    1STR   C09628489   0.144   7.922   9.183
    1STR   H09728490   0.124   7.918   9.288
    1STR   H09828491   0.164   7.820   9.157
    1STR   O09928492   0.281   7.976   9.170
    1STR   C10028493   0.400   7.940   9.247
    1STR   H10128494   0.390   7.837   9.281
    1STR   C10228495   0.500   7.949   9.132
    1STR   H10328496   0.469   7.892   9.046
    1STR   H10428497   0.599   7.918   9.161
    1STR   H10528498   0.515   8.052   9.101
    1STR   C10628499   0.473   8.035   0.034
    1STR   H10728500   0.580   8.026   0.021
    1STR   H10828501   0.465   8.139   0.009
    1STR   O10928502   0.448   8.020   0.177
    1STR   C11028503   0.545   8.066   0.274
    1STR   H11128504   0.604   7.977   0.292
    1STR   C11228505   0.657   8.156   0.220
    1STR   H11328506   0.619   8.239   0.161
    1STR   H11428507   0.727   8.101   0.157
    1STR   H11528508   0.718   8.195   0.302
    1STR   C11628509   0.489   8.100   0.418
    1STR   H11728510   0.459   8.010   0.469
    1STR   H11828511   0.570   8.138   0.480
    1STR   O11928512   0.380   8.193   0.429
    1STR   C12028513   0.263   8.154   0.505
    1STR   H12128514   0.198   8.237   0.485
    1STR   C12228515   0.189   8.037   0.443
    1STR   H12328516   0.160   7.957   0.509
    1STR   H12428517   0.251   7.995   0.365
    1STR   H12528518   0.094   8.068   0.401
    1STR   C12628519   0.262   8.157   0.660
    1STR   H12728520   0.360   8.185   0.698
    1STR   H12828521   0.194   8.235   0.694
    1STR   O12928522   0.223   8.032   0.717
    1STR   C13028523   0.097   8.020   0.786
    1STR   H13128524   0.101   7.916   0.816
    1STR   C13228525   0.094   8.102   0.915
    1STR   H13328526   0.087   8.209   0.896
    1STR   H13428527   0.182   8.082   0.976
    1STR   H13528528   0.007   8.074   0.974
    1STR   C13628529   9.284   8.032   0.706
    1STR   H13728530   9.245   8.134   0.706
    1STR   H13828531   9.295   8.005   0.601
    1STR   O13928532   9.191   7.940   0.766
    1STR   C14028533   9.067   7.921   0.697
    1STR   H14128534   9.086   7.914   0.590
    1STR   C14228535   9.000   7.789   0.737
    1STR   H14328536   9.035   7.707   0.675
    1STR   H14428537   8.892   7.791   0.718
    1STR   H14528538   9.017   7.764   0.841
    1STR   C14628539   8.975   8.040   0.728
    1STR   H14728540   8.870   8.012   0.731
    1STR   H14828541   8.999   8.081   0.826
    1STR   O14928542   8.995   8.139   0.629
    1STR   C15028543   8.927   8.110   0.508
    1STR   H15128544   8.892   8.007   0.500
    1STR   C15228545   8.806   8.205   0.505
    1STR   H15328546   8.838   8.308   0.523
    1STR   H15428547   8.735   8.180   0.583
    1STR   H15528548   8.755   8.202   0.409
    1STR   C15628549   9.024   8.135   0.393
    1STR   H15728550   8.969   8.141   0.300
    1STR   H15828551   9.064   8.232   0.412
    1STR   O15928552   9.132   8.042   0.386
    1STR   C16028553   9.173   7.999   0.256
    1STR   H16128554   9.249   7.931   0.288
    1STR   C16228555   9.053   7.923   0.196
    1STR   H16328556   9.003   7.868   0.275
    1STR   H16428557   9.080   7.852   0.120
    1STR   H16528558   8.981   7.990   0.151
    1STR   C16628559   9.243   8.108   0.168
    1STR   H16728560   9.164   8.161   0.123
    1STR   H16828561   9.294   8.168   0.241
    1STR   O16928562   0.015   8.093   0.057
    1STR   C17028563   0.110   8.201   0.027
    1STR   H17128564   0.059   8.294   0.044
    1STR   C17228565   0.208   8.145   0.125
    1STR   H17328566   0.240   8.051   0.085
    1STR   H17428567   0.171   8.117   0.218
    1STR   H17528568   0.294   8.204   0.145
    1STR   C17628569   0.198   8.214   9.216
    1STR   H17728570   0.297   8.181   9.237
    1STR   H17828571   0.166   8.152   9.139
    1STR   O17928572   0.249   8.321   9.141
    1STR   C18028573   0.256   8.300   8.997
    1STR   H18128574   0.280   8.394   8.949
    1STR   C18228575   0.376   8.216   8.955
    1STR   H18328576   0.357   8.111   8.977
    1STR   H18428577   0.467   8.248   9.007
    1STR   H18528578   0.393   8.221   8.848
    1STR   C18628579   0.124   8.252   8.930
    1STR   H18728580   0.120   8.277   8.825
    1STR   H18828581   0.139   8.145   8.929
    1STR   O18928582   9.318   8.254   9.000
    1STR   C19028583   9.218   8.352   8.982
    1STR   H19128584   9.244   8.406   9.070
    1STR   C19228585   9.228   8.430   8.846
    1STR   H19328586   9.180   8.382   8.762
    1STR   H19428587   0.008   8.450   8.811
    1STR   H19528588   9.182   8.527   8.851
    1STR   C19628589   9.071   8.320   9.025
    1STR   H19728590   9.033   8.413   9.062
    1STR   H19828591   9.010   8.296   8.941
    1STR   O19928592   9.037   8.239   9.137
    1STR   C20028593   8.896   8.239   9.165
    1STR   H20128594   8.857   8.340   9.157
    1STR   C20228595   8.820   8.151   9.065
    1STR   H20328596   8.867   8.052   9.057
    1STR   H20428597   8.816   8.195   8.966
    1STR   H20528598   8.717   8.136   9.097
    1STR   C20628599   8.866   8.193   9.309
    1STR   H20728600   8.767   8.226   0.020
    1STR   H20828601   8.865   8.084   9.310
    1STR   O20928602   8.962   8.231   0.086
    1STR   C21028603   8.981   8.368   0.114
    1STR   H21128604   8.947   8.422   0.027
    1STR   C21228605   8.892   8.404   0.234
    1STR   H21328606   8.927   8.360   0.325
    1STR   H21428607   8.788   8.375   0.219
    1STR   H21528608   8.893   8.509   0.259
    1STR   C21628609   9.132   8.399   0.135
    1STR   H21728610   9.187   8.357   0.051
    1STR   H21828611   9.154   8.502   0.124
    1STR   O21928612   9.177   8.351   0.262
    1STR   C22028613   9.289   8.401   0.336
    1STR   H22128614   9.255   8.500   0.360
    1STR   C22228615   9.278   8.339   0.476
    1STR   H22328616   0.038   8.373   0.540
    1STR   H22428617   9.281   8.231   0.473
    1STR   H22528618   9.186   8.371   0.525
    1STR   C22628619   0.121   8.392   0.286
    1STR   H22728620   0.192   8.428   0.359
    1STR   H22828621   0.147   8.291   0.295
    1STR   O22928622   0.162   8.444   0.158
    1STR   C23028623   0.291   8.498   0.118
    1STR   H23128624   0.326   8.575   0.185
    1STR   C23228625   0.411   8.406   0.113
    1STR   H23328626   0.405   8.339   0.028
    1STR   H23428627   0.417   8.351   0.206
    1STR   H23528628   0.504   8.461   0.100
    1STR   C23628629   0.272   8.562   9.299
    1STR   H23728630   0.307   8.664   9.290
    1STR   H23828631   0.330   8.511   9.223
    1STR   O23928632   0.131   8.563   9.276
    1STR   C24028633   0.080   8.636   9.168
    1STR   H24128634   0.120   8.736   9.165
    1STR   C24228635   0.130   8.557   9.057
    1STR   H24328636   0.073   8.559   8.969
    1STR   H24428637   0.105   8.461   9.089
    1STR   H24528638   0.237   8.569   9.042
    1STR   C24628639   9.247   8.635   9.182
    1STR   H24728640   9.226   8.556   9.253
    1STR   H24828641   9.214   8.729   9.224
    1STR   O24928642   9.167   8.606   9.068
    1STR   C25028643   9.033   8.649   9.069
    1STR   H25128644   9.064   8.747   9.064
    1STR   C25228645   8.957   8.622   8.936
    1STR   H25328646   8.937   8.518   8.913
    1STR   H25428647   9.013   8.662   8.852
    1STR   H25528648   8.860   8.672   8.936
    1STR   C25628649   8.946   8.642   9.196
    1STR   H25728650   8.883   8.731   9.193
    1STR   H25828651   8.878   8.558   9.189
    1STR   O25928652   9.019   8.632   9.319
    1STR   C26028653   8.992   8.721   0.106
    1STR   H26128654   9.023   8.815   0.064
    1STR   C26228655   8.839   8.716   0.129
    1STR   H26328656   8.797   8.617   0.110
    1STR   H26428657   8.785   8.780   0.060
    1STR   H26528658   8.812   8.747   0.230
    1STR   C26628659   9.078   8.703   0.238
    1STR   H26728660   9.033   8.767   0.314
    1STR   H26828661   9.077   8.606   0.285
    1STR   O26928662   9.210   8.756   0.234
    1STR   C27028663   0.014   8.684   0.242
    1STR   H27128664   9.320   8.593   0.188
    1STR   C27228665   0.087   8.757   0.135
    1STR   H27328666   0.092   8.857   0.149
    1STR   H27428667   0.033   8.759   0.044
    1STR   H27528668   0.189   8.730   0.124
    1STR   C27628669   0.115   8.670   0.369
    1STR   H27728670   0.206   8.632   0.328
    1STR   H27828671   0.153   8.756   0.413
    1STR   O27928672   0.100   8.595   0.489
    1STR   C28028673   0.215   8.599   0.578
    1STR   H28128674   0.256   8.700   0.586
    1STR   C28228675   0.164   8.554   0.715
    1STR   H28328676   0.142   8.448   0.717
    1STR   H28428677   0.075   8.604   0.746
    1STR   H28528678   0.239   8.573   0.792
    1STR   C28628679   0.339   8.512   0.550
    1STR   H28728680   0.396   8.519   0.643
    1STR   H28828681   0.313   8.408   0.540
    1STR   O28928682   0.428   8.548   0.444
    1STR   C29028683   0.561   8.505   0.476
    1STR   H29128684   0.560   8.421   0.546
    1STR   C29228685   0.631   8.455   0.352
    1STR   H29328686   0.629   8.527   0.271
    1STR   H29428687   0.579   8.366   0.325
    1STR   H29528688   0.735   8.428   0.372
    1STR   C29628689   0.643   8.618   0.533
    1STR   H29728690   0.731   8.580   0.585
    1STR   H29828691   0.680   8.676   0.449
    1STR   O29928692   0.567   8.697   0.621
    1STR   C30028693   0.588   8.836   0.606
    1STR   H30128694   0.540   8.887   0.688
    1STR   C30228695   0.736   8.871   0.624
    1STR   H30328696   0.794   8.857   0.533
    1STR   H30428697   0.779   8.810   0.704
    1STR   H30528698   0.748   8.975   0.654
    1STR   C30628699   0.528   8.887   0.474
    1STR   H30728700   0.552   8.991   0.472
    1STR   H30828701   0.576   8.842   0.388
    1STR   O30928702   0.388   8.882   0.457
    1STR    H1R28703   0.373   9.064   0.351
    1STR    H1S28704   0.367   8.778   0.241
    1STR    H1T28705   0.481   8.903   0.199
    1STR    H1U28706   0.316   8.913   0.140
    1STR    H1V28707   0.145   8.950   0.460
    1STR    H1W28708   0.167   8.906   0.308
    1STR    H1X28709   9.147   8.976   0.195
    1STR    H1Y28710   0.176   9.100   0.113
    1STR    H1Z28711   0.257   8.991   9.235
    1STR    H2028712   0.219   8.865   9.024
    1STR    H2128713   0.104   8.967   8.934
    1STR    H2228714   0.238   9.037   9.014
    1STR    H2328715   9.220   8.932   8.962
    1STR    H2728716   9.107   8.983   9.308
    1STR    H2828717   0.377   7.242   0.122
    1STR    H2928718   0.221   7.117   0.264
    1STR    H2A28719   9.196   7.190   0.313
    1STR    H2B28720   9.318   7.286   0.402
    1STR    H2C28721   0.022   7.110   0.380
    1STR   BCK128722   8.867   7.608   2.066
    1STR    O0328723   8.904   7.566   1.957
    1STR    N0428724   8.748   7.670   2.071
    1STR    C0528725   8.670   7.714   2.178
    1STR    C0628726   8.677   7.656   2.307
    1STR    C0728727   8.611   7.713   2.416
    1STR    N0828728   8.638   7.659   2.542
    1STR    C0928729   8.625   7.712   2.663
    1STR    O0A28730   8.573   7.820   2.689
    1STR    O0B28731   8.678   7.628   2.750
    1STR    C0C28732   8.725   7.675   2.874
    1STR    C0D28733   8.629   7.631   2.984
    1STR    C0E28734   8.865   7.615   2.890
    1STR    O0F28735   8.953   7.679   2.800
    1STR    C0G28736   9.050   7.602   2.731
    1STR    C0H28737   8.993   7.599   2.589
    1STR    C0I28738   9.192   7.666   2.746
    1STR    O0J28739   9.313   7.588   2.764
    1STR    C0K28740   0.201   8.610   1.619
    1STR    C0M28741   0.304   8.703   1.551
    1STR    C0N28742   0.071   8.606   1.535
    1STR    O0O28743   9.274   8.547   1.591
    1STR    C0P28744   9.187   8.621   1.659
    1STR    O0Q28745   9.216   8.722   1.723
    1STR    N0R28746   9.063   8.573   1.643
    1STR    C0S28747   8.935   8.615   1.683
    1STR    C0T28748   8.829   8.585   1.594
    1STR    C0U28749   8.696   8.612   1.629
    1STR    C0V28750   8.664   8.664   1.755
    1STR    C0W28751   8.518   8.676   1.795
    1STR    C0X28752   8.768   8.699   1.844
    1STR    N0Y28753   8.736   8.738   1.974
    1STR   BCK228754   8.669   8.845   2.017
    1STR    O1028755   8.645   8.868   2.134
    1STR    C1328756   8.903   8.681   1.804
    1STR    C1428757   8.530   7.827   2.394
    1STR    C1528758   8.509   7.874   2.263
    1STR    C1628759   8.578   7.818   2.154
    1STR    C1728760   8.555   7.872   2.014
    1STR    H1B28761   8.714   7.689   1.979
    1STR    H1C28762   8.738   7.570   2.326
    1STR    H1D28763   8.689   7.572   2.547
    1STR    H1E28764   8.735   7.785   2.874
    1STR    H1F28765   8.617   7.522   2.984
    1STR    H1G28766   8.665   7.662   3.082
    1STR    H1H28767   8.531   7.675   2.969
    1STR    H1I28768   8.858   7.507   2.874
    1STR    H1J28769   8.901   7.633   2.991
    1STR    H1K28770   9.048   7.503   2.772
    1STR    H1M28771   8.968   7.699   2.563
    1STR    H1N28772   8.901   7.542   2.582
    1STR    H1O28773   9.060   7.568   2.511
    1STR    H1P28774   9.213   7.729   2.662
    1STR    H1Q28775   9.182   7.730   2.832
    1STR   C01028776   0.109   7.658   2.812
    1STR   H01128777   0.092   7.758   2.789
    1STR   C01228778   0.102   7.679   2.963
    1STR   H01328779   0.088   7.586   3.015
    1STR   H01428780   0.018   7.740   2.993
    1STR   H01528781   0.191   7.728   3.002
    1STR   C01628782   0.253   7.619   2.757
    1STR   H01728783   0.320   7.668   2.826
    1STR   H01828784   0.263   7.511   2.764
    1STR   O01928785   0.307   7.648   2.626
    1STR   C02028786   0.447   7.688   2.620
    1STR   H02128787   0.458   7.785   2.668
    1STR   C02228788   0.536   7.586   2.693
    1STR   H02328789   0.542   7.495   2.634
    1STR   H02428790   0.504   7.559   2.793
    1STR   H02528791   0.639   7.622   2.702
    1STR   C02628792   0.506   7.700   2.475
    1STR   H02728793   0.613   7.681   2.480
    1STR   H02828794   0.458   7.625   2.415
    1STR   O02928795   0.495   7.825   2.410
    1STR   C03028796   0.557   7.855   2.282
    1STR   H03128797   0.520   7.956   2.268
    1STR   C03228798   0.706   7.874   2.309
    1STR   H03328799   0.756   7.779   2.326
    1STR   H03428800   0.721   7.937   2.397
    1STR   H03528801   0.755   7.923   2.225
    1STR   C03628802   0.535   7.784   2.139
    1STR   H03728803   0.569   7.850   2.060
    1STR   H03828804   0.613   7.712   2.136
    1STR   O03928805   0.414   7.719   2.088
    1STR   C04028806   0.346   7.766   1.966
    1STR   H04128807   0.359   7.870   1.950
    1STR   C04228808   0.414   7.709   1.850
    1STR   H04328809   0.406   7.604   1.863
    1STR   H04428810   0.518   7.740   1.843
    1STR   H04528811   0.362   7.742   1.761
    1STR   C04628812   0.190   7.745   1.965
    1STR   H04728813   0.176   7.649   2.006
    1STR   H04828814   0.136   7.805   2.036
    1STR   O04928815   0.116   7.756   1.843
    1STR   C05028816   9.306   7.821   1.844
    1STR   H05128817   9.311   7.919   1.893
    1STR   C05228818   9.285   7.843   1.694
    1STR   H05328819   9.275   7.747   1.643
    1STR   H05428820   0.050   7.892   1.648
    1STR   H05528821   9.197   7.903   1.674
    1STR   C05628822   9.180   7.745   1.897
    1STR   H05728823   9.101   7.752   1.823
    1STR   H05828824   9.194   7.639   1.891
    1STR   O05928825   9.125   7.776   2.027
    1STR   C06028826   9.042   7.893   2.041
    1STR   H06128827   9.109   7.977   2.025
    1STR   C06228828   8.939   7.901   1.927
    1STR   H06328829   8.897   7.805   1.900
    1STR   H06428830   8.984   7.943   1.838
    1STR   H06528831   8.856   7.963   1.958
    1STR   C06628832   8.965   7.913   2.178
    1STR   H06728833   8.943   8.020   2.185
    1STR   H06828834   8.867   7.868   2.172
    1STR   O06928835   9.021   7.869   2.303
    1STR   C07028836   8.981   7.940   2.423
    1STR   H07128837   8.977   8.047   2.403
    1STR   C07228838   8.839   7.903   2.457
    1STR   H07328839   8.800   7.951   2.547
    1STR   H07428840   8.832   7.798   2.474
    1STR   H07528841   8.775   7.925   2.373
    1STR   C07628842   9.083   7.915   2.540
    1STR   H07728843   9.132   7.824   2.509
    1STR   H07828844   9.166   7.984   2.535
    1STR   O07928845   9.034   7.904   2.677
    1STR   C08028846   9.088   7.981   2.789
    1STR   H08128847   9.088   8.083   2.761
    1STR   C08228848   8.995   7.967   2.909
    1STR   H08328849   9.000   7.867   2.951
    1STR   H08428850   8.892   7.986   2.879
    1STR   H08528851   9.021   8.038   2.988
    1STR   C08628852   9.236   7.973   2.829
    1STR   H08728853   9.274   8.067   2.869
    1STR   H08828854   9.253   7.904   2.910
    1STR   O08928855   9.297   7.935   2.711
    1STR   C09028856   0.108   7.969   2.678
    1STR   H09128857   0.109   8.065   2.631
    1STR   C09228858   0.205   7.979   2.797
    1STR   H09328859   0.185   7.914   2.882
    1STR   H09428860   0.207   8.079   2.839
    1STR   H09528861   0.305   7.958   2.761
    1STR   C09628862   0.144   7.863   2.572
    1STR   H09728863   0.251   7.868   2.557
    1STR   H09828864   0.118   7.763   2.598
    1STR   O09928865   0.064   7.862   2.456
    1STR   C10028866   0.115   7.780   2.351
    1STR   H10128867   0.141   7.686   2.399
    1STR   C10228868   0.004   7.739   2.253
    1STR   H10328869   9.239   7.692   2.304
    1STR   H10428870   0.037   7.676   2.174
    1STR   H10528871   9.283   7.819   2.194
    1STR   C10628872   0.250   7.838   2.298
    1STR   H10728873   0.297   7.902   2.368
    1STR   H10828874   0.309   7.748   2.295
    1STR   O10928875   0.282   7.896   2.172
    1STR   C11028876   0.305   8.032   2.137
    1STR   H11128877   0.318   8.083   2.227
    1STR   C11228878   0.423   8.078   2.045
    1STR   H11328879   0.408   8.061   1.939
    1STR   H11428880   0.520   8.045   2.076
    1STR   H11528881   0.436   8.185   2.049
    1STR   C11628882   0.174   8.057   2.068
    1STR   H11728883   0.156   8.158   2.046
    1STR   H11828884   0.169   8.007   1.972
    1STR   O11928885   0.079   8.010   2.156
    1STR   C12028886   0.048   8.098   2.260
    1STR   H12128887   0.029   8.185   2.207
    1STR   C12228888   9.232   8.048   2.290
    1STR   H12328889   9.231   7.950   2.330
    1STR   H12428890   9.176   8.048   2.199
    1STR   H12528891   9.173   8.100   2.359
    1STR   C12628892   0.136   8.133   2.384
    1STR   H12728893   0.063   8.166   2.455
    1STR   H12828894   0.177   8.046   2.427
    1STR   O12928895   0.248   8.225   2.381
    1STR   C13028896   0.374   8.181   2.440
    1STR   H13128897   0.394   8.077   2.418
    1STR   C13228898   0.487   8.261   2.375
    1STR   H13328899   0.474   8.368   2.391
    1STR   H13428900   0.492   8.242   2.268
    1STR   H13528901   0.583   8.233   2.418
    1STR   C13628902   0.386   8.189   2.593
    1STR   H13728903   0.407   8.292   2.621
    1STR   H13828904   0.294   8.164   2.642
    1STR   O13928905   0.486   8.097   2.637
    1STR   C14028906   0.527   8.115   2.772
    1STR   H14128907   0.443   8.152   2.830
    1STR   C14228908   0.570   7.981   2.834
    1STR   H14328909   0.486   7.915   2.854
    1STR   H14428910   0.618   7.997   2.931
    1STR   H14528911   0.640   7.929   2.769
    1STR   C14628912   0.645   8.213   2.778
    1STR   H14728913   0.674   8.232   2.882
    1STR   H14828914   0.731   8.167   2.729
    1STR   O14928915   0.619   8.333   2.708
    1STR   C15028916   0.599   8.449   2.788
    1STR   H15128917   0.677   8.458   2.863
    1STR   C15228918   0.616   8.563   2.687
    1STR   H15328919   0.539   8.558   2.609
    1STR   H15428920   0.711   8.559   2.635
    1STR   H15528921   0.609   8.661   2.733
    1STR   C15628922   0.460   8.454   2.854
    1STR   H15728923   0.450   8.550   2.904
    1STR   H15828924   0.385   8.451   2.776
    1STR   O15928925   0.433   8.349   2.947
    1STR   C16028926   0.310   8.354   3.019
    1STR   H16128927   0.295   8.254   3.060
    1STR   C16228928   0.329   8.451   3.137
    1STR   H16328929   0.346   8.553   3.105
    1STR   H16428930   0.415   8.421   3.197
    1STR   H16528931   0.241   8.451   3.202
    1STR   C16628932   0.182   8.390   2.938
    1STR   H16728933   0.096   8.397   3.005
    1STR   H16828934   0.196   8.488   2.896
    1STR   O16928935   0.147   8.303   2.832
    1STR   C17028936   0.053   8.362   2.742
    1STR   H17128937   0.020   8.459   2.772
    1STR   C17228938   0.124   8.389   2.612
    1STR   H17328939   0.217   8.445   2.624
    1STR   H17428940   0.060   8.441   2.541
    1STR   H17528941   0.152   8.297   2.572
    1STR   C17628942   9.246   8.278   2.725
    1STR   H17728943   9.273   8.183   2.683
    1STR   H17828944   9.199   8.264   2.823
    1STR   O17928945   9.151   8.339   2.640
    1STR   C18028946   9.061   8.258   2.567
    1STR   H18128947   9.120   8.176   2.534
    1STR   C18228948   8.938   8.207   2.643
    1STR   H18328949   8.848   8.252   2.606
    1STR   H18428950   8.943   8.224   2.750
    1STR   H18528951   8.919   8.103   2.626
    1STR   C18628952   9.012   8.333   2.443
    1STR   H18728953   8.960   8.264   2.378
    1STR   H18828954   8.931   8.396   2.468
    1STR   O18928955   9.107   8.419   2.383
    1STR   C19028956   9.188   8.350   2.294
    1STR   H19128957   9.227   8.280   2.363
    1STR   C19228958   9.101   8.299   2.175
    1STR   H19328959   9.043   8.381   2.132
    1STR   H19428960   9.029   8.222   2.198
    1STR   H19528961   9.158   8.252   2.095
    1STR   C19628962   0.001   8.416   2.259
    1STR   H19728963   9.309   8.521   2.284
    1STR   H19828964   0.082   8.384   2.325
    1STR   O19928965   0.030   8.374   2.124
    1STR   C20028966   0.146   8.397   2.046
    1STR   H20128967   0.143   8.498   2.021
    1STR   C20228968   0.280   8.371   2.117
    1STR   H20328969   0.303   8.430   2.204
    1STR   H20428970   0.364   8.383   2.048
    1STR   H20528971   0.281   8.274   2.159
    1STR   C20628972   0.131   8.341   1.902
    1STR   H20728973   0.124   8.425   1.833
    1STR   H20828974   0.220   8.286   1.873
    1STR   O20928975   0.014   8.259   1.889
    1STR   C21028976   9.287   8.242   1.757
    1STR   H21128977   9.275   8.340   1.710
    1STR   C21228978   0.072   8.162   1.678
    1STR   H21328979   0.108   8.079   1.737
    1STR   H21428980   0.158   8.224   1.654
    1STR   H21528981   0.032   8.126   1.584
    1STR   C21628982   9.148   8.177   1.763
    1STR   H21728983   9.124   8.137   1.665
    1STR   H21828984   9.149   8.094   1.832
    1STR   O21928985   9.053   8.275   1.807
    1STR   C22028986   8.922   8.284   1.751
    1STR   H22128987   8.889   8.383   1.782
    1STR   C22228988   8.922   8.277   1.597
    1STR   H22328989   8.828   8.312   1.557
    1STR   H22428990   8.935   8.175   1.561
    1STR   H22528991   9.002   8.336   1.553
    1STR   C22628992   8.815   8.189   1.808
    1STR   H22728993   8.719   8.211   1.762
    1STR   H22828994   8.838   8.090   1.773
    1STR   O22928995   8.800   8.183   1.951
    1STR   C23028996   8.744   8.291   2.025
    1STR   H23128997   8.824   8.362   2.043
    1STR   C23228998   8.626   8.359   1.953
    1STR   H23328999   8.550   8.286   1.923
    1STR   H23429000   8.660   8.412   1.864
    1STR   H23529001   8.578   8.432   2.017
    1STR   C23629002   8.697   8.228   2.159
    1STR   H23729003   8.612   8.162   2.141
    1STR   H23829004   8.778   8.167   2.197
    1STR   O23929005   8.663   8.325   2.259
    1STR   C24029006   8.601   8.284   2.383
    1STR   H24129007   8.493   8.277   2.368
    1STR   C24229008   8.652   8.149   2.428
    1STR   H24329009   8.761   8.152   2.435
    1STR   H24429010   8.624   8.074   2.356
    1STR   H24529011   8.612   8.119   2.524
    1STR   C24629012   8.631   8.389   2.492
    1STR   H24729013   8.728   8.428   2.470
    1STR   H24829014   8.558   8.470   2.486
    1STR   O24929015   8.645   8.341   2.625
    1STR   C25029016   8.702   8.431   2.723
    1STR   H25129017   8.632   8.511   2.737
    1STR   C25229018   8.694   8.354   2.855
    1STR   H25329019   8.752   8.262   2.852
    1STR   H25429020   8.590   8.325   2.875
    1STR   H25529021   8.728   8.415   2.938
    1STR   C25629022   8.846   8.495   2.703
    1STR   H25729023   8.862   8.559   2.788
    1STR   H25829024   8.927   8.427   2.721
    1STR   O25929025   8.871   8.567   2.579
    1STR   C26029026   8.987   8.653   2.570
    1STR   H26129027   8.966   8.728   2.640
    1STR   C26229028   9.118   8.603   2.623
    1STR   H26329029   9.182   8.554   2.550
    1STR   H26429030   9.105   8.541   2.709
    1STR   H26529031   9.173   8.688   2.660
    1STR   C26629032   9.013   8.727   2.437
    1STR   H26729033   9.044   8.829   2.460
    1STR   H26829034   9.099   8.684   2.387
    1STR   O26929035   8.901   8.735   2.352
    1STR   C27029036   8.897   8.630   2.257
    1STR   H27129037   8.934   8.538   2.299
    1STR   C27229038   8.751   8.599   2.232
    1STR   H27329039   8.712   8.545   2.315
    1STR   H27429040   8.732   8.540   2.144
    1STR   H27529041   8.685   8.683   2.240
    1STR   C27629042   8.981   8.662   2.133
    1STR   H27729043   8.951   8.591   2.056
    1STR   H27829044   8.966   8.764   2.098
    1STR   O27929045   9.118   8.641   2.162
    1STR   C28029046   9.208   8.623   2.053
    1STR   H28129047   9.289   8.580   2.101
    1STR   C28229048   9.177   8.523   1.943
    1STR   H28329049   9.083   8.535   1.894
    1STR   H28429050   9.176   8.422   1.975
    1STR   H28529051   9.258   8.525   1.872
    1STR   C28629052   9.297   8.737   2.021
    1STR   H28729053   9.240   8.796   1.951
    1STR   H28829054   9.307   8.788   2.116
    1STR   O28929055   0.109   8.703   1.972
    1STR   C29029056   0.229   8.715   2.053
    1STR   H29129057   0.256   8.818   2.068
    1STR   C29229058   0.218   8.668   2.196
    1STR   H29329059   0.168   8.576   2.209
    1STR   H29429060   0.153   8.731   2.252
    1STR   H29529061   0.314   8.654   2.245
    1STR   C29629062   0.357   8.662   1.983
    1STR   H29729063   0.407   8.746   1.935
    1STR   H29829064   0.428   8.624   2.056
    1STR   O29929065   0.332   8.562   1.887
    1STR   C30029066   0.436   8.541   1.794
    1STR   H30129067   0.463   8.637   1.750
    1STR   C30229068   0.561   8.482   1.861
    1STR   H30329069   0.540   8.387   1.910
    1STR   H30429070   0.603   8.549   1.936
    1STR   H30529071   0.640   8.464   1.788
    1STR   C30629072   0.382   8.449   1.682
    1STR   H30729073   0.452   8.449   1.599
    1STR   H30829074   0.380   8.346   1.718
    1STR   O30929075   0.250   8.476   1.630
    1STR    H1R29076   0.177   8.649   1.719
    1STR    H1S29077   0.398   8.654   1.526
    1STR    H1T29078   0.328   8.785   1.618
    1STR    H1U29079   0.267   8.745   1.458
    1STR    H1V29080   0.091   8.553   1.442
    1STR    H1W29081   0.043   8.707   1.505
    1STR    H1X29082   9.069   8.485   1.595
    1STR    H1Y29083   8.850   8.543   1.498
    1STR    H1Z29084   8.617   8.588   1.560
    1STR    H2029085   8.481   8.776   1.772
    1STR    H2129086   8.456   8.602   1.745
    1STR    H2229087   8.507   8.660   1.902
    1STR    H2329088   8.766   8.682   2.053
    1STR    H2729089   8.983   8.714   1.868
    1STR    H2829090   8.481   7.876   2.476
    1STR    H2929091   8.440   7.956   2.248
    1STR    H2A29092   8.488   7.805   1.960
    1STR    H2B29093   8.647   7.881   1.958
    1STR    H2C29094   8.509   7.971   2.017
    1STR   BCK129095   0.040   7.322   4.757
    1STR    O0329096   0.058   7.429   4.703
    1STR    N0429097   0.119   7.266   4.845
    1STR    C0529098   0.192   7.344   4.931
    1STR    C0629099   0.332   7.344   4.933
    1STR    C0729100   0.404   7.417   5.028
    1STR    N0829101   0.540   7.397   5.043
    1STR    C0929102   0.623   7.500   5.053
    1STR    O0A29103   0.633   7.585   5.140
    1STR    O0B29104   0.668   7.514   4.939
    1STR    C0C29105   0.607   7.613   4.864
    1STR    C0D29106   0.699   7.738   4.869
    1STR    C0E29107   0.559   7.541   4.735
    1STR    O0F29108   0.466   7.601   4.641
    1STR    C0G29109   0.325   7.576   4.644
    1STR    C0H29110   0.273   7.614   4.773
    1STR    C0I29111   0.242   7.661   4.542
    1STR    O0J29112   0.242   7.611   4.412
    1STR    C0K29113   9.034   8.895   5.207
    1STR    C0M29114   8.939   9.010   5.229
    1STR    C0N29115   9.174   8.943   5.163
    1STR    O0O29116   9.179   8.983   5.026
    1STR    C0P29117   9.299   9.006   4.972
    1STR    O0Q29118   0.072   9.047   5.042
    1STR    N0R29119   9.306   8.980   4.838
    1STR    C0S29120   0.093   8.981   4.742
    1STR    C0T29121   0.225   9.006   4.777
    1STR    C0U29122   0.334   9.003   4.688
    1STR    C0V29123   0.316   8.967   4.555
    1STR    C0W29124   0.435   8.918   4.474
    1STR    C0X29125   0.185   8.952   4.509
    1STR    N0Y29126   0.178   8.905   4.377
    1STR   BCK229127   0.089   8.820   4.328
    1STR    O1029128   9.306   8.796   4.386
    1STR    C1329129   0.079   8.948   4.607
    1STR    C1429130   0.334   7.513   5.101
    1STR    C1529131   0.194   7.520   5.096
    1STR    C1629132   0.122   7.426   5.022
    1STR    C1729133   9.295   7.399   5.047
    1STR    H1B29134   0.111   7.164   4.847
    1STR    H1C29135   0.383   7.292   4.856
    1STR    H1D29136   0.579   7.336   4.971
    1STR    H1E29137   0.520   7.640   4.921
    1STR    H1F29138   0.688   7.806   4.786
    1STR    H1G29139   0.677   7.795   4.960
    1STR    H1H29140   0.802   7.714   4.881
    1STR    H1I29141   0.513   7.448   4.766
    1STR    H1J29142   0.648   7.513   4.683
    1STR    H1K29143   0.297   7.473   4.644
    1STR    H1M29144   0.245   7.717   4.760
    1STR    H1N29145   0.339   7.598   4.855
    1STR    H1O29146   0.183   7.570   4.808
    1STR    H1P29147   0.139   7.663   4.576
    1STR    H1Q29148   0.276   7.764   4.540
    1STR   C01029149   0.142   7.657   4.325
    1STR   H01129150   0.142   7.761   4.341
    1STR   C01229151   0.211   7.625   4.192
    1STR   H01329152   0.208   7.519   4.167
    1STR   H01429153   0.317   7.650   4.198
    1STR   H01529154   0.173   7.682   4.108
    1STR   C01629155   9.317   7.604   4.357
    1STR   H01729156   9.281   7.527   4.293
    1STR   H01829157   0.010   7.551   4.449
    1STR   O01929158   9.206   7.698   4.363
    1STR   C02029159   9.098   7.660   4.449
    1STR   H02129160   9.058   7.566   4.414
    1STR   C02229161   9.155   7.656   4.590
    1STR   H02329162   9.232   7.588   4.617
    1STR   H02429163   9.080   7.655   4.669
    1STR   H02529164   9.217   7.739   4.596
    1STR   C02629165   8.977   7.756   4.460
    1STR   H02729166   9.012   7.854   4.491
    1STR   H02829167   8.930   7.770   4.363
    1STR   O02929168   8.883   7.705   4.557
    1STR   C03029169   8.819   7.803   4.639
    1STR   H03129170   8.826   7.899   4.589
    1STR   C03229171   8.669   7.778   4.651
    1STR   H03329172   8.645   7.694   4.716
    1STR   H03429173   8.626   7.758   4.553
    1STR   H03529174   8.618   7.865   4.692
    1STR   C03629175   8.885   7.820   4.778
    1STR   H03729176   8.989   7.840   4.763
    1STR   H03829177   8.839   7.909   4.820
    1STR   O03929178   8.881   7.717   4.877
    1STR   C04029179   8.912   7.763   5.011
    1STR   H04129180   8.947   7.862   4.996
    1STR   C04229181   8.784   7.763   5.097
    1STR   H04329182   8.760   7.666   5.139
    1STR   H04429183   8.698   7.798   5.040
    1STR   H04529184   8.794   7.826   5.185
    1STR   C04629185   9.033   7.703   5.089
    1STR   H04729186   9.015   7.708   5.196
    1STR   H04829187   9.050   7.598   5.072
    1STR   O04929188   9.151   7.782   5.070
    1STR   C05029189   9.268   7.713   5.030
    1STR   H05129190   9.280   7.639   5.106
    1STR   C05229191   9.227   7.658   4.894
    1STR   H05329192   9.188   7.738   4.834
    1STR   H05429193   9.146   7.586   4.892
    1STR   H05529194   9.310   7.610   4.845
    1STR   C05629195   0.079   7.800   5.035
    1STR   H05729196   0.048   7.898   5.004
    1STR   H05829197   0.111   7.806   5.138
    1STR   O05929198   0.199   7.760   4.965
    1STR   C06029199   0.321   7.842   4.957
    1STR   H06129200   0.274   7.933   4.956
    1STR   C06229201   0.398   7.835   5.089
    1STR   H06329202   0.454   7.744   5.097
    1STR   H06429203   0.328   7.843   5.172
    1STR   H06529204   0.472   7.913   5.101
    1STR   C06629205   0.422   7.859   4.832
    1STR   H06729206   0.511   7.911   4.866
    1STR   H06829207   0.456   7.768   4.794
    1STR   O06929208   0.391   7.902   4.699
    1STR   C07029209   0.498   7.935   4.604
    1STR   H07129210   0.572   7.999   4.653
    1STR   C07229211   0.570   7.820   4.535
    1STR   H07329212   0.502   7.760   4.474
    1STR   H07429213   0.624   7.753   4.600
    1STR   H07529214   0.645   7.859   4.467
    1STR   C07629215   0.434   8.012   4.488
    1STR   H07729216   0.332   7.981   4.492
    1STR   H07829217   0.441   8.119   4.508
    1STR   O07929218   0.485   7.979   4.357
    1STR   C08029219   0.418   8.027   4.242
    1STR   H08129220   0.417   8.134   4.246
    1STR   C08229221   0.513   8.001   4.125
    1STR   H08329222   0.535   7.895   4.116
    1STR   H08429223   0.607   8.054   4.141
    1STR   H08529224   0.470   8.037   4.031
    1STR   C08629225   0.274   7.972   4.214
    1STR   H08729226   0.231   8.032   4.134
    1STR   H08829227   0.283   7.872   4.175
    1STR   O08929228   0.187   7.969   4.327
    1STR   C09029229   0.046   7.994   4.317
    1STR   H09129230   0.037   8.098   4.297
    1STR   C09229231   9.305   7.928   4.191
    1STR   H09329232   0.003   7.822   4.186
    1STR   H09429233   0.022   7.972   4.099
    1STR   H09529234   9.197   7.940   4.191
    1STR   C09629235   9.285   7.956   4.448
    1STR   H09729236   9.182   7.944   4.416
    1STR   H09829237   0.004   7.859   4.471
    1STR   O09929238   9.277   8.033   4.573
    1STR   C10029239   9.234   7.961   4.694
    1STR   H10129240   9.151   7.906   4.656
    1STR   C10229241   0.047   7.886   4.721
    1STR   H10329242   0.119   7.891   4.640
    1STR   H10429243   0.041   7.781   4.738
    1STR   H10529244   0.099   7.927   4.805
    1STR   C10629245   9.171   8.015   4.832
    1STR   H10729246   9.173   7.934   4.902
    1STR   H10829247   9.242   8.080   4.881
    1STR   O10929248   9.028   8.054   4.841
    1STR   C11029249   8.958   8.120   4.955
    1STR   H11129250   9.016   8.199   4.994
    1STR   C11229251   8.824   8.177   4.903
    1STR   H11329252   8.754   8.098   4.876
    1STR   H11429253   8.835   8.241   4.816
    1STR   H11529254   8.775   8.238   4.979
    1STR   C11629255   8.936   8.072   5.099
    1STR   H11729256   8.913   8.158   5.162
    1STR   H11829257   8.846   8.012   5.107
    1STR   O11929258   9.050   8.007   5.150
    1STR   C12029259   9.071   8.012   5.290
    1STR   H12129260   9.079   8.116   5.318
    1STR   C12229261   8.956   7.952   5.373
    1STR   H12329262   8.945   7.846   5.355
    1STR   H12429263   8.861   8.002   5.353
    1STR   H12529264   8.977   7.964   5.480
    1STR   C12629265   9.204   7.943   5.320
    1STR   H12729266   9.238   7.961   5.421
    1STR   H12829267   9.189   7.835   5.315
    1STR   O12929268   9.305   7.968   5.221
    1STR   C13029269   0.057   8.089   5.219
    1STR   H13129270   9.306   8.167   5.198
    1STR   C13229271   0.121   8.107   5.358
    1STR   H13329272   0.174   8.017   5.389
    1STR   H13429273   0.047   8.132   5.434
    1STR   H13529274   0.192   8.189   5.361
    1STR   C13629275   0.168   8.101   5.109
    1STR   H13729276   0.202   8.199   5.121
    1STR   H13829277   0.252   8.040   5.138
    1STR   O13929278   0.142   8.096   4.966
    1STR   C14029279   0.247   8.147   4.877
    1STR   H14129280   0.224   8.240   4.918
    1STR   C14229281   0.400   8.136   4.907
    1STR   H14329282   0.453   8.104   4.819
    1STR   H14429283   0.425   8.081   4.996
    1STR   H14529284   0.455   8.228   4.924
    1STR   C14629285   0.215   8.141   4.720
    1STR   H14729286   0.243   8.048   4.679
    1STR   H14829287   0.110   8.132   4.709
    1STR   O14929288   0.264   8.238   4.622
    1STR   C15029289   0.201   8.229   4.491
    1STR   H15129290   0.191   8.124   4.477
    1STR   C15229291   0.061   8.280   4.489
    1STR   H15329292   0.050   8.377   4.444
    1STR   H15429293   0.035   8.278   4.591
    1STR   H15529294   9.306   8.222   4.439
    1STR   C15629295   0.272   8.293   4.371
    1STR   H15729296   0.262   8.399   4.368
    1STR   H15829297   0.379   8.280   4.378
    1STR   O15929298   0.214   8.245   4.248
    1STR   C16029299   0.145   8.342   4.170
    1STR   H16129300   0.096   8.410   4.238
    1STR   C16229301   0.253   8.416   4.092
    1STR   H16329302   0.291   8.357   4.009
    1STR   H16429303   0.338   8.442   4.155
    1STR   H16529304   0.216   8.511   4.056
    1STR   C16629305   0.032   8.279   4.084
    1STR   H16729306   9.312   8.350   4.012
    1STR   H16829307   0.067   8.193   4.028
    1STR   O16929308   9.247   8.243   4.172
    1STR   C17029309   9.112   8.252   4.131
    1STR   H17129310   9.090   8.357   4.109
    1STR   C17229311   9.083   8.165   4.008
    1STR   H17329312   9.107   8.060   4.027
    1STR   H17429313   9.139   8.196   3.920
    1STR   H17529314   8.977   8.169   3.982
    1STR   C17629315   9.027   8.210   4.252
    1STR   H17729316   8.923   8.238   4.234
    1STR   H17829317   9.030   8.101   4.264
    1STR   O17929318   9.078   8.266   4.373
    1STR   C18029319   8.994   8.271   4.488
    1STR   H18129320   8.940   8.366   4.485
    1STR   C18229321   8.883   8.164   4.489
    1STR   H18329322   8.925   8.065   4.473
    1STR   H18429323   8.807   8.182   4.413
    1STR   H18529324   8.829   8.163   4.584
    1STR   C18629325   9.076   8.264   4.620
    1STR   H18729326   9.002   8.259   4.698
    1STR   H18829327   9.122   8.169   4.626
    1STR   O18929328   9.175   8.367   4.649
    1STR   C19029329   9.228   8.405   4.782
    1STR   H19129330   9.221   8.511   4.797
    1STR   C19229331   9.140   8.347   4.883
    1STR   H19329332   9.151   8.247   4.859
    1STR   H19429333   9.035   8.370   4.877
    1STR   H19529334   9.174   8.357   4.984
    1STR   C19629335   0.053   8.374   4.830
    1STR   H19729336   0.061   8.395   4.935
    1STR   H19829337   0.045   8.269   4.830
    1STR   O19929338   0.172   8.432   4.767
    1STR   C20029339   0.306   8.436   4.827
    1STR   H20129340   0.345   8.342   4.806
    1STR   C20229341   0.428   8.483   4.746
    1STR   H20329342   0.436   8.591   4.736
    1STR   H20429343   0.435   8.436   4.648
    1STR   H20529344   0.518   8.445   4.794
    1STR   C20629345   0.315   8.467   4.978
    1STR   H20729346   0.392   8.539   4.996
    1STR   H20829347   0.221   8.505   5.010
    1STR   O20929348   0.349   8.360   5.064
    1STR   C21029349   0.335   8.377   5.204
    1STR   H21129350   0.349   8.277   5.247
    1STR   C21229351   0.454   8.454   5.255
    1STR   H21329352   0.446   8.555   5.217
    1STR   H21429353   0.547   8.411   5.221
    1STR   H21529354   0.454   8.458   5.364
    1STR   C21629355   0.197   8.432   5.249
    1STR   H21729356   0.186   8.418   5.356
    1STR   H21829357   0.200   8.538   5.234
    1STR   O21929358   0.081   8.384   5.178
    1STR   C22029359   9.280   8.451   5.213
    1STR   H22129360   9.302   8.493   5.307
    1STR   C22229361   9.245   8.566   5.122
    1STR   H22329362   9.311   8.648   5.131
    1STR   H22429363   9.151   8.610   5.149
    1STR   H22529364   9.249   8.544   5.017
    1STR   C22629365   9.158   8.363   5.245
    1STR   H22729366   9.065   8.420   5.242
    1STR   H22829367   9.143   8.284   5.173
    1STR   O22929368   9.179   8.308   5.374
    1STR   C23029369   9.132   8.389   5.480
    1STR   H23129370   9.110   8.489   5.446
    1STR   C23229371   9.003   8.325   5.531
    1STR   H23329372   9.021   8.223   5.565
    1STR   H23429373   8.928   8.321   5.452
    1STR   H23529374   8.961   8.382   5.614
    1STR   C23629375   9.243   8.393   5.586
    1STR   H23729376   9.204   8.424   5.683
    1STR   H23829377   9.281   8.292   5.602
    1STR   O23929378   0.034   8.474   5.549
    1STR   C24029379   0.018   8.614   5.525
    1STR   H24129380   9.297   8.637   5.429
    1STR   C24229381   9.230   8.681   5.604
    1STR   H24329382   9.222   8.636   5.700
    1STR   H24429383   9.132   8.672   5.557
    1STR   H24529384   9.251   8.788   5.610
    1STR   C24629385   0.157   8.680   5.536
    1STR   H24729386   0.154   8.777   5.585
    1STR   H24829387   0.222   8.619   5.598
    1STR   O24929388   0.219   8.693   5.409
    1STR   C25029389   0.158   8.779   5.313
    1STR   H25129390   0.059   8.746   5.287
    1STR   C25229391   0.142   8.918   5.368
    1STR   H25329392   0.240   8.944   5.406
    1STR   H25429393   0.066   8.924   5.445
    1STR   H25529394   0.116   8.989   5.290
    1STR   C25629395   0.243   8.785   5.187
    1STR   H25729396   0.258   8.889   5.157
    1STR   H25829397   0.339   8.739   5.205
    1STR   O25929398   0.189   8.712   5.082
    1STR   C26029399   0.214   8.764   4.955
    1STR   H26129400   0.168   8.858   4.965
    1STR   C26229401   0.363   8.793   4.931
    1STR   H26329402   0.426   8.728   4.988
    1STR   H26429403   0.390   8.892   4.966
    1STR   H26529404   0.393   8.787   4.827
    1STR   C26629405   0.132   8.699   4.843
    1STR   H26729406   0.090   8.608   4.880
    1STR   H26829407   0.042   8.751   4.818
    1STR   O26929408   0.216   8.683   4.730
    1STR   C27029409   0.162   8.651   4.603
    1STR   H27129410   0.146   8.738   4.556
    1STR   C27229411   0.269   8.593   4.514
    1STR   H27329412   0.273   8.490   4.542
    1STR   H27429413   0.365   8.638   4.531
    1STR   H27529414   0.244   8.605   4.408
    1STR   C27629415   0.026   8.592   4.578
    1STR   H27729416   0.015   8.585   4.472
    1STR   H27829417   0.033   8.492   4.607
    1STR   O27929418   9.235   8.658   4.639
    1STR   C28029419   9.105   8.632   4.586
    1STR   H28129420   9.094   8.737   4.566
    1STR   C28229421   9.091   8.579   4.444
    1STR   H28329422   8.988   8.565   4.411
    1STR   H28429423   9.146   8.488   4.426
    1STR   H28529424   9.126   8.658   4.380
    1STR   C28629425   8.988   8.568   4.673
    1STR   H28729426   8.906   8.557   4.604
    1STR   H28829427   8.993   8.468   4.702
    1STR   O28929428   8.924   8.625   4.785
    1STR   C29029429   8.987   8.630   4.908
    1STR   H29129430   9.068   8.564   4.918
    1STR   C29229431   9.058   8.762   4.907
    1STR   H29329432   9.117   8.775   4.817
    1STR   H29429433   9.132   8.761   4.986
    1STR   H29529434   8.991   8.848   4.914
    1STR   C29629435   8.883   8.590   5.014
    1STR   H29729436   8.786   8.635   4.996
    1STR   H29829437   8.863   8.483   5.001
    1STR   O29929438   8.929   8.608   5.146
    1STR   C30029439   8.840   8.670   5.235
    1STR   H30129440   8.787   8.752   5.185
    1STR   C30229441   8.739   8.565   5.283
    1STR   H30329442   8.790   8.480   5.328
    1STR   H30429443   8.679   8.527   5.200
    1STR   H30529444   8.670   8.607   5.356
    1STR   C30629445   8.922   8.732   5.351
    1STR   H30729446   8.858   8.796   5.409
    1STR   H30829447   8.952   8.651   5.418
    1STR   O30929448   9.042   8.802   5.315
    1STR    H1R29449   8.992   8.841   5.124
    1STR    H1S29450   8.955   9.079   5.147
    1STR    H1T29451   8.951   9.069   5.318
    1STR    H1U29452   8.836   8.976   5.227
    1STR    H1V29453   9.244   8.860   5.171
    1STR    H1W29454   9.213   9.021   5.228
    1STR    H1X29455   9.213   8.968   4.798
    1STR    H1Y29456   0.242   9.022   4.880
    1STR    H1Z29457   0.433   9.021   4.725
    1STR    H2029458   0.424   8.920   4.366
    1STR    H2129459   0.524   8.973   4.498
    1STR    H2229460   0.459   8.817   4.503
    1STR    H2329461   0.251   8.932   4.314
    1STR    H2729462   9.303   8.905   4.587
    1STR    H2829463   0.385   7.571   5.175
    1STR    H2929464   0.147   7.583   5.169
    1STR    H2A29465   9.255   7.445   5.137
    1STR    H2B29466   9.281   7.296   5.064
    1STR    H2C29467   9.231   7.417   4.962
    1STR   BCK129468   9.270   7.335   6.820
    1STR    O0329469   9.188   7.335   6.911
    1STR    N0429470   0.081   7.340   6.843
    1STR    C0529471   0.195   7.363   6.764
    1STR    C0629472   0.200   7.344   6.625
    1STR    C0729473   0.280   7.433   6.550
    1STR    N0829474   0.224   7.511   6.450
    1STR    C0929475   0.097   7.512   6.413
    1STR    O0A29476   0.023   7.416   6.416
    1STR    O0B29477   0.060   7.630   6.374
    1STR    C0C29478   9.243   7.665   6.381
    1STR    C0D29479   9.166   7.637   6.251
    1STR    C0E29480   9.156   7.616   6.498
    1STR    O0F29481   9.153   7.680   6.626
    1STR    C0G29482   9.239   7.651   6.734
    1STR    C0H29483   0.060   7.629   6.689
    1STR    C0I29484   9.226   7.746   6.851
    1STR    O0J29485   0.006   7.704   6.944
    1STR    C0K29486   0.379   8.711   6.524
    1STR    C0M29487   0.289   8.655   6.418
    1STR    C0N29488   0.301   8.748   6.651
    1STR    O0O29489   0.156   8.747   6.644
    1STR    C0P29490   0.089   8.799   6.751
    1STR    O0Q29491   0.145   8.838   6.852
    1STR    N0R29492   9.276   8.808   6.749
    1STR    C0S29493   9.173   8.758   6.669
    1STR    C0T29494   9.197   8.691   6.550
    1STR    C0U29495   9.091   8.642   6.473
    1STR    C0V29496   8.959   8.640   6.524
    1STR    C0W29497   8.854   8.559   6.450
    1STR    C0X29498   8.933   8.702   6.649
    1STR    N0Y29499   8.816   8.679   6.722
    1STR   BCK229500   8.686   8.684   6.691
    1STR    O1029501   8.601   8.628   6.759
    1STR    C1329502   9.040   8.764   6.717
    1STR    C1429503   0.394   7.491   6.608
    1STR    C1529504   0.406   7.487   6.747
    1STR    C1629505   0.302   7.432   6.824
    1STR    C1729506   0.297   7.464   6.969
    1STR    H1B29507   0.098   7.342   6.943
    1STR    H1C29508   0.121   7.288   6.579
    1STR    H1D29509   0.272   7.597   6.428
    1STR    H1E29510   9.262   7.769   6.390
    1STR    H1F29511   9.190   7.537   6.213
    1STR    H1G29512   9.058   7.640   6.261
    1STR    H1H29513   9.188   7.713   6.178
    1STR    H1I29514   9.154   7.510   6.499
    1STR    H1J29515   9.055   7.639   6.467
    1STR    H1K29516   9.203   7.563   6.782
    1STR    H1M29517   0.055   7.534   6.645
    1STR    H1N29518   0.132   7.623   6.769
    1STR    H1O29519   0.096   7.698   6.614
    1STR    H1P29520   9.231   7.849   6.822
    1STR    H1Q29521   9.125   7.741   6.890
    1STR   C01029522   9.274   7.687   7.073
    1STR   H01129523   9.230   7.782   7.093
    1STR   C01229524   9.165   7.575   7.076
    1STR   H01329525   9.207   7.480   7.105
    1STR   H01429526   9.113   7.558   6.983
    1STR   H01529527   9.085   7.594   7.145
    1STR   C01629528   0.064   7.652   7.174
    1STR   H01729529   0.014   7.657   7.269
    1STR   H01829530   0.092   7.550   7.152
    1STR   O01929531   0.187   7.724   7.186
    1STR   C02029532   0.262   7.687   7.305
    1STR   H02129533   0.194   7.673   7.389
    1STR   C02229534   0.337   7.560   7.285
    1STR   H02329535   0.411   7.568   7.206
    1STR   H02429536   0.265   7.486   7.258
    1STR   H02529537   0.388   7.531   7.376
    1STR   C02629538   0.359   7.797   7.348
    1STR   H02729539   0.347   7.872   7.274
    1STR   H02829540   0.328   7.839   7.444
    1STR   O02929541   0.497   7.764   7.354
    1STR   C03029542   0.579   7.848   7.272
    1STR   H03129543   0.545   7.951   7.265
    1STR   C03229544   0.716   7.849   7.341
    1STR   H03329545   0.759   7.750   7.349
    1STR   H03429546   0.706   7.884   7.444
    1STR   H03529547   0.787   7.913   7.289
    1STR   C03629548   0.585   7.788   7.132
    1STR   H03729549   0.673   7.821   7.077
    1STR   H03829550   0.599   7.686   7.161
    1STR   O03929551   0.466   7.783   7.052
    1STR   C04029552   0.452   7.873   6.942
    1STR   H04129553   0.457   7.974   6.982
    1STR   C04229554   0.556   7.850   6.832
    1STR   H04329555   0.543   7.752   6.788
    1STR   H04429556   0.659   7.860   6.866
    1STR   H04529557   0.543   7.922   6.751
    1STR   C04629558   0.311   7.852   6.884
    1STR   H04729559   0.299   7.747   6.856
    1STR   H04829560   0.240   7.867   6.965
    1STR   O04929561   0.279   7.934   6.768
    1STR   C05029562   0.139   7.941   6.743
    1STR   H05129563   0.110   7.843   6.770
    1STR   C05229564   0.071   8.034   6.842
    1STR   H05329565   0.130   8.123   6.853
    1STR   H05429566   0.061   7.987   6.940
    1STR   H05529567   9.291   8.059   6.809
    1STR   C05629568   0.084   7.960   6.598
    1STR   H05729569   0.079   8.065   6.573
    1STR   H05829570   0.154   7.912   6.528
    1STR   O05929571   9.277   7.892   6.581
    1STR   C06029572   9.158   7.955   6.532
    1STR   H06129573   9.185   8.054   6.560
    1STR   C06229574   9.140   7.967   6.380
    1STR   H06329575   9.099   7.877   6.334
    1STR   H06429576   9.231   7.997   6.328
    1STR   H06529577   9.061   8.037   6.358
    1STR   C06629578   9.018   7.905   6.592
    1STR   H06729579   8.939   7.973   6.561
    1STR   H06829580   8.986   7.816   6.541
    1STR   O06929581   9.006   7.886   6.736
    1STR   C07029582   8.883   7.827   6.785
    1STR   H07129583   8.800   7.870   6.730
    1STR   C07229584   8.878   7.679   6.757
    1STR   H07329585   8.951   7.633   6.823
    1STR   H07429586   8.900   7.654   6.654
    1STR   H07529587   8.781   7.636   6.783
    1STR   C07629588   8.853   7.848   6.937
    1STR   H07729589   8.827   7.953   6.954
    1STR   H07829590   8.762   7.794   6.959
    1STR   O07929591   8.955   7.807   7.032
    1STR   C08029592   8.920   7.830   7.170
    1STR   H08129593   8.869   7.924   7.174
    1STR   C08229594   8.812   7.736   7.218
    1STR   H08329595   8.833   7.634   7.189
    1STR   H08429596   8.718   7.769   7.176
    1STR   H08529597   8.800   7.739   7.326
    1STR   C08629598   9.035   7.826   7.277
    1STR   H08729599   8.994   7.854   7.372
    1STR   H08829600   9.070   7.726   7.293
    1STR   O08929601   9.149   7.907   7.253
    1STR   C09029602   9.238   7.943   7.359
    1STR   H09129603   9.207   8.042   7.393
    1STR   C09229604   9.239   7.849   7.481
    1STR   H09329605   9.259   7.747   7.452
    1STR   H09429606   9.145   7.852   7.536
    1STR   H09529607   9.318   7.875   7.551
    1STR   C09629608   0.058   7.955   7.296
    1STR   H09729609   0.121   7.885   7.347
    1STR   H09829610   0.054   7.928   7.191
    1STR   O09929611   0.125   8.078   7.311
    1STR   C10029612   0.239   8.095   7.226
    1STR   H10129613   0.260   8.007   7.166
    1STR   C10229614   0.203   8.195   7.122
    1STR   H10329615   0.117   8.162   7.065
    1STR   H10429616   0.284   8.210   7.051
    1STR   H10529617   0.175   8.290   7.166
    1STR   C10629618   0.363   8.146   7.302
    1STR   H10729619   0.448   8.155   7.234
    1STR   H10829620   0.343   8.246   7.336
    1STR   O10929621   0.397   8.062   7.410
    1STR   C11029622   0.474   8.112   7.519
    1STR   H11129623   0.492   8.023   7.580
    1STR   C11229624   0.612   8.167   7.477
    1STR   H11329625   0.606   8.256   7.415
    1STR   H11429626   0.667   8.095   7.418
    1STR   H11529627   0.672   8.192   7.564
    1STR   C11629628   0.390   8.207   7.604
    1STR   H11729629   0.425   8.209   7.707
    1STR   H11829630   0.401   8.309   7.567
    1STR   O11929631   0.256   8.159   7.598
    1STR   C12029632   0.153   8.256   7.601
    1STR   H12129633   0.169   8.317   7.690
    1STR   C12229634   0.154   8.342   7.476
    1STR   H12329635   0.246   8.396   7.461
    1STR   H12429636   0.076   8.415   7.480
    1STR   H12529637   0.132   8.289   7.385
    1STR   C12629638   0.017   8.187   7.605
    1STR   H12729639   9.269   8.227   7.530
    1STR   H12829640   0.034   8.084   7.576
    1STR   O12929641   9.276   8.202   7.731
    1STR   C13029642   9.177   8.103   7.756
    1STR   H13129643   9.213   8.007   7.721
    1STR   C13229644   9.169   8.099   7.909
    1STR   H13329645   9.137   8.195   7.950
    1STR   H13429646   9.268   8.078   7.951
    1STR   H13529647   9.101   8.022   7.944
    1STR   C13629648   9.040   8.128   7.691
    1STR   H13729649   8.974   8.047   7.722
    1STR   H13829650   8.998   8.222   7.728
    1STR   O13929651   9.044   8.133   7.548
    1STR   C14029652   8.923   8.112   7.473
    1STR   H14129653   8.905   8.006   7.462
    1STR   C14229654   8.798   8.164   7.548
    1STR   H14329655   8.812   8.263   7.589
    1STR   H14429656   8.771   8.098   7.630
    1STR   H14529657   8.712   8.167   7.481
    1STR   C14629658   8.942   8.178   7.333
    1STR   H14729659   8.852   8.230   7.302
    1STR   H14829660   9.021   8.250   7.346
    1STR   O14929661   8.980   8.101   7.220
    1STR   C15029662   9.042   8.174   7.114
    1STR   H15129663   8.998   8.270   7.118
    1STR   C15229664   9.191   8.181   7.143
    1STR   H15329665   9.238   8.087   7.113
    1STR   H15429666   9.216   8.198   7.246
    1STR   H15529667   9.239   8.259   7.086
    1STR   C15629668   9.026   8.128   6.967
    1STR   H15729669   9.113   8.170   6.917
    1STR   H15829670   9.040   8.021   6.957
    1STR   O15929671   8.910   8.183   6.902
    1STR   C16029672   8.895   8.172   6.759
    1STR   H16129673   8.858   8.073   6.743
    1STR   C16229674   8.784   8.260   6.705
    1STR   H16329675   8.813   8.365   6.700
    1STR   H16429676   8.694   8.251   6.766
    1STR   H16529677   8.758   8.230   6.604
    1STR   C16629678   9.026   8.188   6.678
    1STR   H16729679   9.101   8.256   6.707
    1STR   H16829680   9.082   8.104   6.714
    1STR   O16929681   9.010   8.197   6.535
    1STR   C17029682   9.092   8.292   6.466
    1STR   H17129683   9.058   8.388   6.504
    1STR   C17229684   9.245   8.284   6.486
    1STR   H17329685   9.291   8.209   6.422
    1STR   H17429686   9.277   8.260   6.587
    1STR   H17529687   9.292   8.379   6.462
    1STR   C17629688   9.065   8.288   6.315
    1STR   H17729689   9.126   8.212   6.265
    1STR   H17829690   8.960   8.267   6.294
    1STR   O17929691   9.099   8.416   6.266
    1STR   C18029692   9.158   8.424   6.139
    1STR   H18129693   9.143   8.334   6.080
    1STR   C18229694   9.078   8.538   6.075
    1STR   H18329695   9.098   8.634   6.122
    1STR   H18429696   8.971   8.519   6.083
    1STR   H18529697   9.101   8.545   5.969
    1STR   C18629698   9.308   8.454   6.159
    1STR   H18729699   0.016   8.542   6.103
    1STR   H18829700   0.011   8.477   6.263
    1STR   O18929701   0.063   8.342   6.113
    1STR   C19029702   0.206   8.347   6.123
    1STR   H19129703   0.239   8.258   6.070
    1STR   C19229704   0.269   8.468   6.054
    1STR   H19329705   0.248   8.561   6.106
    1STR   H19429706   0.235   8.476   5.950
    1STR   H19529707   0.378   8.458   6.051
    1STR   C19629708   0.255   8.333   6.268
    1STR   H19729709   0.285   8.428   6.308
    1STR   H19829710   0.175   8.294   6.330
    1STR   O19929711   0.370   8.250   6.271
    1STR   C20029712   0.420   8.224   6.402
    1STR   H20129713   0.433   8.316   6.459
    1STR   C20229714   0.319   8.135   6.475
    1STR   H20329715   0.278   8.059   6.408
    1STR   H20429716   0.238   8.196   6.515
    1STR   H20529717   0.362   8.085   6.561
    1STR   C20629718   0.556   8.155   6.388
    1STR   H20729719   0.564   8.069   6.455
    1STR   H20829720   0.566   8.114   6.287
    1STR   O20929721   0.660   8.249   6.409
    1STR   C21029722   0.731   8.232   6.532
    1STR   H21129723   0.758   8.127   6.545
    1STR   C21229724   0.862   8.311   6.517
    1STR   H21329725   0.842   8.417   6.504
    1STR   H21429726   0.918   8.277   6.430
    1STR   H21529727   0.925   8.300   6.605
    1STR   C21629728   0.652   8.278   6.655
    1STR   H21729729   0.720   8.279   6.739
    1STR   H21829730   0.616   8.380   6.642
    1STR   O21929731   0.543   8.190   6.680
    1STR   C22029732   0.469   8.208   6.801
    1STR   H22129733   0.402   8.124   6.807
    1STR   C22229734   0.563   8.199   6.923
    1STR   H22329735   0.621   8.290   6.936
    1STR   H22429736   0.632   8.116   6.913
    1STR   H22529737   0.506   8.185   7.014
    1STR   C22629738   0.378   8.332   6.804
    1STR   H22729739   0.388   8.375   6.904
    1STR   H22829740   0.410   8.407   6.732
    1STR   O22929741   0.239   8.307   6.780
    1STR   C23029742   0.150   8.388   6.859
    1STR   H23129743   0.158   8.367   6.964
    1STR   C23229744   0.188   8.531   6.843
    1STR   H23329745   0.196   8.540   6.736
    1STR   H23429746   0.278   8.560   6.896
    1STR   H23529747   0.108   8.594   6.878
    1STR   C23629748   0.003   8.378   6.820
    1STR   H23729749   9.308   8.431   6.726
    1STR   H23829750   9.296   8.275   6.806
    1STR   O23929751   9.240   8.428   6.926
    1STR   C24029752   9.141   8.526   6.896
    1STR   H24129753   9.189   8.619   6.873
    1STR   C24229754   9.054   8.467   6.792
    1STR   H24329755   9.025   8.374   6.836
    1STR   H24429756   9.100   8.462   6.694
    1STR   H24529757   8.957   8.506   6.782
    1STR   C24629758   9.045   8.543   7.012
    1STR   H24729759   9.032   8.441   7.036
    1STR   H24829760   9.090   8.591   7.096
    1STR   O24929761   8.915   8.600   6.988
    1STR   C25029762   8.805   8.545   7.063
    1STR   H25129763   8.725   8.618   7.057
    1STR   C25229764   8.743   8.425   6.994
    1STR   H25329765   8.798   8.336   7.020
    1STR   H25429766   8.741   8.441   6.887
    1STR   H25529767   8.641   8.409   7.027
    1STR   C25629768   8.826   8.516   7.212
    1STR   H25729769   8.813   8.605   7.271
    1STR   H25829770   8.747   8.449   7.248
    1STR   O25929771   8.951   8.453   7.237
    1STR   C26029772   9.036   8.508   7.334
    1STR   H26129773   9.038   8.614   7.327
    1STR   C26229774   8.957   8.468   7.458
    1STR   H26329775   8.883   8.392   7.440
    1STR   H26429776   8.893   8.551   7.485
    1STR   H26529777   9.019   8.431   7.539
    1STR   C26629778   9.188   8.466   7.329
    1STR   H26729779   9.242   8.524   7.400
    1STR   H26829780   9.198   8.365   7.368
    1STR   O26929781   9.262   8.471   7.205
    1STR   C27029782   0.040   8.573   7.170
    1STR   H27129783   0.062   8.546   7.069
    1STR   C27229784   9.302   8.715   7.158
    1STR   H27329785   9.246   8.744   7.247
    1STR   H27429786   9.239   8.729   7.071
    1STR   H27529787   0.059   8.791   7.143
    1STR   C27629788   0.183   8.575   7.231
    1STR   H27729789   0.216   8.677   7.217
    1STR   H27829790   0.176   8.559   7.337
    1STR   O27929791   0.291   8.500   7.171
    1STR   C28029792   0.423   8.548   7.207
    1STR   H28129793   0.427   8.657   7.203
    1STR   C28229794   0.463   8.507   7.348
    1STR   H28329795   0.479   8.401   7.353
    1STR   H28429796   0.390   8.529   7.422
    1STR   H28529797   0.555   8.556   7.380
    1STR   C28629798   0.535   8.491   7.119
    1STR   H28729799   0.631   8.508   7.166
    1STR   H28829800   0.523   8.383   7.117
    1STR   O28929801   0.535   8.539   6.986
    1STR   C29029802   0.653   8.605   6.939
    1STR   H29129803   0.672   8.697   6.994
    1STR   C29229804   0.780   8.521   6.945
    1STR   H29329805   0.774   8.432   6.884
    1STR   H29429806   0.804   8.494   7.047
    1STR   H29529807   0.864   8.579   6.908
    1STR   C29629808   0.615   8.638   6.795
    1STR   H29729809   0.559   8.554   6.758
    1STR   H29829810   0.548   8.723   6.793
    1STR   O29929811   0.725   8.659   6.708
    1STR   C30029812   0.691   8.714   6.582
    1STR   H30129813   0.640   8.809   6.598
    1STR   C30229814   0.826   8.740   6.514
    1STR   H30329815   0.814   8.794   6.420
    1STR   H30429816   0.879   8.647   6.494
    1STR   H30529817   0.890   8.800   6.578
    1STR   C30629818   0.600   8.625   6.494
    1STR   H30729819   0.591   8.665   6.393
    1STR   H30829820   0.645   8.526   6.481
    1STR   O30929821   0.471   8.607   6.552
    1STR    H1R29822   0.428   8.801   6.488
    1STR    H1S29823   0.343   8.635   6.326
    1STR    H1T29824   0.215   8.730   6.399
    1STR    H1U29825   0.237   8.567   6.455
    1STR    H1V29826   0.335   8.846   6.679
    1STR    H1W29827   0.338   8.688   6.732
    1STR    H1X29828   9.246   8.869   6.826
    1STR    H1Y29829   9.299   8.678   6.518
    1STR    H1Z29830   9.114   8.601   6.378
    1STR    H2029831   8.791   8.504   6.520
    1STR    H2129832   8.790   8.622   6.388
    1STR    H2229833   8.898   8.486   6.383
    1STR    H2329834   8.834   8.643   6.816
    1STR    H2729835   9.022   8.806   6.814
    1STR    H2829836   0.462   7.554   6.552
    1STR    H2929837   0.487   7.538   6.794
    1STR    H2A29838   0.217   7.535   6.985
    1STR    H2B29839   0.388   7.507   7.006
    1STR    H2C29840   0.280   7.372   7.022
    1STR   BCK129841   1.940   0.480   9.245
    1STR    O0329842   2.051   0.435   9.244
    1STR    N0429843   1.875   0.525   0.031
    1STR    C0529844   1.867   0.504   0.166
    1STR    C0629845   1.946   0.412   0.234
    1STR    C0729846   1.924   0.393   0.371
    1STR    N0829847   2.020   0.324   0.440
    1STR    C0929848   2.069   0.376   0.550
    1STR    O0A29849   2.007   0.425   0.644
    1STR    O0B29850   2.195   0.385   0.530
    1STR    C0C29851   2.249   0.513   0.522
    1STR    C0D29852   2.345   0.529   0.638
    1STR    C0E29853   2.326   0.510   0.393
    1STR    O0F29854   2.247   0.453   0.291
    1STR    C0G29855   2.250   0.514   0.165
    1STR    C0H29856   2.156   0.631   0.170
    1STR    C0I29857   2.389   0.541   0.105
    1STR    O0J29858   2.397   0.521   9.285
    1STR    C0K29859   1.617   1.543   8.874
    1STR    C0M29860   1.590   1.453   8.752
    1STR    C0N29861   1.551   1.485   9.000
    1STR    O0O29862   1.594   1.546   9.121
    1STR    C0P29863   1.557   1.670   9.147
    1STR    O0Q29864   1.527   1.755   9.065
    1STR    N0R29865   1.533   1.690   9.275
    1STR    C0S29866   1.626   1.692   0.056
    1STR    C0T29867   1.597   1.649   0.187
    1STR    C0U29868   1.676   1.692   0.294
    1STR    C0V29869   1.788   1.773   0.271
    1STR    C0W29870   1.859   1.830   0.390
    1STR    C0X29871   1.828   1.800   0.137
    1STR    N0Y29872   1.944   1.866   0.098
    1STR   BCK229873   2.007   1.830   9.305
    1STR    O1029874   1.995   1.722   9.253
    1STR    C1329875   1.740   1.765   0.034
    1STR    C1429876   1.814   0.454   0.436
    1STR    C1529877   1.733   0.542   0.365
    1STR    C1629878   1.762   0.571   0.231
    1STR    C1729879   1.683   0.679   0.161
    1STR    H1B29880   1.800   0.585   0.003
    1STR    H1C29881   2.024   0.360   0.182
    1STR    H1D29882   2.098   0.292   0.385
    1STR    H1E29883   2.172   0.590   0.517
    1STR    H1F29884   2.403   0.440   0.651
    1STR    H1G29885   2.418   0.603   0.612
    1STR    H1H29886   2.294   0.553   0.732
    1STR    H1I29887   2.405   0.442   0.415
    1STR    H1J29888   2.371   0.606   0.370
    1STR    H1K29889   2.203   0.441   0.102
    1STR    H1M29890   2.113   0.651   0.268
    1STR    H1N29891   2.077   0.617   0.101
    1STR    H1O29892   2.198   0.718   0.129
    1STR    H1P29893   2.430   0.635   0.135
    1STR    H1Q29894   2.456   0.468   0.146
    1STR   C01029895   2.356   0.624   9.196
    1STR   H01129896   2.274   0.674   9.242
    1STR   C01229897   2.466   0.727   9.174
    1STR   H01329898   2.537   0.696   9.098
    1STR   H01429899   2.519   0.748   9.267
    1STR   H01529900   2.425   0.823   9.143
    1STR   C01629901   2.309   0.548   9.070
    1STR   H01729902   2.356   0.451   9.077
    1STR   H01829903   2.206   0.520   9.083
    1STR   O01929904   2.337   0.593   8.936
    1STR   C02029905   2.307   0.726   8.894
    1STR   H02129906   2.298   0.785   8.983
    1STR   C02229907   2.431   0.773   8.817
    1STR   H02329908   2.448   0.712   8.728
    1STR   H02429909   2.521   0.766   8.878
    1STR   H02529910   2.421   0.876   8.784
    1STR   C02629911   2.178   0.743   8.810
    1STR   H02729912   2.155   0.654   8.751
    1STR   H02829913   2.099   0.759   8.880
    1STR   O02929914   2.179   0.859   8.728
    1STR   C03029915   2.057   0.906   8.669
    1STR   H03129916   2.091   0.997   8.618
    1STR   C03229917   2.001   0.817   8.557
    1STR   H03329918   1.961   0.724   8.596
    1STR   H03429919   2.077   0.797   8.482
    1STR   H03529920   1.919   0.867   8.506
    1STR   C03629921   1.946   0.953   8.765
    1STR   H03729922   1.989   1.021   8.839
    1STR   H03829923   1.875   1.013   8.708
    1STR   O03929924   1.876   0.846   8.828
    1STR   C04029925   1.753   0.883   8.892
    1STR   H04129926   1.751   0.991   8.905
    1STR   C04229927   1.636   0.847   8.799
    1STR   H04329928   1.625   0.739   8.787
    1STR   H04429929   1.650   0.890   8.700
    1STR   H04529930   1.542   0.884   8.839
    1STR   C04629931   1.739   0.818   9.032
    1STR   H04729932   1.643   0.847   9.073
    1STR   H04829933   1.729   0.711   9.023
    1STR   O04929934   1.850   0.863   9.112
    1STR   C05029935   1.904   0.802   9.230
    1STR   H05129936   1.834   0.722   9.241
    1STR   C05229937   2.044   0.761   9.189
    1STR   H05329938   2.084   0.821   9.109
    1STR   H05429939   2.065   0.662   9.161
    1STR   H05529940   2.106   0.773   9.275
    1STR   C05629941   1.924   0.882   0.047
    1STR   H05729942   2.012   0.943   0.041
    1STR   H05829943   1.850   0.957   0.058
    1STR   O05929944   1.930   0.815   0.174
    1STR   C06029945   1.909   0.902   0.287
    1STR   H06129946   1.977   0.987   0.279
    1STR   C06229947   1.766   0.961   0.288
    1STR   H06329948   1.705   0.928   0.372
    1STR   H06429949   1.707   0.944   0.200
    1STR   H06529950   1.778   1.066   0.295
    1STR   C06629951   1.928   0.839   0.427
    1STR   H06729952   1.877   0.904   0.497
    1STR   H06829953   1.879   0.742   0.433
    1STR   O06929954   2.060   0.824   0.476
    1STR   C07029955   2.075   0.853   0.616
    1STR   H07129956   2.049   0.957   0.634
    1STR   C07229957   1.987   0.762   0.702
    1STR   H07329958   2.011   0.658   0.684
    1STR   H07429959   1.880   0.775   0.683
    1STR   H07529960   2.003   0.782   0.808
    1STR   C07629961   2.223   0.834   0.652
    1STR   H07729962   2.234   0.776   0.743
    1STR   H07829963   2.270   0.779   0.571
    1STR   O07929964   2.290   0.958   0.666
    1STR   C08029965   2.423   0.954   0.716
    1STR   H08129966   2.472   1.043   0.679
    1STR   C08229967   2.418   0.965   0.869
    1STR   H08329968   2.370   0.878   0.914
    1STR   H08429969   2.363   1.053   0.899
    1STR   H08529970   2.519   0.973   0.910
    1STR   C08629971   2.509   0.834   0.673
    1STR   H08729972   2.612   0.848   0.705
    1STR   H08829973   2.479   0.750   0.734
    1STR   O08929974   2.499   0.800   0.533
    1STR   C09029975   2.567   0.886   0.443
    1STR   H09129976   2.528   0.985   0.459
    1STR   C09229977   2.716   0.877   0.482
    1STR   H09329978   2.744   0.776   0.509
    1STR   H09429979   2.742   0.942   0.566
    1STR   H09529980   2.779   0.907   0.400
    1STR   C09629981   2.543   0.852   0.292
    1STR   H09729982   2.639   0.848   0.244
    1STR   H09829983   2.505   0.752   0.285
    1STR   O09929984   2.472   0.947   0.209
    1STR   C10029985   2.345   0.906   0.158
    1STR   H10129986   2.366   0.820   0.097
    1STR   C10229987   2.271   0.882   0.288
    1STR   H10329988   2.305   0.952   0.363
    1STR   H10429989   2.288   0.786   0.332
    1STR   H10529990   2.164   0.892   0.274
    1STR   C10629991   2.265   1.002   0.064
    1STR   H10729992   2.176   1.035   0.113
    1STR   H10829993   2.324   1.089   0.056
    1STR   O10929994   2.222   0.959   9.253
    1STR   C11029995   2.166   1.059   9.164
    1STR   H11129996   2.202   1.151   9.202
    1STR   C11229997   2.232   1.029   9.030
    1STR   H11329998   2.181   0.951   8.976
    1STR   H11429999   2.338   1.003   9.036
    1STR   H11530000   2.221   1.112   8.963
    1STR   C11630001   2.013   1.085   9.130
    1STR   H11730002   2.005   1.169   9.064
    1STR   H11830003   1.987   1.012   9.056
    1STR   O11930004   1.909   1.109   9.229
    1STR   C12030005   1.770   1.118   9.187
    1STR   H12130006   1.765   1.105   9.079
    1STR   C12230007   1.663   1.026   9.254
    1STR   H12330008   1.647   1.055   0.037
    1STR   H12430009   1.682   0.920   9.261
    1STR   H12530010   1.567   1.036   9.204
    1STR   C12630011   1.723   1.258   9.220
    1STR   H12730012   1.797   1.302   9.282
    1STR   H12830013   1.716   1.314   9.129
    1STR   O12930014   1.598   1.263   9.285
    1STR   C13030015   1.590   1.346   0.079
    1STR   H13130016   1.649   1.436   0.061
    1STR   C13230017   1.440   1.375   0.069
    1STR   H13330018   1.384   1.282   0.057
    1STR   H13430019   1.422   1.436   9.300
    1STR   H13530020   1.399   1.425   0.155
    1STR   C13630021   1.626   1.286   0.218
    1STR   H13730022   1.573   1.345   0.292
    1STR   H13830023   1.586   1.184   0.226
    1STR   O13930024   1.764   1.286   0.256
    1STR   C14030025   1.793   1.301   0.398
    1STR   H14130026   1.763   1.404   0.418
    1STR   C14230027   1.714   1.214   0.497
    1STR   H14330028   1.609   1.202   0.471
    1STR   H14430029   1.719   1.258   0.597
    1STR   H14530030   1.758   1.115   0.508
    1STR   C14630031   1.946   1.295   0.426
    1STR   H14730032   1.987   1.322   0.330
    1STR   H14830033   1.973   1.371   0.500
    1STR   O14930034   2.011   1.176   0.469
    1STR   C15030035   2.154   1.163   0.441
    1STR   H15130036   2.163   1.056   0.453
    1STR   C15230037   2.192   1.204   0.300
    1STR   H15330038   2.215   1.310   0.296
    1STR   H15430039   2.112   1.183   0.229
    1STR   H15530040   2.285   1.157   0.269
    1STR   C15630041   2.266   1.224   0.529
    1STR   H15730042   2.265   1.333   0.520
    1STR   H15830043   2.250   1.200   0.634
    1STR   O15930044   2.395   1.169   0.487
    1STR   C16030045   2.506   1.258   0.468
    1STR   H16130046   2.472   1.332   0.396
    1STR   C16230047   2.536   1.321   0.606
    1STR   H16330048   2.567   1.244   0.676
    1STR   H16430049   2.450   1.372   0.649
    1STR   H16530050   2.617   1.393   0.602
    1STR   C16630051   2.644   1.201   0.414
    1STR   H16730052   2.708   1.285   0.392
    1STR   H16830053   2.694   1.148   0.494
    1STR   O16930054   2.651   1.115   0.298
    1STR   C17030055   2.769   1.123   0.217
    1STR   H17130056   2.759   1.222   0.182
    1STR   C17230057   2.905   1.104   0.290
    1STR   H17330058   2.932   0.999   0.297
    1STR   H17430059   2.906   1.147   0.390
    1STR   H17530060   2.984   1.151   0.232
    1STR   C17630061   2.771   1.041   0.086
    1STR   H17730062   2.868   0.995   0.080
    1STR   H17830063   2.696   0.962   0.084
    1STR   O17930064   2.774   1.115   9.286
    1STR   C18030065   2.671   1.089   9.191
    1STR   H18130066   2.673   1.174   9.127
    1STR   C18230067   2.697   0.970   9.100
    1STR   H18330068   2.687   0.878   9.157
    1STR   H18430069   2.797   0.975   9.057
    1STR   H18530070   2.626   0.963   9.019
    1STR   C18630071   2.533   1.089   9.252
    1STR   H18730072   2.455   1.106   9.178
    1STR   H18830073   2.513   0.990   9.293
    1STR   O18930074   2.527   1.185   0.036
    1STR   C19030075   2.484   1.311   9.310
    1STR   H19130076   2.507   1.321   9.205
    1STR   C19230077   2.338   1.332   9.317
    1STR   H19330078   2.285   1.281   0.075
    1STR   H19430079   2.308   1.305   9.219
    1STR   H19530080   2.307   1.434   0.001
    1STR   C19630081   2.552   1.424   0.057
    1STR   H19730082   2.628   1.452   9.307
    1STR   H19830083   2.486   1.507   0.060
    1STR   O19930084   2.600   1.403   0.187
    1STR   C20030085   2.694   1.503   0.217
    1STR   H20130086   2.672   1.595   0.166
    1STR   C20230087   2.660   1.545   0.361
    1STR   H20330088   2.716   1.492   0.436
    1STR   H20430089   2.554   1.530   0.382
    1STR   H20530090   2.673   1.652   0.377
    1STR   C20630091   2.835   1.453   0.169
    1STR   H20730092   2.910   1.529   0.162
    1STR   H20830093   2.873   1.386   0.245
    1STR   O20930094   2.828   1.378   0.044
    1STR   C21030095   2.882   1.430   9.243
    1STR   H21130096   2.871   1.536   9.246
    1STR   C21230097   3.030   1.392   9.251
    1STR   H21330098   3.040   1.283   9.255
    1STR   H21430099   3.077   1.432   0.021
    1STR   H21530100   3.086   1.429   9.165
    1STR   C21630101   2.819   1.379   9.107
    1STR   H21730102   2.874   1.433   9.030
    1STR   H21830103   2.847   1.275   9.092
    1STR   O21930104   2.677   1.400   9.082
    1STR   C22030105   2.613   1.369   8.954
    1STR   H22130106   2.551   1.455   8.934
    1STR   C22230107   2.715   1.357   8.839
    1STR   H22330108   2.777   1.267   8.851
    1STR   H22430109   2.780   1.444   8.835
    1STR   H22530110   2.665   1.350   8.743
    1STR   C22630111   2.503   1.258   8.938
    1STR   H22730112   2.490   1.238   8.832
    1STR   H22830113   2.538   1.162   8.973
    1STR   O22930114   2.373   1.280   8.995
    1STR   C23030115   2.275   1.353   8.919
    1STR   H23130116   2.322   1.448   8.910
    1STR   C23230117   2.250   1.301   8.776
    1STR   H23330118   2.226   1.195   8.771
    1STR   H23430119   2.335   1.318   8.710
    1STR   H23530120   2.166   1.353   8.729
    1STR   C23630121   2.138   1.382   8.989
    1STR   H23730122   2.113   1.486   8.975
    1STR   H23830123   2.062   1.328   8.934
    1STR   O23930124   2.119   1.350   9.125
    1STR   C24030125   2.047   1.440   9.210
    1STR   H24130126   2.114   1.525   9.219
    1STR   C24230127   1.917   1.483   9.144
    1STR   H24330128   1.881   1.409   9.075
    1STR   H24430129   1.933   1.572   9.086
    1STR   H24530130   1.840   1.513   9.215
    1STR   C24630131   2.021   1.381   0.032
    1STR   H24730132   1.923   1.403   0.071
    1STR   H24830133   2.032   1.273   0.031
    1STR   O24930134   2.104   1.431   0.134
    1STR   C25030135   2.071   1.560   0.179
    1STR   H25130136   1.988   1.601   0.125
    1STR   C25230137   2.031   1.558   0.325
    1STR   H25330138   2.102   1.501   0.385
    1STR   H25430139   1.928   1.527   0.335
    1STR   H25530140   2.032   1.656   0.368
    1STR   C25630141   2.195   1.644   0.166
    1STR   H25730142   2.167   1.745   0.193
    1STR   H25830143   2.262   1.605   0.242
    1STR   O25930144   2.254   1.642   0.037
    1STR   C26030145   2.364   1.728   0.017
    1STR   H26130146   2.315   1.821   9.314
    1STR   C26230147   2.445   1.739   0.150
    1STR   H26330148   2.463   1.646   0.200
    1STR   H26430149   2.393   1.796   0.225
    1STR   H26530150   2.540   1.786   0.142
    1STR   C26630151   2.434   1.695   9.202
    1STR   H26730152   2.483   1.598   9.193
    1STR   H26830153   2.352   1.684   9.133
    1STR   O26930154   2.513   1.801   9.148
    1STR   C27030155   2.656   1.789   9.148
    1STR   H27130156   2.697   1.888   9.155
    1STR   C27230157   2.709   1.742   9.277
    1STR   H27330158   2.696   1.818   0.033
    1STR   H27430159   2.814   1.727   9.269
    1STR   H27530160   2.664   1.649   9.301
    1STR   C27630161   2.727   1.720   9.031
    1STR   H27730162   2.792   1.788   8.978
    1STR   H27830163   2.793   1.642   9.068
    1STR   O27930164   2.643   1.654   8.941
    1STR   C28030165   2.616   1.721   8.822
    1STR   H28130166   2.596   1.823   8.848
    1STR   C28230167   2.733   1.707   8.724
    1STR   H28330168   2.739   1.605   8.686
    1STR   H28430169   2.829   1.729   8.771
    1STR   H28530170   2.723   1.773   8.639
    1STR   C28630171   2.484   1.665   8.770
    1STR   H28730172   2.441   1.732   8.697
    1STR   H28830173   2.499   1.569   8.723
    1STR   O28930174   2.402   1.647   8.884
    1STR   C29030175   2.269   1.695   8.883
    1STR   H29130176   2.220   1.656   8.971
    1STR   C29230177   2.283   1.844   8.907
    1STR   H29330178   2.276   1.904   8.818
    1STR   H29430179   2.379   1.863   8.954
    1STR   H29530180   2.214   1.877   8.982
    1STR   C29630181   2.197   1.650   8.754
    1STR   H29730182   2.206   1.730   8.685
    1STR   H29830183   2.258   1.573   8.707
    1STR   O29930184   2.070   1.585   8.758
    1STR   C30030185   1.958   1.640   8.825
    1STR   H30130186   1.988   1.675   8.923
    1STR   C30230187   1.887   1.755   8.755
    1STR   H30330188   1.843   1.724   8.660
    1STR   H30430189   1.956   1.835   8.739
    1STR   H30530190   1.803   1.792   8.815
    1STR   C30630191   1.856   1.527   8.825
    1STR   H30730192   1.828   1.508   8.722
    1STR   H30830193   1.896   1.433   8.861
    1STR   O30930194   1.751   1.567   8.910
    1STR    H1R30195   1.577   1.642   8.853
    1STR    H1S30196   1.484   1.428   8.744
    1STR    H1T30197   1.645   1.359   8.759
    1STR    H1U30198   1.617   1.503   8.659
    1STR    H1V30199   1.569   1.379   9.005
    1STR    H1W30200   1.443   1.493   8.992
    1STR    H1X30201   1.471   1.770   9.280
    1STR    H1Y30202   1.509   1.592   0.209
    1STR    H1Z30203   1.647   1.669   0.396
    1STR    H2030204   1.959   1.846   0.359
    1STR    H2130205   1.817   1.924   0.425
    1STR    H2230206   1.860   1.761   0.475
    1STR    H2330207   1.969   1.954   0.145
    1STR    H2730208   1.760   1.798   9.253
    1STR    H2830209   1.794   0.438   0.541
    1STR    H2930210   1.652   0.590   0.418
    1STR    H2A30211   1.737   0.737   0.091
    1STR    H2B30212   1.660   0.748   0.238
    1STR    H2C30213   1.595   0.654   0.104
    1STR   BCK130214   2.738   0.347   1.744
    1STR    O0330215   2.835   0.382   1.677
    1STR    N0430216   2.722   0.358   1.875
    1STR    C0530217   2.794   0.433   1.966
    1STR    C0630218   2.905   0.513   1.930
    1STR    C0730219   2.973   0.590   2.027
    1STR    N0830220   3.069   0.684   1.991
    1STR    C0930221   3.057   0.779   1.897
    1STR    O0A30222   3.144   0.864   1.883
    1STR    O0B30223   2.944   0.769   1.820
    1STR    C0C30224   2.920   0.859   1.712
    1STR    C0D30225   3.017   0.826   1.597
    1STR    C0E30226   2.775   0.844   1.661
    1STR    O0F30227   2.678   0.874   1.762
    1STR    C0G30228   2.579   0.774   1.780
    1STR    C0H30229   2.641   0.656   1.850
    1STR    C0I30230   2.469   0.825   1.871
    1STR    O0J30231   2.369   0.730   1.902
    1STR    C0K30232   2.773   1.738   2.487
    1STR    C0M30233   2.828   1.627   2.399
    1STR    C0N30234   2.649   1.808   2.428
    1STR    O0O30235   2.645   1.830   2.284
    1STR    C0P30236   2.563   1.929   2.239
    1STR    O0Q30237   2.509   2.007   2.314
    1STR    N0R30238   2.528   1.941   2.111
    1STR    C0S30239   2.536   1.862   1.997
    1STR    C0T30240   2.648   1.875   1.920
    1STR    C0U30241   2.662   1.815   1.795
    1STR    C0V30242   2.554   1.746   1.739
    1STR    C0W30243   2.556   1.716   1.591
    1STR    C0X30244   2.437   1.729   1.814
    1STR    N0Y30245   2.332   1.671   1.746
    1STR   BCK230246   2.209   1.719   1.741
    1STR    O1030247   2.170   1.803   1.817
    1STR    C1330248   2.428   1.789   1.942
    1STR    C1430249   2.941   0.568   2.162
    1STR    C1530250   2.823   0.502   2.198
    1STR    C1630251   2.748   0.437   2.099
    1STR    C1730252   2.620   0.370   2.139
    1STR    H1B30253   2.636   0.317   1.908
    1STR    H1C30254   2.938   0.523   1.828
    1STR    H1D30255   3.146   0.700   2.053
    1STR    H1E30256   2.935   0.961   1.747
    1STR    H1F30257   3.008   0.722   1.567
    1STR    H1G30258   2.997   0.888   1.509
    1STR    H1H30259   3.120   0.843   1.626
    1STR    H1I30260   2.762   0.743   1.620
    1STR    H1J30261   2.757   0.912   1.578
    1STR    H1K30262   2.535   0.748   1.684
    1STR    H1M30263   2.721   0.615   1.790
    1STR    H1N30264   2.569   0.578   1.873
    1STR    H1O30265   2.684   0.683   1.946
    1STR    H1P30266   2.515   0.847   1.967
    1STR    H1Q30267   2.426   0.913   1.824
    1STR   C01030268   2.259   0.790   1.970
    1STR   H01130269   2.284   0.886   2.008
    1STR   C01230270   2.150   0.811   1.865
    1STR   H01330271   2.165   0.744   1.781
    1STR   H01430272   2.155   0.913   1.826
    1STR   H01530273   2.050   0.795   1.904
    1STR   C01630274   2.217   0.711   2.093
    1STR   H01730275   2.127   0.753   2.134
    1STR   H01830276   2.190   0.612   2.061
    1STR   O01930277   2.315   0.707   2.198
    1STR   C02030278   2.274   0.622   2.305
    1STR   H02130279   2.168   0.638   2.321
    1STR   C02230280   2.296   0.476   2.265
    1STR   H02330281   2.402   0.455   2.264
    1STR   H02430282   2.260   0.451   2.166
    1STR   H02530283   2.246   0.408   2.332
    1STR   C02630284   2.334   0.653   2.444
    1STR   H02730285   2.361   0.563   2.494
    1STR   H02830286   2.428   0.707   2.440
    1STR   O02930287   2.230   0.708   2.524
    1STR   C03030288   2.248   0.723   2.665
    1STR   H03130289   2.275   0.825   2.692
    1STR   C03230290   2.108   0.701   2.719
    1STR   H03330291   2.078   0.600   2.712
    1STR   H03430292   2.035   0.755   2.661
    1STR   H03530293   2.100   0.725   2.824
    1STR   C03630294   2.341   0.627   2.738
    1STR   H03730295   2.306   0.624   2.842
    1STR   H03830296   2.332   0.528   2.700
    1STR   O03930297   2.478   0.659   2.733
    1STR   C04030298   2.548   0.622   2.850
    1STR   H04130299   2.489   0.655   2.934
    1STR   C04230300   2.553   0.476   2.852
    1STR   H04330301   2.604   0.452   2.761
    1STR   H04430302   2.456   0.425   2.857
    1STR   H04530303   2.613   0.441   2.934
    1STR   C04630304   2.693   0.674   2.869
    1STR   H04730305   2.689   0.757   2.938
    1STR   H04830306   2.758   0.603   2.919
    1STR   O04930307   2.756   0.723   2.752
    1STR   C05030308   2.830   0.633   2.673
    1STR   H05130309   2.876   0.554   2.733
    1STR   C05230310   2.744   0.574   2.560
    1STR   H05330311   2.780   0.476   2.531
    1STR   H05430312   2.743   0.636   2.472
    1STR   H05530313   2.639   0.564   2.587
    1STR   C05630314   2.937   0.723   2.613
    1STR   H05730315   3.005   0.667   2.549
    1STR   H05830316   2.881   0.794   2.552
    1STR   O05930317   3.012   0.795   2.711
    1STR   C06030318   3.017   0.936   2.690
    1STR   H06130319   2.921   0.974   2.655
    1STR   C06230320   3.041   0.994   2.828
    1STR   H06330321   3.133   0.956   2.871
    1STR   H06430322   2.958   0.967   2.894
    1STR   H06530323   3.047   1.103   2.824
    1STR   C06630324   3.129   0.980   2.592
    1STR   H06730325   3.125   1.087   2.574
    1STR   H06830326   3.226   0.961   2.636
    1STR   O06930327   3.126   0.910   2.468
    1STR   C07030328   3.035   0.960   2.373
    1STR   H07130329   2.951   1.008   2.421
    1STR   C07230330   3.109   1.054   2.277
    1STR   H07330331   3.196   1.005   2.234
    1STR   H07430332   3.143   1.145   2.327
    1STR   H07530333   3.045   1.083   2.194
    1STR   C07630334   2.986   0.837   2.299
    1STR   H07730335   3.076   0.790   2.259
    1STR   H07830336   2.937   0.764   2.362
    1STR   O07930337   2.899   0.855   2.192
    1STR   C08030338   2.776   0.921   2.212
    1STR   H08130339   2.790   1.012   2.268
    1STR   C08230340   2.756   0.957   2.067
    1STR   H08330341   2.841   1.010   2.026
    1STR   H08430342   2.671   1.022   2.059
    1STR   H08530343   2.740   0.870   2.005
    1STR   C08630344   2.655   0.844   2.271
    1STR   H08730345   2.564   0.885   2.229
    1STR   H08830346   2.657   0.741   2.236
    1STR   O08930347   2.644   0.844   2.415
    1STR   C09030348   2.568   0.947   2.482
    1STR   H09130349   2.609   1.043   2.457
    1STR   C09230350   2.418   0.952   2.449
    1STR   H09330351   2.360   0.905   2.525
    1STR   H09430352   2.391   0.904   2.357
    1STR   H09530353   2.379   1.053   2.451
    1STR   C09630354   2.588   0.927   2.633
    1STR   H09730355   2.589   0.821   2.641
    1STR   H09830356   2.686   0.963   2.664
    1STR   O09930357   2.483   0.979   2.715
    1STR   C10030358   2.478   0.948   2.855
    1STR   H10130359   2.479   0.843   2.863
    1STR   C10230360   2.599   1.002   2.933
    1STR   H10330361   2.600   1.110   2.943
    1STR   H10430362   2.693   0.973   2.886
    1STR   H10530363   2.600   0.960   3.034
    1STR   C10630364   2.342   0.983   2.920
    1STR   H10730365   2.361   1.039   3.011
    1STR   H10830366   2.284   1.043   2.851
    1STR   O10930367   2.260   0.874   2.960
    1STR   C11030368   2.133   0.910   3.017
    1STR   H11130369   2.082   0.816   3.026
    1STR   C11230370   2.144   0.971   3.158
    1STR   H11330371   2.177   1.074   3.156
    1STR   H11430372   2.215   0.916   3.220
    1STR   H11530373   2.048   0.970   3.209
    1STR   C11630374   2.033   0.984   2.927
    1STR   H11730375   1.930   0.955   2.949
    1STR   H11830376   2.041   1.089   2.946
    1STR   O11930377   2.065   0.955   2.794
    1STR   C12030378   1.986   1.012   2.693
    1STR   H12130379   1.961   1.113   2.721
    1STR   C12230380   2.078   1.017   2.571
    1STR   H12330381   2.176   1.054   2.600
    1STR   H12430382   2.038   1.085   2.497
    1STR   H12530383   2.093   0.921   2.523
    1STR   C12630384   1.857   0.933   2.667
    1STR   H12730385   1.864   0.891   2.567
    1STR   H12830386   1.848   0.850   2.736
    1STR   O12930387   1.743   1.017   2.681
    1STR   C13030388   1.624   0.959   2.633
    1STR   H13130389   1.614   0.857   2.670
    1STR   C13230390   1.508   1.040   2.690
    1STR   H13330391   1.512   1.143   2.656
    1STR   H13430392   1.512   1.040   2.799
    1STR   H13530393   1.412   0.997   2.661
    1STR   C13630394   1.624   0.960   2.479
    1STR   H13730395   1.522   0.967   2.441
    1STR   H13830396   1.680   1.045   2.440
    1STR   O13930397   1.680   0.837   2.434
    1STR   C14030398   1.705   0.822   2.296
    1STR   H14130399   1.697   0.714   2.283
    1STR   C14230400   1.603   0.888   2.202
    1STR   H14330401   1.603   0.996   2.213
    1STR   H14430402   1.502   0.851   2.220
    1STR   H14530403   1.628   0.869   2.098
    1STR   C14630404   1.850   0.850   2.258
    1STR   H14730405   1.921   0.815   2.333
    1STR   H14830406   1.863   0.795   2.165
    1STR   O14930407   1.880   0.984   2.232
    1STR   C15030408   1.987   1.002   2.141
    1STR   H15130409   2.004   0.915   2.079
    1STR   C15230410   1.925   1.099   2.040
    1STR   H15330411   1.978   1.093   1.945
    1STR   H15430412   1.926   1.201   2.075
    1STR   H15530413   1.821   1.075   2.021
    1STR   C15630414   2.124   1.033   2.210
    1STR   H15730415   2.113   1.093   2.299
    1STR   H15830416   2.167   0.941   2.248
    1STR   O15930417   2.216   1.099   2.121
    1STR   C16030418   2.357   1.083   2.140
    1STR   H16130419   2.378   0.982   2.172
    1STR   C16230420   2.410   1.099   2.000
    1STR   H16330421   2.335   1.088   1.922
    1STR   H16430422   2.496   1.041   1.979
    1STR   H16530423   2.456   1.195   1.993
    1STR   C16630424   2.436   1.185   2.225
    1STR   H16730425   2.437   1.280   2.174
    1STR   H16830426   2.376   1.204   2.312
    1STR   O16930427   2.573   1.145   2.251
    1STR   C17030428   2.673   1.247   2.276
    1STR   H17130429   2.625   1.341   2.277
    1STR   C17230430   2.746   1.239   2.412
    1STR   H17330431   2.799   1.146   2.427
    1STR   H17430432   2.679   1.248   2.497
    1STR   H17530433   2.819   1.319   2.423
    1STR   C17630434   2.774   1.267   2.162
    1STR   H17730435   2.815   1.368   2.169
    1STR   H17830436   2.858   1.199   2.172
    1STR   O17930437   2.711   1.246   2.037
    1STR   C18030438   2.770   1.305   1.922
    1STR   H18130439   2.751   1.412   1.924
    1STR   C18230440   2.922   1.280   1.917
    1STR   H18330441   2.946   1.173   1.924
    1STR   H18430442   2.975   1.330   1.998
    1STR   H18530443   2.966   1.317   1.824
    1STR   C18630444   2.698   1.240   1.802
    1STR   H18730445   2.737   1.280   1.708
    1STR   H18830446   2.724   1.135   1.802
    1STR   O18930447   2.554   1.242   1.805
    1STR   C19030448   2.482   1.364   1.792
    1STR   H19130449   2.529   1.443   1.851
    1STR   C19230450   2.498   1.396   1.643
    1STR   H19330451   2.430   1.473   1.609
    1STR   H19430452   2.479   1.307   1.583
    1STR   H19530453   2.600   1.429   1.622
    1STR   C19630454   2.329   1.355   1.832
    1STR   H19730455   2.277   1.441   1.793
    1STR   H19830456   2.284   1.269   1.781
    1STR   O19930457   2.295   1.344   1.972
    1STR   C20030458   2.174   1.405   2.023
    1STR   H20130459   2.203   1.508   2.010
    1STR   C20230460   2.054   1.382   1.932
    1STR   H20330461   2.055   1.279   1.898
    1STR   H20430462   2.058   1.445   1.844
    1STR   H20530463   1.961   1.403   1.984
    1STR   C20630464   2.151   1.386   2.179
    1STR   H20730465   2.247   1.358   2.217
    1STR   H20830466   2.134   1.479   2.229
    1STR   O20930467   2.052   1.300   2.238
    1STR   C21030468   1.952   1.353   2.328
    1STR   H21130469   1.918   1.441   2.275
    1STR   C21230470   1.836   1.254   2.341
    1STR   H21330471   1.761   1.288   2.411
    1STR   H21430472   1.874   1.162   2.384
    1STR   H21530473   1.789   1.232   2.246
    1STR   C21630474   1.982   1.402   2.473
    1STR   H21730475   2.066   1.468   2.479
    1STR   H21830476   1.898   1.466   2.497
    1STR   O21930477   1.985   1.308   2.580
    1STR   C22030478   1.966   1.370   2.709
    1STR   H22130479   1.982   1.477   2.701
    1STR   C22230480   1.823   1.346   2.758
    1STR   H22330481   1.807   1.244   2.793
    1STR   H22430482   1.752   1.361   2.678
    1STR   H22530483   1.800   1.413   2.840
    1STR   C22630484   2.061   1.323   2.820
    1STR   H22730485   2.100   1.409   2.867
    1STR   H22830486   2.006   1.279   2.902
    1STR   O22930487   2.170   1.243   2.781
    1STR   C23030488   2.295   1.297   2.823
    1STR   H23130489   2.296   1.401   2.798
    1STR   C23230490   2.314   1.286   2.976
    1STR   H23330491   2.235   1.226   3.020
    1STR   H23430492   2.309   1.382   3.024
    1STR   H23530493   2.410   1.244   3.003
    1STR   C23630494   2.405   1.240   2.735
    1STR   H23730495   2.486   1.201   2.794
    1STR   H23830496   2.365   1.161   2.673
    1STR   O23930497   2.462   1.342   2.657
    1STR   C24030498   2.427   1.341   2.523
    1STR   H24130499   2.467   1.249   2.483
    1STR   C24230500   2.277   1.349   2.513
    1STR   H24330501   2.241   1.422   2.585
    1STR   H24430502   2.227   1.255   2.530
    1STR   H24530503   2.247   1.384   2.417
    1STR   C24630504   2.492   1.460   2.456
    1STR   H24730505   2.466   1.551   2.506
    1STR   H24830506   2.599   1.452   2.468
    1STR   O24930507   2.449   1.459   2.321
    1STR   C25030508   2.507   1.559   2.241
    1STR   H25130509   2.600   1.594   2.281
    1STR   C25230510   2.533   1.522   2.097
    1STR   H25330511   2.578   1.425   2.086
    1STR   H25430512   2.599   1.594   2.050
    1STR   H25530513   2.441   1.520   2.040
    1STR   C25630514   2.409   1.670   2.243
    1STR   H25730515   2.409   1.724   2.335
    1STR   H25830516   2.443   1.737   2.174
    1STR   O25930517   2.285   1.635   2.193
    1STR   C26030518   2.189   1.730   2.223
    1STR   H26130519   2.230   1.831   2.215
    1STR   C26230520   2.081   1.708   2.114
    1STR   H26330521   2.020   1.620   2.130
    1STR   H26430522   2.129   1.697   2.019
    1STR   H26530523   2.013   1.788   2.098
    1STR   C26630524   2.146   1.701   2.368
    1STR   H26730525   2.115   1.792   2.414
    1STR   H26830526   2.061   1.636   2.367
    1STR   O26930527   2.245   1.647   2.454
    1STR   C27030528   2.274   1.721   2.572
    1STR   H27130529   2.364   1.680   2.617
    1STR   C27230530   2.307   1.868   2.553
    1STR   H27330531   2.218   1.928   2.552
    1STR   H27430532   2.361   1.888   2.461
    1STR   H27530533   2.369   1.902   2.635
    1STR   C27630534   2.161   1.699   2.668
    1STR   H27730535   2.126   1.791   2.715
    1STR   H27830536   2.074   1.657   2.618
    1STR   O27930537   2.213   1.602   2.756
    1STR   C28030538   2.256   1.657   2.877
    1STR   H28130539   2.259   1.766   2.873
    1STR   C28230540   2.141   1.619   2.969
    1STR   H28330541   2.163   1.540   3.040
    1STR   H28430542   2.050   1.592   2.918
    1STR   H28530543   2.107   1.707   3.018
    1STR   C28630544   2.399   1.615   2.922
    1STR   H28730545   2.451   1.710   2.929
    1STR   H28830546   2.398   1.576   3.023
    1STR   O28930547   2.480   1.536   2.833
    1STR   C29030548   2.595   1.467   2.887
    1STR   H29130549   2.560   1.379   2.938
    1STR   C29230550   2.691   1.416   2.777
    1STR   H29330551   2.796   1.427   2.800
    1STR   H29430552   2.672   1.467   2.684
    1STR   H29530553   2.677   1.310   2.758
    1STR   C29630554   2.672   1.546   2.992
    1STR   H29730555   2.619   1.532   3.086
    1STR   H29830556   2.770   1.504   3.014
    1STR   O29930557   2.673   1.684   2.961
    1STR   C30030558   2.748   1.736   2.855
    1STR   H30130559   2.752   1.841   2.887
    1STR   C30230560   2.891   1.686   2.863
    1STR   H30330561   2.906   1.580   2.875
    1STR   H30430562   2.945   1.733   2.945
    1STR   H30530563   2.937   1.708   2.769
    1STR   C30630564   2.678   1.745   2.716
    1STR   H30730565   2.576   1.707   2.719
    1STR   H30830566   2.662   1.850   2.691
    1STR   O30930567   2.749   1.675   2.613
    1STR    H1R30568   2.852   1.811   2.500
    1STR    H1S30569   2.858   1.666   2.302
    1STR    H1T30570   2.762   1.544   2.384
    1STR    H1U30571   2.912   1.581   2.448
    1STR    H1V30572   2.639   1.904   2.480
    1STR    H1W30573   2.562   1.754   2.462
    1STR    H1X30574   2.476   2.028   2.104
    1STR    H1Y30575   2.715   1.948   1.956
    1STR    H1Z30576   2.749   1.839   1.737
    1STR    H2030577   2.628   1.637   1.571
    1STR    H2130578   2.461   1.689   1.545
    1STR    H2230579   2.583   1.809   1.540
    1STR    H2330580   2.356   1.603   1.677
    1STR    H2730581   2.334   1.783   1.995
    1STR    H2830582   3.005   0.602   2.240
    1STR    H2930583   2.794   0.497   2.301
    1STR    H2A30584   2.603   0.376   2.246
    1STR    H2B30585   2.622   0.266   2.110
    1STR    H2C30586   2.539   0.423   2.088
    1STR   BCK130587   1.997   0.368   4.217
    1STR    O0330588   1.952   0.264   4.258
    1STR    N0430589   2.129   0.389   4.217
    1STR    C0530590   2.186   0.456   4.323
    1STR    C0630591   2.117   0.478   4.444
    1STR    C0730592   2.172   0.568   4.537
    1STR    N0830593   2.106   0.611   4.646
    1STR    C0930594   1.977   0.628   4.661
    1STR    O0A30595   1.896   0.611   4.571
    1STR    O0B30596   1.941   0.656   4.785
    1STR    C0C30597   2.025   0.692   4.893
    1STR    C0D30598   1.943   0.658   5.019
    1STR    C0E30599   2.170   0.643   4.910
    1STR    O0F30600   2.268   0.705   4.827
    1STR    C0G30601   2.395   0.642   4.846
    1STR    C0H30602   2.404   0.515   4.762
    1STR    C0I30603   2.515   0.729   4.813
    1STR    O0J30604   2.581   0.774   4.929
    1STR    C0K30605   2.864   1.750   4.748
    1STR    C0M30606   3.012   1.757   4.778
    1STR    C0N30607   2.778   1.878   4.730
    1STR    O0O30608   2.659   1.850   4.659
    1STR    C0P30609   2.537   1.857   4.712
    1STR    O0Q30610   2.514   1.880   4.827
    1STR    N0R30611   2.446   1.825   4.623
    1STR    C0S30612   2.308   1.826   4.620
    1STR    C0T30613   2.249   1.782   4.503
    1STR    C0U30614   2.111   1.784   4.484
    1STR    C0V30615   2.029   1.805   4.593
    1STR    C0W30616   1.884   1.778   4.570
    1STR    C0X30617   2.085   1.844   4.717
    1STR    N0Y30618   2.009   1.847   4.832
    1STR   BCK230619   1.915   1.933   4.864
    1STR    O1030620   1.828   1.905   4.944
    1STR    C1330621   2.224   1.855   4.728
    1STR    C1430622   2.292   0.632   4.514
    1STR    C1530623   2.368   0.591   4.406
    1STR    C1630624   2.319   0.497   4.318
    1STR    C1730625   2.422   0.449   4.227
    1STR    H1B30626   2.183   0.307   4.196
    1STR    H1C30627   2.019   0.437   4.461
    1STR    H1D30628   2.163   0.644   4.724
    1STR    H1E30629   2.030   0.796   4.868
    1STR    H1F30630   1.906   0.558   5.017
    1STR    H1G30631   1.999   0.670   5.112
    1STR    H1H30632   1.852   0.714   5.028
    1STR    H1I30633   2.170   0.536   4.893
    1STR    H1J30634   2.201   0.659   5.012
    1STR    H1K30635   2.405   0.620   4.951
    1STR    H1M30636   2.444   0.532   4.664
    1STR    H1N30637   2.312   0.457   4.754
    1STR    H1O30638   2.478   0.451   4.806
    1STR    H1P30639   2.588   0.670   4.757
    1STR    H1Q30640   2.483   0.812   4.751
    1STR   C01030641   2.696   0.703   4.972
    1STR   H01130642   2.721   0.742   5.069
    1STR   C01230643   2.658   0.562   5.009
    1STR   H01330644   2.632   0.504   4.923
    1STR   H01430645   2.572   0.556   5.074
    1STR   H01530646   2.739   0.515   5.062
    1STR   C01630647   2.826   0.731   4.891
    1STR   H01730648   2.857   0.830   4.925
    1STR   H01830649   2.908   0.669   4.925
    1STR   O01930650   2.818   0.726   4.748
    1STR   C02030651   2.911   0.812   4.682
    1STR   H02130652   2.911   0.902   4.740
    1STR   C02230653   3.061   0.773   4.694
    1STR   H02330654   3.095   0.693   4.629
    1STR   H02430655   3.086   0.742   4.796
    1STR   H02530656   3.125   0.858   4.671
    1STR   C02630657   2.866   0.870   4.544
    1STR   H02730658   2.789   0.946   4.556
    1STR   H02830659   2.953   0.926   4.516
    1STR   O02930660   2.840   0.789   4.430
    1STR   C03030661   2.704   0.763   4.392
    1STR   H03130662   2.707   0.664   4.346
    1STR   C03230663   2.613   0.750   4.515
    1STR   H03330664   2.512   0.783   4.493
    1STR   H03430665   2.640   0.811   4.600
    1STR   H03530666   2.606   0.648   4.548
    1STR   C03630667   2.647   0.847   4.275
    1STR   H03730668   2.639   0.954   4.293
    1STR   H03830669   2.717   0.846   4.194
    1STR   O03930670   2.525   0.786   4.232
    1STR   C04030671   2.445   0.852   4.133
    1STR   H04130672   2.447   0.958   4.151
    1STR   C04230673   2.514   0.849   3.997
    1STR   H04330674   2.541   0.750   3.965
    1STR   H04430675   2.604   0.907   4.001
    1STR   H04530676   2.458   0.899   3.919
    1STR   C04630677   2.297   0.796   4.137
    1STR   H04730678   2.250   0.826   4.047
    1STR   H04830679   2.301   0.688   4.143
    1STR   O04930680   2.196   0.844   4.227
    1STR   C05030681   2.062   0.792   4.209
    1STR   H05130682   2.066   0.705   4.144
    1STR   C05230683   2.016   0.743   4.343
    1STR   H05330684   2.089   0.754   4.418
    1STR   H05430685   1.976   0.644   4.339
    1STR   H05530686   1.934   0.798   4.384
    1STR   C05630687   1.944   0.885   4.169
    1STR   H05730688   1.931   0.965   4.242
    1STR   H05830689   1.963   0.934   4.074
    1STR   O05930690   1.830   0.797   4.160
    1STR   C06030691   1.705   0.822   4.229
    1STR   H06130692   1.680   0.927   4.221
    1STR   C06230693   1.606   0.751   4.135
    1STR   H06330694   1.624   0.643   4.133
    1STR   H06430695   1.616   0.788   4.033
    1STR   H06530696   1.503   0.767   4.166
    1STR   C06630697   1.680   0.765   4.376
    1STR   H06730698   1.572   0.760   4.392
    1STR   H06830699   1.717   0.663   4.382
    1STR   O06930700   1.735   0.838   4.487
    1STR   C07030701   1.677   0.828   4.620
    1STR   H07130702   1.587   0.887   4.613
    1STR   C07230703   1.627   0.691   4.668
    1STR   H07330704   1.705   0.625   4.704
    1STR   H07430705   1.569   0.638   4.593
    1STR   H07530706   1.564   0.708   4.755
    1STR   C07630707   1.777   0.897   4.720
    1STR   H07730708   1.871   0.866   4.678
    1STR   H07830709   1.767   1.004   4.707
    1STR   O07930710   1.791   0.861   4.860
    1STR   C08030711   1.841   0.961   4.955
    1STR   H08130712   1.843   1.056   4.904
    1STR   C08230713   1.720   0.955   5.050
    1STR   H08330714   1.704   0.855   5.090
    1STR   H08430715   1.628   0.982   4.997
    1STR   H08530716   1.733   1.020   5.136
    1STR   C08630717   1.971   0.954   5.051
    1STR   H08730718   1.972   1.048   5.104
    1STR   H08830719   1.953   0.883   5.131
    1STR   O08930720   2.110   0.937   5.006
    1STR   C09030721   2.222   0.950   5.100
    1STR   H09130722   2.218   1.051   5.139
    1STR   C09230723   2.206   0.863   5.224
    1STR   H09330724   2.202   0.758   5.200
    1STR   H09430725   2.117   0.889   5.282
    1STR   H09530726   2.292   0.878   5.290
    1STR   C09630727   2.366   0.932   5.036
    1STR   H09730728   2.409   0.839   5.074
    1STR   H09830729   2.360   0.921   4.928
    1STR   O09930730   2.455   1.042   5.068
    1STR   C10030731   2.598   1.051   5.044
    1STR   H10130732   2.617   1.155   5.071
    1STR   C10230733   2.674   0.976   5.151
    1STR   H10330734   2.623   0.885   5.178
    1STR   H10430735   2.678   1.036   5.242
    1STR   H10530736   2.777   0.956   5.121
    1STR   C10630737   2.651   1.051   4.897
    1STR   H10730738   2.600   0.981   4.832
    1STR   H10830739   2.614   1.146   4.867
    1STR   O10930740   2.793   1.045   4.867
    1STR   C11030741   2.867   1.161   4.825
    1STR   H11130742   2.803   1.247   4.820
    1STR   C11230743   2.961   1.183   4.944
    1STR   H11330744   3.032   1.100   4.952
    1STR   H11430745   2.905   1.188   5.037
    1STR   H11530746   3.018   1.275   4.934
    1STR   C11630747   2.953   1.161   4.691
    1STR   H11730748   3.011   1.253   4.694
    1STR   H11830749   3.027   1.081   4.695
    1STR   O11930750   2.888   1.161   4.561
    1STR   C12030751   2.974   1.195   4.448
    1STR   H12130752   3.029   1.284   4.478
    1STR   C12230753   3.080   1.092   4.406
    1STR   H12330754   3.153   1.137   4.339
    1STR   H12430755   3.035   1.011   4.347
    1STR   H12530756   3.135   1.049   4.489
    1STR   C12630757   2.901   1.238   4.318
    1STR   H12730758   2.874   1.340   4.331
    1STR   H12830759   2.972   1.242   4.236
    1STR   O12930760   2.785   1.167   4.274
    1STR   C13030761   2.732   1.222   4.152
    1STR   H13130762   2.776   1.320   4.133
    1STR   C13230763   2.775   1.136   4.033
    1STR   H13330764   2.757   1.031   4.055
    1STR   H13430765   2.881   1.146   4.013
    1STR   H13530766   2.720   1.162   3.943
    1STR   C13630767   2.580   1.252   4.161
    1STR   H13730768   2.548   1.242   4.264
    1STR   H13830769   2.565   1.356   4.135
    1STR   O13930770   2.494   1.176   4.077
    1STR   C14030771   2.356   1.217   4.084
    1STR   H14130772   2.348   1.324   4.101
    1STR   C14230773   2.296   1.186   3.947
    1STR   H14330774   2.303   1.080   3.924
    1STR   H14430775   2.349   1.240   3.869
    1STR   H14530776   2.191   1.214   3.943
    1STR   C14630777   2.275   1.145   4.195
    1STR   H14730778   2.174   1.184   4.204
    1STR   H14830779   2.256   1.045   4.161
    1STR   O14930780   2.341   1.149   4.321
    1STR   C15030781   2.360   1.027   4.393
    1STR   H15130782   2.385   0.942   4.335
    1STR   C15230783   2.482   1.048   4.478
    1STR   H15330784   2.534   1.138   4.446
    1STR   H15430785   2.560   0.977   4.472
    1STR   H15530786   2.457   1.046   4.583
    1STR   C15630787   2.244   0.974   4.473
    1STR   H15730788   2.240   0.868   4.463
    1STR   H15830789   2.266   0.984   4.578
    1STR   O15930790   2.124   1.036   4.427
    1STR   C16030791   2.012   1.037   4.514
    1STR   H16130792   1.935   0.967   4.487
    1STR   C16230793   2.048   1.023   4.661
    1STR   H16330794   2.129   1.090   4.677
    1STR   H16430795   2.080   0.923   4.689
    1STR   H16530796   1.973   1.058   4.730
    1STR   C16630797   1.959   1.175   4.491
    1STR   H16730798   1.882   1.200   4.565
    1STR   H16830799   2.046   1.234   4.512
    1STR   O16930800   1.921   1.206   4.358
    1STR   C17030801   1.788   1.251   4.346
    1STR   H17130802   1.768   1.338   4.408
    1STR   C17230803   1.778   1.292   4.198
    1STR   H17330804   1.801   1.207   4.133
    1STR   H17430805   1.850   1.371   4.176
    1STR   H17530806   1.678   1.329   4.173
    1STR   C17630807   1.695   1.135   4.383
    1STR   H17730808   1.611   1.124   4.315
    1STR   H17830809   1.754   1.046   4.369
    1STR   O17930810   1.657   1.127   4.521
    1STR   C18030811   1.557   1.213   4.573
    1STR   H18130812   1.599   1.312   4.590
    1STR   C18230813   1.437   1.222   4.478
    1STR   H18330814   1.393   1.123   4.461
    1STR   H18430815   1.464   1.261   4.381
    1STR   H18530816   1.359   1.287   4.519
    1STR   C18630817   1.509   1.150   4.706
    1STR   H18730818   1.410   1.185   4.732
    1STR   H18830819   1.489   1.044   4.690
    1STR   O18930820   1.598   1.157   4.817
    1STR   C19030821   1.613   1.283   4.882
    1STR   H19130822   1.676   1.346   4.820
    1STR   C19230823   1.479   1.356   4.895
    1STR   H19330824   1.405   1.297   4.949
    1STR   H19430825   1.438   1.385   4.798
    1STR   H19530826   1.493   1.449   4.947
    1STR   C19630827   1.677   1.267   5.023
    1STR   H19730828   1.656   1.358   5.076
    1STR   H19830829   1.622   1.193   5.080
    1STR   O19930830   1.819   1.245   5.030
    1STR   C20030831   1.888   1.301   5.143
    1STR   H20130832   1.856   1.403   5.151
    1STR   C20230833   1.849   1.235   5.276
    1STR   H20330834   1.879   1.131   5.281
    1STR   H20430835   1.741   1.241   5.292
    1STR   H20530836   1.897   1.287   5.359
    1STR   C20630837   2.042   1.313   5.125
    1STR   H20730838   2.060   1.413   5.087
    1STR   H20830839   2.092   1.303   5.221
    1STR   O20930840   2.106   1.222   5.038
    1STR   C21030841   2.231   1.265   4.986
    1STR   H21130842   2.208   1.359   4.942
    1STR   C21230843   2.343   1.290   5.089
    1STR   H21330844   2.350   1.214   5.166
    1STR   H21430845   2.330   1.382   5.146
    1STR   H21530846   2.439   1.300   5.038
    1STR   C21630847   2.260   1.181   4.861
    1STR   H21730848   2.223   1.081   4.872
    1STR   H21830849   2.195   1.229   4.791
    1STR   O21930850   2.388   1.170   4.800
    1STR   C22030851   2.420   1.270   4.706
    1STR   H22130852   2.412   1.358   4.765
    1STR   C22230853   2.568   1.252   4.663
    1STR   H22330854   2.609   1.152   4.660
    1STR   H22430855   2.630   1.302   4.734
    1STR   H22530856   2.590   1.294   4.566
    1STR   C22630857   2.329   1.290   4.582
    1STR   H22730858   2.387   1.326   4.498
    1STR   H22830859   2.288   1.197   4.553
    1STR   O22930860   2.212   1.365   4.602
    1STR   C23030861   2.174   1.462   4.505
    1STR   H23130862   2.237   1.546   4.531
    1STR   C23230863   2.193   1.429   4.356
    1STR   H23330864   2.132   1.344   4.330
    1STR   H23430865   2.296   1.407   4.328
    1STR   H23530866   2.162   1.513   4.294
    1STR   C23630867   2.025   1.492   4.530
    1STR   H23730868   1.991   1.568   4.461
    1STR   H23830869   1.957   1.414   4.502
    1STR   O23930870   2.003   1.528   4.665
    1STR   C24030871   1.894   1.470   4.735
    1STR   H24130872   1.805   1.462   4.672
    1STR   C24230873   1.945   1.336   4.781
    1STR   H24330874   1.868   1.261   4.797
    1STR   H24430875   1.999   1.349   4.873
    1STR   H24530876   2.016   1.294   4.712
    1STR   C24630877   1.872   1.564   4.855
    1STR   H24730878   1.969   1.577   4.899
    1STR   H24830879   1.845   1.661   4.815
    1STR   O24930880   1.779   1.526   4.957
    1STR   C25030881   1.753   1.627   5.057
    1STR   H25130882   1.724   1.713   4.999
    1STR   C25230883   1.631   1.597   5.146
    1STR   H25330884   1.645   1.511   5.210
    1STR   H25430885   1.538   1.585   5.091
    1STR   H25530886   1.612   1.678   5.216
    1STR   C25630887   1.869   1.664   5.152
    1STR   H25730888   1.858   1.769   5.179
    1STR   H25830889   1.855   1.609   5.245
    1STR   O25930890   2.001   1.645   5.107
    1STR   C26030891   2.097   1.674   5.207
    1STR   H26130892   2.057   1.754   5.265
    1STR   C26230893   2.117   1.556   5.305
    1STR   H26330894   2.195   1.489   5.269
    1STR   H26430895   2.026   1.499   5.320
    1STR   H26530896   2.148   1.586   5.405
    1STR   C26630897   2.227   1.732   5.148
    1STR   H26730898   2.239   1.836   5.175
    1STR   H26830899   2.315   1.686   5.193
    1STR   O26930900   2.232   1.725   5.008
    1STR   C27030901   2.291   1.604   4.967
    1STR   H27130902   2.245   1.530   5.030
    1STR   C27230903   2.251   1.581   4.824
    1STR   H27330904   2.153   1.621   4.806
    1STR   H27430905   2.247   1.479   4.794
    1STR   H27530906   2.323   1.625   4.756
    1STR   C27630907   2.443   1.605   4.983
    1STR   H27730908   2.474   1.707   4.973
    1STR   H27830909   2.475   1.571   5.081
    1STR   O27930910   2.497   1.520   4.884
    1STR   C28030911   2.608   1.565   4.809
    1STR   H28130912   2.624   1.669   4.825
    1STR   C28230913   2.721   1.487   4.878
    1STR   H28330914   2.686   1.391   4.915
    1STR   H28430915   2.756   1.539   4.967
    1STR   H28530916   2.806   1.472   4.812
    1STR   C28630917   2.589   1.539   4.655
    1STR   H28730918   2.669   1.473   4.629
    1STR   H28830919   2.490   1.498   4.643
    1STR   O28930920   2.591   1.632   4.547
    1STR   C29030921   2.560   1.573   4.420
    1STR   H29130922   2.473   1.509   4.431
    1STR   C29230923   2.516   1.676   4.317
    1STR   H29330924   2.512   1.776   4.360
    1STR   H29430925   2.419   1.651   4.276
    1STR   H29530926   2.582   1.680   4.232
    1STR   C29630927   2.677   1.490   4.369
    1STR   H29730928   2.652   1.386   4.387
    1STR   H29830929   2.691   1.496   4.261
    1STR   O29930930   2.797   1.509   4.443
    1STR   C30030931   2.888   1.613   4.411
    1STR   H30130932   2.987   1.569   4.423
    1STR   C30230933   2.877   1.668   4.271
    1STR   H30330934   2.785   1.725   4.256
    1STR   H30430935   2.886   1.590   4.195
    1STR   H30530936   2.957   1.740   4.259
    1STR   C30630937   2.875   1.724   4.511
    1STR   H30730938   2.965   1.786   4.510
    1STR   H30830939   2.792   1.788   4.482
    1STR   O30930940   2.856   1.664   4.637
    1STR    H1R30941   2.828   1.699   4.835
    1STR    H1S30942   3.061   1.662   4.759
    1STR    H1T30943   3.035   1.784   4.880
    1STR    H1U30944   3.056   1.829   4.712
    1STR    H1V30945   2.832   1.952   4.674
    1STR    H1W30946   2.752   1.925   4.822
    1STR    H1X30947   2.494   1.775   4.549
    1STR    H1Y30948   2.311   1.751   4.424
    1STR    H1Z30949   2.069   1.756   4.389
    1STR    H2030950   1.829   1.832   4.643
    1STR    H2130951   1.857   1.808   4.469
    1STR    H2230952   1.850   1.676   4.580
    1STR    H2330953   2.030   1.775   4.901
    1STR    H2730954   2.268   1.863   4.823
    1STR    H2830955   2.330   0.706   4.582
    1STR    H2930956   2.466   0.623   4.385
    1STR    H2A30957   2.450   0.534   4.166
    1STR    H2B30958   2.393   0.358   4.176
    1STR    H2C30959   2.513   0.434   4.281
    1STR   BCK130960   2.101   0.364   7.399
    1STR    O0330961   2.222   0.380   7.407
    1STR    N0430962   2.005   0.430   7.466
    1STR    C0530963   2.014   0.530   7.564
    1STR    C0630964   2.137   0.590   7.598
    1STR    C0730965   2.148   0.697   7.686
    1STR    N0830966   2.274   0.753   7.687
    1STR    C0930967   2.346   0.815   7.778
    1STR    O0A30968   2.301   0.851   7.886
    1STR    O0B30969   2.479   0.830   7.744
    1STR    C0C30970   2.547   0.802   7.619
    1STR    C0D30971   2.689   0.763   7.662
    1STR    C0E30972   2.494   0.699   7.515
    1STR    O0F30973   2.380   0.736   7.438
    1STR    C0G30974   2.357   0.660   7.319
    1STR    C0H30975   2.210   0.644   7.287
    1STR    C0I30976   2.408   0.724   7.190
    1STR    O0J30977   2.387   0.626   7.091
    1STR    C0K30978   1.481   1.578   7.473
    1STR    C0M30979   1.511   1.526   7.613
    1STR    C0N30980   1.536   1.720   7.453
    1STR    O0O30981   1.677   1.722   7.441
    1STR    C0P30982   1.732   1.784   7.336
    1STR    O0Q30983   1.669   1.844   7.249
    1STR    N0R30984   1.863   1.768   7.337
    1STR    C0S30985   1.952   1.801   7.235
    1STR    C0T30986   2.086   1.813   7.273
    1STR    C0U30987   2.177   1.873   7.185
    1STR    C0V30988   2.142   1.902   7.054
    1STR    C0W30989   2.245   1.980   6.975
    1STR    C0X30990   2.016   1.862   7.006
    1STR    N0Y30991   2.000   1.857   6.867
    1STR   BCK230992   1.907   1.811   6.782
    1STR    O1030993   1.941   1.788   6.667
    1STR    C1330994   1.919   1.819   7.099
    1STR    C1430995   2.034   0.743   7.753
    1STR    C1530996   1.909   0.681   7.726
    1STR    C1630997   1.899   0.575   7.631
    1STR    C1730998   1.764   0.513   7.602
    1STR    H1B30999   1.913   0.398   7.444
    1STR    H1C31000   2.228   0.556   7.551
    1STR    H1D31001   2.323   0.741   7.599
    1STR    H1E31002   2.558   0.898   7.568
    1STR    H1F31003   2.689   0.670   7.718
    1STR    H1G31004   2.755   0.751   7.576
    1STR    H1H31005   2.732   0.840   7.726
    1STR    H1I31006   2.467   0.608   7.567
    1STR    H1J31007   2.574   0.677   7.444
    1STR    H1K31008   2.396   0.559   7.335
    1STR    H1M31009   2.144   0.633   7.369
    1STR    H1N31010   2.200   0.556   7.227
    1STR    H1O31011   2.171   0.724   7.226
    1STR    H1P31012   2.351   0.813   7.164
    1STR    H1Q31013   2.511   0.753   7.193
    1STR   C01031014   2.364   0.672   6.961
    1STR   H01131015   2.357   0.780   6.948
    1STR   C01231016   2.481   0.610   6.887
    1STR   H01331017   2.503   0.513   6.931
    1STR   H01431018   2.572   0.665   6.896
    1STR   H01531019   2.458   0.598   6.783
    1STR   C01631020   2.232   0.611   6.918
    1STR   H01731021   2.207   0.644   6.817
    1STR   H01831022   2.242   0.503   6.921
    1STR   O01931023   2.130   0.645   7.007
    1STR   C02031024   2.005   0.586   6.980
    1STR   H02131025   2.011   0.487   6.934
    1STR   C02231026   1.938   0.581   7.115
    1STR   H02331027   1.936   0.681   7.153
    1STR   H02431028   1.986   0.518   7.189
    1STR   H02531029   1.835   0.554   7.106
    1STR   C02631030   1.928   0.681   6.891
    1STR   H02731031   1.956   0.781   6.925
    1STR   H02831032   1.959   0.667   6.787
    1STR   O02931033   1.789   0.657   6.901
    1STR   C03031034   1.707   0.770   6.920
    1STR   H03131035   1.764   0.862   6.920
    1STR   C03231036   1.619   0.775   6.796
    1STR   H03331037   1.564   0.682   6.789
    1STR   H03431038   1.679   0.788   6.706
    1STR   H03531039   1.547   0.856   6.800
    1STR   C03631040   1.623   0.756   7.049
    1STR   H03731041   1.551   0.837   7.053
    1STR   H03831042   1.567   0.663   7.047
    1STR   O03931043   1.704   0.756   7.167
    1STR   C04031044   1.652   0.820   7.284
    1STR   H04131045   1.635   0.925   7.264
    1STR   C04231046   1.519   0.753   7.325
    1STR   H04331047   1.534   0.648   7.351
    1STR   H04431048   1.443   0.758   7.247
    1STR   H04531049   1.477   0.802   7.413
    1STR   C04631050   1.754   0.808   7.400
    1STR   H04731051   1.702   0.826   7.494
    1STR   H04831052   1.792   0.707   7.406
    1STR   O04931053   1.860   0.904   7.401
    1STR   C05031054   1.977   0.866   7.331
    1STR   H05131055   1.982   0.759   7.329
    1STR   C05231056   1.968   0.927   7.192
    1STR   H05331057   1.884   0.892   7.135
    1STR   H05431058   2.057   0.906   7.132
    1STR   H05531059   1.956   1.034   7.205
    1STR   C05631060   2.106   0.912   7.401
    1STR   H05731061   2.079   0.993   7.467
    1STR   H05831062   2.137   0.835   7.470
    1STR   O05931063   2.216   0.940   7.310
    1STR   C06031064   2.323   1.025   7.353
    1STR   H06131065   2.302   1.124   7.320
    1STR   C06231066   2.336   1.025   7.503
    1STR   H06331067   2.340   0.927   7.542
    1STR   H06431068   2.251   1.068   7.553
    1STR   H06531069   2.427   1.075   7.530
    1STR   C06631070   2.466   1.003   7.300
    1STR   H06731071   2.525   1.083   7.340
    1STR   H06831072   2.505   0.912   7.343
    1STR   O06931073   2.490   1.005   7.160
    1STR   C07031074   2.627   0.992   7.116
    1STR   H07131075   2.670   1.087   7.089
    1STR   C07231076   2.723   0.935   7.223
    1STR   H07331077   2.701   0.833   7.251
    1STR   H07431078   2.723   0.992   7.316
    1STR   H07531079   2.826   0.943   7.193
    1STR   C07631080   2.619   0.918   6.983
    1STR   H07731081   2.714   0.875   6.953
    1STR   H07831082   2.554   0.835   6.999
    1STR   O07931083   2.564   1.000   6.881
    1STR   C08031084   2.606   0.984   6.746
    1STR   H08131085   2.558   1.070   6.702
    1STR   C08231086   2.758   1.002   6.726
    1STR   H08331087   2.819   0.982   6.814
    1STR   H08431088   2.786   1.102   6.697
    1STR   H08531089   2.797   0.941   6.646
    1STR   C08631090   2.545   0.873   6.657
    1STR   H08731091   2.602   0.871   6.564
    1STR   H08831092   2.555   0.776   6.703
    1STR   O08931093   2.407   0.886   6.624
    1STR   C09031094   2.361   0.830   6.501
    1STR   H09131095   2.393   0.890   6.415
    1STR   C09231096   2.424   0.693   6.489
    1STR   H09331097   2.372   0.627   6.422
    1STR   H09431098   2.414   0.650   6.587
    1STR   H09531099   2.529   0.693   6.459
    1STR   C09631100   2.207   0.817   6.506
    1STR   H09731101   2.169   0.763   6.422
    1STR   H09831102   2.184   0.753   6.591
    1STR   O09931103   2.131   0.939   6.503
    1STR   C10031104   1.998   0.920   6.552
    1STR   H10131105   1.957   0.825   6.516
    1STR   C10231106   2.009   0.912   6.702
    1STR   H10331107   2.049   1.004   6.739
    1STR   H10431108   2.078   0.838   6.741
    1STR   H10531109   1.911   0.897   6.746
    1STR   C10631110   1.899   1.035   6.516
    1STR   H10731111   1.935   1.129   6.557
    1STR   H10831112   1.893   1.052   6.409
    1STR   O10931113   1.771   1.000   6.569
    1STR   C11031114   1.663   1.093   6.554
    1STR   H11131115   1.690   1.171   6.484
    1STR   C11231116   1.548   1.014   6.491
    1STR   H11331117   1.524   0.926   6.551
    1STR   H11431118   1.575   0.980   6.392
    1STR   H11531119   1.457   1.074   6.482
    1STR   C11631120   1.615   1.160   6.686
    1STR   H11731121   1.669   1.255   6.695
    1STR   H11831122   1.510   1.187   6.680
    1STR   O11931123   1.637   1.083   6.805
    1STR   C12031124   1.612   1.153   6.927
    1STR   H12131125   1.624   1.260   6.914
    1STR   C12231126   1.466   1.125   6.964
    1STR   H12331127   1.440   1.174   7.058
    1STR   H12431128   1.448   1.019   6.977
    1STR   H12531129   1.397   1.161   6.888
    1STR   C12631130   1.707   1.111   7.042
    1STR   H12731131   1.665   1.150   7.135
    1STR   H12831132   1.711   1.005   7.057
    1STR   O12931133   1.839   1.166   7.044
    1STR   C13031134   1.938   1.127   6.949
    1STR   H13131135   1.935   1.019   6.938
    1STR   C13231136   1.906   1.194   6.816
    1STR   H13331137   1.844   1.283   6.828
    1STR   H13431138   1.854   1.122   6.757
    1STR   H13531139   1.994   1.220   6.758
    1STR   C13631140   2.082   1.164   6.995
    1STR   H13731141   2.096   1.269   7.019
    1STR   H13831142   2.113   1.112   7.085
    1STR   O13931143   2.169   1.119   6.893
    1STR   C14031144   2.262   1.212   6.839
    1STR   H14131145   2.218   1.309   6.825
    1STR   C14231146   2.375   1.221   6.940
    1STR   H14331147   2.386   1.125   6.990
    1STR   H14431148   2.355   1.296   7.016
    1STR   H14531149   2.469   1.243   6.893
    1STR   C14631150   2.300   1.149   6.704
    1STR   H14731151   2.350   1.060   6.736
    1STR   H14831152   2.209   1.114   6.658
    1STR   O14931153   2.377   1.224   6.607
    1STR   C15031154   2.349   1.186   6.470
    1STR   H15131155   2.332   1.080   6.467
    1STR   C15231156   2.218   1.256   6.429
    1STR   H15331157   2.232   1.364   6.425
    1STR   H15431158   2.136   1.236   6.499
    1STR   H15531159   2.184   1.222   6.332
    1STR   C15631160   2.455   1.218   6.360
    1STR   H15731161   2.403   1.211   6.265
    1STR   H15831162   2.484   1.322   6.361
    1STR   O15931163   2.568   1.134   6.337
    1STR   C16031164   2.676   1.131   6.430
    1STR   H16131165   2.633   1.086   6.517
    1STR   C16231166   2.785   1.041   6.373
    1STR   H16331167   2.821   1.079   6.277
    1STR   H16431168   2.749   0.940   6.359
    1STR   H16531169   2.871   1.037   6.440
    1STR   C16631170   2.736   1.266   6.473
    1STR   H16731171   2.819   1.255   6.542
    1STR   H16831172   2.774   1.313   6.383
    1STR   O16931173   2.632   1.341   6.530
    1STR   C17031174   2.651   1.422   6.644
    1STR   H17131175   2.724   1.502   6.632
    1STR   C17231176   2.512   1.482   6.660
    1STR   H17331177   2.448   1.468   6.573
    1STR   H17431178   2.523   1.588   6.678
    1STR   H17531179   2.455   1.438   6.741
    1STR   C17631180   2.688   1.338   6.765
    1STR   H17731181   2.637   1.373   6.852
    1STR   H17831182   2.645   1.241   6.754
    1STR   O17931183   2.828   1.335   6.790
    1STR   C18031184   2.861   1.268   6.911
    1STR   H18131185   2.802   1.177   6.920
    1STR   C18231186   3.009   1.233   6.901
    1STR   H18331187   3.027   1.166   6.817
    1STR   H18431188   3.044   1.186   6.992
    1STR   H18531189   3.068   1.323   6.884
    1STR   C18631190   2.831   1.355   7.035
    1STR   H18731191   2.906   1.432   7.043
    1STR   H18831192   2.738   1.408   7.023
    1STR   O18931193   2.823   1.273   7.151
    1STR   C19031194   2.739   1.325   7.254
    1STR   H19131195   2.759   1.430   7.268
    1STR   C19231196   2.591   1.315   7.214
    1STR   H19331197   2.566   1.245   7.137
    1STR   H19431198   2.556   1.408   7.172
    1STR   H19531199   2.527   1.292   7.299
    1STR   C19631200   2.771   1.253   7.387
    1STR   H19731201   2.696   1.178   7.410
    1STR   H19831202   2.866   1.201   7.379
    1STR   O19931203   2.782   1.346   7.495
    1STR   C20031204   2.709   1.316   7.613
    1STR   H20131205   2.696   1.209   7.629
    1STR   C20231206   2.792   1.373   7.728
    1STR   H20331207   2.813   1.479   7.712
    1STR   H20431208   2.887   1.322   7.737
    1STR   H20531209   2.739   1.363   7.823
    1STR   C20631210   2.573   1.386   7.602
    1STR   H20731211   2.592   1.491   7.584
    1STR   H20831212   2.520   1.347   7.515
    1STR   O20931213   2.490   1.379   7.717
    1STR   C21031214   2.394   1.274   7.716
    1STR   H21131215   2.447   1.186   7.686
    1STR   C21231216   2.358   1.242   7.861
    1STR   H21331217   2.308   1.324   7.911
    1STR   H21431218   2.449   1.219   7.917
    1STR   H21531219   2.294   1.154   7.865
    1STR   C21631220   2.266   1.302   7.628
    1STR   H21731221   2.186   1.233   7.656
    1STR   H21831222   2.222   1.396   7.652
    1STR   O21931223   2.286   1.299   7.486
    1STR   C22031224   2.175   1.338   7.403
    1STR   H22131225   2.134   1.432   7.439
    1STR   C22231226   2.229   1.356   7.263
    1STR   H22331227   2.229   1.268   7.201
    1STR   H22431228   2.332   1.384   7.272
    1STR   H22531229   2.172   1.430   7.208
    1STR   C22631230   2.061   1.238   7.384
    1STR   H22731231   1.991   1.274   7.310
    1STR   H22831232   2.096   1.150   7.335
    1STR   O22931233   1.998   1.204   7.505
    1STR   C23031234   1.878   1.272   7.526
    1STR   H23131235   1.886   1.375   7.490
    1STR   C23231236   1.763   1.201   7.453
    1STR   H23331237   1.746   1.103   7.495
    1STR   H23431238   1.783   1.188   7.347
    1STR   H23531239   1.670   1.259   7.462
    1STR   C23631240   1.862   1.270   7.678
    1STR   H23731241   1.757   1.281   7.705
    1STR   H23831242   1.894   1.173   7.716
    1STR   O23931243   1.944   1.371   7.735
    1STR   C24031244   1.882   1.498   7.733
    1STR   H24131245   1.823   1.510   7.643
    1STR   C24231246   1.795   1.501   7.860
    1STR   H24331247   1.748   1.405   7.881
    1STR   H24431248   1.714   1.572   7.852
    1STR   H24531249   1.855   1.525   7.948
    1STR   C24631250   1.986   1.610   7.727
    1STR   H24731251   1.942   1.706   7.698
    1STR   H24831252   2.028   1.625   7.826
    1STR   O24931253   2.087   1.579   7.631
    1STR   C25031254   2.209   1.648   7.654
    1STR   H25131255   2.183   1.753   7.652
    1STR   C25231256   2.272   1.604   7.789
    1STR   H25331257   2.237   1.507   7.822
    1STR   H25431258   2.248   1.668   7.872
    1STR   H25531259   2.381   1.600   7.785
    1STR   C25631260   2.313   1.634   7.544
    1STR   H25731261   2.381   1.719   7.554
    1STR   H25831262   2.371   1.545   7.564
    1STR   O25931263   2.268   1.624   7.410
    1STR   C26031264   2.369   1.658   7.315
    1STR   H26131265   2.385   1.764   7.325
    1STR   C26231266   2.502   1.593   7.347
    1STR   H26331267   2.488   1.489   7.367
    1STR   H26431268   2.546   1.637   7.436
    1STR   H26531269   2.571   1.605   7.264
    1STR   C26631270   2.334   1.625   7.169
    1STR   H26731271   2.365   1.527   7.138
    1STR   H26831272   2.227   1.631   7.146
    1STR   O26931273   2.406   1.718   7.093
    1STR   C27031274   2.440   1.679   6.964
    1STR   H27131275   2.489   1.766   6.924
    1STR   C27231276   2.544   1.572   6.963
    1STR   H27331277   2.496   1.474   6.964
    1STR   H27431278   2.604   1.582   7.050
    1STR   H27531279   2.610   1.584   6.877
    1STR   C27631280   2.320   1.654   6.876
    1STR   H27731281   2.253   1.734   6.902
    1STR   H27831282   2.352   1.663   6.774
    1STR   O27931283   2.243   1.537   6.886
    1STR   C28031284   2.129   1.555   6.802
    1STR   H28131285   2.104   1.658   6.792
    1STR   C28231286   2.150   1.509   6.657
    1STR   H28331287   2.176   1.404   6.649
    1STR   H28431288   2.229   1.566   6.608
    1STR   H28531289   2.060   1.525   6.598
    1STR   C28631290   2.006   1.498   6.868
    1STR   H28731291   1.919   1.513   6.804
    1STR   H28831292   2.026   1.394   6.873
    1STR   O28931293   1.981   1.547   7.000
    1STR   C29031294   1.881   1.471   7.066
    1STR   H29131295   1.908   1.369   7.052
    1STR   C29231296   1.880   1.487   7.216
    1STR   H29331297   1.977   1.511   7.260
    1STR   H29431298   1.837   1.399   7.263
    1STR   H29531299   1.808   1.562   7.243
    1STR   C29631300   1.740   1.500   7.013
    1STR   H29731301   1.730   1.608   7.014
    1STR   H29831302   1.728   1.468   6.910
    1STR   O29931303   1.642   1.439   7.096
    1STR   C30031304   1.538   1.527   7.136
    1STR   H30131305   1.578   1.624   7.167
    1STR   C30231306   1.445   1.546   7.016
    1STR   H30331307   1.413   1.450   6.976
    1STR   H30431308   1.495   1.602   6.936
    1STR   H30531309   1.356   1.602   7.044
    1STR   C30631310   1.466   1.467   7.258
    1STR   H30731311   1.365   1.506   7.265
    1STR   H30831312   1.456   1.359   7.243
    1STR   O30931313   1.539   1.486   7.380
    1STR    H1R31314   1.372   1.580   7.465
    1STR    H1S31315   1.467   1.589   7.690
    1STR    H1T31316   1.618   1.525   7.630
    1STR    H1U31317   1.475   1.424   7.627
    1STR    H1V31318   1.506   1.788   7.532
    1STR    H1W31319   1.490   1.757   7.362
    1STR    H1X31320   1.901   1.718   7.415
    1STR    H1Y31321   2.117   1.794   7.374
    1STR    H1Z31322   2.274   1.902   7.221
    1STR    H2031323   2.319   1.923   6.921
    1STR    H2131324   2.195   2.050   6.909
    1STR    H2231325   2.306   2.038   7.043
    1STR    H2331326   2.082   1.889   6.821
    1STR    H2731327   1.819   1.798   7.067
    1STR    H2831328   2.041   0.827   7.821
    1STR    H2931329   1.821   0.717   7.777
    1STR    H2A31330   1.745   0.510   7.495
    1STR    H2B31331   1.683   0.569   7.649
    1STR    H2C31332   1.760   0.410   7.639
    1STR   BCK131333   2.731   2.723   0.038
    1STR    O0331334   2.783   2.830   0.061
    1STR    N0431335   2.749   2.658   9.248
    1STR    C0531336   2.810   2.690   9.128
    1STR    C0631337   2.855   2.815   9.088
    1STR    C0731338   2.892   2.839   8.954
    1STR    N0831339   2.935   2.963   8.911
    1STR    C0931340   2.893   3.016   8.797
    1STR    O0A31341   2.953   3.105   8.738
    1STR    O0B31342   2.775   2.964   8.758
    1STR    C0C31343   2.659   2.999   8.831
    1STR    C0D31344   2.647   3.150   8.809
    1STR    C0E31345   2.530   2.938   8.777
    1STR    O0F31346   2.481   2.807   8.806
    1STR    C0G31347   2.434   2.775   8.937
    1STR    C0H31348   2.552   2.724   9.008
    1STR    C0I31349   2.371   2.885   9.015
    1STR    O0J31350   2.258   2.925   8.945
    1STR    C0K31351   2.293   4.395   0.217
    1STR    C0M31352   2.219   4.404   0.346
    1STR    C0N31353   2.437   4.403   0.258
    1STR    O0O31354   2.506   4.387   0.143
    1STR    C0P31355   2.631   4.373   0.147
    1STR    O0Q31356   2.695   4.366   0.249
    1STR    N0R31357   2.680   4.356   0.027
    1STR    C0S31358   2.633   4.410   9.230
    1STR    C0T31359   2.707   4.391   9.115
    1STR    C0U31360   2.703   4.490   9.017
    1STR    C0V31361   2.595   4.578   9.008
    1STR    C0W31362   2.600   4.704   8.926
    1STR    C0X31363   2.497   4.562   9.104
    1STR    N0Y31364   2.370   4.605   9.092
    1STR   BCK231365   2.281   4.508   9.106
    1STR    O1031366   2.195   4.514   9.190
    1STR    C1331367   2.526   4.497   9.223
    1STR    C1431368   2.888   2.733   8.861
    1STR    C1531369   2.852   2.606   8.904
    1STR    C1631370   2.815   2.586   9.038
    1STR    C1731371   2.781   2.452   9.089
    1STR    H1B31372   2.722   2.561   9.257
    1STR    H1C31373   2.861   2.888   9.165
    1STR    H1D31374   3.002   3.017   8.963
    1STR    H1E31375   2.669   2.978   8.937
    1STR    H1F31376   2.674   3.182   8.711
    1STR    H1G31377   2.548   3.185   8.833
    1STR    H1H31378   2.719   3.205   8.868
    1STR    H1I31379   2.540   2.942   8.670
    1STR    H1J31380   2.448   3.002   8.806
    1STR    H1K31381   2.362   2.694   8.936
    1STR    H1M31382   2.638   2.744   8.946
    1STR    H1N31383   2.545   2.617   9.022
    1STR    H1O31384   2.566   2.772   9.104
    1STR    H1P31385   2.349   2.853   9.116
    1STR    H1Q31386   2.441   2.966   9.019
    1STR   C01031387   2.176   3.011   9.016
    1STR   H01131388   2.245   3.086   9.052
    1STR   C01231389   2.070   3.082   8.933
    1STR   H01331390   2.012   3.014   8.872
    1STR   H01431391   2.116   3.155   8.867
    1STR   H01531392   1.999   3.133   8.997
    1STR   C01631393   2.112   2.936   9.131
    1STR   H01731394   2.010   2.971   9.142
    1STR   H01831395   2.110   2.828   9.114
    1STR   O01931396   2.191   2.972   9.241
    1STR   C02031397   2.121   2.961   0.041
    1STR   H02131398   2.016   2.977   0.030
    1STR   C02231399   2.155   2.823   0.093
    1STR   H02331400   2.109   2.750   0.028
    1STR   H02431401   2.118   2.802   0.192
    1STR   H02531402   2.262   2.806   0.093
    1STR   C02631403   2.152   3.076   0.130
    1STR   H02731404   2.258   3.095   0.130
    1STR   H02831405   2.103   3.167   0.097
    1STR   O02931406   2.104   3.036   0.255
    1STR   C03031407   2.176   3.090   0.361
    1STR   H03131408   2.194   3.195   0.347
    1STR   C03231409   2.076   3.079   0.476
    1STR   H03331410   2.058   2.979   0.510
    1STR   H03431411   1.977   3.111   0.445
    1STR   H03531412   2.106   3.144   0.558
    1STR   C03631413   2.312   3.020   0.379
    1STR   H03731414   2.386   3.089   0.419
    1STR   H03831415   2.295   2.951   0.458
    1STR   O03931416   2.358   2.941   0.267
    1STR   C04031417   2.477   2.988   0.206
    1STR   H04131418   2.460   3.093   0.203
    1STR   C04231419   2.595   2.951   0.292
    1STR   H04331420   2.597   2.847   0.318
    1STR   H04431421   2.593   3.013   0.381
    1STR   H04531422   2.689   2.966   0.242
    1STR   C04631423   2.505   2.959   0.058
    1STR   H04731424   2.525   2.856   0.046
    1STR   H04831425   2.415   2.979   0.001
    1STR   O04931426   2.621   3.035   0.020
    1STR   C05031427   2.661   3.055   9.205
    1STR   H05131428   2.661   2.960   9.155
    1STR   C05231429   2.551   3.137   9.147
    1STR   H05331430   2.557   3.238   9.184
    1STR   H05431431   2.452   3.100   9.166
    1STR   H05531432   2.560   3.143   9.041
    1STR   C05631433   2.795   3.137   9.183
    1STR   H05731434   2.830   3.190   9.269
    1STR   H05831435   2.881   3.076   9.162
    1STR   O05931436   2.790   3.227   9.073
    1STR   C06031437   2.776   3.364   9.106
    1STR   H06131438   2.734   3.377   9.206
    1STR   C06231439   2.917   3.422   9.103
    1STR   H06331440   2.962   3.408   9.004
    1STR   H06431441   2.980   3.372   9.176
    1STR   H06531442   2.919   3.529   9.125
    1STR   C06631443   2.679   3.438   9.011
    1STR   H06731444   2.636   3.517   9.071
    1STR   H06831445   2.729   3.480   8.924
    1STR   O06931446   2.567   3.364   8.970
    1STR   C07031447   2.457   3.434   8.915
    1STR   H07131448   2.445   3.529   8.967
    1STR   C07231449   2.476   3.450   8.763
    1STR   H07331450   2.496   3.356   8.715
    1STR   H07431451   2.562   3.514   8.742
    1STR   H07531452   2.388   3.490   8.714
    1STR   C07631453   2.331   3.354   8.946
    1STR   H07731454   2.242   3.417   8.942
    1STR   H07831455   2.318   3.274   8.874
    1STR   O07931456   2.351   3.289   9.070
    1STR   C08031457   2.287   3.342   9.182
    1STR   H08131458   2.293   3.448   9.169
    1STR   C08231459   2.144   3.287   9.167
    1STR   H08331460   2.139   3.184   9.193
    1STR   H08431461   2.103   3.304   9.069
    1STR   H08531462   2.068   3.320   9.234
    1STR   C08631463   2.355   3.306   9.318
    1STR   H08731464   2.278   3.323   0.070
    1STR   H08831465   2.376   3.201   0.004
    1STR   O08931466   2.472   3.380   0.035
    1STR   C09031467   2.534   3.359   0.164
    1STR   H09131468   2.566   3.460   0.183
    1STR   C09231469   2.440   3.330   0.282
    1STR   H09331470   2.363   3.262   0.254
    1STR   H09431471   2.390   3.420   0.319
    1STR   H09531472   2.493   3.284   0.365
    1STR   C09631473   2.660   3.265   0.159
    1STR   H09731474   2.636   3.171   0.197
    1STR   H09831475   2.678   3.257   0.054
    1STR   O09931476   2.786   3.287   0.225
    1STR   C10031477   2.860   3.178   0.283
    1STR   H10131478   2.794   3.116   0.342
    1STR   C10231479   2.927   3.099   0.171
    1STR   H10331480   2.991   3.162   0.109
    1STR   H10431481   2.853   3.052   0.108
    1STR   H10531482   2.988   3.018   0.210
    1STR   C10631483   2.970   3.222   0.382
    1STR   H10731484   3.013   3.129   0.414
    1STR   H10831485   3.045   3.283   0.331
    1STR   O10931486   2.930   3.275   0.508
    1STR   C11031487   3.011   3.379   0.566
    1STR   H11131488   2.964   3.398   0.662
    1STR   C11231489   3.154   3.336   0.596
    1STR   H11331490   3.213   3.333   0.504
    1STR   H11431491   3.157   3.240   0.646
    1STR   H11531492   3.203   3.409   0.661
    1STR   C11631493   3.006   3.512   0.491
    1STR   H11731494   2.957   3.589   0.550
    1STR   H11831495   3.107   3.550   0.472
    1STR   O11931496   2.946   3.495   0.365
    1STR   C12031497   2.808   3.527   0.361
    1STR   H12131498   2.801   3.623   0.405
    1STR   C12231499   2.779   3.557   0.212
    1STR   H12331500   2.768   3.482   0.136
    1STR   H12431501   2.869   3.598   0.173
    1STR   H12531502   2.698   3.628   0.200
    1STR   C12631503   2.710   3.438   0.446
    1STR   H12731504   2.611   3.456   0.413
    1STR   H12831505   2.721   3.332   0.429
    1STR   O12931506   2.720   3.457   0.587
    1STR   C13031507   2.642   3.367   0.666
    1STR   H13131508   2.642   3.267   0.623
    1STR   C13231509   2.708   3.359   0.804
    1STR   H13331510   2.713   3.457   0.851
    1STR   H13431511   2.809   3.318   0.796
    1STR   H13531512   2.653   3.292   0.870
    1STR   C13631513   2.497   3.416   0.675
    1STR   H13731514   2.501   3.523   0.690
    1STR   H13831515   2.446   3.395   0.581
    1STR   O13931516   2.429   3.359   0.786
    1STR   C14031517   2.289   3.337   0.773
    1STR   H14131518   2.269   3.284   0.680
    1STR   C14231519   2.257   3.248   0.892
    1STR   H14331520   2.325   3.164   0.893
    1STR   H14431521   2.155   3.212   0.885
    1STR   H14531522   2.269   3.301   0.987
    1STR   C14631523   2.200   3.463   0.784
    1STR   H14731524   2.148   3.469   0.879
    1STR   H14831525   2.264   3.550   0.785
    1STR   O14931526   2.107   3.471   0.676
    1STR   C15031527   1.993   3.386   0.685
    1STR   H15131528   2.021   3.287   0.720
    1STR   C15231529   1.891   3.451   0.779
    1STR   H15331530   1.871   3.554   0.749
    1STR   H15431531   1.926   3.453   0.882
    1STR   H15531532   1.796   3.397   0.778
    1STR   C15631533   1.929   3.367   0.546
    1STR   H15731534   1.863   3.280   0.545
    1STR   H15831535   1.868   3.454   0.527
    1STR   O15931536   2.027   3.357   0.442
    1STR   C16031537   1.983   3.343   0.306
    1STR   H16131538   1.988   3.240   0.274
    1STR   C16231539   1.836   3.374   0.282
    1STR   H16331540   1.798   3.460   0.336
    1STR   H16431541   1.774   3.289   0.310
    1STR   H16531542   1.824   3.396   0.176
    1STR   C16631543   2.088   3.419   0.222
    1STR   H16731544   2.100   3.515   0.262
    1STR   H16831545   2.184   3.377   0.241
    1STR   O16931546   2.068   3.444   0.084
    1STR   C17031547   2.126   3.565   0.030
    1STR   H17131548   2.078   3.640   0.089
    1STR   C17231549   2.272   3.601   0.064
    1STR   H17331550   2.310   3.544   0.148
    1STR   H17431551   2.278   3.705   0.095
    1STR   H17531552   2.342   3.592   9.302
    1STR   C17631553   2.084   3.593   9.203
    1STR   H17731554   2.050   3.694   9.200
    1STR   H17831555   2.165   3.596   9.131
    1STR   O17931556   1.976   3.513   9.158
    1STR   C18031557   1.888   3.571   9.064
    1STR   H18131558   1.885   3.679   9.073
    1STR   C18231559   1.938   3.540   8.922
    1STR   H18331560   1.967   3.436   8.911
    1STR   H18431561   2.028   3.597   8.901
    1STR   H18531562   1.863   3.565   8.847
    1STR   C18631563   1.747   3.524   9.107
    1STR   H18731564   1.671   3.582   9.055
    1STR   H18831565   1.729   3.424   9.072
    1STR   O18931566   1.727   3.525   9.251
    1STR   C19031567   1.757   3.647   9.318
    1STR   H19131568   1.856   3.668   9.287
    1STR   C19231569   1.663   3.755   9.262
    1STR   H19331570   1.558   3.729   9.278
    1STR   H19431571   1.681   3.770   9.157
    1STR   H19531572   1.683   3.852   9.305
    1STR   C19631573   1.769   3.652   0.155
    1STR   H19731574   1.749   3.754   0.176
    1STR   H19831575   1.689   3.594   0.201
    1STR   O19931576   1.898   3.634   0.220
    1STR   C20031577   1.942   3.718   0.331
    1STR   H20131578   1.954   3.816   0.289
    1STR   C20231579   1.830   3.731   0.437
    1STR   H20331580   1.845   3.662   0.520
    1STR   H20431581   1.730   3.713   0.400
    1STR   H20531582   1.831   3.831   0.480
    1STR   C20631583   2.078   3.684   0.409
    1STR   H20731584   2.072   3.739   0.500
    1STR   H20831585   2.070   3.585   0.452
    1STR   O20931586   2.213   3.691   0.347
    1STR   C21031587   2.332   3.722   0.428
    1STR   H21131588   2.335   3.827   0.443
    1STR   C21231589   2.315   3.664   0.567
    1STR   H21331590   2.306   3.556   0.556
    1STR   H21431591   2.228   3.699   0.622
    1STR   H21531592   2.398   3.691   0.631
    1STR   C21631593   2.477   3.686   0.376
    1STR   H21731594   2.520   3.624   0.452
    1STR   H21831595   2.464   3.626   0.287
    1STR   O21931596   2.585   3.779   0.341
    1STR   C22031597   2.685   3.836   0.433
    1STR   H22131598   2.647   3.934   0.456
    1STR   C22231599   2.690   3.780   0.577
    1STR   H22331600   2.738   3.684   0.588
    1STR   H22431601   2.592   3.773   0.622
    1STR   H22531602   2.748   3.848   0.639
    1STR   C22631603   2.830   3.869   0.374
    1STR   H22731604   2.843   3.975   0.353
    1STR   H22831605   2.901   3.851   0.455
    1STR   O22931606   2.887   3.797   0.264
    1STR   C23031607   2.914   3.852   0.133
    1STR   H23131608   2.960   3.950   0.142
    1STR   C23231609   3.018   3.762   0.062
    1STR   H23331610   2.978   3.670   0.022
    1STR   H23431611   3.102   3.738   0.127
    1STR   H23531612   3.056   3.814   9.294
    1STR   C23631613   2.789   3.865   0.045
    1STR   H23731614   2.711   3.810   0.095
    1STR   H23831615   2.758   3.969   0.041
    1STR   O23931616   2.806   3.831   9.227
    1STR   C24031617   2.714   3.739   9.170
    1STR   H24131618   2.745   3.640   9.202
    1STR   C24231619   2.568   3.757   9.214
    1STR   H24331620   2.499   3.695   9.158
    1STR   H24431621   2.544   3.861   9.194
    1STR   H24531622   2.548   3.731   9.317
    1STR   C24631623   2.723   3.758   9.017
    1STR   H24731624   2.742   3.863   8.995
    1STR   H24831625   2.810   3.706   8.979
    1STR   O24931626   2.605   3.711   8.950
    1STR   C25031627   2.530   3.806   8.876
    1STR   H25131628   2.532   3.900   8.930
    1STR   C25231629   2.602   3.815   8.740
    1STR   H25331630   2.592   3.723   8.684
    1STR   H25431631   2.709   3.832   8.754
    1STR   H25531632   2.567   3.896   8.677
    1STR   C25631633   2.380   3.767   8.863
    1STR   H25731634   2.330   3.831   8.792
    1STR   H25831635   2.371   3.670   8.818
    1STR   O25931636   2.308   3.762   8.987
    1STR   C26031637   2.236   3.881   9.016
    1STR   H26131638   2.287   3.962   8.964
    1STR   C26231639   2.093   3.877   8.967
    1STR   H26331640   2.029   3.829   9.039
    1STR   H26431641   2.083   3.823   8.874
    1STR   H26531642   2.055   3.979   8.955
    1STR   C26631643   2.247   3.921   9.163
    1STR   H26731644   2.348   3.898   9.191
    1STR   H26831645   2.235   4.028   9.166
    1STR   O26931646   2.170   3.863   9.268
    1STR   C27031647   2.085   3.952   0.020
    1STR   H27131648   2.074   4.044   9.284
    1STR   C27231649   1.950   3.888   0.014
    1STR   H27331650   1.966   3.797   0.066
    1STR   H27431651   1.916   3.873   9.232
    1STR   H27531652   1.872   3.932   0.074
    1STR   C27631653   2.111   3.995   0.168
    1STR   H27731654   2.134   4.099   0.157
    1STR   H27831655   2.019   3.993   0.223
    1STR   O27931656   2.199   3.941   0.264
    1STR   C28031657   2.200   4.027   0.380
    1STR   H28131658   2.147   4.120   0.361
    1STR   C28231659   2.129   3.974   0.505
    1STR   H28331660   2.183   3.899   0.559
    1STR   H28431661   2.029   3.940   0.485
    1STR   H28531662   2.125   4.051   0.578
    1STR   C28631663   2.340   4.068   0.425
    1STR   H28731664   2.354   4.175   0.421
    1STR   H28831665   2.349   4.038   0.527
    1STR   O28931666   2.448   4.002   0.368
    1STR   C29031667   2.485   4.056   0.247
    1STR   H29131668   2.438   4.151   0.236
    1STR   C29231669   2.631   4.081   0.247
    1STR   H29331670   2.676   3.986   0.237
    1STR   H29431671   2.666   4.135   0.334
    1STR   H29531672   2.658   4.131   0.156
    1STR   C29631673   2.449   3.967   0.130
    1STR   H29731674   2.535   3.942   0.071
    1STR   H29831675   2.405   3.873   0.164
    1STR   O29931676   2.359   4.038   0.051
    1STR   C30031677   2.407   4.156   9.313
    1STR   H30131678   2.493   4.190   0.044
    1STR   C30231679   2.471   4.136   9.177
    1STR   H30331680   2.415   4.092   9.097
    1STR   H30431681   2.561   4.077   9.194
    1STR   H30531682   2.504   4.230   9.137
    1STR   C30631683   2.296   4.259   0.017
    1STR   H30731684   2.330   4.353   9.299
    1STR   H30831685   2.206   4.231   9.285
    1STR   O30931686   2.263   4.272   0.155
    1STR    H1R31687   2.261   4.474   0.151
    1STR    H1S31688   2.164   4.494   0.349
    1STR    H1T31689   2.286   4.413   0.430
    1STR    H1U31690   2.151   4.322   0.361
    1STR    H1V31691   2.468   4.331   0.333
    1STR    H1W31692   2.466   4.499   0.293
    1STR    H1X31693   2.781   4.342   0.040
    1STR    H1Y31694   2.783   4.317   9.117
    1STR    H1Z31695   2.790   4.501   8.958
    1STR    H2031696   2.615   4.689   8.820
    1STR    H2131697   2.508   4.759   8.941
    1STR    H2231698   2.679   4.768   8.966
    1STR    H2331699   2.354   4.694   9.135
    1STR    H2731700   2.460   4.519   9.304
    1STR    H2831701   2.915   2.748   8.758
    1STR    H2931702   2.851   2.524   8.835
    1STR    H2A31703   2.675   2.430   9.091
    1STR    H2B31704   2.825   2.441   9.188
    1STR    H2C31705   2.834   2.393   9.019
    1STR   BCK131706   1.975   2.595   2.575
    1STR    O0331707   1.985   2.545   2.684
    1STR    N0431708   1.900   2.703   2.550
    1STR    C0531709   1.824   2.781   2.636
    1STR    C0631710   1.835   2.779   2.778
    1STR    C0731711   1.745   2.851   2.862
    1STR    N0831712   1.765   2.855   3.000
    1STR    C0931713   1.715   2.938   3.091
    1STR    O0A31714   1.610   3.002   3.084
    1STR    O0B31715   1.804   2.956   3.188
    1STR    C0C31716   1.857   3.087   3.205
    1STR    C0D31717   1.856   3.126   3.354
    1STR    C0E31718   1.997   3.087   3.143
    1STR    O0F31719   1.984   3.122   3.007
    1STR    C0G31720   2.029   3.025   2.914
    1STR    C0H31721   1.972   3.066   2.780
    1STR    C0I31722   2.180   3.017   2.908
    1STR    O0J31723   2.210   2.895   2.843
    1STR    C0K31724   2.381   3.971   2.250
    1STR    C0M31725   2.358   4.046   2.122
    1STR    C0N31726   2.319   3.834   2.265
    1STR    O0O31727   2.241   3.839   2.382
    1STR    C0P31728   2.133   3.912   2.382
    1STR    O0Q31729   2.083   3.966   2.283
    1STR    N0R31730   2.096   3.932   2.507
    1STR    C0S31731   1.985   3.999   2.554
    1STR    C0T31732   1.985   4.050   2.684
    1STR    C0U31733   1.867   4.103   2.739
    1STR    C0V31734   1.752   4.118   2.659
    1STR    C0W31735   1.624   4.158   2.724
    1STR    C0X31736   1.761   4.091   2.520
    1STR    N0Y31737   1.667   4.126   2.426
    1STR   BCK231738   1.710   4.159   2.303
    1STR    O1031739   1.797   4.242   2.284
    1STR    C1331740   1.874   4.021   2.474
    1STR    C1431741   1.650   2.931   2.800
    1STR    C1531742   1.647   2.945   2.661
    1STR    C1631743   1.734   2.873   2.580
    1STR    C1731744   1.729   2.902   2.432
    1STR    H1B31745   1.922   2.748   2.463
    1STR    H1C31746   1.916   2.725   2.822
    1STR    H1D31747   1.845   2.804   3.034
    1STR    H1E31748   1.796   3.160   3.152
    1STR    H1F31749   1.922   3.064   3.413
    1STR    H1G31750   1.888   3.229   3.367
    1STR    H1H31751   1.756   3.116   3.395
    1STR    H1I31752   2.045   2.990   3.152
    1STR    H1J31753   2.063   3.159   3.190
    1STR    H1K31754   1.993   2.926   2.941
    1STR    H1M31755   1.997   3.169   2.756
    1STR    H1N31756   1.865   3.065   2.779
    1STR    H1O31757   2.006   2.999   2.701
    1STR    H1P31758   2.221   3.102   2.856
    1STR    H1Q31759   2.223   3.016   3.007
    1STR   C01031760   2.274   2.904   2.718
    1STR   H01131761   2.232   2.986   2.665
    1STR   C01231762   2.424   2.929   2.729
    1STR   H01331763   2.476   2.841   2.763
    1STR   H01431764   2.445   3.009   2.800
    1STR   H01531765   2.466   2.961   2.634
    1STR   C01631766   2.228   2.782   2.640
    1STR   H01731767   2.308   2.730   2.587
    1STR   H01831768   2.184   2.708   2.706
    1STR   O01931769   2.130   2.837   2.554
    1STR   C02031770   2.152   2.818   2.417
    1STR   H02131771   2.172   2.717   2.394
    1STR   C02231772   2.033   2.865   2.336
    1STR   H02331773   2.000   2.961   2.367
    1STR   H02431774   1.951   2.795   2.329
    1STR   H02531775   2.062   2.880   2.235
    1STR   C02631776   2.278   2.881   2.373
    1STR   H02731777   2.251   2.975   2.331
    1STR   H02831778   2.349   2.902   2.451
    1STR   O02931779   2.328   2.792   2.276
    1STR   C03031780   2.364   2.865   2.165
    1STR   H03131781   2.395   2.961   2.204
    1STR   C03231782   2.505   2.843   2.128
    1STR   H03331783   2.532   2.903   2.042
    1STR   H03431784   2.514   2.737   2.112
    1STR   H03531785   2.576   2.871   2.205
    1STR   C03631786   2.253   2.889   2.059
    1STR   H03731787   2.214   2.975   2.109
    1STR   H03831788   2.296   2.923   1.966
    1STR   O03931789   2.128   2.822   2.035
    1STR   C04031790   2.028   2.918   1.987
    1STR   H04131791   2.035   3.010   2.041
    1STR   C04231792   2.050   2.947   1.838
    1STR   H04331793   2.004   2.869   1.777
    1STR   H04431794   2.155   2.951   1.812
    1STR   H04531795   2.010   3.043   1.807
    1STR   C04631796   1.882   2.886   2.023
    1STR   H04731797   1.823   2.865   1.934
    1STR   H04831798   1.888   2.795   2.082
    1STR   O04931799   1.813   2.978   2.112
    1STR   C05031800   1.792   3.115   2.075
    1STR   H05131801   1.886   3.169   2.087
    1STR   C05231802   1.743   3.129   1.930
    1STR   H05331803   1.659   3.063   1.909
    1STR   H05431804   1.822   3.109   1.859
    1STR   H05531805   1.711   3.232   1.909
    1STR   C05631806   1.686   3.184   2.165
    1STR   H05731807   1.684   3.289   2.138
    1STR   H05831808   1.588   3.142   2.144
    1STR   O05931809   1.708   3.172   2.305
    1STR   C06031810   1.658   3.279   2.387
    1STR   H06131811   1.719   3.366   2.369
    1STR   C06231812   1.511   3.312   2.356
    1STR   H06331813   1.448   3.223   2.365
    1STR   H06431814   1.498   3.353   2.255
    1STR   H06531815   1.473   3.387   2.425
    1STR   C06631816   1.672   3.239   2.536
    1STR   H06731817   1.574   3.219   2.578
    1STR   H06831818   1.730   3.148   2.542
    1STR   O06931819   1.747   3.328   2.617
    1STR   C07031820   1.697   3.363   2.746
    1STR   H07131821   1.615   3.431   2.726
    1STR   C07231822   1.642   3.253   2.837
    1STR   H07331823   1.720   3.184   2.868
    1STR   H07431824   1.561   3.197   2.792
    1STR   H07531825   1.603   3.296   2.929
    1STR   C07631826   1.809   3.438   2.820
    1STR   H07731827   1.851   3.506   2.746
    1STR   H07831828   1.766   3.495   2.902
    1STR   O07931829   1.913   3.358   2.874
    1STR   C08031830   2.013   3.430   2.947
    1STR   H08131831   2.028   3.527   2.903
    1STR   C08231832   1.973   3.448   3.093
    1STR   H08331833   1.955   3.351   3.140
    1STR   H08431834   1.881   3.505   3.102
    1STR   H08531835   2.050   3.500   3.150
    1STR   C08631836   2.153   3.373   2.925
    1STR   H08731837   2.228   3.439   2.969
    1STR   H08831838   2.164   3.276   2.972
    1STR   O08931839   2.169   3.369   2.785
    1STR   C09031840   2.292   3.329   2.726
    1STR   H09131841   2.324   3.408   2.662
    1STR   C09231842   2.410   3.297   2.821
    1STR   H09331843   2.388   3.221   2.895
    1STR   H09431844   2.440   3.387   2.874
    1STR   H09531845   2.496   3.263   2.764
    1STR   C09631846   2.259   3.227   2.620
    1STR   H09731847   2.342   3.160   2.604
    1STR   H09831848   2.176   3.173   2.661
    1STR   O09931849   2.215   3.279   2.495
    1STR   C10031850   2.136   3.184   2.425
    1STR   H10131851   2.166   3.088   2.462
    1STR   C10231852   1.992   3.192   2.474
    1STR   H10331853   1.981   3.267   2.552
    1STR   H10431854   1.958   3.099   2.518
    1STR   H10531855   1.924   3.214   2.393
    1STR   C10631856   2.148   3.190   2.269
    1STR   H10731857   2.089   3.112   2.224
    1STR   H10831858   2.101   3.281   2.240
    1STR   O10931859   2.285   3.182   2.227
    1STR   C11031860   2.338   3.183   2.092
    1STR   H11131861   2.374   3.088   2.065
    1STR   C11231862   2.248   3.188   1.965
    1STR   H11331863   2.233   3.283   1.915
    1STR   H11431864   2.148   3.157   1.985
    1STR   H11531865   2.285   3.124   1.885
    1STR   C11631866   2.484   3.223   2.095
    1STR   H11731867   2.525   3.209   1.996
    1STR   H11831868   2.497   3.327   2.124
    1STR   O11931869   2.559   3.132   2.177
    1STR   C12031870   2.611   3.190   2.294
    1STR   H12131871   2.653   3.284   2.262
    1STR   C12231872   2.504   3.206   2.400
    1STR   H12331873   2.446   3.115   2.410
    1STR   H12431874   2.435   3.286   2.371
    1STR   H12531875   2.545   3.232   2.497
    1STR   C12631876   2.723   3.106   2.354
    1STR   H12731877   2.764   3.151   2.445
    1STR   H12831878   2.681   3.011   2.382
    1STR   O12931879   2.826   3.081   2.263
    1STR   C13031880   2.898   3.196   2.224
    1STR   H13131881   2.867   3.287   2.275
    1STR   C13231882   3.042   3.164   2.264
    1STR   H13331883   3.063   3.058   2.255
    1STR   H13431884   3.059   3.190   2.369
    1STR   H13531885   3.115   3.216   2.203
    1STR   C13631886   2.870   3.212   2.074
    1STR   H13731887   2.957   3.178   2.022
    1STR   H13831888   2.783   3.154   2.044
    1STR   O13931889   2.850   3.344   2.035
    1STR   C14031890   2.842   3.363   1.894
    1STR   H14131891   2.861   3.467   1.887
    1STR   C14231892   2.960   3.306   1.813
    1STR   H14331893   2.959   3.198   1.805
    1STR   H14431894   3.055   3.337   1.857
    1STR   H14531895   2.958   3.346   1.711
    1STR   C14631896   2.701   3.351   1.834
    1STR   H14731897   2.701   3.399   1.736
    1STR   H14831898   2.671   3.249   1.821
    1STR   O14931899   2.602   3.408   1.919
    1STR   C15031900   2.484   3.450   1.854
    1STR   H15131901   2.513   3.531   1.788
    1STR   C15231902   2.425   3.350   1.758
    1STR   H15331903   2.432   3.247   1.793
    1STR   H15431904   2.482   3.355   1.667
    1STR   H15531905   2.322   3.375   1.735
    1STR   C15631906   2.383   3.514   1.952
    1STR   H15731907   2.434   3.583   2.017
    1STR   H15831908   2.315   3.566   1.887
    1STR   O15931909   2.308   3.439   2.045
    1STR   C16031910   2.191   3.501   2.096
    1STR   H16131911   2.192   3.601   2.061
    1STR   C16231912   2.058   3.434   2.050
    1STR   H16331913   2.058   3.327   2.051
    1STR   H16431914   2.027   3.459   1.950
    1STR   H16531915   1.977   3.460   2.117
    1STR   C16631916   2.204   3.525   2.244
    1STR   H16731917   2.209   3.437   2.307
    1STR   H16831918   2.300   3.572   2.260
    1STR   O16931919   2.102   3.616   2.282
    1STR   C17031920   2.054   3.609   2.416
    1STR   H17131921   1.997   3.700   2.432
    1STR   C17231922   1.948   3.501   2.425
    1STR   H17331923   1.978   3.416   2.366
    1STR   H17431924   1.853   3.536   2.388
    1STR   H17531925   1.930   3.473   2.529
    1STR   C17631926   2.158   3.605   2.529
    1STR   H17731927   2.153   3.702   2.577
    1STR   H17831928   2.126   3.534   2.605
    1STR   O17931929   2.293   3.575   2.492
    1STR   C18031930   2.400   3.624   2.573
    1STR   H18131931   2.432   3.719   2.529
    1STR   C18231932   2.353   3.646   2.719
    1STR   H18331933   2.276   3.582   2.758
    1STR   H18431934   2.306   3.743   2.722
    1STR   H18531935   2.434   3.641   2.791
    1STR   C18631936   2.517   3.523   2.561
    1STR   H18731937   2.545   3.484   2.658
    1STR   H18831938   2.480   3.440   2.504
    1STR   O18931939   2.636   3.575   2.502
    1STR   C19031940   2.692   3.504   2.392
    1STR   H19131941   2.690   3.400   2.421
    1STR   C19231942   2.603   3.538   2.273
    1STR   H19331943   2.502   3.502   2.287
    1STR   H19431944   2.640   3.493   2.181
    1STR   H19531945   2.597   3.645   2.260
    1STR   C19631946   2.842   3.539   2.369
    1STR   H19731947   2.863   3.632   2.418
    1STR   H19831948   2.905   3.466   2.421
    1STR   O19931949   2.881   3.548   2.231
    1STR   C20031950   3.014   3.598   2.207
    1STR   H20131951   3.046   3.659   2.292
    1STR   C20231952   3.109   3.480   2.201
    1STR   H20331953   3.082   3.416   2.117
    1STR   H20431954   3.104   3.423   2.293
    1STR   H20531955   3.213   3.512   2.187
    1STR   C20631956   3.031   3.689   2.080
    1STR   H20731957   3.009   3.792   2.099
    1STR   H20831958   3.137   3.692   2.057
    1STR   O20931959   2.968   3.645   1.961
    1STR   C21031960   2.856   3.720   1.910
    1STR   H21131961   2.873   3.826   1.928
    1STR   C21231962   2.855   3.697   1.757
    1STR   H21331963   2.851   3.593   1.727
    1STR   H21431964   2.944   3.740   1.712
    1STR   H21531965   2.767   3.742   1.711
    1STR   C21631966   2.723   3.676   1.977
    1STR   H21731967   2.728   3.573   2.004
    1STR   H21831968   2.714   3.720   2.075
    1STR   O21931969   2.605   3.703   1.899
    1STR   C22031970   2.514   3.800   1.950
    1STR   H22131971   2.488   3.780   2.053
    1STR   C22231972   2.600   3.923   1.938
    1STR   H22331973   2.548   4.015   1.959
    1STR   H22431974   2.629   3.921   1.835
    1STR   H22531975   2.691   3.926   1.995
    1STR   C22631976   2.379   3.811   1.872
    1STR   H22731977   2.367   3.913   1.838
    1STR   H22831978   2.384   3.749   1.783
    1STR   O22931979   2.263   3.782   1.954
    1STR   C23031980   2.127   3.799   1.905
    1STR   H23131981   2.120   3.901   1.871
    1STR   C23231982   2.104   3.695   1.794
    1STR   H23331983   2.119   3.594   1.829
    1STR   H23431984   2.172   3.706   1.713
    1STR   H23531985   2.003   3.695   1.756
    1STR   C23631986   2.019   3.776   2.016
    1STR   H23731987   2.004   3.670   2.025
    1STR   H23831988   2.052   3.811   2.113
    1STR   O23931989   1.888   3.827   1.992
    1STR   C24031990   1.774   3.755   2.047
    1STR   H24131991   1.694   3.827   2.063
    1STR   C24231992   1.721   3.664   1.936
    1STR   H24331993   1.795   3.592   1.904
    1STR   H24431994   1.692   3.724   1.849
    1STR   H24531995   1.631   3.611   1.968
    1STR   C24631996   1.787   3.681   2.184
    1STR   H24731997   1.712   3.603   2.192
    1STR   H24831998   1.880   3.627   2.187
    1STR   O24931999   1.790   3.762   2.301
    1STR   C25032000   1.674   3.775   2.385
    1STR   H25132001   1.665   3.882   2.394
    1STR   C25232002   1.539   3.733   2.324
    1STR   H25332003   1.530   3.625   2.314
    1STR   H25432004   1.524   3.780   2.227
    1STR   H25532005   1.458   3.765   2.388
    1STR   C25632006   1.686   3.726   2.533
    1STR   H25732007   1.605   3.776   2.584
    1STR   H25832008   1.666   3.619   2.538
    1STR   O25932009   1.809   3.749   2.603
    1STR   C26032010   1.805   3.778   2.745
    1STR   H26132011   1.796   3.884   2.755
    1STR   C26232012   1.678   3.733   2.821
    1STR   H26332013   1.641   3.637   2.788
    1STR   H26432014   1.597   3.804   2.804
    1STR   H26532015   1.694   3.730   2.928
    1STR   C26632016   1.938   3.738   2.816
    1STR   H26732017   1.914   3.694   2.912
    1STR   H26832018   1.984   3.663   2.753
    1STR   O26932019   2.047   3.831   2.829
    1STR   C27032020   2.090   3.888   2.955
    1STR   H27132021   2.088   3.996   2.943
    1STR   C27232022   2.001   3.859   3.077
    1STR   H27332023   2.007   3.754   3.107
    1STR   H27432024   1.898   3.885   3.057
    1STR   H27532025   2.034   3.919   3.162
    1STR   C27632026   2.239   3.855   2.982
    1STR   H27732027   2.268   3.903   3.076
    1STR   H27832028   2.252   3.748   2.995
    1STR   O27932029   2.325   3.901   2.878
    1STR   C28032030   2.468   3.905   2.898
    1STR   H28132031   2.491   4.009   2.915
    1STR   C28232032   2.519   3.820   3.017
    1STR   H28332033   2.628   3.822   3.020
    1STR   H28432034   2.489   3.716   3.008
    1STR   H28532035   2.484   3.858   3.113
    1STR   C28632036   2.548   3.868   2.771
    1STR   H28732037   2.596   3.772   2.782
    1STR   H28832038   2.484   3.858   2.686
    1STR   O28932039   2.642   3.967   2.735
    1STR   C29032040   2.762   3.919   2.680
    1STR   H29132041   2.797   4.002   2.621
    1STR   C29232042   2.849   3.872   2.799
    1STR   H29332043   2.802   3.790   2.853
    1STR   H29432044   2.865   3.952   2.871
    1STR   H29532045   2.945   3.833   2.767
    1STR   C29632046   2.767   3.815   2.569
    1STR   H29732047   2.870   3.807   2.537
    1STR   H29832048   2.744   3.722   2.618
    1STR   O29932049   2.682   3.838   2.456
    1STR   C30032050   2.733   3.921   2.351
    1STR   H30132051   2.773   4.014   2.389
    1STR   C30232052   2.842   3.855   2.275
    1STR   H30332053   2.808   3.758   2.249
    1STR   H30432054   2.935   3.848   2.330
    1STR   H30532055   2.858   3.909   2.181
    1STR   C30632056   2.622   3.944   2.249
    1STR   H30732057   2.647   4.026   2.181
    1STR   H30832058   2.607   3.853   2.195
    1STR   O30932059   2.505   3.970   2.315
    1STR    H1R32060   2.327   4.039   2.313
    1STR    H1S32061   2.345   3.983   2.037
    1STR    H1T32062   2.440   4.114   2.102
    1STR    H1U32063   2.264   4.099   2.127
    1STR    H1V32064   2.396   3.759   2.279
    1STR    H1W32065   2.256   3.806   2.183
    1STR    H1X32066   2.169   3.903   2.571
    1STR    H1Y32067   2.075   4.044   2.743
    1STR    H1Z32068   1.863   4.122   2.844
    1STR    H2032069   1.621   4.127   2.828
    1STR    H2132070   1.614   4.267   2.719
    1STR    H2232071   1.544   4.105   2.674
    1STR    H2332072   1.567   4.130   2.443
    1STR    H2732073   1.874   3.985   2.372
    1STR    H2832074   1.579   2.988   2.858
    1STR    H2932075   1.573   3.009   2.617
    1STR    H2A32076   1.805   2.975   2.406
    1STR    H2B32077   1.637   2.954   2.409
    1STR    H2C32078   1.739   2.815   2.369
    1STR   BCK132079   2.492   2.761   4.533
    1STR    O0332080   2.613   2.777   4.532
    1STR    N0432081   2.427   2.691   4.623
    1STR    C0532082   2.461   2.639   4.746
    1STR    C0632083   2.590   2.641   4.799
    1STR    C0732084   2.611   2.623   4.937
    1STR    N0832085   2.718   2.688   4.994
    1STR    C0932086   2.723   2.820   4.991
    1STR    O0A32087   2.803   2.888   5.054
    1STR    O0B32088   2.626   2.868   4.915
    1STR    C0C32089   2.645   2.978   4.837
    1STR    C0D32090   2.766   2.948   4.748
    1STR    C0E32091   2.515   3.011   4.762
    1STR    O0F32092   2.395   3.020   4.837
    1STR    C0G32093   2.293   2.923   4.829
    1STR    C0H32094   2.196   2.949   4.943
    1STR    C0I32095   2.214   2.914   4.695
    1STR    O0J32096   2.072   2.922   4.715
    1STR    C0K32097   2.094   4.133   4.932
    1STR    C0M32098   1.995   4.024   4.889
    1STR    C0N32099   2.134   4.232   4.821
    1STR    O0O32100   2.239   4.193   4.734
    1STR    C0P32101   2.214   4.148   4.611
    1STR    O0Q32102   2.105   4.117   4.566
    1STR    N0R32103   2.329   4.146   4.543
    1STR    C0S32104   2.354   4.127   4.408
    1STR    C0T32105   2.482   4.097   4.364
    1STR    C0U32106   2.513   4.093   4.228
    1STR    C0V32107   2.412   4.110   4.132
    1STR    C0W32108   2.444   4.085   3.987
    1STR    C0X32109   2.280   4.139   4.173
    1STR    N0Y32110   2.176   4.137   4.078
    1STR   BCK232111   2.047   4.108   4.103
    1STR    O1032112   1.991   4.124   4.210
    1STR    C1332113   2.255   4.146   4.312
    1STR    C1432114   2.504   2.593   5.021
    1STR    C1532115   2.374   2.592   4.969
    1STR    C1632116   2.355   2.605   4.831
    1STR    C1732117   2.214   2.605   4.780
    1STR    H1B32118   2.330   2.678   4.595
    1STR    H1C32119   2.670   2.681   4.740
    1STR    H1D32120   2.773   2.648   5.069
    1STR    H1E32121   2.671   3.051   4.911
    1STR    H1F32122   2.734   2.939   4.646
    1STR    H1G32123   2.839   3.028   4.751
    1STR    H1H32124   2.821   2.859   4.774
    1STR    H1I32125   2.499   2.949   4.676
    1STR    H1J32126   2.531   3.109   4.721
    1STR    H1K32127   2.347   2.835   4.854
    1STR    H1M32128   2.135   3.034   4.916
    1STR    H1N32129   2.246   2.972   5.035
    1STR    H1O32130   2.127   2.867   4.961
    1STR    H1P32131   2.253   2.981   4.620
    1STR    H1Q32132   2.228   2.820   4.646
    1STR   C01032133   1.991   2.954   4.603
    1STR   H01132134   2.020   3.052   4.583
    1STR   C01232135   2.023   2.873   4.476
    1STR   H01332136   2.022   2.766   4.491
    1STR   H01432137   2.123   2.895   4.438
    1STR   H01532138   1.953   2.900   4.397
    1STR   C01632139   1.841   2.984   4.631
    1STR   H01732140   1.806   3.077   4.587
    1STR   H01832141   1.777   2.913   4.581
    1STR   O01932142   1.816   2.982   4.770
    1STR   C02032143   1.820   3.103   4.840
    1STR   H02132144   1.893   3.167   4.793
    1STR   C02232145   1.687   3.181   4.837
    1STR   H02332146   1.611   3.133   4.898
    1STR   H02432147   1.649   3.192   4.736
    1STR   H02532148   1.699   3.281   4.878
    1STR   C02632149   1.870   3.067   4.981
    1STR   H02732150   1.898   2.963   4.989
    1STR   H02832151   1.966   3.110   4.994
    1STR   O02932152   1.782   3.108   5.085
    1STR   C03032153   1.839   3.167   5.203
    1STR   H03132154   1.854   3.274   5.191
    1STR   C03232155   1.727   3.148   5.306
    1STR   H03332156   1.706   3.042   5.320
    1STR   H03432157   1.635   3.195   5.271
    1STR   H03532158   1.753   3.192   5.402
    1STR   C03632159   1.969   3.100   5.250
    1STR   H03732160   1.973   3.094   5.358
    1STR   H03832161   1.952   2.999   5.216
    1STR   O03932162   2.096   3.139   5.192
    1STR   C04032163   2.176   3.247   5.245
    1STR   H04132164   2.178   3.327   5.172
    1STR   C04232165   2.122   3.303   5.378
    1STR   H04332166   2.117   3.230   5.458
    1STR   H04432167   2.023   3.347   5.367
    1STR   H04532168   2.189   3.380   5.415
    1STR   C04632169   2.325   3.207   5.255
    1STR   H04732170   2.359   3.225   5.357
    1STR   H04832171   2.332   3.101   5.240
    1STR   O04932172   2.421   3.280   5.177
    1STR   C05032173   2.460   3.230   5.049
    1STR   H05132174   2.465   3.123   5.049
    1STR   C05232175   2.347   3.253   4.949
    1STR   H05332176   2.276   3.175   4.961
    1STR   H05432177   2.381   3.253   4.846
    1STR   H05532178   2.280   3.334   4.962
    1STR   C05632179   2.606   3.270   5.010
    1STR   H05732180   2.631   3.364   5.056
    1STR   H05832181   2.670   3.202   5.065
    1STR   O05932182   2.638   3.264   4.868
    1STR   C06032183   2.772   3.293   4.821
    1STR   H06132184   2.785   3.400   4.830
    1STR   C06232185   2.882   3.239   4.915
    1STR   H06332186   2.878   3.132   4.931
    1STR   H06432187   2.876   3.285   5.013
    1STR   H06532188   2.981   3.264   4.877
    1STR   C06632189   2.798   3.278   4.665
    1STR   H06732190   2.755   3.367   4.621
    1STR   H06832191   2.905   3.284   4.645
    1STR   O06932192   2.744   3.166   4.592
    1STR   C07032193   2.730   3.168   4.448
    1STR   H07132194   2.683   3.257   4.414
    1STR   C07232195   2.864   3.175   4.384
    1STR   H07332196   2.910   3.094   4.434
    1STR   H07432197   2.920   3.265   4.406
    1STR   H07532198   2.863   3.153   4.278
    1STR   C07632199   2.645   3.045   4.406
    1STR   H07732200   2.708   2.964   4.438
    1STR   H07832201   2.559   3.039   4.470
    1STR   O07932202   2.614   3.000   4.271
    1STR   C08032203   2.535   3.074   4.177
    1STR   H08132204   2.563   3.174   4.193
    1STR   C08232205   2.604   3.036   4.045
    1STR   H08332206   2.597   2.930   4.028
    1STR   H08432207   2.710   3.062   4.049
    1STR   H08532208   2.559   3.088   3.960
    1STR   C08632209   2.378   3.066   4.156
    1STR   H08732210   2.353   3.148   4.089
    1STR   H08832211   2.357   2.978   4.096
    1STR   O08932212   2.282   3.066   4.263
    1STR   C09032213   2.174   3.164   4.257
    1STR   H09132214   2.232   3.253   4.242
    1STR   C09232215   2.067   3.148   4.147
    1STR   H09332216   1.999   3.065   4.163
    1STR   H09432217   2.110   3.143   4.048
    1STR   H09532218   1.998   3.232   4.150
    1STR   C09632219   2.097   3.171   4.390
    1STR   H09732220   2.002   3.118   4.380
    1STR   H09832221   2.160   3.113   4.456
    1STR   O09932222   2.067   3.299   4.447
    1STR   C10032223   2.019   3.299   4.583
    1STR   H10132224   1.926   3.243   4.586
    1STR   C10232225   2.122   3.247   4.684
    1STR   H10332226   2.202   3.316   4.695
    1STR   H10432227   2.170   3.157   4.660
    1STR   H10532228   2.083   3.228   4.781
    1STR   C10632229   1.982   3.437   4.633
    1STR   H10732230   2.070   3.499   4.632
    1STR   H10832231   1.910   3.480   4.563
    1STR   O10932232   1.925   3.436   4.764
    1STR   C11032233   2.006   3.459   4.881
    1STR   H11132234   1.942   3.518   4.942
    1STR   C11232235   1.998   3.351   4.983
    1STR   H11332236   2.077   3.278   4.975
    1STR   H11432237   1.900   3.309   4.974
    1STR   H11532238   2.002   3.392   5.083
    1STR   C11632239   2.134   3.543   4.886
    1STR   H11732240   2.111   3.647   4.875
    1STR   H11832241   2.167   3.529   4.988
    1STR   O11932242   2.241   3.502   4.806
    1STR   C12032243   2.372   3.551   4.839
    1STR   H12132244   2.374   3.656   4.819
    1STR   C12232245   2.411   3.540   4.987
    1STR   H12332246   2.513   3.511   4.994
    1STR   H12432247   2.356   3.479   5.058
    1STR   H12532248   2.404   3.630   5.043
    1STR   C12632249   2.475   3.494   4.738
    1STR   H12732250   2.513   3.572   4.673
    1STR   H12832251   2.562   3.457   4.787
    1STR   O12932252   2.408   3.395   4.661
    1STR   C13032253   2.474   3.324   4.559
    1STR   H13132254   2.557   3.280   4.607
    1STR   C13232255   2.379   3.220   4.517
    1STR   H13332256   2.291   3.276   4.494
    1STR   H13432257   2.363   3.150   4.597
    1STR   H13532258   2.408   3.168   4.428
    1STR   C13632259   2.507   3.404   4.435
    1STR   H13732260   2.435   3.479   4.432
    1STR   H13832261   2.603   3.442   4.461
    1STR   O13932262   2.509   3.346   4.304
    1STR   C14032263   2.578   3.420   4.201
    1STR   H14132264   2.564   3.524   4.225
    1STR   C14232265   2.727   3.385   4.186
    1STR   H14332266   2.741   3.281   4.157
    1STR   H14432267   2.785   3.402   4.275
    1STR   H14532268   2.774   3.442   4.107
    1STR   C14632269   2.522   3.401   4.059
    1STR   H14732270   2.555   3.484   3.998
    1STR   H14832271   2.563   3.311   4.014
    1STR   O14932272   2.383   3.390   4.055
    1STR   C15032273   2.323   3.420   3.930
    1STR   H15132274   2.350   3.522   3.903
    1STR   C15232275   2.371   3.322   3.822
    1STR   H15332276   2.352   3.219   3.854
    1STR   H15432277   2.477   3.332   3.802
    1STR   H15532278   2.318   3.338   3.729
    1STR   C15632279   2.171   3.413   3.950
    1STR   H15732280   2.118   3.498   3.908
    1STR   H15832281   2.131   3.324   3.901
    1STR   O15932282   2.146   3.395   4.087
    1STR   C16032283   2.117   3.507   4.166
    1STR   H16132284   2.155   3.588   4.111
    1STR   C16232285   1.964   3.513   4.175
    1STR   H16332286   1.927   3.442   4.249
    1STR   H16432287   1.917   3.491   4.079
    1STR   H16532288   1.930   3.612   4.204
    1STR   C16632289   2.193   3.516   4.300
    1STR   H16732290   2.117   3.535   4.375
    1STR   H16832291   2.236   3.424   4.334
    1STR   O16932292   2.304   3.607   4.301
    1STR   C17032293   2.330   3.690   4.417
    1STR   H17132294   2.278   3.784   4.407
    1STR   C17232295   2.267   3.629   4.539
    1STR   H17332296   2.165   3.664   4.546
    1STR   H17432297   2.319   3.662   4.625
    1STR   H17532298   2.263   3.521   4.541
    1STR   C17632299   2.475   3.740   4.441
    1STR   H17732300   2.489   3.833   4.388
    1STR   H17832301   2.484   3.759   4.547
    1STR   O17932302   2.579   3.650   4.410
    1STR   C18032303   2.715   3.689   4.409
    1STR   H18132304   2.727   3.783   4.452
    1STR   C18232305   2.808   3.591   4.484
    1STR   H18332306   2.800   3.488   4.453
    1STR   H18432307   2.788   3.593   4.592
    1STR   H18532308   2.913   3.612   4.467
    1STR   C18632309   2.751   3.719   4.266
    1STR   H18732310   2.853   3.755   4.260
    1STR   H18832311   2.749   3.629   4.209
    1STR   O18932312   2.660   3.819   4.222
    1STR   C19032313   2.599   3.804   4.095
    1STR   H19132314   2.593   3.906   4.064
    1STR   C19232315   2.694   3.745   3.990
    1STR   H19332316   2.708   3.638   4.001
    1STR   H19432317   2.792   3.792   3.999
    1STR   H19532318   2.657   3.763   3.889
    1STR   C19632319   2.450   3.753   4.092
    1STR   H19732320   2.422   3.758   3.987
    1STR   H19832321   2.441   3.649   4.119
    1STR   O19932322   2.356   3.828   4.171
    1STR   C20032323   2.213   3.815   4.145
    1STR   H20132324   2.218   3.917   4.125
    1STR   C20232325   2.170   3.788   3.998
    1STR   H20332326   2.222   3.704   3.952
    1STR   H20432327   2.188   3.873   3.933
    1STR   H20532328   2.064   3.764   3.993
    1STR   C20632329   2.098   3.840   4.256
    1STR   H20732330   2.130   3.928   4.313
    1STR   H20832331   2.011   3.870   4.201
    1STR   O20932332   2.043   3.749   4.358
    1STR   C21032333   1.937   3.805   4.441
    1STR   H21132334   1.984   3.900   4.461
    1STR   C21232335   1.805   3.810   4.362
    1STR   H21332336   1.768   3.709   4.345
    1STR   H21432337   1.813   3.860   4.266
    1STR   H21532338   1.727   3.862   4.418
    1STR   C21632339   1.909   3.764   4.591
    1STR   H21732340   1.973   3.685   4.624
    1STR   H21832341   1.941   3.849   4.651
    1STR   O21932342   1.771   3.739   4.629
    1STR   C22032343   1.731   3.769   4.765
    1STR   H22132344   1.777   3.861   4.797
    1STR   C22232345   1.578   3.777   4.772
    1STR   H22332346   1.533   3.679   4.755
    1STR   H22432347   1.538   3.844   4.696
    1STR   H22532348   1.545   3.812   4.870
    1STR   C22632349   1.784   3.674   4.871
    1STR   H22732350   1.739   3.575   4.864
    1STR   H22832351   1.884   3.668   4.831
    1STR   O22932352   1.806   3.727   5.004
    1STR   C23032353   1.749   3.667   5.123
    1STR   H23132354   1.657   3.724   5.134
    1STR   C23232355   1.701   3.521   5.114
    1STR   H23332356   1.783   3.455   5.090
    1STR   H23432357   1.622   3.508   5.041
    1STR   H23532358   1.662   3.488   5.210
    1STR   C23632359   1.829   3.695   5.256
    1STR   H23732360   1.859   3.799   5.252
    1STR   H23832361   1.755   3.694   5.335
    1STR   O23932362   1.934   3.607   5.310
    1STR   C24032363   2.072   3.608   5.266
    1STR   H24132364   2.091   3.509   5.229
    1STR   C24232365   2.085   3.696   5.148
    1STR   H24332366   2.057   3.794   5.175
    1STR   H24432367   2.020   3.669   5.068
    1STR   H24532368   2.189   3.693   5.118
    1STR   C24632369   2.191   3.637   5.364
    1STR   H24732370   2.197   3.744   5.384
    1STR   H24832371   2.172   3.590   5.461
    1STR   O24932372   2.318   3.589   5.308
    1STR   C25032373   2.444   3.626   5.371
    1STR   H25132374   2.444   3.734   5.385
    1STR   C25232375   2.452   3.563   5.510
    1STR   H25332376   2.447   3.454   5.504
    1STR   H25432377   2.372   3.598   5.575
    1STR   H25532378   2.546   3.590   5.559
    1STR   C25632379   2.575   3.590   5.290
    1STR   H25732380   2.663   3.619   5.347
    1STR   H25832381   2.582   3.482   5.272
    1STR   O25932382   2.582   3.656   5.164
    1STR   C26032383   2.700   3.690   5.089
    1STR   H26132384   2.769   3.741   5.157
    1STR   C26232385   2.774   3.574   5.026
    1STR   H26332386   2.708   3.536   4.949
    1STR   H26432387   2.799   3.497   5.098
    1STR   H26532388   2.864   3.606   4.974
    1STR   C26632389   2.648   3.791   4.982
    1STR   H26732390   2.540   3.786   4.988
    1STR   H26832391   2.673   3.889   5.020
    1STR   O26932392   2.674   3.786   4.840
    1STR   C27032393   2.648   3.917   4.784
    1STR   H27132394   2.726   3.977   4.824
    1STR   C27232395   2.649   3.950   4.638
    1STR   H27332396   2.555   3.935   4.587
    1STR   H27432397   2.725   3.893   4.598
    1STR   H27532398   2.674   4.054   4.622
    1STR   C27632399   2.518   3.975   4.820
    1STR   H27732400   2.524   4.013   4.921
    1STR   H27832401   2.487   4.059   4.760
    1STR   O27932402   2.429   3.873   4.789
    1STR   C28032403   2.303   3.913   4.826
    1STR   H28132404   2.298   4.018   4.832
    1STR   C28232405   2.210   3.866   4.717
    1STR   H28332406   2.177   3.765   4.732
    1STR   H28432407   2.258   3.876   4.620
    1STR   H28532408   2.123   3.926   4.708
    1STR   C28632409   2.283   3.870   4.967
    1STR   H28732410   2.181   3.875   4.995
    1STR   H28832411   2.304   3.769   4.970
    1STR   O28932412   2.368   3.949   5.049
    1STR   C29032413   2.375   3.918   5.185
    1STR   H29132414   2.351   3.813   5.201
    1STR   C29232415   2.516   3.945   5.234
    1STR   H29332416   2.557   4.032   5.184
    1STR   H29432417   2.588   3.869   5.218
    1STR   H29532418   2.516   3.955   5.342
    1STR   C29632419   2.276   4.008   5.254
    1STR   H29732420   2.270   3.976   5.357
    1STR   H29832421   2.307   4.113   5.252
    1STR   O29932422   2.158   3.983   5.182
    1STR   C30032423   2.035   4.040   5.209
    1STR   H30132424   1.959   3.991   5.148
    1STR   C30232425   1.999   3.997   5.351
    1STR   H30332426   2.074   4.028   5.421
    1STR   H30432427   2.001   3.890   5.365
    1STR   H30532428   1.902   4.032   5.384
    1STR   C30632429   2.042   4.185   5.160
    1STR   H30732430   1.962   4.241   5.205
    1STR   H30832431   2.137   4.233   5.184
    1STR   O30932432   2.020   4.208   5.023
    1STR    H1R32433   2.184   4.101   4.983
    1STR    H1S32434   1.967   4.041   4.786
    1STR    H1T32435   1.906   4.025   4.951
    1STR    H1U32436   2.024   3.920   4.895
    1STR    H1V32437   2.165   4.323   4.870
    1STR    H1W32438   2.051   4.260   4.761
    1STR    H1X32439   2.402   4.184   4.600
    1STR    H1Y32440   2.559   4.075   4.435
    1STR    H1Z32441   2.614   4.068   4.200
    1STR    H2032442   2.398   4.161   3.929
    1STR    H2132443   2.550   4.089   3.967
    1STR    H2232444   2.403   3.989   3.954
    1STR    H2332445   2.202   4.132   3.981
    1STR    H2732446   2.157   4.164   4.351
    1STR    H2832447   2.517   2.585   5.127
    1STR    H2932448   2.290   2.579   5.033
    1STR    H2A32449   2.164   2.515   4.812
    1STR    H2B32450   2.199   2.612   4.674
    1STR    H2C32451   2.168   2.692   4.821
    1STR   BCK132452   2.421   2.593   6.601
    1STR    O0332453   2.500   2.507   6.567
    1STR    N0432454   2.449   2.723   6.601
    1STR    C0532455   2.526   2.780   6.501
    1STR    C0632456   2.456   2.831   6.392
    1STR    C0732457   2.516   2.907   6.291
    1STR    N0832458   2.447   2.975   6.192
    1STR    C0932459   2.324   3.022   6.194
    1STR    O0A32460   2.283   3.098   6.106
    1STR    O0B32461   2.253   2.976   6.295
    1STR    C0C32462   2.166   3.056   6.368
    1STR    C0D32463   2.030   3.051   6.297
    1STR    C0E32464   2.164   3.002   6.513
    1STR    O0F32465   2.294   2.967   6.565
    1STR    C0G32466   2.311   2.988   6.705
    1STR    C0H32467   2.231   2.893   6.785
    1STR    C0I32468   2.449   2.987   6.771
    1STR    O0J32469   2.441   3.102   6.853
    1STR    C0K32470   2.973   3.777   7.130
    1STR    C0M32471   2.899   3.677   7.215
    1STR    C0N32472   3.108   3.812   7.188
    1STR    O0O32473   3.087   3.879   7.311
    1STR    C0P32474   3.133   4.002   7.328
    1STR    O0Q32475   3.205   4.031   7.422
    1STR    N0R32476   3.097   4.095   7.239
    1STR    C0S32477   2.989   4.094   7.152
    1STR    C0T32478   3.006   4.085   7.013
    1STR    C0U32479   2.894   4.086   6.929
    1STR    C0V32480   2.764   4.081   6.982
    1STR    C0W32481   2.653   4.062   6.884
    1STR    C0X32482   2.744   4.087   7.122
    1STR    N0Y32483   2.626   4.088   7.197
    1STR   BCK232484   2.496   4.066   7.193
    1STR    O1032485   2.433   4.080   7.298
    1STR    C1332486   2.858   4.097   7.202
    1STR    C1432487   2.655   2.921   6.292
    1STR    C1532488   2.728   2.868   6.399
    1STR    C1632489   2.664   2.805   6.506
    1STR    C1732490   2.744   2.768   6.624
    1STR    H1B32491   2.383   2.788   6.641
    1STR    H1C32492   2.352   2.810   6.394
    1STR    H1D32493   2.500   3.008   6.113
    1STR    H1E32494   2.213   3.153   6.367
    1STR    H1F32495   1.983   2.953   6.307
    1STR    H1G32496   1.962   3.127   6.336
    1STR    H1H32497   2.041   3.071   6.191
    1STR    H1I32498   2.097   2.916   6.515
    1STR    H1J32499   2.114   3.073   6.577
    1STR    H1K32500   2.274   3.087   6.714
    1STR    H1M32501   2.282   2.798   6.798
    1STR    H1N32502   2.131   2.882   6.745
    1STR    H1O32503   2.223   2.929   6.886
    1STR    H1P32504   2.472   2.896   6.827
    1STR    H1Q32505   2.528   3.000   6.697
    1STR   C01032506   2.451   3.113   6.993
    1STR   H01132507   2.489   3.214   7.004
    1STR   C01232508   2.313   3.120   7.057
    1STR   H01332509   2.264   3.024   7.063
    1STR   H01432510   2.244   3.187   7.009
    1STR   H01532511   2.321   3.159   7.156
    1STR   C01632512   2.555   3.026   7.060
    1STR   H01732513   2.601   3.081   7.142
    1STR   H01832514   2.512   2.937   7.101
    1STR   O01932515   2.647   2.982   6.962
    1STR   C02032516   2.783   3.003   6.989
    1STR   H02132517   2.799   3.110   7.002
    1STR   C02232518   2.821   2.921   7.111
    1STR   H02332519   2.821   2.816   7.085
    1STR   H02432520   2.754   2.932   7.196
    1STR   H02532521   2.922   2.945   7.145
    1STR   C02632522   2.849   2.951   6.861
    1STR   H02732523   2.821   2.847   6.859
    1STR   H02832524   2.807   2.995   6.771
    1STR   O02932525   2.990   2.952   6.858
    1STR   C03032526   3.056   3.073   6.828
    1STR   H03132527   3.000   3.158   6.865
    1STR   C03232528   3.188   3.061   6.904
    1STR   H03332529   3.242   2.972   6.874
    1STR   H03432530   3.169   3.055   7.011
    1STR   H03532531   3.252   3.147   6.888
    1STR   C03632532   3.083   3.085   6.678
    1STR   H03732533   3.149   3.170   6.659
    1STR   H03832534   3.136   2.995   6.646
    1STR   O03932535   2.964   3.102   6.603
    1STR   C04032536   2.984   3.136   6.466
    1STR   H04132537   3.039   3.229   6.458
    1STR   C04232538   3.070   3.029   6.397
    1STR   H04332539   3.040   2.930   6.430
    1STR   H04432540   3.175   3.040   6.423
    1STR   H04532541   3.063   3.034   6.289
    1STR   C04632542   2.843   3.146   6.402
    1STR   H04732543   2.847   3.095   6.306
    1STR   H04832544   2.777   3.093   6.469
    1STR   O04932545   2.782   3.272   6.378
    1STR   C05032546   2.654   3.261   6.313
    1STR   H05132547   2.663   3.199   6.224
    1STR   C05232548   2.543   3.204   6.403
    1STR   H05332549   2.569   3.119   6.465
    1STR   H05432550   2.456   3.177   6.345
    1STR   H05532551   2.504   3.281   6.466
    1STR   C05632552   2.610   3.401   6.269
    1STR   H05732553   2.599   3.463   6.358
    1STR   H05832554   2.687   3.446   6.208
    1STR   O05932555   2.490   3.392   6.190
    1STR   C06032556   2.377   3.456   6.247
    1STR   H06132557   2.373   3.432   6.354
    1STR   C06232558   2.394   3.607   6.229
    1STR   H06332559   2.399   3.633   6.123
    1STR   H06432560   2.487   3.639   6.275
    1STR   H06532561   2.312   3.662   6.273
    1STR   C06632562   2.245   3.410   6.180
    1STR   H06732563   2.195   3.492   6.128
    1STR   H06832564   2.268   3.337   6.102
    1STR   O06932565   2.153   3.351   6.270
    1STR   C07032566   2.110   3.433   6.377
    1STR   H07132567   2.166   3.526   6.377
    1STR   C07232568   1.964   3.474   6.351
    1STR   H07332569   1.901   3.388   6.330
    1STR   H07432570   1.956   3.539   6.264
    1STR   H07532571   1.921   3.528   6.436
    1STR   C07632572   2.130   3.356   6.510
    1STR   H07732573   2.072   3.401   6.590
    1STR   H07832574   2.083   3.261   6.496
    1STR   O07932575   2.264   3.324   6.547
    1STR   C08032576   2.309   3.350   6.681
    1STR   H08132577   2.325   3.450   6.701
    1STR   C08232578   2.211   3.324   6.797
    1STR   H08332579   2.180   3.223   6.814
    1STR   H08432580   2.121   3.383   6.789
    1STR   H08532581   2.257   3.359   6.889
    1STR   C08632582   2.457   3.321   6.706
    1STR   H08732583   2.470   3.329   6.813
    1STR   H08832584   2.473   3.221   6.670
    1STR   O08932585   2.563   3.399   6.647
    1STR   C09032586   2.687   3.379   6.717
    1STR   H09132587   2.679   3.434   6.810
    1STR   C09232588   2.710   3.234   6.759
    1STR   H09332589   2.692   3.165   6.677
    1STR   H09432590   2.649   3.206   6.844
    1STR   H09532591   2.812   3.219   6.792
    1STR   C09632592   2.820   3.420   6.652
    1STR   H09732593   2.886   3.439   6.736
    1STR   H09832594   2.858   3.329   6.606
    1STR   O09932595   2.836   3.526   6.558
    1STR   C10032596   2.959   3.508   6.485
    1STR   H10132597   2.957   3.409   6.443
    1STR   C10232598   2.959   3.590   6.356
    1STR   H10332599   2.992   3.693   6.369
    1STR   H10432600   2.860   3.589   6.312
    1STR   H10532601   3.026   3.545   6.283
    1STR   C10632602   3.090   3.521   6.568
    1STR   H10732603   3.175   3.514   6.501
    1STR   H10832604   3.095   3.619   6.614
    1STR   O10932605   3.105   3.418   6.667
    1STR   C11032606   3.206   3.430   6.770
    1STR   H11132607   3.251   3.332   6.777
    1STR   C11232608   3.321   3.525   6.735
    1STR   H11332609   3.288   3.629   6.731
    1STR   H11432610   3.366   3.499   6.639
    1STR   H11532611   3.399   3.519   6.810
    1STR   C11632612   3.144   3.459   6.909
    1STR   H11732613   3.217   3.507   6.974
    1STR   H11832614   3.064   3.531   6.895
    1STR   O11932615   3.100   3.340   6.975
    1STR   C12032616   3.023   3.358   7.094
    1STR   H12132617   3.070   3.436   7.153
    1STR   C12232618   2.883   3.398   7.047
    1STR   H12332619   2.832   3.320   6.992
    1STR   H12432620   2.881   3.486   6.984
    1STR   H12532621   2.821   3.422   7.131
    1STR   C12632622   3.017   3.229   7.180
    1STR   H12732623   2.957   3.156   7.127
    1STR   H12832624   3.117   3.188   7.185
    1STR   O12932625   2.964   3.244   7.314
    1STR   C13032626   2.937   3.121   7.385
    1STR   H13132627   2.873   3.059   7.323
    1STR   C13232628   3.067   3.046   7.415
    1STR   H13332629   3.126   3.027   7.326
    1STR   H13432630   3.045   2.948   7.458
    1STR   H13532631   3.129   3.101   7.485
    1STR   C13632632   2.859   3.139   7.517
    1STR   H13732633   2.874   3.054   7.584
    1STR   H13832634   2.901   3.225   7.568
    1STR   O13932635   2.719   3.146   7.492
    1STR   C14032636   2.631   3.202   7.590
    1STR   H14132637   2.551   3.248   7.532
    1STR   C14232638   2.562   3.092   7.668
    1STR   H14332639   2.633   3.030   7.723
    1STR   H14432640   2.505   3.030   7.598
    1STR   H14532641   2.490   3.132   7.740
    1STR   C14632642   2.687   3.313   7.682
    1STR   H14732643   2.607   3.365   7.734
    1STR   H14832644   2.750   3.268   7.759
    1STR   O14932645   2.768   3.406   7.611
    1STR   C15032646   2.701   3.484   7.514
    1STR   H15132647   2.595   3.484   7.536
    1STR   C15232648   2.758   3.624   7.534
    1STR   H15332649   2.867   3.624   7.525
    1STR   H15432650   2.733   3.663   7.632
    1STR   H15532651   2.720   3.692   7.459
    1STR   C15632652   2.729   3.430   7.371
    1STR   H15732653   2.833   3.446   7.349
    1STR   H15832654   2.716   3.323   7.361
    1STR   O15932655   2.647   3.491   7.271
    1STR   C16032656   2.563   3.407   7.191
    1STR   H16132657   2.624   3.333   7.138
    1STR   C16232658   2.465   3.333   7.283
    1STR   H16332659   2.463   3.378   7.381
    1STR   H16432660   2.492   3.229   7.295
    1STR   H16532661   2.364   3.341   7.244
    1STR   C16632662   2.487   3.491   7.085
    1STR   H16732663   2.414   3.430   7.032
    1STR   H16832664   2.428   3.565   7.136
    1STR   O16932665   2.574   3.546   6.986
    1STR   C17032666   2.542   3.675   6.931
    1STR   H17132667   2.591   3.750   6.993
    1STR   C17232668   2.599   3.684   6.788
    1STR   H17332669   2.545   3.624   6.716
    1STR   H17432670   2.699   3.647   6.775
    1STR   H17532671   2.595   3.786   6.753
    1STR   C17632672   2.395   3.713   6.917
    1STR   H17732673   2.337   3.707   7.008
    1STR   H17832674   2.392   3.816   6.884
    1STR   O17932675   2.342   3.630   6.814
    1STR   C18032676   2.234   3.682   6.741
    1STR   H18132677   2.252   3.783   6.724
    1STR   C18232678   2.217   3.628   6.598
    1STR   H18332679   2.295   3.565   6.557
    1STR   H18432680   2.236   3.694   6.518
    1STR   H18532681   2.117   3.598   6.576
    1STR   C18632682   2.109   3.672   6.826
    1STR   H18732683   2.083   3.769   6.867
    1STR   H18832684   2.032   3.640   6.758
    1STR   O18932685   2.128   3.580   6.930
    1STR   C19032686   2.015   3.555   7.010
    1STR   H19132687   1.981   3.641   7.063
    1STR   C19232688   1.895   3.528   6.924
    1STR   H19332689   1.919   3.460   6.842
    1STR   H19432690   1.859   3.616   6.875
    1STR   H19532691   1.813   3.495   6.986
    1STR   C19632692   2.053   3.445   7.111
    1STR   H19732693   1.967   3.425   7.173
    1STR   H19832694   2.078   3.352   7.058
    1STR   O19932695   2.165   3.478   7.192
    1STR   C20032696   2.134   3.494   7.331
    1STR   H20132697   2.044   3.554   7.340
    1STR   C20232698   2.108   3.358   7.395
    1STR   H20332699   2.196   3.295   7.386
    1STR   H20432700   2.025   3.306   7.349
    1STR   H20532701   2.085   3.368   7.501
    1STR   C20632702   2.244   3.568   7.408
    1STR   H20732703   2.194   3.618   7.490
    1STR   H20832704   2.311   3.497   7.456
    1STR   O20932705   2.318   3.661   7.328
    1STR   C21032706   2.447   3.696   7.378
    1STR   H21132707   2.496   3.604   7.403
    1STR   C21232708   2.526   3.765   7.267
    1STR   H21332709   2.456   3.809   7.198
    1STR   H21432710   2.587   3.699   7.208
    1STR   H21532711   2.596   3.840   7.304
    1STR   C21632712   2.449   3.784   7.502
    1STR   H21732713   2.540   3.770   7.560
    1STR   H21832714   2.457   3.887   7.468
    1STR   O21932715   2.340   3.761   7.589
    1STR   C22032716   2.245   3.866   7.592
    1STR   H22132717   2.164   3.834   7.658
    1STR   C22232718   2.313   3.986   7.651
    1STR   H22332719   2.375   4.035   7.577
    1STR   H22432720   2.373   3.961   7.738
    1STR   H22532721   2.239   4.060   7.674
    1STR   C22632722   2.185   3.904   7.457
    1STR   H22732723   2.159   4.009   7.455
    1STR   H22832724   2.259   3.895   7.379
    1STR   O22932725   2.070   3.825   7.434
    1STR   C23032726   2.009   3.854   7.310
    1STR   H23132727   1.995   3.959   7.300
    1STR   C23232728   2.096   3.808   7.193
    1STR   H23332729   2.113   3.703   7.200
    1STR   H23432730   2.198   3.843   7.190
    1STR   H23532731   2.049   3.832   7.099
    1STR   C23632732   1.870   3.792   7.310
    1STR   H23732733   1.838   3.772   7.209
    1STR   H23832734   1.872   3.697   7.364
    1STR   O23932735   1.785   3.887   7.372
    1STR   C24032736   1.659   3.837   7.413
    1STR   H24132737   1.671   3.737   7.455
    1STR   C24232738   1.618   3.932   7.526
    1STR   H24332739   1.692   3.932   7.606
    1STR   H24432740   1.522   3.904   7.569
    1STR   H24532741   1.610   4.034   7.489
    1STR   C24632742   1.554   3.834   7.300
    1STR   H24732743   1.471   3.771   7.332
    1STR   H24832744   1.513   3.934   7.286
    1STR   O24932745   1.608   3.792   7.176
    1STR   C25032746   1.524   3.716   7.090
    1STR   H25132747   1.508   3.619   7.139
    1STR   C25232748   1.388   3.780   7.065
    1STR   H25332749   1.403   3.880   7.025
    1STR   H25432750   1.327   3.790   7.155
    1STR   H25532751   1.330   3.724   6.993
    1STR   C25632752   1.602   3.692   6.959
    1STR   H25732753   1.704   3.677   6.992
    1STR   H25832754   1.569   3.599   6.912
    1STR   O25932755   1.592   3.795   6.861
    1STR   C26032756   1.707   3.871   6.820
    1STR   H26132757   1.665   3.956   6.768
    1STR   C26232758   1.785   3.922   6.942
    1STR   H26332759   1.842   3.844   6.992
    1STR   H26432760   1.718   3.965   7.016
    1STR   H26532761   1.858   3.997   6.912
    1STR   C26632762   1.796   3.809   6.711
    1STR   H26732763   1.887   3.783   6.761
    1STR   H26832764   1.750   3.719   6.669
    1STR   O26932765   1.835   3.899   6.607
    1STR   C27032766   1.946   3.853   6.529
    1STR   H27132767   1.967   3.749   6.554
    1STR   C27232768   1.911   3.853   6.381
    1STR   H27332769   1.911   3.953   6.340
    1STR   H27432770   1.815   3.806   6.363
    1STR   H27532771   1.987   3.797   6.325
    1STR   C27632772   2.072   3.937   6.560
    1STR   H27732773   2.055   4.043   6.542
    1STR   H27832774   2.086   3.923   6.666
    1STR   O27932775   2.187   3.892   6.487
    1STR   C28032776   2.320   3.932   6.528
    1STR   H28132777   2.337   4.006   6.453
    1STR   C28232778   2.328   4.001   6.663
    1STR   H28332779   2.282   4.096   6.641
    1STR   H28432780   2.432   4.009   6.694
    1STR   H28532781   2.276   3.968   6.751
    1STR   C28632782   2.443   3.836   6.507
    1STR   H28732783   2.438   3.748   6.571
    1STR   H28832784   2.438   3.801   6.405
    1STR   O28932785   2.572   3.895   6.532
    1STR   C29032786   2.685   3.820   6.486
    1STR   H29132787   2.665   3.713   6.502
    1STR   C29232788   2.701   3.850   6.336
    1STR   H29332789   2.711   3.957   6.320
    1STR   H29432790   2.617   3.817   6.277
    1STR   H29532791   2.790   3.803   6.295
    1STR   C29632792   2.819   3.852   6.559
    1STR   H29732793   2.888   3.775   6.528
    1STR   H29832794   2.864   3.944   6.523
    1STR   O29932795   2.818   3.857   6.701
    1STR   C30032796   2.921   3.780   6.766
    1STR   H30132797   2.922   3.679   6.725
    1STR   C30232798   3.059   3.846   6.743
    1STR   H30332799   3.065   3.947   6.781
    1STR   H30432800   3.086   3.849   6.638
    1STR   H30532801   3.137   3.789   6.795
    1STR   C30632802   2.884   3.761   6.914
    1STR   H30732803   2.823   3.844   6.945
    1STR   H30832804   2.820   3.677   6.932
    1STR   O30932805   2.998   3.740   6.996
    1STR    H1R32806   2.909   3.863   7.132
    1STR    H1S32807   2.873   3.724   7.309
    1STR    H1T32808   2.959   3.590   7.239
    1STR    H1U32809   2.806   3.646   7.168
    1STR    H1V32810   3.158   3.875   7.116
    1STR    H1W32811   3.170   3.725   7.204
    1STR    H1X32812   3.143   4.184   7.255
    1STR    H1Y32813   3.105   4.080   6.971
    1STR    H1Z32814   2.907   4.084   6.822
    1STR    H2032815   2.607   3.964   6.897
    1STR    H2132816   2.583   4.141   6.902
    1STR    H2232817   2.688   4.067   6.781
    1STR    H2332818   2.643   4.131   7.287
    1STR    H2732819   2.845   4.100   7.307
    1STR    H2832820   2.705   2.970   6.211
    1STR    H2932821   2.835   2.880   6.401
    1STR    H2A32822   2.684   2.792   6.711
    1STR    H2B32823   2.840   2.819   6.627
    1STR    H2C32824   2.759   2.661   6.615
    1STR   BCK132825   1.770   5.085   9.316
    1STR    O0332826   1.874   5.147   9.311
    1STR    N0432827   1.692   5.072   0.104
    1STR    C0532828   1.727   5.103   0.234
    1STR    C0632829   1.862   5.097   0.269
    1STR    C0732830   1.902   5.113   0.400
    1STR    N0832831   2.035   5.089   0.419
    1STR    C0932832   2.117   5.191   0.417
    1STR    O0A32833   2.137   5.259   0.516
    1STR    O0B32834   2.174   5.194   0.296
    1STR    C0C32835   2.290   5.270   0.271
    1STR    C0D32836   2.390   5.237   0.381
    1STR    C0E32837   2.340   5.244   0.125
    1STR    O0F32838   2.235   5.240   0.028
    1STR    C0G32839   2.264   5.220   9.208
    1STR    C0H32840   2.127   5.226   9.145
    1STR    C0I32841   2.353   5.321   9.140
    1STR    O0J32842   2.383   5.285   9.006
    1STR    C0K32843   1.583   6.193   9.149
    1STR    C0M32844   1.628   6.337   9.175
    1STR    C0N32845   1.460   6.122   9.215
    1STR    O0O32846   1.481   6.059   0.024
    1STR    C0P32847   1.516   6.134   0.128
    1STR    O0Q32848   1.531   6.254   0.120
    1STR    N0R32849   1.537   6.070   0.244
    1STR    C0S32850   1.614   6.128   0.346
    1STR    C0T32851   1.594   6.110   0.484
    1STR    C0U32852   1.686   6.165   0.577
    1STR    C0V32853   1.799   6.239   0.534
    1STR    C0W32854   1.898   6.287   0.639
    1STR    C0X32855   1.816   6.262   0.396
    1STR    N0Y32856   1.926   6.322   0.336
    1STR   BCK232857   1.928   6.392   0.221
    1STR    O1032858   2.030   6.393   0.154
    1STR    C1332859   1.726   6.203   0.307
    1STR    C1432860   1.810   5.150   0.499
    1STR    C1532861   1.673   5.161   0.464
    1STR    C1632862   1.631   5.135   0.332
    1STR    C1732863   1.485   5.152   0.297
    1STR    H1B32864   1.602   5.031   0.088
    1STR    H1C32865   1.939   5.077   0.197
    1STR    H1D32866   2.079   5.017   0.365
    1STR    H1E32867   2.267   5.376   0.280
    1STR    H1F32868   2.401   5.132   0.404
    1STR    H1G32869   2.486   5.278   0.359
    1STR    H1H32870   2.364   5.286   0.475
    1STR    H1I32871   2.398   5.156   0.118
    1STR    H1J32872   2.410   5.321   0.100
    1STR    H1K32873   2.307   5.125   9.183
    1STR    H1M32874   2.068   5.144   9.184
    1STR    H1N32875   2.133   5.218   9.037
    1STR    H1O32876   2.075   5.317   9.167
    1STR    H1P32877   2.301   5.415   9.144
    1STR    H1Q32878   2.447   5.325   9.193
    1STR   C01032879   2.407   5.395   8.920
    1STR   H01132880   2.409   5.480   8.983
    1STR   C01232881   2.547   5.409   8.863
    1STR   H01332882   2.589   5.315   8.830
    1STR   H01432883   2.610   5.448   8.941
    1STR   H01532884   2.551   5.480   8.781
    1STR   C01632885   2.300   5.403   8.810
    1STR   H01732886   2.291   5.505   8.772
    1STR   H01832887   2.330   5.342   8.726
    1STR   O01932888   2.175   5.355   8.856
    1STR   C02032889   2.063   5.392   8.778
    1STR   H02132890   2.043   5.496   8.796
    1STR   C02232891   2.084   5.369   8.628
    1STR   H02332892   2.103   5.264   8.611
    1STR   H02432893   2.166   5.427   8.586
    1STR   H02532894   1.995   5.395   8.570
    1STR   C02632895   1.941   5.314   8.824
    1STR   H02732896   1.867   5.309   8.744
    1STR   H02832897   1.975   5.212   8.839
    1STR   O02932898   1.879   5.357   8.946
    1STR   C03032899   1.797   5.474   8.952
    1STR   H03132900   1.869   5.553   8.970
    1STR   C03232901   1.720   5.502   8.822
    1STR   H03332902   1.654   5.420   8.796
    1STR   H03432903   1.786   5.521   8.738
    1STR   H03532904   1.657   5.591   8.833
    1STR   C03632905   1.696   5.469   9.072
    1STR   H03732906   1.658   5.568   9.092
    1STR   H03832907   1.607   5.413   9.043
    1STR   O03932908   1.747   5.412   9.193
    1STR   C04032909   1.687   5.458   9.315
    1STR   H04132910   1.685   5.566   9.314
    1STR   C04232911   1.541   5.412   0.007
    1STR   H04332912   1.495   5.456   0.095
    1STR   H04432913   1.535   5.304   0.019
    1STR   H04532914   1.481   5.441   9.241
    1STR   C04632915   1.769   5.406   0.116
    1STR   H04732916   1.713   5.326   0.159
    1STR   H04832917   1.864   5.363   0.086
    1STR   O04932918   1.789   5.494   0.226
    1STR   C05032919   1.882   5.447   0.325
    1STR   H05132920   1.872   5.341   0.329
    1STR   C05232921   2.030   5.474   0.298
    1STR   H05332922   2.064   5.432   0.203
    1STR   H05432923   2.092   5.434   0.376
    1STR   H05532924   2.064   5.577   0.310
    1STR   C05632925   1.848   5.500   0.463
    1STR   H05732926   1.850   5.609   0.460
    1STR   H05832927   1.747   5.469   0.489
    1STR   O05932928   1.939   5.447   0.560
    1STR   C06032929   2.010   5.545   0.636
    1STR   H06132930   2.042   5.624   0.569
    1STR   C06232931   1.904   5.595   0.734
    1STR   H06332932   1.854   5.510   0.781
    1STR   H06432933   1.827   5.653   0.683
    1STR   H06532934   1.946   5.659   0.812
    1STR   C06632935   2.136   5.491   0.711
    1STR   H06732936   2.145   5.549   0.803
    1STR   H06832937   2.118   5.388   0.739
    1STR   O06932938   2.263   5.492   0.643
    1STR   C07032939   2.380   5.544   0.711
    1STR   H07132940   2.375   5.652   0.707
    1STR   C07232941   2.387   5.514   0.862
    1STR   H07332942   2.489   5.493   0.894
    1STR   H07432943   2.324   5.431   0.891
    1STR   H07532944   2.353   5.601   0.919
    1STR   C07632945   2.513   5.511   0.636
    1STR   H07732946   2.582   5.595   0.649
    1STR   H07832947   2.571   5.432   0.681
    1STR   O07932948   2.491   5.482   0.498
    1STR   C08032949   2.605   5.495   0.414
    1STR   H08132950   2.642   5.594   0.430
    1STR   C08232951   2.719   5.402   0.458
    1STR   H08332952   2.684   5.300   0.470
    1STR   H08432953   2.762   5.432   0.553
    1STR   H08532954   2.800   5.401   0.387
    1STR   C08632955   2.575   5.491   0.262
    1STR   H08732956   2.648   5.555   0.213
    1STR   H08832957   2.597   5.393   0.224
    1STR   O08932958   2.439   5.522   0.222
    1STR   C09032959   2.415   5.580   0.092
    1STR   H09132960   2.436   5.687   0.092
    1STR   C09232961   2.522   5.533   9.314
    1STR   H09332962   2.558   5.435   0.018
    1STR   H09432963   2.607   5.600   9.317
    1STR   H09532964   2.487   5.529   9.212
    1STR   C09632965   2.270   5.559   0.037
    1STR   H09732966   2.274   5.582   9.253
    1STR   H09832967   2.240   5.457   0.041
    1STR   O09932968   2.157   5.624   0.098
    1STR   C10032969   2.042   5.664   0.021
    1STR   H10132970   2.058   5.753   9.286
    1STR   C10232971   2.003   5.562   9.235
    1STR   H10332972   1.987   5.466   9.281
    1STR   H10432973   2.078   5.550   9.157
    1STR   H10532974   1.912   5.594   9.186
    1STR   C10632975   1.925   5.711   0.109
    1STR   H10732976   1.832   5.678   0.068
    1STR   H10832977   1.932   5.674   0.209
    1STR   O10932978   1.910   5.849   0.128
    1STR   C11032979   1.831   5.887   0.241
    1STR   H11132980   1.794   5.983   0.207
    1STR   C11232981   1.705   5.803   0.267
    1STR   H11332982   1.729   5.703   0.301
    1STR   H11432983   1.644   5.794   0.177
    1STR   H11532984   1.644   5.847   0.346
    1STR   C11632985   1.915   5.920   0.367
    1STR   H11732986   1.971   6.008   0.337
    1STR   H11832987   1.849   5.953   0.446
    1STR   O11932988   2.003   5.818   0.419
    1STR   C12032989   2.114   5.876   0.492
    1STR   H12132990   2.149   5.956   0.430
    1STR   C12232991   2.068   5.923   0.630
    1STR   H12332992   2.034   5.839   0.690
    1STR   H12432993   1.986   5.994   0.624
    1STR   H12532994   2.150   5.971   0.683
    1STR   C12632995   2.242   5.791   0.502
    1STR   H12732996   2.231   5.727   0.587
    1STR   H12832997   2.239   5.722   0.417
    1STR   O12932998   2.364   5.872   0.514
    1STR   C13032999   2.486   5.807   0.470
    1STR   H13133000   2.477   5.711   0.513
    1STR   C13233001   2.480   5.791   0.322
    1STR   H13333002   2.471   5.883   0.267
    1STR   H13433003   2.398   5.727   0.303
    1STR   H13533004   2.561   5.737   0.280
    1STR   C13633005   2.626   5.865   0.507
    1STR   H13733006   2.635   5.958   0.454
    1STR   H13833007   2.628   5.889   0.613
    1STR   O13933008   2.743   5.783   0.475
    1STR   C14033009   2.807   5.807   0.348
    1STR   H14133010   2.733   5.823   0.274
    1STR   C14233011   2.892   5.931   0.360
    1STR   H14333012   2.985   5.907   0.411
    1STR   H14433013   2.842   6.009   0.416
    1STR   H14533014   2.914   5.970   0.261
    1STR   C14633015   2.888   5.693   0.281
    1STR   H14733016   2.995   5.701   0.300
    1STR   H14833017   2.858   5.599   0.324
    1STR   O14933018   2.863   5.681   0.139
    1STR   C15033019   2.893   5.791   0.050
    1STR   H15133020   2.837   5.879   0.079
    1STR   C15233021   3.045   5.819   0.050
    1STR   H15333022   3.100   5.729   0.023
    1STR   H15433023   3.081   5.854   0.146
    1STR   H15533024   3.069   5.895   9.295
    1STR   C15633025   2.847   5.754   9.228
    1STR   H15733026   2.934   5.736   9.166
    1STR   H15833027   2.791   5.661   9.231
    1STR   O15933028   2.772   5.856   9.162
    1STR   C16033029   2.724   5.825   9.031
    1STR   H16133030   2.675   5.913   8.995
    1STR   C16233031   2.839   5.808   8.930
    1STR   H16333032   2.896   5.717   8.946
    1STR   H16433033   2.908   5.892   8.937
    1STR   H16533034   2.801   5.805   8.828
    1STR   C16633035   2.620   5.710   9.028
    1STR   H16733036   2.584   5.695   8.927
    1STR   H16833037   2.670   5.618   9.056
    1STR   O16933038   2.511   5.726   9.121
    1STR   C17033039   2.388   5.778   9.072
    1STR   H17133040   2.425   5.852   9.006
    1STR   C17233041   2.310   5.691   8.978
    1STR   H17333042   2.263   5.606   9.026
    1STR   H17433043   2.366   5.666   8.888
    1STR   H17533044   2.225   5.747   8.947
    1STR   C17633045   2.286   5.840   9.172
    1STR   H17733046   2.217   5.905   9.118
    1STR   H17833047   2.225   5.759   9.198
    1STR   O17933048   2.325   5.909   9.290
    1STR   C18033049   2.214   5.954   0.052
    1STR   H18133050   2.118   5.941   0.004
    1STR   C18233051   2.222   5.877   0.180
    1STR   H18333052   2.279   5.790   0.161
    1STR   H18433053   2.126   5.847   0.217
    1STR   H18533054   2.273   5.929   0.259
    1STR   C18633055   2.220   6.099   0.094
    1STR   H18733056   2.326   6.114   0.095
    1STR   H18833057   2.180   6.158   0.013
    1STR   O18933058   2.154   6.120   0.222
    1STR   C19033059   2.212   6.209   0.318
    1STR   H19133060   2.180   6.309   0.295
    1STR   C19233061   2.175   6.191   0.465
    1STR   H19333062   2.243   6.122   0.513
    1STR   H19433063   2.073   6.157   0.478
    1STR   H19533064   2.188   6.286   0.518
    1STR   C19633065   2.359   6.225   0.310
    1STR   H19733066   2.363   6.276   0.215
    1STR   H19833067   2.392   6.286   0.393
    1STR   O19933068   2.444   6.115   0.292
    1STR   C20033069   2.570   6.165   0.252
    1STR   H20133070   2.564   6.252   0.188
    1STR   C20233071   2.642   6.204   0.383
    1STR   H20333072   2.608   6.151   0.471
    1STR   H20433073   2.619   6.306   0.413
    1STR   H20533074   2.749   6.200   0.375
    1STR   C20633075   2.640   6.070   0.157
    1STR   H20733076   2.742   6.101   0.135
    1STR   H20833077   2.647   5.979   0.211
    1STR   O20933078   2.569   6.035   0.037
    1STR   C21033079   2.540   6.131   9.255
    1STR   H21133080   2.456   6.191   9.285
    1STR   C21233081   2.662   6.220   9.235
    1STR   H21333082   2.747   6.158   9.211
    1STR   H21433083   2.686   6.276   0.005
    1STR   H21533084   2.643   6.292   9.156
    1STR   C21633085   2.507   6.060   9.121
    1STR   H21733086   2.579   6.095   9.050
    1STR   H21833087   2.534   5.959   9.146
    1STR   O21933088   2.371   6.064   9.063
    1STR   C22033089   2.344   6.051   8.919
    1STR   H22133090   2.296   6.145   8.904
    1STR   C22233091   2.468   6.028   8.829
    1STR   H22333092   2.509   5.928   8.836
    1STR   H22433093   2.548   6.097   8.850
    1STR   H22533094   2.440   6.041   8.725
    1STR   C22633095   2.228   5.973   8.847
    1STR   H22733096   2.202   6.042   8.767
    1STR   H22833097   2.269   5.887   8.795
    1STR   O22933098   2.099   5.941   8.899
    1STR   C23033099   2.012   5.880   8.801
    1STR   H23133100   2.042   5.910   8.701
    1STR   C23233101   2.028   5.730   8.802
    1STR   H23333102   1.953   5.683   8.740
    1STR   H23433103   2.019   5.693   8.903
    1STR   H23533104   2.125   5.702   8.761
    1STR   C23633105   1.861   5.912   8.809
    1STR   H23733106   1.837   5.969   8.720
    1STR   H23833107   1.797   5.824   8.799
    1STR   O23933108   1.816   5.991   8.917
    1STR   C24033109   1.802   5.931   9.044
    1STR   H24133110   1.742   6.001   9.098
    1STR   C24233111   1.712   5.810   9.047
    1STR   H24333112   1.763   5.730   8.996
    1STR   H24433113   1.617   5.830   8.998
    1STR   H24533114   1.693   5.781   9.151
    1STR   C24633115   1.931   5.922   9.125
    1STR   H24733116   1.905   5.896   9.226
    1STR   H24833117   1.993   5.841   9.088
    1STR   O24933118   2.009   6.041   9.126
    1STR   C25033119   1.942   6.161   9.161
    1STR   H25133120   1.862   6.178   9.089
    1STR   C25233121   1.888   6.153   9.305
    1STR   H25333122   1.966   6.142   0.059
    1STR   H25433123   1.819   6.071   0.001
    1STR   H25533124   1.836   6.245   0.009
    1STR   C25633125   2.034   6.282   9.145
    1STR   H25733126   1.982   6.359   9.089
    1STR   H25833127   2.042   6.324   9.243
    1STR   O25933128   2.163   6.255   9.090
    1STR   C26033129   2.250   6.368   9.092
    1STR   H26133130   2.194   6.451   9.049
    1STR   C26233131   2.283   6.404   9.237
    1STR   H26333132   2.384   6.375   9.263
    1STR   H26433133   2.225   6.360   9.316
    1STR   H26533134   2.276   6.511   9.250
    1STR   C26633135   2.380   6.352   9.006
    1STR   H26733136   2.444   6.434   9.023
    1STR   H26833137   2.442   6.274   9.041
    1STR   O26933138   2.357   6.343   8.866
    1STR   C27033139   2.458   6.354   8.766
    1STR   H27133140   2.458   6.459   8.753
    1STR   C27233141   2.607   6.329   8.799
    1STR   H27333142   2.649   6.247   8.741
    1STR   H27433143   2.624   6.306   8.904
    1STR   H27533144   2.667   6.416   8.774
    1STR   C27633145   2.406   6.288   8.634
    1STR   H27733146   2.407   6.362   8.555
    1STR   H27833147   2.473   6.210   8.600
    1STR   O27933148   2.273   6.237   8.648
    1STR   C28033149   2.205   6.185   8.534
    1STR   H28133150   2.230   6.245   8.448
    1STR   C28233151   2.254   6.043   8.498
    1STR   H28333152   2.223   5.969   8.571
    1STR   H28433153   2.362   6.039   8.489
    1STR   H28533154   2.212   6.012   8.403
    1STR   C28633155   2.050   6.190   8.552
    1STR   H28733156   2.005   6.287   8.536
    1STR   H28833157   2.004   6.129   8.475
    1STR   O28933158   2.010   6.137   8.677
    1STR   C29033159   1.961   6.221   8.783
    1STR   H29133160   1.974   6.164   8.876
    1STR   C29233161   2.037   6.350   8.804
    1STR   H29333162   2.018   6.414   8.722
    1STR   H29433163   2.142   6.332   8.815
    1STR   H29533164   2.005   6.406   8.891
    1STR   C29633165   1.813   6.252   8.763
    1STR   H29733166   1.803   6.303   8.667
    1STR   H29833167   1.752   6.163   8.760
    1STR   O29933168   1.773   6.334   8.872
    1STR   C30033169   1.639   6.377   8.871
    1STR   H30133170   1.639   6.458   8.943
    1STR   C30233171   1.605   6.444   8.738
    1STR   H30333172   1.593   6.373   8.656
    1STR   H30433173   1.683   6.516   8.710
    1STR   H30533174   1.513   6.498   8.748
    1STR   C30633175   1.538   6.265   8.915
    1STR   H30733176   1.445   6.308   8.952
    1STR   H30833177   1.512   6.207   8.827
    1STR   O30933178   1.591   6.169   9.008
    1STR    H1R33179   1.662   6.141   9.199
    1STR    H1S33180   1.565   6.408   9.127
    1STR    H1T33181   1.726   6.350   9.131
    1STR    H1U33182   1.637   6.368   9.278
    1STR    H1V33183   1.437   6.038   9.150
    1STR    H1W33184   1.369   6.181   9.215
    1STR    H1X33185   1.512   5.973   0.249
    1STR    H1Y33186   1.510   6.053   0.520
    1STR    H1Z33187   1.670   6.150   0.682
    1STR    H2033188   1.934   6.204   0.701
    1STR    H2133189   1.987   6.333   0.596
    1STR    H2233190   1.852   6.360   0.705
    1STR    H2333191   2.018   6.288   0.363
    1STR    H2733192   1.748   6.212   0.203
    1STR    H2833193   1.843   5.173   0.599
    1STR    H2933194   1.602   5.191   0.540
    1STR    H2A33195   1.454   5.091   0.212
    1STR    H2B33196   1.464   5.256   0.272
    1STR    H2C33197   1.425   5.123   0.383
    1STR   BCK133198   2.409   4.913   2.085
    1STR    O0333199   2.451   4.816   2.024
    1STR    N0433200   2.480   5.017   2.115
    1STR    C0533201   2.613   5.042   2.095
    1STR    C0633202   2.670   5.042   1.968
    1STR    C0733203   2.779   5.126   1.942
    1STR    N0833204   2.790   5.177   1.815
    1STR    C0933205   2.885   5.168   1.724
    1STR    O0A33206   2.996   5.122   1.747
    1STR    O0B33207   2.844   5.211   1.600
    1STR    C0C33208   2.726   5.287   1.570
    1STR    C0D33209   2.724   5.305   1.418
    1STR    C0E33210   2.588   5.243   1.632
    1STR    O0F33211   2.571   5.306   1.758
    1STR    C0G33212   2.487   5.255   1.862
    1STR    C0H33213   2.532   5.316   1.995
    1STR    C0I33214   2.342   5.282   1.864
    1STR    O0J33215   2.294   5.207   1.977
    1STR    C0K33216   2.923   6.360   2.389
    1STR    C0M33217   2.933   6.224   2.322
    1STR    C0N33218   2.880   6.472   2.287
    1STR    O0O33219   2.844   6.592   2.348
    1STR    C0P33220   2.739   6.669   2.316
    1STR    O0Q33221   2.684   6.730   2.405
    1STR    N0R33222   2.686   6.686   2.194
    1STR    C0S33223   2.696   6.645   2.061
    1STR    C0T33224   2.818   6.649   1.993
    1STR    C0U33225   2.826   6.596   1.864
    1STR    C0V33226   2.712   6.547   1.797
    1STR    C0W33227   2.736   6.475   1.669
    1STR    C0X33228   2.582   6.557   1.853
    1STR    N0Y33229   2.468   6.513   1.780
    1STR   BCK233230   2.336   6.510   1.813
    1STR    O1033231   2.290   6.536   1.924
    1STR    C1333232   2.580   6.607   1.985
    1STR    C1433233   2.847   5.182   2.049
    1STR    C1533234   2.810   5.149   2.181
    1STR    C1633235   2.684   5.095   2.202
    1STR    C1733236   2.615   5.099   2.334
    1STR    H1B33237   2.425   5.093   2.156
    1STR    H1C33238   2.618   4.998   1.889
    1STR    H1D33239   2.705   5.226   1.788
    1STR    H1E33240   2.746   5.388   1.603
    1STR    H1F33241   2.728   5.211   1.366
    1STR    H1G33242   2.635   5.359   1.385
    1STR    H1H33243   2.811   5.362   1.386
    1STR    H1I33244   2.579   5.136   1.641
    1STR    H1J33245   2.506   5.277   1.570
    1STR    H1K33246   2.491   5.149   1.859
    1STR    H1M33247   2.638   5.317   2.000
    1STR    H1N33248   2.495   5.267   2.084
    1STR    H1O33249   2.500   5.419   2.008
    1STR    H1P33250   2.327   5.388   1.866
    1STR    H1Q33251   2.287   5.256   1.780
    1STR   C01033252   2.219   5.290   2.059
    1STR   H01133253   2.278   5.380   2.071
    1STR   C01233254   2.092   5.305   1.975
    1STR   H01333255   2.064   5.205   1.944
    1STR   H01433256   2.105   5.358   1.881
    1STR   H01533257   2.012   5.354   2.028
    1STR   C01633258   2.188   5.244   2.202
    1STR   H01733259   2.130   5.322   2.250
    1STR   H01833260   2.118   5.162   2.192
    1STR   O01933261   2.302   5.212   2.286
    1STR   C02033262   2.288   5.245   2.426
    1STR   H02133263   2.286   5.351   2.427
    1STR   C02233264   2.158   5.202   2.493
    1STR   H02333265   2.153   5.095   2.509
    1STR   H02433266   2.075   5.236   2.436
    1STR   H02533267   2.145   5.247   2.591
    1STR   C02633268   2.403   5.202   2.518
    1STR   H02733269   2.419   5.095   2.512
    1STR   H02833270   2.495   5.253   2.494
    1STR   O02933271   2.372   5.230   2.653
    1STR   C03033272   2.424   5.346   2.712
    1STR   H03133273   2.432   5.405   2.627
    1STR   C03233274   2.316   5.410   2.800
    1STR   H03333275   2.333   5.393   2.906
    1STR   H03433276   2.217   5.374   2.773
    1STR   H03533277   2.308   5.515   2.785
    1STR   C03633278   2.568   5.339   2.767
    1STR   H03733279   2.595   5.435   2.809
    1STR   H03833280   2.577   5.270   2.850
    1STR   O03933281   2.654   5.305   2.659
    1STR   C04033282   2.793   5.332   2.677
    1STR   H04133283   2.806   5.428   2.726
    1STR   C04233284   2.856   5.222   2.762
    1STR   H04333285   2.844   5.123   2.716
    1STR   H04433286   2.812   5.218   2.862
    1STR   H04533287   2.962   5.239   2.774
    1STR   C04633288   2.857   5.340   2.537
    1STR   H04733289   2.964   5.361   2.545
    1STR   H04833290   2.850   5.242   2.489
    1STR   O04933291   2.798   5.445   2.460
    1STR   C05033292   2.753   5.416   2.328
    1STR   H05133293   2.734   5.312   2.329
    1STR   C05233294   2.611   5.461   2.305
    1STR   H05333295   2.590   5.471   2.199
    1STR   H05433296   2.589   5.553   2.355
    1STR   H05533297   2.538   5.388   2.337
    1STR   C05633298   2.852   5.452   2.214
    1STR   H05733299   2.904   5.543   2.236
    1STR   H05833300   2.933   5.381   2.216
    1STR   O05933301   2.788   5.451   2.084
    1STR   C06033302   2.841   5.520   1.970
    1STR   H06133303   2.850   5.622   2.001
    1STR   C06233304   2.983   5.470   1.940
    1STR   H06333305   2.985   5.376   1.886
    1STR   H06433306   3.042   5.463   2.030
    1STR   H06533307   3.034   5.540   1.878
    1STR   C06633308   2.752   5.526   1.839
    1STR   H06733309   2.790   5.601   1.771
    1STR   H06833310   2.773   5.430   1.795
    1STR   O06933311   2.606   5.535   1.847
    1STR   C07033312   2.520   5.615   1.762
    1STR   H07133313   2.573   5.709   1.744
    1STR   C07233314   2.495   5.553   1.624
    1STR   H07333315   2.431   5.466   1.635
    1STR   H07433316   2.586   5.526   1.574
    1STR   H07533317   2.441   5.623   1.560
    1STR   C07633318   2.379   5.648   1.827
    1STR   H07733319   2.370   5.756   1.840
    1STR   H07833320   2.304   5.628   1.752
    1STR   O07933321   2.341   5.587   1.954
    1STR   C08033322   2.214   5.627   2.010
    1STR   H08133323   2.228   5.734   2.020
    1STR   C08233324   2.100   5.618   1.906
    1STR   H08333325   2.007   5.578   1.947
    1STR   H08433326   2.123   5.555   1.821
    1STR   H08533327   2.077   5.717   1.866
    1STR   C08633328   2.168   5.573   2.155
    1STR   H08733329   2.114   5.653   2.202
    1STR   H08833330   2.089   5.501   2.148
    1STR   O08933331   2.262   5.533   2.260
    1STR   C09033332   2.238   5.587   2.394
    1STR   H09133333   2.226   5.691   2.396
    1STR   C09233334   2.104   5.533   2.451
    1STR   H09333335   2.038   5.492   2.375
    1STR   H09433336   2.047   5.613   2.498
    1STR   H09533337   2.118   5.458   2.528
    1STR   C09633338   2.358   5.584   2.491
    1STR   H09733339   2.314   5.559   2.585
    1STR   H09833340   2.418   5.503   2.458
    1STR   O09933341   2.448   5.694   2.522
    1STR   C10033342   2.544   5.662   2.628
    1STR   H10133343   2.552   5.555   2.630
    1STR   C10233344   2.693   5.686   2.601
    1STR   H10333345   2.726   5.652   2.504
    1STR   H10433346   2.754   5.631   2.672
    1STR   H10533347   2.724   5.787   2.612
    1STR   C10633348   2.517   5.713   2.771
    1STR   H10733349   2.571   5.649   2.841
    1STR   H10833350   2.562   5.812   2.785
    1STR   O10933351   2.381   5.724   2.810
    1STR   C11033352   2.350   5.708   2.950
    1STR   H11133353   2.368   5.605   2.979
    1STR   C11233354   2.440   5.798   3.036
    1STR   H11333355   2.427   5.900   3.002
    1STR   H11433356   2.546   5.772   3.029
    1STR   H11533357   2.413   5.792   3.141
    1STR   C11633358   2.201   5.743   2.978
    1STR   H11733359   2.181   5.723   3.083
    1STR   H11833360   2.188   5.850   2.965
    1STR   O11933361   2.103   5.669   2.903
    1STR   C12033362   2.032   5.747   2.806
    1STR   H12133363   1.996   5.840   2.850
    1STR   C12233364   2.130   5.776   2.695
    1STR   H12333365   2.179   5.684   2.667
    1STR   H12433366   2.207   5.846   2.722
    1STR   H12533367   2.078   5.812   2.608
    1STR   C12633368   1.912   5.673   2.745
    1STR   H12733369   1.946   5.578   2.702
    1STR   H12833370   1.840   5.649   2.823
    1STR   O12933371   1.854   5.759   2.645
    1STR   C13033372   1.757   5.701   2.558
    1STR   H13133373   1.793   5.604   2.526
    1STR   C13233374   1.628   5.687   2.641
    1STR   H13333375   1.597   5.784   2.680
    1STR   H13433376   1.641   5.620   2.725
    1STR   H13533377   1.545   5.649   2.581
    1STR   C13633378   1.732   5.788   2.432
    1STR   H13733379   1.638   5.760   2.385
    1STR   H13833380   1.725   5.893   2.462
    1STR   O13933381   1.834   5.773   2.333
    1STR   C14033382   1.822   5.841   2.206
    1STR   H14133383   1.741   5.787   2.157
    1STR   C14233384   1.775   5.986   2.216
    1STR   H14333385   1.842   6.043   2.280
    1STR   H14433386   1.675   5.994   2.257
    1STR   H14533387   1.774   6.034   2.118
    1STR   C14633388   1.946   5.822   2.111
    1STR   H14733389   1.956   5.716   2.101
    1STR   H14833390   1.909   5.850   2.012
    1STR   O14933391   2.075   5.893   2.115
    1STR   C15033392   2.171   5.898   2.226
    1STR   H15133393   2.194   6.001   2.239
    1STR   C15233394   2.093   5.878   2.353
    1STR   H15333395   2.049   5.781   2.359
    1STR   H15433396   2.017   5.954   2.368
    1STR   H15533397   2.161   5.883   2.437
    1STR   C15633398   2.319   5.835   2.227
    1STR   H15733399   2.362   5.846   2.326
    1STR   H15833400   2.316   5.733   2.222
    1STR   O15933401   2.423   5.834   2.127
    1STR   C16033402   2.544   5.750   2.154
    1STR   H16133403   2.502   5.652   2.175
    1STR   C16233404   2.612   5.739   2.025
    1STR   H16333405   2.700   5.800   2.008
    1STR   H16433406   2.544   5.761   1.948
    1STR   H16533407   2.640   5.637   2.031
    1STR   C16633408   2.675   5.775   2.243
    1STR   H16733409   2.704   5.876   2.258
    1STR   H16833410   2.658   5.737   2.341
    1STR   O16933411   2.803   5.729   2.194
    1STR   C17033412   2.924   5.804   2.219
    1STR   H17133413   2.906   5.910   2.213
    1STR   C17233414   2.972   5.777   2.362
    1STR   H17333415   3.002   5.674   2.378
    1STR   H17433416   2.894   5.799   2.433
    1STR   H17533417   3.057   5.841   2.387
    1STR   C17633418   3.037   5.774   2.116
    1STR   H17733419   3.119   5.842   2.138
    1STR   H17833420   3.076   5.673   2.131
    1STR   O17933421   3.001   5.786   1.977
    1STR   C18033422   3.108   5.814   1.885
    1STR   H18133423   3.203   5.779   1.927
    1STR   C18233424   3.085   5.748   1.748
    1STR   H18333425   2.979   5.744   1.724
    1STR   H18433426   3.127   5.648   1.740
    1STR   H18533427   3.134   5.804   1.668
    1STR   C18633428   3.114   5.965   1.862
    1STR   H18733429   3.211   5.995   1.825
    1STR   H18833430   3.042   5.990   1.784
    1STR   O18933431   3.085   6.036   1.982
    1STR   C19033432   2.973   6.123   1.973
    1STR   H19133433   2.968   6.172   2.068
    1STR   C19233434   3.001   6.236   1.872
    1STR   H19333435   2.998   6.203   1.769
    1STR   H19433436   3.099   6.280   1.892
    1STR   H19533437   2.927   6.315   1.883
    1STR   C19633438   2.836   6.053   1.957
    1STR   H19733439   2.777   6.117   1.893
    1STR   H19833440   2.843   5.957   1.906
    1STR   O19933441   2.770   6.034   2.084
    1STR   C20033442   2.626   6.043   2.089
    1STR   H20133443   2.604   6.142   2.076
    1STR   C20233444   2.558   6.015   1.952
    1STR   H20333445   2.610   5.946   1.886
    1STR   H20433446   2.556   6.103   1.888
    1STR   H20533447   2.456   5.982   1.963
    1STR   C20633448   2.552   6.045   2.233
    1STR   H20733449   2.461   6.104   2.233
    1STR   H20833450   2.514   5.957   2.268
    1STR   O20933451   2.630   6.061   2.352
    1STR   C21033452   2.598   5.989   2.474
    1STR   H21133453   2.596   5.884   2.456
    1STR   C21233454   2.720   6.021   2.557
    1STR   H21333455   2.732   6.128   2.563
    1STR   H21433456   2.809   5.982   2.509
    1STR   H21533457   2.713   5.986   2.659
    1STR   C21633458   2.472   6.009   2.560
    1STR   H21733459   2.465   5.928   2.632
    1STR   H21833460   2.486   6.095   2.624
    1STR   O21933461   2.349   5.999   2.488
    1STR   C22033462   2.250   6.100   2.505
    1STR   H22133463   2.193   6.108   2.414
    1STR   C22233464   2.152   6.084   2.621
    1STR   H22333465   2.202   6.050   2.711
    1STR   H22433466   2.069   6.018   2.596
    1STR   H22533467   2.106   6.179   2.645
    1STR   C22633468   2.314   6.231   2.516
    1STR   H22733469   2.232   6.298   2.506
    1STR   H22833470   2.349   6.241   2.617
    1STR   O22933471   2.413   6.243   2.419
    1STR   C23033472   2.491   6.359   2.430
    1STR   H23133473   2.453   6.441   2.371
    1STR   C23233474   2.533   6.390   2.573
    1STR   H23333475   2.572   6.298   2.616
    1STR   H23433476   2.455   6.425   2.637
    1STR   H23533477   2.613   6.463   2.573
    1STR   C23633478   2.619   6.338   2.367
    1STR   H23733479   2.669   6.431   2.381
    1STR   H23833480   2.668   6.262   2.424
    1STR   O23933481   2.625   6.291   2.238
    1STR   C24033482   2.583   6.372   2.136
    1STR   H24133483   2.582   6.469   2.181
    1STR   C24233484   2.694   6.343   2.031
    1STR   H24333485   2.762   6.267   2.066
    1STR   H24433486   2.770   6.416   2.021
    1STR   H24533487   2.657   6.315   1.933
    1STR   C24633488   2.439   6.340   2.102
    1STR   H24733489   2.399   6.289   2.188
    1STR   H24833490   2.381   6.431   2.103
    1STR   O24933491   2.427   6.263   1.983
    1STR   C25033492   2.297   6.225   1.946
    1STR   H25133493   2.243   6.314   1.936
    1STR   C25233494   2.300   6.156   1.807
    1STR   H25333495   2.360   6.214   1.738
    1STR   H25433496   2.200   6.145   1.765
    1STR   H25533497   2.340   6.056   1.809
    1STR   C25633498   2.219   6.150   2.052
    1STR   H25733499   2.129   6.106   2.010
    1STR   H25833500   2.286   6.067   2.074
    1STR   O25933501   2.189   6.221   2.174
    1STR   C26033502   2.108   6.339   2.171
    1STR   H26133503   2.150   6.413   2.104
    1STR   C26233504   1.968   6.296   2.123
    1STR   H26333505   1.935   6.212   2.183
    1STR   H26433506   1.968   6.262   2.020
    1STR   H26533507   1.895   6.376   2.133
    1STR   C26633508   2.101   6.409   2.309
    1STR   H26733509   2.033   6.493   2.300
    1STR   H26833510   2.065   6.337   2.382
    1STR   O26933511   2.225   6.454   2.361
    1STR   C27033512   2.241   6.540   2.477
    1STR   H27133513   2.344   6.534   2.501
    1STR   C27233514   2.247   6.674   2.419
    1STR   H27333515   2.244   6.747   2.498
    1STR   H27433516   2.163   6.682   2.355
    1STR   H27533517   2.337   6.685   2.359
    1STR   C27633518   2.198   6.533   2.628
    1STR   H27733519   2.257   6.608   2.679
    1STR   H27833520   2.105   6.580   2.651
    1STR   O27933521   2.215   6.410   2.700
    1STR   C28033522   2.280   6.417   2.827
    1STR   H28133523   2.369   6.480   2.820
    1STR   C28233524   2.183   6.486   2.922
    1STR   H28333525   2.112   6.416   2.964
    1STR   H28433526   2.128   6.568   2.875
    1STR   H28533527   2.238   6.535   3.001
    1STR   C28633528   2.326   6.278   2.879
    1STR   H28733529   2.325   6.274   2.988
    1STR   H28833530   2.251   6.205   2.850
    1STR   O28933531   2.454   6.233   2.829
    1STR   C29033532   2.564   6.242   2.920
    1STR   H29133533   2.542   6.324   2.987
    1STR   C29233534   2.577   6.116   3.005
    1STR   H29333535   2.599   6.031   2.942
    1STR   H29433536   2.486   6.098   3.062
    1STR   H29533537   2.659   6.126   3.076
    1STR   C29633538   2.699   6.279   2.853
    1STR   H29733539   2.679   6.350   2.778
    1STR   H29833540   2.762   6.330   2.925
    1STR   O29933541   2.777   6.183   2.784
    1STR   C30033542   2.905   6.237   2.742
    1STR   H30133543   2.948   6.277   2.834
    1STR   C30233544   2.997   6.121   2.704
    1STR   H30333545   2.969   6.077   2.610
    1STR   H30433546   2.996   6.044   2.780
    1STR   H30533547   3.100   6.156   2.692
    1STR   C30633548   2.911   6.353   2.636
    1STR   H30733549   2.861   6.440   2.672
    1STR   H30833550   3.013   6.385   2.624
    1STR   O30933551   2.850   6.335   2.510
    1STR    H1R33552   3.019   6.392   2.419
    1STR    H1S33553   2.842   6.194   2.272
    1STR    H1T33554   2.956   6.144   2.393
    1STR    H1U33555   3.014   6.227   2.251
    1STR    H1V33556   2.801   6.439   2.226
    1STR    H1W33557   2.951   6.498   2.212
    1STR    H1X33558   2.611   6.752   2.216
    1STR    H1Y33559   2.905   6.687   2.042
    1STR    H1Z33560   2.923   6.585   1.820
    1STR    H2033561   2.835   6.428   1.667
    1STR    H2133562   2.662   6.397   1.653
    1STR    H2233563   2.733   6.551   1.594
    1STR    H2333564   2.485   6.481   1.687
    1STR    H2733565   2.484   6.608   2.035
    1STR    H2833566   2.929   5.245   2.030
    1STR    H2933567   2.870   5.179   2.264
    1STR    H2A33568   2.546   5.180   2.315
    1STR    H2B33569   2.679   5.121   2.419
    1STR    H2C33570   2.555   5.011   2.351
    1STR   BCK133571   1.894   5.204   4.309
    1STR    O0333572   1.933   5.195   4.194
    1STR    N0433573   1.770   5.253   4.328
    1STR    C0533574   1.697   5.282   4.443
    1STR    C0633575   1.728   5.228   4.568
    1STR    C0733576   1.671   5.277   4.686
    1STR    N0833577   1.726   5.225   4.801
    1STR    C0933578   1.719   5.265   4.926
    1STR    O0A33579   1.649   5.356   4.970
    1STR    O0B33580   1.811   5.198   4.993
    1STR    C0C33581   1.911   5.276   5.054
    1STR    C0D33582   1.866   5.324   5.196
    1STR    C0E33583   2.048   5.210   5.036
    1STR    O0F33584   2.114   5.232   4.911
    1STR    C0G33585   2.232   5.151   4.893
    1STR    C0H33586   2.185   5.048   4.789
    1STR    C0I33587   2.352   5.237   4.846
    1STR    O0J33588   2.485   5.200   4.897
    1STR    C0K33589   2.701   6.574   4.481
    1STR    C0M33590   2.765   6.601   4.351
    1STR    C0N33591   2.557   6.548   4.437
    1STR    O0O33592   2.448   6.516   4.517
    1STR    C0P33593   2.329   6.519   4.459
    1STR    O0Q33594   2.313   6.550   4.343
    1STR    N0R33595   2.231   6.486   4.542
    1STR    C0S33596   2.100   6.448   4.516
    1STR    C0T33597   2.044   6.459   4.391
    1STR    C0U33598   1.924   6.398   4.351
    1STR    C0V33599   1.846   6.335   4.444
    1STR    C0W33600   1.716   6.274   4.400
    1STR    C0X33601   1.886   6.345   4.577
    1STR    N0Y33602   1.789   6.338   4.672
    1STR   BCK233603   1.771   6.445   4.748
    1STR    O1033604   1.730   6.433   4.862
    1STR    C1333605   2.015   6.395   4.611
    1STR    C1433606   1.576   5.381   4.678
    1STR    C1533607   1.539   5.433   4.552
    1STR    C1633608   1.595   5.380   4.434
    1STR    C1733609   1.548   5.430   4.299
    1STR    H1B33610   1.731   5.278   4.239
    1STR    H1C33611   1.801   5.150   4.580
    1STR    H1D33612   1.802   5.160   4.792
    1STR    H1E33613   1.918   5.362   4.992
    1STR    H1F33614   1.896   5.265   5.280
    1STR    H1G33615   1.903   5.422   5.223
    1STR    H1H33616   1.758   5.332   5.202
    1STR    H1I33617   2.040   5.103   5.048
    1STR    H1J33618   2.113   5.249   5.112
    1STR    H1K33619   2.262   5.103   4.986
    1STR    H1M33620   2.088   5.074   4.746
    1STR    H1N33621   2.177   4.949   4.834
    1STR    H1O33622   2.253   5.039   4.704
    1STR    H1P33623   2.345   5.241   4.738
    1STR    H1Q33624   2.328   5.339   4.874
    1STR   C01033625   2.610   5.260   4.846
    1STR   H01133626   2.610   5.367   4.848
    1STR   C01233627   2.728   5.243   4.941
    1STR   H01333628   2.778   5.148   4.926
    1STR   H01433629   2.694   5.251   5.044
    1STR   H01533630   2.803   5.320   4.924
    1STR   C01633631   2.652   5.224   4.703
    1STR   H01733632   2.717   5.301   4.662
    1STR   H01833633   2.707   5.131   4.697
    1STR   O01933634   2.534   5.216   4.627
    1STR   C02033635   2.543   5.160   4.500
    1STR   H02133636   2.610   5.074   4.498
    1STR   C02233637   2.399   5.119   4.464
    1STR   H02333638   2.326   5.168   4.527
    1STR   H02433639   2.381   5.013   4.475
    1STR   H02533640   2.377   5.143   4.361
    1STR   C02633641   2.604   5.262   4.407
    1STR   H02733642   2.575   5.238   4.306
    1STR   H02833643   2.559   5.358   4.427
    1STR   O02933644   2.746   5.264   4.421
    1STR   C03033645   2.802   5.385   4.372
    1STR   H03133646   2.742   5.459   4.417
    1STR   C03233647   2.939   5.409   4.435
    1STR   H03333648   3.009   5.330   4.413
    1STR   H03433649   2.930   5.417   4.543
    1STR   H03533650   2.983   5.502   4.399
    1STR   C03633651   2.797   5.402   4.218
    1STR   H03733652   2.844   5.492   4.180
    1STR   H03833653   2.865   5.329   4.178
    1STR   O03933654   2.664   5.387   4.165
    1STR   C04033655   2.581   5.501   4.168
    1STR   H04133656   2.619   5.563   4.244
    1STR   C04233657   2.600   5.572   4.036
    1STR   H04333658   2.578   5.500   3.959
    1STR   H04433659   2.701   5.610   4.027
    1STR   H04533660   2.532   5.654   4.021
    1STR   C04633661   2.433   5.489   4.209
    1STR   H04733662   2.427   5.529   4.309
    1STR   H04833663   2.374   5.557   4.148
    1STR   O04933664   2.370   5.362   4.207
    1STR   C05033665   2.242   5.357   4.271
    1STR   H05133666   2.209   5.253   4.265
    1STR   C05233667   2.256   5.390   4.417
    1STR   H05333668   2.227   5.493   4.433
    1STR   H05433669   2.356   5.378   4.456
    1STR   H05533670   2.191   5.331   4.479
    1STR   C05633671   2.128   5.442   4.210
    1STR   H05733672   2.161   5.530   4.158
    1STR   H05833673   2.075   5.383   4.137
    1STR   O05933674   2.032   5.473   4.310
    1STR   C06033675   1.948   5.584   4.291
    1STR   H06133676   2.003   5.676   4.291
    1STR   C06233677   1.871   5.569   4.159
    1STR   H06333678   1.835   5.466   4.147
    1STR   H06433679   1.935   5.592   4.074
    1STR   H06533680   1.784   5.634   4.152
    1STR   C06633681   1.857   5.585   4.413
    1STR   H06733682   1.773   5.653   4.406
    1STR   H06833683   1.817   5.487   4.407
    1STR   O06933684   1.921   5.604   4.539
    1STR   C07033685   1.874   5.519   4.644
    1STR   H07133686   1.786   5.475   4.605
    1STR   C07233687   1.979   5.411   4.665
    1STR   H07333688   2.066   5.451   4.716
    1STR   H07433689   2.011   5.373   4.569
    1STR   H07533690   1.946   5.328   4.726
    1STR   C07633691   1.824   5.581   4.777
    1STR   H07733692   1.811   5.687   4.764
    1STR   H07833693   1.727   5.544   4.807
    1STR   O07933694   1.916   5.544   4.878
    1STR   C08033695   1.937   5.620   4.995
    1STR   H08133696   1.953   5.724   4.977
    1STR   C08233697   1.811   5.624   5.084
    1STR   H08333698   1.761   5.529   5.089
    1STR   H08433699   1.738   5.692   5.040
    1STR   H08533700   1.833   5.658   5.185
    1STR   C08633701   2.070   5.568   5.056
    1STR   H08733702   2.099   5.633   5.136
    1STR   H08833703   2.057   5.473   5.103
    1STR   O08933704   2.181   5.547   4.966
    1STR   C09033705   2.305   5.537   5.037
    1STR   H09133706   2.308   5.623   5.097
    1STR   C09233707   2.310   5.423   5.132
    1STR   H09333708   2.307   5.325   5.086
    1STR   H09433709   2.233   5.430   5.207
    1STR   H09533710   2.408   5.428   5.179
    1STR   C09633711   2.443   5.544   4.970
    1STR   H09733712   2.508   5.605   5.034
    1STR   H09833713   2.490   5.447   4.977
    1STR   O09933714   2.454   5.603   4.845
    1STR   C10033715   2.448   5.523   4.728
    1STR   H10133716   2.470   5.420   4.729
    1STR   C10233717   2.309   5.532   4.679
    1STR   H10333718   2.247   5.589   4.745
    1STR   H10433719   2.266   5.434   4.666
    1STR   H10533720   2.314   5.583   4.586
    1STR   C10633721   2.554   5.591   4.646
    1STR   H10733722   2.512   5.689   4.654
    1STR   H10833723   2.649   5.581   4.699
    1STR   O10933724   2.578   5.571   4.508
    1STR   C11033725   2.632   5.692   4.451
    1STR   H11133726   2.653   5.756   4.531
    1STR   C11233727   2.771   5.696   4.389
    1STR   H11333728   2.793   5.635   4.306
    1STR   H11433729   2.848   5.682   4.465
    1STR   H11533730   2.784   5.791   4.342
    1STR   C11633731   2.525   5.769   4.377
    1STR   H11733732   2.542   5.876   4.385
    1STR   H11833733   2.521   5.743   4.274
    1STR   O11933734   2.408   5.736   4.443
    1STR   C12033735   2.299   5.815   4.411
    1STR   H12133736   2.326   5.920   4.403
    1STR   C12233737   2.248   5.759   4.283
    1STR   H12333738   2.230   5.655   4.301
    1STR   H12433739   2.313   5.769   4.198
    1STR   H12533740   2.156   5.806   4.263
    1STR   C12633741   2.196   5.792   4.521
    1STR   H12733742   2.114   5.859   4.500
    1STR   H12833743   2.152   5.693   4.516
    1STR   O12933744   2.255   5.814   4.650
    1STR   C13033745   2.167   5.852   4.756
    1STR   H13133746   2.122   5.945   4.737
    1STR   C13233747   2.043   5.775   4.753
    1STR   H13333748   2.066   5.674   4.781
    1STR   H13433749   1.995   5.773   4.657
    1STR   H13533750   1.970   5.826   4.814
    1STR   C13633751   2.232   5.856   4.894
    1STR   H13733752   2.292   5.767   4.907
    1STR   H13833753   2.298   5.941   4.898
    1STR   O13933754   2.134   5.865   4.997
    1STR   C14033755   2.169   5.914   5.126
    1STR   H14133756   2.195   6.019   5.112
    1STR   C14233757   2.037   5.896   5.207
    1STR   H14333758   2.043   5.929   5.310
    1STR   H14433759   2.008   5.793   5.215
    1STR   H14533760   1.952   5.944   5.160
    1STR   C14633761   2.287   5.840   5.193
    1STR   H14733762   2.247   5.751   5.240
    1STR   H14833763   2.362   5.817   5.118
    1STR   O14933764   2.360   5.909   5.292
    1STR   C15033765   2.438   5.827   5.380
    1STR   H15133766   2.366   5.789   5.454
    1STR   C15233767   2.510   5.705   5.317
    1STR   H15333768   2.566   5.651   5.393
    1STR   H15433769   2.582   5.733   5.241
    1STR   H15533770   2.441   5.636   5.272
    1STR   C15633771   2.540   5.914   5.455
    1STR   H15733772   2.500   6.014   5.463
    1STR   H15833773   2.550   5.875   5.556
    1STR   O15933774   2.666   5.919   5.388
    1STR   C16033775   2.777   5.956   5.470
    1STR   H16133776   2.747   6.039   5.535
    1STR   C16233777   2.819   5.835   5.554
    1STR   H16333778   2.838   5.750   5.489
    1STR   H16433779   2.743   5.805   5.626
    1STR   H16533780   2.910   5.856   5.610
    1STR   C16633781   2.896   6.005   5.384
    1STR   H16733782   2.869   6.093   5.327
    1STR   H16833783   2.978   6.037   5.447
    1STR   O16933784   2.943   5.901   5.299
    1STR   C17033785   2.972   5.944   5.167
    1STR   H17133786   3.019   6.043   5.165
    1STR   C17233787   3.068   5.842   5.106
    1STR   H17333788   3.024   5.742   5.106
    1STR   H17433789   3.161   5.837   5.162
    1STR   H17533790   3.092   5.867   5.002
    1STR   C17633791   2.844   5.946   5.085
    1STR   H17733792   2.871   5.964   4.981
    1STR   H17833793   2.801   5.845   5.090
    1STR   O17933794   2.747   6.043   5.123
    1STR   C18033795   2.614   6.005   5.086
    1STR   H18133796   2.590   5.910   5.132
    1STR   C18233797   2.503   6.103   5.130
    1STR   H18333798   2.523   6.207   5.106
    1STR   H18433799   2.486   6.097   5.236
    1STR   H18533800   2.407   6.080   5.084
    1STR   C18633801   2.601   5.989   4.938
    1STR   H18733802   2.497   5.966   4.924
    1STR   H18833803   2.621   6.081   4.887
    1STR   O18933804   2.681   5.888   4.879
    1STR   C19033805   2.671   5.882   4.738
    1STR   H19133806   2.687   5.777   4.729
    1STR   C19233807   2.530   5.924   4.691
    1STR   H19333808   2.506   6.027   4.711
    1STR   H19433809   2.456   5.865   4.743
    1STR   H19533810   2.512   5.910   4.587
    1STR   C19633811   2.787   5.940   4.655
    1STR   H19733812   2.807   6.036   4.694
    1STR   H19833813   2.877   5.881   4.672
    1STR   O19933814   2.757   5.947   4.514
    1STR   C20033815   2.848   6.012   4.425
    1STR   H20133816   2.861   6.107   4.473
    1STR   C20233817   2.987   5.944   4.423
    1STR   H20333818   3.056   5.996   4.358
    1STR   H20433819   2.985   5.841   4.388
    1STR   H20533820   3.032   5.944   4.522
    1STR   C20633821   2.792   6.043   4.281
    1STR   H20733822   2.771   6.150   4.275
    1STR   H20833823   2.875   6.031   4.212
    1STR   O20933824   2.676   5.970   4.233
    1STR   C21033825   2.625   5.999   4.102
    1STR   H21133826   2.612   6.106   4.093
    1STR   C21233827   2.729   5.946   4.000
    1STR   H21333828   2.740   5.838   4.010
    1STR   H21433829   2.828   5.988   4.013
    1STR   H21533830   2.699   5.967   3.898
    1STR   C21633831   2.487   5.933   4.065
    1STR   H21733832   2.485   5.924   3.957
    1STR   H21833833   2.490   5.831   4.097
    1STR   O21933834   2.363   5.986   4.115
    1STR   C22033835   2.246   5.997   4.028
    1STR   H22133836   2.221   6.092   4.068
    1STR   C22233837   2.279   6.027   3.881
    1STR   H22333838   2.192   6.065   3.829
    1STR   H22433839   2.311   5.938   3.827
    1STR   H22533840   2.357   6.103   3.872
    1STR   C22633841   2.106   5.922   4.043
    1STR   H22733842   2.047   5.954   3.958
    1STR   H22833843   2.119   5.815   4.030
    1STR   O22933844   2.026   5.947   4.162
    1STR   C23033845   1.881   5.967   4.166
    1STR   H23133846   1.864   6.073   4.181
    1STR   C23233847   1.807   5.928   4.037
    1STR   H23333848   1.830   5.825   4.007
    1STR   H23433849   1.832   5.995   3.954
    1STR   H23533850   1.700   5.936   4.051
    1STR   C23633851   1.816   5.899   4.291
    1STR   H23733852   1.758   5.814   4.260
    1STR   H23833853   1.898   5.859   4.350
    1STR   O23933854   1.726   5.978   4.372
    1STR   C24033855   1.712   5.939   4.511
    1STR   H24133856   1.698   5.831   4.517
    1STR   C24233857   1.842   5.974   4.579
    1STR   H24333858   1.841   5.948   4.684
    1STR   H24433859   1.863   6.080   4.571
    1STR   H24533860   1.926   5.921   4.539
    1STR   C24633861   1.597   6.006   4.593
    1STR   H24733862   1.534   6.065   4.526
    1STR   H24833863   1.527   5.931   4.629
    1STR   O24933864   1.646   6.093   4.699
    1STR   C25033865   1.640   6.054   4.838
    1STR   H25133866   1.549   6.099   4.878
    1STR   C25233867   1.630   5.904   4.867
    1STR   H25333868   1.718   5.853   4.829
    1STR   H25433869   1.541   5.856   4.827
    1STR   H25533870   1.629   5.886   4.975
    1STR   C25633871   1.759   6.113   4.919
    1STR   H25733872   1.742   6.219   4.934
    1STR   H25833873   1.762   6.073   5.020
    1STR   O25933874   1.888   6.092   4.860
    1STR   C26033875   1.985   6.195   4.882
    1STR   H26133876   1.943   6.289   4.852
    1STR   C26233877   2.013   6.217   5.029
    1STR   H26333878   2.003   6.127   5.085
    1STR   H26433879   1.945   6.292   5.071
    1STR   H26533880   2.114   6.255   5.042
    1STR   C26633881   2.113   6.178   4.796
    1STR   H26733882   2.171   6.270   4.802
    1STR   H26833883   2.180   6.107   4.841
    1STR   O26933884   2.074   6.147   4.661
    1STR   C27033885   2.170   6.116   4.558
    1STR   H27133886   2.215   6.024   4.583
    1STR   C27233887   2.109   6.105   4.418
    1STR   H27333888   2.027   6.036   4.408
    1STR   H27433889   2.184   6.077   4.345
    1STR   H27533890   2.070   6.200   4.389
    1STR   C27633891   2.289   6.203   4.547
    1STR   H27733892   2.278   6.266   4.460
    1STR   H27833893   2.298   6.264   4.635
    1STR   O27933894   2.397   6.116   4.526
    1STR   C28033895   2.520   6.178   4.502
    1STR   H28133896   2.592   6.099   4.497
    1STR   C28233897   2.515   6.230   4.358
    1STR   H28333898   2.438   6.303   4.338
    1STR   H28433899   2.492   6.146   4.292
    1STR   H28533900   2.610   6.271   4.327
    1STR   C28633901   2.561   6.268   4.621
    1STR   H28733902   2.595   6.361   4.584
    1STR   H28833903   2.483   6.293   4.692
    1STR   O28933904   2.665   6.210   4.696
    1STR   C29033905   2.730   6.300   4.784
    1STR   H29133906   2.730   6.401   4.747
    1STR   C29233907   2.662   6.317   4.916
    1STR   H29333908   2.698   6.247   4.991
    1STR   H29433909   2.554   6.313   4.907
    1STR   H29533910   2.690   6.413   4.954
    1STR   C29633911   2.874   6.251   4.800
    1STR   H29733912   2.930   6.325   4.853
    1STR   H29833913   2.873   6.164   4.865
    1STR   O29933914   2.935   6.212   4.679
    1STR   C30033915   2.967   6.310   4.583
    1STR   H30133916   3.027   6.384   4.633
    1STR   C30233917   3.075   6.247   4.496
    1STR   H30333918   3.038   6.209   4.401
    1STR   H30433919   3.131   6.170   4.548
    1STR   H30533920   3.145   6.326   4.470
    1STR   C30633921   2.847   6.367   4.499
    1STR   H30733922   2.888   6.392   4.403
    1STR   H30833923   2.773   6.292   4.477
    1STR   O30933924   2.782   6.482   4.556
    1STR    H1R33925   2.704   6.669   4.534
    1STR    H1S33926   2.711   6.679   4.302
    1STR    H1T33927   2.764   6.515   4.285
    1STR    H1U33928   2.863   6.640   4.364
    1STR    H1V33929   2.562   6.470   4.365
    1STR    H1W33930   2.526   6.638   4.385
    1STR    H1X33931   2.265   6.485   4.639
    1STR    H1Y33932   2.103   6.515   4.324
    1STR    H1Z33933   1.888   6.404   4.250
    1STR    H2033934   1.730   6.213   4.312
    1STR    H2133935   1.675   6.215   4.480
    1STR    H2233936   1.646   6.351   4.378
    1STR    H2333937   1.753   6.246   4.698
    1STR    H2733938   2.044   6.406   4.713
    1STR    H2833939   1.531   5.422   4.768
    1STR    H2933940   1.465   5.511   4.548
    1STR    H2A33941   1.525   5.346   4.234
    1STR    H2B33942   1.625   5.491   4.252
    1STR    H2C33943   1.457   5.490   4.309
    1STR   BCK133944   2.229   4.905   7.074
    1STR    O0333945   2.328   4.837   7.065
    1STR    N0433946   2.191   4.953   7.193
    1STR    C0533947   2.274   4.964   7.305
    1STR    C0633948   2.414   4.963   7.291
    1STR    C0733949   2.499   5.008   7.391
    1STR    N0833950   2.634   5.011   7.360
    1STR    C0933951   2.715   5.111   7.389
    1STR    O0A33952   2.688   5.198   7.468
    1STR    O0B33953   2.810   5.120   7.299
    1STR    C0C33954   2.831   5.248   7.244
    1STR    C0D33955   2.978   5.287   7.264
    1STR    C0E33956   2.789   5.240   7.097
    1STR    O0F33957   2.659   5.260   7.045
    1STR    C0G33958   2.551   5.188   7.100
    1STR    C0H33959   2.502   5.269   7.213
    1STR    C0I33960   2.424   5.165   7.016
    1STR    O0J33961   2.436   5.160   6.876
    1STR    C0K33962   1.865   6.325   7.643
    1STR    C0M33963   2.001   6.389   7.668
    1STR    C0N33964   1.765   6.439   7.636
    1STR    O0O33965   1.800   6.553   7.555
    1STR    C0P33966   1.814   6.543   7.422
    1STR    O0Q33967   1.809   6.439   7.359
    1STR    N0R33968   1.847   6.657   7.363
    1STR    C0S33969   1.933   6.645   7.256
    1STR    C0T33970   2.061   6.609   7.295
    1STR    C0U33971   2.155   6.572   7.201
    1STR    C0V33972   2.119   6.575   7.067
    1STR    C0W33973   2.223   6.531   6.975
    1STR    C0X33974   1.991   6.614   7.021
    1STR    N0Y33975   1.973   6.637   6.884
    1STR   BCK233976   1.919   6.568   6.786
    1STR    O1033977   1.959   6.581   6.672
    1STR    C1333978   1.896   6.648   7.119
    1STR    C1433979   2.440   5.057   7.507
    1STR    C1533980   2.305   5.037   7.535
    1STR    C1633981   2.222   4.991   7.433
    1STR    C1733982   2.079   4.968   7.465
    1STR    H1B33983   2.095   4.981   7.200
    1STR    H1C33984   2.464   4.941   7.199
    1STR    H1D33985   2.670   4.955   7.286
    1STR    H1E33986   2.776   5.328   7.292
    1STR    H1F33987   3.028   5.314   7.171
    1STR    H1G33988   2.985   5.372   7.332
    1STR    H1H33989   3.032   5.205   7.310
    1STR    H1I33990   2.820   5.146   7.056
    1STR    H1J33991   2.841   5.324   7.055
    1STR    H1K33992   2.590   5.096   7.138
    1STR    H1M33993   2.469   5.364   7.178
    1STR    H1N33994   2.577   5.291   7.285
    1STR    H1O33995   2.420   5.222   7.266
    1STR    H1P33996   2.395   5.067   7.044
    1STR    H1Q33997   2.341   5.229   7.046
    1STR   C01033998   2.353   5.244   6.799
    1STR   H01133999   2.357   5.340   6.835
    1STR   C01234000   2.420   5.249   6.666
    1STR   H01334001   2.414   5.152   6.617
    1STR   H01434002   2.524   5.273   6.676
    1STR   H01534003   2.376   5.329   6.608
    1STR   C01634004   2.201   5.238   6.794
    1STR   H01734005   2.169   5.327   6.743
    1STR   H01834006   2.160   5.157   6.734
    1STR   O01934007   2.145   5.242   6.924
    1STR   C02034008   2.015   5.296   6.929
    1STR   H02134009   2.027   5.403   6.924
    1STR   C02234010   1.928   5.244   6.815
    1STR   H02334011   1.931   5.135   6.815
    1STR   H02434012   1.959   5.277   6.717
    1STR   H02534013   1.826   5.279   6.826
    1STR   C02634014   1.956   5.265   7.066
    1STR   H02734015   1.999   5.171   7.100
    1STR   H02834016   1.988   5.339   7.137
    1STR   O02934017   1.815   5.258   7.061
    1STR   C03034018   1.747   5.371   7.113
    1STR   H03134019   1.812   5.457   7.113
    1STR   C03234020   1.634   5.402   7.014
    1STR   H03334021   1.576   5.314   6.990
    1STR   H03434022   1.677   5.434   6.920
    1STR   H03534023   1.568   5.480   7.050
    1STR   C03634024   1.701   5.340   7.256
    1STR   H03734025   1.645   5.420   7.304
    1STR   H03834026   1.631   5.259   7.252
    1STR   O03934027   1.805   5.287   7.335
    1STR   C04034028   1.882   5.373   7.418
    1STR   H04134029   1.916   5.460   7.362
    1STR   C04234030   1.798   5.413   7.540
    1STR   H04334031   1.756   5.324   7.588
    1STR   H04434032   1.716   5.478   7.513
    1STR   H04534033   1.859   5.465   7.614
    1STR   C04634034   2.002   5.286   7.458
    1STR   H04734035   1.974   5.215   7.536
    1STR   H04834036   2.027   5.226   7.371
    1STR   O04934037   2.115   5.361   7.501
    1STR   C05034038   2.232   5.347   7.422
    1STR   H05134039   2.265   5.245   7.424
    1STR   C05234040   2.200   5.372   7.273
    1STR   H05334041   2.115   5.438   7.261
    1STR   H05434042   2.182   5.278   7.221
    1STR   H05534043   2.280   5.418   7.217
    1STR   C05634044   2.347   5.428   7.486
    1STR   H05734045   2.309   5.522   7.524
    1STR   H05834046   2.386   5.374   7.573
    1STR   O05934047   2.452   5.448   7.392
    1STR   C06034048   2.561   5.534   7.420
    1STR   H06134049   2.503   5.614   7.457
    1STR   C06234050   2.656   5.501   7.534
    1STR   H06334051   2.601   5.477   7.624
    1STR   H06434052   2.719   5.587   7.557
    1STR   H06534053   2.725   5.422   7.507
    1STR   C06634054   2.635   5.596   7.299
    1STR   H06734055   2.558   5.659   7.259
    1STR   H06834056   2.714   5.656   7.341
    1STR   O06934057   2.694   5.523   7.191
    1STR   C07034058   2.762   5.605   7.092
    1STR   H07134059   2.730   5.708   7.099
    1STR   C07234060   2.907   5.619   7.139
    1STR   H07334061   2.953   5.522   7.150
    1STR   H07434062   2.912   5.668   7.236
    1STR   H07534063   2.965   5.680   7.070
    1STR   C07634064   2.749   5.559   6.940
    1STR   H07734065   2.838   5.593   6.888
    1STR   H07834066   2.750   5.452   6.928
    1STR   O07934067   2.642   5.612   6.858
    1STR   C08034068   2.530   5.527   6.827
    1STR   H08134069   2.576   5.442   6.779
    1STR   C08234070   2.476   5.482   6.960
    1STR   H08334071   2.524   5.515   7.049
    1STR   H08434072   2.506   5.382   6.959
    1STR   H08534073   2.369   5.478   6.976
    1STR   C08634074   2.416   5.576   6.729
    1STR   H08734075   2.408   5.682   6.730
    1STR   H08834076   2.448   5.555   6.627
    1STR   O08934077   2.280   5.525   6.747
    1STR   C09034078   2.172   5.614   6.710
    1STR   H09134079   2.198   5.705   6.756
    1STR   C09234080   2.177   5.628   6.563
    1STR   H09334081   2.147   5.530   6.532
    1STR   H09434082   2.275   5.650   6.525
    1STR   H09534083   2.105   5.699   6.525
    1STR   C09634084   2.022   5.588   6.746
    1STR   H09734085   1.960   5.649   6.681
    1STR   H09834086   1.995   5.487   6.719
    1STR   O09934087   1.981   5.613   6.880
    1STR   C10034088   1.898   5.725   6.910
    1STR   H10134089   1.942   5.817   6.876
    1STR   C10234090   1.755   5.712   6.853
    1STR   H10334091   1.698   5.642   6.913
    1STR   H10434092   1.752   5.679   6.750
    1STR   H10534093   1.703   5.807   6.861
    1STR   C10634094   1.898   5.734   7.062
    1STR   H10734095   1.904   5.636   7.107
    1STR   H10834096   1.988   5.785   7.095
    1STR   O10934097   1.786   5.806   7.107
    1STR   C11034098   1.766   5.800   7.247
    1STR   H11134099   1.700   5.882   7.262
    1STR   C11234100   1.689   5.677   7.290
    1STR   H11334101   1.758   5.594   7.285
    1STR   H11434102   1.604   5.658   7.225
    1STR   H11534103   1.654   5.685   7.393
    1STR   C11634104   1.889   5.825   7.335
    1STR   H11734105   1.939   5.916   7.301
    1STR   H11834106   1.856   5.843   7.438
    1STR   O11934107   1.979   5.715   7.333
    1STR   C12034108   2.094   5.741   7.412
    1STR   H12134109   2.101   5.846   7.428
    1STR   C12234110   2.072   5.681   7.551
    1STR   H12334111   2.050   5.575   7.545
    1STR   H12434112   1.988   5.728   7.602
    1STR   H12534113   2.159   5.693   7.615
    1STR   C12634114   2.225   5.700   7.343
    1STR   H12734115   2.310   5.722   7.406
    1STR   H12834116   2.224   5.595   7.331
    1STR   O12934117   2.246   5.762   7.217
    1STR   C13034118   2.329   5.698   7.121
    1STR   H13134119   2.362   5.603   7.162
    1STR   C13234120   2.219   5.676   7.024
    1STR   H13334121   2.263   5.640   6.936
    1STR   H13434122   2.171   5.769   6.994
    1STR   H13534123   2.146   5.603   7.059
    1STR   C13634124   2.455   5.768   7.052
    1STR   H13734125   2.493   5.852   7.103
    1STR   H13834126   2.538   5.706   7.064
    1STR   O13934127   2.463   5.791   6.911
    1STR   C14034128   2.555   5.889   6.856
    1STR   H14134129   2.500   5.981   6.868
    1STR   C14234130   2.689   5.905   6.928
    1STR   H14334131   2.758   5.824   6.908
    1STR   H14434132   2.681   5.917   7.035
    1STR   H14534133   2.738   5.995   6.891
    1STR   C14634134   2.591   5.873   6.704
    1STR   H14734135   2.648   5.961   6.674
    1STR   H14834136   2.659   5.788   6.693
    1STR   O14934137   2.486   5.854   6.609
    1STR   C15034138   2.516   5.884   6.472
    1STR   H15134139   2.538   5.991   6.465
    1STR   C15234140   2.637   5.802   6.425
    1STR   H15334141   2.629   5.698   6.457
    1STR   H15434142   2.730   5.841   6.466
    1STR   H15534143   2.646   5.804   6.316
    1STR   C15634144   2.391   5.857   6.384
    1STR   H15734145   2.404   5.769   6.323
    1STR   H15834146   2.304   5.835   6.444
    1STR   O15934147   2.365   5.958   6.289
    1STR   C16034148   2.247   6.034   6.309
    1STR   H16134149   2.255   6.090   6.402
    1STR   C16234150   2.250   6.136   6.195
    1STR   H16334151   2.240   6.086   6.098
    1STR   H16434152   2.345   6.190   6.194
    1STR   H16534153   2.170   6.209   6.204
    1STR   C16634154   2.116   5.950   6.303
    1STR   H16734155   2.037   6.006   6.255
    1STR   H16834156   2.133   5.863   6.239
    1STR   O16934157   2.071   5.901   6.430
    1STR   C17034158   2.005   5.995   6.514
    1STR   H17134159   2.063   6.085   6.510
    1STR   C17234160   1.864   6.021   6.458
    1STR   H17334161   1.811   5.927   6.441
    1STR   H17434162   1.865   6.077   6.365
    1STR   H17534163   1.804   6.078   6.529
    1STR   C17634164   1.992   5.949   6.661
    1STR   H17734165   1.932   6.018   6.719
    1STR   H17834166   1.924   5.864   6.656
    1STR   O17934167   2.103   5.894   6.735
    1STR   C18034168   2.227   5.953   6.783
    1STR   H18134169   2.296   5.871   6.789
    1STR   C18234170   2.284   6.036   6.673
    1STR   H18334171   2.220   6.116   6.653
    1STR   H18434172   2.287   5.978   6.583
    1STR   H18534173   2.384   6.072   6.695
    1STR   C18634174   2.231   6.015   6.925
    1STR   H18734175   2.260   6.116   6.911
    1STR   H18834176   2.130   6.005   6.962
    1STR   O18934177   2.328   5.986   7.026
    1STR   C19034178   2.316   6.040   7.159
    1STR   H19134179   2.328   6.147   7.156
    1STR   C19234180   2.174   6.018   7.204
    1STR   H19334181   2.118   5.942   7.152
    1STR   H19434182   2.122   6.111   7.203
    1STR   H19534183   2.174   5.982   7.305
    1STR   C19634184   2.415   5.988   7.272
    1STR   H19734185   2.387   6.038   7.362
    1STR   H19834186   2.402   5.886   7.298
    1STR   O19934187   2.557   6.005   7.259
    1STR   C20034188   2.649   5.931   7.338
    1STR   H20134189   2.646   5.837   7.288
    1STR   C20234190   2.793   5.977   7.320
    1STR   H20334191   2.808   6.078   7.354
    1STR   H20434192   2.822   5.970   7.215
    1STR   H20534193   2.864   5.913   7.373
    1STR   C20634194   2.621   5.915   7.488
    1STR   H20734195   2.707   5.869   7.537
    1STR   H20834196   2.601   6.008   7.539
    1STR   O20934197   2.515   5.824   7.496
    1STR   C21034198   2.453   5.800   7.621
    1STR   H21134199   2.395   5.708   7.613
    1STR   C21234200   2.551   5.784   7.739
    1STR   H21334201   2.608   5.875   7.757
    1STR   H21434202   2.621   5.702   7.722
    1STR   H21534203   2.495   5.761   7.830
    1STR   C21634204   2.355   5.910   7.641
    1STR   H21734205   2.294   5.877   7.724
    1STR   H21834206   2.415   5.993   7.673
    1STR   O21934207   2.275   5.946   7.528
    1STR   C22034208   2.196   6.063   7.552
    1STR   H22134209   2.270   6.119   7.599
    1STR   C22234210   2.169   6.175   7.450
    1STR   H22334211   2.074   6.159   7.400
    1STR   H22434212   2.249   6.193   7.379
    1STR   H22534213   2.159   6.271   7.498
    1STR   C22634214   2.066   6.027   7.626
    1STR   H22734215   2.011   6.115   7.650
    1STR   H22834216   2.001   5.976   7.556
    1STR   O22934217   2.081   5.941   7.738
    1STR   C23034218   2.075   6.006   7.863
    1STR   H23134219   2.045   6.109   7.852
    1STR   C23234220   1.961   5.935   7.936
    1STR   H23334221   1.980   5.827   7.943
    1STR   H23434222   1.868   5.947   7.881
    1STR   H23534223   1.946   5.974   8.036
    1STR   C23634224   2.211   6.001   7.939
    1STR   H23734225   2.198   6.045   8.037
    1STR   H23834226   2.237   5.897   7.956
    1STR   O23934227   2.324   6.062   7.874
    1STR   C24034228   2.310   6.194   7.819
    1STR   H24134229   2.223   6.202   7.758
    1STR   C24234230   2.262   6.284   7.922
    1STR   H24334231   2.257   6.388   7.890
    1STR   H24434232   2.331   6.269   8.003
    1STR   H24534233   2.160   6.259   7.949
    1STR   C24634234   2.436   6.256   7.753
    1STR   H24734235   2.410   6.361   7.744
    1STR   H24834236   2.521   6.250   7.821
    1STR   O24934237   2.480   6.212   7.623
    1STR   C25034238   2.499   6.315   7.524
    1STR   H25134239   2.401   6.355   7.502
    1STR   C25234240   2.597   6.418   7.581
    1STR   H25334241   2.696   6.374   7.594
    1STR   H25434242   2.568   6.464   7.675
    1STR   H25534243   2.602   6.504   7.518
    1STR   C25634244   2.555   6.258   7.390
    1STR   H25734245   2.662   6.252   7.387
    1STR   H25834246   2.534   6.157   7.410
    1STR   O25934247   2.489   6.297   7.266
    1STR   C26034248   2.553   6.300   7.134
    1STR   H26134249   2.619   6.384   7.126
    1STR   C26234250   2.632   6.182   7.085
    1STR   H26334251   2.567   6.100   7.057
    1STR   H26434252   2.703   6.148   7.159
    1STR   H26534253   2.689   6.201   6.995
    1STR   C26634254   2.448   6.322   7.025
    1STR   H26734255   2.413   6.231   6.981
    1STR   H26834256   2.365   6.361   7.082
    1STR   O26934257   2.493   6.411   6.923
    1STR   C27034258   2.489   6.375   6.784
    1STR   H27134259   2.544   6.455   6.735
    1STR   C27234260   2.566   6.249   6.748
    1STR   H27334261   2.538   6.169   6.814
    1STR   H27434262   2.671   6.264   6.759
    1STR   H27534263   2.549   6.217   6.645
    1STR   C27634264   2.351   6.379   6.717
    1STR   H27734265   2.314   6.479   6.718
    1STR   H27834266   2.360   6.351   6.612
    1STR   O27934267   2.257   6.298   6.782
    1STR   C28034268   2.118   6.324   6.759
    1STR   H28134269   2.102   6.423   6.790
    1STR   C28234270   2.091   6.317   6.607
    1STR   H28334271   2.169   6.275   6.546
    1STR   H28434272   2.084   6.417   6.567
    1STR   H28534273   2.000   6.264   6.584
    1STR   C28634274   2.047   6.229   6.861
    1STR   H28734275   2.056   6.133   6.818
    1STR   H28834276   2.113   6.239   6.945
    1STR   O28934277   1.918   6.230   6.924
    1STR   C29034278   1.921   6.188   7.063
    1STR   H29134279   1.972   6.093   7.067
    1STR   C29234280   1.982   6.300   7.148
    1STR   H29334281   1.925   6.391   7.130
    1STR   H29434282   2.087   6.320   7.131
    1STR   H29534283   1.973   6.282   7.254
    1STR   C29634284   1.787   6.158   7.130
    1STR   H29734285   1.736   6.253   7.132
    1STR   H29834286   1.732   6.084   7.072
    1STR   O29934287   1.807   6.109   7.265
    1STR   C30034288   1.708   6.148   7.360
    1STR   H30134289   1.684   6.251   7.340
    1STR   C30234290   1.578   6.066   7.345
    1STR   H30334291   1.578   5.976   7.406
    1STR   H30434292   1.562   6.038   7.241
    1STR   H30534293   1.489   6.121   7.370
    1STR   C30634294   1.760   6.151   7.506
    1STR   H30734295   1.677   6.174   7.572
    1STR   H30834296   1.794   6.052   7.535
    1STR   O30934297   1.867   6.245   7.525
    1STR    H1R34298   1.840   6.261   7.728
    1STR    H1S34299   2.030   6.446   7.580
    1STR    H1T34300   2.077   6.317   7.688
    1STR    H1U34301   1.998   6.456   7.753
    1STR    H1V34302   1.750   6.479   7.736
    1STR    H1W34303   1.670   6.397   7.607
    1STR    H1X34304   1.846   6.744   7.414
    1STR    H1Y34305   2.087   6.608   7.399
    1STR    H1Z34306   2.254   6.543   7.232
    1STR    H2034307   2.213   6.425   6.971
    1STR    H2134308   2.213   6.572   6.876
    1STR    H2234309   2.320   6.557   7.016
    1STR    H2334310   2.030   6.712   6.848
    1STR    H2734311   1.800   6.678   7.085
    1STR    H2834312   2.501   5.106   7.579
    1STR    H2934313   2.265   5.063   7.632
    1STR    H2A34314   2.021   5.025   7.396
    1STR    H2B34315   2.054   4.996   7.567
    1STR    H2C34316   2.060   4.862   7.453
    1STR   BCK134317   2.730   7.137   8.841
    1STR    O0334318   2.746   7.238   8.906
    1STR    N0434319   2.794   7.121   8.724
    1STR    C0534320   2.846   7.232   8.659
    1STR    C0634321   2.760   7.342   8.643
    1STR    C0734322   2.795   7.458   8.574
    1STR    N0834323   2.695   7.553   8.559
    1STR    C0934324   2.595   7.531   8.473
    1STR    O0A34325   2.606   7.451   8.382
    1STR    O0B34326   2.477   7.595   8.490
    1STR    C0C34327   2.452   7.684   8.596
    1STR    C0D34328   2.346   7.783   8.553
    1STR    C0E34329   2.417   7.607   8.724
    1STR    O0F34330   2.521   7.516   8.752
    1STR    C0G34331   2.545   7.466   8.882
    1STR    C0H34332   2.688   7.511   8.917
    1STR    C0I34333   2.439   7.489   8.990
    1STR    O0J34334   2.490   7.456   9.119
    1STR    C0K34335   2.891   8.812   9.193
    1STR    C0M34336   2.804   8.858   9.080
    1STR    C0N34337   2.809   8.772   9.315
    1STR    O0O34338   2.729   8.879   0.034
    1STR    C0P34339   2.727   8.926   0.157
    1STR    O0Q34340   2.739   8.862   0.260
    1STR    N0R34341   2.722   9.057   0.151
    1STR    C0S34342   2.642   9.112   0.055
    1STR    C0T34343   2.689   9.198   9.275
    1STR    C0U34344   2.601   9.235   9.173
    1STR    C0V34345   2.471   9.183   9.167
    1STR    C0W34346   2.378   9.246   9.066
    1STR    C0X34347   2.427   9.094   9.268
    1STR    N0Y34348   2.301   9.043   9.284
    1STR   BCK234349   2.217   8.998   9.196
    1STR    O1034350   2.099   8.996   9.219
    1STR    C1334351   2.512   9.064   0.053
    1STR    C1434352   2.925   7.469   8.522
    1STR    C1534353   3.015   7.361   8.537
    1STR    C1634354   2.976   7.241   8.602
    1STR    C1734355   3.072   7.124   8.604
    1STR    H1B34356   2.798   7.029   8.685
    1STR    H1C34357   2.660   7.333   8.680
    1STR    H1D34358   2.658   7.589   8.646
    1STR    H1E34359   2.543   7.744   8.607
    1STR    H1F34360   2.310   7.764   8.451
    1STR    H1G34361   2.262   7.787   8.622
    1STR    H1H34362   2.392   7.881   8.552
    1STR    H1I34363   2.322   7.557   8.722
    1STR    H1J34364   2.406   7.677   8.804
    1STR    H1K34365   2.546   7.358   8.874
    1STR    H1M34366   2.702   7.617   8.909
    1STR    H1N34367   2.763   7.472   8.850
    1STR    H1O34368   2.716   7.474   9.015
    1STR    H1P34369   2.399   7.588   8.992
    1STR    H1Q34370   2.355   7.425   8.966
    1STR   C01034371   2.410   7.497   9.228
    1STR   H01134372   2.424   7.603   9.242
    1STR   C01234373   2.263   7.469   9.209
    1STR   H01334374   2.241   7.365   9.188
    1STR   H01434375   2.223   7.530   9.130
    1STR   H01534376   2.213   7.498   9.300
    1STR   C01634377   2.452   7.429   0.037
    1STR   H01734378   2.384   7.462   0.114
    1STR   H01834379   2.439   7.321   0.029
    1STR   O01934380   2.583   7.466   0.072
    1STR   C02034381   2.614   7.443   0.207
    1STR   H02134382   2.532   7.474   0.268
    1STR   C02234383   2.630   7.293   0.221
    1STR   H02334384   2.686   7.252   0.138
    1STR   H02434385   2.537   7.241   0.209
    1STR   H02534386   2.674   7.266   0.316
    1STR   C02634387   2.734   7.534   0.245
    1STR   H02734388   2.774   7.579   0.155
    1STR   H02834389   2.701   7.617   0.303
    1STR   O02934390   2.837   7.476   0.323
    1STR   C03034391   2.934   7.571   0.369
    1STR   H03134392   2.885   7.653   0.421
    1STR   C03234393   3.016   7.491   0.468
    1STR   H03334394   3.073   7.414   0.418
    1STR   H03434395   2.953   7.438   0.539
    1STR   H03534396   3.084   7.555   0.524
    1STR   C03634397   3.026   7.633   0.260
    1STR   H03734398   3.111   7.683   0.307
    1STR   H03834399   3.067   7.555   0.198
    1STR   O03934400   2.957   7.731   0.185
    1STR   C04034401   3.000   7.761   0.051
    1STR   H04134402   3.010   7.869   0.047
    1STR   C04234403   3.132   7.704   0.001
    1STR   H04334404   3.129   7.595   9.314
    1STR   H04434405   3.214   7.734   0.065
    1STR   H04534406   3.155   7.740   9.221
    1STR   C04634407   2.885   7.724   9.279
    1STR   H04734408   2.911   7.750   9.177
    1STR   H04834409   2.865   7.618   9.281
    1STR   O04934410   2.773   7.797   0.005
    1STR   C05034411   2.647   7.762   9.272
    1STR   H05134412   2.623   7.665   9.310
    1STR   C05234413   2.540   7.858   0.001
    1STR   H05334414   2.524   7.940   9.251
    1STR   H05434415   2.561   7.897   0.100
    1STR   H05534416   2.445   7.807   0.008
    1STR   C05634417   2.654   7.756   9.122
    1STR   H05734418   2.719   7.831   9.079
    1STR   H05834419   2.703   7.662   9.105
    1STR   O05934420   2.526   7.756   9.064
    1STR   C06034421   2.505   7.860   8.972
    1STR   H06134422   2.536   7.952   9.020
    1STR   C06234423   2.592   7.849   8.849
    1STR   H06334424   2.594   7.752   8.805
    1STR   H06434425   2.697   7.863   8.870
    1STR   H06534426   2.561   7.920   8.774
    1STR   C06634427   2.356   7.880   8.942
    1STR   H06734428   2.330   7.961   9.010
    1STR   H06834429   2.341   7.916   8.841
    1STR   O06934430   2.266   7.770   8.953
    1STR   C07034431   2.159   7.806   9.037
    1STR   H07134432   2.139   7.908   9.015
    1STR   C07234433   2.026   7.741   9.007
    1STR   H07334434   2.026   7.638   9.040
    1STR   H07434435   2.006   7.750   8.901
    1STR   H07534436   1.946   7.790   9.060
    1STR   C07634437   2.204   7.790   9.180
    1STR   H07734438   2.149   7.706   9.220
    1STR   H07834439   2.308   7.761   9.181
    1STR   O07934440   2.192   7.908   9.257
    1STR   C08034441   2.125   7.890   0.061
    1STR   H08134442   2.139   7.981   0.117
    1STR   C08234443   1.977   7.864   0.036
    1STR   H08334444   1.922   7.946   9.315
    1STR   H08434445   1.926   7.838   0.127
    1STR   H08534446   1.962   7.783   9.286
    1STR   C08634447   2.177   7.780   0.151
    1STR   H08734448   2.109   7.769   0.235
    1STR   H08834449   2.180   7.688   0.097
    1STR   O08934450   2.307   7.795   0.196
    1STR   C09034451   2.330   7.720   0.314
    1STR   H09134452   2.286   7.771   0.399
    1STR   C09234453   2.268   7.578   0.315
    1STR   H09334454   2.335   7.503   0.351
    1STR   H09434455   2.228   7.540   0.222
    1STR   H09534456   2.183   7.577   0.384
    1STR   C09634457   2.481   7.729   0.333
    1STR   H09734458   2.519   7.645   0.390
    1STR   H09834459   2.529   7.727   0.235
    1STR   O09934460   2.512   7.845   0.407
    1STR   C10034461   2.648   7.863   0.443
    1STR   H10134462   2.685   7.775   0.496
    1STR   C10234463   2.731   7.892   0.320
    1STR   H10334464   2.688   7.978   0.270
    1STR   H10434465   2.731   7.813   0.246
    1STR   H10534466   2.835   7.913   0.344
    1STR   C10634467   2.654   7.986   0.533
    1STR   H10734468   2.757   8.010   0.558
    1STR   H10834469   2.613   8.071   0.479
    1STR   O10934470   2.580   7.964   0.653
    1STR   C11034471   2.535   8.081   0.721
    1STR   H11134472   2.508   8.046   0.820
    1STR   C11234473   2.648   8.181   0.738
    1STR   H11334474   2.671   8.236   0.647
    1STR   H11434475   2.740   8.134   0.774
    1STR   H11534476   2.615   8.251   0.813
    1STR   C11634477   2.406   8.143   0.660
    1STR   H11734478   2.324   8.138   0.731
    1STR   H11834479   2.421   8.248   0.637
    1STR   O11934480   2.373   8.074   0.542
    1STR   C12034481   2.259   8.116   0.470
    1STR   H12134482   2.261   8.223   0.449
    1STR   C12234483   2.270   8.041   0.339
    1STR   H12334484   2.203   7.956   0.338
    1STR   H12434485   2.370   8.003   0.319
    1STR   H12534486   2.245   8.100   0.253
    1STR   C12634487   2.128   8.073   0.534
    1STR   H12734488   2.052   8.067   0.455
    1STR   H12834489   2.140   7.973   0.572
    1STR   O12934490   2.083   8.162   0.634
    1STR   C13034491   1.947   8.136   0.665
    1STR   H13134492   1.918   8.034   0.637
    1STR   C13234493   1.935   8.144   0.817
    1STR   H13334494   2.003   8.073   0.864
    1STR   H13434495   1.834   8.120   0.850
    1STR   H13534496   1.961   8.244   0.853
    1STR   C13634497   1.856   8.235   0.590
    1STR   H13734498   1.753   8.209   0.609
    1STR   H13834499   1.872   8.335   0.630
    1STR   O13934500   1.883   8.236   0.449
    1STR   C14034501   1.779   8.289   0.367
    1STR   H14134502   1.685   8.243   0.398
    1STR   C14234503   1.763   8.437   0.385
    1STR   H14334504   1.851   8.487   0.345
    1STR   H14434505   1.751   8.463   0.490
    1STR   H14534506   1.674   8.469   0.331
    1STR   C14634507   1.800   8.255   0.218
    1STR   H14734508   1.852   8.161   0.211
    1STR   H14834509   1.701   8.245   0.172
    1STR   O14934510   1.868   8.348   0.136
    1STR   C15034511   1.998   8.311   0.087
    1STR   H15134512   2.034   8.399   0.035
    1STR   C15234513   2.088   8.297   0.209
    1STR   H15334514   2.079   8.378   0.281
    1STR   H15434515   2.192   8.295   0.176
    1STR   H15534516   2.066   8.207   0.264
    1STR   C15634517   2.013   8.187   9.312
    1STR   H15734518   2.117   8.176   9.282
    1STR   H15834519   1.994   8.111   0.063
    1STR   O15934520   1.927   8.163   9.196
    1STR   C16034521   1.971   8.082   9.084
    1STR   H16134522   2.006   7.992   9.132
    1STR   C16234523   1.849   8.046   8.998
    1STR   H16334524   1.805   8.133   8.951
    1STR   H16434525   1.771   7.999   9.057
    1STR   H16534526   1.877   7.977   8.919
    1STR   C16634527   2.083   8.143   8.993
    1STR   H16734528   2.041   8.231   8.950
    1STR   H16834529   2.165   8.165   9.060
    1STR   O16934530   2.137   8.083   8.873
    1STR   C17034531   2.235   8.167   8.805
    1STR   H17134532   2.194   8.267   8.794
    1STR   C17234533   2.369   8.178   8.882
    1STR   H17334534   2.439   8.098   8.861
    1STR   H17434535   2.360   8.186   8.990
    1STR   H17534536   2.427   8.261   8.845
    1STR   C17634537   2.267   8.124   8.660
    1STR   H17734538   2.268   8.016   8.656
    1STR   H17834539   2.191   8.159   8.591
    1STR   O17934540   2.396   8.178   8.629
    1STR   C18034541   2.461   8.153   8.506
    1STR   H18134542   2.435   8.058   8.461
    1STR   C18234543   2.416   8.265   8.412
    1STR   H18334544   2.435   8.362   8.458
    1STR   H18434545   2.310   8.259   8.391
    1STR   H18534546   2.470   8.261   8.317
    1STR   C18634547   2.614   8.157   8.534
    1STR   H18734548   2.669   8.162   8.440
    1STR   H18834549   2.635   8.248   8.588
    1STR   O18934550   2.658   8.045   8.609
    1STR   C19034551   2.786   8.051   8.675
    1STR   H19134552   2.809   7.948   8.703
    1STR   C19234553   2.900   8.091   8.580
    1STR   H19334554   2.896   8.197   8.555
    1STR   H19434555   2.897   8.034   8.487
    1STR   H19534556   2.996   8.074   8.627
    1STR   C19634557   2.784   8.134   8.805
    1STR   H19734558   2.872   8.199   8.808
    1STR   H19834559   2.695   8.197   8.806
    1STR   O19934560   2.791   8.056   8.924
    1STR   C20034561   2.799   8.133   9.044
    1STR   H20134562   2.878   8.205   9.029
    1STR   C20234563   2.663   8.198   9.076
    1STR   H20334564   2.673   8.262   9.162
    1STR   H20434565   2.587   8.127   9.106
    1STR   H20534566   2.623   8.258   8.995
    1STR   C20634567   2.841   8.044   9.161
    1STR   H20734568   2.752   7.996   9.199
    1STR   H20834569   2.910   7.967   9.127
    1STR   O20934570   2.905   8.114   9.266
    1STR   C21034571   2.846   8.098   0.074
    1STR   H21134572   2.820   7.995   0.091
    1STR   C21234573   2.958   8.124   0.178
    1STR   H21334574   3.015   8.215   0.159
    1STR   H21434575   3.031   8.044   0.175
    1STR   H21534576   2.919   8.128   0.279
    1STR   C21634577   2.716   8.181   0.098
    1STR   H21734578   2.707   8.182   0.205
    1STR   H21834579   2.721   8.282   0.061
    1STR   O21934580   2.595   8.127   0.046
    1STR   C22034581   2.469   8.182   0.091
    1STR   H22134582   2.395   8.102   0.085
    1STR   C22234583   2.476   8.237   0.235
    1STR   H22334584   2.539   8.325   0.238
    1STR   H22434585   2.514   8.164   0.306
    1STR   H22534586   2.381   8.273   0.272
    1STR   C22634587   2.422   8.297   0.002
    1STR   H22734588   2.375   8.370   0.068
    1STR   H22834589   2.512   8.344   9.287
    1STR   O22934590   2.327   8.272   9.216
    1STR   C23034591   2.287   8.396   9.156
    1STR   H23134592   2.256   8.460   9.236
    1STR   C23234593   2.406   8.453   9.077
    1STR   H23334594   2.440   8.386   9.002
    1STR   H23434595   2.497   8.470   9.132
    1STR   H23534596   2.381   8.548   9.030
    1STR   C23634597   2.161   8.415   9.070
    1STR   H23734598   2.170   8.520   9.056
    1STR   H23834599   2.174   8.379   8.970
    1STR   O23934600   2.031   8.394   9.132
    1STR   C24034601   1.899   8.408   9.070
    1STR   H24134602   1.877   8.325   9.005
    1STR   C24234603   1.786   8.409   9.175
    1STR   H24334604   1.810   8.480   9.252
    1STR   H24434605   1.767   8.315   9.225
    1STR   H24534606   1.690   8.435   9.130
    1STR   C24634607   1.877   8.530   8.986
    1STR   H24734608   1.799   8.511   8.912
    1STR   H24834609   1.839   8.610   9.050
    1STR   O24934610   1.996   8.562   8.922
    1STR   C25034611   2.038   8.692   8.953
    1STR   H25134612   2.136   8.703   8.908
    1STR   C25234613   1.940   8.769   8.862
    1STR   H25334614   1.837   8.766   8.893
    1STR   H25434615   1.937   8.712   8.770
    1STR   H25534616   1.964   8.870   8.835
    1STR   C25634617   2.056   8.727   9.107
    1STR   H25734618   2.162   8.746   9.122
    1STR   H25834619   1.999   8.815   9.130
    1STR   O25934620   2.035   8.639   9.218
    1STR   C26034621   2.076   8.692   0.027
    1STR   H26134622   2.063   8.800   0.030
    1STR   C26234623   1.986   8.638   0.136
    1STR   H26334624   1.897   8.593   0.095
    1STR   H26434625   1.962   8.717   0.207
    1STR   H26534626   2.032   8.561   0.196
    1STR   C26634627   2.217   8.657   0.077
    1STR   H26734628   2.221   8.693   0.177
    1STR   H26834629   2.232   8.551   0.092
    1STR   O26934630   2.325   8.728   0.021
    1STR   C27034631   2.445   8.655   0.006
    1STR   H27134632   2.418   8.559   9.293
    1STR   C27234633   2.504   8.730   9.209
    1STR   H27334634   2.535   8.830   9.236
    1STR   H27434635   2.427   8.743   9.134
    1STR   H27534636   2.584   8.674   9.162
    1STR   C27634637   2.533   8.619   0.127
    1STR   H27734638   2.571   8.711   0.172
    1STR   H27834639   2.467   8.571   0.197
    1STR   O27934640   2.634   8.519   0.103
    1STR   C28034641   2.756   8.521   0.183
    1STR   H28134642   2.770   8.623   0.216
    1STR   C28234643   2.761   8.436   0.311
    1STR   H28334644   2.798   8.335   0.298
    1STR   H28434645   2.667   8.429   0.364
    1STR   H28534646   2.834   8.480   0.379
    1STR   C28634647   2.875   8.478   0.095
    1STR   H28734648   2.966   8.528   0.124
    1STR   H28834649   2.898   8.374   0.108
    1STR   O28934650   2.842   8.500   9.281
    1STR   C29034651   2.909   8.426   9.183
    1STR   H29134652   2.888   8.324   9.204
    1STR   C29234653   2.839   8.466   9.055
    1STR   H29334654   2.831   8.573   9.045
    1STR   H29434655   2.736   8.434   9.058
    1STR   H29534656   2.887   8.423   8.967
    1STR   C29634657   3.061   8.445   9.184
    1STR   H29734658   3.090   8.524   9.252
    1STR   H29834659   3.108   8.354   9.222
    1STR   O29934660   3.109   8.470   9.053
    1STR   C30034661   3.153   8.602   9.028
    1STR   H30134662   3.228   8.627   9.101
    1STR   C30234663   3.218   8.591   8.890
    1STR   H30334664   3.147   8.550   8.819
    1STR   H30434665   3.303   8.523   8.894
    1STR   H30534666   3.253   8.687   8.854
    1STR   C30634667   3.047   8.712   9.037
    1STR   H30734668   3.090   8.810   9.020
    1STR   H30834669   2.973   8.697   8.960
    1STR   O30934670   2.986   8.711   9.165
    1STR    H1R34671   2.946   8.897   9.221
    1STR    H1S34672   2.861   8.897   8.995
    1STR    H1T34673   2.744   8.941   9.117
    1STR    H1U34674   2.738   8.780   9.047
    1STR    H1V34675   2.874   8.740   0.074
    1STR    H1W34676   2.741   8.693   9.292
    1STR    H1X34677   2.749   9.110   0.232
    1STR    H1Y34678   2.788   9.239   9.277
    1STR    H1Z34679   2.629   9.312   9.103
    1STR    H2034680   2.394   9.217   8.964
    1STR    H2134681   2.275   9.227   9.088
    1STR    H2234682   2.389   0.032   9.068
    1STR    H2334683   2.263   9.031   0.059
    1STR    H2734684   2.478   8.997   0.131
    1STR    H2834685   2.953   7.558   8.467
    1STR    H2934686   3.113   7.369   8.494
    1STR    H2A34687   3.100   7.097   8.502
    1STR    H2B34688   3.028   7.037   8.652
    1STR    H2C34689   3.162   7.152   8.657
    1STR   BCK134690   1.873   7.379   2.563
    1STR    O0334691   1.991   7.357   2.583
    1STR    N0434692   1.794   7.452   2.644
    1STR    C0534693   1.817   7.533   2.757
    1STR    C0634694   1.938   7.530   2.830
    1STR    C0734695   1.963   7.622   2.935
    1STR    N0834696   2.094   7.634   2.980
    1STR    C0934697   2.156   7.725   3.055
    1STR    O0A34698   2.103   7.812   3.122
    1STR    O0B34699   2.288   7.710   3.046
    1STR    C0C34700   2.359   7.738   2.925
    1STR    C0D34701   2.506   7.763   2.961
    1STR    C0E34702   2.330   7.651   2.801
    1STR    O0F34703   2.209   7.705   2.748
    1STR    C0G34704   2.150   7.651   2.631
    1STR    C0H34705   2.015   7.717   2.606
    1STR    C0I34706   2.235   7.680   2.512
    1STR    O0J34707   2.317   7.572   2.483
    1STR    C0K34708   1.650   8.609   1.901
    1STR    C0M34709   1.685   8.742   1.840
    1STR    C0N34710   1.502   8.571   1.869
    1STR    O0O34711   1.421   8.579   1.985
    1STR    C0P34712   1.410   8.697   2.044
    1STR    O0Q34713   1.422   8.805   1.989
    1STR    N0R34714   1.411   8.679   2.174
    1STR    C0S34715   1.486   8.755   2.263
    1STR    C0T34716   1.459   8.741   2.400
    1STR    C0U34717   1.553   8.786   2.493
    1STR    C0V34718   1.673   8.843   2.449
    1STR    C0W34719   1.784   8.867   2.550
    1STR    C0X34720   1.696   8.869   2.313
    1STR    N0Y34721   1.817   8.928   2.280
    1STR   BCK234722   1.881   8.976   2.175
    1STR    O1034723   1.998   9.006   2.189
    1STR    C1334724   1.601   8.825   2.220
    1STR    C1434725   1.860   7.702   2.983
    1STR    C1534726   1.738   7.705   2.914
    1STR    C1634727   1.720   7.628   2.798
    1STR    C1734728   1.592   7.651   2.721
    1STR    H1B34729   1.695   7.441   2.620
    1STR    H1C34730   2.016   7.463   2.799
    1STR    H1D34731   2.160   7.572   2.937
    1STR    H1E34732   2.315   7.831   2.894
    1STR    H1F34733   2.575   7.732   2.882
    1STR    H1G34734   2.527   7.868   2.981
    1STR    H1H34735   2.532   7.714   3.054
    1STR    H1I34736   2.318   7.548   2.829
    1STR    H1J34737   2.409   7.658   2.726
    1STR    H1K34738   2.130   7.545   2.640
    1STR    H1M34739   1.969   7.757   2.695
    1STR    H1N34740   1.949   7.644   2.562
    1STR    H1O34741   2.022   7.795   2.533
    1STR    H1P34742   2.176   7.700   2.427
    1STR    H1Q34743   2.285   7.772   2.527
    1STR   C01034744   2.397   7.593   2.370
    1STR   H01134745   2.380   7.688   2.328
    1STR   C01234746   2.538   7.591   2.430
    1STR   H01334747   2.562   7.501   2.483
    1STR   H01434748   2.545   7.662   2.511
    1STR   H01534749   2.617   7.612   2.359
    1STR   C01634750   2.357   7.518   2.243
    1STR   H01734751   2.442   7.526   2.178
    1STR   H01834752   2.337   7.413   2.254
    1STR   O01934753   2.255   7.592   2.173
    1STR   C02034754   2.127   7.535   2.160
    1STR   H02134755   2.150   7.445   2.103
    1STR   C02234756   2.069   7.517   2.300
    1STR   H02334757   2.035   7.612   2.336
    1STR   H02434758   2.135   7.467   2.371
    1STR   H02534759   1.976   7.467   2.304
    1STR   C02634760   2.022   7.618   2.081
    1STR   H02734761   1.925   7.570   2.092
    1STR   H02834762   2.008   7.716   2.125
    1STR   O02934763   2.046   7.629   1.943
    1STR   C03034764   1.945   7.696   1.869
    1STR   H03134765   1.914   7.781   1.926
    1STR   C03234766   2.004   7.757   1.741
    1STR   H03334767   2.023   7.685   1.663
    1STR   H03434768   2.097   7.809   1.763
    1STR   H03534769   1.935   7.829   1.697
    1STR   C03634770   1.826   7.604   1.837
    1STR   H03734771   1.770   7.648   1.756
    1STR   H03834772   1.865   7.508   1.804
    1STR   O03934773   1.736   7.574   1.941
    1STR   C04034774   1.666   7.684   1.995
    1STR   H04134775   1.741   7.757   2.017
    1STR   C04234776   1.561   7.740   1.898
    1STR   H04334777   1.495   7.661   1.862
    1STR   H04434778   1.607   7.788   1.812
    1STR   H04534779   1.500   7.815   1.948
    1STR   C04634780   1.608   7.636   2.126
    1STR   H04734781   1.524   7.573   2.100
    1STR   H04834782   1.686   7.574   2.167
    1STR   O04934783   1.568   7.738   2.218
    1STR   C05034784   1.636   7.744   2.345
    1STR   H05134785   1.595   7.669   2.409
    1STR   C05234786   1.786   7.716   2.337
    1STR   H05334787   1.833   7.756   2.247
    1STR   H05434788   1.807   7.609   2.341
    1STR   H05534789   1.837   7.759   2.421
    1STR   C05634790   1.602   7.876   2.418
    1STR   H05734791   1.624   7.962   2.356
    1STR   H05834792   1.494   7.877   2.433
    1STR   O05934793   1.669   7.886   2.544
    1STR   C06034794   1.667   8.015   2.605
    1STR   H06134795   1.724   8.084   2.542
    1STR   C06234796   1.521   8.065   2.615
    1STR   H06334797   1.458   7.988   2.660
    1STR   H06434798   1.480   8.091   2.518
    1STR   H06534799   1.513   8.154   2.677
    1STR   C06634800   1.730   8.018   2.748
    1STR   H06734801   1.726   8.122   2.781
    1STR   H06834802   1.668   7.962   2.817
    1STR   O06934803   1.864   7.969   2.762
    1STR   C07034804   1.949   8.049   2.847
    1STR   H07134805   1.949   8.147   2.803
    1STR   C07234806   1.895   8.065   2.990
    1STR   H07334807   1.894   7.971   3.043
    1STR   H07434808   1.795   8.108   2.994
    1STR   H07534809   1.960   8.132   3.047
    1STR   C07634810   2.096   7.996   2.850
    1STR   H07734811   2.127   7.988   2.953
    1STR   H07834812   2.099   7.896   2.810
    1STR   O07934813   2.187   8.082   2.779
    1STR   C08034814   2.329   8.067   2.792
    1STR   H08134815   2.365   8.158   2.747
    1STR   C08234816   2.368   8.071   2.942
    1STR   H08334817   2.335   7.991   3.007
    1STR   H08434818   2.319   8.156   2.988
    1STR   H08534819   2.476   8.081   2.957
    1STR   C08634820   2.404   7.965   2.701
    1STR   H08734821   2.478   7.913   2.760
    1STR   H08834822   2.330   7.896   2.668
    1STR   O08934823   2.474   8.025   2.590
    1STR   C09034824   2.573   7.960   2.505
    1STR   H09134825   2.637   8.038   2.465
    1STR   C09234826   2.670   7.878   2.592
    1STR   H09334827   2.622   7.796   2.645
    1STR   H09434828   2.714   7.940   2.669
    1STR   H09534829   2.751   7.836   2.533
    1STR   C09634830   2.520   7.882   2.380
    1STR   H09734831   2.598   7.816   2.346
    1STR   H09834832   2.441   7.834   2.431
    1STR   O09934833   2.469   7.936   2.255
    1STR   C10034834   2.388   7.870   2.154
    1STR   H10134835   2.425   7.770   2.135
    1STR   C10234836   2.247   7.867   2.201
    1STR   H10334837   2.231   7.838   2.302
    1STR   H10434838   2.185   7.808   2.137
    1STR   H10534839   2.209   7.966   2.190
    1STR   C10634840   2.373   7.950   2.020
    1STR   H10734841   2.386   8.055   2.044
    1STR   H10834842   2.453   7.928   1.952
    1STR   O10934843   2.248   7.925   1.948
    1STR   C11034844   2.162   8.039   1.935
    1STR   H11134845   2.172   8.093   2.027
    1STR   C11234846   2.211   8.117   1.813
    1STR   H11334847   2.308   8.161   1.831
    1STR   H11434848   2.143   8.198   1.786
    1STR   H11534849   2.219   8.051   1.726
    1STR   C11634850   2.008   8.025   1.937
    1STR   H11734851   1.968   8.126   1.927
    1STR   H11834852   1.971   7.978   1.848
    1STR   O11934853   1.956   7.961   2.055
    1STR   C12034854   1.856   8.031   2.129
    1STR   H12134855   1.853   8.132   2.095
    1STR   C12234856   1.713   7.991   2.101
    1STR   H12334857   1.699   7.897   2.146
    1STR   H12434858   1.690   7.989   1.994
    1STR   H12534859   1.640   8.051   2.153
    1STR   C12634860   1.890   8.030   2.280
    1STR   H12734861   1.852   8.119   2.329
    1STR   H12834862   1.838   7.953   2.331
    1STR   O12934863   2.029   8.006   2.303
    1STR   C13034864   2.092   8.083   2.405
    1STR   H13134865   2.053   8.182   2.391
    1STR   C13234866   2.027   8.041   2.535
    1STR   H13334867   1.936   7.984   2.523
    1STR   H13434868   1.997   8.127   2.593
    1STR   H13534869   2.097   7.981   2.591
    1STR   C13634870   2.251   8.084   2.413
    1STR   H13734871   2.284   8.137   2.500
    1STR   H13834872   2.283   7.984   2.437
    1STR   O13934873   2.330   8.131   2.300
    1STR   C14034874   2.455   8.206   2.308
    1STR   H14134875   2.427   8.295   2.254
    1STR   C14234876   2.488   8.270   2.439
    1STR   H14334877   2.540   8.217   2.515
    1STR   H14434878   2.397   8.312   2.478
    1STR   H14534879   2.556   8.349   2.414
    1STR   C14634880   2.591   8.167   2.238
    1STR   H14734881   2.664   8.213   2.301
    1STR   H14834882   2.633   8.069   2.247
    1STR   O14934883   2.611   8.220   2.108
    1STR   C15034884   2.669   8.128   2.015
    1STR   H15134885   2.625   8.030   2.031
    1STR   C15234886   2.622   8.184   1.881
    1STR   H15334887   2.624   8.292   1.885
    1STR   H15434888   2.519   8.156   1.862
    1STR   H15534889   2.683   8.152   1.798
    1STR   C15634890   2.824   8.108   2.016
    1STR   H15734891   2.847   8.021   1.956
    1STR   H15834892   2.869   8.192   1.965
    1STR   O15934893   2.879   8.089   2.147
    1STR   C16034894   3.023   8.089   2.163
    1STR   H16134895   3.035   8.074   2.271
    1STR   C16234896   3.088   7.970   2.096
    1STR   H16334897   3.066   7.961   1.990
    1STR   H16434898   3.053   7.882   2.146
    1STR   H16534899   3.197   7.969   2.109
    1STR   C16634900   3.103   8.217   2.132
    1STR   H16734901   3.155   8.256   2.220
    1STR   H16834902   3.182   8.195   2.061
    1STR   O16934903   3.025   8.316   2.070
    1STR   C17034904   2.960   8.410   2.153
    1STR   H17134905   3.032   8.485   2.180
    1STR   C17234906   2.849   8.461   2.060
    1STR   H17334907   2.886   8.470   1.958
    1STR   H17434908   2.808   8.557   2.090
    1STR   H17534909   2.766   8.391   2.055
    1STR   C17634910   2.897   8.361   2.283
    1STR   H17734911   2.834   8.441   2.322
    1STR   H17834912   2.835   8.280   2.256
    1STR   O17934913   2.989   8.318   2.382
    1STR   C18034914   2.932   8.266   2.502
    1STR   H18134915   2.873   8.176   2.479
    1STR   C18234916   3.053   8.227   2.587
    1STR   H18334917   3.113   8.314   2.612
    1STR   H18434918   3.116   8.156   2.534
    1STR   H18534919   3.022   8.180   2.681
    1STR   C18634920   2.841   8.370   2.570
    1STR   H18734921   2.875   8.470   2.545
    1STR   H18834922   2.741   8.365   2.527
    1STR   O18934923   2.841   8.365   2.712
    1STR   C19034924   2.726   8.306   2.771
    1STR   H19134925   2.644   8.294   2.700
    1STR   C19234926   2.768   8.168   2.821
    1STR   H19334927   2.814   8.113   2.740
    1STR   H19434928   2.681   8.112   2.855
    1STR   H19534929   2.840   8.175   2.902
    1STR   C19634930   2.679   8.400   2.884
    1STR   H19734931   2.680   8.349   2.980
    1STR   H19834932   2.750   8.483   2.896
    1STR   O19934933   2.552   8.457   2.852
    1STR   C20034934   2.443   8.377   2.893
    1STR   H20134935   2.478   8.276   2.876
    1STR   C20234936   2.417   8.402   3.044
    1STR   H20334937   2.371   8.499   3.061
    1STR   H20434938   2.508   8.399   3.104
    1STR   H20534939   2.348   8.332   3.088
    1STR   C20634940   2.310   8.394   2.814
    1STR   H20734941   2.242   8.327   2.865
    1STR   H20834942   2.276   8.494   2.834
    1STR   O20934943   2.300   8.375   2.671
    1STR   C21034944   2.171   8.353   2.608
    1STR   H21134945   2.163   8.247   2.604
    1STR   C21234946   2.058   8.383   2.705
    1STR   H21334947   2.067   8.480   2.747
    1STR   H21434948   2.055   8.316   2.790
    1STR   H21534949   1.962   8.373   2.659
    1STR   C21634950   2.138   8.408   2.460
    1STR   H21734951   2.032   8.400   2.446
    1STR   H21834952   2.162   8.512   2.454
    1STR   O21934953   2.190   8.344   2.340
    1STR   C22034954   2.134   8.359   2.204
    1STR   H22134955   2.119   8.457   2.168
    1STR   C22234956   2.237   8.320   2.096
    1STR   H22334957   2.320   8.388   2.081
    1STR   H22434958   2.193   8.307   1.999
    1STR   H22534959   2.285   8.227   2.113
    1STR   C22634960   1.998   8.304   2.169
    1STR   H22734961   1.976   8.328   2.066
    1STR   H22834962   2.026   8.201   2.170
    1STR   O22934963   1.883   8.331   2.252
    1STR   C23034964   1.768   8.396   2.193
    1STR   H23134965   1.799   8.496   2.164
    1STR   C23234966   1.709   8.330   2.068
    1STR   H23334967   1.660   8.238   2.091
    1STR   H23434968   1.781   8.314   1.988
    1STR   H23534969   1.628   8.389   2.029
    1STR   C23634970   1.649   8.418   2.291
    1STR   H23734971   1.628   8.525   2.300
    1STR   H23834972   1.557   8.379   2.248
    1STR   O23934973   1.658   8.358   2.419
    1STR   C24034974   1.757   8.406   2.509
    1STR   H24134975   1.830   8.326   2.511
    1STR   C24234976   1.825   8.537   2.468
    1STR   H24334977   1.751   8.614   2.459
    1STR   H24434978   1.878   8.535   2.374
    1STR   H24534979   1.899   8.568   2.540
    1STR   C24634980   1.689   8.420   2.647
    1STR   H24734981   1.596   8.477   2.638
    1STR   H24834982   1.659   8.321   2.679
    1STR   O24934983   1.774   8.473   2.749
    1STR   C25034984   1.764   8.614   2.770
    1STR   H25134985   1.734   8.659   2.677
    1STR   C25234986   1.652   8.637   2.872
    1STR   H25334987   1.676   8.588   2.966
    1STR   H25434988   1.557   8.597   2.837
    1STR   H25534989   1.638   8.743   2.892
    1STR   C25634990   1.898   8.676   2.818
    1STR   H25734991   1.880   8.776   2.858
    1STR   H25834992   1.928   8.613   2.901
    1STR   O25934993   2.003   8.688   2.719
    1STR   C26034994   2.134   8.734   2.762
    1STR   H26134995   2.127   8.841   2.747
    1STR   C26234996   2.160   8.702   2.910
    1STR   H26334997   2.138   8.599   2.939
    1STR   H26434998   2.103   8.765   2.978
    1STR   H26534999   2.264   8.718   2.931
    1STR   C26635000   2.253   8.693   2.667
    1STR   H26735001   2.228   8.602   2.618
    1STR   H26835002   2.261   8.769   2.589
    1STR   O26935003   2.386   8.672   2.721
    1STR   C27035004   2.493   8.664   2.623
    1STR   H27135005   2.472   8.743   2.552
    1STR   C27235006   2.638   8.673   2.679
    1STR   H27335007   2.683   8.576   2.697
    1STR   H27435008   2.649   8.726   2.772
    1STR   H27535009   2.705   8.721   2.607
    1STR   C27635010   2.499   8.543   2.538
    1STR   H27735011   2.598   8.535   2.497
    1STR   H27835012   2.493   8.459   2.605
    1STR   O27935013   2.406   8.539   2.431
    1STR   C28035014   2.447   8.603   2.311
    1STR   H28135015   2.468   8.699   2.347
    1STR   C28235016   2.576   8.552   2.244
    1STR   H28335017   2.572   8.447   2.216
    1STR   H28435018   2.665   8.570   2.304
    1STR   H28535019   2.595   8.605   2.151
    1STR   C28635020   2.332   8.604   2.211
    1STR   H28735021   2.368   8.584   2.112
    1STR   H28835022   2.287   8.519   2.250
    1STR   O28935023   2.235   8.708   2.199
    1STR   C29035024   2.098   8.684   2.234
    1STR   H29135025   2.077   8.594   2.287
    1STR   C29235026   2.070   8.771   2.354
    1STR   H29335027   2.102   8.874   2.344
    1STR   H29435028   2.123   8.733   2.440
    1STR   H29535029   1.966   8.763   2.377
    1STR   C29635030   1.998   8.693   2.114
    1STR   H29735031   1.900   8.716   2.155
    1STR   H29835032   2.025   8.780   2.055
    1STR   O29935033   1.972   8.573   2.038
    1STR   C30035034   1.980   8.579   1.895
    1STR   H30135035   1.992   8.683   1.874
    1STR   C30235036   2.106   8.504   1.855
    1STR   H30335037   2.084   8.398   1.862
    1STR   H30435038   2.191   8.529   1.919
    1STR   H30535039   2.134   8.517   1.751
    1STR   C30635040   1.864   8.527   1.804
    1STR   H30735041   1.857   8.590   1.715
    1STR   H30835042   1.891   8.431   1.762
    1STR   O30935043   1.732   8.504   1.850
    1STR    H1R35044   1.667   8.615   2.008
    1STR    H1S35045   1.674   8.738   1.732
    1STR    H1T35046   1.786   8.767   1.869
    1STR    H1U35047   1.625   8.824   1.876
    1STR    H1V35048   1.496   8.468   1.833
    1STR    H1W35049   1.460   8.634   1.791
    1STR    H1X35050   1.365   8.596   2.205
    1STR    H1Y35051   1.369   8.692   2.433
    1STR    H1Z35052   1.536   8.768   2.598
    1STR    H2035053   1.863   8.794   2.545
    1STR    H2135054   1.827   8.964   2.531
    1STR    H2235055   1.746   8.864   2.651
    1STR    H2335056   1.882   8.942   2.357
    1STR    H2735057   1.623   8.838   2.115
    1STR    H2835058   1.874   7.765   3.069
    1STR    H2935059   1.661   7.772   2.948
    1STR    H2A35060   1.567   7.757   2.722
    1STR    H2B35061   1.509   7.598   2.767
    1STR    H2C35062   1.603   7.621   2.618
    1STR   BCK135063   2.639   7.234   4.416
    1STR    O0335064   2.756   7.223   4.444
    1STR    N0435065   2.544   7.239   4.508
    1STR    C0535066   2.567   7.279   4.639
    1STR    C0635067   2.667   7.373   4.669
    1STR    C0735068   2.686   7.430   4.798
    1STR    N0835069   2.765   7.539   4.830
    1STR    C0935070   2.829   7.624   4.750
    1STR    O0A35071   2.899   7.715   4.792
    1STR    O0B35072   2.814   7.591   4.623
    1STR    C0C35073   2.793   7.681   4.519
    1STR    C0D35074   2.929   7.706   4.455
    1STR    C0E35075   2.689   7.619   4.422
    1STR    O0F35076   2.550   7.647   4.447
    1STR    C0G35077   2.466   7.567   4.531
    1STR    C0H35078   2.480   7.598   4.677
    1STR    C0I35079   2.314   7.567   4.517
    1STR    O0J35080   2.254   7.537   4.396
    1STR    C0K35081   2.060   8.874   4.945
    1STR    C0M35082   1.959   8.830   5.049
    1STR    C0N35083   2.070   9.024   4.943
    1STR    O0O35084   2.193   9.071   4.987
    1STR    C0P35085   2.273   9.094   4.890
    1STR    O0Q35086   2.304   9.205   4.861
    1STR    N0R35087   2.304   8.986   4.821
    1STR    C0S35088   2.373   8.985   4.705
    1STR    C0T35089   2.510   8.960   4.704
    1STR    C0U35090   2.580   8.973   4.587
    1STR    C0V35091   2.514   9.010   4.470
    1STR    C0W35092   2.604   9.007   4.354
    1STR    C0X35093   2.373   9.020   4.465
    1STR    N0Y35094   2.302   9.028   4.345
    1STR   BCK235095   2.171   9.003   4.333
    1STR    O1035096   2.083   9.037   4.411
    1STR    C1335097   2.304   9.010   4.588
    1STR    C1435098   2.620   7.367   4.902
    1STR    C1535099   2.525   7.271   4.870
    1STR    C1635100   2.480   7.251   4.743
    1STR    C1735101   2.339   7.208   4.733
    1STR    H1B35102   2.445   7.238   4.480
    1STR    H1C35103   2.722   7.406   4.585
    1STR    H1D35104   2.781   7.554   4.928
    1STR    H1E35105   2.756   7.772   4.561
    1STR    H1F35106   2.971   7.613   4.416
    1STR    H1G35107   2.923   7.780   4.376
    1STR    H1H35108   2.998   7.743   4.532
    1STR    H1I35109   2.707   7.513   4.407
    1STR    H1J35110   2.706   7.664   4.325
    1STR    H1K35111   2.493   7.467   4.514
    1STR    H1M35112   2.403   7.666   4.705
    1STR    H1N35113   2.576   7.642   4.699
    1STR    H1O35114   2.458   7.514   4.742
    1STR    H1P35115   2.291   7.484   4.580
    1STR    H1Q35116   2.262   7.653   4.559
    1STR   C01035117   2.114   7.517   4.406
    1STR   H01135118   2.065   7.607   4.432
    1STR   C01235119   2.068   7.504   4.260
    1STR   H01335120   2.113   7.580   4.197
    1STR   H01435121   1.962   7.520   4.247
    1STR   H01535122   2.094   7.408   4.215
    1STR   C01635123   2.063   7.429   4.527
    1STR   H01735124   1.982   7.367   4.496
    1STR   H01835125   2.132   7.357   4.566
    1STR   O01935126   2.017   7.520   4.628
    1STR   C02035127   2.036   7.494   4.768
    1STR   H02135128   2.012   7.392   4.798
    1STR   C02235129   2.179   7.511   4.801
    1STR   H02335130   2.211   7.605   4.762
    1STR   H02435131   2.243   7.433   4.766
    1STR   H02535132   2.189   7.508   4.908
    1STR   C02635133   1.959   7.598   4.851
    1STR   H02735134   2.005   7.695   4.832
    1STR   H02835135   1.856   7.605   4.817
    1STR   O02935136   1.961   7.574   4.992
    1STR   C03035137   1.931   7.688   5.073
    1STR   H03135138   1.992   7.772   5.041
    1STR   C03235139   1.783   7.721   5.063
    1STR   H03335140   1.724   7.642   5.105
    1STR   H03435141   1.751   7.738   4.961
    1STR   H03535142   1.759   7.807   5.124
    1STR   C03635143   1.963   7.661   5.221
    1STR   H03735144   1.943   7.747   5.283
    1STR   H03835145   1.893   7.585   5.257
    1STR   O03935146   2.094   7.614   5.244
    1STR   C04035147   2.191   7.713   5.273
    1STR   H04135148   2.176   7.799   5.211
    1STR   C04235149   2.169   7.755   5.418
    1STR   H04335150   2.119   7.676   5.472
    1STR   H04435151   2.104   7.842   5.423
    1STR   H04535152   2.264   7.779   5.465
    1STR   C04635153   2.330   7.650   5.247
    1STR   H04735154   2.381   7.634   5.341
    1STR   H04835155   2.313   7.553   5.204
    1STR   O04935156   2.423   7.720   5.164
    1STR   C05035157   2.411   7.705   5.022
    1STR   H05135158   2.428   7.604   4.989
    1STR   C05235159   2.269   7.745   4.981
    1STR   H05335160   2.234   7.836   5.024
    1STR   H05435161   2.197   7.673   5.015
    1STR   H05535162   2.260   7.758   4.875
    1STR   C05635163   2.525   7.779   4.950
    1STR   H05735164   2.553   7.857   5.016
    1STR   H05835165   2.612   7.714   4.944
    1STR   O05935166   2.487   7.821   4.818
    1STR   C06035167   2.552   7.917   4.734
    1STR   H06135168   2.502   8.009   4.761
    1STR   C06235169   2.699   7.945   4.778
    1STR   H06335170   2.773   7.907   4.709
    1STR   H06435171   2.726   7.904   4.875
    1STR   H06535172   2.717   8.052   4.786
    1STR   C06635173   2.515   7.907   4.578
    1STR   H06735174   2.492   8.007   4.548
    1STR   H06835175   2.597   7.880   4.515
    1STR   O06935176   2.397   7.835   4.533
    1STR   C07035177   2.341   7.865   4.402
    1STR   H07135178   2.349   7.970   4.390
    1STR   C07235179   2.425   7.822   4.281
    1STR   H07335180   2.418   7.714   4.264
    1STR   H07435181   2.530   7.849   4.294
    1STR   H07535182   2.390   7.870   4.190
    1STR   C07635183   2.189   7.824   4.379
    1STR   H07735184   2.149   7.888   4.307
    1STR   H07835185   2.190   7.736   4.318
    1STR   O07935186   2.091   7.811   4.487
    1STR   C08035187   1.948   7.840   4.470
    1STR   H08135188   1.932   7.945   4.469
    1STR   C08235189   1.896   7.799   4.332
    1STR   H08335190   1.798   7.843   4.313
    1STR   H08435191   1.887   7.693   4.326
    1STR   H08535192   1.960   7.826   4.250
    1STR   C08635193   1.850   7.793   4.587
    1STR   H08735194   1.748   7.803   4.551
    1STR   H08835195   1.864   7.687   4.594
    1STR   O08935196   1.854   7.838   4.727
    1STR   C09035197   1.800   7.964   4.772
    1STR   H09135198   1.858   8.040   4.723
    1STR   C09235199   1.653   7.980   4.731
    1STR   H09335200   1.592   7.913   4.790
    1STR   H09435201   1.635   7.965   4.625
    1STR   H09535202   1.618   8.081   4.752
    1STR   C09635203   1.808   8.002   4.924
    1STR   H09735204   1.773   8.103   4.928
    1STR   H09835205   1.730   7.951   4.978
    1STR   O09935206   1.932   8.001   4.999
    1STR   C10035207   1.929   8.083   5.119
    1STR   H10135208   1.892   8.180   5.088
    1STR   C10235209   1.834   8.034   5.229
    1STR   H10335210   1.871   7.942   5.272
    1STR   H10435211   1.732   8.021   5.194
    1STR   H10535212   1.831   8.106   5.311
    1STR   C10635213   2.065   8.119   5.181
    1STR   H10735214   2.125   8.169   5.105
    1STR   H10835215   2.045   8.191   5.259
    1STR   O10935216   2.141   8.022   5.252
    1STR   C11035217   2.260   8.078   5.309
    1STR   H11135218   2.271   8.180   5.275
    1STR   C11235219   2.256   8.081   5.462
    1STR   H11335220   2.272   7.983   5.507
    1STR   H11435221   2.160   8.118   5.499
    1STR   H11535222   2.335   8.144   5.502
    1STR   C11635223   2.386   8.010   5.257
    1STR   H11735224   2.479   8.063   5.279
    1STR   H11835225   2.397   7.913   5.304
    1STR   O11935226   2.372   7.989   5.119
    1STR   C12035227   2.381   8.096   5.027
    1STR   H12135228   2.340   8.187   5.069
    1STR   C12235229   2.531   8.116   5.009
    1STR   H12335230   2.599   8.038   5.038
    1STR   H12435231   2.560   8.191   5.080
    1STR   H12535232   2.556   8.144   4.909
    1STR   C12635233   2.292   8.048   4.909
    1STR   H12735234   2.328   7.953   4.878
    1STR   H12835235   2.195   8.033   4.953
    1STR   O12935236   2.272   8.115   4.784
    1STR   C13035237   2.223   8.045   4.667
    1STR   H13135238   2.306   7.984   4.655
    1STR   C13235239   2.120   7.944   4.713
    1STR   H13335240   2.080   7.950   4.813
    1STR   H13435241   2.154   7.842   4.700
    1STR   H13535242   2.036   7.965   4.651
    1STR   C13635243   2.200   8.120   4.522
    1STR   H13735244   2.186   8.224   4.530
    1STR   H13835245   2.295   8.133   4.473
    1STR   O13935246   2.098   8.073   4.426
    1STR   C14035247   2.066   8.131   4.294
    1STR   H14135248   2.073   8.237   4.304
    1STR   C14235249   2.157   8.084   4.179
    1STR   H14335250   2.119   7.996   4.125
    1STR   H14435251   2.253   8.055   4.217
    1STR   H14535252   2.169   8.162   4.104
    1STR   C14635253   1.923   8.116   4.233
    1STR   H14735254   1.914   8.189   4.153
    1STR   H14835255   1.911   8.021   4.183
    1STR   O14935256   1.808   8.130   4.314
    1STR   C15035257   1.802   8.248   4.391
    1STR   H15135258   1.864   8.327   4.351
    1STR   C15235259   1.656   8.293   4.389
    1STR   H15335260   1.591   8.218   4.434
    1STR   H15435261   1.623   8.312   4.288
    1STR   H15535262   1.646   8.385   4.447
    1STR   C15635263   1.850   8.201   4.527
    1STR   H15735264   1.819   8.098   4.535
    1STR   H15835265   1.957   8.206   4.536
    1STR   O15935266   1.789   8.264   4.636
    1STR   C16035267   1.875   8.310   4.739
    1STR   H16135268   1.900   8.407   4.708
    1STR   C16235269   1.775   8.337   4.851
    1STR   H16335270   1.685   8.276   4.844
    1STR   H16435271   1.740   8.440   4.845
    1STR   H16535272   1.821   8.320   4.946
    1STR   C16635273   2.021   8.258   4.774
    1STR   H16735274   2.035   8.262   4.881
    1STR   H16835275   2.024   8.154   4.757
    1STR   O16935276   2.129   8.328   4.701
    1STR   C17035277   2.267   8.365   4.746
    1STR   H17135278   2.269   8.468   4.717
    1STR   C17235279   2.278   8.378   4.895
    1STR   H17335280   2.221   8.303   4.946
    1STR   H17435281   2.243   8.475   4.925
    1STR   H17535282   2.379   8.376   4.934
    1STR   C17635283   2.412   8.315   4.698
    1STR   H17735284   2.467   8.405   4.684
    1STR   H17835285   2.460   8.269   4.782
    1STR   O17935286   2.462   8.228   4.595
    1STR   C18035287   2.604   8.253   4.566
    1STR   H18135288   2.656   8.293   4.653
    1STR   C18235289   2.693   8.142   4.505
    1STR   H18335290   2.788   8.182   4.472
    1STR   H18435291   2.647   8.095   4.417
    1STR   H18535292   2.721   8.065   4.573
    1STR   C18635293   2.602   8.353   4.454
    1STR   H18735294   2.565   8.447   4.488
    1STR   H18835295   2.700   8.368   4.412
    1STR   O18935296   2.519   8.288   4.362
    1STR   C19035297   2.521   8.334   4.231
    1STR   H19135298   2.523   8.441   4.222
    1STR   C19235299   2.640   8.272   4.158
    1STR   H19335300   2.632   8.284   4.050
    1STR   H19435301   2.649   8.166   4.181
    1STR   H19535302   2.733   8.319   4.189
    1STR   C19635303   2.386   8.285   4.188
    1STR   H19735304   2.359   8.316   4.088
    1STR   H19835305   2.404   8.178   4.181
    1STR   O19935306   2.283   8.307   4.288
    1STR   C20035307   2.232   8.438   4.311
    1STR   H20135308   2.322   8.487   4.345
    1STR   C20235309   2.186   8.493   4.173
    1STR   H20335310   2.118   8.423   4.125
    1STR   H20435311   2.270   8.512   4.107
    1STR   H20535312   2.134   8.589   4.181
    1STR   C20635313   2.116   8.461   4.419
    1STR   H20735314   2.037   8.511   4.365
    1STR   H20835315   2.071   8.370   4.455
    1STR   O20935316   2.142   8.540   4.538
    1STR   C21035317   2.033   8.591   4.621
    1STR   H21135318   2.053   8.697   4.604
    1STR   C21235319   1.894   8.579   4.555
    1STR   H21335320   1.876   8.485   4.506
    1STR   H21435321   1.876   8.659   4.484
    1STR   H21535322   1.815   8.581   4.630
    1STR   C21635323   2.042   8.594   4.783
    1STR   H21735324   2.142   8.631   4.799
    1STR   H21835325   1.967   8.667   4.811
    1STR   O21935326   2.023   8.491   4.889
    1STR   C22035327   2.026   8.525   5.031
    1STR   H22135328   2.075   8.619   5.029
    1STR   C22235329   1.881   8.536   5.076
    1STR   H22335330   1.870   8.603   5.161
    1STR   H22435331   1.837   8.442   5.110
    1STR   H22535332   1.821   8.572   4.994
    1STR   C22635333   2.097   8.454   5.155
    1STR   H22735334   2.090   8.526   5.236
    1STR   H22835335   2.030   8.376   5.187
    1STR   O22935336   2.231   8.398   5.160
    1STR   C23035337   2.321   8.431   5.270
    1STR   H23135338   2.334   8.537   5.274
    1STR   C23235339   2.259   8.405   5.408
    1STR   H23335340   2.186   8.324   5.407
    1STR   H23435341   2.203   8.492   5.442
    1STR   H23535342   2.335   8.385   5.483
    1STR   C23635343   2.470   8.383   5.250
    1STR   H23735344   2.530   8.434   5.326
    1STR   H23835345   2.480   8.278   5.271
    1STR   O23935346   2.522   8.411   5.118
    1STR   C24035347   2.661   8.443   5.086
    1STR   H24135348   2.658   8.543   5.044
    1STR   C24235349   2.759   8.445   5.204
    1STR   H24335350   2.765   8.348   5.252
    1STR   H24435351   2.729   8.519   5.279
    1STR   H24535352   2.858   8.473   5.170
    1STR   C24635353   2.711   8.355   4.968
    1STR   H24735354   2.751   8.259   4.999
    1STR   H24835355   2.619   8.336   4.915
    1STR   O24935356   2.780   8.413   4.859
    1STR   C25035357   2.920   8.401   4.837
    1STR   H25135358   2.958   8.500   4.858
    1STR   C25235359   2.994   8.303   4.929
    1STR   H25335360   2.962   8.200   4.913
    1STR   H25435361   2.979   8.327   5.034
    1STR   H25535362   3.101   8.307   4.910
    1STR   C25635363   2.948   8.371   4.688
    1STR   H25735364   3.050   8.403   4.666
    1STR   H25835365   2.946   8.264   4.670
    1STR   O25935366   2.853   8.428   4.596
    1STR   C26035367   2.907   8.505   4.489
    1STR   H26135368   2.975   8.572   4.539
    1STR   C26235369   2.986   8.417   4.392
    1STR   H26335370   2.923   8.338   4.351
    1STR   H26435371   3.073   8.372   4.438
    1STR   H26535372   3.021   8.477   4.308
    1STR   C26635373   2.803   8.596   4.417
    1STR   H26735374   2.716   8.610   4.480
    1STR   H26835375   2.841   8.696   4.408
    1STR   O26935376   2.767   8.556   4.285
    1STR   C27035377   2.707   8.659   4.205
    1STR   H27135378   2.762   8.752   4.217
    1STR   C27235379   2.724   8.615   4.061
    1STR   H27335380   2.680   8.691   3.996
    1STR   H27435381   2.673   8.521   4.041
    1STR   H27535382   2.829   8.603   4.036
    1STR   C27635383   2.558   8.685   4.233
    1STR   H27735384   2.538   8.791   4.232
    1STR   H27835385   2.493   8.648   4.153
    1STR   O27935386   2.516   8.621   4.352
    1STR   C28035387   2.436   8.695   4.440
    1STR   H28135388   2.496   8.780   4.459
    1STR   C28235389   2.306   8.738   4.380
    1STR   H28335390   2.231   8.668   4.357
    1STR   H28435391   2.329   8.789   4.288
    1STR   H28535392   2.252   8.799   4.452
    1STR   C28635393   2.415   8.631   4.573
    1STR   H28735394   2.338   8.683   4.630
    1STR   H28835395   2.382   8.531   4.554
    1STR   O28935396   2.544   8.644   4.628
    1STR   C29035397   2.569   8.622   4.763
    1STR   H29135398   2.572   8.520   4.797
    1STR   C29235399   2.710   8.670   4.768
    1STR   H29335400   2.774   8.616   4.700
    1STR   H29435401   2.749   8.656   4.868
    1STR   H29535402   2.713   8.773   4.738
    1STR   C29635403   2.486   8.705   4.858
    1STR   H29735404   2.552   8.769   4.914
    1STR   H29835405   2.409   8.761   4.809
    1STR   O29935406   2.420   8.620   4.942
    1STR   C30035407   2.367   8.680   5.056
    1STR   H30135408   2.310   8.596   5.086
    1STR   C30235409   2.475   8.709   5.162
    1STR   H30335410   2.550   8.777   5.127
    1STR   H30435411   2.529   8.624   5.197
    1STR   H30535412   2.429   8.747   5.250
    1STR   C30635413   2.259   8.786   5.049
    1STR   H30735414   2.194   8.760   5.130
    1STR   H30835415   2.294   8.883   5.076
    1STR   O30935416   2.180   8.797   4.934
    1STR    H1R35417   2.012   8.857   4.849
    1STR    H1S35418   1.885   8.770   5.000
    1STR    H1T35419   1.907   8.915   5.089
    1STR    H1U35420   1.995   8.780   5.138
    1STR    H1V35421   1.991   9.073   4.998
    1STR    H1W35422   2.058   9.058   4.841
    1STR    H1X35423   2.262   8.899   4.858
    1STR    H1Y35424   2.565   8.937   4.793
    1STR    H1Z35425   2.683   8.948   4.584
    1STR    H2035426   2.547   8.995   4.265
    1STR    H2135427   2.661   9.099   4.357
    1STR    H2235428   2.670   8.921   4.361
    1STR    H2335429   2.355   9.016   4.259
    1STR    H2735430   2.198   9.024   4.599
    1STR    H2835431   2.642   7.393   5.004
    1STR    H2935432   2.470   7.215   4.938
    1STR    H2A35433   2.290   7.246   4.646
    1STR    H2B35434   2.280   7.239   4.820
    1STR    H2C35435   2.345   7.104   4.739
    1STR   BCK135436   1.959   7.305   6.633
    1STR    O0335437   2.035   7.252   6.708
    1STR    N0435438   1.984   7.426   6.591
    1STR    C0535439   1.889   7.521   6.568
    1STR    C0635440   1.801   7.554   6.672
    1STR    C0735441   1.713   7.661   6.651
    1STR    N0835442   1.658   7.732   6.756
    1STR    C0935443   1.672   7.735   6.888
    1STR    O0A35444   1.621   7.829   6.945
    1STR    O0B35445   1.744   7.638   6.945
    1STR    C0C35446   1.817   7.662   7.064
    1STR    C0D35447   1.744   7.721   7.187
    1STR    C0E35448   1.902   7.539   7.098
    1STR    O0F35449   2.035   7.587   7.088
    1STR    C0G35450   2.137   7.499   7.049
    1STR    C0H35451   2.104   7.476   6.901
    1STR    C0I35452   2.275   7.565   7.065
    1STR    O0J35453   2.310   7.613   7.198
    1STR    C0K35454   2.909   8.732   6.726
    1STR    C0M35455   2.959   8.694   6.867
    1STR    C0N35456   2.848   8.870   6.726
    1STR    O0O35457   2.752   8.878   6.624
    1STR    C0P35458   2.668   8.981   6.626
    1STR    O0Q35459   2.673   9.079   6.700
    1STR    N0R35460   2.568   8.966   6.540
    1STR    C0S35461   2.551   8.865   6.448
    1STR    C0T35462   2.636   8.847   6.338
    1STR    C0U35463   2.608   8.745   6.245
    1STR    C0V35464   2.493   8.665   6.258
    1STR    C0W35465   2.467   8.559   6.153
    1STR    C0X35466   2.406   8.684   6.369
    1STR    N0Y35467   2.286   8.614   6.374
    1STR   BCK235468   2.188   8.602   6.465
    1STR    O1035469   2.083   8.549   6.433
    1STR    C1335470   2.439   8.784   6.463
    1STR    C1435471   1.697   7.714   6.522
    1STR    C1535472   1.778   7.672   6.416
    1STR    C1635473   1.880   7.579   6.441
    1STR    C1735474   1.970   7.532   6.331
    1STR    H1B35475   2.078   7.459   6.610
    1STR    H1C35476   1.813   7.507   6.768
    1STR    H1D35477   1.596   7.807   6.731
    1STR    H1E35478   1.884   7.739   7.029
    1STR    H1F35479   1.641   7.745   7.168
    1STR    H1G35480   1.750   7.656   7.274
    1STR    H1H35481   1.787   7.816   7.219
    1STR    H1I35482   1.877   7.459   7.029
    1STR    H1J35483   1.884   7.499   7.198
    1STR    H1K35484   2.136   7.407   7.107
    1STR    H1M35485   2.080   7.570   6.851
    1STR    H1N35486   2.021   7.409   6.888
    1STR    H1O35487   2.188   7.433   6.849
    1STR    H1P35488   2.353   7.498   7.035
    1STR    H1Q35489   2.282   7.636   6.985
    1STR   C01035490   2.404   7.720   7.213
    1STR   H01135491   2.347   7.812   7.227
    1STR   C01235492   2.487   7.714   7.339
    1STR   H01335493   2.562   7.636   7.333
    1STR   H01435494   2.423   7.702   7.425
    1STR   H01535495   2.545   7.806   7.354
    1STR   C01635496   2.499   7.739   7.097
    1STR   H01735497   2.438   7.764   7.011
    1STR   H01835498   2.573   7.816   7.115
    1STR   O01935499   2.567   7.626   7.062
    1STR   C02035500   2.615   7.637   6.932
    1STR   H02135501   2.606   7.733   6.887
    1STR   C02235502   2.761   7.604   6.945
    1STR   H02335503   2.758   7.515   7.004
    1STR   H02435504   2.816   7.679   7.001
    1STR   H02535505   2.813   7.582   6.852
    1STR   C02635506   2.537   7.548   6.840
    1STR   H02735507   2.603   7.547   6.755
    1STR   H02835508   2.524   7.450   6.886
    1STR   O02935509   2.412   7.591   6.793
    1STR   C03035510   2.398   7.570   6.653
    1STR   H03135511   2.445   7.477   6.624
    1STR   C03235512   2.252   7.559   6.617
    1STR   H03335513   2.222   7.461   6.651
    1STR   H03435514   2.240   7.565   6.510
    1STR   H03535515   2.192   7.636   6.664
    1STR   C03635516   2.465   7.684   6.580
    1STR   H03735517   2.411   7.774   6.595
    1STR   H03835518   2.566   7.695   6.617
    1STR   O03935519   2.466   7.670   6.442
    1STR   C04035520   2.559   7.752   6.374
    1STR   H04135521   2.541   7.853   6.405
    1STR   C04235522   2.706   7.712   6.399
    1STR   H04335523   2.724   7.611   6.374
    1STR   H04435524   2.735   7.718   6.503
    1STR   H04535525   2.775   7.773   6.341
    1STR   C04635526   2.522   7.744   6.228
    1STR   H04735527   2.568   7.823   6.169
    1STR   H04835528   2.563   7.651   6.191
    1STR   O04935529   2.382   7.737   6.210
    1STR   C05035530   2.303   7.847   6.253
    1STR   H05135531   2.329   7.879   6.355
    1STR   C05235532   2.324   7.959   6.151
    1STR   H05335533   2.303   7.925   6.051
    1STR   H05435534   2.426   7.997   6.153
    1STR   H05535535   2.260   8.043   6.172
    1STR   C05635536   2.160   7.792   6.255
    1STR   H05735537   2.116   7.792   6.155
    1STR   H05835538   2.173   7.687   6.278
    1STR   O05935539   2.070   7.842   6.355
    1STR   C06035540   2.030   7.979   6.349
    1STR   H06135541   2.118   8.038   6.372
    1STR   C06235542   1.975   8.015   6.210
    1STR   H06335543   1.890   7.951   6.184
    1STR   H06435544   2.049   8.004   6.131
    1STR   H06535545   1.942   8.119   6.208
    1STR   C06635546   1.918   8.005   6.452
    1STR   H06735547   1.862   8.094   6.426
    1STR   H06835548   1.847   7.923   6.445
    1STR   O06935549   1.960   8.026   6.587
    1STR   C07035550   1.890   7.949   6.684
    1STR   H07135551   1.786   7.935   6.654
    1STR   C07235552   1.965   7.816   6.696
    1STR   H07335553   2.059   7.826   6.747
    1STR   H07435554   1.984   7.768   6.601
    1STR   H07535555   1.918   7.748   6.766
    1STR   C07635556   1.888   8.006   6.825
    1STR   H07735557   1.847   7.926   6.885
    1STR   H07835558   1.991   8.020   6.854
    1STR   O07935559   1.812   8.122   6.858
    1STR   C08035560   1.802   8.144   7.001
    1STR   H08135561   1.809   8.251   7.014
    1STR   C08235562   1.666   8.105   7.059
    1STR   H08335563   1.668   8.004   7.097
    1STR   H08435564   1.586   8.114   6.985
    1STR   H08535565   1.640   8.169   7.144
    1STR   C08635566   1.917   8.094   7.088
    1STR   H08735567   2.007   8.138   7.045
    1STR   H08835568   1.906   8.128   7.191
    1STR   O08935569   1.932   7.954   7.091
    1STR   C09035570   2.062   7.912   7.128
    1STR   H09135571   2.107   7.993   7.182
    1STR   C09235572   2.050   7.831   7.258
    1STR   H09335573   1.992   7.741   7.250
    1STR   H09435574   2.002   7.890   7.336
    1STR   H09535575   2.147   7.804   7.297
    1STR   C09635576   2.147   7.852   7.006
    1STR   H09735577   2.228   7.808   7.060
    1STR   H09835578   2.093   7.772   6.958
    1STR   O09935579   2.211   7.934   6.902
    1STR   C10035580   2.310   7.890   6.800
    1STR   H10135581   2.304   7.782   6.802
    1STR   C10235582   2.250   7.940   6.668
    1STR   H10335583   2.321   7.994   6.607
    1STR   H10435584   2.171   8.011   6.685
    1STR   H10535585   2.212   7.860   6.604
    1STR   C10635586   2.466   7.940   6.801
    1STR   H10735587   2.476   8.047   6.803
    1STR   H10835588   2.517   7.910   6.890
    1STR   O10935589   2.559   7.906   6.696
    1STR   C11035590   2.692   7.961   6.704
    1STR   H11135591   2.677   8.066   6.729
    1STR   C11235592   2.779   7.881   6.802
    1STR   H11335593   2.787   7.779   6.766
    1STR   H11435594   2.744   7.883   6.905
    1STR   H11535595   2.882   7.918   6.806
    1STR   C11635596   2.782   7.969   6.579
    1STR   H11735597   2.853   8.049   6.594
    1STR   H11835598   2.846   7.882   6.572
    1STR   O11935599   2.721   7.981   6.453
    1STR   C12035600   2.663   8.105   6.422
    1STR   H12135601   2.727   8.177   6.471
    1STR   C12235602   2.674   8.117   6.270
    1STR   H12335603   2.631   8.030   6.221
    1STR   H12435604   2.779   8.122   6.239
    1STR   H12535605   2.623   8.205   6.233
    1STR   C12635606   2.520   8.113   6.476
    1STR   H12735607   2.493   8.015   6.510
    1STR   H12835608   2.516   8.174   6.566
    1STR   O12935609   2.421   8.142   6.379
    1STR   C13035610   2.349   8.263   6.397
    1STR   H13135611   2.417   8.347   6.407
    1STR   C13235612   2.269   8.284   6.269
    1STR   H13335613   2.184   8.217   6.263
    1STR   H13435614   2.331   8.269   6.181
    1STR   H13535615   2.226   8.384   6.264
    1STR   C13635616   2.255   8.263   6.518
    1STR   H13735617   2.210   8.361   6.513
    1STR   H13835618   2.175   8.191   6.506
    1STR   O13935619   2.311   8.250   6.647
    1STR   C14035620   2.232   8.299   6.757
    1STR   H14135621   2.270   8.398   6.774
    1STR   C14235622   2.078   8.302   6.726
    1STR   H14335623   2.039   8.201   6.717
    1STR   H14435624   2.048   8.351   6.635
    1STR   H14535625   2.019   8.349   6.804
    1STR   C14635626   2.253   8.202   6.876
    1STR   H14735627   2.156   8.160   6.899
    1STR   H14835628   2.305   8.125   6.831
    1STR   O14935629   2.321   8.229   7.002
    1STR   C15035630   2.317   8.125   7.106
    1STR   H15135631   2.226   8.084   7.076
    1STR   C15235632   2.428   8.029   7.086
    1STR   H15335633   2.475   7.989   7.176
    1STR   H15435634   2.506   8.067   7.025
    1STR   H15535635   2.382   7.947   7.040
    1STR   C15635636   2.314   8.133   7.264
    1STR   H15735637   2.242   8.199   7.311
    1STR   H15835638   2.286   8.035   7.303
    1STR   O15935639   2.446   8.163   7.309
    1STR   C16035640   2.483   8.155   7.445
    1STR   H16135641   2.458   8.249   7.492
    1STR   C16235642   2.418   8.041   7.522
    1STR   H16335643   2.429   7.946   7.471
    1STR   H16435644   2.311   8.060   7.539
    1STR   H16535645   2.466   8.033   7.619
    1STR   C16635646   2.636   8.139   7.440
    1STR   H16735647   2.673   8.229   7.393
    1STR   H16835648   2.679   8.136   7.540
    1STR   O16935649   2.677   8.024   7.366
    1STR   C17035650   2.788   8.047   7.279
    1STR   H17135651   2.854   8.122   7.322
    1STR   C17235652   2.867   7.917   7.264
    1STR   H17335653   2.803   7.835   7.231
    1STR   H17435654   2.912   7.887   7.359
    1STR   H17535655   2.947   7.928   7.191
    1STR   C17635656   2.735   8.095   7.144
    1STR   H17735657   2.702   8.008   7.088
    1STR   H17835658   2.649   8.157   7.162
    1STR   O17935659   2.827   8.172   7.068
    1STR   C18035660   2.789   8.192   6.932
    1STR   H18135661   2.772   8.093   6.901
    1STR   C18235662   2.662   8.271   6.907
    1STR   H18335663   2.570   8.222   6.930
    1STR   H18435664   2.651   8.297   6.802
    1STR   H18535665   2.668   8.358   6.968
    1STR   C18635666   2.900   8.250   6.844
    1STR   H18735667   2.860   8.301   6.757
    1STR   H18835668   2.953   8.325   6.902
    1STR   O18935669   2.977   8.139   6.800
    1STR   C19035670   3.099   8.165   6.733
    1STR   H19135671   3.145   8.067   6.716
    1STR   C19235672   3.074   8.229   6.594
    1STR   H19335673   3.013   8.318   6.599
    1STR   H19435674   3.023   8.160   6.527
    1STR   H19535675   3.168   8.255   6.546
    1STR   C19635676   3.196   8.245   6.821
    1STR   H19735677   3.286   8.260   6.763
    1STR   H19835678   3.154   8.343   6.842
    1STR   O19935679   3.237   8.180   6.941
    1STR   C20035680   3.149   8.187   7.053
    1STR   H20135681   3.050   8.154   7.023
    1STR   C20235682   3.197   8.080   7.151
    1STR   H20335683   3.192   7.981   7.105
    1STR   H20435684   3.133   8.078   7.239
    1STR   H20535685   3.299   8.098   7.183
    1STR   C20635686   3.144   8.327   7.117
    1STR   H20735687   3.207   8.327   7.206
    1STR   H20835688   3.191   8.400   7.052
    1STR   O20935689   3.011   8.378   7.142
    1STR   C21035690   2.971   8.384   7.279
    1STR   H21135691   2.986   8.286   7.323
    1STR   C21235692   3.058   8.488   7.353
    1STR   H21335693   3.053   8.583   7.300
    1STR   H21435694   3.163   8.460   7.361
    1STR   H21535695   3.022   8.504   7.454
    1STR   C21635696   2.823   8.426   7.299
    1STR   H21735697   2.793   8.401   7.400
    1STR   H21835698   2.826   8.535   7.303
    1STR   O21935699   2.722   8.380   7.206
    1STR   C22035700   2.594   8.446   7.219
    1STR   H22135701   2.570   8.433   7.323
    1STR   C22235702   2.628   8.588   7.180
    1STR   H22335703   2.725   8.600   7.131
    1STR   H22435704   2.622   8.655   7.265
    1STR   H22535705   2.559   8.623   7.108
    1STR   C22635706   2.466   8.396   7.140
    1STR   H22735707   2.458   8.433   7.039
    1STR   H22835708   2.499   8.295   7.122
    1STR   O22935709   2.333   8.382   7.208
    1STR   C23035710   2.197   8.426   7.171
    1STR   H23135711   2.184   8.519   7.218
    1STR   C23235712   2.156   8.443   7.024
    1STR   H23335713   2.110   8.353   6.990
    1STR   H23435714   2.239   8.470   6.961
    1STR   H23535715   2.076   8.514   7.011
    1STR   C23635716   2.072   8.360   7.229
    1STR   H23735717   1.987   8.414   7.188
    1STR   H23835718   2.071   8.260   7.191
    1STR   O23935719   2.059   8.346   7.368
    1STR   C24035720   1.937   8.397   7.422
    1STR   H24135721   1.938   8.506   7.410
    1STR   C24235722   1.810   8.337   7.358
    1STR   H24335723   1.804   8.230   7.374
    1STR   H24435724   1.801   8.354   7.251
    1STR   H24535725   1.721   8.383   7.402
    1STR   C24635726   1.940   8.363   7.572
    1STR   H24735727   1.884   8.436   7.631
    1STR   H24835728   1.890   8.267   7.587
    1STR   O24935729   2.073   8.343   7.619
    1STR   C25035730   2.142   8.462   7.651
    1STR   H25135731   2.081   8.551   7.633
    1STR   C25235732   2.174   8.449   7.800
    1STR   H25335733   2.253   8.517   7.829
    1STR   H25435734   2.210   8.348   7.822
    1STR   H25535735   2.085   8.468   7.860
    1STR   C25635736   2.269   8.476   7.567
    1STR   H25735737   2.344   8.406   7.604
    1STR   H25835738   2.248   8.447   7.465
    1STR   O25935739   2.314   8.611   7.576
    1STR   C26035740   2.416   8.653   7.485
    1STR   H26135741   2.434   8.755   7.507
    1STR   C26235742   2.545   8.579   7.527
    1STR   H26335743   2.536   8.471   7.525
    1STR   H26435744   2.569   8.606   7.630
    1STR   H26535745   2.630   8.607   7.467
    1STR   C26635746   2.362   8.643   7.340
    1STR   H26735747   2.393   8.545   7.322
    1STR   H26835748   2.256   8.641   7.350
    1STR   O26935749   2.392   8.723   7.222
    1STR   C27035750   2.325   8.697   7.094
    1STR   H27135751   2.336   8.593   7.094
    1STR   C27235752   2.176   8.738   7.091
    1STR   H27335753   2.152   8.842   7.098
    1STR   H27435754   2.113   8.696   7.169
    1STR   H27535755   2.136   8.708   6.996
    1STR   C27635756   2.391   8.714   6.951
    1STR   H27735757   2.321   8.759   6.884
    1STR   H27835758   2.478   8.778   6.953
    1STR   O27935759   2.420   8.599   6.868
    1STR   C28035760   2.525   8.624   6.773
    1STR   H28135761   2.519   8.727   6.736
    1STR   C28235762   2.650   8.606   6.856
    1STR   H28335763   2.626   8.545   6.939
    1STR   H28435764   2.684   8.702   6.894
    1STR   H28535765   2.728   8.548   6.809
    1STR   C28635766   2.537   8.534   6.649
    1STR   H28735767   2.562   8.432   6.676
    1STR   H28835768   2.443   8.526   6.595
    1STR   O28935769   2.635   8.594   6.562
    1STR   C29035770   2.738   8.513   6.507
    1STR   H29135771   2.790   8.463   6.589
    1STR   C29235772   2.678   8.413   6.413
    1STR   H29335773   2.621   8.459   6.334
    1STR   H29435774   2.612   8.350   6.471
    1STR   H29535775   2.757   8.355   6.366
    1STR   C29635776   2.840   8.592   6.423
    1STR   H29735777   2.805   8.606   6.322
    1STR   H29835778   2.854   8.693   6.461
    1STR   O29935779   2.956   8.510   6.414
    1STR   C30035780   3.079   8.566   6.456
    1STR   H30135781   3.152   8.485   6.447
    1STR   C30235782   3.124   8.675   6.359
    1STR   H30335783   3.058   8.761   6.364
    1STR   H30435784   3.127   8.639   6.257
    1STR   H30535785   3.224   8.710   6.384
    1STR   C30635786   3.077   8.608   6.603
    1STR   H30735787   3.040   8.527   6.666
    1STR   H30835788   3.179   8.630   6.633
    1STR   O30935789   3.005   8.728   6.623
    1STR    H1R35790   2.833   8.665   6.692
    1STR    H1S35791   2.882   8.695   6.943
    1STR    H1T35792   3.030   8.766   6.904
    1STR    H1U35793   3.000   8.593   6.871
    1STR    H1V35794   2.925   8.944   6.708
    1STR    H1W35795   2.799   8.891   6.821
    1STR    H1X35796   2.501   9.042   6.543
    1STR    H1Y35797   2.719   8.912   6.321
    1STR    H1Z35798   2.674   8.732   6.161
    1STR    H2035799   2.441   8.465   6.200
    1STR    H2135800   2.388   8.588   6.084
    1STR    H2235801   2.557   8.541   6.094
    1STR    H2335802   2.266   8.563   6.290
    1STR    H2735803   2.380   8.804   6.550
    1STR    H2835804   1.630   7.797   6.504
    1STR    H2935805   1.768   7.716   6.318
    1STR    H2A35806   1.962   7.589   6.239
    1STR    H2B35807   1.950   7.428   6.311
    1STR    H2C35808   2.071   7.536   6.369
    1STR   BCK135809   4.304   0.476   0.139
    1STR    O0335810   4.424   0.467   0.133
    1STR    N0435811   4.238   0.503   0.252
    1STR    C0535812   4.284   0.552   0.375
    1STR    C0635813   4.420   0.577   0.397
    1STR    C0735814   4.467   0.642   0.511
    1STR    N0835815   4.601   0.677   0.506
    1STR    C0935816   4.689   0.676   0.604
    1STR    O0A35817   4.657   0.680   0.721
    1STR    O0B35818   4.816   0.656   0.563
    1STR    C0C35819   4.879   0.730   0.458
    1STR    C0D35820   5.017   0.756   0.519
    1STR    C0E35821   4.888   0.677   0.311
    1STR    O0F35822   4.772   0.692   0.226
    1STR    C0G35823   4.782   0.651   0.086
    1STR    C0H35824   4.641   0.659   0.033
    1STR    C0I35825   4.859   0.721   9.293
    1STR    O0J35826   4.838   0.643   9.173
    1STR    C0K35827   3.919   1.580   0.061
    1STR    C0M35828   3.895   1.726   0.023
    1STR    C0N35829   3.846   1.544   0.191
    1STR    O0O35830   3.907   1.571   0.318
    1STR    C0P35831   3.976   1.682   0.346
    1STR    O0Q35832   3.949   1.759   0.438
    1STR    N0R35833   4.083   1.694   0.269
    1STR    C0S35834   4.186   1.786   0.267
    1STR    C0T35835   4.272   1.789   0.375
    1STR    C0U35836   4.399   1.846   0.362
    1STR    C0V35837   4.438   1.905   0.242
    1STR    C0W35838   4.583   1.942   0.225
    1STR    C0X35839   4.347   1.914   0.136
    1STR    N0Y35840   4.404   1.962   0.021
    1STR   BCK235841   4.381   1.946   9.212
    1STR    O1035842   4.475   1.954   9.135
    1STR    C1335843   4.222   1.850   0.148
    1STR    C1435844   4.378   0.669   0.616
    1STR    C1535845   4.241   0.643   0.598
    1STR    C1635846   4.193   0.587   0.477
    1STR    C1735847   4.044   0.573   0.458
    1STR    H1B35848   4.143   0.466   0.250
    1STR    H1C35849   4.494   0.557   0.322
    1STR    H1D35850   4.639   0.697   0.414
    1STR    H1E35851   4.827   0.823   0.454
    1STR    H1F35852   5.063   0.663   0.553
    1STR    H1G35853   5.087   0.803   0.451
    1STR    H1H35854   5.009   0.819   0.607
    1STR    H1I35855   4.919   0.574   0.314
    1STR    H1J35856   4.966   0.731   0.260
    1STR    H1K35857   4.824   0.552   0.088
    1STR    H1M35858   4.608   0.761   0.017
    1STR    H1N35859   4.583   0.614   0.109
    1STR    H1O35860   4.624   0.608   9.259
    1STR    H1P35861   4.821   0.821   9.279
    1STR    H1Q35862   4.963   0.729   9.318
    1STR   C01035863   4.839   0.714   9.050
    1STR   H01135864   4.783   0.800   9.071
    1STR   C01235865   4.980   0.751   9.007
    1STR   H01335866   5.029   0.658   8.987
    1STR   H01435867   5.035   0.805   9.083
    1STR   H01535868   4.981   0.811   8.917
    1STR   C01635869   4.762   0.652   8.935
    1STR   H01735870   4.789   0.700   8.841
    1STR   H01835871   4.797   0.555   8.918
    1STR   O01935872   4.621   0.658   8.956
    1STR   C02035873   4.542   0.685   8.840
    1STR   H02135874   4.592   0.752   8.770
    1STR   C02235875   4.516   0.553   8.772
    1STR   H02335876   4.594   0.538   8.700
    1STR   H02435877   4.422   0.549   8.719
    1STR   H02535878   4.522   0.471   8.842
    1STR   C02635879   4.413   0.757   8.884
    1STR   H02735880   4.418   0.759   8.992
    1STR   H02835881   4.416   0.858   8.843
    1STR   O02935882   4.289   0.697   8.852
    1STR   C03035883   4.174   0.776   8.884
    1STR   H03135884   4.196   0.881   8.869
    1STR   C03235885   4.078   0.740   8.770
    1STR   H03335886   4.070   0.632   8.758
    1STR   H03435887   4.116   0.778   8.675
    1STR   H03535888   3.979   0.782   8.786
    1STR   C03635889   4.106   0.758   9.024
    1STR   H03735890   4.027   0.831   9.032
    1STR   H03835891   4.057   0.662   9.026
    1STR   O03935892   4.185   0.757   9.145
    1STR   C04035893   4.121   0.810   9.264
    1STR   H04135894   4.101   0.915   9.251
    1STR   C04235895   3.990   0.745   9.292
    1STR   H04335896   4.015   0.642   9.312
    1STR   H04435897   3.917   0.756   9.212
    1STR   H04535898   3.948   0.787   0.063
    1STR   C04635899   4.206   0.786   0.070
    1STR   H04735900   4.161   0.711   0.135
    1STR   H04835901   4.296   0.741   0.033
    1STR   O04935902   4.232   0.900   0.153
    1STR   C05035903   4.310   0.869   0.268
    1STR   H05135904   4.257   0.795   0.327
    1STR   C05235905   4.442   0.817   0.216
    1STR   H05335906   4.474   0.882   0.135
    1STR   H05435907   4.429   0.717   0.181
    1STR   H05535908   4.519   0.811   0.291
    1STR   C05635909   4.344   0.983   0.362
    1STR   H05735910   4.411   1.052   0.311
    1STR   H05835911   4.253   1.036   0.391
    1STR   O05935912   4.407   0.926   0.476
    1STR   C06035913   4.496   1.010   0.547
    1STR   H06135914   4.466   1.110   0.527
    1STR   C06235915   4.472   0.992   0.697
    1STR   H06335916   4.519   0.901   0.735
    1STR   H06435917   4.366   0.987   0.719
    1STR   H06535918   4.513   1.075   0.754
    1STR   C06635919   4.645   0.995   0.507
    1STR   H06735920   4.707   1.079   0.530
    1STR   H06835921   4.689   0.920   0.572
    1STR   O06935922   4.668   0.965   0.371
    1STR   C07035923   4.763   1.043   0.298
    1STR   H07135924   4.726   1.146   0.290
    1STR   C07235925   4.907   1.037   0.353
    1STR   H07335926   4.953   0.940   0.347
    1STR   H07435927   4.917   1.074   0.455
    1STR   H07535928   4.974   1.089   0.287
    1STR   C07635929   4.764   0.973   0.165
    1STR   H07735930   4.833   0.892   0.170
    1STR   H07835931   4.669   0.927   0.148
    1STR   O07935932   4.788   1.041   0.046
    1STR   C08035933   4.917   1.078   0.003
    1STR   H08135934   4.941   1.170   0.052
    1STR   C08235935   5.031   0.979   0.030
    1STR   H08335936   5.047   0.915   9.264
    1STR   H08435937   5.023   0.919   0.120
    1STR   H08535938   5.124   1.030   0.048
    1STR   C08635939   4.896   1.104   9.173
    1STR   H08735940   4.853   1.204   9.161
    1STR   H08835941   4.985   1.095   9.112
    1STR   O08935942   4.816   1.003   9.119
    1STR   C09035943   4.721   1.038   9.021
    1STR   H09135944   4.709   1.145   9.025
    1STR   C09235945   4.766   0.995   8.882
    1STR   H09335946   4.745   0.892   8.865
    1STR   H09435947   4.872   1.013   8.868
    1STR   H09535948   4.709   1.044   8.804
    1STR   C09635949   4.592   0.968   9.066
    1STR   H09735950   4.593   0.862   9.056
    1STR   H09835951   4.598   0.980   9.174
    1STR   O09935952   4.474   1.018   9.002
    1STR   C10035953   4.350   1.007   9.071
    1STR   H10135954   4.309   0.913   9.045
    1STR   C10235955   4.367   0.992   9.222
    1STR   H10335956   4.439   1.059   9.266
    1STR   H10435957   4.400   0.892   9.245
    1STR   H10535958   4.275   1.012   9.273
    1STR   C10635959   4.240   1.102   9.020
    1STR   H10735960   4.251   1.205   9.050
    1STR   H10835961   4.244   1.103   8.911
    1STR   O10935962   4.113   1.053   9.062
    1STR   C11035963   4.001   1.140   9.052
    1STR   H11135964   4.024   1.234   9.103
    1STR   C11235965   3.974   1.168   8.903
    1STR   H11335966   3.957   1.074   8.849
    1STR   H11435967   4.057   1.219   8.855
    1STR   H11535968   3.885   1.230   8.891
    1STR   C11635969   3.875   1.077   9.117
    1STR   H11735970   3.792   1.148   9.119
    1STR   H11835971   3.842   0.996   9.052
    1STR   O11935972   3.891   1.013   9.244
    1STR   C12035973   3.867   1.089   0.042
    1STR   H12135974   3.809   1.178   0.019
    1STR   C12235975   3.786   1.001   0.139
    1STR   H12335976   3.848   0.926   0.187
    1STR   H12435977   3.706   0.949   0.086
    1STR   H12535978   3.742   1.061   0.218
    1STR   C12635979   3.999   1.129   0.108
    1STR   H12735980   3.977   1.176   0.203
    1STR   H12835981   4.059   1.042   0.130
    1STR   O12935982   4.065   1.212   0.015
    1STR   C13035983   4.165   1.303   0.057
    1STR   H13135984   4.142   1.375   9.302
    1STR   C13235985   4.144   1.361   0.196
    1STR   H13335986   4.170   1.286   0.271
    1STR   H13435987   4.041   1.386   0.214
    1STR   H13535988   4.204   1.450   0.208
    1STR   C13635989   4.308   1.257   0.029
    1STR   H13735990   4.337   1.176   0.096
    1STR   H13835991   4.299   1.221   9.249
    1STR   O13935992   4.408   1.359   0.022
    1STR   C14035993   4.525   1.339   9.256
    1STR   H14135994   4.582   1.431   9.250
    1STR   C14235995   4.617   1.242   0.003
    1STR   H14335996   4.570   1.182   0.081
    1STR   H14435997   4.704   1.290   0.044
    1STR   H14535998   4.652   1.174   9.247
    1STR   C14635999   4.499   1.308   9.106
    1STR   H14736000   4.491   1.204   9.105
    1STR   H14836001   4.402   1.343   9.076
    1STR   O14936002   4.597   1.347   9.006
    1STR   C15036003   4.575   1.294   8.873
    1STR   H15136004   4.558   1.188   8.883
    1STR   C15236005   4.445   1.341   8.805
    1STR   H15336006   4.448   1.445   8.777
    1STR   H15436007   4.357   1.325   8.866
    1STR   H15536008   4.429   1.285   8.713
    1STR   C15636009   4.696   1.302   8.774
    1STR   H15736010   4.677   1.228   8.696
    1STR   H15836011   4.699   1.395   8.720
    1STR   O15936012   4.826   1.282   8.828
    1STR   C16036013   4.928   1.247   8.732
    1STR   H16136014   4.906   1.146   8.700
    1STR   C16236015   4.930   1.331   8.603
    1STR   H16336016   4.948   1.437   8.622
    1STR   H16436017   4.837   1.323   8.546
    1STR   H16536018   5.010   1.298   8.537
    1STR   C16636019   5.068   1.242   8.797
    1STR   H16736020   5.070   1.175   8.883
    1STR   H16836021   5.135   1.194   8.727
    1STR   O16936022   5.132   1.368   8.822
    1STR   C17036023   5.094   1.446   8.936
    1STR   H17136024   5.176   1.515   8.951
    1STR   C17236025   4.972   1.533   8.905
    1STR   H17336026   4.916   1.503   8.818
    1STR   H17436027   5.000   1.637   8.887
    1STR   H17536028   4.899   1.530   8.986
    1STR   C17636029   5.082   1.366   9.067
    1STR   H17736030   5.035   1.424   9.144
    1STR   H17836031   5.010   1.289   9.048
    1STR   O17936032   5.208   1.318   9.114
    1STR   C18036033   5.207   1.243   9.236
    1STR   H18136034   5.137   1.166   9.217
    1STR   C18236035   5.338   1.167   9.253
    1STR   H18336036   5.426   1.227   9.235
    1STR   H18436037   5.344   1.083   9.184
    1STR   H18536038   5.348   1.130   0.035
    1STR   C18636039   5.159   1.320   0.043
    1STR   H18736040   5.214   1.412   0.055
    1STR   H18836041   5.057   1.349   0.025
    1STR   O18936042   5.159   1.244   0.165
    1STR   C19036043   5.117   1.318   0.281
    1STR   H19136044   5.158   1.418   0.274
    1STR   C19236045   4.964   1.328   0.295
    1STR   H19336046   4.908   1.290   0.211
    1STR   H19436047   4.930   1.427   0.315
    1STR   H19536048   4.925   1.280   0.384
    1STR   C19636049   5.170   1.260   0.413
    1STR   H19736050   5.134   1.158   0.428
    1STR   H19836051   5.278   1.253   0.417
    1STR   O19936052   5.121   1.349   0.513
    1STR   C20036053   5.129   1.303   0.646
    1STR   H20136054   5.153   1.197   0.653
    1STR   C20236055   5.238   1.386   0.714
    1STR   H20336056   5.210   1.491   0.716
    1STR   H20436057   5.333   1.377   0.662
    1STR   H20536058   5.253   1.354   0.817
    1STR   C20636059   4.991   1.328   0.711
    1STR   H20736060   5.003   1.323   0.819
    1STR   H20836061   4.956   1.429   0.687
    1STR   O20936062   4.896   1.230   0.668
    1STR   C21036063   4.762   1.247   0.715
    1STR   H21136064   4.717   1.149   0.718
    1STR   C21236065   4.753   1.292   0.861
    1STR   H21336066   4.788   1.394   0.875
    1STR   H21436067   4.810   1.226   0.926
    1STR   H21536068   4.649   1.287   0.895
    1STR   C21636069   4.679   1.337   0.620
    1STR   H21736070   4.602   1.384   0.680
    1STR   H21836071   4.743   1.415   0.579
    1STR   O21936072   4.613   1.276   0.509
    1STR   C22036073   4.531   1.365   0.435
    1STR   H22136074   4.504   1.442   0.501
    1STR   C22236075   4.609   1.417   0.318
    1STR   H22336076   4.608   1.346   0.236
    1STR   H22436077   4.712   1.430   0.346
    1STR   H22536078   4.570   1.511   0.281
    1STR   C22636079   4.394   1.323   0.384
    1STR   H22736080   4.347   1.415   0.351
    1STR   H22836081   4.407   1.262   0.295
    1STR   O22936082   4.308   1.252   0.473
    1STR   C23036083   4.215   1.322   0.552
    1STR   H23136084   4.177   1.411   0.502
    1STR   C23236085   4.096   1.226   0.564
    1STR   H23336086   4.125   1.134   0.613
    1STR   H23436087   4.057   1.201   0.465
    1STR   H23536088   4.014   1.271   0.620
    1STR   C23636089   4.275   1.351   0.691
    1STR   H23736090   4.198   1.375   0.763
    1STR   H23836091   4.323   1.260   0.728
    1STR   O23936092   4.374   1.454   0.693
    1STR   C24036093   4.337   1.580   0.638
    1STR   H24136094   4.310   1.566   0.534
    1STR   C24236095   4.218   1.636   0.719
    1STR   H24336096   4.242   1.637   0.826
    1STR   H24436097   4.127   1.577   0.706
    1STR   H24536098   4.193   1.736   0.689
    1STR   C24636099   4.460   1.673   0.639
    1STR   H24736100   4.433   1.777   0.637
    1STR   H24836101   4.502   1.660   0.737
    1STR   O24936102   4.551   1.646   0.530
    1STR   C25036103   4.681   1.702   0.537
    1STR   H25136104   4.668   1.810   0.531
    1STR   C25236105   4.737   1.659   0.673
    1STR   H25336106   4.691   1.572   0.714
    1STR   H25436107   4.718   1.738   0.745
    1STR   H25536108   4.842   1.633   0.668
    1STR   C25636109   4.788   1.665   0.431
    1STR   H25736110   4.869   1.734   0.449
    1STR   H25836111   4.829   1.567   0.452
    1STR   O25936112   4.759   1.674   0.292
    1STR   C26036113   4.870   1.655   0.202
    1STR   H26136114   4.876   1.744   0.143
    1STR   C26236115   5.014   1.652   0.260
    1STR   H26336116   5.031   1.594   0.350
    1STR   H26436117   5.050   1.750   0.288
    1STR   H26536118   5.085   1.618   0.185
    1STR   C26636119   4.846   1.541   0.101
    1STR   H26736120   4.940   1.506   0.064
    1STR   H26836121   4.796   1.458   0.148
    1STR   O26936122   4.766   1.567   9.308
    1STR   C27036123   4.795   1.682   9.233
    1STR   H27136124   4.772   1.767   9.298
    1STR   C27236125   4.941   1.696   9.188
    1STR   H27336126   4.945   1.727   9.084
    1STR   H27436127   5.001   1.608   9.200
    1STR   H27536128   4.992   1.772   9.247
    1STR   C27636129   4.683   1.701   9.131
    1STR   H27736130   4.604   1.642   9.172
    1STR   H27836131   4.651   1.804   9.138
    1STR   O27936132   4.690   1.660   8.996
    1STR   C28036133   4.568   1.695   8.927
    1STR   H28136134   4.545   1.798   8.941
    1STR   C28236135   4.595   1.669   8.779
    1STR   H28336136   4.637   1.572   8.770
    1STR   H28436137   4.670   1.737   8.739
    1STR   H28536138   4.505   1.674   8.719
    1STR   C28636139   4.439   1.629   8.977
    1STR   H28736140   4.359   1.635   8.904
    1STR   H28836141   4.460   1.525   8.991
    1STR   O28936142   4.395   1.693   9.095
    1STR   C29036143   4.358   1.612   9.205
    1STR   H29136144   4.379   1.512   9.180
    1STR   C29236145   4.431   1.644   0.018
    1STR   H29336146   4.487   1.736   0.014
    1STR   H29436147   4.509   1.575   0.047
    1STR   H29536148   4.368   1.643   0.106
    1STR   C29636149   4.209   1.605   9.222
    1STR   H29736150   4.200   1.561   9.319
    1STR   H29836151   4.165   1.702   9.233
    1STR   O29936152   4.148   1.527   9.120
    1STR   C30036153   4.024   1.577   9.074
    1STR   H30136154   4.019   1.685   9.081
    1STR   C30236155   4.027   1.547   8.924
    1STR   H30336156   4.039   1.441   8.905
    1STR   H30436157   4.112   1.598   8.878
    1STR   H30536158   3.937   1.581   8.873
    1STR   C30636159   3.899   1.513   9.142
    1STR   H30736160   3.812   1.576   9.123
    1STR   H30836161   3.879   1.418   9.092
    1STR   O30936162   3.896   1.481   9.281
    1STR    H1R36163   4.023   1.566   0.079
    1STR    H1S36164   3.964   1.759   9.267
    1STR    H1T36165   3.910   1.794   0.106
    1STR    H1U36166   3.794   1.743   9.309
    1STR    H1V36167   3.823   1.438   0.190
    1STR    H1W36168   3.751   1.596   0.189
    1STR    H1X36169   4.093   1.620   0.204
    1STR    H1Y36170   4.242   1.742   0.466
    1STR    H1Z36171   4.470   1.846   0.442
    1STR    H2036172   4.626   1.914   0.129
    1STR    H2136173   4.597   2.048   0.244
    1STR    H2236174   4.639   1.886   0.299
    1STR    H2336175   4.495   2.000   0.038
    1STR    H2736176   4.156   1.840   0.065
    1STR    H2836177   4.411   0.716   0.707
    1STR    H2936178   4.172   0.670   0.676
    1STR    H2A36179   3.988   0.625   0.535
    1STR    H2B36180   4.018   0.468   0.464
    1STR    H2C36181   4.016   0.614   0.361
    1STR   BCK136182   5.064   0.269   2.032
    1STR    O0336183   5.150   0.352   2.051
    1STR    N0436184   5.044   0.210   1.917
    1STR    C0536185   5.133   0.206   1.812
    1STR    C0636186   5.200   0.318   1.763
    1STR    C0736187   5.280   0.308   1.648
    1STR    N0836188   5.337   0.422   1.593
    1STR    C0936189   5.275   0.525   1.536
    1STR    O0A36190   5.339   0.626   1.509
    1STR    O0B36191   5.142   0.509   1.511
    1STR    C0C36192   5.064   0.620   1.463
    1STR    C0D36193   5.090   0.638   1.312
    1STR    C0E36194   4.911   0.614   1.486
    1STR    O0F36195   4.858   0.614   1.619
    1STR    C0G36196   4.791   0.496   1.659
    1STR    C0H36197   4.899   0.403   1.711
    1STR    C0I36198   4.680   0.518   1.761
    1STR    O0J36199   4.562   0.575   1.707
    1STR    C0K36200   5.222   1.569   2.365
    1STR    C0M36201   5.196   1.418   2.365
    1STR    C0N36202   5.151   1.646   2.255
    1STR    O0O36203   5.144   1.786   2.275
    1STR    C0P36204   5.066   1.856   2.191
    1STR    O0Q36205   4.979   1.931   2.230
    1STR    N0R36206   5.087   1.829   2.062
    1STR    C0S36207   4.989   1.803   1.968
    1STR    C0T36208   5.022   1.772   1.835
    1STR    C0U36209   4.924   1.726   1.745
    1STR    C0V36210   4.790   1.710   1.786
    1STR    C0W36211   4.689   1.663   1.684
    1STR    C0X36212   4.755   1.752   1.917
    1STR    N0Y36213   4.632   1.780   1.971
    1STR   BCK236214   4.508   1.738   1.976
    1STR    O1036215   4.439   1.790   2.060
    1STR    C1336216   4.855   1.792   2.006
    1STR    C1436217   5.309   0.181   1.594
    1STR    C1536218   5.250   0.066   1.651
    1STR    C1636219   5.162   0.080   1.760
    1STR    C1736220   5.116   9.279   1.834
    1STR    H1B36221   4.963   0.150   1.911
    1STR    H1C36222   5.187   0.411   1.815
    1STR    H1D36223   5.436   0.432   1.601
    1STR    H1E36224   5.103   0.707   1.514
    1STR    H1F36225   5.046   0.557   1.254
    1STR    H1G36226   5.045   0.731   1.276
    1STR    H1H36227   5.196   0.642   1.290
    1STR    H1I36228   4.872   0.530   1.431
    1STR    H1J36229   4.867   0.701   1.440
    1STR    H1K36230   4.742   0.450   1.577
    1STR    H1M36231   4.928   0.425   1.811
    1STR    H1N36232   4.991   0.415   1.657
    1STR    H1O36233   4.871   0.298   1.702
    1STR    H1P36234   4.644   0.425   1.801
    1STR    H1Q36235   4.724   0.573   1.845
    1STR   C01036236   4.517   0.686   1.782
    1STR   H01136237   4.606   0.747   1.782
    1STR   C01236238   4.418   0.769   1.702
    1STR   H01336239   4.318   0.733   1.719
    1STR   H01436240   4.441   0.765   1.595
    1STR   H01536241   4.421   0.873   1.734
    1STR   C01636242   4.461   0.652   1.924
    1STR   H01736243   4.423   0.743   1.969
    1STR   H01836244   4.376   0.584   1.914
    1STR   O01936245   4.559   0.591   2.008
    1STR   C02036246   4.556   0.614   2.150
    1STR   H02136247   4.479   0.685   2.175
    1STR   C02236248   4.524   0.481   2.215
    1STR   H02336249   4.606   0.413   2.229
    1STR   H02436250   4.449   0.428   2.158
    1STR   H02536251   4.494   0.503   2.317
    1STR   C02636252   4.692   0.662   2.206
    1STR   H02736253   4.777   0.647   2.140
    1STR   H02836254   4.689   0.768   2.211
    1STR   O02936255   4.719   0.614   2.337
    1STR   C03036256   4.816   0.691   2.406
    1STR   H03136257   4.800   0.798   2.398
    1STR   C03236258   4.810   0.650   2.552
    1STR   H03336259   4.720   0.691   2.594
    1STR   H03436260   4.894   0.686   2.610
    1STR   H03536261   4.812   0.542   2.563
    1STR   C03636262   4.956   0.653   2.370
    1STR   H03736263   5.022   0.717   2.426
    1STR   H03836264   4.966   0.551   2.405
    1STR   O03936265   4.995   0.661   2.236
    1STR   C04036266   5.136   0.650   2.222
    1STR   H04136267   5.179   0.743   2.254
    1STR   C04236268   5.199   0.540   2.312
    1STR   H04336269   5.205   0.444   2.263
    1STR   H04436270   5.161   0.525   2.413
    1STR   H04536271   5.298   0.568   2.340
    1STR   C04636272   5.165   0.631   2.073
    1STR   H04736273   5.249   0.565   2.061
    1STR   H04836274   5.080   0.577   2.033
    1STR   O04936275   5.188   0.751   2.000
    1STR   C05036276   5.200   0.740   1.858
    1STR   H05136277   5.289   0.682   1.834
    1STR   C05236278   5.083   0.666   1.794
    1STR   H05336279   5.000   0.643   1.859
    1STR   H05436280   5.114   0.576   1.744
    1STR   H05536281   5.042   0.725   1.715
    1STR   C05636282   5.215   0.878   1.791
    1STR   H05736283   5.301   0.927   1.837
    1STR   H05836284   5.241   0.867   1.686
    1STR   O05936285   5.105   0.967   1.811
    1STR   C06036286   5.005   0.990   1.710
    1STR   H06136287   4.979   1.091   1.737
    1STR   C06236288   5.050   1.000   1.563
    1STR   H06336289   5.095   0.909   1.526
    1STR   H06436290   5.122   1.080   1.550
    1STR   H06536291   4.964   1.021   1.499
    1STR   C06636292   4.874   0.910   1.727
    1STR   H06736293   4.784   0.970   1.715
    1STR   H06836294   4.863   0.838   1.648
    1STR   O06936295   4.874   0.841   1.851
    1STR   C07036296   4.830   0.917   1.960
    1STR   H07136297   4.840   1.020   1.936
    1STR   C07236298   4.687   0.874   1.975
    1STR   H07336299   4.691   0.767   1.968
    1STR   H07436300   4.626   0.915   1.895
    1STR   H07536301   4.636   0.897   2.067
    1STR   C07636302   4.917   0.899   2.083
    1STR   H07736303   4.863   0.870   2.171
    1STR   H07836304   4.985   0.819   2.059
    1STR   O07936305   4.982   1.022   2.110
    1STR   C08036306   5.102   1.010   2.184
    1STR   H08136307   5.161   0.926   2.148
    1STR   C08236308   5.179   1.135   2.149
    1STR   H08336309   5.113   1.220   2.154
    1STR   H08436310   5.216   1.126   2.047
    1STR   H08536311   5.264   1.148   2.216
    1STR   C08636312   5.075   0.996   2.334
    1STR   H08736313   5.062   1.094   2.380
    1STR   H08836314   4.983   0.940   2.350
    1STR   O08936315   5.181   0.924   2.394
    1STR   C09036316   5.169   0.916   2.535
    1STR   H09136317   5.064   0.928   2.561
    1STR   C09236318   5.207   0.778   2.588
    1STR   H09336319   5.263   0.723   2.513
    1STR   H09436320   5.120   0.717   2.613
    1STR   H09536321   5.264   0.783   2.681
    1STR   C09636322   5.254   1.029   2.595
    1STR   H09736323   5.332   0.994   2.663
    1STR   H09836324   5.306   1.084   2.516
    1STR   O09936325   5.168   1.119   2.661
    1STR   C10036326   5.102   1.063   2.774
    1STR   H10136327   5.115   0.956   2.784
    1STR   C10236328   5.165   1.129   2.895
    1STR   H10336329   5.178   1.235   2.876
    1STR   H10436330   5.265   1.090   2.913
    1STR   H10536331   5.106   1.115   2.985
    1STR   C10636332   4.953   1.091   2.750
    1STR   H10736333   4.927   1.193   2.773
    1STR   H10836334   4.934   1.084   2.644
    1STR   O10936335   4.867   1.004   2.822
    1STR   C11036336   4.792   0.914   2.741
    1STR   H11136337   4.852   0.886   2.655
    1STR   C11236338   4.769   0.794   2.831
    1STR   H11336339   4.741   0.831   2.929
    1STR   H11436340   4.859   0.733   2.841
    1STR   H11536341   4.689   0.730   2.798
    1STR   C11636342   4.657   0.969   2.690
    1STR   H11736343   4.581   0.955   2.765
    1STR   H11836344   4.669   1.075   2.678
    1STR   O11936345   4.621   0.902   2.567
    1STR   C12036346   4.517   0.956   2.484
    1STR   H12136347   4.545   1.054   2.459
    1STR   C12236348   4.524   0.887   2.352
    1STR   H12336349   4.525   0.780   2.369
    1STR   H12436350   4.616   0.923   2.306
    1STR   H12536351   4.443   0.911   2.284
    1STR   C12636352   4.374   0.961   2.536
    1STR   H12736353   4.320   0.867   2.526
    1STR   H12836354   4.382   0.984   2.641
    1STR   O12936355   4.305   1.071   2.477
    1STR   C13036356   4.220   1.045   2.369
    1STR   H13136357   4.236   0.942   2.340
    1STR   C13236358   4.077   1.075   2.419
    1STR   H13336359   4.070   1.167   2.473
    1STR   H13436360   4.044   1.000   2.491
    1STR   H13536361   4.006   1.081   2.337
    1STR   C13636362   4.263   1.130   2.251
    1STR   H13736363   4.219   1.227   2.259
    1STR   H13836364   4.371   1.141   2.263
    1STR   O13936365   4.226   1.068   2.127
    1STR   C14036366   4.290   1.107   2.005
    1STR   H14136367   4.283   1.026   1.933
    1STR   C14236368   4.224   1.231   1.944
    1STR   H14336369   4.234   1.318   2.007
    1STR   H14436370   4.118   1.212   1.926
    1STR   H14536371   4.271   1.254   1.848
    1STR   C14636372   4.438   1.123   2.022
    1STR   H14736373   4.451   1.213   2.081
    1STR   H14836374   4.474   1.039   2.082
    1STR   O14936375   4.515   1.132   1.902
    1STR   C15036376   4.624   1.219   1.923
    1STR   H15136377   4.577   1.317   1.931
    1STR   C15236378   4.696   1.182   2.055
    1STR   H15336379   4.685   1.084   2.096
    1STR   H15436380   4.660   1.240   2.138
    1STR   H15536381   4.804   1.193   2.046
    1STR   C15636382   4.734   1.241   1.818
    1STR   H15736383   4.795   1.314   1.867
    1STR   H15836384   4.798   1.157   1.806
    1STR   O15936385   4.710   1.297   1.691
    1STR   C16036386   4.833   1.317   1.619
    1STR   H16136387   4.878   1.221   1.595
    1STR   C16236388   4.790   1.378   1.486
    1STR   H16336389   4.737   1.303   1.427
    1STR   H16436390   4.875   1.414   1.428
    1STR   H16536391   4.720   1.460   1.502
    1STR   C16636392   4.941   1.402   1.695
    1STR   H16736393   5.006   1.454   1.625
    1STR   H16836394   4.891   1.476   1.756
    1STR   O16936395   5.021   1.319   1.778
    1STR   C17036396   5.110   1.378   1.874
    1STR   H17136397   5.160   1.292   1.917
    1STR   C17236398   5.220   1.464   1.810
    1STR   H17336399   5.179   1.548   1.753
    1STR   H17436400   5.282   1.405   1.743
    1STR   H17536401   5.286   1.506   1.886
    1STR   C17636402   5.043   1.451   1.991
    1STR   H17736403   5.113   1.454   2.074
    1STR   H17836404   5.018   1.552   1.964
    1STR   O17936405   4.927   1.385   2.035
    1STR   C18036406   4.849   1.453   2.132
    1STR   H18136407   4.890   1.551   2.156
    1STR   C18236408   4.717   1.489   2.067
    1STR   H18336409   4.632   1.432   2.098
    1STR   H18436410   4.721   1.493   1.958
    1STR   H18536411   4.691   1.588   2.098
    1STR   C18636412   4.844   1.361   2.257
    1STR   H18736413   4.866   1.261   2.223
    1STR   H18836414   4.930   1.379   2.319
    1STR   O18936415   4.726   1.370   2.340
    1STR   C19036416   4.676   1.253   2.409
    1STR   H19136417   4.610   1.202   2.340
    1STR   C19236418   4.795   1.160   2.438
    1STR   H19336419   4.876   1.216   2.485
    1STR   H19436420   4.831   1.110   2.349
    1STR   H19536421   4.770   1.076   2.500
    1STR   C19636422   4.594   1.291   2.539
    1STR   H19736423   4.678   1.299   2.606
    1STR   H19836424   4.545   1.387   2.523
    1STR   O19936425   4.495   1.207   2.606
    1STR   C20036426   4.425   1.248   2.726
    1STR   H20136427   4.428   1.356   2.730
    1STR   C20236428   4.275   1.215   2.725
    1STR   H20336429   4.251   1.112   2.751
    1STR   H20436430   4.233   1.231   2.627
    1STR   H20536431   4.220   1.280   2.793
    1STR   C20636432   4.472   1.188   2.861
    1STR   H20736433   4.418   1.239   2.942
    1STR   H20836434   4.442   1.084   2.869
    1STR   O20936435   4.611   1.191   2.881
    1STR   C21036436   4.654   1.246   3.005
    1STR   H21136437   4.587   1.321   3.045
    1STR   C21236438   4.671   1.140   3.110
    1STR   H21336439   4.724   1.056   3.065
    1STR   H21436440   4.574   1.110   3.148
    1STR   H21536441   4.729   1.176   3.195
    1STR   C21636442   4.788   1.311   2.976
    1STR   H21736443   4.815   1.385   3.051
    1STR   H21836444   4.864   1.232   2.981
    1STR   O21936445   4.799   1.365   2.845
    1STR   C22036446   4.703   1.457   2.796
    1STR   H22136447   4.624   1.398   2.758
    1STR   C22236448   4.620   1.529   2.901
    1STR   H22336449   4.671   1.536   2.996
    1STR   H22436450   4.527   1.477   2.922
    1STR   H22536451   4.586   1.625   2.869
    1STR   C22636452   4.771   1.526   2.675
    1STR   H22736453   4.832   1.609   2.702
    1STR   H22836454   4.840   1.455   2.630
    1STR   O22936455   4.685   1.556   2.567
    1STR   C23036456   4.720   1.664   2.481
    1STR   H23136457   4.714   1.758   2.535
    1STR   C23236458   4.862   1.656   2.429
    1STR   H23336459   4.875   1.568   2.371
    1STR   H23436460   4.940   1.647   2.504
    1STR   H23536461   4.884   1.741   2.365
    1STR   C23636462   4.621   1.664   2.364
    1STR   H23736463   4.609   1.763   2.320
    1STR   H23836464   4.670   1.602   2.292
    1STR   O23936465   4.494   1.602   2.388
    1STR   C24036466   4.431   1.557   2.268
    1STR   H24136467   4.488   1.582   2.180
    1STR   C24236468   4.416   1.407   2.270
    1STR   H24336469   4.352   1.378   2.188
    1STR   H24436470   4.378   1.372   2.365
    1STR   H24536471   4.511   1.361   2.252
    1STR   C24636472   4.294   1.617   2.251
    1STR   H24736473   4.311   1.724   2.245
    1STR   H24836474   4.246   1.587   2.158
    1STR   O24936475   4.223   1.594   2.369
    1STR   C25036476   4.104   1.517   2.379
    1STR   H25136477   4.025   1.580   2.416
    1STR   C25236478   4.049   1.452   2.251
    1STR   H25336479   4.124   1.399   2.194
    1STR   H25436480   4.007   1.527   2.184
    1STR   H25536481   3.969   1.381   2.274
    1STR   C25636482   4.136   1.422   2.495
    1STR   H25736483   4.045   1.389   2.546
    1STR   H25836484   4.182   1.336   2.449
    1STR   O25936485   4.236   1.465   2.588
    1STR   C26036486   4.224   1.588   2.658
    1STR   H26136487   4.230   1.668   2.587
    1STR   C26236488   4.097   1.587   2.744
    1STR   H26336489   4.093   1.498   2.807
    1STR   H26436490   4.007   1.592   2.684
    1STR   H26536491   4.097   1.672   2.812
    1STR   C26636492   4.351   1.609   2.739
    1STR   H26736493   4.342   1.560   2.836
    1STR   H26836494   4.429   1.556   2.684
    1STR   O26936495   4.385   1.748   2.759
    1STR   C27036496   4.504   1.791   2.692
    1STR   H27136497   4.554   1.704   2.659
    1STR   C27236498   4.470   1.870   2.566
    1STR   H27336499   4.413   1.958   2.588
    1STR   H27436500   4.410   1.810   2.497
    1STR   H27536501   4.558   1.903   2.512
    1STR   C27636502   4.608   1.855   2.786
    1STR   H27736503   4.618   1.961   2.766
    1STR   H27836504   4.563   1.840   2.882
    1STR   O27936505   4.735   1.787   2.792
    1STR   C28036506   4.825   1.799   2.904
    1STR   H28136507   4.852   1.902   2.911
    1STR   C28236508   4.777   1.755   3.042
    1STR   H28336509   4.820   1.665   3.085
    1STR   H28436510   4.673   1.737   3.036
    1STR   H28536511   4.796   1.830   3.116
    1STR   C28636512   4.955   1.723   2.886
    1STR   H28736513   4.996   1.729   2.787
    1STR   H28836514   5.025   1.773   2.950
    1STR   O28936515   4.944   1.586   2.923
    1STR   C29036516   5.067   1.519   2.912
    1STR   H29136517   5.142   1.593   2.927
    1STR   C29236518   5.094   1.427   3.030
    1STR   H29336519   5.039   1.335   3.026
    1STR   H29436520   5.071   1.477   3.123
    1STR   H29536521   5.200   1.400   3.032
    1STR   C29636522   5.078   1.462   2.770
    1STR   H29736523   5.026   1.369   2.758
    1STR   H29836524   5.036   1.529   2.696
    1STR   O29936525   5.212   1.446   2.736
    1STR   C30036526   5.276   1.571   2.723
    1STR   H30136527   5.218   1.656   2.755
    1STR   C30236528   5.395   1.555   2.817
    1STR   H30336529   5.460   1.477   2.781
    1STR   H30436530   5.362   1.527   2.917
    1STR   H30536531   5.451   1.647   2.830
    1STR   C30636532   5.300   1.594   2.576
    1STR   H30736533   5.347   1.689   2.555
    1STR   H30836534   5.366   1.514   2.545
    1STR   O30936535   5.185   1.604   2.496
    1STR    H1R36536   5.327   1.591   2.344
    1STR    H1S36537   5.189   1.378   2.265
    1STR    H1T36538   5.105   1.395   2.420
    1STR    H1U36539   5.273   1.363   2.418
    1STR    H1V36540   5.051   1.610   2.249
    1STR    H1W36541   5.200   1.628   2.160
    1STR    H1X36542   5.178   1.857   2.027
    1STR    H1Y36543   5.125   1.777   1.803
    1STR    H1Z36544   4.953   1.701   1.644
    1STR    H2036545   4.603   1.729   1.680
    1STR    H2136546   4.731   1.662   1.585
    1STR    H2236547   4.654   1.562   1.709
    1STR    H2336548   4.639   1.856   2.038
    1STR    H2736549   4.825   1.818   2.106
    1STR    H2836550   5.374   0.170   1.510
    1STR    H2936551   5.274   9.288   1.615
    1STR    H2A36552   5.199   9.240   1.889
    1STR    H2B36553   5.083   9.207   1.762
    1STR    H2C36554   5.043   9.294   1.913
    1STR   BCK136555   4.156   0.516   4.637
    1STR    O0336556   4.231   0.471   4.723
    1STR    N0436557   4.045   0.587   4.659
    1STR    C0536558   3.977   0.621   4.775
    1STR    C0636559   4.017   0.580   4.904
    1STR    C0736560   3.936   0.609   5.016
    1STR    N0836561   3.984   0.578   5.142
    1STR    C0936562   3.915   0.556   5.254
    1STR    O0A36563   3.798   0.518   5.256
    1STR    O0B36564   3.984   0.585   5.367
    1STR    C0C36565   4.088   0.683   5.369
    1STR    C0D36566   4.080   0.757   5.504
    1STR    C0E36567   4.226   0.620   5.342
    1STR    O0F36568   4.238   0.584   5.205
    1STR    C0G36569   4.364   0.529   5.169
    1STR    C0H36570   4.351   0.452   5.037
    1STR    C0I36571   4.481   0.630   5.169
    1STR    O0J36572   4.603   0.573   5.219
    1STR    C0K36573   4.912   1.911   4.272
    1STR    C0M36574   5.036   1.981   4.318
    1STR    C0N36575   4.781   1.995   4.260
    1STR    O0O36576   4.689   1.923   4.177
    1STR    C0P36577   4.567   1.963   4.150
    1STR    O0Q36578   4.539   2.077   4.117
    1STR    N0R36579   4.480   1.862   4.168
    1STR    C0S36580   4.343   1.861   4.193
    1STR    C0T36581   4.246   1.824   4.097
    1STR    C0U36582   4.112   1.802   4.134
    1STR    C0V36583   4.071   1.820   4.267
    1STR    C0W36584   3.934   1.770   4.310
    1STR    C0X36585   4.163   1.867   4.363
    1STR    N0Y36586   4.118   1.875   4.493
    1STR   BCK236587   4.166   1.916   4.610
    1STR    O1036588   4.099   1.905   4.711
    1STR    C1336589   4.298   1.881   4.325
    1STR    C1436590   3.816   0.680   4.999
    1STR    C1536591   3.778   0.725   4.872
    1STR    C1636592   3.859   0.697   4.760
    1STR    C1736593   3.815   0.744   4.622
    1STR    H1B36594   4.001   0.618   4.574
    1STR    H1C36595   4.107   0.524   4.918
    1STR    H1D36596   4.086   0.576   5.155
    1STR    H1E36597   4.068   0.759   5.293
    1STR    H1F36598   4.101   0.692   5.588
    1STR    H1G36599   4.150   0.840   5.507
    1STR    H1H36600   3.980   0.797   5.519
    1STR    H1I36601   4.241   0.531   5.402
    1STR    H1J36602   4.303   0.691   5.371
    1STR    H1K36603   4.382   0.458   5.245
    1STR    H1M36604   4.269   0.379   5.040
    1STR    H1N36605   4.441   0.396   5.013
    1STR    H1O36606   4.334   0.517   4.951
    1STR    H1P36607   4.493   0.670   5.068
    1STR    H1Q36608   4.461   0.717   5.231
    1STR   C01036609   4.719   0.636   5.170
    1STR   H01136610   4.699   0.741   5.168
    1STR   C01236611   4.854   0.623   5.238
    1STR   H01336612   4.873   0.519   5.257
    1STR   H01436613   4.862   0.683   5.328
    1STR   H01536614   4.935   0.658   5.173
    1STR   C01636615   4.738   0.580   5.035
    1STR   H01736616   4.835   0.535   5.019
    1STR   H01836617   4.658   0.509   5.013
    1STR   O01936618   4.727   0.690   4.953
    1STR   C02036619   4.726   0.643   4.824
    1STR   H02136620   4.727   0.538   4.814
    1STR   C02236621   4.586   0.672   4.779
    1STR   H02336622   4.578   0.772   4.742
    1STR   H02436623   4.514   0.659   4.859
    1STR   H02536624   4.554   0.601   4.705
    1STR   C02636625   4.851   0.703   4.763
    1STR   H02736626   4.817   0.796   4.720
    1STR   H02836627   4.920   0.724   4.844
    1STR   O02936628   4.927   0.619   4.674
    1STR   C03036629   5.005   0.692   4.579
    1STR   H03136630   4.960   0.788   4.575
    1STR   C03236631   5.154   0.698   4.612
    1STR   H03336632   5.206   0.606   4.596
    1STR   H03436633   5.163   0.720   4.716
    1STR   H03536634   5.215   0.768   4.557
    1STR   C03636635   4.987   0.657   4.434
    1STR   H03736636   4.911   0.714   4.385
    1STR   H03836637   5.078   0.682   4.382
    1STR   O03936638   4.964   0.522   4.427
    1STR   C04036639   4.831   0.477   4.438
    1STR   H04136640   4.788   0.480   4.342
    1STR   C04236641   4.862   0.342   4.493
    1STR   H04336642   4.774   0.283   4.486
    1STR   H04436643   4.892   0.347   4.597
    1STR   H04536644   4.944   0.298   4.439
    1STR   C04636645   4.717   0.535   4.520
    1STR   H04736646   4.625   0.489   4.489
    1STR   H04836647   4.731   0.498   4.619
    1STR   O04936648   4.708   0.675   4.531
    1STR   C05036649   4.620   0.748   4.452
    1STR   H05136650   4.631   0.846   4.493
    1STR   C05236651   4.682   0.759   4.317
    1STR   H05336652   4.720   0.664   4.287
    1STR   H05436653   4.762   0.832   4.314
    1STR   H05536654   4.612   0.791   4.244
    1STR   C05636655   4.472   0.702   4.445
    1STR   H05736656   4.412   0.753   4.370
    1STR   H05836657   4.483   0.609   4.395
    1STR   O05936658   4.397   0.685   4.565
    1STR   C06036659   4.314   0.793   4.607
    1STR   H06136660   4.384   0.870   4.603
    1STR   C06236661   4.197   0.825   4.512
    1STR   H06336662   4.133   0.742   4.486
    1STR   H06436663   4.232   0.866   4.417
    1STR   H06536664   4.131   0.901   4.555
    1STR   C06636665   4.278   0.797   4.757
    1STR   H06736666   4.184   0.850   4.770
    1STR   H06836667   4.262   0.696   4.795
    1STR   O06936668   4.380   0.859   4.838
    1STR   C07036669   4.340   0.898   4.969
    1STR   H07136670   4.278   0.983   4.945
    1STR   C07236671   4.235   0.810   5.034
    1STR   H07336672   4.258   0.707   5.014
    1STR   H07436673   4.135   0.827   4.993
    1STR   H07536674   4.227   0.826   5.141
    1STR   C07636675   4.455   0.943   5.068
    1STR   H07736676   4.462   1.049   5.062
    1STR   H07836677   4.423   0.925   5.171
    1STR   O07936678   4.591   0.902   5.053
    1STR   C08036679   4.690   0.982   5.125
    1STR   H08136680   4.672   1.086   5.098
    1STR   C08236681   4.663   0.984   5.276
    1STR   H08336682   4.662   0.885   5.318
    1STR   H08436683   4.568   1.031   5.301
    1STR   H08536684   4.740   1.041   5.329
    1STR   C08636685   4.844   0.952   5.096
    1STR   H08736686   4.896   1.036   5.140
    1STR   H08836687   4.877   0.868   5.156
    1STR   O08936688   4.898   0.930   4.962
    1STR   C09036689   5.030   0.980   4.929
    1STR   H09136690   5.020   1.086   4.940
    1STR   C09236691   5.125   0.918   5.033
    1STR   H09336692   5.109   0.810   5.039
    1STR   H09436693   5.109   0.957   5.133
    1STR   H09536694   5.230   0.934   5.009
    1STR   C09636695   5.085   0.952   4.782
    1STR   H09736696   5.182   0.905   4.793
    1STR   H09836697   5.018   0.879   4.745
    1STR   O09936698   5.109   1.047   4.673
    1STR   C10036699   5.062   1.014   4.537
    1STR   H10136700   5.097   0.917   4.509
    1STR   C10236701   4.911   1.016   4.529
    1STR   H10336702   4.862   0.976   4.617
    1STR   H10436703   4.872   0.959   4.445
    1STR   H10536704   4.878   1.118   4.514
    1STR   C10636705   5.112   1.091   4.412
    1STR   H10736706   5.114   1.198   4.426
    1STR   H10836707   5.216   1.063   4.392
    1STR   O10936708   5.032   1.055   4.297
    1STR   C11036709   4.946   1.159   4.246
    1STR   H11136710   4.907   1.221   4.326
    1STR   C11236711   5.039   1.241   4.156
    1STR   H11336712   5.069   1.184   4.068
    1STR   H11436713   5.130   1.268   4.208
    1STR   H11536714   4.989   1.332   4.122
    1STR   C11636715   4.827   1.113   4.157
    1STR   H11736716   4.790   1.202   4.107
    1STR   H11836717   4.871   1.051   4.080
    1STR   O11936718   4.717   1.040   4.213
    1STR   C12036719   4.582   1.086   4.187
    1STR   H12136720   4.579   1.175   4.242
    1STR   C12236721   4.552   1.140   4.045
    1STR   H12336722   4.448   1.126   4.017
    1STR   H12436723   4.614   1.099   3.967
    1STR   H12536724   4.572   1.247   4.041
    1STR   C12636725   4.467   0.998   4.246
    1STR   H12736726   4.368   1.037   4.225
    1STR   H12836727   4.460   0.907   4.190
    1STR   O12936728   4.473   0.966   4.387
    1STR   C13036729   4.461   1.059   4.495
    1STR   H13136730   4.519   1.135   4.454
    1STR   C13236731   4.316   1.099   4.538
    1STR   H13336732   4.280   1.048   4.627
    1STR   H13436733   4.243   1.087   4.459
    1STR   H13536734   4.310   1.203   4.571
    1STR   C13636735   4.549   1.046   4.618
    1STR   H13736736   4.488   1.086   4.697
    1STR   H13836737   4.568   0.946   4.650
    1STR   O13936738   4.672   1.116   4.607
    1STR   C14036739   4.715   1.169   4.730
    1STR   H14136740   4.641   1.239   4.752
    1STR   C14236741   4.696   1.068   4.839
    1STR   H14336742   4.727   0.968   4.811
    1STR   H14436743   4.594   1.064   4.875
    1STR   H14536744   4.755   1.104   4.920
    1STR   C14636745   4.857   1.230   4.746
    1STR   H14736746   4.870   1.258   4.850
    1STR   H14836747   4.925   1.149   4.739
    1STR   O14936748   4.901   1.343   4.670
    1STR   C15036749   5.044   1.350   4.657
    1STR   H15136750   5.073   1.255   4.621
    1STR   C15236751   5.079   1.439   4.538
    1STR   H15336752   5.047   1.541   4.552
    1STR   H15436753   5.032   1.402   4.447
    1STR   H15536754   5.186   1.437   4.521
    1STR   C15636755   5.137   1.372   4.779
    1STR   H15736756   5.238   1.349   4.747
    1STR   H15836757   5.138   1.475   4.813
    1STR   O15936758   5.102   1.290   4.890
    1STR   C16036759   5.194   1.261   4.996
    1STR   H16136760   5.232   1.161   4.973
    1STR   C16236761   5.317   1.348   5.002
    1STR   H16336762   5.284   1.450   5.018
    1STR   H16436763   5.378   1.340   4.913
    1STR   H16536764   5.380   1.317   5.086
    1STR   C16636765   5.122   1.253   5.133
    1STR   H16736766   5.034   1.190   5.127
    1STR   H16836767   5.188   1.201   5.202
    1STR   O16936768   5.089   1.376   5.199
    1STR   C17036769   4.960   1.436   5.180
    1STR   H17136770   4.957   1.522   5.248
    1STR   C17236771   4.954   1.491   5.039
    1STR   H17336772   5.048   1.537   5.009
    1STR   H17436773   4.873   1.561   5.025
    1STR   H17536774   4.932   1.413   4.969
    1STR   C17636775   4.838   1.347   5.215
    1STR   H17736776   4.827   1.268   5.141
    1STR   H17836777   4.854   1.300   5.312
    1STR   O17936778   4.716   1.421   5.218
    1STR   C18036779   4.600   1.347   5.258
    1STR   H18136780   4.620   1.242   5.244
    1STR   C18236781   4.576   1.370   5.407
    1STR   H18336782   4.541   1.472   5.423
    1STR   H18436783   4.666   1.354   5.465
    1STR   H18536784   4.499   1.302   5.444
    1STR   C18636785   4.473   1.382   5.175
    1STR   H18736786   4.388   1.402   5.240
    1STR   H18836787   4.486   1.471   5.115
    1STR   O18936788   4.442   1.266   5.098
    1STR   C19036789   4.330   1.264   5.010
    1STR   H19136790   4.304   1.162   5.000
    1STR   C19236791   4.199   1.317   5.065
    1STR   H19336792   4.205   1.423   5.085
    1STR   H19436793   4.172   1.266   5.156
    1STR   H19536794   4.119   1.303   4.992
    1STR   C19636795   4.365   1.300   4.866
    1STR   H19736796   4.436   1.230   4.827
    1STR   H19836797   4.278   1.301   4.800
    1STR   O19936798   4.419   1.426   4.874
    1STR   C20036799   4.544   1.449   4.816
    1STR   H20136800   4.541   1.555   4.829
    1STR   C20236801   4.657   1.415   4.911
    1STR   H20336802   4.751   1.433   4.862
    1STR   H20436803   4.653   1.315   4.953
    1STR   H20536804   4.658   1.484   4.995
    1STR   C20636805   4.566   1.441   4.662
    1STR   H20736806   4.551   1.538   4.619
    1STR   H20836807   4.672   1.426   4.650
    1STR   O20936808   4.490   1.347   4.583
    1STR   C21036809   4.506   1.365   4.441
    1STR   H21136810   4.500   1.471   4.427
    1STR   C21236811   4.652   1.332   4.400
    1STR   H21336812   4.685   1.229   4.407
    1STR   H21436813   4.722   1.376   4.468
    1STR   H21536814   4.676   1.363   4.299
    1STR   C21636815   4.393   1.303   4.343
    1STR   H21736816   4.423   1.316   4.243
    1STR   H21836817   4.385   1.201   4.332
    1STR   O21936818   4.252   1.319   4.366
    1STR   C22036819   4.154   1.307   4.261
    1STR   H22136820   4.119   1.408   4.243
    1STR   C22236821   4.195   1.255   4.122
    1STR   H22336822   4.109   1.259   4.055
    1STR   H22436823   4.230   1.153   4.123
    1STR   H22536824   4.271   1.318   4.076
    1STR   C22636825   4.035   1.226   4.315
    1STR   H22736826   3.943   1.257   4.266
    1STR   H22836827   4.053   1.121   4.292
    1STR   O22936828   4.024   1.238   4.457
    1STR   C23036829   3.908   1.185   4.520
    1STR   H23136830   3.829   1.259   4.516
    1STR   C23236831   3.858   1.055   4.454
    1STR   H23336832   3.937   0.981   4.448
    1STR   H23436833   3.820   1.072   4.353
    1STR   H23536834   3.775   1.013   4.510
    1STR   C23636835   3.948   1.159   4.667
    1STR   H23736836   3.880   1.087   4.713
    1STR   H23836837   4.046   1.112   4.669
    1STR   O23936838   3.956   1.278   4.744
    1STR   C24036839   3.836   1.315   4.811
    1STR   H24136840   3.752   1.303   4.743
    1STR   C24236841   3.814   1.227   4.936
    1STR   H24336842   3.728   1.262   4.993
    1STR   H24436843   3.901   1.233   5.002
    1STR   H24536844   3.799   1.122   4.913
    1STR   C24636845   3.845   1.463   4.848
    1STR   H24736846   3.879   1.520   4.762
    1STR   H24836847   3.745   1.498   4.876
    1STR   O24936848   3.931   1.484   4.959
    1STR   C25036849   3.941   1.619   5.002
    1STR   H25136850   3.842   1.663   5.012
    1STR   C25236851   4.005   1.616   5.141
    1STR   H25336852   4.112   1.598   5.134
    1STR   H25436853   3.961   1.538   5.202
    1STR   H25536854   3.993   1.710   5.195
    1STR   C25636855   4.024   1.702   4.902
    1STR   H25736856   3.963   1.731   4.817
    1STR   H25836857   4.061   1.794   4.946
    1STR   O25936858   4.129   1.624   4.851
    1STR   C26036859   4.253   1.690   4.833
    1STR   H26136860   4.252   1.797   4.826
    1STR   C26236861   4.332   1.674   4.964
    1STR   H26336862   4.317   1.577   5.008
    1STR   H26436863   4.302   1.744   5.039
    1STR   H26536864   4.438   1.689   4.949
    1STR   C26636865   4.318   1.630   4.707
    1STR   H26736866   4.421   1.659   4.711
    1STR   H26836867   4.305   1.523   4.714
    1STR   O26936868   4.287   1.672   4.575
    1STR   C27036869   4.260   1.566   4.482
    1STR   H27136870   4.307   1.477   4.519
    1STR   C27236871   4.109   1.542   4.503
    1STR   H27336872   4.055   1.633   4.526
    1STR   H27436873   4.096   1.478   4.591
    1STR   H27536874   4.060   1.492   4.422
    1STR   C27636875   4.318   1.602   4.339
    1STR   H27736876   4.235   1.649   4.293
    1STR   H27836877   4.405   1.664   4.354
    1STR   O27936878   4.341   1.518   4.225
    1STR   C28036879   4.440   1.530   4.118
    1STR   H28136880   4.458   1.428   4.089
    1STR   C28236881   4.375   1.574   3.990
    1STR   H28336882   4.415   1.673   3.968
    1STR   H28436883   4.267   1.576   3.998
    1STR   H28536884   4.400   1.507   3.908
    1STR   C28636885   4.587   1.574   4.138
    1STR   H28736886   4.657   1.501   4.097
    1STR   H28836887   4.607   1.666   4.083
    1STR   O28936888   4.613   1.586   4.274
    1STR   C29036889   4.724   1.662   4.311
    1STR   H29136890   4.749   1.722   4.226
    1STR   C29236891   4.666   1.746   4.426
    1STR   H29336892   4.576   1.799   4.397
    1STR   H29436893   4.730   1.823   4.466
    1STR   H29536894   4.636   1.683   4.509
    1STR   C29636895   4.858   1.588   4.335
    1STR   H29736896   4.917   1.645   4.404
    1STR   H29836897   4.848   1.495   4.386
    1STR   O29936898   4.931   1.565   4.215
    1STR   C30036899   5.056   1.636   4.208
    1STR   H30136900   5.090   1.665   4.306
    1STR   C30236901   5.166   1.545   4.155
    1STR   H30336902   5.138   1.498   4.061
    1STR   H30436903   5.189   1.468   4.229
    1STR   H30536904   5.259   1.601   4.140
    1STR   C30636905   5.046   1.763   4.125
    1STR   H30736906   5.136   1.823   4.135
    1STR   H30836907   5.040   1.734   4.021
    1STR   O30936908   4.929   1.840   4.149
    1STR    H1R36909   4.899   1.841   4.352
    1STR    H1S36910   5.015   2.044   4.405
    1STR    H1T36911   5.078   2.040   4.237
    1STR    H1U36912   5.113   1.911   4.349
    1STR    H1V36913   4.801   2.093   4.222
    1STR    H1W36914   4.738   2.014   4.358
    1STR    H1X36915   4.528   1.777   4.196
    1STR    H1Y36916   4.272   1.810   3.994
    1STR    H1Z36917   4.042   1.765   4.061
    1STR    H2036918   3.938   1.666   4.339
    1STR    H2136919   3.890   1.829   4.390
    1STR    H2236920   3.869   1.776   4.224
    1STR    H2336921   4.027   1.834   4.507
    1STR    H2736922   4.373   1.891   4.401
    1STR    H2836923   3.754   0.703   5.084
    1STR    H2936924   3.685   0.779   4.861
    1STR    H2A36925   3.892   0.807   4.580
    1STR    H2B36926   3.722   0.801   4.628
    1STR    H2C36927   3.798   0.659   4.556
    1STR   BCK136928   4.495   0.302   6.967
    1STR    O0336929   4.607   0.321   6.925
    1STR    N0436930   4.462   0.291   7.096
    1STR    C0536931   4.545   0.313   7.207
    1STR    C0636932   4.686   0.333   7.201
    1STR    C0736933   4.759   0.377   7.314
    1STR    N0836934   4.890   0.420   7.301
    1STR    C0936935   4.957   0.509   7.374
    1STR    O0A36936   4.921   0.568   7.476
    1STR    O0B36937   5.070   0.536   7.318
    1STR    C0C36938   5.080   0.645   7.229
    1STR    C0D36939   5.222   0.700   7.260
    1STR    C0E36940   5.040   0.618   7.080
    1STR    O0F36941   4.919   0.667   7.023
    1STR    C0G36942   4.897   0.633   6.884
    1STR    C0H36943   4.829   0.497   6.873
    1STR    C0I36944   4.805   0.729   6.806
    1STR    O0J36945   4.783   0.669   6.678
    1STR    C0K36946   4.156   1.840   7.477
    1STR    C0M36947   4.096   1.757   7.595
    1STR    C0N36948   4.143   1.997   7.474
    1STR    O0O36949   4.266   2.053   7.434
    1STR    C0P36950   4.277   2.095   7.312
    1STR    O0Q36951   4.197   2.170   7.262
    1STR    N0R36952   4.382   2.040   7.254
    1STR    C0S36953   4.455   2.056   7.135
    1STR    C0T36954   4.586   2.092   7.160
    1STR    C0U36955   4.684   2.086   7.065
    1STR    C0V36956   4.656   2.058   6.936
    1STR    C0W36957   4.771   2.091   6.846
    1STR    C0X36958   4.528   2.007   6.903
    1STR    N0Y36959   4.507   1.958   6.774
    1STR   BCK236960   4.438   1.852   6.732
    1STR    O1036961   4.346   1.799   6.792
    1STR    C1336962   4.429   2.006   7.004
    1STR    C1436963   4.690   0.395   7.432
    1STR    C1536964   4.554   0.368   7.443
    1STR    C1636965   4.484   0.321   7.333
    1STR    C1736966   4.340   0.288   7.352
    1STR    H1B36967   4.366   0.270   7.117
    1STR    H1C36968   4.741   0.321   7.110
    1STR    H1D36969   4.943   0.388   7.220
    1STR    H1E36970   5.006   0.710   7.262
    1STR    H1F36971   5.262   0.768   7.187
    1STR    H1G36972   5.221   0.751   7.357
    1STR    H1H36973   5.295   0.621   7.269
    1STR    H1I36974   5.020   0.514   7.074
    1STR    H1J36975   5.121   0.646   7.015
    1STR    H1K36976   4.992   0.632   6.833
    1STR    H1M36977   4.722   0.513   6.877
    1STR    H1N36978   4.854   0.429   6.954
    1STR    H1O36979   4.844   0.450   6.777
    1STR    H1P36980   4.709   0.739   6.853
    1STR    H1Q36981   4.843   0.830   6.802
    1STR   C01036982   4.667   0.708   6.605
    1STR   H01136983   4.649   0.812   6.597
    1STR   C01236984   4.702   0.664   6.468
    1STR   H01336985   4.713   0.557   6.481
    1STR   H01436986   4.797   0.703   6.432
    1STR   H01536987   4.624   0.690   6.397
    1STR   C01636988   4.540   0.639   6.653
    1STR   H01736989   4.509   0.569   6.576
    1STR   H01836990   4.569   0.588   6.743
    1STR   O01936991   4.431   0.727   6.675
    1STR   C02036992   4.316   0.678   6.742
    1STR   H02136993   4.280   0.601   6.677
    1STR   C02236994   4.341   0.607   6.877
    1STR   H02336995   4.329   0.668   6.966
    1STR   H02436996   4.437   0.560   6.891
    1STR   H02536997   4.266   0.529   6.888
    1STR   C02636998   4.202   0.783   6.750
    1STR   H02736999   4.222   0.882   6.789
    1STR   H02837000   4.166   0.806   6.650
    1STR   O02937001   4.101   0.716   6.823
    1STR   C03037002   4.070   0.754   6.955
    1STR   H03137003   4.154   0.805   7.001
    1STR   C03237004   3.948   0.847   6.951
    1STR   H03337005   3.859   0.796   6.917
    1STR   H03437006   3.964   0.931   6.884
    1STR   H03537007   3.924   0.885   7.050
    1STR   C03637008   4.038   0.626   7.035
    1STR   H03737009   3.964   0.647   7.111
    1STR   H03837010   3.990   0.559   6.964
    1STR   O03937011   4.150   0.556   7.093
    1STR   C04037012   4.204   0.616   7.210
    1STR   H04137013   4.178   0.716   7.194
    1STR   C04237014   4.118   0.584   7.333
    1STR   H04337015   4.152   0.494   7.382
    1STR   H04437016   4.011   0.581   7.312
    1STR   H04537017   4.117   0.659   7.410
    1STR   C04637018   4.360   0.591   7.227
    1STR   H04737019   4.375   0.552   7.327
    1STR   H04837020   4.386   0.516   7.155
    1STR   O04937021   4.463   0.693   7.215
    1STR   C05037022   4.600   0.651   7.230
    1STR   H05137023   4.593   0.578   7.308
    1STR   C05237024   4.649   0.592   7.102
    1STR   H05337025   4.577   0.532   7.050
    1STR   H05437026   4.743   0.542   7.116
    1STR   H05537027   4.686   0.667   7.037
    1STR   C05637028   4.717   0.742   7.274
    1STR   H05737029   4.698   0.787   7.369
    1STR   H05837030   4.795   0.672   7.297
    1STR   O05937031   4.779   0.827   7.175
    1STR   C06037032   4.891   0.910   7.209
    1STR   H06137033   4.848   1.008   7.205
    1STR   C06237034   4.935   0.908   7.358
    1STR   H06337035   4.921   0.816   7.413
    1STR   H06437036   4.875   0.981   7.407
    1STR   H06537037   5.040   0.935   7.371
    1STR   C06637038   5.010   0.925   7.110
    1STR   H06737039   5.041   1.026   7.115
    1STR   H06837040   5.095   0.878   7.153
    1STR   O06937041   5.007   0.894   6.970
    1STR   C07037042   5.117   0.940   6.890
    1STR   H07137043   5.122   1.047   6.888
    1STR   C07237044   5.251   0.909   6.951
    1STR   H07337045   5.259   0.803   6.959
    1STR   H07437046   5.267   0.954   7.048
    1STR   H07537047   5.331   0.948   6.887
    1STR   C07637048   5.104   0.900   6.742
    1STR   H07737049   5.201   0.873   6.701
    1STR   H07837050   5.043   0.812   6.729
    1STR   O07937051   5.056   1.013   6.671
    1STR   C08037052   4.995   0.994   6.544
    1STR   H08137053   5.003   1.089   6.492
    1STR   C08237054   5.075   0.896   6.456
    1STR   H08337055   5.071   0.794   6.494
    1STR   H08437056   5.180   0.926   6.452
    1STR   H08537057   5.036   0.894   6.354
    1STR   C08637058   4.844   0.959   6.554
    1STR   H08737059   4.796   0.974   6.458
    1STR   H08837060   4.854   0.854   6.567
    1STR   O08937061   4.765   1.008   6.667
    1STR   C09037062   4.623   1.049   6.658
    1STR   H09137063   4.622   1.139   6.713
    1STR   C09237064   4.570   1.070   6.514
    1STR   H09337065   4.563   0.976   6.459
    1STR   H09437066   4.628   1.141   6.455
    1STR   H09537067   4.470   1.113   6.518
    1STR   C09637068   4.517   0.972   6.742
    1STR   H09737069   4.434   0.950   6.676
    1STR   H09837070   4.566   0.881   6.769
    1STR   O09937071   4.452   1.027   6.858
    1STR   C10037072   4.422   0.928   6.960
    1STR   H10137073   4.373   0.851   6.908
    1STR   C10237074   4.548   0.869   7.007
    1STR   H10337075   4.640   0.908   6.962
    1STR   H10437076   4.533   0.766   6.981
    1STR   H10537077   4.558   0.881   7.114
    1STR   C10637078   4.330   0.957   7.082
    1STR   H10737079   4.385   1.025   7.138
    1STR   H10837080   4.237   0.997   7.050
    1STR   O10937081   4.307   0.875   7.195
    1STR   C11037082   4.229   0.931   7.302
    1STR   H11137083   4.280   1.024   7.319
    1STR   C11237084   4.080   0.949   7.267
    1STR   H11337085   4.028   0.854   7.260
    1STR   H11437086   4.067   1.002   7.173
    1STR   H11537087   4.030   1.008   7.343
    1STR   C11637088   4.241   0.874   7.445
    1STR   H11737089   4.292   0.949   7.503
    1STR   H11837090   4.143   0.867   7.493
    1STR   O11937091   4.308   0.750   7.461
    1STR   C12037092   4.344   0.720   7.594
    1STR   H12137093   4.293   0.783   7.667
    1STR   C12237094   4.309   0.575   7.626
    1STR   H12337095   4.338   0.511   7.545
    1STR   H12437096   4.201   0.564   7.639
    1STR   H12537097   4.357   0.542   7.718
    1STR   C12637098   4.492   0.752   7.594
    1STR   H12737099   4.544   0.717   7.684
    1STR   H12837100   4.541   0.710   7.506
    1STR   O12937101   4.486   0.892   7.593
    1STR   C13037102   4.583   0.967   7.526
    1STR   H13137103   4.559   1.056   7.576
    1STR   C13237104   4.716   0.931   7.595
    1STR   H13337105   4.760   0.838   7.563
    1STR   H13437106   4.699   0.921   7.703
    1STR   H13537107   4.787   1.012   7.587
    1STR   C13637108   4.570   0.991   7.366
    1STR   H13737109   4.668   0.996   7.322
    1STR   H13837110   4.520   0.905   7.325
    1STR   O13937111   4.497   1.104   7.308
    1STR   C14037112   4.544   1.189   7.197
    1STR   H14137113   4.599   1.269   7.245
    1STR   C14237114   4.638   1.142   7.088
    1STR   H14337115   4.589   1.129   6.993
    1STR   H14437116   4.691   1.053   7.109
    1STR   H14537117   4.704   1.222   7.061
    1STR   C14637118   4.432   1.262   7.119
    1STR   H14737119   4.382   1.314   7.197
    1STR   H14837120   4.477   1.322   7.042
    1STR   O14937121   4.341   1.202   7.031
    1STR   C15037122   4.212   1.255   7.024
    1STR   H15137123   4.231   1.353   6.984
    1STR   C15237124   4.130   1.180   6.918
    1STR   H15337125   4.083   1.091   6.958
    1STR   H15437126   4.194   1.150   6.835
    1STR   H15537127   4.050   1.242   6.879
    1STR   C15637128   4.141   1.267   7.160
    1STR   H15737129   4.156   1.369   7.180
    1STR   H15837130   4.035   1.243   7.150
    1STR   O15937131   4.194   1.212   7.279
    1STR   C16037132   4.172   1.283   7.402
    1STR   H16137133   4.213   1.384   7.391
    1STR   C16237134   4.020   1.289   7.431
    1STR   H16337135   3.998   1.366   7.505
    1STR   H16437136   3.984   1.194   7.471
    1STR   H16537137   3.958   1.308   7.344
    1STR   C16637138   4.241   1.215   7.523
    1STR   H16737139   4.217   1.274   7.611
    1STR   H16837140   4.188   1.123   7.541
    1STR   O16937141   4.382   1.178   7.523
    1STR   C17037142   4.483   1.281   7.524
    1STR   H17137143   4.447   1.326   7.433
    1STR   C17237144   4.449   1.357   7.655
    1STR   H17337145   4.406   1.289   7.729
    1STR   H17437146   4.378   1.437   7.636
    1STR   H17537147   4.537   1.396   7.704
    1STR   C17637148   4.645   1.264   7.518
    1STR   H17737149   4.672   1.367   7.516
    1STR   H17837150   4.679   1.229   7.615
    1STR   O17937151   4.733   1.201   7.416
    1STR   C18037152   4.875   1.237   7.403
    1STR   H18137153   4.867   1.341   7.396
    1STR   C18237154   4.957   1.205   7.531
    1STR   H18337155   4.999   1.105   7.531
    1STR   H18437156   4.899   1.215   7.622
    1STR   H18537157   5.042   1.273   7.538
    1STR   C18637158   4.968   1.217   7.276
    1STR   H18737159   5.047   1.291   7.283
    1STR   H18837160   5.027   1.129   7.289
    1STR   O18937161   4.911   1.220   7.142
    1STR   C19037162   4.986   1.236   7.016
    1STR   H19137163   4.972   1.333   6.976
    1STR   C19237164   5.141   1.243   7.031
    1STR   H19337165   5.190   1.155   7.070
    1STR   H19437166   5.174   1.323   7.097
    1STR   H19537167   5.187   1.265   6.934
    1STR   C19637168   4.921   1.177   6.886
    1STR   H19737169   4.992   1.187   6.805
    1STR   H19837170   4.894   1.073   6.898
    1STR   O19937171   4.798   1.228   6.835
    1STR   C20037172   4.799   1.319   6.724
    1STR   H20137173   4.865   1.394   6.760
    1STR   C20237174   4.857   1.283   6.587
    1STR   H20337175   4.807   1.202   6.540
    1STR   H20437176   4.963   1.263   6.596
    1STR   H20537177   4.844   1.366   6.518
    1STR   C20637178   4.664   1.386   6.714
    1STR   H20737179   4.650   1.398   6.820
    1STR   H20837180   4.677   1.479   6.661
    1STR   O20937181   4.545   1.335   6.652
    1STR   C21037182   4.427   1.353   6.732
    1STR   H21137183   4.424   1.271   6.805
    1STR   C21237184   4.427   1.485   6.808
    1STR   H21337185   4.497   1.490   6.890
    1STR   H21437186   4.336   1.498   6.862
    1STR   H21537187   4.441   1.568   6.741
    1STR   C21637188   4.301   1.349   6.645
    1STR   H21737189   4.312   1.417   6.561
    1STR   H21837190   4.292   1.249   6.603
    1STR   O21937191   4.184   1.375   6.723
    1STR   C22037192   4.130   1.507   6.721
    1STR   H22137193   4.209   1.581   6.708
    1STR   C22237194   4.042   1.507   6.596
    1STR   H22337195   3.940   1.474   6.618
    1STR   H22437196   4.080   1.440   6.519
    1STR   H22537197   4.039   1.605   6.550
    1STR   C22637198   4.057   1.543   6.856
    1STR   H22737199   4.000   1.635   6.842
    1STR   H22837200   3.985   1.465   6.877
    1STR   O22937201   4.148   1.559   6.967
    1STR   C23037202   4.105   1.594   7.101
    1STR   H23137203   4.060   1.691   7.100
    1STR   C23237204   3.981   1.518   7.148
    1STR   H23337205   3.956   1.431   7.088
    1STR   H23437206   3.893   1.579   7.149
    1STR   H23537207   3.992   1.489   7.252
    1STR   C23637208   4.223   1.616   7.206
    1STR   H23737209   4.260   1.718   7.197
    1STR   H23837210   4.177   1.616   7.304
    1STR   O23937211   4.332   1.521   7.221
    1STR   C24037212   4.472   1.550   7.193
    1STR   H24137213   4.521   1.479   7.133
    1STR   C24237214   4.473   1.656   7.084
    1STR   H24337215   4.452   1.760   7.105
    1STR   H24437216   4.396   1.636   7.011
    1STR   H24537217   4.565   1.651   7.031
    1STR   C24637218   4.575   1.525   7.314
    1STR   H24737219   4.593   1.620   7.333
    1STR   H24837220   4.526   1.492   7.402
    1STR   O24937221   4.716   1.491   7.329
    1STR   C25037222   4.811   1.566   7.415
    1STR   H25137223   4.777   1.666   7.427
    1STR   C25237224   4.847   1.527   7.562
    1STR   H25337225   4.854   1.423   7.586
    1STR   H25437226   4.784   1.569   7.638
    1STR   H25537227   4.946   1.563   7.590
    1STR   C25637228   4.948   1.578   7.346
    1STR   H25737229   5.000   1.657   7.398
    1STR   H25837230   5.012   1.492   7.363
    1STR   O25937231   4.951   1.622   7.212
    1STR   C26037232   4.952   1.522   7.113
    1STR   H26137233   5.006   1.441   7.157
    1STR   C26237234   4.809   1.480   7.075
    1STR   H26337235   4.740   1.562   7.077
    1STR   H26437236   4.771   1.403   7.140
    1STR   H26537237   4.798   1.433   6.979
    1STR   C26637238   5.040   1.565   6.993
    1STR   H26737239   5.076   1.665   7.011
    1STR   H26837240   5.129   1.504   6.984
    1STR   O26937241   4.968   1.551   6.872
    1STR   C27037242   5.029   1.610   6.761
    1STR   H27137243   5.129   1.571   6.761
    1STR   C27237244   4.981   1.573   6.620
    1STR   H27337245   4.873   1.576   6.610
    1STR   H27437246   5.020   1.476   6.592
    1STR   H27537247   5.021   1.642   6.545
    1STR   C27637248   5.017   1.758   6.778
    1STR   H27737249   5.059   1.803   6.867
    1STR   H27837250   5.072   1.795   6.694
    1STR   O27937251   4.888   1.805   6.758
    1STR   C28037252   4.784   1.785   6.852
    1STR   H28137253   4.714   1.858   6.823
    1STR   C28237254   4.701   1.672   6.810
    1STR   H28337255   4.740   1.581   6.849
    1STR   H28437256   4.700   1.672   6.702
    1STR   H28537257   4.598   1.685   6.840
    1STR   C28637258   4.809   1.810   7.001
    1STR   H28737259   4.869   1.731   7.035
    1STR   H28837260   4.872   1.898   7.011
    1STR   O28937261   4.693   1.826   7.083
    1STR   C29037262   4.708   1.809   7.224
    1STR   H29137263   4.734   1.706   7.225
    1STR   C29237264   4.825   1.884   7.277
    1STR   H29337265   4.813   1.992   7.276
    1STR   H29437266   4.907   1.854   7.220
    1STR   H29537267   4.852   1.849   7.374
    1STR   C29637268   4.587   1.838   7.320
    1STR   H29737269   4.582   1.940   7.332
    1STR   H29837270   4.489   1.809   7.286
    1STR   O29937271   4.602   1.795   7.454
    1STR   C30037272   4.492   1.728   7.514
    1STR   H30137273   4.438   1.654   7.457
    1STR   C30237274   4.547   1.658   7.635
    1STR   H30337275   4.630   1.716   7.673
    1STR   H30437276   4.587   1.565   7.599
    1STR   H30537277   4.476   1.636   7.714
    1STR   C30637278   4.378   1.814   7.540
    1STR   H30737279   4.341   1.779   7.634
    1STR   H30837280   4.410   1.917   7.542
    1STR   O30937281   4.283   1.795   7.441
    1STR    H1R37282   4.108   1.803   7.389
    1STR    H1S37283   4.139   1.774   7.692
    1STR    H1T37284   4.108   1.651   7.573
    1STR    H1U37285   3.990   1.773   7.612
    1STR    H1V37286   4.107   2.042   7.566
    1STR    H1W37287   4.069   2.032   7.405
    1STR    H1X37288   4.427   1.988   7.328
    1STR    H1Y37289   4.629   2.114   7.255
    1STR    H1Z37290   4.784   2.096   7.095
    1STR    H2037291   4.851   2.020   6.835
    1STR    H2137292   4.734   2.122   6.753
    1STR    H2237293   4.824   2.179   6.879
    1STR    H2337294   4.563   2.006   6.703
    1STR    H2737295   4.339   1.960   6.973
    1STR    H2837296   4.740   0.437   7.515
    1STR    H2937297   4.503   0.387   7.535
    1STR    H2A37298   4.304   0.313   7.451
    1STR    H2B37299   4.323   0.183   7.333
    1STR    H2C37300   4.285   0.349   7.282
    1STR   BCK137301   5.269   2.665   8.771
    1STR    O0337302   5.348   2.589   8.822
    1STR    N0437303   5.316   2.731   8.665
    1STR    C0537304   5.268   2.819   8.570
    1STR    C0637305   5.149   2.891   8.583
    1STR    C0737306   5.113   2.986   8.486
    1STR    N0837307   4.987   3.042   8.490
    1STR    C0937308   4.884   2.964   8.462
    1STR    O0A37309   4.896   2.845   8.435
    1STR    O0B37310   4.769   3.021   8.477
    1STR    C0C37311   4.719   3.037   8.608
    1STR    C0D37312   4.570   3.050   8.588
    1STR    C0E37313   4.763   2.928   8.706
    1STR    O0F37314   4.685   2.941   8.823
    1STR    C0G37315   4.724   2.869   8.938
    1STR    C0H37316   4.870   2.897   8.973
    1STR    C0I37317   4.627   2.922   9.045
    1STR    O0J37318   4.622   2.857   9.171
    1STR    C0K37319   4.841   4.125   9.032
    1STR    C0M37320   4.752   4.147   9.151
    1STR    C0N37321   4.981   4.119   9.084
    1STR    O0O37322   5.012   4.185   9.205
    1STR    C0P37323   5.124   4.248   9.215
    1STR    O0Q37324   5.201   4.237   9.309
    1STR    N0R37325   5.144   4.338   9.123
    1STR    C0S37326   5.057   4.414   9.049
    1STR    C0T37327   5.106   4.496   8.947
    1STR    C0U37328   5.017   4.577   8.877
    1STR    C0V37329   4.881   4.548   8.884
    1STR    C0W37330   4.787   4.626   8.802
    1STR    C0X37331   4.832   4.463   8.983
    1STR    N0Y37332   4.702   4.423   9.000
    1STR   BCK237333   4.635   4.333   8.930
    1STR    O1037334   4.553   4.262   8.987
    1STR    C1337335   4.921   4.415   9.076
    1STR    C1437336   5.193   3.006   8.373
    1STR    C1537337   5.311   2.931   8.357
    1STR    C1637338   5.348   2.837   8.455
    1STR    C1737339   5.470   2.750   8.433
    1STR    H1B37340   5.412   2.703   8.654
    1STR    H1C37341   5.082   2.874   8.666
    1STR    H1D37342   4.968   3.137   8.523
    1STR    H1E37343   4.757   3.129   8.649
    1STR    H1F37344   4.535   2.972   8.522
    1STR    H1G37345   4.516   3.044   8.683
    1STR    H1H37346   4.545   3.145   8.541
    1STR    H1I37347   4.868   2.947   8.724
    1STR    H1J37348   4.757   2.827   8.666
    1STR    H1K37349   4.708   2.763   8.920
    1STR    H1M37350   4.886   3.001   9.003
    1STR    H1N37351   4.941   2.873   8.895
    1STR    H1O37352   4.900   2.833   9.053
    1STR    H1P37353   4.649   3.025   9.062
    1STR    H1Q37354   4.526   2.918   9.004
    1STR   C01037355   4.729   2.882   9.260
    1STR   H01137356   4.809   2.936   9.211
    1STR   C01237357   4.692   2.958   0.065
    1STR   H01337358   4.641   2.894   0.134
    1STR   H01437359   4.630   3.045   0.051
    1STR   H01537360   4.781   2.985   0.117
    1STR   C01637361   4.780   2.747   9.303
    1STR   H01737362   4.767   2.719   0.088
    1STR   H01837363   4.721   2.677   9.246
    1STR   O01937364   4.911   2.738   9.260
    1STR   C02037365   5.009   2.794   0.019
    1STR   H02137366   4.970   2.853   0.101
    1STR   C02237367   5.073   2.668   0.073
    1STR   H02337368   5.141   2.622   0.003
    1STR   H02437369   4.998   2.592   0.091
    1STR   H02537370   5.127   2.686   0.165
    1STR   C02637371   5.094   2.878   9.243
    1STR   H02737372   5.092   2.837   9.142
    1STR   H02837373   5.053   2.978   9.230
    1STR   O02937374   5.227   2.873   9.286
    1STR   C03037375   5.302   2.990   9.298
    1STR   H03137376   5.233   3.038   0.041
    1STR   C03237377   5.423   2.971   0.069
    1STR   H03337378   5.493   2.897   0.032
    1STR   H03437379   5.389   2.940   0.168
    1STR   H03537380   5.478   3.063   0.084
    1STR   C03637381   5.340   3.058   9.164
    1STR   H03737382   5.361   3.164   9.181
    1STR   H03837383   5.433   3.014   9.131
    1STR   O03937384   5.246   3.047   9.057
    1STR   C04037385   5.274   3.132   8.944
    1STR   H04137386   5.262   3.236   8.973
    1STR   C04237387   5.418   3.114   8.896
    1STR   H04337388   5.436   3.009   8.878
    1STR   H04437389   5.491   3.153   8.966
    1STR   H04537390   5.434   3.167   8.802
    1STR   C04637391   5.184   3.096   8.824
    1STR   H04737392   5.213   3.150   8.734
    1STR   H04837393   5.206   2.991   8.806
    1STR   O04937394   5.043   3.101   8.838
    1STR   C05037395   4.974   3.225   8.847
    1STR   H05137396   4.870   3.193   8.846
    1STR   C05237397   4.995   3.290   8.983
    1STR   H05337398   4.987   3.212   9.058
    1STR   H05437399   4.917   3.363   9.003
    1STR   H05537400   5.088   3.343   8.994
    1STR   C05637401   4.992   3.326   8.732
    1STR   H05737402   4.948   3.419   8.767
    1STR   H05837403   5.098   3.348   8.715
    1STR   O05937404   4.930   3.284   8.610
    1STR   C06037405   4.848   3.384   8.549
    1STR   H06137406   4.900   3.479   8.553
    1STR   C06237407   4.833   3.345   8.402
    1STR   H06337408   4.780   3.250   8.391
    1STR   H06437409   4.931   3.333   8.355
    1STR   H06537410   4.778   3.420   8.346
    1STR   C06637411   4.708   3.401   8.617
    1STR   H06737412   4.686   3.507   8.631
    1STR   H06837413   4.631   3.360   8.552
    1STR   O06937414   4.702   3.333   8.741
    1STR   C07037415   4.590   3.354   8.827
    1STR   H07137416   4.604   3.450   8.875
    1STR   C07237417   4.454   3.350   8.754
    1STR   H07337418   4.434   3.252   8.711
    1STR   H07437419   4.446   3.424   8.675
    1STR   H07537420   4.372   3.368   8.823
    1STR   C07637421   4.597   3.240   8.930
    1STR   H07737422   4.500   3.215   8.972
    1STR   H07837423   4.619   3.152   8.872
    1STR   O07937424   4.702   3.250   9.027
    1STR   C08037425   4.675   3.291   9.161
    1STR   H08137426   4.681   3.399   9.168
    1STR   C08237427   4.542   3.236   9.219
    1STR   H08337428   4.538   3.129   9.208
    1STR   H08437429   4.452   3.272   9.172
    1STR   H08537430   4.529   3.260   0.005
    1STR   C08637431   4.784   3.237   9.254
    1STR   H08737432   4.741   3.235   0.033
    1STR   H08837433   4.812   3.138   9.223
    1STR   O08937434   4.901   3.314   9.263
    1STR   C09037435   4.989   3.282   0.051
    1STR   H09137436   4.997   3.368   0.116
    1STR   C09237437   4.953   3.165   0.143
    1STR   H09337438   4.960   3.073   0.086
    1STR   H09437439   4.857   3.174   0.193
    1STR   H09537440   5.025   3.154   0.224
    1STR   C09637441   5.126   3.256   9.313
    1STR   H09737442   5.165   3.203   0.075
    1STR   H09837443   5.122   3.192   9.225
    1STR   O09937444   5.221   3.360   9.298
    1STR   C10037445   5.333   3.347   0.066
    1STR   H10137446   5.383   3.251   0.058
    1STR   C10237447   5.427   3.452   0.015
    1STR   H10337448   5.379   3.549   0.026
    1STR   H10437449   5.448   3.434   9.230
    1STR   H10537450   5.521   3.452   0.070
    1STR   C10637451   5.291   3.372   0.211
    1STR   H10737452   5.369   3.426   0.264
    1STR   H10837453   5.205   3.436   0.198
    1STR   O10937454   5.251   3.255   0.282
    1STR   C11037455   5.196   3.269   0.414
    1STR   H11137456   5.181   3.167   0.448
    1STR   C11237457   5.300   3.334   0.506
    1STR   H11337458   5.316   3.439   0.483
    1STR   H11437459   5.396   3.283   0.497
    1STR   H11537460   5.268   3.327   0.610
    1STR   C11637461   5.057   3.340   0.420
    1STR   H11737462   5.062   3.427   0.486
    1STR   H11837463   5.032   3.376   0.322
    1STR   O11937464   4.948   3.256   0.459
    1STR   C12037465   4.827   3.329   0.489
    1STR   H12137466   4.849   3.395   0.572
    1STR   C12237467   4.775   3.410   0.370
    1STR   H12337468   4.770   3.353   0.278
    1STR   H12437469   4.835   3.499   0.354
    1STR   H12537470   4.674   3.447   0.390
    1STR   C12637471   4.718   3.233   0.533
    1STR   H12737472   4.693   3.172   0.446
    1STR   H12837473   4.760   3.168   0.610
    1STR   O12937474   4.597   3.296   0.576
    1STR   C13037475   4.521   3.225   0.675
    1STR   H13137476   4.524   3.119   0.655
    1STR   C13237477   4.587   3.257   0.809
    1STR   H13337478   4.688   3.216   0.816
    1STR   H13437479   4.530   3.217   0.893
    1STR   H13537480   4.595   3.365   0.823
    1STR   C13637481   4.369   3.261   0.678
    1STR   H13737482   4.320   3.204   0.756
    1STR   H13837483   4.363   3.362   0.714
    1STR   O13937484   4.304   3.237   0.552
    1STR   C14037485   4.170   3.283   0.522
    1STR   H14137486   4.167   3.273   0.414
    1STR   C14237487   4.057   3.193   0.572
    1STR   H14337488   4.052   3.196   0.680
    1STR   H14437489   4.068   3.091   0.536
    1STR   H14537490   3.960   3.227   0.535
    1STR   C14637491   4.132   3.431   0.547
    1STR   H14737492   4.094   3.480   0.457
    1STR   H14837493   4.048   3.435   0.617
    1STR   O14937494   4.233   3.504   0.608
    1STR   C15037495   4.336   3.560   0.529
    1STR   H15137496   4.294   3.653   0.496
    1STR   C15237497   4.442   3.591   0.633
    1STR   H15337498   4.523   3.519   0.630
    1STR   H15437499   4.403   3.594   0.734
    1STR   H15537500   4.484   3.689   0.615
    1STR   C15637501   4.387   3.484   0.402
    1STR   H15737502   4.470   3.535   0.354
    1STR   H15837503   4.422   3.383   0.421
    1STR   O15937504   4.279   3.488   0.312
    1STR   C16037505   4.284   3.432   0.183
    1STR   H16137506   4.332   3.336   0.194
    1STR   C16237507   4.131   3.428   0.161
    1STR   H16337508   4.085   3.514   0.205
    1STR   H16437509   4.088   3.342   0.210
    1STR   H16537510   4.101   3.432   0.057
    1STR   C16637511   4.356   3.502   0.067
    1STR   H16737512   4.337   3.609   0.069
    1STR   H16837513   4.464   3.490   0.075
    1STR   O16937514   4.308   3.444   9.265
    1STR   C17037515   4.314   3.529   9.151
    1STR   H17137516   4.312   3.634   9.182
    1STR   C17237517   4.439   3.507   9.075
    1STR   H17337518   4.438   3.410   9.029
    1STR   H17437519   4.520   3.514   9.145
    1STR   H17537520   4.452   3.579   8.995
    1STR   C17637521   4.201   3.497   9.054
    1STR   H17737522   4.214   3.551   8.960
    1STR   H17837523   4.204   3.393   9.027
    1STR   O17937524   4.080   3.531   9.117
    1STR   C18037525   4.062   3.671   9.112
    1STR   H18137526   4.151   3.728   9.086
    1STR   C18237527   3.963   3.691   8.998
    1STR   H18337528   3.868   3.642   9.018
    1STR   H18437529   4.002   3.647   8.905
    1STR   H18537530   3.947   3.796   8.976
    1STR   C18637531   4.020   3.719   9.252
    1STR   H18737532   3.997   3.824   9.246
    1STR   H18837533   3.929   3.667   9.280
    1STR   O18937534   4.121   3.696   0.033
    1STR   C19037535   4.108   3.776   0.152
    1STR   H19137536   4.128   3.876   0.119
    1STR   C19237537   3.964   3.759   0.207
    1STR   H19337538   3.937   3.656   0.226
    1STR   H19437539   3.890   3.796   0.137
    1STR   H19537540   3.952   3.813   0.300
    1STR   C19637541   4.204   3.764   0.273
    1STR   H19737542   4.189   3.853   0.331
    1STR   H19837543   4.164   3.686   0.335
    1STR   O19937544   4.345   3.737   0.256
    1STR   C20037545   4.445   3.825   0.308
    1STR   H20137546   4.453   3.898   0.229
    1STR   C20237547   4.415   3.900   0.437
    1STR   H20337548   4.337   3.971   0.416
    1STR   H20437549   4.501   3.955   0.473
    1STR   H20537550   4.380   3.838   0.518
    1STR   C20637551   4.586   3.763   0.313
    1STR   H20737552   4.586   3.697   0.227
    1STR   H20837553   4.655   3.843   0.292
    1STR   O20937554   4.630   3.688   0.430
    1STR   C21037555   4.726   3.751   0.517
    1STR   H21137556   4.686   3.849   0.541
    1STR   C21237557   4.747   3.678   0.650
    1STR   H21337558   4.751   3.571   0.635
    1STR   H21437559   4.668   3.699   0.722
    1STR   H21537560   4.840   3.709   0.698
    1STR   C21637561   4.862   3.772   0.451
    1STR   H21737562   4.851   3.781   0.343
    1STR   H21837563   4.899   3.865   0.495
    1STR   O21937564   4.969   3.683   0.474
    1STR   C22037565   5.084   3.737   0.409
    1STR   H22137566   5.065   3.833   0.363
    1STR   C22237567   5.195   3.755   0.512
    1STR   H22337568   5.218   3.660   0.562
    1STR   H22437569   5.164   3.826   0.589
    1STR   H22537570   5.286   3.793   0.466
    1STR   C22637571   5.124   3.647   0.293
    1STR   H22737572   5.192   3.695   0.223
    1STR   H22837573   5.182   3.571   0.343
    1STR   O22937574   5.013   3.584   0.231
    1STR   C23037575   4.962   3.637   0.109
    1STR   H23137576   4.956   3.745   0.118
    1STR   C23237577   5.051   3.601   9.312
    1STR   H23337578   5.043   3.500   9.279
    1STR   H23437579   5.156   3.624   0.009
    1STR   H23537580   5.014   3.648   9.223
    1STR   C23637581   4.822   3.582   0.083
    1STR   H23737582   4.817   3.475   0.091
    1STR   H23837583   4.756   3.614   0.161
    1STR   O23937584   4.779   3.616   9.271
    1STR   C24037585   4.675   3.710   9.266
    1STR   H24137586   4.588   3.669   9.318
    1STR   C24237587   4.718   3.841   0.009
    1STR   H24337588   4.796   3.890   9.273
    1STR   H24437589   4.753   3.831   0.110
    1STR   H24537590   4.633   3.907   0.012
    1STR   C24637591   4.640   3.737   9.121
    1STR   H24737592   4.706   3.811   9.080
    1STR   H24837593   4.658   3.649   9.059
    1STR   O24937594   4.502   3.773   9.121
    1STR   C25037595   4.471   3.903   9.076
    1STR   H25137596   4.560   3.960   9.064
    1STR   C25237597   4.410   3.891   8.936
    1STR   H25337598   4.324   3.825   8.935
    1STR   H25437599   4.484   3.853   8.865
    1STR   H25537600   4.378   3.989   8.901
    1STR   C25637601   4.376   3.972   9.176
    1STR   H25737602   4.354   4.071   9.136
    1STR   H25837603   4.284   3.914   9.176
    1STR   O25937604   4.419   3.980   9.312
    1STR   C26037605   4.418   4.110   0.053
    1STR   H26137606   4.383   4.186   9.304
    1STR   C26237607   4.333   4.118   0.178
    1STR   H26337608   4.263   4.036   0.186
    1STR   H26437609   4.280   4.213   0.185
    1STR   H26537610   4.395   4.114   0.267
    1STR   C26637611   4.557   4.150   0.097
    1STR   H26737612   4.615   4.153   0.011
    1STR   H26837613   4.552   4.253   0.132
    1STR   O26937614   4.625   4.063   0.187
    1STR   C27037615   4.730   4.132   0.251
    1STR   H27137616   4.777   4.203   0.187
    1STR   C27237617   4.661   4.199   0.372
    1STR   H27337618   4.580   4.139   0.411
    1STR   H27437619   4.617   4.295   0.344
    1STR   H27537620   4.727   4.218   0.456
    1STR   C27637621   4.849   4.048   0.294
    1STR   H27737622   4.915   4.116   0.345
    1STR   H27837623   4.802   3.990   0.372
    1STR   O27937624   4.922   3.963   0.201
    1STR   C28037625   5.044   4.015   0.144
    1STR   H28137626   5.012   4.110   0.103
    1STR   C28237627   5.148   4.045   0.255
    1STR   H28337628   5.108   4.058   0.355
    1STR   H28437629   5.200   4.137   0.230
    1STR   H28537630   5.223   3.967   0.264
    1STR   C28637631   5.122   3.932   0.033
    1STR   H28737632   5.199   3.996   9.310
    1STR   H28837633   5.178   3.852   0.080
    1STR   O28937634   5.055   3.868   9.244
    1STR   C29037635   5.127   3.850   9.119
    1STR   H29137636   5.173   3.945   9.095
    1STR   C29237637   5.243   3.753   9.120
    1STR   H29337638   5.214   3.648   9.117
    1STR   H29437639   5.306   3.770   9.206
    1STR   H29537640   5.300   3.770   9.029
    1STR   C29637641   5.028   3.814   9.003
    1STR   H29737642   5.044   3.714   8.963
    1STR   H29837643   4.927   3.812   9.044
    1STR   O29937644   5.046   3.912   8.900
    1STR   C30037645   4.943   3.940   8.805
    1STR   H30137646   4.973   4.037   8.765
    1STR   C30237647   4.944   3.838   8.691
    1STR   H30337648   4.926   3.737   8.728
    1STR   H30437649   5.040   3.839   8.639
    1STR   H30537650   4.866   3.861   8.618
    1STR   C30637651   4.800   3.961   8.857
    1STR   H30737652   4.745   4.033   8.797
    1STR   H30837653   4.744   3.868   8.851
    1STR   O30937654   4.797   3.997   8.993
    1STR    H1R37655   4.835   4.197   8.952
    1STR    H1S37656   4.730   4.249   9.170
    1STR    H1T37657   4.792   4.103   9.242
    1STR    H1U37658   4.654   4.108   9.136
    1STR    H1V37659   5.058   4.124   9.008
    1STR    H1W37660   4.973   4.023   9.124
    1STR    H1X37661   5.244   4.353   9.103
    1STR    H1Y37662   5.209   4.499   8.921
    1STR    H1Z37663   5.056   4.652   8.810
    1STR    H2037664   4.706   4.571   8.757
    1STR    H2137665   4.747   4.686   8.879
    1STR    H2237666   4.833   4.695   8.734
    1STR    H2337667   4.665   4.432   9.094
    1STR    H2737668   4.884   4.367   9.162
    1STR    H2837669   5.160   3.073   8.295
    1STR    H2937670   5.370   2.943   8.268
    1STR    H2A37671   5.550   2.779   8.501
    1STR    H2B37672   5.506   2.758   8.331
    1STR    H2C37673   5.446   2.645   8.451
    1STR   BCK137674   4.496   2.754   2.338
    1STR    O0337675   4.599   2.809   2.363
    1STR    N0437676   4.406   2.719   2.432
    1STR    C0537677   4.424   2.736   2.571
    1STR    C0637678   4.552   2.748   2.628
    1STR    C0737679   4.572   2.798   2.757
    1STR    N0837680   4.703   2.832   2.790
    1STR    C0937681   4.769   2.876   2.897
    1STR    O0A37682   4.713   2.908   3.000
    1STR    O0B37683   4.903   2.850   2.890
    1STR    C0C37684   5.005   2.923   2.822
    1STR    C0D37685   5.138   2.859   2.862
    1STR    C0E37686   4.988   2.917   2.671
    1STR    O0F37687   4.858   2.960   2.647
    1STR    C0G37688   4.807   2.967   2.518
    1STR    C0H37689   4.670   3.028   2.537
    1STR    C0I37690   4.878   3.075   2.445
    1STR    O0J37691   4.996   3.030   2.386
    1STR    C0K37692   4.034   3.907   1.738
    1STR    C0M37693   3.990   3.893   1.593
    1STR    C0N37694   3.973   3.798   1.826
    1STR    O0O37695   3.990   3.837   1.961
    1STR    C0P37696   3.898   3.806   2.049
    1STR    O0Q37697   3.808   3.723   2.030
    1STR    N0R37698   3.902   3.875   2.161
    1STR    C0S37699   3.980   3.983   2.206
    1STR    C0T37700   3.967   4.018   2.341
    1STR    C0U37701   4.032   4.128   2.396
    1STR    C0V37702   4.118   4.206   2.318
    1STR    C0W37703   4.175   4.334   2.374
    1STR    C0X37704   4.123   4.180   2.180
    1STR    N0Y37705   4.183   4.281   2.107
    1STR   BCK237706   4.206   4.292   1.978
    1STR    O1037707   4.166   4.215   1.893
    1STR    C1337708   4.057   4.068   2.125
    1STR    C1437709   4.461   2.815   2.840
    1STR    C1537710   4.333   2.786   2.791
    1STR    C1637711   4.315   2.742   2.659
    1STR    C1737712   4.176   2.706   2.617
    1STR    H1B37713   4.315   2.688   2.401
    1STR    H1C37714   4.640   2.732   2.569
    1STR    H1D37715   4.766   2.843   2.710
    1STR    H1E37716   5.006   3.025   2.858
    1STR    H1F37717   5.136   2.751   2.849
    1STR    H1G37718   5.221   2.899   2.803
    1STR    H1H37719   5.159   2.879   2.966
    1STR    H1I37720   4.997   2.816   2.638
    1STR    H1J37721   5.062   2.978   2.620
    1STR    H1K37722   4.808   2.872   2.466
    1STR    H1M37723   4.680   3.124   2.586
    1STR    H1N37724   4.599   2.979   2.600
    1STR    H1O37725   4.624   3.041   2.440
    1STR    H1P37726   4.809   3.118   2.373
    1STR    H1Q37727   4.901   3.154   2.513
    1STR   C01037728   5.025   3.117   2.280
    1STR   H01137729   5.000   3.213   2.310
    1STR   C01237730   5.176   3.110   2.259
    1STR   H01337731   5.208   3.009   2.246
    1STR   H01437732   5.230   3.139   2.349
    1STR   H01537733   5.211   3.167   2.173
    1STR   C01637734   4.931   3.088   2.165
    1STR   H01737735   4.984   3.088   2.074
    1STR   H01837736   4.892   2.991   2.191
    1STR   O01937737   4.819   3.168   2.133
    1STR   C02037738   4.718   3.098   2.063
    1STR   H02137739   4.759   3.022   1.998
    1STR   C02237740   4.626   3.032   2.163
    1STR   H02337741   4.565   3.102   2.218
    1STR   H02437742   4.686   2.975   2.233
    1STR   H02537743   4.559   2.963   2.113
    1STR   C02637744   4.643   3.188   1.968
    1STR   H02737745   4.614   3.281   2.015
    1STR   H02837746   4.711   3.215   1.888
    1STR   O02937747   4.536   3.110   1.916
    1STR   C03037748   4.408   3.145   1.966
    1STR   H03137749   4.414   3.190   2.065
    1STR   C03237750   4.363   3.242   1.859
    1STR   H03337751   4.374   3.192   1.764
    1STR   H03437752   4.429   3.327   1.854
    1STR   H03537753   4.260   3.275   1.866
    1STR   C03637754   4.319   3.020   1.973
    1STR   H03737755   4.245   3.019   1.893
    1STR   H03837756   4.386   2.936   1.953
    1STR   O03937757   4.257   2.985   2.096
    1STR   C04037758   4.173   3.077   2.163
    1STR   H04137759   4.244   3.151   2.195
    1STR   C04237760   4.064   3.129   2.066
    1STR   H04337761   3.997   3.054   2.029
    1STR   H04437762   4.104   3.174   1.976
    1STR   H04537763   4.002   3.205   2.112
    1STR   C04637764   4.118   3.009   2.292
    1STR   H04737765   4.011   2.995   2.278
    1STR   H04837766   4.161   2.910   2.301
    1STR   O04937767   4.134   3.070   2.421
    1STR   C05037768   4.249   3.029   2.496
    1STR   H05137769   4.261   2.922   2.491
    1STR   C05237770   4.363   3.096   2.428
    1STR   H05337771   4.396   3.044   2.339
    1STR   H05437772   4.443   3.107   2.498
    1STR   H05537773   4.330   3.196   2.406
    1STR   C05637774   4.248   3.072   2.645
    1STR   H05737775   4.234   3.178   2.642
    1STR   H05837776   4.163   3.028   2.696
    1STR   O05937777   4.371   3.051   2.716
    1STR   C06037778   4.386   3.122   2.840
    1STR   H06137779   4.349   3.219   2.817
    1STR   C06237780   4.287   3.078   2.950
    1STR   H06337781   4.311   2.981   2.993
    1STR   H06437782   4.184   3.074   2.914
    1STR   H06537783   4.289   3.149   3.033
    1STR   C06637784   4.530   3.138   2.899
    1STR   H06737785   4.527   3.219   2.971
    1STR   H06837786   4.548   3.053   2.962
    1STR   O06937787   4.645   3.154   2.813
    1STR   C07037788   4.761   3.226   2.864
    1STR   H07137789   4.724   3.324   2.873
    1STR   C07237790   4.812   3.189   3.005
    1STR   H07337791   4.881   3.265   3.041
    1STR   H07437792   4.867   3.096   3.007
    1STR   H07537793   4.732   3.181   3.078
    1STR   C07637794   4.878   3.244   2.763
    1STR   H07737795   4.915   3.153   2.726
    1STR   H07837796   4.842   3.294   2.675
    1STR   O07937797   4.993   3.306   2.817
    1STR   C08037798   5.080   3.380   2.730
    1STR   H08137799   5.051   3.485   2.737
    1STR   C08237800   5.217   3.376   2.798
    1STR   H08337801   5.254   3.273   2.804
    1STR   H08437802   5.211   3.416   2.900
    1STR   H08537803   5.291   3.435   2.744
    1STR   C08637804   5.097   3.342   2.580
    1STR   H08737805   5.176   3.409   2.547
    1STR   H08837806   5.133   3.240   2.569
    1STR   O08937807   4.984   3.359   2.491
    1STR   C09037808   5.002   3.433   2.368
    1STR   H09137809   5.003   3.536   2.390
    1STR   C09237810   5.139   3.408   2.301
    1STR   H09337811   5.125   3.366   2.202
    1STR   H09437812   5.206   3.342   2.354
    1STR   H09537813   5.199   3.497   2.291
    1STR   C09637814   4.883   3.431   2.266
    1STR   H09737815   4.898   3.525   2.217
    1STR   H09837816   4.896   3.364   2.183
    1STR   O09937817   4.748   3.457   2.302
    1STR   C10037818   4.649   3.357   2.316
    1STR   H10137819   4.682   3.265   2.273
    1STR   C10237820   4.645   3.342   2.465
    1STR   H10337821   4.567   3.275   2.495
    1STR   H10437822   4.625   3.436   2.515
    1STR   H10537823   4.741   3.309   2.499
    1STR   C10637824   4.503   3.387   2.270
    1STR   H10737825   4.450   3.296   2.289
    1STR   H10837826   4.460   3.463   2.335
    1STR   O10937827   4.469   3.410   2.132
    1STR   C11037828   4.346   3.481   2.112
    1STR   H11137829   4.348   3.563   2.180
    1STR   C11237830   4.338   3.538   1.970
    1STR   H11337831   4.262   3.491   1.908
    1STR   H11437832   4.434   3.531   1.919
    1STR   H11537833   4.313   3.643   1.976
    1STR   C11637834   4.219   3.404   2.142
    1STR   H11737835   4.131   3.464   2.118
    1STR   H11837836   4.219   3.323   2.073
    1STR   O11937837   4.218   3.354   2.275
    1STR   C12037838   4.115   3.401   2.356
    1STR   H12137839   4.104   3.503   2.326
    1STR   C12237840   3.979   3.336   2.330
    1STR   H12337841   3.982   3.228   2.334
    1STR   H12437842   3.937   3.366   2.234
    1STR   H12537843   3.909   3.366   2.408
    1STR   C12637844   4.150   3.392   2.506
    1STR   H12737845   4.097   3.472   2.555
    1STR   H12837846   4.104   3.301   2.543
    1STR   O12937847   4.288   3.395   2.547
    1STR   C13037848   4.310   3.447   2.679
    1STR   H13137849   4.309   3.554   2.661
    1STR   C13237850   4.195   3.414   2.779
    1STR   H13337851   4.153   3.314   2.770
    1STR   H13437852   4.112   3.483   2.767
    1STR   H13537853   4.228   3.421   2.883
    1STR   C13637854   4.451   3.417   2.741
    1STR   H13737855   4.439   3.399   2.847
    1STR   H13837856   4.498   3.329   2.696
    1STR   O13937857   4.540   3.526   2.737
    1STR   C14037858   4.641   3.552   2.837
    1STR   H14137859   4.632   3.656   2.861
    1STR   C14237860   4.617   3.514   2.984
    1STR   H14337861   4.595   3.410   3.004
    1STR   H14437862   4.530   3.569   3.022
    1STR   H14537863   4.703   3.541   3.045
    1STR   C14637864   4.783   3.546   2.771
    1STR   H14737865   4.854   3.503   2.841
    1STR   H14837866   4.769   3.478   2.687
    1STR   O14937867   4.845   3.666   2.718
    1STR   C15037868   4.911   3.654   2.590
    1STR   H15137869   4.933   3.550   2.582
    1STR   C15237870   4.817   3.688   2.478
    1STR   H15337871   4.757   3.775   2.499
    1STR   H15437872   4.749   3.607   2.467
    1STR   H15537873   4.865   3.703   2.381
    1STR   C15637874   5.046   3.728   2.572
    1STR   H15737875   5.023   3.833   2.560
    1STR   H15837876   5.094   3.714   2.669
    1STR   O15937877   5.139   3.680   2.469
    1STR   C16037878   5.204   3.770   2.375
    1STR   H16137879   5.159   3.869   2.387
    1STR   C16237880   5.357   3.776   2.402
    1STR   H16337881   5.410   3.691   2.360
    1STR   H16437882   5.386   3.774   2.506
    1STR   H16537883   5.399   3.867   2.359
    1STR   C16637884   5.197   3.735   2.223
    1STR   H16737885   5.206   3.828   2.168
    1STR   H16837886   5.283   3.676   2.192
    1STR   O16937887   5.084   3.661   2.177
    1STR   C17037888   5.086   3.628   2.037
    1STR   H17137889   5.128   3.712   1.986
    1STR   C17237890   5.174   3.512   1.989
    1STR   H17337891   5.127   3.415   2.003
    1STR   H17437892   5.272   3.510   2.038
    1STR   H17537893   5.191   3.520   1.882
    1STR   C17637894   4.940   3.613   1.991
    1STR   H17737895   4.941   3.628   1.883
    1STR   H17837896   4.902   3.512   2.005
    1STR   O17937897   4.862   3.707   2.064
    1STR   C18037898   4.724   3.723   2.031
    1STR   H18137899   4.694   3.823   2.055
    1STR   C18237900   4.703   3.709   1.880
    1STR   H18337901   4.675   3.608   1.848
    1STR   H18437902   4.784   3.745   1.819
    1STR   H18537903   4.625   3.777   1.855
    1STR   C18637904   4.623   3.641   2.109
    1STR   H18737905   4.529   3.660   2.062
    1STR   H18837906   4.651   3.539   2.087
    1STR   O18937907   4.604   3.649   2.252
    1STR   C19037908   4.526   3.747   2.320
    1STR   H19137909   4.600   3.825   2.330
    1STR   C19237910   4.396   3.794   2.254
    1STR   H19337911   4.404   3.808   2.146
    1STR   H19437912   4.376   3.890   2.297
    1STR   H19537913   4.310   3.734   2.276
    1STR   C19637914   4.497   3.714   2.468
    1STR   H19737915   4.393   3.686   2.485
    1STR   H19837916   4.550   3.624   2.494
    1STR   O19937917   4.535   3.828   2.547
    1STR   C20037918   4.564   3.806   2.685
    1STR   H20137919   4.613   3.714   2.669
    1STR   C20237920   4.677   3.886   2.757
    1STR   H20337921   4.767   3.891   2.695
    1STR   H20437922   4.712   3.840   2.848
    1STR   H20537923   4.648   3.985   2.789
    1STR   C20637924   4.435   3.815   2.769
    1STR   H20737925   4.455   3.881   2.852
    1STR   H20837926   4.367   3.860   2.701
    1STR   O20937927   4.370   3.703   2.824
    1STR   C21037928   4.240   3.726   2.880
    1STR   H21137929   4.209   3.627   2.912
    1STR   C21237930   4.248   3.803   3.013
    1STR   H21337931   4.301   3.897   3.004
    1STR   H21437932   4.304   3.743   3.085
    1STR   H21537933   4.149   3.822   3.053
    1STR   C21637934   4.127   3.770   2.783
    1STR   H21737935   4.033   3.719   2.806
    1STR   H21837936   4.102   3.875   2.791
    1STR   O21937937   4.160   3.735   2.650
    1STR   C22037938   4.102   3.813   2.547
    1STR   H22137939   4.009   3.862   2.578
    1STR   C22237940   4.205   3.915   2.501
    1STR   H22337941   4.194   4.007   2.555
    1STR   H22437942   4.196   3.938   2.395
    1STR   H22537943   4.307   3.881   2.509
    1STR   C22637944   4.073   3.719   2.432
    1STR   H22737945   4.059   3.766   2.336
    1STR   H22837946   4.166   3.664   2.423
    1STR   O22937947   3.965   3.632   2.464
    1STR   C23037948   3.835   3.673   2.426
    1STR   H23137949   3.835   3.776   2.396
    1STR   C23237950   3.786   3.593   2.305
    1STR   H23337951   3.753   3.493   2.332
    1STR   H23437952   3.866   3.584   2.231
    1STR   H23537953   3.702   3.642   2.257
    1STR   C23637954   3.748   3.653   2.549
    1STR   H23737955   3.644   3.633   2.521
    1STR   H23837956   3.781   3.562   2.601
    1STR   O23937957   3.759   3.763   2.639
    1STR   C24037958   3.689   3.881   2.601
    1STR   H24137959   3.717   3.914   2.502
    1STR   C24237960   3.537   3.857   2.602
    1STR   H24337961   3.506   3.807   2.694
    1STR   H24437962   3.505   3.796   2.517
    1STR   H24537963   3.482   3.950   2.594
    1STR   C24637964   3.725   3.993   2.700
    1STR   H24737965   3.663   4.079   2.676
    1STR   H24837966   3.696   3.958   2.800
    1STR   O24937967   3.862   4.033   2.704
    1STR   C25037968   3.882   4.162   2.764
    1STR   H25137969   3.846   4.238   2.695
    1STR   C25237970   3.809   4.173   2.899
    1STR   H25337971   3.841   4.094   2.967
    1STR   H25437972   3.702   4.165   2.888
    1STR   H25537973   3.828   4.269   2.947
    1STR   C25637974   4.030   4.190   2.797
    1STR   H25737975   4.038   4.282   2.854
    1STR   H25837976   4.055   4.108   2.864
    1STR   O25937977   4.121   4.200   2.688
    1STR   C26037978   4.257   4.212   2.730
    1STR   H26137979   4.266   4.303   2.789
    1STR   C26237980   4.292   4.087   2.807
    1STR   H26337981   4.249   4.005   2.754
    1STR   H26437982   4.254   4.080   2.908
    1STR   H26537983   4.400   4.072   2.809
    1STR   C26637984   4.361   4.222   2.618
    1STR   H26737985   4.362   4.134   2.554
    1STR   H26837986   4.341   4.304   2.554
    1STR   O26937987   4.487   4.248   2.679
    1STR   C27037988   4.596   4.236   2.589
    1STR   H27137989   4.573   4.277   2.492
    1STR   C27237990   4.721   4.296   2.654
    1STR   H27337991   4.750   4.242   2.744
    1STR   H27437992   4.715   4.401   2.678
    1STR   H27537993   4.798   4.283   2.581
    1STR   C27637994   4.624   4.093   2.560
    1STR   H27737995   4.718   4.065   2.603
    1STR   H27837996   4.545   4.040   2.608
    1STR   O27937997   4.622   4.056   2.425
    1STR   C28037998   4.737   4.085   2.349
    1STR   H28137999   4.736   4.192   2.336
    1STR   C28238000   4.870   4.036   2.413
    1STR   H28338001   4.858   3.937   2.452
    1STR   H28438002   4.903   4.096   2.498
    1STR   H28538003   4.952   4.028   2.343
    1STR   C28638004   4.716   4.019   2.213
    1STR   H28738005   4.759   4.076   2.133
    1STR   H28838006   4.771   3.926   2.217
    1STR   O28938007   4.581   3.984   2.184
    1STR   C29038008   4.484   4.069   2.129
    1STR   H29138009   4.384   4.034   2.154
    1STR   C29238010   4.490   4.206   2.192
    1STR   H29338011   4.465   4.201   2.298
    1STR   H29438012   4.426   4.278   2.145
    1STR   H29538013   4.590   4.240   2.182
    1STR   C29638014   4.489   4.058   1.978
    1STR   H29738015   4.402   4.115   1.949
    1STR   H29838016   4.579   4.101   1.936
    1STR   O29938017   4.471   3.924   1.930
    1STR   C30038018   4.393   3.916   1.810
    1STR   H30138019   4.408   4.006   1.751
    1STR   C30238020   4.429   3.795   1.721
    1STR   H30338021   4.431   3.703   1.778
    1STR   H30438022   4.525   3.807   1.673
    1STR   H30538023   4.358   3.781   1.640
    1STR   C30638024   4.248   3.906   1.851
    1STR   H30738025   4.231   3.820   1.915
    1STR   H30838026   4.220   3.991   1.910
    1STR   O30938027   4.174   3.894   1.731
    1STR    H1R38028   4.009   4.006   1.777
    1STR    H1S38029   4.017   3.796   1.553
    1STR    H1T38030   4.040   3.968   1.531
    1STR    H1U38031   3.883   3.908   1.582
    1STR    H1V38032   4.020   3.701   1.809
    1STR    H1W38033   3.867   3.788   1.802
    1STR    H1X38034   3.825   3.851   2.221
    1STR    H1Y38035   3.905   3.962   2.408
    1STR    H1Z38036   4.013   4.151   2.499
    1STR    H2038037   4.149   4.346   2.479
    1STR    H2138038   4.283   4.334   2.359
    1STR    H2238039   4.136   4.421   2.324
    1STR    H2338040   4.218   4.358   2.160
    1STR    H2738041   4.055   4.053   2.019
    1STR    H2838042   4.475   2.853   2.940
    1STR    H2938043   4.247   2.800   2.855
    1STR    H2A38044   4.167   2.699   2.510
    1STR    H2B38045   4.106   2.781   2.655
    1STR    H2C38046   4.147   2.610   2.659
    1STR   BCK138047   4.722   2.674   4.404
    1STR    O0338048   4.709   2.654   4.286
    1STR    N0438049   4.837   2.716   4.453
    1STR    C0538050   4.941   2.773   4.380
    1STR    C0638051   4.930   2.816   4.245
    1STR    C0738052   5.017   2.913   4.196
    1STR    N0838053   4.960   3.011   4.115
    1STR    C0938054   5.008   3.111   4.044
    1STR    O0A38055   5.128   3.135   4.033
    1STR    O0B38056   4.914   3.177   3.970
    1STR    C0C38057   4.771   3.194   3.988
    1STR    C0D38058   4.731   3.232   3.844
    1STR    C0E38059   4.673   3.083   4.035
    1STR    O0F38060   4.586   3.123   4.142
    1STR    C0G38061   4.503   3.016   4.192
    1STR    C0H38062   4.591   2.926   4.277
    1STR    C0I38063   4.382   3.061   4.278
    1STR    O0J38064   4.404   3.023   4.419
    1STR    C0K38065   4.918   4.022   4.693
    1STR    C0M38066   4.897   3.961   4.561
    1STR    C0N38067   4.784   4.035   4.758
    1STR    O0O38068   4.756   4.165   4.727
    1STR    C0P38069   4.636   4.201   4.730
    1STR    O0Q38070   4.567   4.189   4.829
    1STR    N0R38071   4.596   4.249   4.614
    1STR    C0S38072   4.659   4.246   4.491
    1STR    C0T38073   4.797   4.238   4.475
    1STR    C0U38074   4.855   4.228   4.350
    1STR    C0V38075   4.777   4.244   4.236
    1STR    C0W38076   4.853   4.226   4.109
    1STR    C0X38077   4.636   4.251   4.245
    1STR    N0Y38078   4.556   4.240   4.129
    1STR   BCK238079   4.426   4.204   4.125
    1STR    O1038080   4.356   4.189   4.223
    1STR    C1338081   4.580   4.253   4.376
    1STR    C1438082   5.140   2.929   4.257
    1STR    C1538083   5.154   2.884   4.389
    1STR    C1638084   5.054   2.808   4.452
    1STR    C1738085   5.062   2.770   4.598
    1STR    H1B38086   4.851   2.705   4.553
    1STR    H1C38087   4.846   2.794   4.184
    1STR    H1D38088   4.860   3.013   4.116
    1STR    H1E38089   4.757   3.278   4.055
    1STR    H1F38090   4.731   3.144   3.779
    1STR    H1G38091   4.633   3.278   3.841
    1STR    H1H38092   4.804   3.300   3.800
    1STR    H1I38093   4.727   2.994   4.061
    1STR    H1J38094   4.608   3.054   3.953
    1STR    H1K38095   4.463   2.961   4.107
    1STR    H1M38096   4.631   2.976   4.363
    1STR    H1N38097   4.671   2.882   4.222
    1STR    H1O38098   4.533   2.846   4.321
    1STR    H1P38099   4.361   3.165   4.253
    1STR    H1Q38100   4.290   3.019   4.239
    1STR   C01038101   4.334   3.080   4.530
    1STR   H01138102   4.389   3.165   4.566
    1STR   C01238103   4.197   3.125   4.484
    1STR   H01338104   4.143   3.041   4.448
    1STR   H01438105   4.200   3.195   4.402
    1STR   H01538106   4.142   3.171   4.564
    1STR   C01638107   4.320   2.992   4.657
    1STR   H01738108   4.249   3.043   4.721
    1STR   H01838109   4.280   2.893   4.636
    1STR   O01938110   4.434   2.984   4.740
    1STR   C02038111   4.416   2.924   4.869
    1STR   H02138112   4.379   2.823   4.857
    1STR   C02238113   4.552   2.917   4.936
    1STR   H02338114   4.632   2.879   4.876
    1STR   H02438115   4.544   2.851   5.020
    1STR   H02538116   4.584   3.014   4.974
    1STR   C02638117   4.328   3.003   4.966
    1STR   H02738118   4.358   3.106   4.958
    1STR   H02838119   4.223   2.997   4.940
    1STR   O02938120   4.348   2.955   5.099
    1STR   C03038121   4.408   3.046   5.191
    1STR   H03138122   4.449   3.136   5.148
    1STR   C03238123   4.291   3.085   5.282
    1STR   H03338124   4.246   2.996   5.327
    1STR   H03438125   4.214   3.138   5.225
    1STR   H03538126   4.322   3.150   5.363
    1STR   C03638127   4.522   2.981   5.273
    1STR   H03738128   4.534   3.035   5.367
    1STR   H03838129   4.481   2.884   5.303
    1STR   O03938130   4.652   2.955   5.215
    1STR   C04038131   4.754   3.056   5.216
    1STR   H04138132   4.705   3.134   5.158
    1STR   C04238133   4.790   3.107   5.357
    1STR   H04338134   4.874   3.175   5.352
    1STR   H04438135   4.819   3.025   5.423
    1STR   H04538136   4.707   3.162   5.402
    1STR   C04638137   4.885   3.005   5.144
    1STR   H04738138   4.937   2.931   5.204
    1STR   H04838139   4.844   2.955   5.057
    1STR   O04938140   4.986   3.099   5.100
    1STR   C05038141   5.091   3.050   5.011
    1STR   H05138142   5.159   2.996   5.077
    1STR   C05238143   5.039   2.948   4.909
    1STR   H05338144   5.040   2.847   4.947
    1STR   H05438145   5.101   2.949   4.820
    1STR   H05538146   4.940   2.968   4.873
    1STR   C05638147   5.173   3.163   4.936
    1STR   H05738148   5.112   3.216   4.864
    1STR   H05838149   5.206   3.238   5.007
    1STR   O05938150   5.286   3.114   4.859
    1STR   C06038151   5.354   3.208   4.773
    1STR   H06138152   5.282   3.272   4.724
    1STR   C06238153   5.442   3.306   4.853
    1STR   H06338154   5.527   3.255   4.898
    1STR   H06438155   5.386   3.357   4.930
    1STR   H06538156   5.482   3.383   4.787
    1STR   C06638157   5.444   3.134   4.668
    1STR   H06738158   5.526   3.198   4.637
    1STR   H06838159   5.494   3.050   4.716
    1STR   O06938160   5.382   3.080   4.551
    1STR   C07038161   5.350   3.176   4.451
    1STR   H07138162   5.401   3.270   4.474
    1STR   C07238163   5.401   3.136   4.312
    1STR   H07338164   5.398   3.029   4.298
    1STR   H07438165   5.504   3.167   4.298
    1STR   H07538166   5.341   3.184   4.234
    1STR   C07638167   5.202   3.210   4.462
    1STR   H07738168   5.186   3.194   4.567
    1STR   H07838169   5.192   3.314   4.435
    1STR   O07938170   5.095   3.142   4.399
    1STR   C08038171   4.969   3.142   4.468
    1STR   H08138172   4.945   3.240   4.494
    1STR   C08238173   4.853   3.104   4.381
    1STR   H08338174   4.846   3.000   4.363
    1STR   H08438175   4.850   3.160   4.287
    1STR   H08538176   4.762   3.122   4.436
    1STR   C08638177   4.964   3.066   4.600
    1STR   H08738178   4.893   2.985   4.592
    1STR   H08838179   5.062   3.023   4.616
    1STR   O08938180   4.941   3.146   4.715
    1STR   C09038181   4.810   3.183   4.757
    1STR   H09138182   4.774   3.270   4.711
    1STR   C09238183   4.707   3.080   4.725
    1STR   H09338184   4.746   2.984   4.756
    1STR   H09438185   4.680   3.073   4.621
    1STR   H09538186   4.618   3.109   4.779
    1STR   C09638187   4.820   3.214   4.906
    1STR   H09738188   4.783   3.128   4.958
    1STR   H09838189   4.924   3.228   4.925
    1STR   O09938190   4.760   3.329   4.963
    1STR   C10038191   4.815   3.369   5.089
    1STR   H10138192   4.834   3.284   5.152
    1STR   C10238193   4.956   3.429   5.079
    1STR   H10338194   5.031   3.352   5.101
    1STR   H10438195   4.973   3.509   5.150
    1STR   H10538196   4.978   3.463   4.978
    1STR   C10638197   4.713   3.453   5.167
    1STR   H10738198   4.761   3.494   5.256
    1STR   H10838199   4.676   3.536   5.108
    1STR   O10938200   4.608   3.364   5.205
    1STR   C11038201   4.496   3.418   5.276
    1STR   H11138202   4.445   3.331   5.315
    1STR   C11238203   4.540   3.500   5.397
    1STR   H11338204   4.582   3.596   5.368
    1STR   H11438205   4.614   3.446   5.456
    1STR   H11538206   4.455   3.521   5.463
    1STR   C11638207   4.396   3.491   5.184
    1STR   H11738208   4.328   3.551   5.245
    1STR   H11838209   4.445   3.562   5.118
    1STR   O11938210   4.313   3.397   5.116
    1STR   C12038211   4.326   3.394   4.974
    1STR   H12138212   4.315   3.495   4.935
    1STR   C12238213   4.465   3.341   4.937
    1STR   H12338214   4.500   3.258   4.995
    1STR   H12438215   4.540   3.418   4.955
    1STR   H12538216   4.475   3.310   4.833
    1STR   C12638217   4.212   3.308   4.916
    1STR   H12738218   4.251   3.247   4.834
    1STR   H12838219   4.174   3.241   4.993
    1STR   O12938220   4.107   3.385   4.860
    1STR   C13038221   3.996   3.305   4.819
    1STR   H13138222   4.027   3.202   4.802
    1STR   C13238223   3.896   3.311   4.934
    1STR   H13338224   3.884   3.413   4.970
    1STR   H13438225   3.929   3.250   5.018
    1STR   H13538226   3.798   3.275   4.904
    1STR   C13638227   3.935   3.355   4.687
    1STR   H13738228   3.861   3.285   4.650
    1STR   H13838229   3.885   3.450   4.706
    1STR   O13938230   4.037   3.374   4.590
    1STR   C14038231   3.999   3.415   4.458
    1STR   H14138232   3.964   3.326   4.406
    1STR   C14238233   3.886   3.519   4.456
    1STR   H14338234   3.913   3.607   4.514
    1STR   H14438235   3.793   3.477   4.494
    1STR   H14538236   3.866   3.552   4.354
    1STR   C14638237   4.123   3.470   4.381
    1STR   H14738238   4.196   3.395   4.355
    1STR   H14838239   4.089   3.505   4.283
    1STR   O14938240   4.189   3.581   4.441
    1STR   C15038241   4.265   3.564   4.561
    1STR   H15138242   4.345   3.637   4.551
    1STR   C15238243   4.182   3.622   4.676
    1STR   H15338244   4.088   3.572   4.693
    1STR   H15438245   4.158   3.725   4.653
    1STR   H15538246   4.235   3.619   4.771
    1STR   C15638247   4.340   3.430   4.587
    1STR   H15738248   4.340   3.407   4.692
    1STR   H15838249   4.287   3.349   4.542
    1STR   O15938250   4.476   3.443   4.538
    1STR   C16038251   4.576   3.340   4.523
    1STR   H16138252   4.572   3.270   4.605
    1STR   C16238253   4.531   3.285   4.392
    1STR   H16338254   4.423   3.289   4.387
    1STR   H16438255   4.569   3.185   4.383
    1STR   H16538256   4.566   3.340   4.304
    1STR   C16638257   4.724   3.379   4.484
    1STR   H16738258   4.763   3.319   4.405
    1STR   H16838259   4.716   3.461   4.426
    1STR   O16938260   4.829   3.417   4.572
    1STR   C17038261   4.951   3.477   4.526
    1STR   H17138262   4.941   3.582   4.548
    1STR   C17238263   5.064   3.424   4.617
    1STR   H17338264   5.058   3.320   4.635
    1STR   H17438265   5.059   3.446   4.721
    1STR   H17538266   5.164   3.454   4.585
    1STR   C17638267   4.978   3.464   4.374
    1STR   H17738268   4.961   3.365   4.334
    1STR   H17838269   4.908   3.528   4.325
    1STR   O17938270   5.109   3.502   4.335
    1STR   C18038271   5.124   3.532   4.197
    1STR   H18138272   5.083   3.631   4.183
    1STR   C18238273   5.275   3.531   4.172
    1STR   H18338274   5.315   3.430   4.184
    1STR   H18438275   5.330   3.594   4.242
    1STR   H18538276   5.299   3.565   4.072
    1STR   C18638277   5.051   3.440   4.098
    1STR   H18738278   5.089   3.452   3.996
    1STR   H18838279   5.079   3.341   4.130
    1STR   O18938280   4.908   3.446   4.098
    1STR   C19038281   4.843   3.561   4.044
    1STR   H19138282   4.894   3.650   4.077
    1STR   C19238283   4.844   3.563   3.891
    1STR   H19338284   4.766   3.500   3.851
    1STR   H19438285   4.940   3.533   3.849
    1STR   H19538286   4.823   3.664   3.855
    1STR   C19638287   4.698   3.562   4.096
    1STR   H19738288   4.647   3.651   4.059
    1STR   H19838289   4.641   3.477   4.060
    1STR   O19938290   4.700   3.554   4.238
    1STR   C20038291   4.612   3.636   4.316
    1STR   H20138292   4.616   3.721   4.257
    1STR   C20238293   4.463   3.606   4.295
    1STR   H20338294   4.433   3.506   4.321
    1STR   H20438295   4.435   3.619   4.191
    1STR   H20538296   4.402   3.674   4.353
    1STR   C20638297   4.673   3.683   4.457
    1STR   H20738298   4.780   3.671   4.454
    1STR   H20838299   4.662   3.786   4.479
    1STR   O20938300   4.630   3.614   4.572
    1STR   C21038301   4.665   3.646   4.706
    1STR   H21138302   4.702   3.746   4.701
    1STR   C21238303   4.531   3.616   4.775
    1STR   H21338304   4.511   3.512   4.760
    1STR   H21438305   4.446   3.665   4.735
    1STR   H21538306   4.531   3.627   4.883
    1STR   C21638307   4.754   3.556   4.792
    1STR   H21738308   4.729   3.566   4.897
    1STR   H21838309   4.724   3.455   4.772
    1STR   O21938310   4.894   3.565   4.786
    1STR   C22038311   4.958   3.685   4.817
    1STR   H22138312   4.902   3.752   4.754
    1STR   C22238313   4.938   3.721   4.965
    1STR   H22338314   4.855   3.674   5.014
    1STR   H22438315   4.918   3.826   4.972
    1STR   H22538316   5.027   3.696   5.023
    1STR   C22638317   5.109   3.685   4.776
    1STR   H22738318   5.168   3.763   4.821
    1STR   H22838319   5.158   3.597   4.818
    1STR   O22938320   5.128   3.687   4.635
    1STR   C23038321   5.188   3.797   4.567
    1STR   H23138322   5.155   3.892   4.605
    1STR   C23238323   5.340   3.784   4.579
    1STR   H23338324   5.372   3.681   4.565
    1STR   H23438325   5.373   3.817   4.678
    1STR   H23538326   5.388   3.844   4.503
    1STR   C23638327   5.141   3.786   4.420
    1STR   H23738328   5.214   3.732   4.361
    1STR   H23838329   5.053   3.723   4.423
    1STR   O23938330   5.111   3.912   4.361
    1STR   C24038331   5.018   3.916   4.251
    1STR   H24138332   4.988   4.020   4.245
    1STR   C24238333   5.099   3.887   4.125
    1STR   H24338334   5.168   3.805   4.135
    1STR   H24438335   5.164   3.972   4.104
    1STR   H24538336   5.034   3.868   4.040
    1STR   C24638337   4.886   3.835   4.272
    1STR   H24738338   4.908   3.730   4.273
    1STR   H24838339   4.841   3.855   4.366
    1STR   O24938340   4.776   3.848   4.185
    1STR   C25038341   4.665   3.938   4.209
    1STR   H25138342   4.719   4.027   4.215
    1STR   C25238343   4.600   3.916   4.071
    1STR   H25338344   4.525   3.838   4.073
    1STR   H25438345   4.672   3.887   3.994
    1STR   H25538346   4.552   4.004   4.033
    1STR   C25638347   4.547   3.942   4.319
    1STR   H25738348   4.488   4.024   4.287
    1STR   H25838349   4.475   3.862   4.303
    1STR   O25938350   4.557   3.969   4.462
    1STR   C26038351   4.436   3.986   4.547
    1STR   H26138352   4.423   4.090   4.570
    1STR   C26238353   4.304   3.949   4.475
    1STR   H26338354   4.298   3.844   4.449
    1STR   H26438355   4.288   4.008   4.385
    1STR   H26538356   4.219   3.971   4.539
    1STR   C26638357   4.446   3.906   4.682
    1STR   H26738358   4.362   3.838   4.682
    1STR   H26838359   4.534   3.849   4.669
    1STR   O26938360   4.449   3.965   4.816
    1STR   C27038361   4.481   3.883   4.934
    1STR   H27138362   4.421   3.793   4.928
    1STR   C27238363   4.630   3.851   4.956
    1STR   H27338364   4.689   3.833   4.871
    1STR   H27438365   4.644   3.763   5.019
    1STR   H27538366   4.679   3.932   5.010
    1STR   C27638367   4.448   3.941   5.074
    1STR   H27738368   4.476   4.046   5.077
    1STR   H27838369   4.343   3.932   5.097
    1STR   O27938370   4.508   3.860   5.178
    1STR   C28038371   4.572   3.931   5.283
    1STR   H28138372   4.584   4.035   5.256
    1STR   C28238373   4.476   3.922   5.401
    1STR   H28338374   4.447   3.819   5.420
    1STR   H28438375   4.385   3.979   5.381
    1STR   H28538376   4.520   3.962   5.493
    1STR   C28638377   4.713   3.878   5.318
    1STR   H28738378   4.746   3.931   5.408
    1STR   H28838379   4.710   3.772   5.343
    1STR   O28938380   4.811   3.897   5.216
    1STR   C29038381   4.945   3.918   5.263
    1STR   H29138382   4.944   3.996   5.338
    1STR   C29238383   5.001   3.792   5.329
    1STR   H29338384   4.998   3.707   5.261
    1STR   H29438385   4.944   3.765   5.418
    1STR   H29538386   5.104   3.807   5.360
    1STR   C29638387   5.039   3.970   5.152
    1STR   H29738388   5.115   4.033   5.196
    1STR   H29838389   5.091   3.888   5.104
    1STR   O29938390   4.963   4.043   5.057
    1STR   C30038391   5.024   4.099   4.941
    1STR   H30138392   4.946   4.151   4.891
    1STR   C30238393   5.108   4.216   4.957
    1STR   H30338394   5.194   4.177   5.003
    1STR   H30438395   5.058   4.289   5.014
    1STR   H30538396   5.132   4.259   4.862
    1STR   C30638397   5.095   4.007   4.848
    1STR   H30738398   5.158   4.057   4.776
    1STR   H30838399   5.161   3.943   4.905
    1STR   O30938400   5.002   3.941   4.770
    1STR    H1R38401   4.967   4.118   4.678
    1STR    H1S38402   4.798   3.983   4.522
    1STR    H1T38403   4.911   3.853   4.563
    1STR    H1U38404   4.966   4.010   4.494
    1STR    H1V38405   4.787   4.024   4.865
    1STR    H1W38406   4.707   3.970   4.717
    1STR    H1X38407   4.502   4.286   4.629
    1STR    H1Y38408   4.864   4.243   4.557
    1STR    H1Z38409   4.962   4.215   4.343
    1STR    H2038410   4.953   4.268   4.117
    1STR    H2138411   4.863   4.120   4.095
    1STR    H2238412   4.804   4.270   4.024
    1STR    H2338413   4.600   4.259   4.040
    1STR    H2738414   4.475   4.259   4.396
    1STR    H2838415   5.210   2.999   4.216
    1STR    H2938416   5.238   2.923   4.443
    1STR    H2A38417   5.065   2.663   4.616
    1STR    H2B38418   4.975   2.809   4.648
    1STR    H2C38419   5.142   2.820   4.650
    1STR   BCK138420   4.074   2.795   6.323
    1STR    O0338421   4.068   2.781   6.202
    1STR    N0438422   4.128   2.905   6.372
    1STR    C0538423   4.104   2.959   6.496
    1STR    C0638424   4.176   2.919   6.610
    1STR    C0738425   4.153   2.981   6.735
    1STR    N0838426   4.220   2.933   6.847
    1STR    C0938427   4.225   2.967   6.975
    1STR    O0A38428   4.159   3.055   7.030
    1STR    O0B38429   4.321   2.895   7.028
    1STR    C0C38430   4.395   2.943   7.139
    1STR    C0D38431   4.321   2.916   7.267
    1STR    C0E38432   4.532   2.879   7.137
    1STR    O0F38433   4.620   2.938   7.044
    1STR    C0G38434   4.715   2.850   6.988
    1STR    C0H38435   4.628   2.851   6.861
    1STR    C0I38436   4.874   2.880   6.982
    1STR    O0J38437   4.949   2.918   7.102
    1STR    C0K38438   4.821   4.235   6.756
    1STR    C0M38439   4.877   4.287   6.889
    1STR    C0N38440   4.669   4.252   6.732
    1STR    O0O38441   4.620   4.145   6.649
    1STR    C0P38442   4.494   4.144   6.605
    1STR    O0Q38443   4.409   4.226   6.636
    1STR    N0R38444   4.461   4.043   6.524
    1STR    C0S38445   4.337   3.979   6.536
    1STR    C0T38446   4.275   3.909   6.431
    1STR    C0U38447   4.153   3.843   6.456
    1STR    C0V38448   4.094   3.840   6.585
    1STR    C0W38449   3.961   3.771   6.605
    1STR    C0X38450   4.159   3.905   6.692
    1STR    N0Y38451   4.106   3.898   6.822
    1STR   BCK238452   4.134   3.948   6.944
    1STR    O1038453   4.077   3.902   7.041
    1STR    C1338454   4.277   3.974   6.663
    1STR    C1438455   4.057   3.084   6.743
    1STR    C1538456   3.983   3.123   6.629
    1STR    C1638457   4.006   3.060   6.506
    1STR    C1738458   3.925   3.098   6.384
    1STR    H1B38459   4.170   2.967   6.304
    1STR    H1C38460   4.253   2.844   6.599
    1STR    H1D38461   4.285   2.857   6.836
    1STR    H1E38462   4.411   3.048   7.128
    1STR    H1F38463   4.274   2.819   7.262
    1STR    H1G38464   4.386   2.919   7.354
    1STR    H1H38465   4.247   2.993   7.282
    1STR    H1I38466   4.516   2.776   7.112
    1STR    H1J38467   4.581   2.889   7.233
    1STR    H1K38468   4.706   2.755   7.036
    1STR    H1M38469   4.644   2.935   6.794
    1STR    H1N38470   4.520   2.845   6.878
    1STR    H1O38471   4.642   2.762   6.810
    1STR    H1P38472   4.921   2.788   6.957
    1STR    H1Q38473   4.897   2.937   6.894
    1STR   C01038474   5.086   2.971   7.120
    1STR   H01138475   5.096   3.073   7.088
    1STR   C01238476   5.112   2.988   7.270
    1STR   H01338477   5.150   2.897   7.315
    1STR   H01438478   5.022   3.019   7.322
    1STR   H01538479   5.191   3.059   7.293
    1STR   C01638480   5.212   2.905   7.064
    1STR   H01738481   5.291   2.971   7.096
    1STR   H01838482   5.240   2.813   7.112
    1STR   O01938483   5.222   2.896   6.924
    1STR   C02038484   5.278   3.013   6.868
    1STR   H02138485   5.239   3.101   6.919
    1STR   C02238486   5.432   3.011   6.876
    1STR   H02338487   5.472   2.918   6.836
    1STR   H02438488   5.468   3.024   6.978
    1STR   H02538489   5.475   3.093   6.818
    1STR   C02638490   5.227   3.011   6.728
    1STR   H02738491   5.254   2.914   6.689
    1STR   H02838492   5.119   3.025   6.728
    1STR   O02938493   5.283   3.111   6.646
    1STR   C03038494   5.263   3.096   6.506
    1STR   H03138495   5.253   3.190   6.453
    1STR   C03238496   5.399   3.049   6.458
    1STR   H03338497   5.428   2.956   6.505
    1STR   H03438498   5.475   3.122   6.485
    1STR   H03538499   5.401   3.037   6.350
    1STR   C03638500   5.142   3.009   6.462
    1STR   H03738501   5.158   2.983   6.359
    1STR   H03838502   5.158   2.915   6.511
    1STR   O03938503   5.004   3.051   6.489
    1STR   C04038504   4.918   3.107   6.384
    1STR   H04138505   4.887   3.199   6.430
    1STR   C04238506   5.000   3.137   6.257
    1STR   H04338507   5.024   3.044   6.207
    1STR   H04438508   5.097   3.181   6.277
    1STR   H04538509   4.947   3.203   6.189
    1STR   C04638510   4.779   3.044   6.334
    1STR   H04738511   4.719   3.124   6.291
    1STR   H04838512   4.801   2.980   6.249
    1STR   O04938513   4.693   2.960   6.413
    1STR   C05038514   4.591   3.012   6.499
    1STR   H05138515   4.564   2.935   6.571
    1STR   C05238516   4.654   3.124   6.572
    1STR   H05338517   4.672   3.201   6.498
    1STR   H05438518   4.748   3.094   6.620
    1STR   H05538519   4.590   3.171   6.644
    1STR   C05638520   4.462   3.054   6.426
    1STR   H05738521   4.485   3.122   6.344
    1STR   H05838522   4.419   2.965   6.379
    1STR   O05938523   4.365   3.108   6.518
    1STR   C06038524   4.355   3.250   6.522
    1STR   H06138525   4.456   3.284   6.510
    1STR   C06238526   4.277   3.299   6.399
    1STR   H06338527   4.174   3.264   6.404
    1STR   H06438528   4.320   3.264   6.306
    1STR   H06538529   4.276   3.408   6.396
    1STR   C06638530   4.294   3.313   6.652
    1STR   H06738531   4.267   3.416   6.629
    1STR   H06838532   4.199   3.268   6.676
    1STR   O06938533   4.377   3.330   6.767
    1STR   C07038534   4.357   3.241   6.877
    1STR   H07138535   4.252   3.216   6.882
    1STR   C07238536   4.447   3.123   6.844
    1STR   H07338537   4.550   3.149   6.839
    1STR   H07438538   4.419   3.072   6.753
    1STR   H07538539   4.451   3.053   6.923
    1STR   C07638540   4.395   3.304   7.015
    1STR   H07738541   4.503   3.304   7.030
    1STR   H07838542   4.360   3.404   7.006
    1STR   O07938543   4.331   3.252   7.133
    1STR   C08038544   4.373   3.307   7.259
    1STR   H08138545   4.429   3.398   7.242
    1STR   C08238546   4.244   3.344   7.334
    1STR   H08338547   4.185   3.255   7.356
    1STR   H08438548   4.180   3.410   7.276
    1STR   H08538549   4.267   3.394   7.428
    1STR   C08638550   4.458   3.214   7.350
    1STR   H08738551   4.503   3.268   7.432
    1STR   H08838552   4.392   3.143   7.397
    1STR   O08938553   4.555   3.138   7.281
    1STR   C09038554   4.694   3.153   7.308
    1STR   H09138555   4.713   3.254   7.339
    1STR   C09238556   4.738   3.069   7.424
    1STR   H09338557   4.707   2.966   7.409
    1STR   H09438558   4.698   3.110   7.515
    1STR   H09538559   4.845   3.070   7.434
    1STR   C09638560   4.764   3.108   7.178
    1STR   H09738561   4.774   3.002   7.193
    1STR   H09838562   4.685   3.129   7.108
    1STR   O09938563   4.884   3.170   7.122
    1STR   C10038564   4.915   3.186   6.981
    1STR   H10138565   4.975   3.108   6.940
    1STR   C10238566   4.793   3.179   6.896
    1STR   H10338567   4.716   3.234   6.945
    1STR   H10438568   4.751   3.081   6.890
    1STR   H10538569   4.806   3.212   6.796
    1STR   C10638570   5.013   3.303   6.959
    1STR   H10738571   4.966   3.400   6.948
    1STR   H10838572   5.070   3.317   7.047
    1STR   O10938573   5.107   3.278   6.854
    1STR   C11038574   5.199   3.384   6.832
    1STR   H11138575   5.148   3.478   6.851
    1STR   C11238576   5.316   3.368   6.930
    1STR   H11338577   5.366   3.273   6.915
    1STR   H11438578   5.285   3.373   7.034
    1STR   H11538579   5.392   3.443   6.913
    1STR   C11638580   5.252   3.388   6.688
    1STR   H11738581   5.283   3.486   6.660
    1STR   H11838582   5.344   3.330   6.681
    1STR   O11938583   5.168   3.340   6.583
    1STR   C12038584   5.049   3.405   6.552
    1STR   H12138585   5.065   3.504   6.581
    1STR   C12238586   5.036   3.415   6.398
    1STR   H12338587   4.938   3.385   6.360
    1STR   H12438588   5.117   3.365   6.348
    1STR   H12538589   5.048   3.518   6.365
    1STR   C12638590   4.940   3.344   6.641
    1STR   H12738591   4.966   3.240   6.659
    1STR   H12838592   4.944   3.396   6.736
    1STR   O12938593   4.804   3.345   6.600
    1STR   C13038594   4.711   3.432   6.665
    1STR   H13138595   4.773   3.512   6.679
    1STR   C13238596   4.609   3.471   6.556
    1STR   H13338597   4.624   3.415   6.464
    1STR   H13438598   4.614   3.576   6.528
    1STR   H13538599   4.510   3.456   6.593
    1STR   C13638600   4.658   3.429   6.812
    1STR   H13738601   4.582   3.502   6.820
    1STR   H13838602   4.600   3.341   6.827
    1STR   O13938603   4.758   3.455   6.915
    1STR   C14038604   4.734   3.503   7.051
    1STR   H14138605   4.800   3.586   7.052
    1STR   C14238606   4.599   3.561   7.084
    1STR   H14338607   4.523   3.524   7.020
    1STR   H14438608   4.599   3.669   7.083
    1STR   H14538609   4.564   3.543   7.184
    1STR   C14638610   4.774   3.415   7.173
    1STR   H14738611   4.712   3.434   7.259
    1STR   H14838612   4.730   3.328   7.135
    1STR   O14938613   4.910   3.412   7.225
    1STR   C15038614   4.973   3.328   7.327
    1STR   H15138615   4.944   3.226   7.316
    1STR   C15238616   5.121   3.323   7.286
    1STR   H15338617   5.139   3.241   7.219
    1STR   H15438618   5.189   3.310   7.368
    1STR   H15538619   5.146   3.411   7.228
    1STR   C15638620   4.950   3.331   7.481
    1STR   H15738621   4.844   3.314   7.500
    1STR   H15838622   4.999   3.244   7.524
    1STR   O15938623   4.982   3.439   7.568
    1STR   C16038624   5.107   3.505   7.568
    1STR   H16138625   5.091   3.580   7.646
    1STR   C16238626   5.223   3.419   7.620
    1STR   H16338627   5.237   3.327   7.565
    1STR   H16438628   5.203   3.390   7.723
    1STR   H16538629   5.316   3.475   7.619
    1STR   C16638630   5.128   3.588   7.442
    1STR   H16738631   5.179   3.678   7.470
    1STR   H16838632   5.194   3.543   7.371
    1STR   O16938633   4.997   3.608   7.390
    1STR   C17038634   4.963   3.697   7.286
    1STR   H17138635   5.005   3.795   7.301
    1STR   C17238636   5.013   3.659   7.146
    1STR   H17338637   5.006   3.559   7.108
    1STR   H17438638   5.117   3.675   7.141
    1STR   H17538639   4.961   3.718   7.071
    1STR   C17638640   4.811   3.714   7.298
    1STR   H17738641   4.785   3.814   7.329
    1STR   H17838642   4.766   3.715   7.201
    1STR   O17938643   4.747   3.614   7.375
    1STR   C18038644   4.667   3.651   7.484
    1STR   H18138645   4.636   3.756   7.478
    1STR   C18238646   4.542   3.565   7.474
    1STR   H18338647   4.571   3.460   7.472
    1STR   H18438648   4.486   3.586   7.383
    1STR   H18538649   4.475   3.580   7.559
    1STR   C18638650   4.746   3.616   7.611
    1STR   H18738651   4.684   3.630   7.700
    1STR   H18838652   4.766   3.510   7.610
    1STR   O18938653   4.872   3.684   7.629
    1STR   C19038654   4.876   3.823   7.606
    1STR   H19138655   4.846   3.846   7.507
    1STR   C19238656   4.767   3.885   7.691
    1STR   H19338657   4.792   3.881   7.795
    1STR   H19438658   4.669   3.841   7.680
    1STR   H19538659   4.749   3.983   7.655
    1STR   C19638660   5.019   3.886   7.613
    1STR   H19738661   5.009   3.990   7.640
    1STR   H19838662   5.077   3.836   7.690
    1STR   O19938663   5.088   3.874   7.486
    1STR   C20038664   5.206   3.947   7.447
    1STR   H20138665   5.170   4.036   7.397
    1STR   C20238666   5.283   3.989   7.573
    1STR   H20338667   5.315   3.901   7.629
    1STR   H20438668   5.222   4.049   7.639
    1STR   H20538669   5.372   4.047   7.547
    1STR   C20638670   5.307   3.873   7.350
    1STR   H20738671   5.387   3.943   7.325
    1STR   H20838672   5.354   3.795   7.410
    1STR   O20938673   5.266   3.815   7.224
    1STR   C21038674   5.364   3.740   7.145
    1STR   H21138675   5.453   3.801   7.144
    1STR   C21238676   5.408   3.611   7.217
    1STR   H21338677   5.330   3.536   7.210
    1STR   H21438678   5.435   3.624   7.322
    1STR   H21538679   5.495   3.568   7.168
    1STR   C21638680   5.332   3.697   6.996
    1STR   H21738681   5.421   3.645   6.963
    1STR   H21838682   5.251   3.624   6.991
    1STR   O21938683   5.306   3.794   6.894
    1STR   C22038684   5.301   3.754   6.754
    1STR   H22138685   5.314   3.854   6.714
    1STR   C22238686   5.428   3.684   6.704
    1STR   H22338687   5.446   3.587   6.751
    1STR   H22438688   5.515   3.744   6.722
    1STR   H22538689   5.425   3.668   6.596
    1STR   C22638690   5.170   3.714   6.673
    1STR   H22738691   5.144   3.806   6.622
    1STR   H22838692   5.197   3.659   6.584
    1STR   O22938693   5.051   3.658   6.736
    1STR   C23038694   4.920   3.686   6.674
    1STR   H23138695   4.934   3.783   6.650
    1STR   C23238696   4.884   3.655   6.526
    1STR   H23338697   4.862   3.554   6.500
    1STR   H23438698   4.958   3.690   6.454
    1STR   H23538699   4.789   3.698   6.501
    1STR   C23638700   4.802   3.724   6.769
    1STR   H23738701   4.813   3.672   6.863
    1STR   H23838702   4.810   3.827   6.794
    1STR   O23938703   4.671   3.709   6.711
    1STR   C24038704   4.564   3.744   6.798
    1STR   H24138705   4.592   3.716   6.896
    1STR   C24238706   4.556   3.891   6.789
    1STR   H24338707   4.643   3.946   6.821
    1STR   H24438708   4.469   3.924   6.843
    1STR   H24538709   4.547   3.907   6.685
    1STR   C24638710   4.425   3.679   6.768
    1STR   H24738711   4.352   3.752   6.737
    1STR   H24838712   4.430   3.616   6.682
    1STR   O24938713   4.376   3.602   6.878
    1STR   C25038714   4.272   3.661   6.955
    1STR   H25138715   4.285   3.766   6.942
    1STR   C25238716   4.141   3.604   6.899
    1STR   H25338717   4.135   3.497   6.916
    1STR   H25438718   4.135   3.620   6.791
    1STR   H25538719   4.054   3.650   6.946
    1STR   C25638720   4.275   3.642   7.109
    1STR   H25738721   4.180   3.677   7.151
    1STR   H25838722   4.280   3.538   7.136
    1STR   O25938723   4.384   3.709   7.170
    1STR   C26038724   4.350   3.824   7.244
    1STR   H26138725   4.268   3.874   7.194
    1STR   C26238726   4.295   3.790   7.384
    1STR   H26338727   4.375   3.764   7.453
    1STR   H26438728   4.224   3.708   7.381
    1STR   H26538729   4.244   3.876   7.425
    1STR   C26638730   4.465   3.925   7.250
    1STR   H26738731   4.429   4.009   7.194
    1STR   H26838732   4.469   3.960   7.352
    1STR   O26938733   4.600   3.889   7.213
    1STR   C27038734   4.664   3.946   7.097
    1STR   H27138735   4.649   3.870   7.023
    1STR   C27238736   4.604   4.075   7.048
    1STR   H27338737   4.579   4.146   7.125
    1STR   H27438738   4.517   4.055   6.991
    1STR   H27538739   4.670   4.121   6.976
    1STR   C27638740   4.816   3.973   7.096
    1STR   H27738741   4.841   4.071   7.138
    1STR   H27838742   4.870   3.902   7.155
    1STR   O27938743   4.860   3.963   6.960
    1STR   C28038744   4.993   4.000   6.923
    1STR   H28138745   5.011   4.102   6.945
    1STR   C28238746   5.094   3.932   7.013
    1STR   H28338747   5.103   3.829   6.984
    1STR   H28438748   5.070   3.934   7.119
    1STR   H28538749   5.192   3.975   7.003
    1STR   C28638750   5.027   3.971   6.773
    1STR   H28738751   5.128   4.000   6.746
    1STR   H28838752   5.035   3.868   6.791
    1STR   O28938753   4.931   4.000   6.665
    1STR   C29038754   4.941   3.970   6.523
    1STR   H29138755   5.003   3.885   6.503
    1STR   C29238756   4.800   3.941   6.467
    1STR   H29338757   4.749   4.024   6.421
    1STR   H29438758   4.735   3.903   6.546
    1STR   H29538759   4.804   3.869   6.386
    1STR   C29638760   5.014   4.063   6.433
    1STR   H29738761   5.033   4.016   6.337
    1STR   H29838762   4.956   4.151   6.414
    1STR   O29938763   5.137   4.087   6.494
    1STR   C30038764   5.145   4.218   6.543
    1STR   H30138765   5.243   4.217   6.587
    1STR   C30238766   5.149   4.318   6.429
    1STR   H30338767   5.051   4.360   6.416
    1STR   H30438768   5.186   4.272   6.337
    1STR   H30538769   5.210   4.404   6.449
    1STR   C30638770   5.048   4.256   6.657
    1STR   H30738771   5.070   4.195   6.740
    1STR   H30838772   5.087   4.347   6.693
    1STR   O30938773   4.906   4.266   6.641
    1STR    H1R38774   4.817   4.131   6.781
    1STR    H1S38775   4.842   4.384   6.913
    1STR    H1T38776   4.984   4.299   6.897
    1STR    H1U38777   4.846   4.224   6.971
    1STR    H1V38778   4.645   4.351   6.697
    1STR    H1W38779   4.614   4.247   6.824
    1STR    H1X38780   4.541   3.991   6.490
    1STR    H1Y38781   4.318   3.910   6.332
    1STR    H1Z38782   4.103   3.794   6.374
    1STR    H2038783   3.944   3.738   6.707
    1STR    H2138784   3.880   3.839   6.579
    1STR    H2238785   3.953   3.683   6.541
    1STR    H2338786   4.028   3.835   6.832
    1STR    H2738787   4.325   4.027   6.741
    1STR    H2838788   4.037   3.133   6.837
    1STR    H2938789   3.909   3.201   6.639
    1STR    H2A38790   3.868   3.012   6.350
    1STR    H2B38791   3.992   3.128   6.303
    1STR    H2C38792   3.857   3.180   6.405
    1STR   BCK138793   4.161   4.993   0.159
    1STR    O0338794   4.233   4.895   0.168
    1STR    N0438795   4.136   5.078   0.260
    1STR    C0538796   4.210   5.086   0.379
    1STR    C0638797   4.346   5.050   0.375
    1STR    C0738798   4.438   5.091   0.470
    1STR    N0838799   4.570   5.069   0.438
    1STR    C0938800   4.681   5.108   0.494
    1STR    O0A38801   4.689   5.169   0.598
    1STR    O0B38802   4.786   5.068   0.426
    1STR    C0C38803   4.828   5.143   0.315
    1STR    C0D38804   4.981   5.131   0.317
    1STR    C0E38805   4.770   5.104   0.180
    1STR    O0F38806   4.632   5.091   0.174
    1STR    C0G38807   4.564   5.101   0.048
    1STR    C0H38808   4.446   5.179   0.100
    1STR    C0I38809   4.611   5.188   9.254
    1STR    O0J38810   4.507   5.194   9.157
    1STR    C0K38811   3.881   6.518   0.601
    1STR    C0M38812   3.908   6.445   0.733
    1STR    C0N38813   3.975   6.638   0.583
    1STR    O0O38814   4.110   6.593   0.589
    1STR    C0P38815   4.178   6.582   0.476
    1STR    O0Q38816   4.134   6.601   0.365
    1STR    N0R38817   4.303   6.549   0.503
    1STR    C0S38818   4.414   6.542   0.420
    1STR    C0T38819   4.533   6.494   0.476
    1STR    C0U38820   4.653   6.510   0.405
    1STR    C0V38821   4.656   6.558   0.274
    1STR    C0W38822   4.792   6.580   0.207
    1STR    C0X38823   4.534   6.585   0.209
    1STR    N0Y38824   4.536   6.607   0.072
    1STR   BCK238825   4.456   6.552   9.302
    1STR    O1038826   4.495   6.524   9.189
    1STR    C1338827   4.416   6.588   0.287
    1STR    C1438828   4.390   5.157   0.584
    1STR    C1538829   4.254   5.183   0.600
    1STR    C1638830   4.164   5.152   0.497
    1STR    C1738831   4.026   5.208   0.515
    1STR    H1B38832   4.070   5.152   0.237
    1STR    H1C38833   4.390   4.995   0.294
    1STR    H1D38834   4.591   5.027   0.348
    1STR    H1E38835   4.793   5.244   0.330
    1STR    H1F38836   5.013   5.027   0.311
    1STR    H1G38837   5.027   5.186   0.235
    1STR    H1H38838   5.021   5.169   0.410
    1STR    H1I38839   4.816   5.012   0.147
    1STR    H1J38840   4.796   5.185   0.115
    1STR    H1K38841   4.543   5.003   0.008
    1STR    H1M38842   4.485   5.238   0.180
    1STR    H1N38843   4.369   5.118   0.138
    1STR    H1O38844   4.401   5.253   0.034
    1STR    H1P38845   4.627   5.285   9.298
    1STR    H1Q38846   4.701   5.153   9.206
    1STR   C01038847   4.487   5.318   9.091
    1STR   H01138848   4.461   5.385   9.170
    1STR   C01238849   4.613   5.358   9.012
    1STR   H01338850   4.694   5.288   9.021
    1STR   H01438851   4.657   5.452   9.037
    1STR   H01538852   4.588   5.369   8.907
    1STR   C01638853   4.365   5.320   8.998
    1STR   H01738854   4.367   5.408   8.934
    1STR   H01838855   4.368   5.234   8.934
    1STR   O01938856   4.242   5.319   9.067
    1STR   C02038857   4.125   5.338   8.987
    1STR   H02138858   4.100   5.444   8.990
    1STR   C02238859   4.135   5.294   8.839
    1STR   H02338860   4.163   5.189   8.830
    1STR   H02438861   4.207   5.353   8.782
    1STR   H02538862   4.039   5.307   8.789
    1STR   C02638863   4.015   5.257   9.057
    1STR   H02738864   3.977   5.181   8.989
    1STR   H02838865   4.055   5.204   9.142
    1STR   O02938866   3.905   5.337   9.097
    1STR   C03038867   3.926   5.409   9.218
    1STR   H03138868   4.023   5.460   9.215
    1STR   C03238869   3.813   5.513   9.212
    1STR   H03338870   3.716   5.464   9.210
    1STR   H03438871   3.821   5.574   9.122
    1STR   H03538872   3.815   5.581   9.297
    1STR   C03638873   3.914   5.316   0.021
    1STR   H03738874   3.826   5.340   0.080
    1STR   H03838875   3.893   5.215   9.305
    1STR   O03938876   4.029   5.305   0.105
    1STR   C04038877   4.083   5.423   0.167
    1STR   H04138878   4.131   5.482   0.090
    1STR   C04238879   3.969   5.497   0.239
    1STR   H04338880   3.932   5.443   0.326
    1STR   H04438881   3.885   5.522   0.176
    1STR   H04538882   4.006   5.594   0.269
    1STR   C04638883   4.192   5.372   0.264
    1STR   H04738884   4.130   5.319   0.331
    1STR   H04838885   4.250   5.300   0.208
    1STR   O04938886   4.275   5.446   0.357
    1STR   C05038887   4.413   5.407   0.351
    1STR   H05138888   4.413   5.300   0.347
    1STR   C05238889   4.461   5.473   0.223
    1STR   H05338890   4.405   5.445   0.135
    1STR   H05438891   4.563   5.445   0.206
    1STR   H05538892   4.454   5.580   0.230
    1STR   C05638893   4.512   5.435   0.467
    1STR   H05738894   4.514   5.539   0.474
    1STR   H05838895   4.475   5.399   0.562
    1STR   O05938896   4.651   5.397   0.449
    1STR   C06038897   4.753   5.469   0.524
    1STR   H06138898   4.746   5.573   0.495
    1STR   C06238899   4.736   5.463   0.677
    1STR   H06338900   4.767   5.367   0.715
    1STR   H06438901   4.634   5.480   0.709
    1STR   H06538902   4.799   5.537   0.726
    1STR   C06638903   4.899   5.425   0.497
    1STR   H06738904   4.968   5.491   0.550
    1STR   H06838905   4.913   5.326   0.537
    1STR   O06938906   4.935   5.411   0.361
    1STR   C07038907   5.048   5.480   0.313
    1STR   H07138908   5.037   5.581   0.349
    1STR   C07238909   5.178   5.418   0.365
    1STR   H07338910   5.191   5.315   0.331
    1STR   H07438911   5.182   5.419   0.473
    1STR   H07538912   5.265   5.474   0.329
    1STR   C07638913   5.041   5.481   0.159
    1STR   H07738914   5.054   5.582   0.122
    1STR   H07838915   5.130   5.430   0.124
    1STR   O07938916   4.930   5.413   0.097
    1STR   C08038917   4.797   5.468   0.092
    1STR   H08138918   4.740   5.385   0.132
    1STR   C08238919   4.783   5.577   0.190
    1STR   H08338920   4.861   5.650   0.199
    1STR   H08438921   4.762   5.535   0.286
    1STR   H08538922   4.693   5.622   0.160
    1STR   C08638923   4.725   5.503   9.275
    1STR   H08738924   4.772   5.579   9.221
    1STR   H08838925   4.750   5.419   9.212
    1STR   O08938926   4.579   5.528   9.280
    1STR   C09038927   4.501   5.627   9.200
    1STR   H09138928   4.524   5.723   9.237
    1STR   C09238929   4.528   5.651   9.052
    1STR   H09338930   4.484   5.577   8.987
    1STR   H09438931   4.633   5.663   9.032
    1STR   H09538932   4.482   5.745   9.021
    1STR   C09638933   4.345   5.624   9.212
    1STR   H09738934   4.302   5.704   9.153
    1STR   H09838935   4.304   5.532   9.172
    1STR   O09938936   4.298   5.635   0.024
    1STR   C10038937   4.216   5.745   0.062
    1STR   H10138938   4.257   5.839   0.027
    1STR   C10238939   4.074   5.741   0.006
    1STR   H10338940   4.018   5.654   0.038
    1STR   H10438941   4.074   5.742   9.217
    1STR   H10538942   4.019   5.828   0.040
    1STR   C10638943   4.230   5.735   0.214
    1STR   H10738944   4.237   5.632   0.240
    1STR   H10838945   4.326   5.779   0.233
    1STR   O10938946   4.134   5.791   0.304
    1STR   C11038947   4.148   5.755   0.444
    1STR   H11138948   4.139   5.852   0.486
    1STR   C11238949   4.030   5.677   0.501
    1STR   H11338950   4.044   5.570   0.485
    1STR   H11438951   3.935   5.708   0.457
    1STR   H11538952   4.023   5.691   0.609
    1STR   C11638953   4.279   5.710   0.512
    1STR   H11738954   4.290   5.765   0.605
    1STR   H11838955   4.273   5.605   0.540
    1STR   O11938956   4.394   5.724   0.431
    1STR   C12038957   4.513   5.773   0.487
    1STR   H12138958   4.497   5.872   0.517
    1STR   C12238959   4.542   5.718   0.630
    1STR   H12338960   4.482   5.632   0.657
    1STR   H12438961   4.517   5.794   0.704
    1STR   H12538962   4.645   5.694   0.646
    1STR   C12638963   4.617   5.767   0.369
    1STR   H12738964   4.720   5.778   0.404
    1STR   H12838965   4.607   5.668   0.334
    1STR   O12938966   4.604   5.864   0.260
    1STR   C13038967   4.590   5.830   0.120
    1STR   H13138968   4.539   5.735   0.116
    1STR   C13238969   4.488   5.929   0.072
    1STR   H13338970   4.536   6.023   0.073
    1STR   H13438971   4.404   5.942   0.138
    1STR   H13538972   4.455   5.909   9.292
    1STR   C13638973   4.719   5.846   0.027
    1STR   H13738974   4.738   5.952   0.017
    1STR   H13838975   4.799   5.803   0.082
    1STR   O13938976   4.734   5.792   9.213
    1STR   C14038977   4.866   5.785   9.148
    1STR   H14138978   4.901   5.884   9.146
    1STR   C14238979   4.980   5.718   9.227
    1STR   H14338980   4.972   5.611   9.233
    1STR   H14438981   4.990   5.757   0.008
    1STR   H14538982   5.076   5.739   9.180
    1STR   C14638983   4.873   5.727   9.002
    1STR   H14738984   4.977   5.728   8.971
    1STR   H14838985   4.845   5.622   9.005
    1STR   O14938986   4.800   5.794   8.897
    1STR   C15038987   4.805   5.730   8.768
    1STR   H15138988   4.886   5.659   8.773
    1STR   C15238989   4.667   5.665   8.740
    1STR   H15338990   4.588   5.738   8.726
    1STR   H15438991   4.636   5.599   8.820
    1STR   H15538992   4.667   5.608   8.648
    1STR   C15638993   4.837   5.812   8.640
    1STR   H15738994   4.841   5.741   8.557
    1STR   H15838995   4.755   5.878   8.613
    1STR   O15938996   4.962   5.879   8.635
    1STR   C16038997   4.983   5.980   8.731
    1STR   H16138998   4.991   5.930   8.827
    1STR   C16238999   5.121   6.037   8.699
    1STR   H16339000   5.128   6.071   8.596
    1STR   H16439001   5.198   5.961   8.713
    1STR   H16539002   5.146   6.120   8.765
    1STR   C16639003   4.871   6.089   8.733
    1STR   H16739004   4.899   6.173   8.795
    1STR   H16839005   4.857   6.128   8.633
    1STR   O16939006   4.748   6.034   8.778
    1STR   C17039007   4.686   6.077   8.899
    1STR   H17139008   4.650   6.178   8.884
    1STR   C17239009   4.566   5.983   8.915
    1STR   H17339010   4.583   5.890   8.863
    1STR   H17439011   4.474   6.025   8.877
    1STR   H17539012   4.549   5.953   9.018
    1STR   C17639013   4.772   6.078   9.027
    1STR   H17739014   4.760   6.176   9.070
    1STR   H17839015   4.732   6.010   9.101
    1STR   O17939016   4.907   6.045   9.002
    1STR   C18039017   5.009   6.102   9.081
    1STR   H18139018   5.099   6.049   9.049
    1STR   C18239019   5.016   6.246   9.029
    1STR   H18339020   4.925   6.281   8.982
    1STR   H18439021   5.094   6.254   8.954
    1STR   H18539022   5.032   6.314   9.111
    1STR   C18639023   4.999   6.084   9.235
    1STR   H18739024   5.028   6.177   9.280
    1STR   H18839025   4.896   6.074   9.265
    1STR   O18939026   5.084   5.984   9.296
    1STR   C19039027   5.093   5.997   0.120
    1STR   H19139028   5.109   6.101   0.141
    1STR   C19239029   4.964   5.958   0.189
    1STR   H19339030   4.878   6.005   0.147
    1STR   H19439031   4.966   5.995   0.290
    1STR   H19539032   4.952   5.852   0.198
    1STR   C19639033   5.207   5.921   0.190
    1STR   H19739034   5.206   5.815   0.164
    1STR   H19839035   5.302   5.960   0.155
    1STR   O19939036   5.198   5.942   0.333
    1STR   C20039037   5.143   5.834   0.409
    1STR   H20139038   5.078   5.776   0.346
    1STR   C20239039   5.263   5.749   0.452
    1STR   H20339040   5.331   5.807   0.513
    1STR   H20439041   5.318   5.713   0.365
    1STR   H20539042   5.231   5.662   0.509
    1STR   C20639043   5.056   5.873   0.532
    1STR   H20739044   5.043   5.784   0.593
    1STR   H20839045   5.109   5.946   0.593
    1STR   O20939046   4.924   5.922   0.502
    1STR   C21039047   4.825   5.920   0.607
    1STR   H21139048   4.794   5.817   0.608
    1STR   C21239049   4.884   5.951   0.746
    1STR   H21339050   4.938   6.045   0.746
    1STR   H21439051   4.951   5.873   0.782
    1STR   H21539052   4.804   5.960   0.820
    1STR   C21639053   4.700   6.012   0.585
    1STR   H21739054   4.623   5.994   0.660
    1STR   H21839055   4.738   6.108   0.608
    1STR   O21939056   4.639   6.027   0.456
    1STR   C22039057   4.519   6.108   0.442
    1STR   H22139058   4.531   6.199   0.501
    1STR   C22239059   4.525   6.159   0.300
    1STR   H22339060   4.607   6.113   0.247
    1STR   H22439061   4.532   6.267   0.298
    1STR   H22539062   4.440   6.133   0.239
    1STR   C22639063   4.373   6.047   0.446
    1STR   H22739064   4.307   6.115   0.397
    1STR   H22839065   4.367   5.963   0.377
    1STR   O22939066   4.313   6.009   0.570
    1STR   C23039067   4.204   6.093   0.609
    1STR   H23139068   4.224   6.191   0.568
    1STR   C23239069   4.065   6.065   0.552
    1STR   H23339070   4.013   5.983   0.602
    1STR   H23439071   4.068   6.043   0.445
    1STR   H23539072   4.004   6.154   0.561
    1STR   C23639073   4.198   6.100   0.763
    1STR   H23739074   4.125   6.174   0.792
    1STR   H23839075   4.162   6.004   0.801
    1STR   O23939076   4.322   6.127   0.828
    1STR   C24039077   4.402   6.227   0.766
    1STR   H24139078   4.431   6.186   0.671
    1STR   C24239079   4.325   6.356   0.741
    1STR   H24339080   4.254   6.371   0.822
    1STR   H24439081   4.264   6.359   0.653
    1STR   H24539082   4.395   6.439   0.734
    1STR   C24639083   4.534   6.252   0.839
    1STR   H24739084   4.529   6.346   0.894
    1STR   H24839085   4.553   6.173   0.910
    1STR   O24939086   4.637   6.250   0.741
    1STR   C25039087   4.741   6.347   0.747
    1STR   H25139088   4.693   6.441   0.724
    1STR   C25239089   4.805   6.344   0.886
    1STR   H25339090   4.836   6.243   0.913
    1STR   H25439091   4.735   6.380   0.962
    1STR   H25539092   4.892   6.409   0.891
    1STR   C25639093   4.849   6.328   0.638
    1STR   H25739094   4.909   6.417   0.627
    1STR   H25839095   4.917   6.252   0.675
    1STR   O25939096   4.801   6.291   0.508
    1STR   C26039097   4.897   6.291   0.401
    1STR   H26139098   4.928   6.394   0.382
    1STR   C26239099   5.023   6.217   0.448
    1STR   H26339100   4.998   6.137   0.516
    1STR   H26439101   5.091   6.283   0.500
    1STR   H26539102   5.077   6.170   0.367
    1STR   C26639103   4.840   6.230   0.269
    1STR   H26739104   4.923   6.217   0.200
    1STR   H26839105   4.804   6.132   0.297
    1STR   O26939106   4.733   6.300   0.203
    1STR   C27039107   4.709   6.311   0.060
    1STR   H27139108   4.654   6.402   0.066
    1STR   C27239109   4.832   6.355   9.301
    1STR   H27339110   4.839   6.304   9.207
    1STR   H27439111   4.922   6.342   0.037
    1STR   H27539112   4.829   6.460   9.278
    1STR   C27639113   4.604   6.236   9.294
    1STR   H27739114   4.600   6.291   9.201
    1STR   H27839115   4.642   6.138   9.266
    1STR   O27939116   4.466   6.229   0.017
    1STR   C28039117   4.363   6.224   9.236
    1STR   H28139118   4.369   6.319   9.185
    1STR   C28239119   4.386   6.130   9.119
    1STR   H28339120   4.377   6.026   9.146
    1STR   H28439121   4.482   6.152   9.075
    1STR   H28539122   4.313   6.148   9.040
    1STR   C28639123   4.216   6.208   9.288
    1STR   H28739124   4.164   6.303   9.296
    1STR   H28839125   4.157   6.155   9.214
    1STR   O28939126   4.202   6.137   0.088
    1STR   C29039127   4.150   6.208   0.201
    1STR   H29139128   4.148   6.127   0.272
    1STR   C29239129   4.244   6.317   0.252
    1STR   H29339130   4.341   6.317   0.204
    1STR   H29439131   4.258   6.315   0.360
    1STR   H29539132   4.204   6.416   0.233
    1STR   C29639133   4.005   6.260   0.195
    1STR   H29739134   4.003   6.369   0.192
    1STR   H29839135   3.953   6.224   0.106
    1STR   O29939136   3.940   6.216   0.314
    1STR   C30039137   3.812   6.270   0.336
    1STR   H30139138   3.796   6.355   0.271
    1STR   C30239139   3.711   6.159   0.310
    1STR   H30339140   3.735   6.070   0.368
    1STR   H30439141   3.711   6.130   0.204
    1STR   H30539142   3.609   6.188   0.336
    1STR   C30639143   3.801   6.328   0.478
    1STR   H30739144   3.702   6.371   0.491
    1STR   H30839145   3.813   6.250   0.552
    1STR   O30939146   3.900   6.429   0.493
    1STR    H1R39147   3.779   6.558   0.598
    1STR    H1S39148   3.905   6.515   0.817
    1STR    H1T39149   4.007   6.399   0.731
    1STR    H1U39150   3.835   6.367   0.752
    1STR    H1V39151   3.962   6.713   0.661
    1STR    H1W39152   3.954   6.691   0.490
    1STR    H1X39153   4.316   6.526   0.600
    1STR    H1Y39154   4.537   6.453   0.575
    1STR    H1Z39155   4.745   6.492   0.455
    1STR    H2039156   4.853   6.492   0.209
    1STR    H2139157   4.783   6.611   0.105
    1STR    H2239158   4.852   6.656   0.254
    1STR    H2339159   4.627   6.631   0.032
    1STR    H2739160   4.326   6.627   0.243
    1STR    H2839161   4.458   5.189   0.659
    1STR    H2939162   4.221   5.235   0.689
    1STR    H2A39163   3.966   5.199   0.425
    1STR    H2B39164   4.032   5.315   0.539
    1STR    H2C39165   3.978   5.160   0.600
    1STR   BCK139166   5.086   5.095   2.043
    1STR    O0339167   5.020   5.197   2.048
    1STR    N0439168   5.149   5.050   1.935
    1STR    C0539169   5.124   5.085   1.804
    1STR    C0639170   4.994   5.069   1.756
    1STR    C0739171   4.957   5.112   1.628
    1STR    N0839172   4.821   5.126   1.602
    1STR    C0939173   4.740   5.027   1.571
    1STR    O0A39174   4.785   4.917   1.545
    1STR    O0B39175   4.604   5.054   1.584
    1STR    C0C39176   4.547   5.185   1.602
    1STR    C0D39177   4.396   5.190   1.570
    1STR    C0E39178   4.570   5.245   1.741
    1STR    O0F39179   4.660   5.166   1.816
    1STR    C0G39180   4.741   5.232   1.910
    1STR    C0H39181   4.839   5.326   1.835
    1STR    C0I39182   4.659   5.288   2.028
    1STR    O0J39183   4.659   5.216   2.150
    1STR    C0K39184   4.851   6.559   2.248
    1STR    C0M39185   4.760   6.593   2.365
    1STR    C0N39186   4.929   6.671   2.188
    1STR    O0O39187   4.941   6.647   2.049
    1STR    C0P39188   5.001   6.742   1.984
    1STR    O0Q39189   5.003   6.858   2.026
    1STR    N0R39190   5.071   6.705   1.877
    1STR    C0S39191   5.053   6.607   1.781
    1STR    C0T39192   5.160   6.536   1.722
    1STR    C0U39193   5.137   6.439   1.623
    1STR    C0V39194   5.007   6.414   1.576
    1STR    C0W39195   4.983   6.306   1.472
    1STR    C0X39196   4.899   6.489   1.628
    1STR    N0Y39197   4.771   6.466   1.579
    1STR   BCK239198   4.659   6.493   1.645
    1STR    O1039199   4.655   6.530   1.761
    1STR    C1339200   4.925   6.587   1.727
    1STR    C1439201   5.057   5.157   1.540
    1STR    C1539202   5.190   5.166   1.583
    1STR    C1639203   5.223   5.135   1.716
    1STR    C1739204   5.362   5.167   1.763
    1STR    H1B39205   5.209   4.971   1.953
    1STR    H1C39206   4.918   5.032   1.823
    1STR    H1D39207   4.773   5.187   1.668
    1STR    H1E39208   4.595   5.248   1.528
    1STR    H1F39209   4.330   5.195   1.657
    1STR    H1G39210   4.370   5.279   1.514
    1STR    H1H39211   4.364   5.101   1.516
    1STR    H1I39212   4.478   5.262   1.796
    1STR    H1J39213   4.611   5.343   1.724
    1STR    H1K39214   4.803   5.155   1.953
    1STR    H1M39215   4.825   5.333   1.728
    1STR    H1N39216   4.942   5.295   1.848
    1STR    H1O39217   4.843   5.429   1.864
    1STR    H1P39218   4.703   5.380   2.049
    1STR    H1Q39219   4.558   5.315   1.999
    1STR   C01039220   4.693   5.291   2.268
    1STR   H01139221   4.792   5.335   2.253
    1STR   C01239222   4.594   5.404   2.298
    1STR   H01339223   4.522   5.376   2.374
    1STR   H01439224   4.540   5.440   2.211
    1STR   H01539225   4.646   5.489   2.342
    1STR   C01639226   4.702   5.195   2.387
    1STR   H01739227   4.653   5.233   2.476
    1STR   H01839228   4.651   5.103   2.364
    1STR   O01939229   4.836   5.158   2.412
    1STR   C02039230   4.896   5.225   2.520
    1STR   H02139231   4.829   5.295   2.567
    1STR   C02239232   4.931   5.120   2.624
    1STR   H02339233   5.029   5.134   2.668
    1STR   H02439234   4.931   5.021   2.579
    1STR   H02539235   4.860   5.123   2.705
    1STR   C02639236   5.014   5.305   2.469
    1STR   H02739237   5.103   5.247   2.463
    1STR   H02839238   4.994   5.333   2.365
    1STR   O02939239   5.030   5.424   2.544
    1STR   C03039240   5.126   5.433   2.648
    1STR   H03139241   5.120   5.539   2.670
    1STR   C03239242   5.083   5.362   2.777
    1STR   H03339243   5.106   5.420   2.866
    1STR   H03439244   5.134   5.267   2.791
    1STR   H03539245   4.976   5.341   2.779
    1STR   C03639246   5.273   5.408   2.609
    1STR   H03739247   5.337   5.485   2.653
    1STR   H03839248   5.305   5.316   2.655
    1STR   O03939249   5.304   5.389   2.471
    1STR   C04039250   5.281   5.497   2.382
    1STR   H04139251   5.184   5.535   2.404
    1STR   C04239252   5.388   5.604   2.402
    1STR   H04339253   5.488   5.562   2.387
    1STR   H04439254   5.383   5.645   2.502
    1STR   H04539255   5.374   5.686   2.332
    1STR   C04639256   5.270   5.447   2.237
    1STR   H04739257   5.363   5.398   2.208
    1STR   H04839258   5.191   5.373   2.227
    1STR   O04939259   5.235   5.559   2.154
    1STR   C05039260   5.282   5.560   2.020
    1STR   H05139261   5.239   5.650   1.976
    1STR   C05239262   5.435   5.579   2.023
    1STR   H05339263   5.487   5.489   2.055
    1STR   H05439264   5.462   5.659   2.091
    1STR   H05539265   5.473   5.604   1.924
    1STR   C05639266   5.239   5.439   1.933
    1STR   H05739267   5.324   5.402   1.878
    1STR   H05839268   5.211   5.354   1.997
    1STR   O05939269   5.130   5.458   1.841
    1STR   C06039270   5.139   5.555   1.737
    1STR   H06139271   5.125   5.655   1.779
    1STR   C06239272   5.275   5.547   1.666
    1STR   H06339273   5.292   5.446   1.629
    1STR   H06439274   5.358   5.574   1.731
    1STR   H06539275   5.279   5.615   1.581
    1STR   C06639276   5.027   5.527   1.635
    1STR   H06739277   5.062   5.559   1.537
    1STR   H06839278   5.011   5.420   1.627
    1STR   O06939279   4.903   5.593   1.663
    1STR   C07039280   4.821   5.615   1.548
    1STR   H07139281   4.881   5.664   1.471
    1STR   C07239282   4.774   5.483   1.488
    1STR   H07339283   4.726   5.422   1.563
    1STR   H07439284   4.858   5.426   1.450
    1STR   H07539285   4.704   5.499   1.406
    1STR   C07639286   4.705   5.714   1.575
    1STR   H07739287   4.740   5.814   1.551
    1STR   H07839288   4.619   5.699   1.509
    1STR   O07939289   4.667   5.726   1.711
    1STR   C08039290   4.570   5.640   1.768
    1STR   H08139291   4.493   5.708   1.798
    1STR   C08239292   4.478   5.556   1.677
    1STR   H08339293   4.530   5.496   1.604
    1STR   H08439294   4.412   5.622   1.620
    1STR   H08539295   4.413   5.492   1.736
    1STR   C08639296   4.629   5.576   1.898
    1STR   H08739297   4.552   5.562   1.974
    1STR   H08839298   4.651   5.478   1.867
    1STR   O08939299   4.748   5.638   1.953
    1STR   C09039300   4.800   5.594   2.081
    1STR   H09139301   4.722   5.550   2.140
    1STR   C09239302   4.925   5.506   2.079
    1STR   H09339303   4.907   5.402   2.063
    1STR   H09439304   4.981   5.507   2.172
    1STR   H09539305   4.993   5.544   2.003
    1STR   C09639306   4.839   5.711   2.166
    1STR   H09739307   4.944   5.726   2.156
    1STR   H09839308   4.790   5.798   2.123
    1STR   O09939309   4.799   5.694   2.302
    1STR   C10039310   4.872   5.620   2.397
    1STR   H10139311   4.887   5.518   2.364
    1STR   C10239312   5.001   5.697   2.406
    1STR   H10339313   5.063   5.686   2.319
    1STR   H10439314   5.059   5.668   2.492
    1STR   H10539315   4.974   5.802   2.417
    1STR   C10639316   4.801   5.622   2.535
    1STR   H10739317   4.881   5.637   2.607
    1STR   H10839318   4.737   5.708   2.545
    1STR   O10939319   4.728   5.503   2.570
    1STR   C11039320   4.695   5.478   2.708
    1STR   H11139321   4.704   5.371   2.727
    1STR   C11239322   4.783   5.554   2.809
    1STR   H11339323   4.771   5.662   2.796
    1STR   H11439324   4.889   5.534   2.798
    1STR   H11539325   4.757   5.533   2.913
    1STR   C11639326   4.550   5.517   2.738
    1STR   H11739327   4.538   5.536   2.844
    1STR   H11839328   4.549   5.615   2.698
    1STR   O11939329   4.443   5.430   2.693
    1STR   C12039330   4.314   5.494   2.682
    1STR   H12139331   4.326   5.595   2.709
    1STR   C12239332   4.267   5.491   2.538
    1STR   H12339333   4.187   5.421   2.527
    1STR   H12439334   4.346   5.465   2.468
    1STR   H12539335   4.224   5.588   2.510
    1STR   C12639336   4.194   5.473   2.773
    1STR   H12739337   4.117   5.531   2.724
    1STR   H12839338   4.159   5.370   2.771
    1STR   O12939339   4.205   5.534   2.902
    1STR   C13039340   4.082   5.579   2.959
    1STR   H13139341   3.998   5.517   2.927
    1STR   C13239342   4.095   5.569   3.112
    1STR   H13339343   4.196   5.594   3.144
    1STR   H13439344   4.071   5.469   3.148
    1STR   H13539345   4.026   5.635   3.164
    1STR   C13639346   4.056   5.726   2.921
    1STR   H13739347   3.983   5.769   2.989
    1STR   H13839348   4.149   5.780   2.935
    1STR   O13939349   4.005   5.739   2.789
    1STR   C14039350   4.006   5.870   2.734
    1STR   H14139351   3.965   5.860   2.633
    1STR   C14239352   3.917   5.967   2.813
    1STR   H14339353   3.954   5.984   2.913
    1STR   H14439354   3.815   5.928   2.821
    1STR   H14539355   3.913   6.064   2.764
    1STR   C14639356   4.148   5.923   2.718
    1STR   H14739357   4.153   6.008   2.650
    1STR   H14839358   4.187   5.959   2.814
    1STR   O14939359   4.224   5.815   2.669
    1STR   C15039360   4.364   5.831   2.679
    1STR   H15139361   4.386   5.937   2.684
    1STR   C15239362   4.413   5.796   2.822
    1STR   H15339363   4.366   5.711   2.869
    1STR   H15439364   4.395   5.880   2.890
    1STR   H15539365   4.520   5.779   2.824
    1STR   C15639366   4.425   5.762   2.551
    1STR   H15739367   4.532   5.763   2.541
    1STR   H15839368   4.425   5.657   2.554
    1STR   O15939369   4.360   5.784   2.427
    1STR   C16039370   4.418   5.710   2.319
    1STR   H16139371   4.453   5.615   2.359
    1STR   C16239372   4.318   5.663   2.217
    1STR   H16339373   4.363   5.635   2.123
    1STR   H16439374   4.244   5.740   2.201
    1STR   H16539375   4.267   5.575   2.255
    1STR   C16639376   4.547   5.763   2.263
    1STR   H16739377   4.607   5.771   2.352
    1STR   H16839378   4.585   5.688   2.197
    1STR   O16939379   4.579   5.888   2.207
    1STR   C17039380   4.511   5.940   2.095
    1STR   H17139381   4.577   6.020   2.065
    1STR   C17239382   4.513   5.853   1.976
    1STR   H17339383   4.484   5.754   2.006
    1STR   H17439384   4.614   5.852   1.934
    1STR   H17539385   4.443   5.885   1.900
    1STR   C17639386   4.376   5.995   2.135
    1STR   H17739387   4.339   6.079   2.079
    1STR   H17839388   4.299   5.919   2.128
    1STR   O17939389   4.409   6.031   2.265
    1STR   C18039390   4.322   6.099   2.345
    1STR   H18139391   4.312   6.200   2.306
    1STR   C18239392   4.188   6.018   2.341
    1STR   H18339393   4.203   5.912   2.327
    1STR   H18439394   4.126   6.050   2.257
    1STR   H18539395   4.132   6.023   2.433
    1STR   C18639396   4.401   6.091   2.478
    1STR   H18739397   4.368   6.162   2.554
    1STR   H18839398   4.363   5.997   2.506
    1STR   O18939399   4.545   6.081   2.470
    1STR   C19039400   4.626   6.021   2.575
    1STR   H19139401   4.576   5.933   2.595
    1STR   C19239402   4.764   5.976   2.531
    1STR   H19339403   4.759   5.925   2.436
    1STR   H19439404   4.809   5.907   2.602
    1STR   H19539405   4.833   6.060   2.527
    1STR   C19639406   4.635   6.071   2.718
    1STR   H19739407   4.711   6.149   2.725
    1STR   H19839408   4.538   6.109   2.747
    1STR   O19939409   4.667   5.952   2.793
    1STR   C20039410   4.746   5.963   2.910
    1STR   H20139411   4.720   6.055   2.958
    1STR   C20239412   4.707   5.858   3.014
    1STR   H20339413   4.728   5.757   2.980
    1STR   H20439414   4.601   5.865   3.038
    1STR   H20539415   4.763   5.873   3.106
    1STR   C20639416   4.897   5.964   2.877
    1STR   H20739417   4.919   6.038   2.799
    1STR   H20839418   4.952   5.992   2.967
    1STR   O20939419   4.951   5.840   2.838
    1STR   C21039420   5.093   5.849   2.821
    1STR   H21139421   5.137   5.937   2.868
    1STR   C21239422   5.148   5.727   2.893
    1STR   H21339423   5.096   5.638   2.859
    1STR   H21439424   5.130   5.735   3.000
    1STR   H21539425   5.255   5.715   2.877
    1STR   C21639426   5.125   5.856   2.670
    1STR   H21739427   5.199   5.780   2.643
    1STR   H21839428   5.033   5.836   2.617
    1STR   O21939429   5.166   5.986   2.634
    1STR   C22039430   5.252   6.004   2.521
    1STR   H22139431   5.259   6.112   2.512
    1STR   C22239432   5.394   5.961   2.559
    1STR   H22339433   5.403   5.853   2.573
    1STR   H22439434   5.423   6.008   2.653
    1STR   H22539435   5.466   5.992   2.484
    1STR   C22639436   5.204   5.950   2.382
    1STR   H22739437   5.275   5.978   2.304
    1STR   H22839438   5.207   5.842   2.382
    1STR   O22939439   5.071   5.995   2.350
    1STR   C23039440   5.025   6.030   2.217
    1STR   H23139441   5.066   6.124   2.186
    1STR   C23239442   5.067   5.928   2.111
    1STR   H23339443   5.113   5.839   2.154
    1STR   H23439444   5.140   5.967   2.043
    1STR   H23539445   4.983   5.902   2.047
    1STR   C23639446   4.873   6.057   2.232
    1STR   H23739447   4.815   5.967   2.240
    1STR   H23839448   4.873   6.101   2.329
    1STR   O23939449   4.805   6.150   2.146
    1STR   C24039450   4.678   6.201   2.196
    1STR   H24139451   4.617   6.120   2.232
    1STR   C24239452   4.701   6.271   2.327
    1STR   H24339453   4.787   6.331   2.320
    1STR   H24439454   4.723   6.208   2.411
    1STR   H24539455   4.614   6.327   2.356
    1STR   C24639456   4.595   6.296   2.101
    1STR   H24739457   4.539   6.363   2.166
    1STR   H24839458   4.657   6.370   2.051
    1STR   O24939459   4.481   6.249   2.023
    1STR   C25039460   4.479   6.190   1.891
    1STR   H25139461   4.478   6.085   1.905
    1STR   C25239462   4.338   6.205   1.832
    1STR   H25339463   4.289   6.294   1.871
    1STR   H25439464   4.275   6.122   1.862
    1STR   H25539465   4.338   6.207   1.723
    1STR   C25639466   4.599   6.193   1.795
    1STR   H25739467   4.629   6.092   1.766
    1STR   H25839468   4.580   6.246   1.703
    1STR   O25939469   4.700   6.254   1.867
    1STR   C26039470   4.833   6.238   1.831
    1STR   H26139471   4.844   6.260   1.726
    1STR   C26239472   4.900   6.345   1.916
    1STR   H26339473   4.903   6.320   2.021
    1STR   H26439474   4.845   6.439   1.913
    1STR   H26539475   5.001   6.362   1.881
    1STR   C26639476   4.886   6.099   1.863
    1STR   H26739477   4.969   6.108   1.933
    1STR   H26839478   4.811   6.037   1.912
    1STR   O26939479   4.925   6.043   1.739
    1STR   C27039480   5.047   5.973   1.741
    1STR   H27139481   5.052   5.904   1.826
    1STR   C27239482   5.044   5.891   1.613
    1STR   H27339483   5.035   5.954   1.525
    1STR   H27439484   4.957   5.827   1.617
    1STR   H27539485   5.132   5.828   1.603
    1STR   C27639486   5.167   6.069   1.740
    1STR   H27739487   5.251   6.019   1.693
    1STR   H27839488   5.144   6.156   1.678
    1STR   O27939489   5.202   6.113   1.870
    1STR   C28039490   5.341   6.123   1.895
    1STR   H28139491   5.386   6.027   1.867
    1STR   C28239492   5.401   6.235   1.809
    1STR   H28339493   5.357   6.331   1.836
    1STR   H28439494   5.384   6.220   1.702
    1STR   H28539495   5.509   6.242   1.824
    1STR   C28639496   5.367   6.139   2.046
    1STR   H28739497   5.290   6.092   2.106
    1STR   H28839498   5.459   6.087   2.072
    1STR   O28939499   5.387   6.274   2.085
    1STR   C29039500   5.290   6.342   2.163
    1STR   H29139501   5.326   6.442   2.181
    1STR   C29239502   5.168   6.364   2.077
    1STR   H29339503   5.117   6.272   2.053
    1STR   H29439504   5.197   6.410   1.983
    1STR   H29539505   5.099   6.434   2.121
    1STR   C29639506   5.277   6.275   2.301
    1STR   H29739507   5.226   6.181   2.293
    1STR   H29839508   5.375   6.248   2.337
    1STR   O29939509   5.217   6.353   2.402
    1STR   C30039510   5.077   6.335   2.413
    1STR   H30139511   5.038   6.278   2.329
    1STR   C30239512   5.037   6.254   2.535
    1STR   H30339513   5.111   6.262   2.614
    1STR   H30439514   5.031   6.149   2.513
    1STR   H30539515   4.938   6.280   2.572
    1STR   C30639516   5.014   6.472   2.408
    1STR   H30739517   4.946   6.485   2.492
    1STR   H30839518   5.088   6.552   2.412
    1STR   O30939519   4.948   6.466   2.283
    1STR    H1R39520   4.789   6.515   2.169
    1STR    H1S39521   4.673   6.648   2.334
    1STR    H1T39522   4.812   6.648   2.440
    1STR    H1U39523   4.726   6.506   2.418
    1STR    H1V39524   5.029   6.672   2.229
    1STR    H1W39525   4.889   6.770   2.214
    1STR    H1X39526   5.153   6.766   1.874
    1STR    H1Y39527   5.262   6.552   1.749
    1STR    H1Z39528   5.221   6.384   1.584
    1STR    H2039529   4.913   6.232   1.509
    1STR    H2139530   4.944   6.350   1.380
    1STR    H2239531   5.076   6.254   1.448
    1STR    H2339532   4.762   6.420   1.491
    1STR    H2739533   4.847   6.649   1.768
    1STR    H2839534   5.034   5.189   1.440
    1STR    H2939535   5.265   5.203   1.516
    1STR    H2A39536   5.399   5.259   1.719
    1STR    H2B39537   5.432   5.088   1.738
    1STR    H2C39538   5.359   5.181   1.871
    1STR   BCK139539   4.328   5.139   4.768
    1STR    O0339540   4.355   5.044   4.836
    1STR    N0439541   4.238   5.232   4.800
    1STR    C0539542   4.172   5.253   4.922
    1STR    C0639543   4.250   5.255   5.040
    1STR    C0739544   4.201   5.317   5.157
    1STR    N0839545   4.292   5.351   5.257
    1STR    C0939546   4.273   5.395   5.381
    1STR    O0A39547   4.164   5.400   5.436
    1STR    O0B39548   4.387   5.433   5.443
    1STR    C0C39549   4.488   5.517   5.387
    1STR    C0D39550   4.498   5.632   5.489
    1STR    C0E39551   4.628   5.451   5.366
    1STR    O0F39552   4.659   5.435   5.227
    1STR    C0G39553   4.763   5.345   5.187
    1STR    C0H39554   4.694   5.249   5.093
    1STR    C0I39555   4.889   5.388   5.108
    1STR    O0J39556   4.970   5.273   5.093
    1STR    C0K39557   4.060   6.387   4.085
    1STR    C0M39558   4.105   6.431   3.946
    1STR    C0N39559   3.947   6.281   4.074
    1STR    O0O39560   3.888   6.261   4.201
    1STR    C0P39561   3.773   6.193   4.214
    1STR    O0Q39562   3.706   6.151   4.120
    1STR    N0R39563   3.735   6.170   4.340
    1STR    C0S39564   3.784   6.215   4.464
    1STR    C0T39565   3.730   6.162   4.584
    1STR    C0U39566   3.759   6.225   4.707
    1STR    C0V39567   3.852   6.331   4.715
    1STR    C0W39568   3.893   6.392   4.848
    1STR    C0X39569   3.912   6.380   4.598
    1STR    N0Y39570   4.015   6.474   4.612
    1STR   BCK239571   4.087   6.551   4.532
    1STR    O1039572   4.189   6.604   4.572
    1STR    C1339573   3.877   6.320   4.476
    1STR    C1439574   4.066   5.357   5.162
    1STR    C1539575   3.986   5.350   5.048
    1STR    C1639576   4.041   5.308   4.925
    1STR    C1739577   3.958   5.334   4.802
    1STR    H1B39578   4.240   5.308   4.732
    1STR    H1C39579   4.352   5.222   5.035
    1STR    H1D39580   4.391   5.340   5.237
    1STR    H1E39581   4.448   5.557   5.294
    1STR    H1F39582   4.519   5.598   5.590
    1STR    H1G39583   4.578   5.700   5.463
    1STR    H1H39584   4.404   5.687   5.493
    1STR    H1I39585   4.637   5.360   5.423
    1STR    H1J39586   4.707   5.513   5.409
    1STR    H1K39587   4.805   5.300   5.274
    1STR    H1M39588   4.587   5.242   5.109
    1STR    H1N39589   4.744   5.154   5.098
    1STR    H1O39590   4.711   5.272   4.989
    1STR    H1P39591   4.860   5.424   5.010
    1STR    H1Q39592   4.949   5.464   5.156
    1STR   C01039593   5.064   5.275   4.987
    1STR   H01139594   5.099   5.376   4.969
    1STR   C01239595   5.181   5.187   5.025
    1STR   H01339596   5.153   5.083   5.039
    1STR   H01439597   5.234   5.223   5.112
    1STR   H01539598   5.247   5.184   4.939
    1STR   C01639599   5.007   5.210   4.862
    1STR   H01739600   5.084   5.202   4.784
    1STR   H01839601   4.974   5.109   4.886
    1STR   O01939602   4.902   5.286   4.811
    1STR   C02039603   4.850   5.226   4.696
    1STR   H02139604   4.859   5.119   4.700
    1STR   C02239605   4.706   5.266   4.694
    1STR   H02339606   4.698   5.372   4.699
    1STR   H02439607   4.650   5.231   4.778
    1STR   H02539608   4.657   5.234   4.602
    1STR   C02639609   4.906   5.271   4.563
    1STR   H02739610   4.873   5.195   4.494
    1STR   H02839611   4.846   5.355   4.537
    1STR   O02939612   5.043   5.312   4.543
    1STR   C03039613   5.055   5.409   4.436
    1STR   H03139614   5.002   5.480   4.487
    1STR   C03239615   5.170   5.511   4.443
    1STR   H03339616   5.205   5.536   4.344
    1STR   H03439617   5.250   5.475   4.506
    1STR   H03539618   5.141   5.608   4.486
    1STR   C03639619   4.979   5.385   4.298
    1STR   H03739620   4.959   5.481   4.251
    1STR   H03839621   5.047   5.337   4.229
    1STR   O03939622   4.859   5.304   4.306
    1STR   C04039623   4.730   5.347   4.259
    1STR   H04139624   4.699   5.444   4.290
    1STR   C04239625   4.744   5.346   4.108
    1STR   H04339626   4.778   5.249   4.073
    1STR   H04439627   4.818   5.418   4.077
    1STR   H04539628   4.649   5.368   4.060
    1STR   C04639629   4.615   5.256   4.307
    1STR   H04739630   4.557   5.226   4.221
    1STR   H04839631   4.662   5.168   4.348
    1STR   O04939632   4.524   5.293   4.413
    1STR   C05039633   4.413   5.381   4.392
    1STR   H05139634   4.469   5.469   4.375
    1STR   C05239635   4.339   5.350   4.259
    1STR   H05339636   4.245   5.403   4.251
    1STR   H05439637   4.317   5.245   4.241
    1STR   H05539638   4.400   5.381   4.175
    1STR   C05639639   4.313   5.422   4.508
    1STR   H05739640   4.299   5.524   4.488
    1STR   H05839641   4.215   5.379   4.491
    1STR   O05939642   4.339   5.434   4.651
    1STR   C06039643   4.274   5.540   4.730
    1STR   H06139644   4.327   5.631   4.715
    1STR   C06239645   4.128   5.576   4.699
    1STR   H06339646   4.064   5.556   4.783
    1STR   H06439647   4.087   5.529   4.610
    1STR   H06539648   4.118   5.684   4.691
    1STR   C06639649   4.295   5.527   4.882
    1STR   H06739650   4.205   5.541   4.942
    1STR   H06839651   4.328   5.428   4.896
    1STR   O06939652   4.395   5.609   4.936
    1STR   C07039653   4.501   5.538   5.000
    1STR   H07139654   4.462   5.474   5.079
    1STR   C07239655   4.566   5.453   4.893
    1STR   H07339656   4.541   5.486   4.793
    1STR   H07439657   4.528   5.351   4.900
    1STR   H07539658   4.674   5.452   4.899
    1STR   C07639659   4.594   5.642   5.063
    1STR   H07739660   4.565   5.734   5.020
    1STR   H07839661   4.575   5.654   5.168
    1STR   O07939662   4.733   5.618   5.042
    1STR   C08039663   4.823   5.711   5.098
    1STR   H08139664   4.779   5.806   5.080
    1STR   C08239665   4.840   5.698   5.251
    1STR   H08339666   4.868   5.599   5.284
    1STR   H08439667   4.747   5.724   5.302
    1STR   H08539668   4.916   5.766   5.289
    1STR   C08639669   4.954   5.719   5.017
    1STR   H08739670   4.943   5.807   4.953
    1STR   H08839671   5.040   5.739   5.080
    1STR   O08939672   4.977   5.603   4.940
    1STR   C09039673   5.020   5.624   4.807
    1STR   H09139674   5.019   5.727   4.783
    1STR   C09239675   5.166   5.580   4.795
    1STR   H09339676   5.174   5.472   4.790
    1STR   H09439677   5.224   5.616   4.879
    1STR   H09539678   5.211   5.620   4.704
    1STR   C09639679   4.924   5.558   4.708
    1STR   H09739680   4.977   5.469   4.685
    1STR   H09839681   4.837   5.520   4.760
    1STR   O09939682   4.893   5.643   4.595
    1STR   C10039683   4.806   5.606   4.485
    1STR   H10139684   4.835   5.525   4.427
    1STR   C10239685   4.674   5.547   4.522
    1STR   H10339686   4.640   5.567   4.621
    1STR   H10439687   4.667   5.442   4.507
    1STR   H10539688   4.608   5.587   4.449
    1STR   C10639689   4.807   5.705   4.368
    1STR   H10739690   4.741   5.787   4.387
    1STR   H10839691   4.907   5.745   4.360
    1STR   O10939692   4.775   5.641   4.244
    1STR   C11039693   4.758   5.724   4.132
    1STR   H11139694   4.691   5.803   4.161
    1STR   C11239695   4.898   5.765   4.084
    1STR   H11339696   4.959   5.677   4.064
    1STR   H11439697   4.950   5.826   4.157
    1STR   H11539698   4.893   5.823   3.992
    1STR   C11639699   4.684   5.658   4.015
    1STR   H11739700   4.668   5.733   3.938
    1STR   H11839701   4.751   5.585   3.974
    1STR   O11939702   4.560   5.592   4.041
    1STR   C12039703   4.453   5.677   4.075
    1STR   H12139704   4.475   5.775   4.038
    1STR   C12239705   4.321   5.633   4.010
    1STR   H12339706   4.290   5.534   4.042
    1STR   H12439707   4.328   5.634   3.901
    1STR   H12539708   4.239   5.699   4.037
    1STR   C12639709   4.446   5.666   4.226
    1STR   H12739710   4.374   5.591   4.245
    1STR   H12839711   4.541   5.636   4.265
    1STR   O12939712   4.407   5.784   4.290
    1STR   C13039713   4.352   5.775   4.418
    1STR   H13139714   4.325   5.876   4.442
    1STR   C13239715   4.210   5.712   4.398
    1STR   H13339716   4.201   5.619   4.345
    1STR   H13439717   4.152   5.776   4.335
    1STR   H13539718   4.155   5.705   4.490
    1STR   C13639719   4.448   5.749   4.540
    1STR   H13739720   4.397   5.791   4.624
    1STR   H13839721   4.452   5.644   4.560
    1STR   O13939722   4.584   5.801   4.539
    1STR   C14039723   4.656   5.840   4.660
    1STR   H14139724   4.601   5.921   4.697
    1STR   C14239725   4.645   5.749   4.778
    1STR   H14339726   4.722   5.675   4.785
    1STR   H14439727   4.552   5.695   4.781
    1STR   H14539728   4.661   5.810   4.865
    1STR   C14639729   4.802   5.897   4.665
    1STR   H14739730   4.802   5.989   4.723
    1STR   H14839731   4.860   5.834   4.731
    1STR   O14939732   4.879   5.920   4.547
    1STR   C15039733   5.021   5.913   4.567
    1STR   H15139734   5.049   5.811   4.591
    1STR   C15239735   5.087   5.934   4.430
    1STR   H15339736   5.035   6.010   4.372
    1STR   H15439737   5.086   5.844   4.370
    1STR   H15539738   5.192   5.961   4.440
    1STR   C15639739   5.077   6.001   4.683
    1STR   H15739740   5.162   6.058   4.649
    1STR   H15839741   5.003   6.070   4.724
    1STR   O15939742   5.122   5.919   4.789
    1STR   C16039743   5.191   5.977   4.899
    1STR   H16139744   5.208   5.892   4.965
    1STR   C16239745   5.328   6.028   4.855
    1STR   H16339746   5.321   6.121   4.798
    1STR   H16439747   5.378   5.953   4.793
    1STR   H16539748   5.392   6.048   4.941
    1STR   C16639749   5.110   6.081   4.981
    1STR   H16739750   5.162   6.092   5.076
    1STR   H16839751   5.112   6.179   4.933
    1STR   O16939752   4.973   6.045   4.996
    1STR   C17039753   4.913   6.044   5.126
    1STR   H17139754   4.934   5.947   5.170
    1STR   C17239755   4.968   6.148   5.225
    1STR   H17339756   4.895   6.171   5.302
    1STR   H17439757   4.998   6.241   5.177
    1STR   H17539758   5.056   6.109   5.277
    1STR   C17639759   4.760   6.055   5.103
    1STR   H17739760   4.735   6.148   5.059
    1STR   H17839761   4.731   5.990   5.020
    1STR   O17939762   4.681   6.038   5.221
    1STR   C18039763   4.564   5.960   5.198
    1STR   H18139764   4.607   5.870   5.162
    1STR   C18239765   4.495   5.907   5.323
    1STR   H18339766   4.399   5.953   5.341
    1STR   H18439767   4.558   5.914   5.411
    1STR   H18539768   4.467   5.804   5.304
    1STR   C18639769   4.462   6.009   5.093
    1STR   H18739770   4.363   5.983   5.128
    1STR   H18839771   4.462   6.117   5.080
    1STR   O18939772   4.490   5.936   4.976
    1STR   C19039773   4.390   5.919   4.877
    1STR   H19139774   4.419   5.833   4.821
    1STR   C19239775   4.255   5.871   4.934
    1STR   H19339776   4.206   5.946   4.992
    1STR   H19439777   4.269   5.789   5.004
    1STR   H19539778   4.189   5.834   4.856
    1STR   C19639779   4.403   6.037   4.781
    1STR   H19739780   4.337   6.115   4.817
    1STR   H19839781   4.502   6.071   4.802
    1STR   O19939782   4.405   6.010   4.637
    1STR   C20039783   4.486   6.089   4.544
    1STR   H20139784   4.425   6.174   4.524
    1STR   C20239785   4.628   6.137   4.582
    1STR   H20339786   4.704   6.082   4.528
    1STR   H20439787   4.654   6.134   4.686
    1STR   H20539788   4.644   6.239   4.551
    1STR   C20639789   4.496   6.042   4.399
    1STR   H20739790   4.543   5.947   4.385
    1STR   H20839791   4.399   6.047   4.353
    1STR   O20939792   4.580   6.129   4.329
    1STR   C21039793   4.615   6.093   4.199
    1STR   H21139794   4.631   6.189   4.155
    1STR   C21239795   4.753   6.030   4.211
    1STR   H21339796   4.785   5.989   4.116
    1STR   H21439797   4.756   5.957   4.290
    1STR   H21539798   4.830   6.099   4.240
    1STR   C21639799   4.507   6.022   4.112
    1STR   H21739800   4.544   5.996   4.014
    1STR   H21839801   4.491   5.930   4.162
    1STR   O21939802   4.384   6.094   4.103
    1STR   C22039803   4.260   6.037   4.059
    1STR   H22139804   4.200   6.126   4.040
    1STR   C22239805   4.266   5.968   3.922
    1STR   H22339806   4.334   5.883   3.920
    1STR   H22439807   4.297   6.036   3.844
    1STR   H22539808   4.167   5.932   3.895
    1STR   C22639809   4.185   5.961   4.170
    1STR   H22739810   4.147   5.865   4.135
    1STR   H22839811   4.254   5.945   4.250
    1STR   O22939812   4.078   6.036   4.223
    1STR   C23039813   4.013   6.000   4.347
    1STR   H23139814   3.963   6.093   4.359
    1STR   C23239815   3.906   5.891   4.330
    1STR   H23339816   3.944   5.792   4.311
    1STR   H23439817   3.841   5.917   4.246
    1STR   H23539818   3.843   5.888   4.419
    1STR   C23639819   4.089   6.001   4.481
    1STR   H23739820   4.133   5.908   4.508
    1STR   H23839821   4.173   6.070   4.470
    1STR   O23939822   4.008   6.028   4.597
    1STR   C24039823   4.087   6.065   4.711
    1STR   H24139824   4.167   5.993   4.716
    1STR   C24239825   4.146   6.201   4.676
    1STR   H24339826   4.139   6.273   4.756
    1STR   H24439827   4.105   6.242   4.585
    1STR   H24539828   4.248   6.192   4.646
    1STR   C24639829   4.018   6.067   4.851
    1STR   H24739830   3.925   6.118   4.841
    1STR   H24839831   3.992   5.966   4.882
    1STR   O24939832   4.096   6.134   4.952
    1STR   C25039833   4.040   6.170   5.081
    1STR   H25139834   4.060   6.277   5.090
    1STR   C25239835   3.888   6.148   5.095
    1STR   H25339836   3.865   6.041   5.099
    1STR   H25439837   3.829   6.191   5.015
    1STR   H25539838   3.852   6.194   5.187
    1STR   C25639839   4.107   6.102   5.204
    1STR   H25739840   4.042   6.116   5.291
    1STR   H25839841   4.109   5.994   5.189
    1STR   O25939842   4.239   6.144   5.238
    1STR   C26039843   4.255   6.215   5.361
    1STR   H26139844   4.182   6.184   5.436
    1STR   C26239845   4.392   6.188   5.421
    1STR   H26339846   4.464   6.169   5.342
    1STR   H26439847   4.390   6.102   5.488
    1STR   H26539848   4.429   6.272   5.479
    1STR   C26639849   4.240   6.364   5.334
    1STR   H26739850   4.135   6.381   5.313
    1STR   H26839851   4.259   6.421   5.425
    1STR   O26939852   4.317   6.401   5.220
    1STR   C27039853   4.438   6.475   5.234
    1STR   H27139854   4.443   6.535   5.144
    1STR   C27239855   4.445   6.566   5.354
    1STR   H27339856   4.472   6.513   5.445
    1STR   H27439857   4.353   6.622   5.372
    1STR   H27539858   4.523   6.638   5.333
    1STR   C27639859   4.569   6.396   5.230
    1STR   H27739860   4.650   6.468   5.236
    1STR   H27839861   4.584   6.334   5.318
    1STR   O27939862   4.576   6.317   5.114
    1STR   C28039863   4.641   6.380   5.005
    1STR   H28139864   4.592   6.476   4.992
    1STR   C28239865   4.790   6.390   5.044
    1STR   H28339866   4.812   6.322   5.125
    1STR   H28439867   4.813   6.484   5.091
    1STR   H28539868   4.860   6.371   4.964
    1STR   C28639869   4.615   6.295   4.881
    1STR   H28739870   4.701   6.231   4.863
    1STR   H28839871   4.531   6.233   4.909
    1STR   O28939872   4.586   6.366   4.760
    1STR   C29039873   4.453   6.362   4.708
    1STR   H29139874   4.433   6.259   4.702
    1STR   C29239875   4.357   6.407   4.812
    1STR   H29339876   4.404   6.484   4.872
    1STR   H29439877   4.327   6.329   4.883
    1STR   H29539878   4.268   6.444   4.762
    1STR   C29639879   4.431   6.421   4.564
    1STR   H29739880   4.416   6.528   4.565
    1STR   H29839881   4.523   6.406   4.510
    1STR   O29939882   4.322   6.361   4.490
    1STR   C30039883   4.308   6.393   4.351
    1STR   H30139884   4.297   6.499   4.339
    1STR   C30239885   4.425   6.351   4.268
    1STR   H30339886   4.416   6.387   4.167
    1STR   H30439887   4.412   6.246   4.257
    1STR   H30539888   4.524   6.363   4.306
    1STR   C30639889   4.189   6.317   4.287
    1STR   H30739890   4.206   6.212   4.301
    1STR   H30839891   4.098   6.335   4.340
    1STR   O30939892   4.181   6.342   4.146
    1STR    H1R39893   4.022   6.475   4.136
    1STR    H1S39894   4.024   6.481   3.891
    1STR    H1T39895   4.140   6.347   3.886
    1STR    H1U39896   4.187   6.502   3.954
    1STR    H1V39897   3.984   6.186   4.036
    1STR    H1W39898   3.871   6.315   4.005
    1STR    H1X39899   3.651   6.116   4.341
    1STR    H1Y39900   3.662   6.079   4.582
    1STR    H1Z39901   3.713   6.187   4.797
    1STR    H2039902   3.818   6.377   4.924
    1STR    H2139903   3.988   6.354   4.883
    1STR    H2239904   3.906   6.500   4.836
    1STR    H2339905   4.050   6.484   4.706
    1STR    H2739906   3.914   6.365   4.388
    1STR    H2839907   4.023   5.400   5.251
    1STR    H2939908   3.885   5.387   5.052
    1STR    H2A39909   3.904   5.428   4.808
    1STR    H2B39910   3.881   5.260   4.794
    1STR    H2C39911   4.017   5.330   4.710
    1STR   BCK139912   4.791   5.218   6.783
    1STR    O0339913   4.882   5.294   6.814
    1STR    N0439914   4.719   5.142   6.866
    1STR    C0539915   4.754   5.102   6.995
    1STR    C0639916   4.885   5.119   7.044
    1STR    C0739917   4.916   5.088   7.176
    1STR    N0839918   5.029   5.137   7.236
    1STR    C0939919   5.034   5.205   7.348
    1STR    O0A39920   4.954   5.205   7.441
    1STR    O0B39921   5.140   5.278   7.345
    1STR    C0C39922   5.133   5.411   7.303
    1STR    C0D39923   5.281   5.451   7.291
    1STR    C0E39924   5.029   5.451   7.189
    1STR    O0F39925   4.919   5.366   7.155
    1STR    C0G39926   4.778   5.372   7.186
    1STR    C0H39927   4.715   5.362   7.322
    1STR    C0I39928   4.680   5.403   7.073
    1STR    O0J39929   4.564   5.324   7.083
    1STR    C0K39930   4.698   6.418   7.161
    1STR    C0M39931   4.827   6.428   7.242
    1STR    C0N39932   4.711   6.459   7.012
    1STR    O0O39933   4.783   6.386   6.911
    1STR    C0P39934   4.768   6.421   6.780
    1STR    O0Q39935   4.670   6.476   6.734
    1STR    N0R39936   4.871   6.381   6.706
    1STR    C0S39937   4.885   6.360   6.567
    1STR    C0T39938   4.999   6.290   6.525
    1STR    C0U39939   5.014   6.247   6.391
    1STR    C0V39940   4.918   6.279   6.294
    1STR    C0W39941   4.938   6.230   6.151
    1STR    C0X39942   4.801   6.347   6.331
    1STR    N0Y39943   4.694   6.340   6.239
    1STR   BCK239944   4.565   6.372   6.253
    1STR    O1039945   4.521   6.445   6.339
    1STR    C1339946   4.788   6.388   6.467
    1STR    C1439947   4.825   5.020   7.253
    1STR    C1539948   4.700   4.989   7.204
    1STR    C1639949   4.660   5.044   7.083
    1STR    C1739950   4.512   5.052   7.071
    1STR    H1B39951   4.629   5.109   6.832
    1STR    H1C39952   4.959   5.172   6.988
    1STR    H1D39953   5.114   5.143   7.182
    1STR    H1E39954   5.111   5.463   7.393
    1STR    H1F39955   5.325   5.423   7.196
    1STR    H1G39956   5.303   5.554   7.308
    1STR    H1H39957   5.336   5.406   7.373
    1STR    H1I39958   5.085   5.442   7.096
    1STR    H1J39959   4.997   5.554   7.193
    1STR    H1K39960   4.764   5.268   7.176
    1STR    H1M39961   4.781   5.361   7.407
    1STR    H1N39962   4.653   5.273   7.331
    1STR    H1O39963   4.641   5.439   7.327
    1STR    H1P39964   4.647   5.503   7.078
    1STR    H1Q39965   4.725   5.386   6.976
    1STR   C01039966   4.442   5.386   7.049
    1STR   H01139967   4.448   5.494   7.034
    1STR   C01239968   4.396   5.323   6.920
    1STR   H01339969   4.483   5.284   6.868
    1STR   H01439970   4.350   5.399   6.857
    1STR   H01539971   4.326   5.242   6.933
    1STR   C01639972   4.351   5.357   7.166
    1STR   H01739973   4.261   5.415   7.164
    1STR   H01839974   4.323   5.254   7.162
    1STR   O01939975   4.424   5.371   7.285
    1STR   C02039976   4.351   5.364   7.405
    1STR   H02139977   4.255   5.414   7.395
    1STR   C02239978   4.321   5.220   7.437
    1STR   H02339979   4.410   5.165   7.461
    1STR   H02439980   4.284   5.165   7.352
    1STR   H02539981   4.252   5.214   7.520
    1STR   C02639982   4.443   5.438   7.504
    1STR   H02739983   4.531   5.379   7.530
    1STR   H02839984   4.486   5.523   7.456
    1STR   O02939985   4.365   5.482   7.613
    1STR   C03039986   4.406   5.600   7.681
    1STR   H03139987   4.421   5.682   7.611
    1STR   C03239988   4.276   5.625   7.758
    1STR   H03339989   4.248   5.537   7.817
    1STR   H03439990   4.194   5.645   7.688
    1STR   H03539991   4.283   5.708   7.826
    1STR   C03639992   4.525   5.589   7.782
    1STR   H03739993   4.517   5.673   7.851
    1STR   H03839994   4.502   5.506   7.846
    1STR   O03939995   4.661   5.580   7.734
    1STR   C04039996   4.763   5.640   7.819
    1STR   H04139997   4.744   5.745   7.825
    1STR   C04239998   4.760   5.587   7.961
    1STR   H04339999   4.780   5.481   7.957
    1STR   H04440000   4.666   5.607   8.011
    1STR   H04540001   4.838   5.632   8.023
    1STR   C04640002   4.910   5.627   7.770
    1STR   H04740003   4.979   5.663   7.847
    1STR   H04840004   4.935   5.521   7.760
    1STR   O04940005   4.939   5.707   7.655
    1STR   C05040006   5.016   5.642   7.555
    1STR   H05140007   5.108   5.604   7.599
    1STR   C05240008   4.927   5.526   7.513
    1STR   H05340009   4.831   5.521   7.563
    1STR   H05440010   4.973   5.431   7.540
    1STR   H05540011   4.909   5.529   7.406
    1STR   C05640012   5.054   5.742   7.440
    1STR   H05740013   4.963   5.789   7.403
    1STR   H05840014   5.115   5.817   7.491
    1STR   O05940015   5.123   5.693   7.323
    1STR   C06040016   5.209   5.776   7.240
    1STR   H06140017   5.156   5.864   7.205
    1STR   C06240018   5.326   5.815   7.333
    1STR   H06340019   5.342   5.740   7.411
    1STR   H06440020   5.308   5.909   7.384
    1STR   H06540021   5.420   5.823   7.280
    1STR   C06640022   5.260   5.703   7.109
    1STR   H06740023   5.368   5.691   7.109
    1STR   H06840024   5.219   5.604   7.111
    1STR   O06940025   5.220   5.751   6.980
    1STR   C07040026   5.263   5.681   6.861
    1STR   H07140027   5.369   5.704   6.844
    1STR   C07240028   5.248   5.530   6.871
    1STR   H07340029   5.144   5.500   6.886
    1STR   H07440030   5.310   5.488   6.950
    1STR   H07540031   5.281   5.484   6.778
    1STR   C07640032   5.182   5.731   6.738
    1STR   H07740033   5.084   5.757   6.775
    1STR   H07840034   5.230   5.824   6.707
    1STR   O07940035   5.168   5.641   6.625
    1STR   C08040036   5.092   5.692   6.513
    1STR   H08140037   4.999   5.734   6.550
    1STR   C08240038   5.176   5.801   6.443
    1STR   H08340039   5.270   5.761   6.407
    1STR   H08440040   5.200   5.886   6.507
    1STR   H08540041   5.123   5.844   6.358
    1STR   C08640042   5.045   5.588   6.406
    1STR   H08740043   5.033   5.641   6.312
    1STR   H08840044   5.123   5.514   6.390
    1STR   O08940045   4.921   5.521   6.435
    1STR   C09040046   4.814   5.521   6.336
    1STR   H09140047   4.783   5.624   6.318
    1STR   C09240048   4.863   5.455   6.207
    1STR   H09340049   4.894   5.352   6.225
    1STR   H09440050   4.948   5.506   6.162
    1STR   H09540051   4.785   5.454   6.131
    1STR   C09640052   4.697   5.441   6.401
    1STR   H09740053   4.711   5.336   6.378
    1STR   H09840054   4.718   5.455   6.505
    1STR   O09940055   4.556   5.472   6.387
    1STR   C10040056   4.468   5.391   6.472
    1STR   H10140057   4.488   5.287   6.448
    1STR   C10240058   4.490   5.406   6.623
    1STR   H10340059   4.589   5.427   6.656
    1STR   H10440060   4.461   5.312   6.667
    1STR   H10540061   4.429   5.483   6.669
    1STR   C10640062   4.316   5.418   6.456
    1STR   H10740063   4.304   5.525   6.451
    1STR   H10840064   4.278   5.379   6.362
    1STR   O10940065   4.237   5.367   6.565
    1STR   C11040066   4.148   5.461   6.629
    1STR   H11140067   4.200   5.556   6.647
    1STR   C11240068   4.029   5.476   6.534
    1STR   H11340069   3.975   5.382   6.528
    1STR   H11440070   4.059   5.502   6.433
    1STR   H11540071   3.960   5.553   6.568
    1STR   C11640072   4.099   5.405   6.765
    1STR   H11740073   3.994   5.374   6.759
    1STR   H11840074   4.156   5.314   6.779
    1STR   O11940075   4.119   5.475   6.889
    1STR   C12040076   4.054   5.600   6.911
    1STR   H12140077   4.103   5.660   6.837
    1STR   C12240078   3.904   5.601   6.875
    1STR   H12340079   3.852   5.517   6.918
    1STR   H12440080   3.889   5.597   6.768
    1STR   H12540081   3.856   5.692   6.910
    1STR   C12640082   4.077   5.660   7.054
    1STR   H12740083   4.078   5.767   7.045
    1STR   H12840084   3.993   5.642   7.121
    1STR   O12940085   4.195   5.624   7.124
    1STR   C13040086   4.251   5.726   7.209
    1STR   H13140087   4.283   5.806   7.147
    1STR   C13240088   4.150   5.792   7.305
    1STR   H13340089   4.106   5.722   7.375
    1STR   H13440090   4.071   5.846   7.253
    1STR   H13540091   4.202   5.869   7.364
    1STR   C13640092   4.373   5.676   7.288
    1STR   H13740093   4.394   5.743   7.369
    1STR   H13840094   4.330   5.594   7.340
    1STR   O13940095   4.495   5.633   7.221
    1STR   C14040096   4.618   5.700   7.257
    1STR   H14140097   4.585   5.797   7.242
    1STR   C14240098   4.667   5.688   7.403
    1STR   H14340099   4.705   5.592   7.425
    1STR   H14440100   4.593   5.702   7.480
    1STR   H14540101   4.748   5.755   7.428
    1STR   C14640102   4.733   5.706   7.155
    1STR   H14740103   4.799   5.789   7.174
    1STR   H14840104   4.796   5.619   7.169
    1STR   O14940105   4.676   5.716   7.025
    1STR   C15040106   4.755   5.694   6.909
    1STR   H15140107   4.777   5.791   6.867
    1STR   C15240108   4.892   5.627   6.930
    1STR   H15340109   4.884   5.528   6.972
    1STR   H15440110   4.958   5.686   6.993
    1STR   H15540111   4.941   5.613   6.834
    1STR   C15640112   4.669   5.614   6.808
    1STR   H15740113   4.735   5.560   6.740
    1STR   H15840114   4.617   5.536   6.862
    1STR   O15940115   4.563   5.683   6.740
    1STR   C16040116   4.590   5.766   6.626
    1STR   H16140117   4.574   5.870   6.651
    1STR   C16240118   4.734   5.754   6.575
    1STR   H16340119   4.760   5.653   6.552
    1STR   H16440120   4.806   5.787   6.650
    1STR   H16540121   4.754   5.813   6.486
    1STR   C16640122   4.485   5.736   6.518
    1STR   H16740123   4.529   5.747   6.419
    1STR   H16840124   4.459   5.634   6.527
    1STR   O16940125   4.364   5.811   6.535
    1STR   C17040126   4.290   5.842   6.416
    1STR   H17140127   4.353   5.838   6.327
    1STR   C17240128   4.171   5.748   6.396
    1STR   H17340129   4.092   5.794   6.338
    1STR   H17440130   4.130   5.722   6.494
    1STR   H17540131   4.199   5.659   6.341
    1STR   C17640132   4.238   5.985   6.428
    1STR   H17740133   4.325   6.051   6.433
    1STR   H17840134   4.184   6.016   6.339
    1STR   O17940135   4.168   6.002   6.550
    1STR   C18040136   4.027   6.027   6.558
    1STR   H18140137   4.020   6.118   6.618
    1STR   C18240138   3.954   6.061   6.427
    1STR   H18340139   3.850   6.085   6.448
    1STR   H18440140   3.955   5.977   6.357
    1STR   H18540141   3.999   6.148   6.379
    1STR   C18640142   3.960   5.916   6.641
    1STR   H18740143   3.871   5.953   6.692
    1STR   H18840144   3.926   5.837   6.573
    1STR   O18940145   4.047   5.852   6.734
    1STR   C19040146   4.109   5.932   6.833
    1STR   H19140147   4.133   6.024   6.784
    1STR   C19240148   4.011   5.977   6.944
    1STR   H19340149   3.937   5.901   6.967
    1STR   H19440150   3.956   6.065   6.912
    1STR   H19540151   4.065   6.004   7.034
    1STR   C19640152   4.249   5.875   6.874
    1STR   H19740153   4.254   5.772   6.906
    1STR   H19840154   4.311   5.875   6.784
    1STR   O19940155   4.305   5.952   6.979
    1STR   C20040156   4.442   5.923   7.011
    1STR   H20140157   4.452   5.815   7.026
    1STR   C20240158   4.531   5.959   6.895
    1STR   H20340159   4.480   6.000   6.809
    1STR   H20440160   4.577   5.869   6.865
    1STR   H20540161   4.613   6.024   6.925
    1STR   C20640162   4.500   5.993   7.135
    1STR   H20740163   4.605   5.965   7.133
    1STR   H20840164   4.506   6.100   7.127
    1STR   O20940165   4.438   5.963   7.260
    1STR   C21040166   4.520   5.974   7.378
    1STR   H21140167   4.526   5.880   7.426
    1STR   C21240168   4.668   6.015   7.363
    1STR   H21340169   4.729   5.935   7.324
    1STR   H21440170   4.711   6.044   7.457
    1STR   H21540171   4.684   6.095   7.292
    1STR   C21640172   4.443   6.041   7.485
    1STR   H21740173   4.509   6.120   7.511
    1STR   H21840174   4.350   6.071   7.439
    1STR   O21940175   4.412   5.966   7.601
    1STR   C22040176   4.475   6.016   7.719
    1STR   H22140177   4.512   6.119   7.714
    1STR   C22240178   4.368   6.012   7.827
    1STR   H22340179   4.409   6.041   7.924
    1STR   H22440180   4.324   5.914   7.836
    1STR   H22540181   4.288   6.082   7.803
    1STR   C22640182   4.590   5.920   7.749
    1STR   H22740183   4.606   5.912   7.855
    1STR   H22840184   4.554   5.825   7.715
    1STR   O22940185   4.709   5.931   7.673
    1STR   C23040186   4.810   6.018   7.721
    1STR   H23140187   4.764   6.117   7.717
    1STR   C23240188   4.863   5.981   7.861
    1STR   H23340189   4.910   5.883   7.860
    1STR   H23440190   4.787   5.981   7.939
    1STR   H23540191   4.941   6.050   7.894
    1STR   C23640192   4.926   6.016   7.620
    1STR   H23740193   5.021   6.006   7.671
    1STR   H23840194   4.913   5.929   7.557
    1STR   O23940195   4.923   6.135   7.543
    1STR   C24040196   5.026   6.157   7.448
    1STR   H24140197   4.997   6.252   7.406
    1STR   C24240198   5.164   6.175   7.514
    1STR   H24340199   5.200   6.085   7.562
    1STR   H24440200   5.159   6.253   7.590
    1STR   H24540201   5.238   6.206   7.440
    1STR   C24640202   5.024   6.050   7.339
    1STR   H24740203   5.099   5.980   7.370
    1STR   H24840204   4.929   5.999   7.344
    1STR   O24940205   5.058   6.085   7.205
    1STR   C25040206   4.961   6.047   7.107
    1STR   H25140207   4.890   5.974   7.144
    1STR   C25240208   4.882   6.169   7.074
    1STR   H25340209   4.823   6.189   7.161
    1STR   H25440210   4.809   6.153   6.996
    1STR   H25540211   4.945   6.255   7.050
    1STR   C25640212   5.020   5.986   6.982
    1STR   H25740213   5.108   6.036   6.944
    1STR   H25840214   5.048   5.886   7.010
    1STR   O25940215   4.920   5.970   6.883
    1STR   C26040216   4.923   6.060   6.774
    1STR   H26140217   4.949   6.160   6.807
    1STR   C26240218   5.026   6.007   6.677
    1STR   H26340219   4.999   5.905   6.657
    1STR   H26440220   5.127   6.013   6.716
    1STR   H26540221   5.024   6.053   6.579
    1STR   C26640222   4.780   6.059   6.717
    1STR   H26740223   4.732   5.970   6.753
    1STR   H26840224   4.726   6.143   6.759
    1STR   O26940225   4.774   6.046   6.575
    1STR   C27040226   4.664   6.099   6.503
    1STR   H27140227   4.728   6.155   6.439
    1STR   C27240228   4.603   6.016   6.393
    1STR   H27340229   4.522   5.962   6.436
    1STR   H27440230   4.674   5.949   6.345
    1STR   H27540231   4.560   6.079   6.315
    1STR   C27640232   4.567   6.202   6.565
    1STR   H27740233   4.617   6.266   6.635
    1STR   H27840234   4.539   6.267   6.485
    1STR   O27940235   4.444   6.158   6.620
    1STR   C28040236   4.361   6.268   6.660
    1STR   H28140237   4.421   6.354   6.691
    1STR   C28240238   4.275   6.313   6.544
    1STR   H28340239   4.203   6.386   6.576
    1STR   H28440240   4.219   6.232   6.500
    1STR   H28540241   4.340   6.359   6.471
    1STR   C28640242   4.271   6.227   6.776
    1STR   H28740243   4.167   6.225   6.746
    1STR   H28840244   4.301   6.126   6.801
    1STR   O28940245   4.280   6.312   6.889
    1STR   C29040246   4.367   6.258   6.987
    1STR   H29140247   4.335   6.160   7.011
    1STR   C29240248   4.506   6.266   6.927
    1STR   H29340249   4.516   6.366   6.887
    1STR   H29440250   4.522   6.203   6.842
    1STR   H29540251   4.586   6.241   6.994
    1STR   C29640252   4.354   6.328   7.120
    1STR   H29740253   4.406   6.423   7.112
    1STR   H29840254   4.247   6.342   7.125
    1STR   O29940255   4.377   6.256   7.243
    1STR   C30040256   4.435   6.337   7.346
    1STR   H30140257   4.413   6.438   7.318
    1STR   C30240258   4.380   6.320   7.489
    1STR   H30340259   4.456   6.300   7.562
    1STR   H30440260   4.297   6.252   7.498
    1STR   H30540261   4.340   6.408   7.531
    1STR   C30640262   4.587   6.327   7.344
    1STR   H30740263   4.628   6.414   7.393
    1STR   H30840264   4.627   6.252   7.409
    1STR   O30940265   4.628   6.306   7.208
    1STR    H1R40266   4.628   6.493   7.192
    1STR    H1S40267   4.823   6.496   7.325
    1STR    H1T40268   4.905   6.456   7.174
    1STR    H1U40269   4.853   6.335   7.290
    1STR    H1V40270   4.777   6.540   7.023
    1STR    H1W40271   4.622   6.509   6.976
    1STR    H1X40272   4.946   6.355   6.768
    1STR    H1Y40273   5.076   6.265   6.596
    1STR    H1Z40274   5.099   6.187   6.365
    1STR    H2040275   4.862   6.156   6.126
    1STR    H2140276   4.930   6.314   6.082
    1STR    H2240277   5.036   6.184   6.138
    1STR    H2340278   4.717   6.303   6.148
    1STR    H2740279   4.697   6.434   6.499
    1STR    H2840280   4.858   4.998   7.351
    1STR    H2940281   4.632   4.931   7.264
    1STR    H2A40282   4.476   5.083   6.974
    1STR    H2B40283   4.479   5.119   7.149
    1STR    H2C40284   4.472   4.958   7.102
    1STR   BCK140285   5.103   7.403   9.009
    1STR    O0340286   5.173   7.498   9.036
    1STR    N0440287   5.058   7.392   8.884
    1STR    C0540288   4.936   7.338   8.855
    1STR    C0640289   4.827   7.427   8.840
    1STR    C0740290   4.693   7.380   8.837
    1STR    N0840291   4.584   7.465   8.831
    1STR    C0940292   4.455   7.445   8.865
    1STR    O0A40293   4.405   7.341   8.907
    1STR    O0B40294   4.379   7.555   8.850
    1STR    C0C40295   4.431   7.684   8.876
    1STR    C0D40296   4.355   7.792   8.798
    1STR    C0E40297   4.430   7.685   9.030
    1STR    O0F40298   4.562   7.716   9.067
    1STR    C0G40299   4.646   7.609   9.106
    1STR    C0H40300   4.775   7.651   9.041
    1STR    C0I40301   4.662   7.606   9.257
    1STR    O0J40302   4.777   7.540   9.308
    1STR    C0K40303   4.854   8.723   0.142
    1STR    C0M40304   4.710   8.769   0.157
    1STR    C0N40305   4.927   8.734   0.276
    1STR    O0O40306   5.054   8.679   0.256
    1STR    C0P40307   5.160   8.745   0.296
    1STR    O0Q40308   5.201   8.748   0.411
    1STR    N0R40309   5.216   8.812   0.197
    1STR    C0S40310   5.172   8.819   0.067
    1STR    C0T40311   5.208   8.728   9.287
    1STR    C0U40312   5.161   8.744   9.156
    1STR    C0V40313   5.064   8.842   9.128
    1STR    C0W40314   4.989   8.825   8.998
    1STR    C0X40315   5.026   8.932   9.231
    1STR    N0Y40316   4.919   9.017   9.231
    1STR   BCK240317   4.792   8.981   9.245
    1STR    O1040318   4.748   8.872   9.212
    1STR    C1340319   5.091   8.927   0.034
    1STR    C1440320   4.674   7.244   8.845
    1STR    C1540321   4.781   7.156   8.853
    1STR    C1640322   4.912   7.200   8.860
    1STR    C1740323   5.016   7.099   8.897
    1STR    H1B40324   5.100   7.463   8.825
    1STR    H1C40325   4.848   7.532   8.832
    1STR    H1D40326   4.603   7.558   8.801
    1STR    H1E40327   4.533   7.695   8.841
    1STR    H1F40328   4.248   7.793   8.818
    1STR    H1G40329   4.396   7.891   8.815
    1STR    H1H40330   4.364   7.776   8.691
    1STR    H1I40331   4.404   7.590   9.074
    1STR    H1J40332   4.358   7.754   9.072
    1STR    H1K40333   4.608   7.513   9.071
    1STR    H1M40334   4.809   7.734   9.100
    1STR    H1N40335   4.763   7.687   8.940
    1STR    H1O40336   4.856   7.579   9.046
    1STR    H1P40337   4.682   7.706   9.281
    1STR    H1Q40338   4.569   7.575   9.304
    1STR   C01040339   4.819   7.567   0.120
    1STR   H01140340   4.825   7.674   0.125
    1STR   C01240341   4.712   7.510   0.214
    1STR   H01340342   4.719   7.401   0.218
    1STR   H01440343   4.609   7.530   0.186
    1STR   H01540344   4.725   7.552   0.313
    1STR   C01640345   4.962   7.524   0.165
    1STR   H01740346   5.001   7.604   0.228
    1STR   H01840347   4.958   7.435   0.227
    1STR   O01940348   5.059   7.499   0.063
    1STR   C02040349   5.195   7.495   0.106
    1STR   H02140350   5.199   7.460   0.208
    1STR   C02240351   5.277   7.395   0.025
    1STR   H02340352   5.285   7.429   9.243
    1STR   H02440353   5.232   7.296   0.025
    1STR   H02540354   5.378   7.384   0.065
    1STR   C02640355   5.259   7.633   0.088
    1STR   H02740356   5.241   7.659   9.304
    1STR   H02840357   5.211   7.709   0.150
    1STR   O02940358   5.399   7.633   0.113
    1STR   C03040359   5.469   7.725   0.029
    1STR   H03140360   5.403   7.804   9.318
    1STR   C03240361   5.584   7.788   0.108
    1STR   H03340362   5.577   7.760   0.214
    1STR   H03440363   5.581   7.896   0.103
    1STR   H03540364   5.680   7.757   0.069
    1STR   C03640365   5.516   7.659   9.220
    1STR   H03740366   5.604   7.709   9.181
    1STR   H03840367   5.544   7.556   9.242
    1STR   O03940368   5.414   7.661   9.122
    1STR   C04040369   5.410   7.777   9.040
    1STR   H04140370   5.452   7.864   9.091
    1STR   C04240371   5.487   7.746   8.912
    1STR   H04340372   5.448   7.655   8.866
    1STR   H04440373   5.593   7.729   8.934
    1STR   H04540374   5.480   7.827   8.841
    1STR   C04640375   5.263   7.807   9.010
    1STR   H04740376   5.255   7.894   8.947
    1STR   H04840377   5.218   7.723   8.958
    1STR   O04940378   5.200   7.829   9.135
    1STR   C05040379   5.059   7.825   9.132
    1STR   H05140380   5.030   7.736   9.077
    1STR   C05240381   5.005   7.812   9.275
    1STR   H05340382   5.042   7.724   0.004
    1STR   H05440383   4.899   7.796   9.277
    1STR   H05540384   5.022   7.897   0.020
    1STR   C05640385   5.003   7.951   9.066
    1STR   H05740386   4.986   8.026   9.141
    1STR   H05840387   5.072   7.998   8.996
    1STR   O05940388   4.887   7.913   8.995
    1STR   C06040389   4.776   8.000   9.004
    1STR   H06140390   4.813   8.103   8.999
    1STR   C06240391   4.699   7.967   8.875
    1STR   H06340392   4.645   7.873   8.886
    1STR   H06440393   4.764   7.953   8.789
    1STR   H06540394   4.626   8.044   8.851
    1STR   C06640395   4.680   7.984   9.125
    1STR   H06740396   4.651   8.081   9.159
    1STR   H06840397   4.590   7.942   9.085
    1STR   O06940398   4.714   7.917   9.247
    1STR   C07040399   4.618   7.932   0.035
    1STR   H07140400   4.617   8.036   0.062
    1STR   C07240401   4.482   7.900   9.302
    1STR   H07340402   4.482   7.805   9.253
    1STR   H07440403   4.448   7.975   9.234
    1STR   H07540404   4.408   7.891   0.059
    1STR   C07640405   4.628   7.843   0.162
    1STR   H07740406   4.540   7.861   0.222
    1STR   H07840407   4.608   7.740   0.143
    1STR   O07940408   4.748   7.845   0.238
    1STR   C08040409   4.742   7.867   0.378
    1STR   H08140410   4.742   7.972   0.401
    1STR   C08240411   4.621   7.803   0.450
    1STR   H08340412   4.607   7.700   0.420
    1STR   H08440413   4.526   7.854   0.431
    1STR   H08540414   4.633   7.808   0.557
    1STR   C08640415   4.874   7.832   0.441
    1STR   H08740416   4.869   7.875   0.540
    1STR   H08840417   4.878   7.725   0.444
    1STR   O08940418   4.993   7.871   0.376
    1STR   C09040419   5.085   7.947   0.455
    1STR   H09140420   5.051   8.051   0.458
    1STR   C09240421   5.112   7.898   0.599
    1STR   H09340422   5.140   7.793   0.599
    1STR   H09440423   5.028   7.914   0.667
    1STR   H09540424   5.195   7.954   0.643
    1STR   C09640425   5.218   7.940   0.382
    1STR   H09740426   5.292   7.998   0.437
    1STR   H09840427   5.252   7.836   0.377
    1STR   O09940428   5.202   7.990   0.252
    1STR   C10040429   5.323   7.994   0.179
    1STR   H10140430   5.366   7.895   0.189
    1STR   C10240431   5.291   8.020   0.033
    1STR   H10340432   5.239   8.112   0.013
    1STR   H10440433   5.223   7.943   0.003
    1STR   H10540434   5.378   8.018   9.288
    1STR   C10640435   5.424   8.096   0.233
    1STR   H10740436   5.483   8.049   0.312
    1STR   H10840437   5.496   8.127   0.158
    1STR   O10940438   5.359   8.206   0.293
    1STR   C11040439   5.285   8.292   0.208
    1STR   H11140440   5.296   8.381   0.270
    1STR   C11240441   5.359   8.344   0.083
    1STR   H11340442   5.374   8.271   0.004
    1STR   H11440443   5.458   8.379   0.113
    1STR   H11540444   5.309   8.430   0.041
    1STR   C11640445   5.130   8.269   0.209
    1STR   H11740446   5.108   8.228   0.307
    1STR   H11840447   5.084   8.366   0.201
    1STR   O11940448   5.053   8.186   0.123
    1STR   C12040449   4.911   8.213   0.128
    1STR   H12140450   4.891   8.320   0.125
    1STR   C12240451   4.864   8.164   9.315
    1STR   H12340452   4.923   8.201   9.233
    1STR   H12440453   4.761   8.193   9.302
    1STR   H12540454   4.873   8.057   9.317
    1STR   C12640455   4.827   8.140   0.237
    1STR   H12740456   4.850   8.037   0.218
    1STR   H12840457   4.861   8.158   0.337
    1STR   O12940458   4.684   8.172   0.227
    1STR   C13040459   4.575   8.132   0.313
    1STR   H13140460   4.574   8.028   0.315
    1STR   C13240461   4.580   8.170   0.462
    1STR   H13340462   4.552   8.274   0.478
    1STR   H13440463   4.679   8.156   0.505
    1STR   H13540464   4.510   8.110   0.520
    1STR   C13640465   4.435   8.158   0.250
    1STR   H13740466   4.376   8.220   0.316
    1STR   H13840467   4.448   8.213   0.157
    1STR   O13940468   4.367   8.033   0.232
    1STR   C14040469   4.236   8.030   0.172
    1STR   H14140470   4.211   7.927   0.160
    1STR   C14240471   4.134   8.093   0.265
    1STR   H14340472   4.138   8.049   0.365
    1STR   H14440473   4.032   8.082   0.227
    1STR   H14540474   4.156   8.198   0.275
    1STR   C14640475   4.231   8.080   0.028
    1STR   H14740476   4.159   8.161   0.023
    1STR   H14840477   4.329   8.121   0.010
    1STR   O14940478   4.203   7.979   9.249
    1STR   C15040479   4.192   8.020   9.110
    1STR   H15140480   4.136   8.110   9.105
    1STR   C15240481   4.324   8.038   9.032
    1STR   H15340482   4.378   7.947   9.018
    1STR   H15440483   4.397   8.105   9.075
    1STR   H15540484   4.304   8.080   8.933
    1STR   C15640485   4.102   7.928   9.031
    1STR   H15740486   4.129   7.933   8.926
    1STR   H15840487   4.121   7.829   9.062
    1STR   O15940488   3.966   7.961   9.049
    1STR   C16040489   3.892   7.966   8.928
    1STR   H16140490   3.921   7.884   8.861
    1STR   C16240491   3.747   7.943   8.968
    1STR   H16340492   3.711   8.023   9.033
    1STR   H16440493   3.738   7.851   9.025
    1STR   H16540494   3.682   7.937   8.881
    1STR   C16640495   3.912   8.102   8.859
    1STR   H16740496   3.836   8.116   8.782
    1STR   H16840497   3.898   8.179   8.934
    1STR   O16940498   4.041   8.110   8.799
    1STR   C17040499   4.083   8.236   8.747
    1STR   H17140500   4.185   8.220   8.713
    1STR   C17240501   3.999   8.279   8.627
    1STR   H17340502   3.896   8.301   8.655
    1STR   H17440503   3.997   8.200   8.552
    1STR   H17540504   4.040   8.368   8.581
    1STR   C17640505   4.091   8.344   8.856
    1STR   H17740506   4.139   8.434   8.818
    1STR   H17840507   3.991   8.375   8.887
    1STR   O17940508   4.164   8.291   8.963
    1STR   C18040509   4.161   8.369   9.082
    1STR   H18140510   4.161   8.473   9.051
    1STR   C18240511   4.033   8.339   9.163
    1STR   H18340512   4.024   8.240   9.206
    1STR   H18440513   3.945   8.347   9.101
    1STR   H18540514   4.023   8.407   9.248
    1STR   C18640515   4.285   8.337   9.167
    1STR   H18740516   4.283   8.373   9.269
    1STR   H18840517   4.281   8.234   9.178
    1STR   O18940518   4.411   8.355   9.107
    1STR   C19040519   4.523   8.315   9.184
    1STR   H19140520   4.505   8.220   9.233
    1STR   C19240521   4.623   8.299   9.070
    1STR   H19340522   4.627   8.384   9.004
    1STR   H19440523   4.592   8.219   9.003
    1STR   H19540524   4.723   8.279   9.106
    1STR   C19640525   4.562   8.417   9.293
    1STR   H19740526   4.624   8.495   9.252
    1STR   H19840527   4.470   8.463   0.003
    1STR   O19940528   4.625   8.364   0.089
    1STR   C20040529   4.644   8.457   0.197
    1STR   H20140530   4.678   8.540   0.142
    1STR   C20240531   4.510   8.497   0.260
    1STR   H20340532   4.469   8.415   0.317
    1STR   H20440533   4.436   8.533   0.190
    1STR   H20540534   4.527   8.577   0.330
    1STR   C20640535   4.744   8.435   0.318
    1STR   H20740536   4.718   8.511   0.390
    1STR   H20840537   4.722   8.344   0.370
    1STR   O20940538   4.888   8.448   0.314
    1STR   C21040539   4.960   8.403   0.431
    1STR   H21140540   4.960   8.296   0.439
    1STR   C21240541   5.107   8.452   0.441
    1STR   H21340542   5.144   8.491   0.348
    1STR   H21440543   5.174   8.372   0.473
    1STR   H21540544   5.123   8.534   0.510
    1STR   C21640545   4.905   8.451   0.559
    1STR   H21740546   4.977   8.419   0.634
    1STR   H21840547   4.901   8.560   0.551
    1STR   O21940548   4.782   8.395   0.600
    1STR   C22040549   4.721   8.475   0.699
    1STR   H22140550   4.671   8.406   0.767
    1STR   C22240551   4.821   8.562   0.780
    1STR   H22340552   4.926   8.536   0.785
    1STR   H22440553   4.796   8.553   0.881
    1STR   H22540554   4.814   8.666   0.750
    1STR   C22640555   4.613   8.561   0.632
    1STR   H22740556   4.577   8.634   0.702
    1STR   H22840557   4.656   8.624   0.554
    1STR   O22940558   4.507   8.481   0.580
    1STR   C23040559   4.376   8.536   0.594
    1STR   H23140560   4.356   8.548   0.700
    1STR   C23240561   4.367   8.671   0.523
    1STR   H23340562   4.360   8.664   0.416
    1STR   H23440563   4.454   8.731   0.539
    1STR   H23540564   4.280   8.726   0.558
    1STR   C23640565   4.270   8.440   0.537
    1STR   H23740566   4.319   8.360   0.482
    1STR   H23840567   4.218   8.390   0.619
    1STR   O23940568   4.175   8.515   0.461
    1STR   C24040569   4.162   8.477   0.325
    1STR   H24140570   4.239   8.407   0.295
    1STR   C24240571   4.025   8.408   0.323
    1STR   H24340572   3.948   8.477   0.354
    1STR   H24440573   4.022   8.325   0.394
    1STR   H24540574   4.001   8.369   0.224
    1STR   C24640575   4.171   8.596   0.225
    1STR   H24740576   4.076   8.648   0.222
    1STR   H24840577   4.244   8.671   0.251
    1STR   O24940578   4.208   8.540   0.100
    1STR   C25040579   4.210   8.622   9.304
    1STR   H25140580   4.180   8.547   9.238
    1STR   C25240581   4.095   8.710   9.273
    1STR   H25340582   4.079   8.776   0.036
    1STR   H25440583   4.007   8.650   9.255
    1STR   H25540584   4.107   8.768   9.182
    1STR   C25640585   4.340   8.668   9.239
    1STR   H25740586   4.321   8.769   9.211
    1STR   H25840587   4.427   8.666   9.304
    1STR   O25940588   4.352   8.602   9.114
    1STR   C26040589   4.426   8.656   9.007
    1STR   H26140590   4.388   8.754   8.981
    1STR   C26240591   4.570   8.671   9.048
    1STR   H26340592   4.581   8.720   9.143
    1STR   H26440593   4.629   8.726   8.975
    1STR   H26540594   4.612   8.574   9.061
    1STR   C26640595   4.404   8.558   8.888
    1STR   H26740596   4.346   8.472   8.920
    1STR   H26840597   4.342   8.606   8.814
    1STR   O26940598   4.522   8.508   8.824
    1STR   C27040599   4.503   8.394   8.740
    1STR   H27140600   4.459   8.313   8.799
    1STR   C27240601   4.406   8.431   8.625
    1STR   H27340602   4.443   8.518   8.571
    1STR   H27440603   4.306   8.452   8.661
    1STR   H27540604   4.396   8.349   8.554
    1STR   C27640605   4.636   8.343   8.680
    1STR   H27740606   4.610   8.275   8.600
    1STR   H27840607   4.690   8.425   8.634
    1STR   O27940608   4.721   8.271   8.772
    1STR   C28040609   4.845   8.216   8.721
    1STR   H28140610   4.871   8.133   8.786
    1STR   C28240611   4.832   8.157   8.579
    1STR   H28340612   4.820   8.236   8.505
    1STR   H28440613   4.748   8.089   8.572
    1STR   H28540614   4.922   8.101   8.553
    1STR   C28640615   4.967   8.306   8.737
    1STR   H28740616   5.013   8.296   8.836
    1STR   H28840617   5.046   8.278   8.667
    1STR   O28940618   4.927   8.437   8.710
    1STR   C29040619   4.923   8.529   8.818
    1STR   H29140620   5.022   8.575   8.824
    1STR   C29240621   4.821   8.629   8.771
    1STR   H29340622   4.800   8.614   8.667
    1STR   H29440623   4.857   8.729   8.790
    1STR   H29540624   4.725   8.619   8.818
    1STR   C29640625   4.881   8.479   8.958
    1STR   H29740626   4.798   8.536   8.994
    1STR   H29840627   4.850   8.375   8.957
    1STR   O29940628   4.984   8.500   9.051
    1STR   C30040629   4.946   8.477   9.186
    1STR   H30140630   4.875   8.396   9.196
    1STR   C30240631   5.080   8.436   9.244
    1STR   H30340632   5.164   8.479   9.189
    1STR   H30440633   5.096   8.329   9.240
    1STR   H30540634   5.087   8.471   0.026
    1STR   C30640635   4.880   8.598   9.256
    1STR   H30740636   4.937   8.683   9.232
    1STR   H30840637   4.783   8.622   9.215
    1STR   O30940638   4.879   8.596   0.079
    1STR    H1R40639   4.898   8.798   0.080
    1STR    H1S40640   4.650   8.747   0.069
    1STR    H1T40641   4.708   8.876   0.176
    1STR    H1U40642   4.662   8.720   0.240
    1STR    H1V40643   4.876   8.681   0.355
    1STR    H1W40644   4.931   8.838   0.308
    1STR    H1X40645   5.305   8.859   0.218
    1STR    H1Y40646   5.270   8.643   9.308
    1STR    H1Z40647   5.188   8.672   9.080
    1STR    H2040648   4.900   8.764   9.015
    1STR    H2140649   4.956   8.918   8.956
    1STR    H2240650   5.051   8.778   8.923
    1STR    H2340651   4.935   9.114   9.262
    1STR    H2740652   5.072   8.999   0.111
    1STR    H2840653   4.574   7.205   8.841
    1STR    H2940654   4.756   7.054   8.871
    1STR    H2A40655   5.117   7.132   8.875
    1STR    H2B40656   4.995   7.006   8.851
    1STR    H2C40657   5.009   7.077   9.003
    1STR   BCK140658   4.730   7.392   2.435
    1STR    O0340659   4.845   7.352   2.425
    1STR    N0440660   4.660   7.425   2.543
    1STR    C0540661   4.682   7.416   2.678
    1STR    C0640662   4.800   7.458   2.739
    1STR    C0740663   4.824   7.447   2.877
    1STR    N0840664   4.939   7.496   2.941
    1STR    C0940665   5.047   7.561   2.897
    1STR    O0A40666   5.142   7.582   2.972
    1STR    O0B40667   5.046   7.596   2.768
    1STR    C0C40668   5.132   7.532   2.675
    1STR    C0D40669   5.093   7.383   2.661
    1STR    C0E40670   5.140   7.598   2.534
    1STR    O0F40671   5.057   7.708   2.505
    1STR    C0G40672   4.921   7.675   2.481
    1STR    C0H40673   4.849   7.745   2.595
    1STR    C0I40674   4.874   7.712   2.339
    1STR    O0J40675   4.747   7.659   2.305
    1STR    C0K40676   3.828   8.648   2.190
    1STR    C0M40677   3.731   8.755   2.143
    1STR    C0N40678   3.780   8.599   2.330
    1STR    O0O40679   3.871   8.624   2.437
    1STR    C0P40680   3.930   8.742   2.449
    1STR    O0Q40681   3.901   8.838   2.381
    1STR    N0R40682   4.031   8.739   2.534
    1STR    C0S40683   4.135   8.829   2.553
    1STR    C0T40684   4.260   8.774   2.588
    1STR    C0U40685   4.379   8.846   2.584
    1STR    C0V40686   4.375   8.979   2.542
    1STR    C0W40687   4.505   9.052   2.520
    1STR    C0X40688   4.252   9.036   2.507
    1STR    N0Y40689   4.258   9.151   2.435
    1STR   BCK240690   4.253   9.132   2.304
    1STR    O1040691   4.353   9.141   2.241
    1STR    C1340692   4.132   8.964   2.518
    1STR    C1440693   4.728   7.376   2.952
    1STR    C1540694   4.612   7.325   2.890
    1STR    C1640695   4.582   7.358   2.757
    1STR    C1740696   4.443   7.338   2.700
    1STR    H1B40697   4.569   7.456   2.512
    1STR    H1C40698   4.870   7.502   2.674
    1STR    H1D40699   4.948   7.474   3.038
    1STR    H1E40700   5.230   7.539   2.722
    1STR    H1F40701   5.000   7.365   2.610
    1STR    H1G40702   5.162   7.323   2.604
    1STR    H1H40703   5.085   7.340   2.760
    1STR    H1I40704   5.125   7.521   2.458
    1STR    H1J40705   5.240   7.635   2.517
    1STR    H1K40706   4.907   7.569   2.489
    1STR    H1M40707   4.864   7.701   2.691
    1STR    H1N40708   4.743   7.749   2.576
    1STR    H1O40709   4.891   7.843   2.613
    1STR    H1P40710   4.865   7.819   2.330
    1STR    H1Q40711   4.948   7.677   2.268
    1STR   C01040712   4.684   7.706   2.184
    1STR   H01140713   4.695   7.815   2.178
    1STR   C01240714   4.752   7.646   2.065
    1STR   H01340715   4.733   7.541   2.057
    1STR   H01440716   4.858   7.656   2.075
    1STR   H01540717   4.724   7.694   1.972
    1STR   C01640718   4.532   7.670   2.183
    1STR   H01740719   4.474   7.751   2.141
    1STR   H01840720   4.513   7.582   2.122
    1STR   O01940721   4.495   7.649   2.318
    1STR   C02040722   4.375   7.588   2.359
    1STR   H02140723   4.378   7.480   2.348
    1STR   C02240724   4.377   7.626   2.507
    1STR   H02340725   4.360   7.733   2.518
    1STR   H02440726   4.473   7.606   2.553
    1STR   H02540727   4.299   7.577   2.563
    1STR   C02640728   4.252   7.641   2.287
    1STR   H02740729   4.253   7.749   2.281
    1STR   H02840730   4.250   7.601   2.186
    1STR   O02940731   4.140   7.593   2.359
    1STR   C03040732   4.079   7.687   2.445
    1STR   H03140733   4.150   7.757   2.489
    1STR   C03240734   3.983   7.760   2.349
    1STR   H03340735   3.940   7.688   2.279
    1STR   H03440736   4.036   7.833   2.288
    1STR   H03540737   3.901   7.811   2.397
    1STR   C03640738   4.010   7.611   2.560
    1STR   H03740739   3.938   7.674   2.609
    1STR   H03840740   3.956   7.533   2.506
    1STR   O03940741   4.086   7.543   2.661
    1STR   C04040742   4.098   7.601   2.792
    1STR   H04140743   4.151   7.694   2.776
    1STR   C04240744   3.966   7.624   2.866
    1STR   H04340745   3.915   7.531   2.879
    1STR   H04440746   3.902   7.697   2.818
    1STR   H04540747   3.980   7.660   2.967
    1STR   C04640748   4.185   7.510   2.880
    1STR   H04740749   4.139   7.413   2.894
    1STR   H04840750   4.276   7.496   2.824
    1STR   O04940751   4.206   7.576   3.005
    1STR   C05040752   4.297   7.528   3.103
    1STR   H05140753   4.263   7.431   3.136
    1STR   C05240754   4.437   7.507   3.047
    1STR   H05340755   4.485   7.419   3.087
    1STR   H05440756   4.503   7.588   3.071
    1STR   H05540757   4.438   7.496   2.940
    1STR   C05640758   4.296   7.634   3.219
    1STR   H05740759   4.257   7.729   3.185
    1STR   H05840760   4.226   7.602   3.295
    1STR   O05940761   4.422   7.657   3.283
    1STR   C06040762   4.499   7.774   3.253
    1STR   H06140763   4.477   7.814   3.154
    1STR   C06240764   4.468   7.885   3.353
    1STR   H06340765   4.497   7.856   3.454
    1STR   H06440766   4.363   7.911   3.354
    1STR   H06540767   4.525   7.974   3.327
    1STR   C06640768   4.650   7.741   3.255
    1STR   H06740769   4.683   7.727   3.358
    1STR   H06840770   4.671   7.651   3.198
    1STR   O06940771   4.725   7.842   3.193
    1STR   C07040772   4.857   7.863   3.241
    1STR   H07140773   4.849   7.893   3.346
    1STR   C07240774   4.945   7.739   3.226
    1STR   H07340775   4.950   7.707   3.122
    1STR   H07440776   4.909   7.655   3.285
    1STR   H07540777   5.048   7.760   3.257
    1STR   C07640778   4.913   7.981   3.161
    1STR   H07740779   4.995   8.029   3.215
    1STR   H07840780   4.957   7.946   3.068
    1STR   O07940781   4.809   8.076   3.140
    1STR   C08040782   4.767   8.095   3.005
    1STR   H08140783   4.685   8.166   3.007
    1STR   C08240784   4.883   8.161   2.930
    1STR   H08340785   4.955   8.088   2.893
    1STR   H08440786   4.936   8.231   2.992
    1STR   H08540787   4.844   8.216   2.845
    1STR   C08640788   4.717   7.967   2.936
    1STR   H08740789   4.728   7.980   2.829
    1STR   H08840790   4.783   7.883   2.957
    1STR   O08940791   4.582   7.933   2.966
    1STR   C09040792   4.530   7.830   2.882
    1STR   H09140793   4.540   7.866   2.782
    1STR   C09240794   4.619   7.707   2.874
    1STR   H09340795   4.658   7.676   2.970
    1STR   H09440796   4.705   7.727   2.813
    1STR   H09540797   4.568   7.624   2.825
    1STR   C09640798   4.381   7.795   2.909
    1STR   H09740799   4.347   7.730   2.829
    1STR   H09840800   4.374   7.740   2.999
    1STR   O09940801   4.292   7.906   2.925
    1STR   C10040802   4.159   7.890   2.978
    1STR   H10140803   4.141   7.787   2.999
    1STR   C10240804   4.157   7.966   3.111
    1STR   H10340805   4.151   8.074   3.097
    1STR   H10440806   4.249   7.948   3.166
    1STR   H10540807   4.073   7.935   3.173
    1STR   C10640808   4.043   7.944   2.888
    1STR   H10740809   3.948   7.923   2.939
    1STR   H10840810   4.047   8.052   2.882
    1STR   O10940811   4.034   7.887   2.758
    1STR   C11040812   3.956   7.952   2.658
    1STR   H11140813   3.911   7.875   2.596
    1STR   C11240814   3.837   8.035   2.708
    1STR   H11340815   3.869   8.123   2.764
    1STR   H11440816   3.772   7.976   2.771
    1STR   H11540817   3.777   8.071   2.624
    1STR   C11640818   4.051   8.029   2.568
    1STR   H11740819   4.125   7.966   2.518
    1STR   H11840820   3.998   8.082   2.489
    1STR   O11940821   4.109   8.120   2.657
    1STR   C12040822   4.248   8.115   2.683
    1STR   H12140823   4.289   8.183   2.611
    1STR   C12240824   4.259   8.177   2.823
    1STR   H12340825   4.267   8.114   2.908
    1STR   H12440826   4.169   8.232   2.846
    1STR   H12540827   4.349   8.236   2.835
    1STR   C12640828   4.334   7.987   2.669
    1STR   H12740829   4.404   8.000   2.749
    1STR   H12840830   4.277   7.895   2.684
    1STR   O12940831   4.409   7.983   2.550
    1STR   C13040832   4.541   7.928   2.533
    1STR   H13140833   4.550   7.831   2.581
    1STR   C13240834   4.539   7.905   2.386
    1STR   H13340835   4.572   7.989   2.326
    1STR   H13440836   4.443   7.871   2.350
    1STR   H13540837   4.617   7.833   2.375
    1STR   C13640838   4.667   8.019   2.551
    1STR   H13740839   4.651   8.108   2.497
    1STR   H13840840   4.685   8.047   2.652
    1STR   O13940841   4.787   7.984   2.483
    1STR   C14040842   4.885   8.088   2.467
    1STR   H14140843   4.847   8.160   2.395
    1STR   C14240844   4.923   8.158   2.596
    1STR   H14340845   4.842   8.219   2.632
    1STR   H14440846   5.007   8.225   2.580
    1STR   H14540847   4.952   8.084   2.671
    1STR   C14640848   5.010   8.029   2.407
    1STR   H14740849   5.093   8.099   2.410
    1STR   H14840850   5.041   7.937   2.456
    1STR   O14940851   4.969   8.008   2.276
    1STR   C15040852   5.061   7.950   2.190
    1STR   H15140853   5.093   7.851   2.222
    1STR   C15240854   4.972   7.935   2.070
    1STR   H15340855   4.913   7.846   2.073
    1STR   H15440856   5.025   7.943   1.977
    1STR   H15540857   4.896   8.010   2.063
    1STR   C15640858   5.181   8.042   2.166
    1STR   H15740859   5.260   8.015   2.237
    1STR   H15840860   5.221   8.023   2.068
    1STR   O15940861   5.157   8.181   2.183
    1STR   C16040862   5.052   8.235   2.105
    1STR   H16140863   4.959   8.184   2.121
    1STR   C16240864   5.014   8.365   2.180
    1STR   H16340865   5.095   8.432   2.204
    1STR   H16440866   4.974   8.335   2.277
    1STR   H16540867   4.933   8.421   2.135
    1STR   C16640868   5.087   8.223   1.952
    1STR   H16740869   5.111   8.310   1.894
    1STR   H16840870   5.181   8.172   1.938
    1STR   O16940871   4.994   8.145   1.881
    1STR   C17040872   4.898   8.214   1.806
    1STR   H17140873   4.872   8.305   1.856
    1STR   C17240874   4.965   8.247   1.671
    1STR   H17340875   5.034   8.170   1.639
    1STR   H17440876   5.027   8.336   1.681
    1STR   H17540877   4.895   8.262   1.590
    1STR   C17640878   4.769   8.129   1.800
    1STR   H17740879   4.682   8.181   1.761
    1STR   H17840880   4.793   8.053   1.730
    1STR   O17940881   4.731   8.056   1.916
    1STR   C18040882   4.665   8.120   2.025
    1STR   H18140883   4.710   8.083   2.118
    1STR   C18240884   4.678   8.270   2.027
    1STR   H18340885   4.637   8.309   1.935
    1STR   H18440886   4.780   8.302   2.042
    1STR   H18540887   4.621   8.313   2.108
    1STR   C18640888   4.518   8.083   2.035
    1STR   H18740889   4.458   8.133   1.959
    1STR   H18840890   4.505   7.976   2.027
    1STR   O18940891   4.482   8.119   2.166
    1STR   C19040892   4.346   8.126   2.202
    1STR   H19140893   4.304   8.210   2.153
    1STR   C19240894   4.263   8.008   2.155
    1STR   H19340895   4.317   7.915   2.171
    1STR   H19440896   4.245   8.018   2.048
    1STR   H19540897   4.166   8.004   2.204
    1STR   C19640898   4.337   8.155   2.352
    1STR   H19740899   4.269   8.235   2.371
    1STR   H19840900   4.285   8.072   2.396
    1STR   O19940901   4.467   8.181   2.409
    1STR   C20040902   4.494   8.285   2.503
    1STR   H20140903   4.401   8.338   2.514
    1STR   C20240904   4.536   8.261   2.648
    1STR   H20340905   4.506   8.168   2.691
    1STR   H20440906   4.493   8.340   2.707
    1STR   H20540907   4.642   8.270   2.665
    1STR   C20640908   4.611   8.361   2.439
    1STR   H20740909   4.642   8.442   2.504
    1STR   H20840910   4.700   8.300   2.428
    1STR   O20940911   4.583   8.409   2.311
    1STR   C21040912   4.456   8.468   2.308
    1STR   H21140913   4.379   8.396   2.322
    1STR   C21240914   4.439   8.572   2.421
    1STR   H21340915   4.431   8.535   2.522
    1STR   H21440916   4.350   8.630   2.405
    1STR   H21540917   4.527   8.632   2.427
    1STR   C21640918   4.420   8.509   2.170
    1STR   H21740919   4.326   8.553   2.192
    1STR   H21840920   4.487   8.582   2.129
    1STR   O21940921   4.392   8.403   2.080
    1STR   C22040922   4.265   8.414   2.016
    1STR   H22140923   4.258   8.514   1.976
    1STR   C22240924   4.266   8.317   1.896
    1STR   H22340925   4.251   8.214   1.927
    1STR   H22440926   4.361   8.322   1.843
    1STR   H22540927   4.187   8.342   1.826
    1STR   C22640928   4.141   8.390   2.107
    1STR   H22740929   4.067   8.464   2.083
    1STR   H22840930   4.098   8.294   2.080
    1STR   O22940931   4.162   8.391   2.249
    1STR   C23040932   4.045   8.392   2.330
    1STR   H23140933   4.003   8.489   2.308
    1STR   C23240934   3.948   8.281   2.286
    1STR   H23340935   3.999   8.185   2.280
    1STR   H23440936   3.905   8.301   2.188
    1STR   H23540937   3.864   8.270   2.354
    1STR   C23640938   4.068   8.382   2.484
    1STR   H23740939   3.972   8.355   2.527
    1STR   H23840940   4.135   8.302   2.509
    1STR   O23940941   4.112   8.501   2.551
    1STR   C24040942   4.114   8.504   2.696
    1STR   H24140943   4.106   8.607   2.731
    1STR   C24240944   3.992   8.437   2.762
    1STR   H24340945   3.990   8.330   2.745
    1STR   H24440946   3.900   8.481   2.724
    1STR   H24540947   3.994   8.452   2.870
    1STR   C24640948   4.248   8.458   2.751
    1STR   H24740949   4.231   8.419   2.849
    1STR   H24840950   4.283   8.381   2.685
    1STR   O24940951   4.353   8.552   2.763
    1STR   C25040952   4.416   8.567   2.889
    1STR   H25140953   4.473   8.656   2.868
    1STR   C25240954   4.314   8.597   3.002
    1STR   H25340955   4.244   8.516   3.025
    1STR   H25440956   4.255   8.686   2.978
    1STR   H25540957   4.362   8.615   3.098
    1STR   C25640958   4.529   8.468   2.927
    1STR   H25740959   4.567   8.489   3.026
    1STR   H25840960   4.490   8.367   2.933
    1STR   O25940961   4.636   8.471   2.832
    1STR   C26040962   4.735   8.572   2.848
    1STR   H26140963   4.724   8.622   2.944
    1STR   C26240964   4.871   8.503   2.849
    1STR   H26340965   4.885   8.442   2.759
    1STR   H26440966   4.879   8.438   2.936
    1STR   H26540967   4.953   8.574   2.854
    1STR   C26640968   4.730   8.678   2.736
    1STR   H26740969   4.636   8.732   2.738
    1STR   H26840970   4.806   8.753   2.756
    1STR   O26940971   4.745   8.614   2.610
    1STR   C27040972   4.837   8.674   2.521
    1STR   H27140973   4.925   8.702   2.577
    1STR   C27240974   4.890   8.568   2.424
    1STR   H27340975   4.811   8.523   2.364
    1STR   H27440976   4.937   8.486   2.479
    1STR   H27540977   4.965   8.609   2.356
    1STR   C27640978   4.782   8.803   2.456
    1STR   H27740979   4.773   8.870   2.539
    1STR   H27840980   4.857   8.844   2.389
    1STR   O27940981   4.650   8.809   2.402
    1STR   C28040982   4.633   8.834   2.262
    1STR   H28140983   4.680   8.926   2.237
    1STR   C28240984   4.702   8.716   2.198
    1STR   H28340985   4.670   8.622   2.241
    1STR   H28440986   4.810   8.719   2.204
    1STR   H28540987   4.676   8.713   2.096
    1STR   C28640988   4.479   8.843   2.234
    1STR   H28740989   4.447   8.748   2.268
    1STR   H28840990   4.438   8.914   2.302
    1STR   O28940991   4.409   8.862   2.108
    1STR   C29040992   4.282   8.788   2.103
    1STR   H29140993   4.323   8.698   2.064
    1STR   C29240994   4.204   8.771   2.236
    1STR   H29340995   4.186   8.670   2.270
    1STR   H29440996   4.103   8.809   2.227
    1STR   H29540997   4.245   8.827   2.318
    1STR   C29640998   4.177   8.802   1.993
    1STR   H29740999   4.113   8.888   2.012
    1STR   H29841000   4.224   8.812   1.896
    1STR   O29941001   4.094   8.684   2.001
    1STR   C30041002   3.979   8.681   1.918
    1STR   H30141003   3.935   8.780   1.923
    1STR   C30241004   4.028   8.651   1.776
    1STR   H30341005   4.069   8.551   1.769
    1STR   H30441006   4.106   8.717   1.742
    1STR   H30541007   3.946   8.658   1.704
    1STR   C30641008   3.869   8.577   1.958
    1STR   H30741009   3.776   8.607   1.911
    1STR   H30841010   3.895   8.481   1.912
    1STR   O30941011   3.841   8.544   2.095
    1STR    H1R41012   3.927   8.691   2.195
    1STR    H1S41013   3.710   8.823   2.225
    1STR    H1T41014   3.637   8.712   2.109
    1STR    H1U41015   3.776   8.815   2.065
    1STR    H1V41016   3.760   8.492   2.327
    1STR    H1W41017   3.685   8.645   2.359
    1STR    H1X41018   4.052   8.642   2.558
    1STR    H1Y41019   4.270   8.670   2.602
    1STR    H1Z41020   4.473   8.797   2.604
    1STR    H2041021   4.531   9.063   2.416
    1STR    H2141022   4.501   9.151   2.563
    1STR    H2241023   4.588   8.998   2.566
    1STR    H2341024   4.348   9.192   2.452
    1STR    H2741025   4.042   9.009   2.481
    1STR    H2841026   4.742   7.362   3.058
    1STR    H2941027   4.539   7.270   2.947
    1STR    H2A41028   4.406   7.434   2.671
    1STR    H2B41029   4.374   7.299   2.774
    1STR    H2C41030   4.439   7.276   2.610
    1STR   BCK141031   4.885   7.310   4.720
    1STR    O0341032   4.907   7.428   4.721
    1STR    N0441033   4.976   7.223   4.687
    1STR    C0541034   5.001   7.200   4.554
    1STR    C0641035   5.018   7.298   4.453
    1STR    C0741036   5.040   7.256   4.319
    1STR    N0841037   5.100   7.335   4.224
    1STR    C0941038   5.065   7.358   4.098
    1STR    O0A41039   5.149   7.394   4.016
    1STR    O0B41040   4.935   7.344   4.074
    1STR    C0C41041   4.882   7.417   3.965
    1STR    C0D41042   4.892   7.335   3.837
    1STR    C0E41043   4.740   7.465   3.995
    1STR    O0F41044   4.733   7.568   4.092
    1STR    C0G41045   4.708   7.535   4.227
    1STR    C0H41046   4.837   7.562   4.302
    1STR    C0I41047   4.596   7.628   4.276
    1STR    O0J41048   4.494   7.573   4.361
    1STR    C0K41049   4.912   8.973   4.841
    1STR    C0M41050   4.925   9.073   4.728
    1STR    C0N41051   4.778   8.905   4.814
    1STR    O0O41052   4.664   8.985   4.800
    1STR    C0P41053   4.558   8.913   4.778
    1STR    O0Q41054   4.508   8.842   4.863
    1STR    N0R41055   4.505   8.915   4.656
    1STR    C0S41056   4.563   8.948   4.536
    1STR    C0T41057   4.684   9.013   4.530
    1STR    C0U41058   4.770   8.991   4.426
    1STR    C0V41059   4.726   8.927   4.310
    1STR    C0W41060   4.829   8.923   4.203
    1STR    C0X41061   4.590   8.888   4.301
    1STR    N0Y41062   4.543   8.835   4.182
    1STR   BCK241063   4.427   8.777   4.151
    1STR    O1041064   4.334   8.760   4.228
    1STR    C1341065   4.510   8.897   4.418
    1STR    C1441066   5.041   7.120   4.288
    1STR    C1541067   5.033   7.027   4.391
    1STR    C1641068   5.004   7.065   4.521
    1STR    C1741069   4.967   6.961   4.622
    1STR    H1B41070   4.957   7.139   4.743
    1STR    H1C41071   5.020   7.403   4.479
    1STR    H1D41072   5.199   7.348   4.241
    1STR    H1E41073   4.941   7.507   3.951
    1STR    H1F41074   4.831   7.245   3.840
    1STR    H1G41075   4.861   7.396   3.753
    1STR    H1H41076   4.995   7.305   3.820
    1STR    H1I41077   4.679   7.382   4.022
    1STR    H1J41078   4.695   7.505   3.905
    1STR    H1K41079   4.682   7.431   4.234
    1STR    H1M41080   4.921   7.513   4.255
    1STR    H1N41081   4.839   7.534   4.406
    1STR    H1O41082   4.858   7.668   4.299
    1STR    H1P41083   4.644   7.714   4.323
    1STR    H1Q41084   4.546   7.667   4.189
    1STR   C01041085   4.419   7.665   4.439
    1STR   H01141086   4.493   7.739   4.466
    1STR   C01241087   4.307   7.725   4.357
    1STR   H01341088   4.222   7.658   4.361
    1STR   H01441089   4.331   7.735   4.252
    1STR   H01541090   4.280   7.822   4.395
    1STR   C01641091   4.359   7.610   4.570
    1STR   H01741092   4.264   7.558   4.552
    1STR   H01841093   4.422   7.531   4.608
    1STR   O01941094   4.341   7.714   4.669
    1STR   C02041095   4.430   7.700   4.779
    1STR   H02141096   4.424   7.597   4.813
    1STR   C02241097   4.569   7.726   4.732
    1STR   H02341098   4.594   7.672   4.642
    1STR   H02441099   4.644   7.702   4.807
    1STR   H02541100   4.580   7.831   4.712
    1STR   C02641101   4.406   7.794   4.899
    1STR   H02741102   4.423   7.897   4.869
    1STR   H02841103   4.304   7.785   4.936
    1STR   O02941104   4.499   7.747   4.997
    1STR   C03041105   4.568   7.834   5.082
    1STR   H03141106   4.565   7.927   5.029
    1STR   C03241107   4.497   7.841   5.218
    1STR   H03341108   4.518   7.750   5.274
    1STR   H03441109   4.390   7.853   5.206
    1STR   H03541110   4.531   7.918   5.286
    1STR   C03641111   4.717   7.794   5.108
    1STR   H03741112   4.764   7.870   5.169
    1STR   H03841113   4.722   7.703   5.168
    1STR   O03941114   4.793   7.771   4.990
    1STR   C04041115   4.937   7.780   4.998
    1STR   H04141116   4.968   7.883   4.996
    1STR   C04241117   4.991   7.732   5.134
    1STR   H04341118   4.966   7.630   5.162
    1STR   H04441119   4.962   7.796   5.216
    1STR   H04541120   5.099   7.737   5.131
    1STR   C04641121   4.998   7.704   4.875
    1STR   H04741122   5.092   7.662   4.910
    1STR   H04841123   4.934   7.622   4.847
    1STR   O04941124   5.027   7.775   4.753
    1STR   C05041125   4.992   7.717   4.624
    1STR   H05141126   5.022   7.614   4.617
    1STR   C05241127   4.844   7.708   4.611
    1STR   H05341128   4.809   7.732   4.511
    1STR   H05441129   4.804   7.775   4.684
    1STR   H05541130   4.806   7.611   4.635
    1STR   C05641131   5.052   7.799   4.506
    1STR   H05741132   4.988   7.884   4.480
    1STR   H05841133   5.146   7.844   4.538
    1STR   O05941134   5.072   7.717   4.390
    1STR   C06041135   5.136   7.780   4.279
    1STR   H06141136   5.099   7.882   4.271
    1STR   C06241137   5.287   7.778   4.304
    1STR   H06341138   5.328   7.678   4.295
    1STR   H06441139   5.316   7.808   4.405
    1STR   H06541140   5.340   7.840   4.232
    1STR   C06641141   5.111   7.707   4.145
    1STR   H06741142   5.174   7.745   4.065
    1STR   H06841143   5.143   7.604   4.160
    1STR   O06941144   4.976   7.696   4.098
    1STR   C07041145   4.924   7.801   4.020
    1STR   H07141146   5.001   7.876   4.012
    1STR   C07241147   4.896   7.758   3.875
    1STR   H07341148   4.811   7.691   3.870
    1STR   H07441149   4.982   7.708   3.832
    1STR   H07541150   4.871   7.844   3.813
    1STR   C07641151   4.803   7.867   4.089
    1STR   H07741152   4.819   7.873   4.197
    1STR   H07841153   4.803   7.967   4.049
    1STR   O07941154   4.672   7.820   4.064
    1STR   C08041155   4.572   7.917   4.094
    1STR   H08141156   4.601   8.007   4.045
    1STR   C08241157   4.446   7.881   4.015
    1STR   H08341158   4.413   7.782   4.040
    1STR   H08441159   4.465   7.882   3.908
    1STR   H08541160   4.363   7.948   4.036
    1STR   C08641161   4.540   7.946   4.244
    1STR   H08741162   4.469   8.027   4.249
    1STR   H08841163   4.485   7.864   4.283
    1STR   O08941164   4.641   7.968   4.343
    1STR   C09041165   4.599   8.040   4.462
    1STR   H09141166   4.596   8.146   4.439
    1STR   C09241167   4.463   8.002   4.521
    1STR   H09341168   4.380   8.015   4.453
    1STR   H09441169   4.444   8.063   4.609
    1STR   H09541170   4.457   7.903   4.563
    1STR   C09641171   4.705   8.016   4.568
    1STR   H09741172   4.719   7.911   4.564
    1STR   H09841173   4.798   8.061   4.533
    1STR   O09941174   4.672   8.056   4.704
    1STR   C10041175   4.761   8.014   4.811
    1STR   H10141176   4.731   7.914   4.832
    1STR   C10241177   4.905   8.014   4.762
    1STR   H10341178   4.926   8.110   4.730
    1STR   H10441179   4.923   7.957   4.673
    1STR   H10541180   4.983   7.995   4.834
    1STR   C10641181   4.763   8.091   4.948
    1STR   H10741182   4.811   8.029   5.022
    1STR   H10841183   4.829   8.177   4.944
    1STR   O10941184   4.640   8.138   4.999
    1STR   C11041185   4.618   8.142   5.140
    1STR   H11141186   4.647   8.047   5.179
    1STR   C11241187   4.709   8.226   5.227
    1STR   H11341188   4.674   8.328   5.232
    1STR   H11441189   4.811   8.221   5.191
    1STR   H11541190   4.710   8.190   5.329
    1STR   C11641191   4.468   8.165   5.168
    1STR   H11741192   4.412   8.074   5.164
    1STR   H11841193   4.457   8.199   5.271
    1STR   O11941194   4.404   8.263   5.086
    1STR   C12041195   4.344   8.226   4.961
    1STR   H12141196   4.282   8.310   4.941
    1STR   C12241197   4.439   8.224   4.843
    1STR   H12341198   4.524   8.288   4.859
    1STR   H12441199   4.391   8.257   4.753
    1STR   H12541200   4.477   8.124   4.826
    1STR   C12641201   4.248   8.106   4.953
    1STR   H12741202   4.243   8.076   4.848
    1STR   H12841203   4.286   8.019   5.007
    1STR   O12941204   4.116   8.137   4.994
    1STR   C13041205   4.025   8.035   4.957
    1STR   H13141206   4.083   7.945   4.938
    1STR   C13241207   3.940   8.002   5.080
    1STR   H13341208   3.880   8.088   5.110
    1STR   H13441209   4.004   7.975   5.164
    1STR   H13541210   3.874   7.918   5.061
    1STR   C13641211   3.939   8.067   4.831
    1STR   H13741212   3.880   7.979   4.807
    1STR   H13841213   3.865   8.143   4.855
    1STR   O13941214   4.013   8.109   4.715
    1STR   C14041215   3.943   8.103   4.589
    1STR   H14141216   3.898   8.005   4.589
    1STR   C14241217   3.824   8.197   4.573
    1STR   H14341218   3.854   8.299   4.555
    1STR   H14441219   3.756   8.193   4.658
    1STR   H14541220   3.767   8.169   4.484
    1STR   C14641221   4.039   8.108   4.467
    1STR   H14741222   4.130   8.051   4.488
    1STR   H14841223   3.994   8.057   4.381
    1STR   O14941224   4.069   8.240   4.423
    1STR   C15041225   4.205   8.270   4.390
    1STR   H15141226   4.198   8.376   4.368
    1STR   C15241227   4.289   8.258   4.518
    1STR   H15341228   4.257   8.181   4.588
    1STR   H15441229   4.287   8.352   4.574
    1STR   H15541230   4.393   8.240   4.497
    1STR   C15641231   4.265   8.207   4.260
    1STR   H15741232   4.259   8.098   4.263
    1STR   H15841233   4.206   8.239   4.175
    1STR   O15941234   4.402   8.249   4.241
    1STR   C16041235   4.469   8.242   4.113
    1STR   H16141236   4.443   8.150   4.064
    1STR   C16241237   4.422   8.357   4.025
    1STR   H16341238   4.440   8.452   4.075
    1STR   H16441239   4.316   8.351   4.003
    1STR   H16541240   4.477   8.358   3.931
    1STR   C16641241   4.624   8.249   4.140
    1STR   H16741242   4.654   8.351   4.155
    1STR   H16841243   4.639   8.203   4.236
    1STR   O16941244   4.717   8.194   4.044
    1STR   C17041245   4.857   8.207   4.081
    1STR   H17141246   4.870   8.311   4.102
    1STR   C17241247   4.893   8.140   4.212
    1STR   H17341248   4.951   8.049   4.200
    1STR   H17441249   4.816   8.121   4.285
    1STR   H17541250   4.956   8.213   4.259
    1STR   C17641251   4.959   8.166   3.969
    1STR   H17741252   4.949   8.066   3.931
    1STR   H17841253   4.937   8.229   3.883
    1STR   O17941254   5.096   8.195   4.005
    1STR   C18041255   5.187   8.098   4.059
    1STR   H18141256   5.136   8.008   4.088
    1STR   C18241257   5.290   8.070   3.949
    1STR   H18341258   5.339   8.163   3.920
    1STR   H18441259   5.245   8.026   3.860
    1STR   H18541260   5.368   8.003   3.986
    1STR   C18641261   5.267   8.148   4.181
    1STR   H18741262   5.320   8.066   4.230
    1STR   H18841263   5.346   8.216   4.148
    1STR   O18941264   5.196   8.226   4.274
    1STR   C19041265   5.153   8.166   4.395
    1STR   H19141266   5.080   8.088   4.378
    1STR   C19241267   5.264   8.105   4.479
    1STR   H19341268   5.295   8.010   4.441
    1STR   H19441269   5.226   8.090   4.580
    1STR   H19541270   5.350   8.171   4.481
    1STR   C19641271   5.087   8.281   4.469
    1STR   H19741272   5.159   8.333   4.533
    1STR   H19841273   5.048   8.357   4.400
    1STR   O19941274   4.980   8.229   4.544
    1STR   C20041275   4.933   8.324   4.637
    1STR   H20141276   4.955   8.418   4.593
    1STR   C20241277   4.781   8.310   4.657
    1STR   H20341278   4.727   8.400   4.676
    1STR   H20441279   4.758   8.258   4.749
    1STR   H20541280   4.731   8.266   4.572
    1STR   C20641281   5.014   8.327   4.768
    1STR   H20741282   5.060   8.423   4.777
    1STR   H20841283   4.951   8.316   4.855
    1STR   O20941284   5.118   8.233   4.770
    1STR   C21041285   5.208   8.250   4.877
    1STR   H21141286   5.227   8.354   4.901
    1STR   C21241287   5.156   8.178   5.002
    1STR   H21341288   5.133   8.074   4.982
    1STR   H21441289   5.063   8.223   5.038
    1STR   H21541290   5.228   8.183   5.083
    1STR   C21641291   5.334   8.191   4.817
    1STR   H21741292   5.415   8.185   4.890
    1STR   H21841293   5.310   8.090   4.786
    1STR   O21941294   5.373   8.257   4.697
    1STR   C22041295   5.399   8.395   4.701
    1STR   H22141296   5.309   8.452   4.726
    1STR   C22241297   5.509   8.412   4.807
    1STR   H22341298   5.582   8.332   4.800
    1STR   H22441299   5.468   8.412   4.908
    1STR   H22541300   5.565   8.504   4.797
    1STR   C22641301   5.444   8.444   4.562
    1STR   H22741302   5.483   8.544   4.576
    1STR   H22841303   5.526   8.380   4.529
    1STR   O22941304   5.349   8.452   4.455
    1STR   C23041305   5.385   8.548   4.354
    1STR   H23141306   5.363   8.643   4.400
    1STR   C23241307   5.534   8.531   4.315
    1STR   H23341308   5.556   8.427   4.289
    1STR   H23441309   5.601   8.562   4.395
    1STR   H23541310   5.562   8.592   4.230
    1STR   C23641311   5.306   8.540   4.221
    1STR   H23741312   5.371   8.572   4.140
    1STR   H23841313   5.290   8.434   4.206
    1STR   O23941314   5.188   8.619   4.201
    1STR   C24041315   5.137   8.606   4.066
    1STR   H24141316   5.213   8.632   3.993
    1STR   C24241317   5.097   8.462   4.047
    1STR   H24341318   5.039   8.429   4.134
    1STR   H24441319   5.183   8.398   4.037
    1STR   H24541320   5.036   8.446   3.958
    1STR   C24641321   5.011   8.688   4.034
    1STR   H24741322   5.028   8.795   4.040
    1STR   H24841323   4.976   8.668   3.933
    1STR   O24941324   4.921   8.641   4.132
    1STR   C25041325   4.783   8.625   4.105
    1STR   H25141326   4.734   8.718   4.082
    1STR   C25241327   4.749   8.538   3.985
    1STR   H25341328   4.644   8.508   3.988
    1STR   H25441329   4.810   8.451   3.972
    1STR   H25541330   4.759   8.597   3.895
    1STR   C25641331   4.740   8.579   4.244
    1STR   H25741332   4.806   8.501   4.282
    1STR   H25841333   4.751   8.665   4.306
    1STR   O25941334   4.606   8.540   4.257
    1STR   C26041335   4.544   8.576   4.380
    1STR   H26141336   4.512   8.675   4.377
    1STR   C26241337   4.416   8.504   4.382
    1STR   H26341338   4.448   8.403   4.399
    1STR   H26441339   4.364   8.511   4.287
    1STR   H26541340   4.351   8.539   4.462
    1STR   C26641341   4.619   8.556   4.510
    1STR   H26741342   4.548   8.539   4.590
    1STR   H26841343   4.672   8.464   4.493
    1STR   O26941344   4.700   8.669   4.549
    1STR   C27041345   4.835   8.636   4.570
    1STR   H27141346   4.854   8.552   4.506
    1STR   C27241347   4.927   8.734   4.500
    1STR   H27341348   4.900   8.755   4.399
    1STR   H27441349   5.025   8.689   4.491
    1STR   H27541350   4.932   8.829   4.552
    1STR   C27641351   4.886   8.623   4.717
    1STR   H27741352   4.990   8.598   4.703
    1STR   H27841353   4.903   8.713   4.768
    1STR   O27941354   4.836   8.529   4.812
    1STR   C28041355   4.738   8.562   4.910
    1STR   H28141356   4.761   8.651   4.964
    1STR   C28241357   4.599   8.574   4.851
    1STR   H28341358   4.562   8.482   4.809
    1STR   H28441359   4.598   8.647   4.771
    1STR   H28541360   4.527   8.605   4.928
    1STR   C28641361   4.737   8.453   5.015
    1STR   H28741362   4.678   8.487   5.100
    1STR   H28841363   4.685   8.367   4.975
    1STR   O28941364   4.866   8.407   5.054
    1STR   C29041365   4.936   8.492   5.142
    1STR   H29141366   4.891   8.590   5.135
    1STR   C29241367   4.935   8.439   5.285
    1STR   H29341368   4.974   8.338   5.293
    1STR   H29441369   4.835   8.442   5.328
    1STR   H29541370   4.995   8.503   5.349
    1STR   C29641371   5.077   8.501   5.087
    1STR   H29741372   5.140   8.423   5.131
    1STR   H29841373   5.071   8.481   4.982
    1STR   O29941374   5.136   8.625   5.115
    1STR   C30041375   5.148   8.717   5.008
    1STR   H30141376   5.214   8.786   5.055
    1STR   C30241377   5.221   8.656   4.891
    1STR   H30341378   5.308   8.599   4.924
    1STR   H30441379   5.256   8.738   4.833
    1STR   H30541380   5.160   8.597   4.826
    1STR   C30641381   5.026   8.806   4.975
    1STR   H30741382   4.937   8.747   4.986
    1STR   H30841383   5.028   8.882   5.052
    1STR   O30941384   5.022   8.880   4.852
    1STR    H1R41385   4.910   9.032   4.932
    1STR    H1S41386   4.937   9.028   4.631
    1STR    H1T41387   4.998   9.150   4.738
    1STR    H1U41388   4.841   9.136   4.730
    1STR    H1V41389   4.757   8.832   4.889
    1STR    H1W41390   4.780   8.857   4.717
    1STR    H1X41391   4.428   8.848   4.654
    1STR    H1Y41392   4.712   9.078   4.606
    1STR    H1Z41393   4.870   9.031   4.431
    1STR    H2041394   4.791   8.909   4.103
    1STR    H2141395   4.880   9.017   4.205
    1STR    H2241396   4.907   8.852   4.223
    1STR    H2341397   4.606   8.835   4.104
    1STR    H2741398   4.411   8.856   4.423
    1STR    H2841399   5.057   7.089   4.187
    1STR    H2941400   5.051   6.925   4.373
    1STR    H2A41401   4.872   6.980   4.667
    1STR    H2B41402   5.040   6.961   4.702
    1STR    H2C41403   4.954   6.863   4.581
    1STR   BCK141404   4.240   7.492   6.814
    1STR    O0341405   4.298   7.447   6.911
    1STR    N0441406   4.118   7.551   6.814
    1STR    C0541407   4.033   7.586   6.922
    1STR    C0641408   4.062   7.549   7.055
    1STR    C0741409   4.006   7.612   7.168
    1STR    N0841410   4.069   7.590   7.289
    1STR    C0941411   4.045   7.621   7.417
    1STR    O0A41412   3.940   7.671   7.456
    1STR    O0B41413   4.146   7.580   7.503
    1STR    C0C41414   4.285   7.610   7.482
    1STR    C0D41415   4.320   7.734   7.568
    1STR    C0E41416   4.399   7.502   7.493
    1STR    O0F41417   4.464   7.462   7.375
    1STR    C0G41418   4.574   7.370   7.392
    1STR    C0H41419   4.565   7.282   7.270
    1STR    C0I41420   4.702   7.452   7.387
    1STR    O0J41421   4.827   7.394   7.358
    1STR    C0K41422   4.714   8.810   6.729
    1STR    C0M41423   4.802   8.914   6.795
    1STR    C0N41424   4.612   8.844   6.617
    1STR    O0O41425   4.524   8.743   6.563
    1STR    C0P41426   4.405   8.688   6.605
    1STR    O0Q41427   4.340   8.614   6.532
    1STR    N0R41428   4.360   8.715   6.726
    1STR    C0S41429   4.257   8.657   6.800
    1STR    C0T41430   4.164   8.560   6.754
    1STR    C0U41431   4.058   8.518   6.836
    1STR    C0V41432   4.045   8.567   6.967
    1STR    C0W41433   3.929   8.524   7.055
    1STR    C0X41434   4.139   8.660   7.015
    1STR    N0Y41435   4.122   8.712   7.141
    1STR   BCK241436   4.192   8.788   7.225
    1STR    O1041437   4.139   8.805   7.333
    1STR    C1341438   4.239   8.706   6.930
    1STR    C1441439   3.900   7.703   7.148
    1STR    C1541440   3.859   7.732   7.016
    1STR    C1641441   3.925   7.677   6.904
    1STR    C1741442   3.881   7.719   6.765
    1STR    H1B41443   4.103   7.602   6.730
    1STR    H1C41444   4.137   7.475   7.070
    1STR    H1D41445   4.154   7.536   7.282
    1STR    H1E41446   4.282   7.634   7.379
    1STR    H1F41447   4.341   7.705   7.670
    1STR    H1G41448   4.411   7.786   7.540
    1STR    H1H41449   4.240   7.808   7.568
    1STR    H1I41450   4.373   7.412   7.546
    1STR    H1J41451   4.480   7.545   7.548
    1STR    H1K41452   4.574   7.311   7.483
    1STR    H1M41453   4.535   7.345   7.188
    1STR    H1N41454   4.496   7.199   7.276
    1STR    H1O41455   4.660   7.238   7.249
    1STR    H1P41456   4.680   7.519   7.304
    1STR    H1Q41457   4.714   7.503   7.482
    1STR   C01041458   4.911   7.492   7.293
    1STR   H01141459   4.883   7.594   7.318
    1STR   C01241460   5.048   7.477   7.355
    1STR   H01341461   5.091   7.379   7.335
    1STR   H01441462   5.043   7.492   7.463
    1STR   H01541463   5.114   7.553   7.316
    1STR   C01641464   4.904   7.485   7.138
    1STR   H01741465   4.927   7.581   7.094
    1STR   H01841466   4.986   7.423   7.104
    1STR   O01941467   4.774   7.435   7.099
    1STR   C02041468   4.749   7.393   6.965
    1STR   H02141469   4.810   7.314   6.927
    1STR   C02241470   4.606   7.345   6.951
    1STR   H02341471   4.535   7.419   6.986
    1STR   H02441472   4.589   7.257   7.010
    1STR   H02541473   4.583   7.322   6.847
    1STR   C02641474   4.770   7.508   6.874
    1STR   H02741475   4.700   7.512   6.792
    1STR   H02841476   4.749   7.589   6.938
    1STR   O02941477   4.900   7.513   6.826
    1STR   C03041478   4.937   7.645   6.797
    1STR   H03141479   4.914   7.707   6.884
    1STR   C03241480   5.090   7.638   6.796
    1STR   H03341481   5.122   7.547   6.847
    1STR   H03441482   5.147   7.715   6.842
    1STR   H03541483   5.131   7.647   6.697
    1STR   C03641484   4.869   7.709   6.671
    1STR   H03741485   4.857   7.810   6.703
    1STR   H03841486   4.945   7.709   6.594
    1STR   O03941487   4.743   7.664   6.614
    1STR   C04041488   4.685   7.733   6.498
    1STR   H04141489   4.689   7.838   6.514
    1STR   C04241490   4.760   7.718   6.366
    1STR   H04341491   4.747   7.620   6.322
    1STR   H04441492   4.867   7.740   6.374
    1STR   H04541493   4.720   7.790   6.294
    1STR   C04641494   4.534   7.704   6.476
    1STR   H04741495   4.508   7.723   6.372
    1STR   H04841496   4.509   7.600   6.493
    1STR   O04941497   4.456   7.784   6.565
    1STR   C05041498   4.338   7.854   6.526
    1STR   H05141499   4.347   7.947   6.579
    1STR   C05241500   4.327   7.893   6.378
    1STR   H05341501   4.419   7.938   6.342
    1STR   H05441502   4.247   7.966   6.363
    1STR   H05541503   4.304   7.807   6.316
    1STR   C05641504   4.209   7.799   6.584
    1STR   H05741505   4.124   7.858   6.552
    1STR   H05841506   4.194   7.699   6.543
    1STR   O05941507   4.206   7.787   6.726
    1STR   C06041508   4.225   7.898   6.815
    1STR   H06141509   4.324   7.940   6.803
    1STR   C06241510   4.119   8.006   6.788
    1STR   H06341511   4.134   8.089   6.857
    1STR   H06441512   4.019   7.967   6.802
    1STR   H06541513   4.128   8.046   6.687
    1STR   C06641514   4.217   7.842   6.960
    1STR   H06741515   4.122   7.866   7.007
    1STR   H06841516   4.220   7.736   6.947
    1STR   O06941517   4.325   7.866   7.050
    1STR   C07041518   4.322   7.780   7.165
    1STR   H07141519   4.220   7.781   7.202
    1STR   C07241520   4.361   7.635   7.136
    1STR   H07341521   4.452   7.603   7.184
    1STR   H07441522   4.376   7.622   7.032
    1STR   H07541523   4.291   7.562   7.171
    1STR   C07641524   4.409   7.825   7.280
    1STR   H07741525   4.359   7.892   7.348
    1STR   H07841526   4.433   7.742   7.340
    1STR   O07941527   4.536   7.874   7.252
    1STR   C08041528   4.649   7.791   7.261
    1STR   H08141529   4.741   7.846   7.268
    1STR   C08241530   4.664   7.738   7.403
    1STR   H08341531   4.592   7.663   7.427
    1STR   H08441532   4.635   7.817   7.471
    1STR   H08541533   4.764   7.710   7.432
    1STR   C08641534   4.670   7.731   7.122
    1STR   H08741535   4.776   7.730   7.100
    1STR   H08841536   4.633   7.629   7.112
    1STR   O08941537   4.604   7.822   7.031
    1STR   C09041538   4.613   7.801   6.892
    1STR   H09141539   4.713   7.767   6.880
    1STR   C09241540   4.519   7.695   6.840
    1STR   H09341541   4.417   7.729   6.837
    1STR   H09441542   4.524   7.605   6.899
    1STR   H09541543   4.544   7.663   6.740
    1STR   C09641544   4.629   7.921   6.802
    1STR   H09741545   4.700   7.988   6.843
    1STR   H09841546   4.665   7.872   6.715
    1STR   O09941547   4.532   8.006   6.749
    1STR   C10041548   4.574   8.067   6.626
    1STR   H10141549   4.561   7.996   6.546
    1STR   C10241550   4.465   8.170   6.602
    1STR   H10341551   4.367   8.139   6.635
    1STR   H10441552   4.455   8.192   6.496
    1STR   H10541553   4.488   8.256   6.662
    1STR   C10641554   4.723   8.117   6.611
    1STR   H10741555   4.731   8.175   6.520
    1STR   H10841556   4.755   8.181   6.692
    1STR   O10941557   4.807   8.001   6.601
    1STR   C11041558   4.940   7.992   6.549
    1STR   H11141559   4.948   7.889   6.520
    1STR   C11241560   4.955   8.045   6.406
    1STR   H11341561   4.899   8.136   6.389
    1STR   H11441562   4.916   7.974   6.333
    1STR   H11541563   5.060   8.063   6.381
    1STR   C11641564   5.055   7.997   6.654
    1STR   H11741565   5.151   7.983   6.605
    1STR   H11841566   5.057   8.093   6.696
    1STR   O11941567   5.054   7.908   6.767
    1STR   C12041568   5.061   7.961   6.901
    1STR   H12141569   5.125   8.049   6.900
    1STR   C12241570   4.922   7.997   6.941
    1STR   H12341571   4.861   7.910   6.957
    1STR   H12441572   4.880   8.061   6.864
    1STR   H12541573   4.925   8.052   7.035
    1STR   C12641574   5.111   7.872   7.018
    1STR   H12741575   5.081   7.910   7.116
    1STR   H12841576   5.067   7.773   7.020
    1STR   O12941577   5.250   7.876   7.016
    1STR   C13041578   5.312   7.769   7.083
    1STR   H13141579   5.262   7.675   7.058
    1STR   C13241580   5.447   7.772   7.016
    1STR   H13341581   5.498   7.866   7.032
    1STR   H13441582   5.431   7.760   6.909
    1STR   H13541583   5.507   7.690   7.053
    1STR   C13641584   5.325   7.785   7.235
    1STR   H13741585   5.386   7.705   7.275
    1STR   H13841586   5.378   7.877   7.255
    1STR   O13941587   5.197   7.778   7.300
    1STR   C14041588   5.193   7.811   7.439
    1STR   H14141589   5.087   7.801   7.466
    1STR   C14241590   5.273   7.712   7.525
    1STR   H14341591   5.380   7.722   7.509
    1STR   H14441592   5.245   7.609   7.505
    1STR   H14541593   5.254   7.731   7.631
    1STR   C14641594   5.233   7.956   7.467
    1STR   H14741595   5.174   8.003   7.546
    1STR   H14841596   5.337   7.962   7.499
    1STR   O14941597   5.228   8.026   7.344
    1STR   C15041598   5.119   8.112   7.323
    1STR   H15141599   5.130   8.186   7.400
    1STR   C15241600   5.153   8.174   7.186
    1STR   H15341601   5.137   8.107   7.104
    1STR   H15441602   5.258   8.199   7.180
    1STR   H15541603   5.099   8.265   7.162
    1STR   C15641604   4.979   8.051   7.344
    1STR   H15741605   4.907   8.106   7.285
    1STR   H15841606   4.973   7.946   7.314
    1STR   O15941607   4.949   8.070   7.482
    1STR   C16041608   4.836   8.006   7.541
    1STR   H16141609   4.842   7.900   7.516
    1STR   C16241610   4.863   8.020   7.690
    1STR   H16341611   4.894   8.122   7.714
    1STR   H16441612   4.944   7.953   7.721
    1STR   H16541613   4.774   7.998   7.749
    1STR   C16641614   4.695   8.059   7.501
    1STR   H16741615   4.612   8.011   7.552
    1STR   H16841616   4.677   8.162   7.512
    1STR   O16941617   4.683   8.038   7.366
    1STR   C17041618   4.623   8.133   7.282
    1STR   H17141619   4.660   8.233   7.300
    1STR   C17241620   4.686   8.078   7.152
    1STR   H17341621   4.756   7.998   7.158
    1STR   H17441622   4.752   8.146   7.110
    1STR   H17541623   4.618   8.049   7.073
    1STR   C17641624   4.470   8.139   7.259
    1STR   H17741625   4.450   8.237   7.219
    1STR   H17841626   4.453   8.064   7.184
    1STR   O17941627   4.358   8.121   7.343
    1STR   C18041628   4.237   8.107   7.262
    1STR   H18141629   4.222   8.003   7.238
    1STR   C18241630   4.118   8.146   7.350
    1STR   H18341631   4.120   8.251   7.376
    1STR   H18441632   4.120   8.089   7.443
    1STR   H18541633   4.024   8.125   7.300
    1STR   C18641634   4.231   8.176   7.121
    1STR   H18741635   4.135   8.153   7.076
    1STR   H18841636   4.230   8.283   7.137
    1STR   O18941637   4.332   8.133   7.025
    1STR   C19041638   4.405   8.222   6.939
    1STR   H19141639   4.408   8.167   6.847
    1STR   C19241640   4.311   8.341   6.913
    1STR   H19341641   4.313   8.413   6.995
    1STR   H19441642   4.209   8.309   6.897
    1STR   H19541643   4.339   8.395   6.825
    1STR   C19641644   4.555   8.268   6.972
    1STR   H19741645   4.533   8.365   6.939
    1STR   H19841646   4.570   8.287   7.075
    1STR   O19941647   4.689   8.231   6.916
    1STR   C20041648   4.809   8.319   6.942
    1STR   H20141649   4.795   8.411   6.887
    1STR   C20241650   4.836   8.354   7.093
    1STR   H20341651   4.894   8.278   7.144
    1STR   H20441652   4.748   8.370   7.154
    1STR   H20541653   4.896   8.442   7.108
    1STR   C20641654   4.951   8.297   6.884
    1STR   H20741655   5.003   8.387   6.909
    1STR   H20841656   5.007   8.225   6.941
    1STR   O20941657   4.977   8.284   6.745
    1STR   C21041658   5.109   8.326   6.705
    1STR   H21141659   5.099   8.432   6.710
    1STR   C21241660   5.228   8.281   6.795
    1STR   H21341661   5.319   8.333   6.765
    1STR   H21441662   5.249   8.175   6.784
    1STR   H21541663   5.213   8.302   6.901
    1STR   C21641664   5.147   8.297   6.559
    1STR   H21741665   5.224   8.365   6.523
    1STR   H21841666   5.192   8.198   6.550
    1STR   O21941667   5.036   8.298   6.474
    1STR   C22041668   4.987   8.425   6.442
    1STR   H22141669   5.021   8.494   6.516
    1STR   C22241670   5.041   8.464   6.304
    1STR   H22341671   5.010   8.565   6.278
    1STR   H22441672   5.004   8.396   6.227
    1STR   H22541673   5.150   8.461   6.303
    1STR   C22641674   4.835   8.425   6.449
    1STR   H22741675   4.798   8.514   6.399
    1STR   H22841676   4.800   8.339   6.392
    1STR   O22941677   4.784   8.420   6.583
    1STR   C23041678   4.659   8.488   6.600
    1STR   H23141679   4.678   8.589   6.569
    1STR   C23241680   4.560   8.433   6.498
    1STR   H23341681   4.593   8.343   6.448
    1STR   H23441682   4.545   8.512   6.429
    1STR   H23541683   4.459   8.415   6.533
    1STR   C23641684   4.600   8.480   6.743
    1STR   H23741685   4.495   8.465   6.728
    1STR   H23841686   4.635   8.385   6.770
    1STR   O23941687   4.586   8.586   6.844
    1STR   C24041688   4.629   8.578   6.983
    1STR   H24141689   4.660   8.484   7.009
    1STR   C24241690   4.758   8.653   7.010
    1STR   H24341691   4.747   8.758   7.005
    1STR   H24441692   4.834   8.625   6.938
    1STR   H24541693   4.794   8.631   7.110
    1STR   C24641694   4.527   8.593   7.098
    1STR   H24741695   4.563   8.676   7.158
    1STR   H24841696   4.429   8.615   7.058
    1STR   O24941697   4.512   8.480   7.186
    1STR   C25041698   4.449   8.511   7.311
    1STR   H25141699   4.418   8.611   7.312
    1STR   C25241700   4.318   8.442   7.346
    1STR   H25341701   4.337   8.342   7.381
    1STR   H25441702   4.249   8.444   7.262
    1STR   H25541703   4.269   8.493   7.428
    1STR   C25641704   4.547   8.512   7.426
    1STR   H25741705   4.630   8.577   7.397
    1STR   H25841706   4.495   8.560   7.510
    1STR   O25941707   4.589   8.384   7.472
    1STR   C26041708   4.704   8.395   7.555
    1STR   H26141709   4.702   8.496   7.584
    1STR   C26241710   4.691   8.325   7.692
    1STR   H26341711   4.702   8.219   7.698
    1STR   H26441712   4.591   8.341   7.732
    1STR   H26541713   4.764   8.366   7.762
    1STR   C26641714   4.829   8.371   7.465
    1STR   H26741715   4.835   8.270   7.429
    1STR   H26841716   4.808   8.428   7.375
    1STR   O26941717   4.957   8.407   7.518
    1STR   C27041718   5.053   8.428   7.413
    1STR   H27141719   5.030   8.359   7.333
    1STR   C27241720   5.028   8.564   7.358
    1STR   H27341721   5.019   8.636   7.438
    1STR   H27441722   4.940   8.566   7.295
    1STR   H27541723   5.112   8.593   7.297
    1STR   C27641724   5.203   8.415   7.451
    1STR   H27741725   5.245   8.504   7.497
    1STR   H27841726   5.214   8.336   7.525
    1STR   O27941727   5.280   8.376   7.336
    1STR   C28041728   5.359   8.474   7.269
    1STR   H28141729   5.351   8.566   7.322
    1STR   C28241730   5.504   8.428   7.279
    1STR   H28341731   5.515   8.328   7.238
    1STR   H28441732   5.536   8.425   7.384
    1STR   H28541733   5.570   8.494   7.225
    1STR   C28641734   5.320   8.498   7.121
    1STR   H28741735   5.363   8.592   7.086
    1STR   H28841736   5.361   8.420   7.057
    1STR   O28941737   5.180   8.495   7.101
    1STR   C29041738   5.120   8.594   7.019
    1STR   H29141739   5.021   8.556   7.006
    1STR   C29241740   5.084   8.723   7.085
    1STR   H29341741   4.994   8.710   7.144
    1STR   H29441742   5.054   8.795   7.010
    1STR   H29541743   5.164   8.761   7.147
    1STR   C29641744   5.171   8.616   6.878
    1STR   H29741745   5.233   8.705   6.871
    1STR   H29841746   5.233   8.534   6.844
    1STR   O29941747   5.051   8.626   6.803
    1STR   C30041748   5.051   8.713   6.693
    1STR   H30141749   5.063   8.811   6.738
    1STR   C30241750   5.167   8.678   6.598
    1STR   H30341751   5.194   8.574   6.597
    1STR   H30441752   5.258   8.727   6.630
    1STR   H30541753   5.144   8.705   6.495
    1STR   C30641754   4.912   8.718   6.624
    1STR   H30741755   4.902   8.808   6.569
    1STR   H30841756   4.899   8.646   6.546
    1STR   O30941757   4.804   8.701   6.713
    1STR    H1R41758   4.649   8.786   6.809
    1STR    H1S41759   4.746   8.979   6.857
    1STR    H1T41760   4.866   8.973   6.733
    1STR    H1U41761   4.873   8.862   6.859
    1STR    H1V41762   4.671   8.871   6.532
    1STR    H1W41763   4.557   8.934   6.633
    1STR    H1X41764   4.402   8.801   6.761
    1STR    H1Y41765   4.171   8.518   6.655
    1STR    H1Z41766   3.987   8.446   6.797
    1STR    H2041767   3.967   8.473   7.144
    1STR    H2141768   3.870   8.610   7.086
    1STR    H2241769   3.863   8.455   7.003
    1STR    H2341770   4.035   8.684   7.185
    1STR    H2741771   4.300   8.785   6.964
    1STR    H2841772   3.854   7.751   7.232
    1STR    H2941773   3.778   7.801   7.002
    1STR    H2A41774   3.966   7.746   6.703
    1STR    H2B41775   3.815   7.805   6.770
    1STR    H2C41776   3.827   7.639   6.717
    1STR   BCK141777   6.983   0.390   0.240
    1STR    O0341778   7.079   0.319   0.215
    1STR    N0441779   6.943   0.427   0.363
    1STR    C0541780   7.020   0.456   0.476
    1STR    C0641781   7.159   0.436   0.472
    1STR    C0741782   7.242   0.476   0.577
    1STR    N0841783   7.374   0.446   0.565
    1STR    C0941784   7.468   0.534   0.542
    1STR    O0A41785   7.522   0.600   0.631
    1STR    O0B41786   7.491   0.534   0.411
    1STR    C0C41787   7.577   0.624   0.346
    1STR    C0D41788   7.721   0.610   0.394
    1STR    C0E41789   7.566   0.609   0.192
    1STR    O0F41790   7.448   0.667   0.138
    1STR    C0G41791   7.373   0.594   0.043
    1STR    C0H41792   7.296   0.495   0.130
    1STR    C0I41793   7.278   0.694   9.287
    1STR    O0J41794   7.216   0.668   9.160
    1STR    C0K41795   6.237   1.628   0.425
    1STR    C0M41796   6.187   1.561   0.553
    1STR    C0N41797   6.322   1.751   0.464
    1STR    O0O41798   6.459   1.742   0.435
    1STR    C0P41799   6.501   1.753   0.310
    1STR    O0Q41800   6.432   1.749   0.209
    1STR    N0R41801   6.631   1.771   0.312
    1STR    C0S41802   6.725   1.789   0.213
    1STR    C0T41803   6.854   1.802   0.260
    1STR    C0U41804   6.955   1.841   0.174
    1STR    C0V41805   6.938   1.845   0.035
    1STR    C0W41806   7.059   1.876   9.268
    1STR    C0X41807   6.810   1.824   9.303
    1STR    N0Y41808   6.802   1.834   9.165
    1STR   BCK241809   6.705   1.831   9.075
    1STR    O1041810   6.733   1.847   8.957
    1STR    C1341811   6.702   1.805   0.074
    1STR    C1441812   7.188   0.542   0.689
    1STR    C1541813   7.049   0.561   0.696
    1STR    C1641814   6.964   0.516   0.592
    1STR    C1741815   6.815   0.533   0.615
    1STR    H1B41816   6.852   0.470   0.362
    1STR    H1C41817   7.208   0.388   0.389
    1STR    H1D41818   7.394   0.359   0.514
    1STR    H1E41819   7.539   0.719   0.374
    1STR    H1F41820   7.755   0.510   0.375
    1STR    H1G41821   7.786   0.682   0.344
    1STR    H1H41822   7.730   0.628   0.501
    1STR    H1I41823   7.579   0.507   0.159
    1STR    H1J41824   7.650   0.660   0.147
    1STR    H1K41825   7.446   0.546   9.298
    1STR    H1M41826   7.351   0.463   0.217
    1STR    H1N41827   7.265   0.405   0.077
    1STR    H1O41828   7.209   0.542   0.172
    1STR    H1P41829   7.195   0.720   0.033
    1STR    H1Q41830   7.342   0.780   9.271
    1STR   C01041831   7.165   0.781   9.085
    1STR   H01141832   7.106   0.846   9.149
    1STR   C01241833   7.278   0.853   9.014
    1STR   H01341834   7.305   0.807   8.918
    1STR   H01441835   7.369   0.847   9.068
    1STR   H01541836   7.252   0.957   8.993
    1STR   C01641837   7.080   0.739   8.966
    1STR   H01741838   7.084   0.809   8.883
    1STR   H01841839   7.131   0.651   8.932
    1STR   O01941840   6.949   0.700   8.990
    1STR   C02041841   6.850   0.797   8.967
    1STR   H02141842   6.873   0.891   9.018
    1STR   C02241843   6.821   0.826   8.819
    1STR   H02341844   6.760   0.913   8.804
    1STR   H02441845   6.763   0.745   8.774
    1STR   H02541846   6.910   0.844   8.760
    1STR   C02641847   6.733   0.722   9.027
    1STR   H02741848   6.637   0.764   8.998
    1STR   H02841849   6.733   0.623   8.983
    1STR   O02941850   6.745   0.703   9.167
    1STR   C03041851   6.742   0.820   9.246
    1STR   H03141852   6.829   0.880   9.224
    1STR   C03241853   6.616   0.903   9.229
    1STR   H03341854   6.566   0.900   9.134
    1STR   H03441855   6.636   1.005   9.258
    1STR   H03541856   6.543   0.863   9.296
    1STR   C03641857   6.743   0.777   0.072
    1STR   H03741858   6.705   0.859   0.132
    1STR   H03841859   6.672   0.696   0.085
    1STR   O03941860   6.869   0.738   0.121
    1STR   C04041861   6.887   0.754   0.260
    1STR   H04141862   6.869   0.860   0.271
    1STR   C04241863   6.774   0.687   0.337
    1STR   H04341864   6.766   0.582   0.317
    1STR   H04441865   6.676   0.724   0.309
    1STR   H04541866   6.785   0.706   0.442
    1STR   C04641867   7.035   0.719   0.299
    1STR   H04741868   7.060   0.617   0.285
    1STR   H04841869   7.088   0.763   0.217
    1STR   O04941870   7.091   0.765   0.426
    1STR   C05041871   7.236   0.772   0.435
    1STR   H05141872   7.275   0.672   0.429
    1STR   C05241873   7.299   0.843   0.319
    1STR   H05341874   7.260   0.942   0.305
    1STR   H05441875   7.287   0.780   0.235
    1STR   H05541876   7.405   0.860   0.325
    1STR   C05641877   7.294   0.843   0.559
    1STR   H05741878   7.263   0.947   0.561
    1STR   H05841879   7.260   0.797   0.651
    1STR   O05941880   7.437   0.833   0.552
    1STR   C06041881   7.514   0.952   0.555
    1STR   H06141882   7.459   1.027   0.501
    1STR   C06241883   7.532   0.982   0.705
    1STR   H06341884   7.572   0.893   0.755
    1STR   H06441885   7.437   1.007   0.752
    1STR   H06541886   7.602   1.063   0.722
    1STR   C06641887   7.653   0.942   0.487
    1STR   H06741888   7.711   1.033   0.503
    1STR   H06841889   7.709   0.862   0.537
    1STR   O06941890   7.650   0.908   0.349
    1STR   C07041891   7.681   1.005   0.250
    1STR   H07141892   7.620   1.094   0.259
    1STR   C07241893   7.831   1.039   0.252
    1STR   H07341894   7.891   0.948   0.238
    1STR   H07441895   7.862   1.086   0.345
    1STR   H07541896   7.855   1.108   0.171
    1STR   C07641897   7.645   0.944   0.116
    1STR   H07741898   7.681   1.010   0.039
    1STR   H07841899   7.702   0.853   0.102
    1STR   O07941900   7.505   0.912   0.107
    1STR   C08041901   7.427   1.005   0.035
    1STR   H08141902   7.455   1.097   0.080
    1STR   C08241903   7.484   1.005   9.211
    1STR   H08341904   7.525   0.908   9.184
    1STR   H08441905   7.566   1.075   9.201
    1STR   H08541906   7.412   1.038   9.137
    1STR   C08641907   7.268   0.994   0.047
    1STR   H08741908   7.226   0.987   9.268
    1STR   H08841909   7.237   0.904   0.093
    1STR   O08941910   7.198   1.095   0.122
    1STR   C09041911   7.058   1.087   0.162
    1STR   H09141912   7.019   1.187   0.151
    1STR   C09241913   6.983   1.000   0.064
    1STR   H09341914   7.017   0.898   0.069
    1STR   H09441915   6.999   1.025   9.280
    1STR   H09541916   6.877   1.006   0.086
    1STR   C09641917   7.033   1.048   0.312
    1STR   H09741918   7.056   0.948   0.315
    1STR   H09841919   7.110   1.088   0.375
    1STR   O09941920   6.902   1.063   0.376
    1STR   C10041921   6.873   0.983   0.496
    1STR   H10141922   6.897   0.881   0.475
    1STR   C10241923   6.958   1.008   0.619
    1STR   H10341924   7.064   0.999   0.597
    1STR   H10441925   6.939   0.933   0.696
    1STR   H10541926   6.935   1.104   0.662
    1STR   C10641927   6.725   0.980   0.542
    1STR   H10741928   6.718   0.924   0.634
    1STR   H10841929   6.688   1.081   0.562
    1STR   O10941930   6.645   0.914   0.444
    1STR   C11041931   6.511   0.873   0.469
    1STR   H11141932   6.515   0.764   0.471
    1STR   C11241933   6.449   0.915   0.603
    1STR   H11341934   6.449   1.022   0.615
    1STR   H11441935   6.502   0.871   0.688
    1STR   H11541936   6.345   0.882   0.609
    1STR   C11641937   6.425   0.910   0.346
    1STR   H11741938   6.473   0.872   0.256
    1STR   H11841939   6.331   0.856   0.353
    1STR   O11941940   6.393   1.049   0.338
    1STR   C12041941   6.465   1.132   0.245
    1STR   H12141942   6.439   1.235   0.268
    1STR   C12241943   6.616   1.123   0.263
    1STR   H12341944   6.656   1.025   0.243
    1STR   H12441945   6.645   1.150   0.364
    1STR   H12541946   6.669   1.189   0.197
    1STR   C12641947   6.436   1.106   0.098
    1STR   H12741948   6.515   1.157   0.043
    1STR   H12841949   6.447   1.000   0.084
    1STR   O12941950   6.312   1.145   0.041
    1STR   C13041951   6.294   1.097   9.227
    1STR   H13141952   6.315   0.991   9.228
    1STR   C13241953   6.148   1.117   9.192
    1STR   H13341954   6.084   1.065   9.263
    1STR   H13441955   6.126   1.080   9.092
    1STR   H13541956   6.123   1.223   9.196
    1STR   C13641957   6.386   1.159   9.120
    1STR   H13741958   6.352   1.259   9.096
    1STR   H13841959   6.486   1.169   9.161
    1STR   O13941960   6.396   1.084   8.999
    1STR   C14041961   6.500   1.136   8.916
    1STR   H14141962   6.501   1.245   8.925
    1STR   C14241963   6.633   1.078   8.962
    1STR   H14341964   6.628   0.971   8.953
    1STR   H14441965   6.659   1.101   9.064
    1STR   H14541966   6.715   1.111   8.900
    1STR   C14641967   6.484   1.104   8.766
    1STR   H14741968   6.537   1.013   8.739
    1STR   H14841969   6.379   1.089   8.741
    1STR   O14941970   6.533   1.218   8.697
    1STR   C15041971   6.609   1.201   8.579
    1STR   H15141972   6.589   1.104   8.533
    1STR   C15241973   6.555   1.313   8.489
    1STR   H15341974   6.568   1.410   8.536
    1STR   H15441975   6.448   1.300   8.472
    1STR   H15541976   6.605   1.315   8.393
    1STR   C15641977   6.762   1.219   8.601
    1STR   H15741978   6.813   1.216   8.504
    1STR   H15841979   6.784   1.318   8.641
    1STR   O15941980   6.818   1.118   8.683
    1STR   C16041981   6.949   1.143   8.738
    1STR   H16141982   6.985   1.047   8.775
    1STR   C16241983   7.050   1.191   8.634
    1STR   H16341984   7.026   1.291   8.597
    1STR   H16441985   7.055   1.123   8.549
    1STR   H16541986   7.150   1.196   8.678
    1STR   C16641987   6.945   1.235   8.861
    1STR   H16741988   7.000   1.326   8.838
    1STR   H16841989   6.845   1.269   8.882
    1STR   O16941990   7.000   1.172   8.977
    1STR   C17041991   7.006   1.258   9.091
    1STR   H17141992   7.012   1.360   9.060
    1STR   C17241993   6.878   1.255   9.173
    1STR   H17341994   6.867   1.346   9.231
    1STR   H17441995   6.865   1.172   9.241
    1STR   H17541996   6.798   1.247   9.104
    1STR   C17641997   7.133   1.228   9.170
    1STR   H17741998   7.103   1.212   9.271
    1STR   H17841999   7.177   1.138   9.128
    1STR   O17942000   7.229   1.333   9.180
    1STR   C18042001   7.351   1.294   9.241
    1STR   H18142002   7.338   1.193   9.259
    1STR   C18242003   7.448   1.314   9.128
    1STR   H18342004   7.445   1.420   9.104
    1STR   H18442005   7.419   1.258   9.039
    1STR   H18542006   7.549   1.285   9.157
    1STR   C18642007   7.388   1.358   0.059
    1STR   H18742008   7.443   1.447   0.035
    1STR   H18842009   7.294   1.380   0.108
    1STR   O18942010   7.480   1.300   0.154
    1STR   C19042011   7.441   1.319   0.292
    1STR   H19142012   7.395   1.417   0.305
    1STR   C19242013   7.343   1.209   0.321
    1STR   H19342014   7.250   1.241   0.280
    1STR   H19442015   7.328   1.186   0.425
    1STR   H19542016   7.377   1.116   0.277
    1STR   C19642017   7.550   1.304   0.399
    1STR   H19742018   7.569   1.201   0.425
    1STR   H19842019   7.645   1.334   0.359
    1STR   O19942020   7.512   1.381   0.514
    1STR   C20042021   7.464   1.309   0.626
    1STR   H20142022   7.468   1.204   0.605
    1STR   C20242023   7.558   1.337   0.743
    1STR   H20342024   7.557   1.442   0.769
    1STR   H20442025   7.660   1.309   0.717
    1STR   H20542026   7.529   1.279   0.831
    1STR   C20642027   7.317   1.333   0.663
    1STR   H20742028   7.283   1.247   0.722
    1STR   H20842029   7.306   1.421   0.726
    1STR   O20942030   7.235   1.350   0.548
    1STR   C21042031   7.103   1.297   0.551
    1STR   H21142032   7.117   1.191   0.550
    1STR   C21242033   7.034   1.333   0.682
    1STR   H21342034   7.061   1.432   0.712
    1STR   H21442035   7.061   1.266   0.763
    1STR   H21542036   6.926   1.326   0.669
    1STR   C21642037   7.028   1.339   0.421
    1STR   H21742038   7.064   1.432   0.390
    1STR   H21842039   7.061   1.286   0.335
    1STR   O21942040   6.885   1.334   0.420
    1STR   C22042041   6.821   1.423   0.328
    1STR   H22142042   6.854   1.524   0.350
    1STR   C22242043   6.858   1.403   0.181
    1STR   H22342044   6.966   1.409   0.169
    1STR   H22442045   6.815   1.481   0.120
    1STR   H22542046   6.827   1.307   0.142
    1STR   C22642047   6.669   1.425   0.351
    1STR   H22742048   6.633   1.527   0.352
    1STR   H22842049   6.613   1.381   0.270
    1STR   O22942050   6.642   1.356   0.472
    1STR   C23042051   6.551   1.415   0.562
    1STR   H23142052   6.519   1.514   0.531
    1STR   C23242053   6.430   1.322   0.568
    1STR   H23342054   6.465   1.220   0.575
    1STR   H23442055   6.371   1.329   0.477
    1STR   H23542056   6.366   1.342   0.654
    1STR   C23642057   6.624   1.423   0.697
    1STR   H23742058   6.564   1.476   0.771
    1STR   H23842059   6.637   1.322   0.736
    1STR   O23942060   6.755   1.478   0.691
    1STR   C24042061   6.773   1.603   0.625
    1STR   H24142062   6.747   1.597   0.521
    1STR   C24242063   6.678   1.705   0.686
    1STR   H24342064   6.673   1.691   0.793
    1STR   H24442065   6.576   1.693   0.650
    1STR   H24542066   6.706   1.807   0.663
    1STR   C24642067   6.923   1.639   0.631
    1STR   H24742068   6.928   1.744   0.637
    1STR   H24842069   6.970   1.610   0.724
    1STR   O24942070   6.994   1.594   0.515
    1STR   C25042071   7.112   1.659   0.466
    1STR   H25142072   7.088   1.764   0.475
    1STR   C25242073   7.239   1.636   0.545
    1STR   H25342074   7.215   1.602   0.646
    1STR   H25442075   7.295   1.728   0.550
    1STR   H25542076   7.304   1.564   0.496
    1STR   C25642077   7.137   1.651   0.314
    1STR   H25742078   7.034   1.653   0.286
    1STR   H25842079   7.195   1.740   0.288
    1STR   O25942080   7.167   1.546   0.220
    1STR   C26042081   7.167   1.601   0.085
    1STR   H26142082   7.123   1.695   0.094
    1STR   C26242083   7.305   1.645   0.044
    1STR   H26342084   7.341   1.599   9.272
    1STR   H26442085   7.366   1.611   0.126
    1STR   H26542086   7.316   1.752   0.031
    1STR   C26642087   7.079   1.547   9.289
    1STR   H26742088   7.068   1.440   9.296
    1STR   H26842089   6.979   1.587   9.301
    1STR   O26942090   7.142   1.592   9.167
    1STR   C27042091   7.085   1.594   9.036
    1STR   H27142092   7.113   1.694   9.005
    1STR   C27242093   7.168   1.510   8.937
    1STR   H27342094   7.118   1.504   8.841
    1STR   H27442095   7.189   1.408   8.966
    1STR   H27542096   7.266   1.556   8.923
    1STR   C27642097   6.930   1.601   9.019
    1STR   H27742098   6.885   1.610   9.117
    1STR   H27842099   6.913   1.696   8.969
    1STR   O27942100   6.859   1.502   8.945
    1STR   C28042101   6.717   1.522   8.945
    1STR   H28142102   6.695   1.626   8.939
    1STR   C28242103   6.654   1.465   8.820
    1STR   H28342104   6.664   1.358   8.823
    1STR   H28442105   6.703   1.502   8.731
    1STR   H28542106   6.548   1.488   8.814
    1STR   C28642107   6.650   1.464   9.071
    1STR   H28742108   6.641   1.357   9.062
    1STR   H28842109   6.713   1.488   9.156
    1STR   O28942110   6.517   1.509   9.093
    1STR   C29042111   6.468   1.469   9.222
    1STR   H29142112   6.490   1.364   9.240
    1STR   C29242113   6.532   1.545   0.016
    1STR   H29342114   6.640   1.551   0.016
    1STR   H29442115   6.501   1.506   0.113
    1STR   H29542116   6.492   1.645   0.010
    1STR   C29642117   6.317   1.493   9.230
    1STR   H29742118   6.296   1.600   9.227
    1STR   H29842119   6.263   1.449   9.147
    1STR   O29942120   6.279   1.431   0.031
    1STR   C30042121   6.205   1.509   0.122
    1STR   H30142122   6.236   1.614   0.120
    1STR   C30242123   6.060   1.494   0.075
    1STR   H30342124   6.031   1.389   0.071
    1STR   H30442125   6.046   1.537   9.296
    1STR   H30542126   5.995   1.544   0.144
    1STR   C30642127   6.227   1.451   0.263
    1STR   H30742128   6.133   1.427   0.312
    1STR   H30842129   6.274   1.355   0.252
    1STR   O30942130   6.309   1.533   0.347
    1STR    H1R42131   6.154   1.664   0.365
    1STR    H1S42132   6.121   1.627   0.609
    1STR    H1T42133   6.270   1.538   0.618
    1STR    H1U42134   6.133   1.469   0.534
    1STR    H1V42135   6.315   1.772   0.570
    1STR    H1W42136   6.281   1.839   0.415
    1STR    H1X42137   6.667   1.776   0.407
    1STR    H1Y42138   6.875   1.796   0.366
    1STR    H1Z42139   7.050   1.868   0.217
    1STR    H2042140   7.153   1.872   0.001
    1STR    H2142141   7.065   1.810   9.183
    1STR    H2242142   7.065   1.976   9.230
    1STR    H2342143   6.887   1.871   9.120
    1STR    H2742144   6.600   1.809   0.042
    1STR    H2842145   7.253   0.577   0.768
    1STR    H2942146   7.007   0.609   0.783
    1STR    H2A42147   6.779   0.465   0.691
    1STR    H2B42148   6.755   0.514   0.527
    1STR    H2C42149   6.794   0.635   0.649
    1STR   BCK142150   7.546   0.247   1.769
    1STR    O0342151   7.548   0.128   1.745
    1STR    N0442152   7.606   0.329   1.684
    1STR    C0542153   7.594   0.464   1.697
    1STR    C0642154   7.473   0.523   1.661
    1STR    C0742155   7.431   0.636   1.731
    1STR    N0842156   7.300   0.672   1.720
    1STR    C0942157   7.238   0.721   1.614
    1STR    O0A42158   7.297   0.761   1.514
    1STR    O0B42159   7.104   0.733   1.628
    1STR    C0C42160   7.012   0.649   1.701
    1STR    C0D42161   6.905   0.603   1.603
    1STR    C0E42162   7.042   0.555   1.822
    1STR    O0F42163   7.159   0.574   1.900
    1STR    C0G42164   7.141   0.598   2.039
    1STR    C0H42165   7.085   0.485   2.115
    1STR    C0I42166   7.272   0.626   2.110
    1STR    O0J42167   7.269   0.732   2.205
    1STR    C0K42168   7.745   1.593   1.938
    1STR    C0M42169   7.836   1.473   1.967
    1STR    C0N42170   7.687   1.598   1.794
    1STR    O0O42171   7.568   1.677   1.785
    1STR    C0P42172   7.573   1.806   1.822
    1STR    O0Q42173   7.673   1.864   1.857
    1STR    N0R42174   7.459   1.873   1.821
    1STR    C0S42175   7.333   1.835   1.780
    1STR    C0T42176   7.313   1.754   1.669
    1STR    C0U42177   7.183   1.720   1.632
    1STR    C0V42178   7.071   1.764   1.705
    1STR    C0W42179   6.939   1.725   1.642
    1STR    C0X42180   7.090   1.843   1.823
    1STR    N0Y42181   6.996   1.883   1.920
    1STR   BCK242182   6.865   1.901   1.936
    1STR    O1042183   6.817   1.876   2.045
    1STR    C1342184   7.223   1.874   1.858
    1STR    C1442185   7.514   0.693   1.829
    1STR    C1542186   7.645   0.646   1.848
    1STR    C1642187   7.685   0.530   1.780
    1STR    C1742188   7.817   0.464   1.809
    1STR    H1B42189   7.656   0.288   1.607
    1STR    H1C42190   7.405   0.472   1.594
    1STR    H1D42191   7.238   0.649   1.800
    1STR    H1E42192   6.953   0.718   1.754
    1STR    H1F42193   6.912   0.500   1.570
    1STR    H1G42194   6.810   0.612   1.650
    1STR    H1H42195   6.901   0.666   1.513
    1STR    H1I42196   7.044   0.454   1.789
    1STR    H1J42197   6.954   0.561   1.886
    1STR    H1K42198   7.068   0.676   2.045
    1STR    H1M42199   6.999   0.438   2.072
    1STR    H1N42200   7.059   0.528   2.211
    1STR    H1O42201   7.160   0.409   2.134
    1STR    H1P42202   7.317   0.539   2.153
    1STR    H1Q42203   7.346   0.651   2.035
    1STR   C01042204   7.206   0.735   2.334
    1STR   H01142205   7.248   0.831   2.354
    1STR   C01242206   7.057   0.769   2.347
    1STR   H01342207   7.003   0.722   2.267
    1STR   H01442208   7.035   0.875   2.338
    1STR   H01542209   7.015   0.742   2.444
    1STR   C01642210   7.269   0.662   2.452
    1STR   H01742211   7.344   0.723   2.502
    1STR   H01842212   7.196   0.641   2.529
    1STR   O01942213   7.324   0.544   2.402
    1STR   C02042214   7.463   0.552   2.375
    1STR   H02142215   7.511   0.548   2.472
    1STR   C02242216   7.479   0.420   2.300
    1STR   H02342217   7.541   0.429   2.212
    1STR   H02442218   7.384   0.378   2.267
    1STR   H02542219   7.521   0.346   2.368
    1STR   C02642220   7.517   0.677   2.298
    1STR   H02742221   7.506   0.670   2.191
    1STR   H02842222   7.466   0.765   2.332
    1STR   O02942223   7.653   0.705   2.321
    1STR   C03042224   7.692   0.839   2.301
    1STR   H03142225   7.630   0.906   2.360
    1STR   C03242226   7.830   0.836   2.365
    1STR   H03342227   7.890   0.764   2.311
    1STR   H03442228   7.826   0.799   2.467
    1STR   H03542229   7.879   0.933   2.364
    1STR   C03642230   7.702   0.887   2.154
    1STR   H03742231   7.751   0.984   2.158
    1STR   H03842232   7.769   0.821   2.099
    1STR   O03942233   7.579   0.900   2.079
    1STR   C04042234   7.578   1.010   1.986
    1STR   H04142235   7.589   1.101   2.045
    1STR   C04242236   7.694   1.002   1.885
    1STR   H04342237   7.684   0.915   1.821
    1STR   H04442238   7.792   0.998   1.932
    1STR   H04542239   7.693   1.089   1.820
    1STR   C04642240   7.444   1.025   1.909
    1STR   H04742241   7.448   1.116   1.850
    1STR   H04842242   7.428   0.950   1.832
    1STR   O04942243   7.333   1.037   1.996
    1STR   C05042244   7.234   0.935   1.987
    1STR   H05142245   7.290   0.843   1.989
    1STR   C05242246   7.142   0.940   2.108
    1STR   H05342247   7.192   0.968   2.199
    1STR   H05442248   7.094   0.847   2.124
    1STR   H05542249   7.051   0.994   2.100
    1STR   C05642250   7.145   0.930   1.864
    1STR   H05742251   7.119   1.026   1.820
    1STR   H05842252   7.202   0.888   1.784
    1STR   O05942253   7.029   0.854   1.900
    1STR   C06042254   6.907   0.927   1.899
    1STR   H06142255   6.940   1.026   1.916
    1STR   C06242256   6.864   0.951   1.751
    1STR   H06342257   6.848   0.867   1.685
    1STR   H06442258   6.940   1.008   1.697
    1STR   H06542259   6.771   1.005   1.743
    1STR   C06642260   6.802   0.912   2.019
    1STR   H06742261   6.798   1.012   2.060
    1STR   H06842262   6.706   0.898   1.973
    1STR   O06942263   6.807   0.836   2.144
    1STR   C07042264   6.731   0.894   2.256
    1STR   H07142265   6.796   0.976   2.286
    1STR   C07242266   6.594   0.950   2.207
    1STR   H07342267   6.561   0.917   2.110
    1STR   H07442268   6.600   1.057   2.206
    1STR   H07542269   6.508   0.933   2.271
    1STR   C07642270   6.693   0.820   2.392
    1STR   H07742271   6.609   0.873   2.431
    1STR   H07842272   6.637   0.731   2.372
    1STR   O07942273   6.778   0.812   2.511
    1STR   C08042274   6.714   0.837   2.641
    1STR   H08142275   6.673   0.932   2.623
    1STR   C08242276   6.584   0.758   2.669
    1STR   H08342277   6.518   0.750   2.583
    1STR   H08442278   6.526   0.806   2.748
    1STR   H08542279   6.603   0.657   2.703
    1STR   C08642280   6.789   0.875   2.776
    1STR   H08742281   6.772   0.977   2.807
    1STR   H08842282   6.737   0.823   2.855
    1STR   O08942283   6.929   0.855   2.795
    1STR   C09042284   6.986   0.907   2.916
    1STR   H09142285   7.006   1.012   2.906
    1STR   C09242286   6.900   0.895   3.041
    1STR   H09342287   6.871   0.792   3.054
    1STR   H09442288   6.813   0.960   3.035
    1STR   H09542289   6.956   0.927   3.129
    1STR   C09642290   7.120   0.837   2.938
    1STR   H09742291   7.118   0.790   3.035
    1STR   H09842292   7.128   0.755   2.869
    1STR   O09942293   7.229   0.929   2.936
    1STR   C10042294   7.352   0.876   2.887
    1STR   H10142295   7.384   0.789   2.941
    1STR   C10242296   7.335   0.844   2.740
    1STR   H10342297   7.260   0.769   2.714
    1STR   H10442298   7.427   0.813   2.691
    1STR   H10542299   7.303   0.937   2.696
    1STR   C10642300   7.462   0.981   2.906
    1STR   H10742301   7.421   1.080   2.889
    1STR   H10842302   7.496   0.981   3.010
    1STR   O10942303   7.572   0.949   2.820
    1STR   C11042304   7.612   1.054   2.733
    1STR   H11142305   7.639   1.139   2.795
    1STR   C11242306   7.739   1.010   2.661
    1STR   H11342307   7.713   0.929   2.593
    1STR   H11442308   7.814   0.975   2.731
    1STR   H11542309   7.781   1.092   2.602
    1STR   C11642310   7.504   1.100   2.631
    1STR   H11742311   7.415   1.136   2.682
    1STR   H11842312   7.547   1.184   2.579
    1STR   O11942313   7.462   1.009   2.530
    1STR   C12042314   7.364   1.071   2.445
    1STR   H12142315   7.368   1.179   2.452
    1STR   C12242316   7.406   1.048   2.300
    1STR   H12342317   7.510   1.076   2.285
    1STR   H12442318   7.346   1.111   2.236
    1STR   H12542319   7.398   0.947   2.264
    1STR   C12642320   7.218   1.036   2.481
    1STR   H12742321   7.153   1.047   2.394
    1STR   H12842322   7.205   0.935   2.517
    1STR   O12942323   7.173   1.125   2.579
    1STR   C13042324   7.056   1.095   2.651
    1STR   H13142325   7.079   1.001   2.699
    1STR   C13242326   7.048   1.206   2.758
    1STR   H13342327   7.042   1.304   2.714
    1STR   H13442328   7.137   1.204   2.820
    1STR   H13542329   6.961   1.197   2.823
    1STR   C13642330   6.926   1.079   2.567
    1STR   H13742331   6.934   1.113   2.465
    1STR   H13842332   6.923   0.973   2.550
    1STR   O13942333   6.815   1.121   2.649
    1STR   C14042334   6.689   1.175   2.608
    1STR   H14142335   6.712   1.276   2.580
    1STR   C14242336   6.611   1.115   2.493
    1STR   H14342337   6.538   1.040   2.521
    1STR   H14442338   6.680   1.081   2.418
    1STR   H14542339   6.546   1.189   2.449
    1STR   C14642340   6.592   1.162   2.728
    1STR   H14742341   6.486   1.171   2.704
    1STR   H14842342   6.592   1.063   2.771
    1STR   O14942343   6.625   1.249   2.831
    1STR   C15042344   6.610   1.388   2.807
    1STR   H15142345   6.539   1.412   2.886
    1STR   C15242346   6.752   1.436   2.840
    1STR   H15342347   6.824   1.389   2.773
    1STR   H15442348   6.780   1.408   2.941
    1STR   H15542349   6.766   1.542   2.829
    1STR   C15642350   6.554   1.447   2.672
    1STR   H15742351   6.512   1.545   2.691
    1STR   H15842352   6.636   1.465   2.603
    1STR   O15942353   6.454   1.366   2.609
    1STR   C16042354   6.393   1.401   2.484
    1STR   H16142355   6.325   1.319   2.461
    1STR   C16242356   6.310   1.524   2.508
    1STR   H16342357   6.371   1.613   2.514
    1STR   H16442358   6.254   1.511   2.601
    1STR   H16542359   6.239   1.534   2.427
    1STR   C16642360   6.485   1.419   2.362
    1STR   H16742361   6.455   1.509   2.309
    1STR   H16842362   6.586   1.437   2.397
    1STR   O16942363   6.478   1.311   2.267
    1STR   C17042364   6.583   1.316   2.170
    1STR   H17142365   6.595   1.417   2.138
    1STR   C17242366   6.716   1.280   2.235
    1STR   H17342367   6.763   1.189   2.198
    1STR   H17442368   6.711   1.274   2.342
    1STR   H17542369   6.784   1.362   2.224
    1STR   C17642370   6.546   1.250   2.035
    1STR   H17742371   6.538   1.142   2.033
    1STR   H17842372   6.444   1.282   2.013
    1STR   O17942373   6.626   1.299   1.928
    1STR   C18042374   6.743   1.227   1.893
    1STR   H18142375   6.720   1.123   1.908
    1STR   C18242376   6.762   1.251   1.742
    1STR   H18342377   6.785   1.354   1.721
    1STR   H18442378   6.674   1.222   1.685
    1STR   H18542379   6.849   1.201   1.701
    1STR   C18642380   6.871   1.274   1.968
    1STR   H18742381   6.932   1.316   1.891
    1STR   H18842382   6.845   1.353   2.034
    1STR   O18942383   6.947   1.189   2.053
    1STR   C19042384   7.080   1.232   2.086
    1STR   H19142385   7.145   1.163   2.134
    1STR   C19242386   7.165   1.265   1.963
    1STR   H19342387   7.128   1.336   1.892
    1STR   H19442388   7.193   1.184   1.901
    1STR   H19542389   7.256   1.296   2.009
    1STR   C19642390   7.087   1.324   2.205
    1STR   H19742391   7.156   1.404   2.183
    1STR   H19842392   6.989   1.364   2.216
    1STR   O19942393   7.127   1.269   2.331
    1STR   C20042394   7.104   1.363   2.434
    1STR   H20142395   7.116   1.454   2.379
    1STR   C20242396   6.955   1.383   2.468
    1STR   H20342397   6.936   1.418   2.569
    1STR   H20442398   6.893   1.298   2.450
    1STR   H20542399   6.911   1.453   2.400
    1STR   C20642400   7.211   1.409   2.538
    1STR   H20742401   7.272   1.481   2.485
    1STR   H20842402   7.154   1.457   2.616
    1STR   O20942403   7.299   1.335   2.621
    1STR   C21042404   7.396   1.424   2.678
    1STR   H21142405   7.352   1.523   2.689
    1STR   C21242406   7.427   1.384   2.823
    1STR   H21342407   7.486   1.293   2.829
    1STR   H21442408   7.335   1.367   2.878
    1STR   H21542409   7.483   1.462   2.873
    1STR   C21642410   7.517   1.436   2.583
    1STR   H21742411   7.545   1.541   2.574
    1STR   H21842412   7.604   1.386   2.625
    1STR   O21942413   7.479   1.379   2.457
    1STR   C22042414   7.568   1.392   2.349
    1STR   H22142415   7.606   1.491   2.359
    1STR   C22242416   7.690   1.301   2.368
    1STR   H22342417   7.744   1.326   2.460
    1STR   H22442418   7.761   1.312   2.286
    1STR   H22542419   7.662   1.196   2.375
    1STR   C22642420   7.502   1.372   2.207
    1STR   H22742421   7.584   1.397   2.141
    1STR   H22842422   7.485   1.267   2.188
    1STR   O22942423   7.379   1.439   2.163
    1STR   C23042424   7.380   1.500   2.031
    1STR   H23142425   7.427   1.595   2.054
    1STR   C23242426   7.458   1.415   1.925
    1STR   H23342427   7.430   1.311   1.922
    1STR   H23442428   7.564   1.410   1.940
    1STR   H23542429   7.444   1.455   1.824
    1STR   C23642430   7.254   1.556   1.955
    1STR   H23742431   7.303   1.637   1.906
    1STR   H23842432   7.226   1.503   1.865
    1STR   O23942433   7.145   1.626   2.014
    1STR   C24042434   7.017   1.563   2.022
    1STR   H24142435   7.034   1.460   2.023
    1STR   C24242436   6.971   1.608   2.156
    1STR   H24342437   7.041   1.591   2.234
    1STR   H24442438   6.884   1.550   2.182
    1STR   H24542439   6.953   1.714   2.153
    1STR   C24642440   6.905   1.575   1.917
    1STR   H24742441   6.902   1.675   1.890
    1STR   H24842442   6.931   1.522   1.826
    1STR   O24942443   6.772   1.541   1.964
    1STR   C25042444   6.662   1.600   1.895
    1STR   H25142445   6.694   1.701   1.899
    1STR   C25242446   6.646   1.559   1.748
    1STR   H25342447   6.599   1.461   1.740
    1STR   H25442448   6.739   1.556   1.693
    1STR   H25542449   6.581   1.626   1.693
    1STR   C25642450   6.521   1.592   1.960
    1STR   H25742451   6.458   1.664   1.909
    1STR   H25842452   6.476   1.496   1.937
    1STR   O25942453   6.500   1.612   2.100
    1STR   C26042454   6.569   1.716   2.165
    1STR   H26142455   6.625   1.772   2.095
    1STR   C26242456   6.476   1.812   2.231
    1STR   H26342457   6.402   1.753   2.283
    1STR   H26442458   6.432   1.879   2.159
    1STR   H26542459   6.529   1.874   2.303
    1STR   C26642460   6.672   1.662   2.258
    1STR   H26742461   6.690   1.557   2.248
    1STR   H26842462   6.759   1.709   2.217
    1STR   O26942463   6.660   1.695   2.395
    1STR   C27042464   6.789   1.718   2.448
    1STR   H27142465   6.856   1.640   2.417
    1STR   C27242466   6.846   1.848   2.398
    1STR   H27342467   6.763   1.916   2.405
    1STR   H27442468   6.884   1.851   2.297
    1STR   H27542469   6.927   1.881   2.460
    1STR   C27642470   6.782   1.721   2.598
    1STR   H27742471   6.782   1.823   2.635
    1STR   H27842472   6.690   1.674   2.631
    1STR   O27942473   6.887   1.645   2.650
    1STR   C28042474   7.009   1.715   2.662
    1STR   H28142475   6.995   1.821   2.671
    1STR   C28242476   7.055   1.654   2.795
    1STR   H28342477   7.054   1.545   2.791
    1STR   H28442478   6.989   1.683   2.876
    1STR   H28542479   7.155   1.683   2.823
    1STR   C28642480   7.104   1.686   2.546
    1STR   H28742481   7.198   1.656   2.591
    1STR   H28842482   7.058   1.607   2.492
    1STR   O28942483   7.137   1.780   2.446
    1STR   C29042484   7.231   1.728   2.351
    1STR   H29142485   7.213   1.626   2.322
    1STR   C29242486   7.230   1.813   2.226
    1STR   H29342487   7.278   1.908   2.246
    1STR   H29442488   7.129   1.831   2.190
    1STR   H29542489   7.287   1.767   2.146
    1STR   C29642490   7.373   1.726   2.401
    1STR   H29742491   7.397   1.831   2.415
    1STR   H29842492   7.384   1.678   2.498
    1STR   O29942493   7.453   1.651   2.308
    1STR   C30042494   7.566   1.718   2.256
    1STR   H30142495   7.520   1.791   2.192
    1STR   C30242496   7.637   1.771   2.381
    1STR   H30342497   7.650   1.697   2.459
    1STR   H30442498   7.592   1.861   2.423
    1STR   H30542499   7.733   1.804   2.357
    1STR   C30642500   7.673   1.646   2.166
    1STR   H30742501   7.745   1.721   2.145
    1STR   H30842502   7.729   1.568   2.217
    1STR   O30942503   7.640   1.607   2.034
    1STR    H1R42504   7.804   1.681   1.943
    1STR    H1S42505   7.916   1.467   1.893
    1STR    H1T42506   7.783   1.379   1.968
    1STR    H1U42507   7.885   1.484   2.064
    1STR    H1V42508   7.663   1.498   1.758
    1STR    H1W42509   7.761   1.638   1.726
    1STR    H1X42510   7.471   1.962   1.867
    1STR    H1Y42511   7.397   1.717   1.612
    1STR    H1Z42512   7.169   1.660   1.543
    1STR    H2042513   6.853   1.735   1.705
    1STR    H2142514   6.920   1.792   1.560
    1STR    H2242515   6.942   1.624   1.604
    1STR    H2342516   7.040   1.905   2.010
    1STR    H2742517   7.242   1.927   1.950
    1STR    H2842518   7.480   0.769   1.896
    1STR    H2942519   7.709   0.691   1.922
    1STR    H2A42520   7.801   0.385   1.882
    1STR    H2B42521   7.889   0.537   1.845
    1STR    H2C42522   7.855   0.419   1.718
    1STR   BCK142523   6.554   0.399   4.964
    1STR    O0342524   6.627   0.314   5.012
    1STR    N0442525   6.483   0.485   5.039
    1STR    C0542526   6.492   0.528   5.173
    1STR    C0642527   6.597   0.489   5.258
    1STR    C0742528   6.621   0.557   5.379
    1STR    N0842529   6.749   0.551   5.429
    1STR    C0942530   6.821   0.643   5.491
    1STR    O0A42531   6.778   0.748   5.541
    1STR    O0B42532   6.948   0.607   5.484
    1STR    C0C42533   7.044   0.699   5.435
    1STR    C0D42534   7.166   0.690   5.526
    1STR    C0E42535   7.079   0.663   5.289
    1STR    O0F42536   6.961   0.667   5.210
    1STR    C0G42537   6.968   0.614   5.078
    1STR    C0H42538   6.823   0.582   5.047
    1STR    C0I42539   7.017   0.706   4.967
    1STR    O0J42540   7.003   0.637   4.843
    1STR    C0K42541   6.241   1.825   4.142
    1STR    C0M42542   6.255   1.837   3.989
    1STR    C0N42543   6.144   1.712   4.188
    1STR    O0O42544   6.167   1.660   4.319
    1STR    C0P42545   6.177   1.744   4.421
    1STR    O0Q42546   6.158   1.865   4.414
    1STR    N0R42547   6.218   1.684   4.533
    1STR    C0S42548   6.271   1.756   4.639
    1STR    C0T42549   6.239   1.733   4.773
    1STR    C0U42550   6.301   1.810   4.873
    1STR    C0V42551   6.404   1.901   4.841
    1STR    C0W42552   6.482   1.965   4.951
    1STR    C0X42553   6.434   1.929   4.706
    1STR    N0Y42554   6.516   2.037   4.675
    1STR   BCK242555   6.545   2.102   4.561
    1STR    O1042556   6.597   2.211   4.566
    1STR    C1342557   6.364   1.856   4.609
    1STR    C1442558   6.522   0.639   5.434
    1STR    C1542559   6.405   0.662   5.361
    1STR    C1642560   6.393   0.614   5.229
    1STR    C1742561   6.270   0.659   5.155
    1STR    H1B42562   6.401   0.518   4.990
    1STR    H1C42563   6.666   0.414   5.226
    1STR    H1D42564   6.811   0.483   5.388
    1STR    H1E42565   7.003   0.800   5.438
    1STR    H1F42566   7.213   0.593   5.510
    1STR    H1G42567   7.239   0.767   5.503
    1STR    H1H42568   7.138   0.696   5.631
    1STR    H1I42569   7.125   0.566   5.282
    1STR    H1J42570   7.154   0.729   5.250
    1STR    H1K42571   7.032   0.527   5.078
    1STR    H1M42572   6.756   0.665   5.069
    1STR    H1N42573   6.791   0.499   5.104
    1STR    H1O42574   6.806   0.556   4.944
    1STR    H1P42575   6.956   0.795   4.967
    1STR    H1Q42576   7.119   0.735   4.981
    1STR   C01042577   7.120   0.589   4.778
    1STR   H01142578   7.163   0.678   4.742
    1STR   C01242579   7.220   0.517   4.868
    1STR   H01342580   7.317   0.511   4.818
    1STR   H01442581   7.186   0.417   4.891
    1STR   H01542582   7.239   0.565   4.964
    1STR   C01642583   7.094   0.518   4.644
    1STR   H01742584   7.184   0.515   4.586
    1STR   H01842585   7.066   0.416   4.646
    1STR   O01942586   7.001   0.590   4.569
    1STR   C02042587   6.880   0.527   4.539
    1STR   H02142588   6.894   0.427   4.500
    1STR   C02242589   6.788   0.537   4.656
    1STR   H02342590   6.686   0.556   4.626
    1STR   H02442591   6.817   0.622   4.718
    1STR   H02542592   6.790   0.448   4.713
    1STR   C02642593   6.825   0.618   4.436
    1STR   H02742594   6.797   0.702   4.497
    1STR   H02842595   6.902   0.650   4.365
    1STR   O02942596   6.708   0.570   4.376
    1STR   C03042597   6.643   0.674   4.308
    1STR   H03142598   6.651   0.763   4.368
    1STR   C03242599   6.709   0.702   4.174
    1STR   H03342600   6.732   0.608   4.128
    1STR   H03442601   6.802   0.757   4.184
    1STR   H03542602   6.645   0.759   4.107
    1STR   C03642603   6.496   0.640   4.299
    1STR   H03742604   6.443   0.708   4.233
    1STR   H03842605   6.491   0.541   4.254
    1STR   O03942606   6.438   0.636   4.429
    1STR   C04042607   6.416   0.759   4.496
    1STR   H04142608   6.509   0.813   4.496
    1STR   C04242609   6.299   0.834   4.429
    1STR   H04342610   6.210   0.771   4.426
    1STR   H04442611   6.320   0.863   4.326
    1STR   H04542612   6.274   0.925   4.484
    1STR   C04642613   6.385   0.726   4.641
    1STR   H04742614   6.279   0.708   4.641
    1STR   H04842615   6.436   0.632   4.663
    1STR   O04942616   6.411   0.826   4.741
    1STR   C05042617   6.471   0.772   4.860
    1STR   H05142618   6.420   0.679   4.884
    1STR   C05242619   6.615   0.736   4.827
    1STR   H05342620   6.639   0.752   4.722
    1STR   H05442621   6.633   0.633   4.851
    1STR   H05542622   6.687   0.790   4.886
    1STR   C05642623   6.465   0.863   4.985
    1STR   H05742624   6.484   0.963   4.955
    1STR   H05842625   6.365   0.869   5.026
    1STR   O05942626   6.561   0.827   5.085
    1STR   C06042627   6.614   0.932   5.169
    1STR   H06142628   6.644   1.018   5.111
    1STR   C06242629   6.505   0.983   5.264
    1STR   H06342630   6.478   0.908   5.337
    1STR   H06442631   6.415   1.013   5.210
    1STR   H06542632   6.541   1.070   5.318
    1STR   C06642633   6.739   0.881   5.245
    1STR   H06742634   6.735   0.910   5.349
    1STR   H06842635   6.730   0.773   5.253
    1STR   O06942636   6.869   0.904   5.185
    1STR   C07042637   6.949   1.019   5.215
    1STR   H07142638   6.930   1.088   5.134
    1STR   C07242639   6.907   1.087   5.347
    1STR   H07342640   6.913   1.018   5.431
    1STR   H07442641   6.806   1.126   5.341
    1STR   H07542642   6.972   1.170   5.372
    1STR   C07642643   7.104   0.995   5.215
    1STR   H07742644   7.152   1.092   5.205
    1STR   H07842645   7.135   0.956   5.312
    1STR   O07942646   7.157   0.906   5.115
    1STR   C08042647   7.296   0.915   5.076
    1STR   H08142648   7.314   1.021   5.064
    1STR   C08242649   7.384   0.867   5.192
    1STR   H08342650   7.370   0.761   5.211
    1STR   H08442651   7.363   0.921   5.284
    1STR   H08542652   7.489   0.882   5.168
    1STR   C08642653   7.343   0.845   4.942
    1STR   H08742654   7.438   0.892   4.919
    1STR   H08842655   7.367   0.741   4.960
    1STR   O08942656   7.262   0.848   4.821
    1STR   C09042657   7.319   0.851   4.685
    1STR   H09142658   7.340   0.955   4.670
    1STR   C09242659   7.455   0.778   4.686
    1STR   H09342660   7.445   0.681   4.733
    1STR   H09442661   7.532   0.831   4.741
    1STR   H09542662   7.493   0.767   4.585
    1STR   C09642663   7.237   0.809   4.550
    1STR   H09742664   7.285   0.849   4.463
    1STR   H09842665   7.255   0.705   4.536
    1STR   O09942666   7.094   0.816   4.523
    1STR   C10042667   7.032   0.920   4.444
    1STR   H10142668   7.074   1.003   4.491
    1STR   C10242669   7.069   0.934   4.298
    1STR   H10342670   7.032   0.849   4.242
    1STR   H10442671   7.175   0.946   4.290
    1STR   H10542672   7.023   1.023   4.255
    1STR   C10642673   6.878   0.925   4.457
    1STR   H10742674   6.838   0.861   4.380
    1STR   H10842675   6.849   0.891   4.556
    1STR   O10942676   6.814   1.048   4.428
    1STR   C11042677   6.671   1.052   4.433
    1STR   H11142678   6.665   1.157   4.423
    1STR   C11242679   6.588   1.014   4.309
    1STR   H11342680   6.621   0.927   4.257
    1STR   H11442681   6.592   1.091   4.233
    1STR   H11542682   6.483   1.006   4.333
    1STR   C11642683   6.594   1.043   4.566
    1STR   H11742684   6.567   1.144   4.592
    1STR   H11842685   6.494   1.002   4.558
    1STR   O11942686   6.664   0.978   4.671
    1STR   C12042687   6.712   1.068   4.768
    1STR   H12142688   6.770   1.135   4.707
    1STR   C12242689   6.590   1.137   4.835
    1STR   H12342690   6.592   1.133   4.942
    1STR   H12442691   6.495   1.096   4.800
    1STR   H12542692   6.583   1.241   4.812
    1STR   C12642693   6.815   1.008   4.866
    1STR   H12742694   6.771   0.975   4.959
    1STR   H12842695   6.848   0.914   4.822
    1STR   O12942696   6.922   1.100   4.893
    1STR   C13042697   7.055   1.055   4.867
    1STR   H13142698   7.071   0.970   4.929
    1STR   C13242699   7.052   0.998   4.730
    1STR   H13342700   7.142   1.027   4.679
    1STR   H13442701   6.968   1.034   4.673
    1STR   H13542702   7.043   0.890   4.735
    1STR   C13642703   7.175   1.155   4.883
    1STR   H13742704   7.145   1.243   4.828
    1STR   H13842705   7.179   1.185   4.987
    1STR   O13942706   7.306   1.103   4.842
    1STR   C14042707   7.432   1.176   4.848
    1STR   H14142708   7.419   1.265   4.791
    1STR   C14242709   7.475   1.208   4.991
    1STR   H14342710   7.529   1.126   5.038
    1STR   H14442711   7.390   1.225   5.054
    1STR   H14542712   7.538   1.297   4.994
    1STR   C14642713   7.557   1.110   4.784
    1STR   H14742714   7.639   1.182   4.782
    1STR   H14842715   7.593   1.029   4.847
    1STR   O14942716   7.547   1.053   4.655
    1STR   C15042717   7.527   1.142   4.548
    1STR   H15142718   7.491   1.238   4.585
    1STR   C15242719   7.661   1.168   4.479
    1STR   H15342720   7.699   1.076   4.435
    1STR   H15442721   7.736   1.206   4.548
    1STR   H15542722   7.650   1.240   4.398
    1STR   C15642723   7.427   1.074   4.452
    1STR   H15742724   7.443   1.105   4.349
    1STR   H15842725   7.453   0.968   4.450
    1STR   O15942726   7.287   1.091   4.482
    1STR   C16042727   7.238   1.220   4.516
    1STR   H16142728   7.271   1.242   4.617
    1STR   C16242729   7.307   1.315   4.419
    1STR   H16342730   7.259   1.303   4.323
    1STR   H16442731   7.414   1.309   4.399
    1STR   H16542732   7.301   1.413   4.461
    1STR   C16642733   7.080   1.241   4.512
    1STR   H16742734   7.059   1.333   4.465
    1STR   H16842735   7.028   1.182   4.439
    1STR   O16942736   7.009   1.251   4.637
    1STR   C17042737   6.900   1.344   4.651
    1STR   H17142738   6.935   1.440   4.630
    1STR   C17242739   6.797   1.341   4.541
    1STR   H17342740   6.830   1.283   4.456
    1STR   H17442741   6.780   1.441   4.502
    1STR   H17542742   6.703   1.303   4.579
    1STR   C17642743   6.845   1.375   4.792
    1STR   H17742744   6.796   1.472   4.790
    1STR   H17842745   6.767   1.308   4.813
    1STR   O17942746   6.933   1.365   4.903
    1STR   C18042747   6.870   1.384   5.031
    1STR   H18142748   6.837   1.486   5.039
    1STR   C18242749   6.747   1.300   5.064
    1STR   H18342750   6.767   1.195   5.049
    1STR   H18442751   6.663   1.330   5.003
    1STR   H18542752   6.716   1.311   5.168
    1STR   C18642753   6.971   1.367   5.140
    1STR   H18742754   6.923   1.341   5.234
    1STR   H18842755   7.037   1.286   5.111
    1STR   O18942756   7.035   1.492   5.159
    1STR   C19042757   7.154   1.485   5.234
    1STR   H19142758   7.186   1.589   5.244
    1STR   C19242759   7.131   1.426   5.373
    1STR   H19342760   7.115   1.319   5.369
    1STR   H19442761   7.043   1.471   5.419
    1STR   H19542762   7.218   1.440   5.436
    1STR   C19642763   7.259   1.404   5.159
    1STR   H19742764   7.360   1.425   5.195
    1STR   H19842765   7.244   1.300   5.185
    1STR   O19942766   7.248   1.411   5.016
    1STR   C20042767   7.270   1.532   4.945
    1STR   H20142768   7.182   1.595   4.954
    1STR   C20242769   7.382   1.603   5.019
    1STR   H20342770   7.470   1.541   5.019
    1STR   H20442771   7.357   1.633   5.120
    1STR   H20542772   7.404   1.697   4.972
    1STR   C20642773   7.307   1.488   4.797
    1STR   H20742774   7.415   1.473   4.796
    1STR   H20842775   7.264   1.391   4.784
    1STR   O20942776   7.275   1.556   4.670
    1STR   C21042777   7.142   1.542   4.618
    1STR   H21142778   7.132   1.438   4.636
    1STR   C21242779   7.068   1.622   4.715
    1STR   H21342780   7.113   1.718   4.735
    1STR   H21442781   7.064   1.557   4.800
    1STR   H21542782   6.966   1.637   4.683
    1STR   C21642783   7.077   1.579   4.477
    1STR   H21742784   6.970   1.559   4.473
    1STR   H21842785   7.079   1.687   4.472
    1STR   O21942786   7.131   1.508   4.363
    1STR   C22042787   7.077   1.487   4.231
    1STR   H22142788   7.022   1.574   4.199
    1STR   C22242789   7.205   1.463   4.145
    1STR   H22342790   7.218   1.530   4.062
    1STR   H22442791   7.211   1.362   4.104
    1STR   H22542792   7.296   1.474   4.202
    1STR   C22642793   6.985   1.368   4.202
    1STR   H22742794   6.990   1.354   4.095
    1STR   H22842795   7.022   1.275   4.245
    1STR   O22942796   6.849   1.389   4.235
    1STR   C23042797   6.755   1.331   4.143
    1STR   H23142798   6.756   1.390   4.051
    1STR   C23242799   6.790   1.186   4.105
    1STR   H23342800   6.810   1.126   4.193
    1STR   H23442801   6.877   1.178   4.041
    1STR   H23542802   6.708   1.140   4.049
    1STR   C23642803   6.617   1.346   4.209
    1STR   H23742804   6.618   1.303   4.307
    1STR   H23842805   6.599   1.449   4.234
    1STR   O23942806   6.510   1.293   4.132
    1STR   C24042807   6.378   1.338   4.165
    1STR   H24142808   6.379   1.424   4.231
    1STR   C24242809   6.326   1.383   4.028
    1STR   H24342810   6.321   1.299   3.959
    1STR   H24442811   6.392   1.457   3.983
    1STR   H24542812   6.226   1.426   4.036
    1STR   C24642813   6.288   1.226   4.224
    1STR   H24742814   6.188   1.233   4.184
    1STR   H24842815   6.326   1.130   4.188
    1STR   O24942816   6.281   1.219   4.367
    1STR   C25042817   6.197   1.313   4.437
    1STR   H25142818   6.221   1.414   4.404
    1STR   C25242819   6.049   1.289   4.407
    1STR   H25342820   6.022   1.185   4.424
    1STR   H25442821   6.023   1.315   4.304
    1STR   H25542822   5.987   1.351   4.471
    1STR   C25642823   6.224   1.301   4.590
    1STR   H25742824   6.130   1.291   4.644
    1STR   H25842825   6.278   1.209   4.613
    1STR   O25942826   6.288   1.416   4.647
    1STR   C26042827   6.430   1.411   4.642
    1STR   H26142828   6.461   1.312   4.670
    1STR   C26242829   6.472   1.433   4.498
    1STR   H26342830   6.416   1.514   4.454
    1STR   H26442831   6.458   1.343   4.441
    1STR   H26542832   6.576   1.456   4.487
    1STR   C26642833   6.502   1.508   4.738
    1STR   H26742834   6.606   1.520   4.707
    1STR   H26842835   6.462   1.608   4.731
    1STR   O26942836   6.504   1.458   4.872
    1STR   C27042837   6.490   1.556   4.974
    1STR   H27142838   6.402   1.610   4.948
    1STR   C27242839   6.455   1.486   5.105
    1STR   H27342840   6.542   1.451   5.158
    1STR   H27442841   6.390   1.400   5.086
    1STR   H27542842   6.401   1.553   5.171
    1STR   C27642843   6.609   1.654   4.990
    1STR   H27742844   6.579   1.742   5.046
    1STR   H27842845   6.684   1.608   5.051
    1STR   O27942846   6.666   1.696   4.867
    1STR   C28042847   6.781   1.780   4.872
    1STR   H28142848   6.768   1.870   4.930
    1STR   C28242849   6.902   1.710   4.931
    1STR   H28342850   6.994   1.763   4.912
    1STR   H28442851   6.902   1.612   4.890
    1STR   H28542852   6.908   1.688   5.035
    1STR   C28642853   6.806   1.827   4.729
    1STR   H28742854   6.745   1.916   4.722
    1STR   H28842855   6.910   1.858   4.713
    1STR   O28942856   6.766   1.733   4.629
    1STR   C29042857   6.723   1.801   4.512
    1STR   H29142858   6.672   1.890   4.541
    1STR   C29242859   6.836   1.847   4.424
    1STR   H29342860   6.890   1.763   4.384
    1STR   H29442861   6.905   1.911   4.480
    1STR   H29542862   6.797   1.907   4.342
    1STR   C29642863   6.613   1.723   4.443
    1STR   H29742864   6.570   1.660   4.520
    1STR   H29842865   6.533   1.790   4.421
    1STR   O29942866   6.647   1.655   4.323
    1STR   C30042867   6.587   1.713   4.207
    1STR   H30142868   6.609   1.820   4.208
    1STR   C30242869   6.648   1.647   4.084
    1STR   H30342870   6.600   1.555   4.055
    1STR   H30442871   6.753   1.626   4.102
    1STR   H30542872   6.636   1.710   3.997
    1STR   C30642873   6.435   1.695   4.203
    1STR   H30742874   6.404   1.634   4.120
    1STR   H30842875   6.402   1.645   4.293
    1STR   O30942876   6.372   1.822   4.197
    1STR    H1R42877   6.200   1.920   4.176
    1STR    H1S42878   6.319   1.922   3.964
    1STR    H1T42879   6.159   1.853   3.942
    1STR    H1U42880   6.301   1.748   3.945
    1STR    H1V42881   6.150   1.627   4.120
    1STR    H1W42882   6.042   1.748   4.183
    1STR    H1X42883   6.224   1.583   4.538
    1STR    H1Y42884   6.169   1.655   4.800
    1STR    H1Z42885   6.276   1.793   4.977
    1STR    H2042886   6.588   1.957   4.933
    1STR    H2142887   6.463   2.070   4.959
    1STR    H2242888   6.460   1.920   5.048
    1STR    H2342889   6.550   2.088   4.756
    1STR    H2742890   6.376   1.875   4.506
    1STR    H2842891   6.536   0.687   5.530
    1STR    H2942892   6.328   0.725   5.404
    1STR    H2A42893   6.242   0.760   5.185
    1STR    H2B42894   6.186   0.594   5.178
    1STR    H2C42895   6.287   0.661   5.049
    1STR   BCK142896   7.409   0.458   6.521
    1STR    O0342897   7.509   0.513   6.476
    1STR    N0442898   7.394   0.402   6.642
    1STR    C0542899   7.473   0.407   6.756
    1STR    C0642900   7.599   0.471   6.759
    1STR    C0742901   7.675   0.486   6.877
    1STR    N0842902   7.783   0.572   6.892
    1STR    C0942903   7.768   0.701   6.861
    1STR    O0A42904   7.787   0.792   6.941
    1STR    O0B42905   7.726   0.720   6.738
    1STR    C0C42906   7.626   0.817   6.720
    1STR    C0D42907   7.613   0.841   6.569
    1STR    C0E42908   7.497   0.763   6.784
    1STR    O0F42909   7.499   0.769   6.926
    1STR    C0G42910   7.434   0.667   7.000
    1STR    C0H42911   7.521   0.654   7.123
    1STR    C0I42912   7.285   0.659   7.038
    1STR    O0J42913   7.205   0.591   6.946
    1STR    C0K42914   7.186   1.859   7.361
    1STR    C0M42915   7.283   1.747   7.398
    1STR    C0N42916   7.176   1.877   7.207
    1STR    O0O42917   7.113   1.987   7.143
    1STR    C0P42918   6.984   2.009   7.141
    1STR    O0Q42919   6.917   2.024   7.242
    1STR    N0R42920   6.921   2.010   7.023
    1STR    C0S42921   6.956   1.978   6.892
    1STR    C0T42922   7.091   1.973   6.861
    1STR    C0U42923   7.131   1.950   6.732
    1STR    C0V42924   7.041   1.921   6.632
    1STR    C0W42925   7.107   1.899   6.500
    1STR    C0X42926   6.905   1.906   6.661
    1STR    N0Y42927   6.819   1.871   6.557
    1STR   BCK242928   6.686   1.865   6.548
    1STR    O1042929   6.607   1.882   6.640
    1STR    C1342930   6.863   1.934   6.793
    1STR    C1442931   7.628   0.423   6.993
    1STR    C1542932   7.503   0.357   6.993
    1STR    C1642933   7.424   0.353   6.878
    1STR    C1742934   7.284   0.299   6.896
    1STR    H1B42935   7.307   0.352   6.656
    1STR    H1C42936   7.634   0.521   6.671
    1STR    H1D42937   7.839   0.558   6.976
    1STR    H1E42938   7.654   0.910   6.769
    1STR    H1F42939   7.581   0.750   6.518
    1STR    H1G42940   7.542   0.920   6.547
    1STR    H1H42941   7.710   0.870   6.528
    1STR    H1I42942   7.456   0.673   6.740
    1STR    H1J42943   7.427   0.837   6.764
    1STR    H1K42944   7.444   0.584   6.937
    1STR    H1M42945   7.626   0.671   7.102
    1STR    H1N42946   7.515   0.553   7.153
    1STR    H1O42947   7.491   0.713   7.209
    1STR    H1P42948   7.280   0.593   7.123
    1STR    H1Q42949   7.240   0.751   7.069
    1STR   C01042950   7.066   0.614   6.962
    1STR   H01142951   7.045   0.716   6.990
    1STR   C01242952   7.030   0.583   6.820
    1STR   H01342953   7.077   0.655   6.757
    1STR   H01442954   6.923   0.580   6.801
    1STR   H01542955   7.071   0.487   6.794
    1STR   C01642956   6.980   0.523   7.050
    1STR   H01742957   6.881   0.538   7.007
    1STR   H01842958   7.006   0.418   7.039
    1STR   O01942959   6.960   0.562   7.185
    1STR   C02042960   6.830   0.532   7.238
    1STR   H02142961   6.758   0.588   7.182
    1STR   C02242962   6.803   0.382   7.216
    1STR   H02342963   6.883   0.314   7.240
    1STR   H02442964   6.791   0.359   7.113
    1STR   H02542965   6.713   0.348   7.261
    1STR   C02642966   6.819   0.587   7.383
    1STR   H02742967   6.902   0.551   7.437
    1STR   H02842968   6.844   0.690   7.390
    1STR   O02942969   6.697   0.577   7.457
    1STR   C03042970   6.655   0.691   7.535
    1STR   H03142971   6.632   0.773   7.468
    1STR   C03242972   6.521   0.658   7.600
    1STR   H03342973   6.520   0.558   7.644
    1STR   H03442974   6.443   0.662   7.524
    1STR   H03542975   6.493   0.730   7.676
    1STR   C03642976   6.751   0.752   7.638
    1STR   H03742977   6.738   0.859   7.639
    1STR   H03842978   6.718   0.729   7.738
    1STR   O03942979   6.889   0.720   7.617
    1STR   C04042980   6.978   0.819   7.666
    1STR   H04142981   6.952   0.908   7.612
    1STR   C04242982   6.955   0.830   7.819
    1STR   H04342983   7.047   0.845   7.873
    1STR   H04442984   6.906   0.742   7.858
    1STR   H04542985   6.884   0.907   7.845
    1STR   C04642986   7.126   0.794   7.627
    1STR   H04742987   7.194   0.807   7.711
    1STR   H04842988   7.138   0.690   7.604
    1STR   O04942989   7.170   0.884   7.524
    1STR   C05042990   7.245   0.825   7.417
    1STR   H05142991   7.319   0.757   7.458
    1STR   C05242992   7.144   0.756   7.329
    1STR   H05342993   7.191   0.672   7.283
    1STR   H05442994   7.110   0.818   7.247
    1STR   H05542995   7.058   0.720   7.384
    1STR   C05642996   7.312   0.932   7.330
    1STR   H05742997   7.229   0.995   7.306
    1STR   H05842998   7.388   0.989   7.382
    1STR   O05942999   7.349   0.889   7.199
    1STR   C06043000   7.405   0.984   7.109
    1STR   H06143001   7.379   1.081   7.149
    1STR   C06243002   7.557   0.978   7.137
    1STR   H06343003   7.598   0.879   7.139
    1STR   H06443004   7.582   1.022   7.233
    1STR   H06543005   7.619   1.022   7.061
    1STR   C06643006   7.356   0.990   6.955
    1STR   H06743007   7.330   1.093   6.941
    1STR   H06843008   7.444   0.991   6.892
    1STR   O06943009   7.246   0.903   6.902
    1STR   C07043010   7.172   0.928   6.777
    1STR   H07143011   7.170   1.034   6.772
    1STR   C07243012   7.233   0.871   6.647
    1STR   H07343013   7.250   0.765   6.663
    1STR   H07443014   7.326   0.916   6.615
    1STR   H07543015   7.171   0.886   6.560
    1STR   C07643016   7.017   0.902   6.772
    1STR   H07743017   6.982   0.854   6.861
    1STR   H07843018   6.967   0.998   6.774
    1STR   O07943019   6.977   0.829   6.654
    1STR   C08043020   6.844   0.835   6.604
    1STR   H08143021   6.793   0.921   6.641
    1STR   C08243022   6.848   0.848   6.451
    1STR   H08343023   6.883   0.757   6.402
    1STR   H08443024   6.915   0.929   6.423
    1STR   H08543025   6.750   0.871   6.411
    1STR   C08643026   6.752   0.725   6.653
    1STR   H08743027   6.654   0.736   6.607
    1STR   H08843028   6.784   0.627   6.622
    1STR   O08943029   6.746   0.727   6.794
    1STR   C09043030   6.699   0.841   6.862
    1STR   H09143031   6.771   0.918   6.847
    1STR   C09243032   6.564   0.892   6.801
    1STR   H09343033   6.514   0.822   6.737
    1STR   H09443034   6.580   0.975   6.733
    1STR   H09543035   6.495   0.928   6.876
    1STR   C09643036   6.717   0.809   7.013
    1STR   H09743037   6.671   0.717   7.039
    1STR   H09843038   6.823   0.786   7.021
    1STR   O09943039   6.680   0.909   7.109
    1STR   C10043040   6.719   0.892   7.246
    1STR   H10143041   6.673   0.800   7.277
    1STR   C10243042   6.868   0.872   7.249
    1STR   H10343043   6.918   0.925   7.172
    1STR   H10443044   6.897   0.775   7.218
    1STR   H10543045   6.912   0.896   7.346
    1STR   C10643046   6.679   1.013   7.338
    1STR   H10743047   6.722   1.100   7.292
    1STR   H10843048   6.572   1.028   7.333
    1STR   O10943049   6.719   1.008   7.477
    1STR   C11043050   6.706   1.129   7.557
    1STR   H11143051   6.761   1.203   7.502
    1STR   C11243052   6.558   1.171   7.561
    1STR   H11343053   6.496   1.089   7.597
    1STR   H11443054   6.522   1.201   7.462
    1STR   H11543055   6.544   1.257   7.626
    1STR   C11643056   6.762   1.130   7.705
    1STR   H11743057   6.748   1.228   7.749
    1STR   H11843058   6.705   1.060   7.766
    1STR   O11943059   6.899   1.095   7.719
    1STR   C12043060   6.999   1.168   7.793
    1STR   H12143061   6.984   1.275   7.791
    1STR   C12243062   6.997   1.135   7.943
    1STR   H12343063   7.037   1.037   7.965
    1STR   H12443064   6.896   1.141   7.984
    1STR   H12543065   7.059   1.206   7.997
    1STR   C12643066   7.137   1.132   7.728
    1STR   H12743067   7.218   1.177   7.786
    1STR   H12843068   7.153   1.025   7.740
    1STR   O12943069   7.166   1.161   7.590
    1STR   C13043070   7.056   1.183   7.501
    1STR   H13143071   6.982   1.104   7.511
    1STR   C13243072   7.008   1.323   7.543
    1STR   H13343073   7.082   1.380   7.599
    1STR   H13443074   6.922   1.306   7.603
    1STR   H13543075   6.969   1.388   7.468
    1STR   C13643076   7.086   1.179   7.352
    1STR   H13743077   7.062   1.276   7.327
    1STR   H13843078   7.190   1.180   7.324
    1STR   O13943079   6.992   1.112   7.267
    1STR   C14043080   6.993   1.146   7.127
    1STR   H14143081   7.024   1.245   7.105
    1STR   C14243082   7.108   1.077   7.072
    1STR   H14343083   7.117   0.973   7.102
    1STR   H14443084   7.194   1.135   7.102
    1STR   H14543085   7.100   1.081   6.965
    1STR   C14643086   6.873   1.126   7.030
    1STR   H14743087   6.902   1.178   6.939
    1STR   H14843088   6.866   1.023   7.001
    1STR   O14943089   6.744   1.176   7.067
    1STR   C15043090   6.643   1.157   6.968
    1STR   H15143091   6.640   1.054   6.954
    1STR   C15243092   6.502   1.186   7.023
    1STR   H15343093   6.490   1.135   7.119
    1STR   H15443094   6.427   1.147   6.956
    1STR   H15543095   6.481   1.291   7.038
    1STR   C15643096   6.674   1.213   6.829
    1STR   H15743097   6.583   1.237   6.776
    1STR   H15843098   6.734   1.301   6.840
    1STR   O15943099   6.754   1.122   6.754
    1STR   C16043100   6.795   1.165   6.626
    1STR   H16143101   6.848   1.089   6.571
    1STR   C16243102   6.674   1.180   6.533
    1STR   H16343103   6.611   1.264   6.557
    1STR   H16443104   6.612   1.090   6.536
    1STR   H16543105   6.708   1.189   6.430
    1STR   C16643106   6.910   1.263   6.639
    1STR   H16743107   6.925   1.321   6.551
    1STR   H16843108   6.901   1.333   6.721
    1STR   O16943109   7.027   1.182   6.645
    1STR   C17043110   7.144   1.258   6.650
    1STR   H17143111   7.129   1.348   6.591
    1STR   C17243112   7.160   1.293   6.797
    1STR   H17343113   7.209   1.219   6.855
    1STR   H17443114   7.066   1.310   6.849
    1STR   H17543115   7.220   1.382   6.808
    1STR   C17643116   7.262   1.180   6.588
    1STR   H17743117   7.349   1.237   6.573
    1STR   H17843118   7.308   1.115   6.660
    1STR   O17943119   7.225   1.109   6.470
    1STR   C18043120   7.212   1.188   6.353
    1STR   H18143121   7.209   1.293   6.378
    1STR   C18243122   7.334   1.161   6.266
    1STR   H18343123   7.337   1.057   6.234
    1STR   H18443124   7.427   1.181   6.320
    1STR   H18543125   7.335   1.224   6.177
    1STR   C18643126   7.079   1.153   6.284
    1STR   H18743127   7.086   1.168   6.176
    1STR   H18843128   7.058   1.048   6.298
    1STR   O18943129   6.973   1.230   6.341
    1STR   C19043130   6.926   1.339   6.262
    1STR   H19143131   7.009   1.380   6.204
    1STR   C19243132   6.820   1.280   6.167
    1STR   H19343133   6.788   1.350   6.090
    1STR   H19443134   6.731   1.251   6.222
    1STR   H19543135   6.857   1.192   6.115
    1STR   C19643136   6.873   1.454   6.352
    1STR   H19743137   6.954   1.492   6.414
    1STR   H19843138   6.840   1.538   6.293
    1STR   O19943139   6.768   1.418   6.439
    1STR   C20043140   6.695   1.527   6.491
    1STR   H20143141   6.754   1.617   6.481
    1STR   C20243142   6.572   1.521   6.398
    1STR   H20343143   6.533   1.419   6.393
    1STR   H20443144   6.596   1.552   6.297
    1STR   H20543145   6.492   1.582   6.437
    1STR   C20643146   6.646   1.524   6.638
    1STR   H20743147   6.601   1.622   6.651
    1STR   H20843148   6.566   1.451   6.646
    1STR   O20943149   6.735   1.506   6.749
    1STR   C21043150   6.679   1.543   6.879
    1STR   H21143151   6.700   1.649   6.889
    1STR   C21243152   6.525   1.531   6.881
    1STR   H21343153   6.490   1.431   6.856
    1STR   H21443154   6.474   1.602   6.817
    1STR   H21543155   6.489   1.552   6.981
    1STR   C21643156   6.729   1.473   7.012
    1STR   H21743157   6.699   1.537   7.092
    1STR   H21843158   6.664   1.391   7.031
    1STR   O21943159   6.862   1.422   7.038
    1STR   C22043160   6.905   1.422   7.179
    1STR   H22143161   6.860   1.505   7.218
    1STR   C22243162   6.807   1.352   7.277
    1STR   H22343163   6.843   1.261   7.316
    1STR   H22443164   6.710   1.333   7.235
    1STR   H22543165   6.785   1.411   7.365
    1STR   C22643166   7.058   1.469   7.215
    1STR   H22743167   7.083   1.567   7.180
    1STR   H22843168   7.060   1.492   7.321
    1STR   O22943169   7.175   1.390   7.178
    1STR   C23043170   7.303   1.429   7.233
    1STR   H23143171   7.310   1.534   7.210
    1STR   C23243172   7.315   1.413   7.386
    1STR   H23343173   7.328   1.310   7.418
    1STR   H23443174   7.230   1.452   7.441
    1STR   H23543175   7.403   1.467   7.422
    1STR   C23643176   7.427   1.360   7.168
    1STR   H23743177   7.516   1.416   7.195
    1STR   H23843178   7.443   1.263   7.214
    1STR   O23943179   7.418   1.345   7.027
    1STR   C24043180   7.537   1.359   6.948
    1STR   H24143181   7.588   1.452   6.968
    1STR   C24243182   7.639   1.249   6.966
    1STR   H24343183   7.604   1.159   6.916
    1STR   H24443184   7.661   1.232   7.071
    1STR   H24543185   7.733   1.276   6.917
    1STR   C24643186   7.480   1.356   6.806
    1STR   H24743187   7.405   1.279   6.805
    1STR   H24843188   7.434   1.453   6.792
    1STR   O24943189   7.561   1.316   6.698
    1STR   C25043190   7.566   1.408   6.590
    1STR   H25143191   7.615   1.492   6.637
    1STR   C25243192   7.666   1.350   6.491
    1STR   H25343193   7.631   1.254   6.452
    1STR   H25443194   7.762   1.332   6.540
    1STR   H25543195   7.683   1.417   6.407
    1STR   C25643196   7.431   1.450   6.517
    1STR   H25743197   7.450   1.530   6.446
    1STR   H25843198   7.402   1.376   6.444
    1STR   O25943199   7.319   1.483   6.603
    1STR   C26043200   7.230   1.590   6.569
    1STR   H26143201   7.290   1.678   6.586
    1STR   C26243202   7.198   1.590   6.418
    1STR   H26343203   7.175   1.492   6.381
    1STR   H26443204   7.280   1.631   6.359
    1STR   H26543205   7.111   1.651   6.393
    1STR   C26643206   7.103   1.620   6.659
    1STR   H26743207   7.125   1.712   6.708
    1STR   H26843208   7.015   1.640   6.597
    1STR   O26943209   7.055   1.542   6.767
    1STR   C27043210   7.073   1.587   6.904
    1STR   H27143211   7.062   1.495   6.960
    1STR   C27243212   7.215   1.630   6.930
    1STR   H27343213   7.287   1.560   6.890
    1STR   H27443214   7.227   1.628   7.037
    1STR   H27543215   7.239   1.730   6.894
    1STR   C27643216   6.974   1.691   6.964
    1STR   H27743217   7.033   1.776   6.989
    1STR   H27843218   6.901   1.713   6.889
    1STR   O27943219   6.911   1.659   7.089
    1STR   C28043220   6.861   1.739   7.198
    1STR   H28143221   6.942   1.797   7.234
    1STR   C28243222   6.752   1.807   7.128
    1STR   H28343223   6.676   1.733   7.122
    1STR   H28443224   6.767   1.834   7.025
    1STR   H28543225   6.720   1.891   7.190
    1STR   C28643226   6.785   1.687   7.330
    1STR   H28743227   6.732   1.773   7.369
    1STR   H28843228   6.704   1.620   7.302
    1STR   O28943229   6.851   1.631   7.446
    1STR   C29043230   6.761   1.622   7.560
    1STR   H29143231   6.663   1.628   7.518
    1STR   C29243232   6.757   1.488   7.632
    1STR   H29343233   6.849   1.475   7.687
    1STR   H29443234   6.738   1.406   7.565
    1STR   H29543235   6.677   1.486   7.705
    1STR   C29643236   6.769   1.724   7.675
    1STR   H29743237   6.667   1.748   7.702
    1STR   H29843238   6.810   1.680   7.766
    1STR   O29943239   6.832   1.849   7.659
    1STR   C30043240   6.971   1.849   7.635
    1STR   H30143241   7.005   1.934   7.693
    1STR   C30243242   7.053   1.728   7.682
    1STR   H30343243   7.037   1.641   7.618
    1STR   H30443244   7.030   1.700   7.784
    1STR   H30543245   7.159   1.752   7.679
    1STR   C30643246   6.987   1.887   7.489
    1STR   H30743247   6.891   1.884   7.441
    1STR   H30843248   7.011   1.990   7.476
    1STR   O30943249   7.072   1.800   7.418
    1STR    H1R43250   7.217   1.949   7.411
    1STR    H1S43251   7.381   1.757   7.355
    1STR    H1T43252   7.239   1.655   7.364
    1STR    H1U43253   7.294   1.738   7.506
    1STR    H1V43254   7.144   1.783   7.165
    1STR    H1W43255   7.275   1.895   7.169
    1STR    H1X43256   6.825   2.022   7.052
    1STR    H1Y43257   7.166   1.988   6.934
    1STR    H1Z43258   7.234   1.948   6.712
    1STR    H2043259   7.202   1.849   6.508
    1STR    H2143260   7.045   1.845   6.430
    1STR    H2243261   7.133   1.999   6.469
    1STR    H2343262   6.866   1.866   6.467
    1STR    H2743263   6.760   1.915   6.816
    1STR    H2843264   7.684   0.427   7.085
    1STR    H2943265   7.468   0.311   7.083
    1STR    H2A43266   7.227   0.306   6.805
    1STR    H2B43267   7.232   0.356   6.972
    1STR    H2C43268   7.288   0.197   6.934
    1STR   BCK143269   7.135   2.585   9.050
    1STR    O0343270   7.225   2.521   8.998
    1STR    N0443271   7.097   2.701   9.004
    1STR    C0543272   6.982   2.768   9.031
    1STR    C0643273   6.981   2.869   9.128
    1STR    C0743274   6.860   2.930   9.163
    1STR    N0843275   6.847   2.981   9.290
    1STR    C0943276   6.726   2.999   0.023
    1STR    O0A43277   6.635   3.051   9.285
    1STR    O0B43278   6.705   2.946   0.140
    1STR    C0C43279   6.803   2.924   0.235
    1STR    C0D43280   6.725   2.907   0.362
    1STR    C0E43281   6.891   2.809   0.210
    1STR    O0F43282   7.010   2.860   0.151
    1STR    C0G43283   7.120   2.813   0.223
    1STR    C0H43284   7.130   2.671   0.188
    1STR    C0I43285   7.252   2.876   0.189
    1STR    O0J43286   7.365   2.809   0.237
    1STR    C0K43287   7.507   4.118   9.009
    1STR    C0M43288   7.520   4.108   9.160
    1STR    C0N43289   7.411   4.232   8.971
    1STR    O0O43290   7.374   4.252   8.835
    1STR    C0P43291   7.242   4.270   8.812
    1STR    O0Q43292   7.157   4.299   8.894
    1STR    N0R43293   7.209   4.238   8.688
    1STR    C0S43294   7.082   4.196   8.651
    1STR    C0T43295   7.052   4.191   8.517
    1STR    C0U43296   6.929   4.144   8.469
    1STR    C0V43297   6.833   4.090   8.555
    1STR    C0W43298   6.695   4.049   8.506
    1STR    C0X43299   6.867   4.081   8.690
    1STR    N0Y43300   6.778   4.018   8.773
    1STR   BCK243301   6.726   4.070   8.882
    1STR    O1043302   6.630   4.020   8.934
    1STR    C1343303   6.988   4.136   8.736
    1STR    C1443304   6.749   2.908   9.080
    1STR    C1543305   6.752   2.809   8.985
    1STR    C1643306   6.863   2.727   8.969
    1STR    C1743307   6.841   2.583   8.922
    1STR    H1B43308   7.150   2.737   8.925
    1STR    H1C43309   7.069   2.884   9.189
    1STR    H1D43310   6.925   2.966   0.033
    1STR    H1E43311   6.869   3.008   0.235
    1STR    H1F43312   6.671   2.814   0.352
    1STR    H1G43313   6.793   2.902   0.446
    1STR    H1H43314   6.651   2.985   0.379
    1STR    H1I43315   6.838   2.737   0.151
    1STR    H1J43316   6.911   2.764   0.306
    1STR    H1K43317   7.105   2.831   0.329
    1STR    H1M43318   7.158   2.660   0.083
    1STR    H1N43319   7.044   2.612   0.215
    1STR    H1O43320   7.211   2.632   0.243
    1STR    H1P43321   7.257   2.898   0.084
    1STR    H1Q43322   7.258   2.960   0.254
    1STR   C01043323   7.487   2.880   0.229
    1STR   H01143324   7.477   2.985   0.236
    1STR   C01243325   7.574   2.856   0.351
    1STR   H01343326   7.618   2.758   0.341
    1STR   H01443327   7.517   2.863   0.443
    1STR   H01543328   7.654   2.929   0.357
    1STR   C01643329   7.547   2.837   0.097
    1STR   H01743330   7.647   2.874   0.085
    1STR   H01843331   7.551   2.728   0.103
    1STR   O01943332   7.473   2.882   9.305
    1STR   C02043333   7.481   2.794   9.196
    1STR   H02143334   7.572   2.737   9.201
    1STR   C02243335   7.368   2.695   9.220
    1STR   H02343336   7.270   2.741   9.216
    1STR   H02443337   7.374   2.652   9.318
    1STR   H02543338   7.377   2.613   9.151
    1STR   C02643339   7.491   2.857   9.055
    1STR   H02743340   7.595   2.885   9.039
    1STR   H02843341   7.468   2.783   8.978
    1STR   O02943342   7.420   2.977   9.031
    1STR   C03043343   7.279   2.968   9.035
    1STR   H03143344   7.251   2.868   9.059
    1STR   C03243345   7.245   3.060   9.151
    1STR   H03343346   7.295   3.155   9.138
    1STR   H03443347   7.285   3.021   9.243
    1STR   H03543348   7.139   3.079   9.167
    1STR   C03643349   7.221   3.005   8.897
    1STR   H03743350   7.241   3.108   8.883
    1STR   H03843351   7.285   2.958   8.823
    1STR   O03943352   7.081   2.977   8.873
    1STR   C04043353   7.018   3.055   8.770
    1STR   H04143354   7.022   3.152   8.814
    1STR   C04243355   7.088   3.042   8.634
    1STR   H04343356   7.066   2.948   8.589
    1STR   H04443357   7.197   3.050   8.639
    1STR   H04543358   7.053   3.118   8.564
    1STR   C04643359   6.866   3.041   8.747
    1STR   H04743360   6.854   3.015   8.643
    1STR   H04843361   6.827   2.959   8.806
    1STR   O04943362   6.785   3.159   8.762
    1STR   C05043363   6.711   3.159   8.884
    1STR   H05143364   6.664   3.062   8.898
    1STR   C05243365   6.811   3.191   8.992
    1STR   H05343366   6.844   3.292   8.972
    1STR   H05443367   6.896   3.124   8.995
    1STR   H05543368   6.766   3.188   9.091
    1STR   C05643369   6.598   3.260   8.896
    1STR   H05743370   6.634   3.362   8.877
    1STR   H05843371   6.520   3.239   8.822
    1STR   O05943372   6.544   3.244   9.028
    1STR   C06043373   6.551   3.356   9.116
    1STR   H06143374   6.646   3.409   9.105
    1STR   C06243375   6.437   3.446   9.071
    1STR   H06343376   6.339   3.401   9.079
    1STR   H06443377   6.450   3.475   8.968
    1STR   H06543378   6.438   3.534   9.134
    1STR   C06643379   6.533   3.321   9.267
    1STR   H06743380   6.475   3.399   9.315
    1STR   H06843381   6.471   3.234   9.276
    1STR   O06943382   6.657   3.302   0.018
    1STR   C07043383   6.657   3.298   0.162
    1STR   H07143384   6.666   3.395   0.205
    1STR   C07243385   6.529   3.242   0.227
    1STR   H07343386   6.520   3.136   0.209
    1STR   H07443387   6.439   3.293   0.192
    1STR   H07543388   6.533   3.257   0.335
    1STR   C07643389   6.783   3.228   0.215
    1STR   H07743390   6.740   3.153   0.277
    1STR   H07843391   6.840   3.187   0.132
    1STR   O07943392   6.881   3.292   0.295
    1STR   C08043393   6.934   3.223   0.410
    1STR   H08143394   7.005   3.288   0.457
    1STR   C08243395   6.822   3.211   0.515
    1STR   H08343396   6.745   3.139   0.492
    1STR   H08443397   6.772   3.307   0.526
    1STR   H08543398   6.862   3.187   0.612
    1STR   C08643399   7.035   3.108   0.392
    1STR   H08743400   7.094   3.097   0.482
    1STR   H08843401   6.986   3.012   0.392
    1STR   O08943402   7.118   3.118   0.275
    1STR   C09043403   7.238   3.198   0.281
    1STR   H09143404   7.192   3.290   0.263
    1STR   C09243405   7.303   3.208   0.421
    1STR   H09343406   7.332   3.110   0.460
    1STR   H09443407   7.237   3.257   0.493
    1STR   H09543408   7.392   3.271   0.420
    1STR   C09643409   7.353   3.175   0.172
    1STR   H09743410   7.448   3.184   0.225
    1STR   H09843411   7.347   3.083   0.121
    1STR   O09943412   7.371   3.250   0.053
    1STR   C10043413   7.507   3.269   0.009
    1STR   H10143414   7.560   3.326   0.084
    1STR   C10243415   7.593   3.145   9.311
    1STR   H10343416   7.554   3.083   9.231
    1STR   H10443417   7.602   3.090   0.084
    1STR   H10543418   7.695   3.173   9.283
    1STR   C10643419   7.503   3.344   9.196
    1STR   H10743420   7.468   3.277   9.118
    1STR   H10843421   7.433   3.426   9.202
    1STR   O10943422   7.635   3.391   9.169
    1STR   C11043423   7.661   3.408   9.031
    1STR   H11143424   7.572   3.449   8.983
    1STR   C11243425   7.772   3.513   9.022
    1STR   H11343426   7.863   3.477   9.070
    1STR   H11443427   7.741   3.603   9.073
    1STR   H11543428   7.794   3.538   8.919
    1STR   C11643429   7.705   3.274   8.968
    1STR   H11743430   7.791   3.286   8.902
    1STR   H11843431   7.737   3.205   9.047
    1STR   O11943432   7.600   3.211   8.897
    1STR   C12043433   7.566   3.277   8.776
    1STR   H12143434   7.600   3.381   8.775
    1STR   C12243435   7.631   3.202   8.659
    1STR   H12343436   7.600   3.098   8.659
    1STR   H12443437   7.739   3.204   8.666
    1STR   H12543438   7.602   3.246   8.563
    1STR   C12643439   7.415   3.279   8.765
    1STR   H12743440   7.390   3.352   8.688
    1STR   H12843441   7.381   3.181   8.731
    1STR   O12943442   7.352   3.309   8.890
    1STR   C13043443   7.214   3.347   8.887
    1STR   H13143444   7.222   3.447   8.917
    1STR   C13243445   7.144   3.339   8.747
    1STR   H13343446   7.173   3.248   8.700
    1STR   H13443447   7.173   3.407   8.669
    1STR   H13543448   7.036   3.343   8.752
    1STR   C13643449   7.124   3.312   9.007
    1STR   H13743450   7.033   3.366   8.993
    1STR   H13843451   7.095   3.208   9.009
    1STR   O13943452   7.175   3.351   9.133
    1STR   C14043453   7.080   3.409   9.223
    1STR   H14143454   7.059   3.512   9.193
    1STR   C14243455   6.949   3.331   9.231
    1STR   H14343456   6.962   3.224   9.221
    1STR   H14443457   6.877   3.370   9.160
    1STR   H14543458   6.900   3.347   0.007
    1STR   C14643459   7.134   3.411   0.045
    1STR   H14743460   7.058   3.452   0.111
    1STR   H14843461   7.144   3.306   0.069
    1STR   O14943462   7.256   3.483   0.060
    1STR   C15043463   7.309   3.496   0.192
    1STR   H15143464   7.352   3.406   0.232
    1STR   C15243465   7.443   3.569   0.176
    1STR   H15343466   7.434   3.656   0.114
    1STR   H15443467   7.516   3.514   0.118
    1STR   H15543468   7.490   3.593   0.271
    1STR   C15643469   7.208   3.548   0.299
    1STR   H15743470   7.263   3.570   0.390
    1STR   H15843471   7.162   3.636   0.258
    1STR   O15943472   7.099   3.467   0.342
    1STR   C16043473   6.996   3.531   0.417
    1STR   H16143474   6.920   3.464   0.451
    1STR   C16243475   7.049   3.585   0.551
    1STR   H16343476   7.136   3.649   0.545
    1STR   H16443477   7.078   3.501   0.614
    1STR   H16543478   6.973   3.640   0.606
    1STR   C16643479   6.904   3.614   0.328
    1STR   H16743480   6.837   3.665   0.395
    1STR   H16843481   6.961   3.683   0.270
    1STR   O16943482   6.818   3.548   0.237
    1STR   C17043483   6.759   3.638   0.144
    1STR   H17143484   6.749   3.735   0.190
    1STR   C17243485   6.853   3.639   0.024
    1STR   H17343486   6.845   3.550   9.285
    1STR   H17443487   6.957   3.653   0.051
    1STR   H17543488   6.825   3.719   9.277
    1STR   C17643489   6.620   3.605   0.089
    1STR   H17743490   6.584   3.682   0.023
    1STR   H17843491   6.638   3.530   0.014
    1STR   O17943492   6.519   3.556   0.176
    1STR   C18043493   6.451   3.640   0.266
    1STR   H18143494   6.445   3.743   0.233
    1STR   C18243495   6.309   3.583   0.263
    1STR   H18343496   6.307   3.480   0.296
    1STR   H18443497   6.270   3.586   0.161
    1STR   H18543498   6.241   3.642   0.325
    1STR   C18643499   6.513   3.632   0.406
    1STR   H18743500   6.435   3.647   0.479
    1STR   H18843501   6.554   3.532   0.420
    1STR   O18943502   6.615   3.730   0.425
    1STR   C19043503   6.651   3.750   0.562
    1STR   H19143504   6.561   3.786   0.611
    1STR   C19243505   6.692   3.621   0.634
    1STR   H19343506   6.763   3.563   0.576
    1STR   H19443507   6.606   3.556   0.652
    1STR   H19543508   6.738   3.642   0.731
    1STR   C19643509   6.751   3.867   0.579
    1STR   H19743510   6.700   3.952   0.539
    1STR   H19843511   6.760   3.887   0.685
    1STR   O19943512   6.887   3.857   0.532
    1STR   C20043513   6.918   3.909   0.401
    1STR   H20143514   6.853   3.857   0.335
    1STR   C20243515   6.880   4.054   0.383
    1STR   H20343516   6.951   4.119   0.429
    1STR   H20443517   6.778   4.079   0.406
    1STR   H20543518   6.889   4.091   0.285
    1STR   C20643519   7.067   3.889   0.362
    1STR   H20743520   7.127   3.972   0.396
    1STR   H20843521   7.107   3.803   0.414
    1STR   O20943522   7.080   3.864   0.221
    1STR   C21043523   7.208   3.862   0.155
    1STR   H21143524   7.227   3.963   0.124
    1STR   C21243525   7.324   3.833   0.251
    1STR   H21343526   7.418   3.840   0.198
    1STR   H21443527   7.329   3.743   0.304
    1STR   H21543528   7.326   3.896   0.338
    1STR   C21643529   7.202   3.782   0.020
    1STR   H21743530   7.165   3.683   0.036
    1STR   H21843531   7.127   3.823   9.274
    1STR   O21943532   7.330   3.778   9.274
    1STR   C22043533   7.349   3.756   9.133
    1STR   H22143534   7.341   3.849   9.078
    1STR   C22243535   7.499   3.726   9.131
    1STR   H22343536   7.519   3.629   9.178
    1STR   H22443537   7.557   3.798   9.188
    1STR   H22543538   7.539   3.724   9.030
    1STR   C22643539   7.278   3.639   9.055
    1STR   H22743540   7.346   3.605   8.978
    1STR   H22843541   7.277   3.558   9.127
    1STR   O22943542   7.143   3.647   8.999
    1STR   C23043543   7.113   3.656   8.856
    1STR   H23143544   7.085   3.758   8.840
    1STR   C23243545   7.228   3.626   8.749
    1STR   H23343546   7.292   3.542   8.764
    1STR   H23443547   7.311   3.692   8.739
    1STR   H23543548   7.185   3.620   8.649
    1STR   C23643549   6.976   3.590   8.817
    1STR   H23743550   6.983   3.552   8.716
    1STR   H23843551   6.954   3.505   8.879
    1STR   O23943552   6.858   3.671   8.808
    1STR   C24043553   6.766   3.659   8.917
    1STR   H24143554   6.761   3.558   8.957
    1STR   C24243555   6.820   3.752   9.022
    1STR   H24343556   6.909   3.713   9.071
    1STR   H24443557   6.744   3.775   9.096
    1STR   H24543558   6.847   3.846   8.975
    1STR   C24643559   6.622   3.700   8.877
    1STR   H24743560   6.623   3.798   8.830
    1STR   H24843561   6.584   3.630   8.803
    1STR   O24943562   6.536   3.700   8.991
    1STR   C25043563   6.414   3.774   8.982
    1STR   H25143564   6.441   3.877   8.964
    1STR   C25243565   6.327   3.722   8.865
    1STR   H25343566   6.312   3.614   8.872
    1STR   H25443567   6.373   3.743   8.769
    1STR   H25543568   6.228   3.766   8.866
    1STR   C25643569   6.332   3.772   9.114
    1STR   H25743570   6.256   3.849   9.114
    1STR   H25843571   6.277   3.678   9.122
    1STR   O25943572   6.414   3.779   9.230
    1STR   C26043573   6.416   3.903   9.299
    1STR   H26143574   6.413   3.982   9.227
    1STR   C26243575   6.294   3.918   0.069
    1STR   H26343576   6.276   3.831   0.131
    1STR   H26443577   6.205   3.934   0.008
    1STR   H26543578   6.303   4.004   0.135
    1STR   C26643579   6.551   3.926   0.051
    1STR   H26743580   6.548   4.016   0.110
    1STR   H26843581   6.574   3.855   0.128
    1STR   O26943582   6.654   3.924   9.272
    1STR   C27043583   6.765   4.006   9.302
    1STR   H27143584   6.729   4.103   0.012
    1STR   C27243585   6.846   3.958   0.093
    1STR   H27343586   6.894   3.865   0.078
    1STR   H27443587   6.779   3.955   0.178
    1STR   H27543588   6.930   4.024   0.104
    1STR   C27643589   6.855   4.033   9.187
    1STR   H27743590   6.794   4.005   9.104
    1STR   H27843591   6.875   4.139   9.191
    1STR   O27943592   6.977   3.961   9.171
    1STR   C28043593   7.075   4.036   9.098
    1STR   H28143594   7.037   4.128   9.058
    1STR   C28243595   7.182   4.066   9.201
    1STR   H28343596   7.136   4.071   9.299
    1STR   H28443597   7.224   4.163   9.186
    1STR   H28543598   7.263   3.995   9.204
    1STR   C28643599   7.121   3.958   8.978
    1STR   H28743600   7.145   3.864   9.022
    1STR   H28843601   7.034   3.941   8.916
    1STR   O28943602   7.230   4.013   8.900
    1STR   C29043603   7.281   3.927   8.798
    1STR   H29143604   7.294   3.839   8.859
    1STR   C29243605   7.190   3.912   8.672
    1STR   H29343606   7.206   3.995   8.605
    1STR   H29443607   7.084   3.904   8.694
    1STR   H29543608   7.217   3.830   8.607
    1STR   C29643609   7.422   3.953   8.740
    1STR   H29743610   7.432   3.906   8.643
    1STR   H29843611   7.433   4.059   8.721
    1STR   O29943612   7.524   3.895   8.819
    1STR   C30043613   7.655   3.946   8.798
    1STR   H30143614   7.718   3.894   8.872
    1STR   C30243615   7.706   3.906   8.659
    1STR   H30343616   7.652   3.958   8.580
    1STR   H30443617   7.693   3.799   8.644
    1STR   H30543618   7.812   3.929   8.648
    1STR   C30643619   7.668   4.098   8.827
    1STR   H30743620   7.772   4.127   8.810
    1STR   H30843621   7.610   4.161   8.761
    1STR   O30943622   7.641   4.129   8.963
    1STR    H1R43623   7.459   4.024   8.985
    1STR    H1S43624   7.431   4.139   9.211
    1STR    H1T43625   7.600   4.170   9.197
    1STR    H1U43626   7.538   4.006   9.192
    1STR    H1V43627   7.439   4.323   9.018
    1STR    H1W43628   7.321   4.205   9.023
    1STR    H1X43629   7.288   4.230   8.627
    1STR    H1Y43630   7.125   4.238   8.454
    1STR    H1Z43631   6.908   4.153   8.365
    1STR    H2043632   6.622   4.044   8.586
    1STR    H2143633   6.655   4.125   8.439
    1STR    H2243634   6.698   3.952   8.455
    1STR    H2343635   6.737   3.932   8.742
    1STR    H2743636   7.011   4.131   8.840
    1STR    H2843637   6.654   2.956   9.091
    1STR    H2943638   6.660   2.797   8.936
    1STR    H2A43639   6.906   2.513   8.969
    1STR    H2B43640   6.851   2.550   8.822
    1STR    H2C43641   6.737   2.562   8.941
    1STR   BCK143642   7.117   2.605   2.550
    1STR    O0343643   7.231   2.572   2.573
    1STR    N0443644   7.032   2.656   2.636
    1STR    C0543645   7.057   2.729   2.751
    1STR    C0643646   7.184   2.770   2.795
    1STR    C0743647   7.201   2.851   2.908
    1STR    N0843648   7.324   2.899   2.953
    1STR    C0943649   7.428   2.946   2.883
    1STR    O0A43650   7.511   3.016   2.942
    1STR    O0B43651   7.434   2.912   2.752
    1STR    C0C43652   7.492   2.996   2.652
    1STR    C0D43653   7.637   3.044   2.677
    1STR    C0E43654   7.484   2.927   2.513
    1STR    O0F43655   7.393   2.972   2.410
    1STR    C0G43656   7.280   2.886   2.382
    1STR    C0H43657   7.205   2.901   2.510
    1STR    C0I43658   7.199   2.925   2.257
    1STR    O0J43659   7.092   2.849   2.196
    1STR    C0K43660   6.040   3.703   2.246
    1STR    C0M43661   5.888   3.688   2.234
    1STR    C0N43662   6.082   3.711   2.395
    1STR    O0O43663   6.095   3.846   2.432
    1STR    C0P43664   6.122   3.877   2.558
    1STR    O0Q43665   6.069   3.821   2.652
    1STR    N0R43666   6.213   3.974   2.576
    1STR    C0S43667   6.286   4.050   2.484
    1STR    C0T43668   6.347   4.169   2.527
    1STR    C0U43669   6.407   4.254   2.434
    1STR    C0V43670   6.418   4.216   2.298
    1STR    C0W43671   6.504   4.296   2.206
    1STR    C0X43672   6.364   4.096   2.254
    1STR    N0Y43673   6.397   4.042   2.129
    1STR   BCK243674   6.374   4.079   2.004
    1STR    O1043675   6.421   4.024   1.905
    1STR    C1343676   6.298   4.016   2.348
    1STR    C1443677   7.086   2.891   2.977
    1STR    C1543678   6.958   2.855   2.930
    1STR    C1643679   6.944   2.772   2.820
    1STR    C1743680   6.809   2.723   2.780
    1STR    H1B43681   6.935   2.644   2.611
    1STR    H1C43682   7.271   2.736   2.744
    1STR    H1D43683   7.332   2.920   3.050
    1STR    H1E43684   7.430   3.082   2.661
    1STR    H1F43685   7.706   2.960   2.682
    1STR    H1G43686   7.669   3.109   2.595
    1STR    H1H43687   7.647   3.103   2.767
    1STR    H1I43688   7.475   2.821   2.528
    1STR    H1J43689   7.581   2.941   2.467
    1STR    H1K43690   7.311   2.784   2.368
    1STR    H1M43691   7.254   2.833   2.576
    1STR    H1N43692   7.102   2.877   2.507
    1STR    H1O43693   7.217   2.999   2.556
    1STR    H1P43694   7.152   3.014   2.290
    1STR    H1Q43695   7.268   2.948   2.179
    1STR   C01043696   7.032   2.925   2.089
    1STR   H01143697   7.027   3.020   2.134
    1STR   C01243698   7.116   2.922   1.964
    1STR   H01343699   7.168   2.828   1.960
    1STR   H01443700   7.184   3.005   1.958
    1STR   H01543701   7.056   2.928   1.875
    1STR   C01643702   6.884   2.937   2.049
    1STR   H01743703   6.872   3.039   2.014
    1STR   H01843704   6.855   2.881   1.961
    1STR   O01943705   6.795   2.912   2.153
    1STR   C02043706   6.695   3.010   2.166
    1STR   H02143707   6.742   3.103   2.198
    1STR   C02243708   6.615   3.030   2.036
    1STR   H02343709   6.576   2.937   2.000
    1STR   H02443710   6.672   3.071   1.953
    1STR   H02543711   6.531   3.097   2.052
    1STR   C02643712   6.609   2.958   2.279
    1STR   H02743713   6.557   2.871   2.241
    1STR   H02843714   6.665   2.926   2.365
    1STR   O02943715   6.526   3.060   2.325
    1STR   C03043716   6.397   3.019   2.363
    1STR   H03143717   6.349   3.113   2.385
    1STR   C03243718   6.324   2.965   2.241
    1STR   H03343719   6.345   2.862   2.215
    1STR   H03443720   6.347   3.026   2.154
    1STR   H03543721   6.219   2.975   2.258
    1STR   C03643722   6.382   2.939   2.495
    1STR   H03743723   6.310   2.993   2.556
    1STR   H03843724   6.338   2.843   2.477
    1STR   O03943725   6.496   2.910   2.573
    1STR   C04043726   6.520   3.014   2.666
    1STR   H04143727   6.508   3.104   2.607
    1STR   C04243728   6.419   3.012   2.782
    1STR   H04343729   6.356   2.923   2.779
    1STR   H04443730   6.352   3.098   2.777
    1STR   H04543731   6.469   3.013   2.879
    1STR   C04643732   6.666   3.014   2.707
    1STR   H04743733   6.692   3.105   2.761
    1STR   H04843734   6.685   2.935   2.777
    1STR   O04943735   6.730   3.006   2.580
    1STR   C05043736   6.870   3.007   2.568
    1STR   H05143737   6.909   2.909   2.590
    1STR   C05243738   6.895   3.045   2.423
    1STR   H05343739   6.870   2.966   2.356
    1STR   H05443740   6.998   3.068   2.406
    1STR   H05543741   6.840   3.133   2.393
    1STR   C05643742   6.946   3.110   2.648
    1STR   H05743743   7.048   3.100   2.618
    1STR   H05843744   6.918   3.210   2.619
    1STR   O05943745   6.937   3.086   2.786
    1STR   C06043746   7.004   3.183   2.862
    1STR   H06143747   6.984   3.273   2.809
    1STR   C06243748   6.932   3.190   2.998
    1STR   H06343749   6.917   3.092   3.043
    1STR   H06443750   6.833   3.234   2.986
    1STR   H06543751   6.987   3.249   3.072
    1STR   C06643752   7.159   3.181   2.869
    1STR   H06743753   7.197   3.268   2.920
    1STR   H06843754   7.194   3.104   2.934
    1STR   O06943755   7.223   3.166   2.743
    1STR   C07043756   7.238   3.285   2.667
    1STR   H07143757   7.146   3.343   2.667
    1STR   C07243758   7.353   3.366   2.730
    1STR   H07343759   7.446   3.309   2.731
    1STR   H07443760   7.334   3.399   2.831
    1STR   H07543761   7.371   3.458   2.674
    1STR   C07643762   7.278   3.254   2.522
    1STR   H07743763   7.314   3.349   2.488
    1STR   H07843764   7.366   3.194   2.518
    1STR   O07943765   7.186   3.197   2.426
    1STR   C08043766   7.220   3.236   2.292
    1STR   H08143767   7.218   3.337   2.312
    1STR   C08243768   7.365   3.214   2.255
    1STR   H08343769   7.383   3.289   2.181
    1STR   H08443770   7.384   3.115   2.216
    1STR   H08543771   7.437   3.235   2.332
    1STR   C08643772   7.131   3.229   2.161
    1STR   H08743773   7.164   3.314   2.105
    1STR   H08843774   7.171   3.153   2.097
    1STR   O08943775   6.985   3.236   2.153
    1STR   C09043776   6.936   3.308   2.035
    1STR   H09143777   6.971   3.410   2.050
    1STR   C09243778   7.003   3.262   1.905
    1STR   H09343779   6.982   3.158   1.881
    1STR   H09443780   7.111   3.274   1.903
    1STR   H09543781   6.965   3.323   1.824
    1STR   C09643782   6.784   3.331   2.006
    1STR   H09743783   6.773   3.433   1.971
    1STR   H09843784   6.752   3.269   1.922
    1STR   O09943785   6.687   3.309   2.108
    1STR   C10043786   6.566   3.384   2.102
    1STR   H10143787   6.595   3.486   2.116
    1STR   C10243788   6.488   3.379   1.972
    1STR   H10343789   6.439   3.283   1.966
    1STR   H10443790   6.548   3.400   1.884
    1STR   H10543791   6.406   3.451   1.975
    1STR   C10643792   6.475   3.334   2.215
    1STR   H10743793   6.429   3.240   2.186
    1STR   H10843794   6.541   3.310   2.296
    1STR   O10943795   6.378   3.429   2.254
    1STR   C11043796   6.273   3.386   2.342
    1STR   H11143797   6.212   3.473   2.356
    1STR   C11243798   6.174   3.290   2.275
    1STR   H11343799   6.220   3.201   2.235
    1STR   H11443800   6.126   3.338   2.191
    1STR   H11543801   6.095   3.261   2.345
    1STR   C11643802   6.314   3.353   2.487
    1STR   H11743803   6.313   3.446   2.544
    1STR   H11843804   6.242   3.288   2.534
    1STR   O11943805   6.441   3.293   2.498
    1STR   C12043806   6.544   3.367   2.562
    1STR   H12143807   6.542   3.472   2.531
    1STR   C12243808   6.516   3.353   2.713
    1STR   H12343809   6.518   3.252   2.750
    1STR   H12443810   6.420   3.392   2.742
    1STR   H12543811   6.594   3.399   2.770
    1STR   C12643812   6.679   3.306   2.520
    1STR   H12743813   6.708   3.242   2.602
    1STR   H12843814   6.666   3.236   2.438
    1STR   O12943815   6.790   3.394   2.504
    1STR   C13043816   6.838   3.416   2.371
    1STR   H13143817   6.813   3.332   2.307
    1STR   C13243818   6.756   3.534   2.327
    1STR   H13343819   6.767   3.620   2.391
    1STR   H13443820   6.652   3.506   2.333
    1STR   H13543821   6.779   3.559   2.224
    1STR   C13643822   6.994   3.429   2.371
    1STR   H13743823   7.032   3.454   2.469
    1STR   H13843824   7.011   3.323   2.378
    1STR   O13943825   7.064   3.479   2.250
    1STR   C14043826   7.196   3.546   2.227
    1STR   H14143827   7.168   3.645   2.247
    1STR   C14243828   7.320   3.546   2.321
    1STR   H14343829   7.393   3.470   2.298
    1STR   H14443830   7.299   3.540   2.426
    1STR   H14543831   7.374   3.640   2.309
    1STR   C14643832   7.254   3.537   2.081
    1STR   H14743833   7.328   3.614   2.070
    1STR   H14843834   7.315   3.449   2.067
    1STR   O14943835   7.164   3.540   1.972
    1STR   C15043836   7.221   3.578   1.846
    1STR   H15143837   7.318   3.529   1.832
    1STR   C15243838   7.125   3.528   1.737
    1STR   H15343839   7.022   3.555   1.760
    1STR   H15443840   7.132   3.420   1.726
    1STR   H15543841   7.149   3.571   1.640
    1STR   C15643842   7.237   3.730   1.833
    1STR   H15743843   7.257   3.751   1.728
    1STR   H15843844   7.142   3.780   1.850
    1STR   O15943845   7.350   3.782   1.903
    1STR   C16043846   7.337   3.863   2.020
    1STR   H16143847   7.371   3.809   2.108
    1STR   C16243848   7.441   3.970   2.004
    1STR   H16343849   7.417   4.025   1.914
    1STR   H16443850   7.540   3.926   1.991
    1STR   H16543851   7.446   4.035   2.091
    1STR   C16643852   7.198   3.920   2.053
    1STR   H16743853   7.203   4.010   2.112
    1STR   H16843854   7.135   3.944   1.967
    1STR   O16943855   7.147   3.823   2.140
    1STR   C17043856   7.008   3.820   2.162
    1STR   H17143857   6.976   3.920   2.139
    1STR   C17243858   6.950   3.714   2.067
    1STR   H17343859   6.984   3.616   2.091
    1STR   H17443860   6.974   3.727   1.962
    1STR   H17543861   6.845   3.703   2.079
    1STR   C17643862   6.971   3.782   2.309
    1STR   H17743863   6.872   3.817   2.337
    1STR   H17843864   6.958   3.675   2.310
    1STR   O17943865   7.065   3.814   2.411
    1STR   C18043866   7.096   3.710   2.504
    1STR   H18143867   7.118   3.626   2.446
    1STR   C18243868   7.224   3.737   2.577
    1STR   H18343869   7.304   3.763   2.508
    1STR   H18443870   7.255   3.649   2.632
    1STR   H18543871   7.210   3.814   2.650
    1STR   C18643872   6.990   3.669   2.606
    1STR   H18743873   6.981   3.754   2.670
    1STR   H18843874   6.894   3.648   2.561
    1STR   O18943875   7.034   3.562   2.688
    1STR   C19043876   6.956   3.557   2.806
    1STR   H19143877   6.926   3.657   2.836
    1STR   C19243878   6.829   3.477   2.781
    1STR   H19343879   6.846   3.385   2.729
    1STR   H19443880   6.762   3.533   2.717
    1STR   H19543881   6.778   3.454   2.875
    1STR   C19643882   7.033   3.509   2.928
    1STR   H19743883   6.973   3.530   3.015
    1STR   H19843884   7.044   3.406   2.937
    1STR   O19943885   7.166   3.553   2.931
    1STR   C20043886   7.204   3.605   3.056
    1STR   H20143887   7.151   3.559   3.139
    1STR   C20243888   7.352   3.571   3.070
    1STR   H20343889   7.403   3.590   2.976
    1STR   H20443890   7.364   3.464   3.090
    1STR   H20543891   7.400   3.627   3.149
    1STR   C20643892   7.170   3.755   3.046
    1STR   H20743893   7.208   3.811   3.131
    1STR   H20843894   7.222   3.794   2.958
    1STR   O20943895   7.032   3.777   3.020
    1STR   C21043896   6.936   3.756   3.123
    1STR   H21143897   6.946   3.659   3.172
    1STR   C21243898   6.964   3.864   3.228
    1STR   H21343899   7.051   3.840   3.288
    1STR   H21443900   6.879   3.875   3.295
    1STR   H21543901   6.983   3.960   3.180
    1STR   C21643902   6.794   3.768   3.063
    1STR   H21743903   6.723   3.781   3.144
    1STR   H21843904   6.793   3.855   3.000
    1STR   O21943905   6.737   3.666   2.982
    1STR   C22043906   6.621   3.716   2.911
    1STR   H22143907   6.576   3.796   2.969
    1STR   C22243908   6.659   3.770   2.772
    1STR   H22343909   6.644   3.701   2.689
    1STR   H22443910   6.763   3.800   2.769
    1STR   H22543911   6.600   3.859   2.746
    1STR   C22643912   6.514   3.609   2.902
    1STR   H22743913   6.499   3.585   2.798
    1STR   H22843914   6.546   3.519   2.955
    1STR   O22943915   6.391   3.652   2.958
    1STR   C23043916   6.300   3.707   2.864
    1STR   H23143917   6.352   3.766   2.789
    1STR   C23243918   6.229   3.592   2.793
    1STR   H23343919   6.225   3.502   2.854
    1STR   H23443920   6.283   3.571   2.702
    1STR   H23543921   6.127   3.616   2.764
    1STR   C23643922   6.204   3.797   2.943
    1STR   H23743923   6.127   3.842   2.881
    1STR   H23843924   6.151   3.736   3.017
    1STR   O23943925   6.275   3.898   3.014
    1STR   C24043926   6.331   4.002   2.935
    1STR   H24143927   6.374   3.967   2.841
    1STR   C24243928   6.224   4.108   2.905
    1STR   H24343929   6.268   4.191   2.850
    1STR   H24443930   6.182   4.147   2.998
    1STR   H24543931   6.142   4.068   2.846
    1STR   C24643932   6.445   4.058   3.019
    1STR   H24743933   6.434   4.166   3.032
    1STR   H24843934   6.443   4.014   3.118
    1STR   O24943935   6.568   4.026   2.954
    1STR   C25043936   6.677   4.101   3.003
    1STR   H25143937   6.645   4.202   2.985
    1STR   C25243938   6.697   4.072   3.154
    1STR   H25343939   6.666   3.972   3.180
    1STR   H25443940   6.637   4.136   3.217
    1STR   H25543941   6.800   4.083   3.185
    1STR   C25643942   6.805   4.088   2.920
    1STR   H25743943   6.852   4.184   2.913
    1STR   H25843944   6.882   4.031   2.971
    1STR   O25943945   6.779   4.036   2.790
    1STR   C26043946   6.887   4.044   2.698
    1STR   H26143947   6.907   4.148   2.676
    1STR   C26243948   7.019   3.995   2.760
    1STR   H26343949   7.009   3.899   2.809
    1STR   H26443950   7.059   4.062   2.835
    1STR   H26543951   7.094   3.988   2.682
    1STR   C26643952   6.857   3.977   2.561
    1STR   H26743953   6.934   4.002   2.490
    1STR   H26843954   6.861   3.872   2.572
    1STR   O26943955   6.728   3.980   2.501
    1STR   C27043956   6.703   4.078   2.401
    1STR   H27143957   6.602   4.055   2.370
    1STR   C27243958   6.702   4.210   2.475
    1STR   H27343959   6.636   4.202   2.561
    1STR   H27443960   6.669   4.293   2.415
    1STR   H27543961   6.800   4.237   2.510
    1STR   C27643962   6.789   4.079   2.272
    1STR   H27743963   6.767   4.169   2.218
    1STR   H27843964   6.895   4.086   2.296
    1STR   O27943965   6.769   3.962   2.192
    1STR   C28043966   6.705   3.967   2.064
    1STR   H28143967   6.645   4.058   2.058
    1STR   C28243968   6.798   3.954   1.942
    1STR   H28343969   6.816   3.852   1.911
    1STR   H28443970   6.894   4.004   1.956
    1STR   H28543971   6.753   3.998   1.853
    1STR   C28643972   6.611   3.847   2.067
    1STR   H28743973   6.537   3.846   1.987
    1STR   H28843974   6.661   3.753   2.051
    1STR   O28943975   6.554   3.853   2.195
    1STR   C29043976   6.500   3.734   2.241
    1STR   H29143977   6.564   3.654   2.213
    1STR   C29243978   6.499   3.742   2.394
    1STR   H29343979   6.600   3.761   2.431
    1STR   H29443980   6.464   3.649   2.437
    1STR   H29543981   6.438   3.823   2.432
    1STR   C29643982   6.363   3.715   2.178
    1STR   H29743983   6.310   3.648   2.242
    1STR   H29843984   6.312   3.809   2.177
    1STR   O29943985   6.358   3.671   2.044
    1STR   C30043986   6.228   3.686   1.988
    1STR   H30143987   6.193   3.789   2.001
    1STR   C30243988   6.247   3.667   1.838
    1STR   H30343989   6.284   3.567   1.815
    1STR   H30443990   6.320   3.738   1.802
    1STR   H30543991   6.154   3.682   1.783
    1STR   C30643992   6.122   3.587   2.044
    1STR   H30743993   6.027   3.600   1.993
    1STR   H30843994   6.156   3.487   2.021
    1STR   O30943995   6.099   3.589   2.186
    1STR    H1R43996   6.074   3.793   2.195
    1STR    H1S43997   5.855   3.688   2.130
    1STR    H1T43998   5.837   3.769   2.286
    1STR    H1U43999   5.856   3.594   2.280
    1STR    H1V44000   6.182   3.671   2.412
    1STR    H1W44001   6.015   3.657   2.461
    1STR    H1X44002   6.227   3.996   2.673
    1STR    H1Y44003   6.346   4.201   2.630
    1STR    H1Z44004   6.453   4.346   2.468
    1STR    H2044005   6.441   4.343   2.131
    1STR    H2144006   6.560   4.370   2.260
    1STR    H2244007   6.575   4.234   2.154
    1STR    H2344008   6.465   3.965   2.142
    1STR    H2744009   6.256   3.926   2.314
    1STR    H2844010   7.093   2.952   3.065
    1STR    H2944011   6.869   2.891   2.979
    1STR    H2A44012   6.770   2.775   2.694
    1STR    H2B44013   6.742   2.735   2.864
    1STR    H2C44014   6.815   2.619   2.752
    1STR   BCK144015   7.124   2.794   4.682
    1STR    O0344016   7.099   2.897   4.622
    1STR    N0444017   7.230   2.717   4.666
    1STR    C0544018   7.284   2.688   4.543
    1STR    C0644019   7.273   2.776   4.434
    1STR    C0744020   7.318   2.740   4.308
    1STR    N0844021   7.285   2.828   4.208
    1STR    C0944022   7.309   2.810   4.081
    1STR    O0A44023   7.418   2.779   4.035
    1STR    O0B44024   7.196   2.816   4.014
    1STR    C0C44025   7.101   2.710   4.026
    1STR    C0D44026   7.162   2.575   3.987
    1STR    C0E44027   7.017   2.691   4.158
    1STR    O0F44028   6.912   2.778   4.204
    1STR    C0G44029   6.952   2.909   4.240
    1STR    C0H44030   6.961   2.975   4.102
    1STR    C0I44031   6.854   2.987   4.332
    1STR    O0J44032   6.842   2.955   4.472
    1STR    C0K44033   7.490   3.971   4.741
    1STR    C0M44034   7.588   3.909   4.641
    1STR    C0N44035   7.347   3.976   4.680
    1STR    O0O44036   7.327   4.079   4.584
    1STR    C0P44037   7.272   4.194   4.617
    1STR    O0Q44038   7.260   4.236   4.731
    1STR    N0R44039   7.225   4.264   4.515
    1STR    C0S44040   7.209   4.229   4.382
    1STR    C0T44041   7.293   4.277   4.283
    1STR    C0U44042   7.262   4.255   4.147
    1STR    C0V44043   7.154   4.171   4.111
    1STR    C0W44044   7.147   4.123   3.969
    1STR    C0X44045   7.071   4.118   4.212
    1STR    N0Y44046   6.992   4.003   4.207
    1STR   BCK244047   6.908   3.938   4.127
    1STR    O1044048   6.845   3.843   4.171
    1STR    C1344049   7.092   4.163   4.342
    1STR    C1444050   7.370   2.611   4.288
    1STR    C1544051   7.375   2.519   4.394
    1STR    C1644052   7.331   2.558   4.523
    1STR    C1744053   7.325   2.457   4.637
    1STR    H1B44054   7.242   2.644   4.732
    1STR    H1C44055   7.229   2.873   4.443
    1STR    H1D44056   7.221   2.902   4.226
    1STR    H1E44057   7.038   2.738   3.945
    1STR    H1F44058   7.220   2.535   4.069
    1STR    H1G44059   7.085   2.502   3.961
    1STR    H1H44060   7.227   2.583   3.901
    1STR    H1I44061   7.083   2.668   4.241
    1STR    H1J44062   6.961   2.600   4.139
    1STR    H1K44063   7.049   2.907   4.289
    1STR    H1M44064   7.061   3.005   4.075
    1STR    H1N44065   6.891   3.054   4.083
    1STR    H1O44066   6.939   2.904   4.025
    1STR    H1P44067   6.896   3.084   4.335
    1STR    H1Q44068   6.758   2.999   4.285
    1STR   C01044069   6.847   3.066   4.565
    1STR   H01144070   6.948   3.102   4.563
    1STR   C01244071   6.750   3.178   4.526
    1STR   H01344072   6.789   3.237   4.444
    1STR   H01444073   6.731   3.244   4.610
    1STR   H01544074   6.655   3.141   4.491
    1STR   C01644075   6.835   3.029   4.714
    1STR   H01744076   6.746   2.972   4.733
    1STR   H01844077   6.917   2.966   4.742
    1STR   O01944078   6.847   3.140   4.801
    1STR   C02044079   6.853   3.110   4.941
    1STR   H02144080   6.857   3.207   4.990
    1STR   C02244081   6.727   3.039   4.992
    1STR   H02344082   6.725   2.935   4.963
    1STR   H02444083   6.636   3.087   4.957
    1STR   H02544084   6.724   3.044   5.101
    1STR   C02644085   6.981   3.039   4.989
    1STR   H02744086   6.974   3.029   5.097
    1STR   H02844087   6.986   2.939   4.947
    1STR   O02944088   7.097   3.114   4.958
    1STR   C03044089   7.221   3.073   5.015
    1STR   H03144090   7.294   3.150   4.989
    1STR   C03244091   7.223   3.063   5.169
    1STR   H03344092   7.186   2.970   5.204
    1STR   H03444093   7.167   3.140   5.219
    1STR   H03544094   7.326   3.068   5.205
    1STR   C03644095   7.267   2.939   4.959
    1STR   H03744096   7.346   2.897   5.021
    1STR   H03844097   7.185   2.870   4.961
    1STR   O03944098   7.303   2.933   4.824
    1STR   C04044099   7.414   3.005   4.779
    1STR   H04144100   7.380   3.107   4.789
    1STR   C04244101   7.531   2.983   4.874
    1STR   H04344102   7.530   2.882   4.908
    1STR   H04444103   7.520   3.044   4.962
    1STR   H04544104   7.626   3.002   4.826
    1STR   C04644105   7.435   2.965   4.630
    1STR   H04744106   7.445   2.860   4.623
    1STR   H04844107   7.339   2.985   4.586
    1STR   O04944108   7.541   3.028   4.553
    1STR   C05044109   7.532   3.023   4.408
    1STR   H05144110   7.521   2.924   4.368
    1STR   C05244111   7.409   3.089   4.351
    1STR   H05344112   7.397   3.062   4.247
    1STR   H05444113   7.421   3.196   4.358
    1STR   H05544114   7.317   3.060   4.399
    1STR   C05644115   7.660   3.081   4.343
    1STR   H05744116   7.669   3.188   4.357
    1STR   H05844117   7.747   3.036   4.391
    1STR   O05944118   7.667   3.049   4.204
    1STR   C06044119   7.617   3.149   4.116
    1STR   H06144120   7.546   3.212   4.167
    1STR   C06244121   7.734   3.237   4.069
    1STR   H06344122   7.808   3.177   4.015
    1STR   H06444123   7.784   3.285   4.153
    1STR   H06544124   7.699   3.315   4.002
    1STR   C06644125   7.543   3.082   3.999
    1STR   H06744126   7.573   3.124   3.903
    1STR   H06844127   7.572   2.977   3.996
    1STR   O06944128   7.402   3.089   4.014
    1STR   C07044129   7.340   3.211   3.978
    1STR   H07144130   7.414   3.285   3.948
    1STR   C07244131   7.238   3.199   3.866
    1STR   H07344132   7.169   3.118   3.887
    1STR   H07444133   7.288   3.184   3.771
    1STR   H07544134   7.179   3.289   3.854
    1STR   C07644135   7.266   3.262   4.098
    1STR   H07744136   7.334   3.279   4.180
    1STR   H07844137   7.223   3.355   4.066
    1STR   O07944138   7.168   3.177   4.154
    1STR   C08044139   7.085   3.250   4.242
    1STR   H08144140   7.130   3.347   4.247
    1STR   C08244141   6.946   3.282   4.178
    1STR   H08344142   6.862   3.217   4.197
    1STR   H08444143   6.955   3.289   4.070
    1STR   H08544144   6.905   3.376   4.212
    1STR   C08644145   7.097   3.212   4.391
    1STR   H08744146   7.011   3.252   4.439
    1STR   H08844147   7.100   3.104   4.408
    1STR   O08944148   7.213   3.271   4.447
    1STR   C09044149   7.227   3.307   4.585
    1STR   H09144150   7.193   3.409   4.595
    1STR   C09244151   7.152   3.225   4.689
    1STR   H09344152   7.171   3.119   4.680
    1STR   H09444153   7.046   3.242   4.692
    1STR   H09544154   7.188   3.255   4.787
    1STR   C09644155   7.379   3.291   4.611
    1STR   H09744156   7.392   3.189   4.594
    1STR   H09844157   7.440   3.329   4.533
    1STR   O09944158   7.438   3.328   4.735
    1STR   C10044159   7.573   3.282   4.751
    1STR   H10144160   7.568   3.178   4.735
    1STR   C10244161   7.678   3.304   4.640
    1STR   H10344162   7.685   3.403   4.600
    1STR   H10444163   7.654   3.242   4.556
    1STR   H10544164   7.778   3.275   4.672
    1STR   C10644165   7.630   3.291   4.895
    1STR   H10744166   7.666   3.193   4.919
    1STR   H10844167   7.720   3.349   4.894
    1STR   O10944168   7.541   3.326   5.001
    1STR   C11044169   7.566   3.273   5.133
    1STR   H11144170   7.544   3.167   5.133
    1STR   C11244171   7.713   3.293   5.176
    1STR   H11344172   7.741   3.398   5.177
    1STR   H11444173   7.782   3.240   5.112
    1STR   H11544174   7.728   3.254   5.277
    1STR   C11644175   7.473   3.339   5.239
    1STR   H11744176   7.499   3.300   5.337
    1STR   H11844177   7.493   3.445   5.245
    1STR   O11944178   7.334   3.311   5.221
    1STR   C12044179   7.252   3.418   5.175
    1STR   H12144180   7.258   3.498   5.248
    1STR   C12244181   7.307   3.466   5.041
    1STR   H12344182   7.309   3.386   4.967
    1STR   H12444183   7.406   3.509   5.052
    1STR   H12544184   7.250   3.546   4.999
    1STR   C12644185   7.103   3.382   5.159
    1STR   H12744186   7.063   3.461   5.099
    1STR   H12844187   7.091   3.295   5.096
    1STR   O12944188   7.024   3.370   5.279
    1STR   C13044189   6.890   3.318   5.262
    1STR   H13144190   6.898   3.215   5.227
    1STR   C13244191   6.828   3.320   5.402
    1STR   H13344192   6.810   3.422   5.436
    1STR   H13444193   6.893   3.273   5.475
    1STR   H13544194   6.732   3.268   5.401
    1STR   C13644195   6.801   3.400   5.165
    1STR   H13744196   6.783   3.499   5.207
    1STR   H13844197   6.858   3.413   5.074
    1STR   O13944198   6.676   3.340   5.129
    1STR   C14044199   6.611   3.411   5.022
    1STR   H14144200   6.619   3.517   5.046
    1STR   C14244201   6.675   3.378   4.886
    1STR   H14344202   6.784   3.385   4.882
    1STR   H14444203   6.638   3.444   4.808
    1STR   H14544204   6.649   3.278   4.854
    1STR   C14644205   6.460   3.384   5.010
    1STR   H14744206   6.441   3.278   4.999
    1STR   H14844207   6.411   3.414   5.103
    1STR   O14944208   6.408   3.465   4.902
    1STR   C15044209   6.364   3.393   4.786
    1STR   H15144210   6.418   3.298   4.781
    1STR   C15244211   6.214   3.369   4.803
    1STR   H15344212   6.158   3.461   4.791
    1STR   H15444213   6.190   3.332   4.902
    1STR   H15544214   6.176   3.297   4.729
    1STR   C15644215   6.396   3.470   4.655
    1STR   H15744216   6.312   3.531   4.623
    1STR   H15844217   6.477   3.538   4.674
    1STR   O15944218   6.433   3.376   4.552
    1STR   C16044219   6.498   3.418   4.430
    1STR   H16144220   6.527   3.328   4.375
    1STR   C16244221   6.402   3.501   4.345
    1STR   H16344222   6.376   3.595   4.395
    1STR   H16444223   6.310   3.447   4.324
    1STR   H16544224   6.449   3.527   4.250
    1STR   C16644225   6.630   3.485   4.462
    1STR   H16744226   6.609   3.591   4.467
    1STR   H16844227   6.651   3.444   4.560
    1STR   O16944228   6.749   3.462   4.387
    1STR   C17044229   6.860   3.529   4.450
    1STR   H17144230   6.818   3.627   4.467
    1STR   C17244231   6.902   3.465   4.585
    1STR   H17344232   6.925   3.361   4.575
    1STR   H17444233   6.832   3.464   4.667
    1STR   H17544234   6.992   3.511   4.626
    1STR   C17644235   6.991   3.551   4.370
    1STR   H17744236   7.065   3.604   4.431
    1STR   H17844237   7.037   3.457   4.369
    1STR   O17944238   6.983   3.617   4.243
    1STR   C18044239   7.079   3.584   4.140
    1STR   H18144240   7.056   3.485   4.106
    1STR   C18244241   7.048   3.668   4.016
    1STR   H18344242   7.079   3.771   4.029
    1STR   H18444243   6.941   3.668   3.995
    1STR   H18544244   7.099   3.629   3.928
    1STR   C18644245   7.231   3.591   4.172
    1STR   H18744246   7.287   3.557   4.086
    1STR   H18844247   7.261   3.691   4.187
    1STR   O18944248   7.268   3.524   4.291
    1STR   C19044249   7.405   3.493   4.316
    1STR   H19144250   7.387   3.393   4.349
    1STR   C19244251   7.505   3.467   4.201
    1STR   H19344252   7.552   3.552   4.157
    1STR   H19444253   7.466   3.417   4.115
    1STR   H19544254   7.588   3.409   4.241
    1STR   C19644255   7.462   3.556   4.445
    1STR   H19744256   7.551   3.503   4.476
    1STR   H19844257   7.496   3.656   4.434
    1STR   O19944258   7.364   3.549   4.546
    1STR   C20044259   7.380   3.630   4.659
    1STR   H20144260   7.406   3.722   4.614
    1STR   C20244261   7.242   3.637   4.721
    1STR   H20344262   7.218   3.545   4.772
    1STR   H20444263   7.165   3.652   4.645
    1STR   H20544264   7.239   3.720   4.791
    1STR   C20644265   7.484   3.605   4.770
    1STR   H20744266   7.485   3.695   4.830
    1STR   H20844267   7.452   3.528   4.839
    1STR   O20944268   7.614   3.571   4.725
    1STR   C21044269   7.727   3.619   4.798
    1STR   H21144270   7.734   3.720   4.765
    1STR   C21244271   7.713   3.615   4.952
    1STR   H21344272   7.709   3.517   4.997
    1STR   H21444273   7.621   3.661   4.985
    1STR   H21544274   7.794   3.667   5.001
    1STR   C21644275   7.862   3.561   4.750
    1STR   H21744276   7.942   3.624   4.788
    1STR   H21844277   7.878   3.463   4.793
    1STR   O21944278   7.877   3.547   4.609
    1STR   C22044279   7.829   3.653   4.526
    1STR   H22144280   7.725   3.674   4.548
    1STR   C22244281   7.912   3.780   4.547
    1STR   H22344282   8.015   3.767   4.515
    1STR   H22444283   7.912   3.813   4.651
    1STR   H22544284   7.868   3.862   4.490
    1STR   C22644285   7.826   3.602   4.382
    1STR   H22744286   7.914   3.632   4.325
    1STR   H22844287   7.829   3.493   4.385
    1STR   O22944288   7.702   3.633   4.319
    1STR   C23044289   7.690   3.757   4.252
    1STR   H23144290   7.744   3.830   4.311
    1STR   C23244291   7.757   3.739   4.114
    1STR   H23344292   7.705   3.665   4.054
    1STR   H23444293   7.860   3.708   4.122
    1STR   H23544294   7.755   3.833   4.058
    1STR   C23644295   7.543   3.805   4.230
    1STR   H23744296   7.550   3.888   4.159
    1STR   H23844297   7.486   3.731   4.178
    1STR   O23944298   7.461   3.846   4.341
    1STR   C24044299   7.330   3.900   4.314
    1STR   H24144300   7.335   4.000   4.355
    1STR   C24244301   7.308   3.921   4.162
    1STR   H24344302   7.343   3.848   4.090
    1STR   H24444303   7.354   4.015   4.131
    1STR   H24544304   7.203   3.920   4.141
    1STR   C24644305   7.210   3.835   4.395
    1STR   H24744306   7.139   3.788   4.327
    1STR   H24844307   7.246   3.756   4.460
    1STR   O24944308   7.132   3.933   4.466
    1STR   C25044309   7.051   3.904   4.582
    1STR   H25144310   7.111   3.858   4.659
    1STR   C25244311   6.989   4.029   4.638
    1STR   H25344312   6.929   4.008   4.726
    1STR   H25444313   6.917   4.070   4.568
    1STR   H25544314   7.056   4.107   4.667
    1STR   C25644315   6.930   3.820   4.559
    1STR   H25744316   6.839   3.876   4.535
    1STR   H25844317   6.952   3.772   4.466
    1STR   O25944318   6.914   3.735   4.675
    1STR   C26044319   6.801   3.760   4.758
    1STR   H26144320   6.791   3.865   4.783
    1STR   C26244321   6.682   3.710   4.681
    1STR   H26344322   6.697   3.607   4.664
    1STR   H26444323   6.667   3.761   4.586
    1STR   H26544324   6.591   3.708   4.739
    1STR   C26644325   6.803   3.676   4.886
    1STR   H26744326   6.705   3.638   4.906
    1STR   H26844327   6.867   3.589   4.872
    1STR   O26944328   6.831   3.753   5.002
    1STR   C27044329   6.946   3.711   5.070
    1STR   H27144330   6.929   3.608   5.093
    1STR   C27244331   7.060   3.725   4.972
    1STR   H27344332   7.031   3.780   4.883
    1STR   H27444333   7.083   3.627   4.932
    1STR   H27544334   7.146   3.776   5.009
    1STR   C27644335   6.966   3.777   5.207
    1STR   H27744336   6.999   3.879   5.195
    1STR   H27844337   6.872   3.779   5.262
    1STR   O27944338   7.064   3.699   5.275
    1STR   C28044339   7.095   3.736   5.409
    1STR   H28144340   7.084   3.844   5.422
    1STR   C28244341   6.995   3.658   5.495
    1STR   H28344342   7.006   3.551   5.475
    1STR   H28444343   6.891   3.684   5.472
    1STR   H28544344   7.012   3.674   5.601
    1STR   C28644345   7.240   3.697   5.449
    1STR   H28744346   7.246   3.708   5.557
    1STR   H28844347   7.262   3.592   5.431
    1STR   O28944348   7.344   3.783   5.403
    1STR   C29044349   7.420   3.750   5.287
    1STR   H29144350   7.460   3.650   5.294
    1STR   C29244351   7.332   3.767   5.165
    1STR   H29344352   7.281   3.863   5.168
    1STR   H29444353   7.257   3.690   5.164
    1STR   H29544354   7.385   3.759   5.070
    1STR   C29644355   7.536   3.849   5.270
    1STR   H29744356   7.492   3.948   5.270
    1STR   H29844357   7.607   3.846   5.352
    1STR   O29944358   7.599   3.824   5.144
    1STR   C30044359   7.658   3.937   5.082
    1STR   H30144360   7.611   4.028   5.115
    1STR   C30244361   7.805   3.945   5.126
    1STR   H30344362   7.862   3.858   5.095
    1STR   H30444363   7.810   3.951   5.235
    1STR   H30544364   7.852   4.034   5.086
    1STR   C30644365   7.642   3.936   4.929
    1STR   H30744366   7.694   4.021   4.888
    1STR   H30844367   7.705   3.858   4.895
    1STR   O30944368   7.508   3.921   4.875
    1STR    H1R44369   7.513   4.074   4.749
    1STR    H1S44370   7.562   3.940   4.540
    1STR    H1T44371   7.585   3.802   4.639
    1STR    H1U44372   7.691   3.935   4.659
    1STR    H1V44373   7.266   3.971   4.750
    1STR    H1W44374   7.327   3.893   4.618
    1STR    H1X44375   7.189   4.354   4.541
    1STR    H1Y44376   7.378   4.336   4.312
    1STR    H1Z44377   7.327   4.298   4.072
    1STR    H2044378   7.068   4.176   3.917
    1STR    H2144379   7.242   4.141   3.922
    1STR    H2244380   7.129   4.017   3.962
    1STR    H2344381   6.987   3.959   4.298
    1STR    H2744382   7.021   4.135   4.416
    1STR    H2844383   7.403   2.582   4.189
    1STR    H2944384   7.411   2.419   4.379
    1STR    H2A44385   7.399   2.478   4.714
    1STR    H2B44386   7.336   2.356   4.598
    1STR    H2C44387   7.231   2.459   4.689
    1STR   BCK144388   6.430   2.741   7.147
    1STR    O0344389   6.535   2.718   7.203
    1STR    N0444390   6.330   2.816   7.198
    1STR    C0544391   6.321   2.900   7.310
    1STR    C0644392   6.411   2.902   7.421
    1STR    C0744393   6.392   2.989   7.532
    1STR    N0844394   6.493   3.012   7.627
    1STR    C0944395   6.523   3.131   7.682
    1STR    O0A44396   6.457   3.234   7.663
    1STR    O0B44397   6.641   3.131   7.750
    1STR    C0C44398   6.714   3.256   7.752
    1STR    C0D44399   6.827   3.266   7.854
    1STR    C0E44400   6.769   3.276   7.612
    1STR    O0F44401   6.833   3.159   7.566
    1STR    C0G44402   6.835   3.149   7.424
    1STR    C0H44403   6.952   3.061   7.391
    1STR    C0I44404   6.706   3.084   7.373
    1STR    O0J44405   6.691   3.098   7.232
    1STR    C0K44406   6.651   4.136   6.638
    1STR    C0M44407   6.767   4.206   6.568
    1STR    C0N44408   6.548   4.098   6.535
    1STR    O0O44409   6.475   3.984   6.569
    1STR    C0P44410   6.347   3.978   6.546
    1STR    O0Q44411   6.296   3.938   6.442
    1STR    N0R44412   6.274   4.011   6.651
    1STR    C0S44413   6.318   4.053   6.775
    1STR    C0T44414   6.263   3.994   6.889
    1STR    C0U44415   6.290   4.051   7.013
    1STR    C0V44416   6.386   4.153   7.027
    1STR    C0W44417   6.414   4.198   7.166
    1STR    C0X44418   6.439   4.219   6.915
    1STR    N0Y44419   6.528   4.327   6.929
    1STR   BCK244420   6.585   4.415   6.843
    1STR    O1044421   6.671   4.493   6.880
    1STR    C1344422   6.395   4.168   6.791
    1STR    C1444423   6.272   3.063   7.538
    1STR    C1544424   6.189   3.072   7.426
    1STR    C1644425   6.219   3.000   7.310
    1STR    C1744426   6.151   3.046   7.183
    1STR    H1B44427   6.243   2.805   7.146
    1STR    H1C44428   6.499   2.839   7.417
    1STR    H1D44429   6.564   2.942   7.643
    1STR    H1E44430   6.645   3.337   7.776
    1STR    H1F44431   6.911   3.205   7.824
    1STR    H1G44432   6.864   3.368   7.859
    1STR    H1H44433   6.792   3.241   7.954
    1STR    H1I44434   6.835   3.363   7.604
    1STR    H1J44435   6.681   3.295   7.553
    1STR    H1K44436   6.850   3.246   7.378
    1STR    H1M44437   6.947   2.966   7.443
    1STR    H1N44438   7.043   3.111   7.421
    1STR    H1O44439   6.956   3.040   7.285
    1STR    H1P44440   6.704   2.979   7.396
    1STR    H1Q44441   6.625   3.129   7.427
    1STR   C01044442   6.563   3.058   7.182
    1STR   H01144443   6.552   2.962   7.229
    1STR   C01244444   6.469   3.166   7.237
    1STR   H01344445   6.439   3.154   7.340
    1STR   H01444446   6.379   3.179   7.178
    1STR   H01544447   6.526   3.259   7.237
    1STR   C01644448   6.531   3.026   7.030
    1STR   H01744449   6.459   2.948   7.034
    1STR   H01844450   6.469   3.101   6.984
    1STR   O01944451   6.630   2.994   6.933
    1STR   C02044452   6.593   2.923   6.816
    1STR   H02144453   6.608   2.828   6.859
    1STR   C02244454   6.445   2.931   6.772
    1STR   H02344455   6.418   3.027   6.731
    1STR   H02444456   6.373   2.912   6.851
    1STR   H02544457   6.424   2.856   6.696
    1STR   C02644458   6.681   2.942   6.687
    1STR   H02744459   6.634   2.872   6.620
    1STR   H02844460   6.660   3.040   6.647
    1STR   O02944461   6.820   2.906   6.671
    1STR   C03044462   6.913   3.015   6.646
    1STR   H03144463   6.855   3.104   6.649
    1STR   C03244464   7.022   3.015   6.751
    1STR   H03344465   6.995   2.958   6.838
    1STR   H03444466   7.051   3.115   6.782
    1STR   H03544467   7.113   2.977   6.710
    1STR   C03644468   6.984   3.044   6.515
    1STR   H03744469   7.057   3.120   6.535
    1STR   H03844470   7.045   2.959   6.483
    1STR   O03944471   6.900   3.101   6.417
    1STR   C04044472   6.871   3.238   6.437
    1STR   H04144473   6.899   3.275   6.536
    1STR   C04244474   6.948   3.317   6.333
    1STR   H04344475   6.930   3.279   6.233
    1STR   H04444476   7.055   3.309   6.353
    1STR   H04544477   6.921   3.422   6.336
    1STR   C04644478   6.720   3.245   6.424
    1STR   H04744479   6.690   3.244   6.319
    1STR   H04844480   6.678   3.159   6.472
    1STR   O04944481   6.668   3.353   6.495
    1STR   C05044482   6.527   3.359   6.508
    1STR   H05144483   6.509   3.454   6.557
    1STR   C05244484   6.462   3.368   6.369
    1STR   H05344485   6.466   3.274   6.315
    1STR   H05444486   6.512   3.444   6.308
    1STR   H05544487   6.357   3.397   6.377
    1STR   C05644488   6.467   3.247   6.595
    1STR   H05744489   6.359   3.259   6.600
    1STR   H05844490   6.477   3.152   6.542
    1STR   O05944491   6.526   3.229   6.725
    1STR   C06044492   6.497   3.327   6.826
    1STR   H06144493   6.522   3.421   6.779
    1STR   C06244494   6.344   3.312   6.852
    1STR   H06344495   6.317   3.207   6.863
    1STR   H06444496   6.284   3.354   6.772
    1STR   H06544497   6.313   3.362   6.943
    1STR   C06644498   6.568   3.330   6.968
    1STR   H06744499   6.551   3.433   6.995
    1STR   H06844500   6.502   3.288   7.039
    1STR   O06944501   6.706   3.320   7.017
    1STR   C07044502   6.799   3.216   6.993
    1STR   H07144503   6.758   3.130   7.032
    1STR   C07244504   6.815   3.204   6.850
    1STR   H07344505   6.901   3.258   6.810
    1STR   H07444506   6.732   3.229   6.789
    1STR   H07544507   6.824   3.098   6.847
    1STR   C07644508   6.940   3.215   7.056
    1STR   H07744509   6.997   3.291   7.007
    1STR   H07844510   6.931   3.232   7.162
    1STR   O07944511   7.021   3.099   7.034
    1STR   C08044512   7.162   3.117   7.057
    1STR   H08144513   7.194   3.206   7.003
    1STR   C08244514   7.195   3.127   7.205
    1STR   H08344515   7.193   3.030   7.255
    1STR   H08444516   7.122   3.190   7.253
    1STR   H08544517   7.290   3.175   7.223
    1STR   C08644518   7.243   3.001   7.000
    1STR   H08744519   7.281   2.932   7.076
    1STR   H08844520   7.177   2.939   6.942
    1STR   O08944521   7.341   3.042   6.907
    1STR   C09044522   7.453   3.119   6.945
    1STR   H09144523   7.424   3.220   6.971
    1STR   C09244524   7.515   3.058   7.070
    1STR   H09344525   7.504   2.950   7.073
    1STR   H09444526   7.467   3.098   7.157
    1STR   H09544527   7.620   3.083   7.081
    1STR   C09644528   7.552   3.120   6.826
    1STR   H09744529   7.650   3.147   6.864
    1STR   H09844530   7.561   3.020   6.786
    1STR   O09944531   7.531   3.216   6.724
    1STR   C10044532   7.447   3.190   6.613
    1STR   H10144533   7.475   3.100   6.564
    1STR   C10244534   7.307   3.160   6.658
    1STR   H10344535   7.280   3.211   6.749
    1STR   H10444536   7.299   3.054   6.675
    1STR   H10544537   7.237   3.185   6.580
    1STR   C10644538   7.459   3.305   6.509
    1STR   H10744539   7.536   3.375   6.542
    1STR   H10844540   7.491   3.269   6.412
    1STR   O10944541   7.335   3.369   6.485
    1STR   C11044542   7.349   3.499   6.431
    1STR   H11144543   7.441   3.508   6.374
    1STR   C11244544   7.233   3.519   6.334
    1STR   H11344545   7.138   3.527   6.387
    1STR   H11444546   7.226   3.436   6.264
    1STR   H11544547   7.247   3.609   6.275
    1STR   C11644548   7.347   3.601   6.546
    1STR   H11744549   7.439   3.602   6.602
    1STR   H11844550   7.341   3.700   6.500
    1STR   O11944551   7.231   3.587   6.628
    1STR   C12044552   7.235   3.520   6.756
    1STR   H12144553   7.204   3.586   6.836
    1STR   C12244554   7.127   3.412   6.742
    1STR   H12344555   7.141   3.355   6.651
    1STR   H12444556   7.027   3.449   6.730
    1STR   H12544557   7.125   3.346   6.828
    1STR   C12644558   7.370   3.462   6.801
    1STR   H12744559   7.352   3.387   6.876
    1STR   H12844560   7.406   3.409   6.717
    1STR   O12944561   7.470   3.554   6.843
    1STR   C13044562   7.604   3.502   6.836
    1STR   H13144563   7.613   3.418   6.769
    1STR   C13244564   7.683   3.613   6.768
    1STR   H13344565   7.671   3.704   6.826
    1STR   H13444566   7.647   3.632   6.667
    1STR   H13544567   7.789   3.589   6.763
    1STR   C13644568   7.675   3.461   6.969
    1STR   H13744569   7.771   3.419   6.942
    1STR   H13844570   7.699   3.550   7.027
    1STR   O13944571   7.607   3.365   7.050
    1STR   C14044572   7.661   3.340   7.182
    1STR   H14144573   7.616   3.248   7.216
    1STR   C14244574   7.812   3.313   7.177
    1STR   H14344575   7.869   3.404   7.155
    1STR   H14444576   7.836   3.238   7.101
    1STR   H14544577   7.848   3.275   7.272
    1STR   C14644578   7.620   3.440   7.292
    1STR   H14744579   7.537   3.404   7.353
    1STR   H14844580   7.702   3.453   7.362
    1STR   O14944581   7.592   3.566   7.237
    1STR   C15044582   7.458   3.601   7.210
    1STR   H15144583   7.417   3.642   7.302
    1STR   C15244584   7.470   3.710   7.104
    1STR   H15344585   7.558   3.701   7.041
    1STR   H15444586   7.478   3.806   7.152
    1STR   H15544587   7.386   3.709   7.037
    1STR   C15644588   7.363   3.491   7.160
    1STR   H15744589   7.391   3.464   7.060
    1STR   H15844590   7.372   3.400   7.217
    1STR   O15944591   7.229   3.541   7.158
    1STR   C16044592   7.131   3.448   7.199
    1STR   H16144593   7.151   3.362   7.139
    1STR   C16244594   7.148   3.419   7.350
    1STR   H16344595   7.229   3.349   7.371
    1STR   H16444596   7.058   3.377   7.394
    1STR   H16544597   7.175   3.508   7.407
    1STR   C16644598   6.986   3.490   7.166
    1STR   H16744599   6.912   3.428   7.217
    1STR   H16844600   6.971   3.583   7.210
    1STR   O16944601   6.953   3.500   7.028
    1STR   C17044602   6.837   3.575   6.995
    1STR   H17144603   6.872   3.675   6.971
    1STR   C17244604   6.777   3.532   6.861
    1STR   H17344605   6.742   3.435   6.842
    1STR   H17444606   6.847   3.530   6.782
    1STR   H17544607   6.695   3.596   6.836
    1STR   C17644608   6.734   3.607   7.103
    1STR   H17744609   6.768   3.691   7.163
    1STR   H17844610   6.651   3.640   7.047
    1STR   O17944611   6.677   3.505   7.183
    1STR   C18044612   6.600   3.555   7.291
    1STR   H18144613   6.598   3.663   7.293
    1STR   C18244614   6.457   3.497   7.292
    1STR   H18344615   6.423   3.467   7.193
    1STR   H18444616   6.385   3.568   7.332
    1STR   H18544617   6.448   3.411   7.358
    1STR   C18644618   6.678   3.505   7.408
    1STR   H18744619   6.625   3.518   7.502
    1STR   H18844620   6.686   3.399   7.386
    1STR   O18944621   6.811   3.554   7.409
    1STR   C19044622   6.828   3.685   7.459
    1STR   H19144623   6.748   3.753   7.428
    1STR   C19244624   6.831   3.671   7.612
    1STR   H19344625   6.906   3.598   7.642
    1STR   H19444626   6.735   3.641   7.652
    1STR   H19544627   6.857   3.765   7.660
    1STR   C19644628   6.960   3.736   7.401
    1STR   H19744629   7.003   3.812   7.466
    1STR   H19844630   7.027   3.652   7.408
    1STR   O19944631   6.950   3.785   7.264
    1STR   C20044632   7.070   3.824   7.191
    1STR   H20144633   7.062   3.929   7.179
    1STR   C20244634   7.193   3.806   7.280
    1STR   H20344635   7.205   3.708   7.324
    1STR   H20444636   7.199   3.881   7.359
    1STR   H20544637   7.281   3.817   7.220
    1STR   C20644638   7.091   3.781   7.040
    1STR   H20744639   7.196   3.791   7.020
    1STR   H20844640   7.083   3.676   7.022
    1STR   O20944641   7.024   3.859   6.938
    1STR   C21044642   7.056   3.837   6.797
    1STR   H21144643   7.020   3.921   6.743
    1STR   C21244644   7.203   3.847   6.755
    1STR   H21344645   7.274   3.791   6.815
    1STR   H21444646   7.231   3.951   6.748
    1STR   H21544647   7.214   3.815   6.652
    1STR   C21644648   6.978   3.731   6.721
    1STR   H21744649   7.018   3.717   6.621
    1STR   H21844650   7.005   3.644   6.776
    1STR   O21944651   6.835   3.751   6.721
    1STR   C22044652   6.755   3.728   6.604
    1STR   H22144653   6.767   3.818   6.544
    1STR   C22244654   6.796   3.607   6.519
    1STR   H22344655   6.801   3.518   6.580
    1STR   H22444656   6.894   3.618   6.473
    1STR   H22544657   6.725   3.589   6.439
    1STR   C22644658   6.602   3.739   6.627
    1STR   H22744659   6.592   3.828   6.687
    1STR   H22844660   6.555   3.758   6.531
    1STR   O22944661   6.525   3.641   6.697
    1STR   C23044662   6.389   3.685   6.719
    1STR   H23144663   6.386   3.793   6.731
    1STR   C23244664   6.303   3.644   6.598
    1STR   H23344665   6.296   3.536   6.590
    1STR   H23444666   6.345   3.682   6.505
    1STR   H23544667   6.203   3.684   6.607
    1STR   C23644668   6.333   3.628   6.850
    1STR   H23744669   6.240   3.575   6.831
    1STR   H23844670   6.403   3.555   6.889
    1STR   O23944671   6.305   3.721   6.953
    1STR   C24044672   6.411   3.741   7.046
    1STR   H24144673   6.448   3.643   7.071
    1STR   C24244674   6.524   3.824   6.982
    1STR   H24344675   6.571   3.772   6.900
    1STR   H24444676   6.604   3.844   7.052
    1STR   H24544677   6.495   3.920   6.940
    1STR   C24644678   6.362   3.797   7.181
    1STR   H24744679   6.428   3.766   7.261
    1STR   H24844680   6.374   3.903   7.187
    1STR   O24944681   6.229   3.759   7.212
    1STR   C25044682   6.171   3.828   7.322
    1STR   H25144683   6.186   3.935   7.311
    1STR   C25244684   6.021   3.801   7.309
    1STR   H25344685   6.000   3.694   7.319
    1STR   H25444686   5.984   3.832   7.212
    1STR   H25544687   5.964   3.854   7.385
    1STR   C25644688   6.225   3.783   7.459
    1STR   H25744689   6.159   3.821   7.537
    1STR   H25844690   6.227   3.675   7.468
    1STR   O25944691   6.357   3.835   7.477
    1STR   C26044692   6.389   3.881   7.607
    1STR   H26144693   6.313   3.952   7.641
    1STR   C26244694   6.403   3.765   7.707
    1STR   H26344695   6.477   3.694   7.673
    1STR   H26444696   6.308   3.713   7.721
    1STR   H26544697   6.434   3.803   7.804
    1STR   C26644698   6.520   3.957   7.592
    1STR   H26744699   6.601   3.890   7.564
    1STR   H26844700   6.505   4.028   7.511
    1STR   O26944701   6.554   4.028   7.710
    1STR   C27044702   6.667   4.112   7.689
    1STR   H27144703   6.673   4.143   7.585
    1STR   C27244704   6.647   4.239   7.770
    1STR   H27344705   6.671   4.226   7.875
    1STR   H27444706   6.546   4.279   7.760
    1STR   H27544707   6.717   4.312   7.733
    1STR   C27644708   6.799   4.041   7.721
    1STR   H27744709   6.870   4.109   7.767
    1STR   H27844710   6.782   3.958   7.790
    1STR   O27944711   6.855   3.995   7.601
    1STR   C28044712   6.933   4.091   7.531
    1STR   H28144713   6.897   4.191   7.549
    1STR   C28244714   7.078   4.078   7.582
    1STR   H28344715   7.117   3.977   7.569
    1STR   H28444716   7.087   4.102   7.688
    1STR   H28544717   7.146   4.145   7.529
    1STR   C28644718   6.921   4.056   7.383
    1STR   H28744719   7.020   4.047   7.340
    1STR   H28844720   6.877   3.959   7.386
    1STR   O28944721   6.836   4.132   7.297
    1STR   C29044722   6.766   4.048   7.203
    1STR   H29144723   6.820   3.957   7.179
    1STR   C29244724   6.641   4.013   7.280
    1STR   H29344725   6.602   4.102   7.329
    1STR   H29444726   6.661   3.939   7.356
    1STR   H29544727   6.566   3.972   7.215
    1STR   C29644728   6.735   4.108   7.065
    1STR   H29744729   6.661   4.049   7.012
    1STR   H29844730   6.692   4.207   7.071
    1STR   O29944731   6.856   4.107   6.990
    1STR   C30044732   6.847   4.135   6.852
    1STR   H30144733   6.786   4.224   6.841
    1STR   C30244734   6.984   4.160   6.788
    1STR   H30344735   6.986   4.147   6.682
    1STR   H30444736   7.063   4.097   6.825
    1STR   H30544737   7.016   4.261   6.796
    1STR   C30644738   6.787   4.013   6.785
    1STR   H30744739   6.840   3.984   6.695
    1STR   H30844740   6.785   3.929   6.854
    1STR   O30944741   6.661   4.034   6.733
    1STR    H1R44742   6.618   4.208   6.706
    1STR    H1S44743   6.724   4.274   6.497
    1STR    H1T44744   6.830   4.138   6.513
    1STR    H1U44745   6.823   4.273   6.632
    1STR    H1V44746   6.609   4.077   6.450
    1STR    H1W44747   6.484   4.182   6.511
    1STR    H1X44748   6.176   4.007   6.633
    1STR    H1Y44749   6.196   3.910   6.882
    1STR    H1Z44750   6.236   4.013   7.097
    1STR    H2044751   6.407   4.119   7.240
    1STR    H2144752   6.501   4.261   7.180
    1STR    H2244753   6.325   4.255   7.180
    1STR    H2344754   6.549   4.356   7.024
    1STR    H2744755   6.416   4.219   6.702
    1STR    H2844756   6.249   3.125   7.624
    1STR    H2944757   6.107   3.142   7.427
    1STR    H2A44758   6.208   3.016   7.095
    1STR    H2B44759   6.149   3.155   7.181
    1STR    H2C44760   6.048   3.013   7.176
    1STR   BCK144761   6.826   4.960   0.107
    1STR    O0344762   6.922   4.885   0.107
    1STR    N0444763   6.769   5.010   0.215
    1STR    C0544764   6.830   5.034   0.337
    1STR    C0644765   6.969   5.056   0.347
    1STR    C0744766   7.025   5.107   0.463
    1STR    N0844767   7.155   5.151   0.454
    1STR    C0944768   7.237   5.203   0.543
    1STR    O0A44769   7.210   5.232   0.659
    1STR    O0B44770   7.359   5.215   0.497
    1STR    C0C44771   7.395   5.272   0.373
    1STR    C0D44772   7.546   5.306   0.384
    1STR    C0E44773   7.361   5.221   0.231
    1STR    O0F44774   7.225   5.199   0.194
    1STR    C0G44775   7.202   5.190   0.052
    1STR    C0H44776   7.140   5.056   0.024
    1STR    C0I44777   7.117   5.306   9.311
    1STR    O0J44778   7.010   5.267   9.220
    1STR    C0K44779   7.163   6.572   0.410
    1STR    C0M44780   7.294   6.561   0.489
    1STR    C0N44781   7.162   6.699   0.337
    1STR    O0O44782   7.221   6.681   0.215
    1STR    C0P44783   7.159   6.713   0.109
    1STR    O0Q44784   7.039   6.731   0.092
    1STR    N0R44785   7.254   6.706   0.019
    1STR    C0S44786   7.253   6.676   9.207
    1STR    C0T44787   7.376   6.631   9.165
    1STR    C0U44788   7.387   6.561   9.049
    1STR    C0V44789   7.274   6.536   8.973
    1STR    C0W44790   7.309   6.473   8.845
    1STR    C0X44791   7.145   6.580   9.010
    1STR    N0Y44792   7.032   6.536   8.938
    1STR   BCK244793   6.908   6.525   8.989
    1STR    O1044794   6.868   6.583   9.087
    1STR    C1344795   7.138   6.656   9.130
    1STR    C1444796   6.943   5.127   0.575
    1STR    C1544797   6.808   5.089   0.571
    1STR    C1644798   6.751   5.044   0.452
    1STR    C1744799   6.604   5.017   0.441
    1STR    H1B44800   6.674   5.040   0.200
    1STR    H1C44801   7.031   5.045   0.260
    1STR    H1D44802   7.193   5.149   0.359
    1STR    H1E44803   7.329   5.354   0.384
    1STR    H1F44804   7.607   5.218   0.366
    1STR    H1G44805   7.585   5.376   0.310
    1STR    H1H44806   7.571   5.343   0.483
    1STR    H1I44807   7.429   5.141   0.209
    1STR    H1J44808   7.395   5.296   0.162
    1STR    H1K44809   7.297   5.189   9.318
    1STR    H1M44810   7.188   5.009   9.260
    1STR    H1N44811   7.035   5.066   9.320
    1STR    H1O44812   7.146   4.985   0.106
    1STR    H1P44813   7.088   5.378   0.067
    1STR    H1Q44814   7.189   5.363   9.253
    1STR   C01044815   6.904   5.360   9.195
    1STR   H01144816   6.917   5.443   9.260
    1STR   C01244817   6.890   5.398   9.049
    1STR   H01344818   6.872   5.307   8.991
    1STR   H01444819   6.978   5.449   9.014
    1STR   H01544820   6.804   5.462   9.030
    1STR   C01644821   6.771   5.314   9.242
    1STR   H01744822   6.722   5.249   9.169
    1STR   H01844823   6.796   5.258   0.010
    1STR   O01944824   6.691   5.427   9.276
    1STR   C02044825   6.567   5.390   0.010
    1STR   H02144826   6.523   5.339   9.248
    1STR   C02244827   6.589   5.306   0.134
    1STR   H02344828   6.653   5.361   0.200
    1STR   H02444829   6.626   5.206   0.115
    1STR   H02544830   6.499   5.294   0.189
    1STR   C02644831   6.477   5.507   0.048
    1STR   H02744832   6.524   5.563   0.128
    1STR   H02844833   6.462   5.570   9.281
    1STR   O02944834   6.350   5.463   0.095
    1STR   C03044835   6.298   5.531   0.208
    1STR   H03144836   6.328   5.634   0.191
    1STR   C03244837   6.146   5.529   0.199
    1STR   H03344838   6.106   5.428   0.209
    1STR   H03444839   6.113   5.570   0.104
    1STR   H03544840   6.101   5.591   0.277
    1STR   C03644841   6.342   5.478   0.349
    1STR   H03744842   6.323   5.554   0.424
    1STR   H03844843   6.280   5.392   0.375
    1STR   O03944844   6.477   5.436   0.358
    1STR   C04044845   6.537   5.421   0.487
    1STR   H04144846   6.542   5.520   0.531
    1STR   C04244847   6.456   5.337   0.586
    1STR   H04344848   6.442   5.235   0.553
    1STR   H04444849   6.357   5.380   0.604
    1STR   H04544850   6.507   5.334   0.682
    1STR   C04644851   6.681   5.365   0.468
    1STR   H04744852   6.728   5.345   0.565
    1STR   H04844853   6.673   5.273   0.413
    1STR   O04944854   6.769   5.448   0.394
    1STR   C05044855   6.899   5.398   0.366
    1STR   H05144856   6.933   5.339   0.449
    1STR   C05244857   6.900   5.324   0.235
    1STR   H05344858   6.889   5.393   0.152
    1STR   H05444859   6.822   5.251   0.229
    1STR   H05544860   6.993   5.272   0.222
    1STR   C05644861   6.999   5.509   0.351
    1STR   H05744862   6.971   5.579   0.274
    1STR   H05844863   7.001   5.561   0.445
    1STR   O05944864   7.127   5.458   0.313
    1STR   C06044865   7.222   5.562   0.317
    1STR   H06144866   7.176   5.655   0.284
    1STR   C06244867   7.267   5.576   0.462
    1STR   H06344868   7.192   5.548   0.536
    1STR   H06444869   7.291   5.679   0.471
    1STR   H06544870   7.357   5.521   0.488
    1STR   C06644871   7.344   5.541   0.228
    1STR   H06744872   7.406   5.624   0.249
    1STR   H06844873   7.419   5.476   0.261
    1STR   O06944874   7.320   5.511   0.092
    1STR   C07044875   7.433   5.530   0.008
    1STR   H07144876   7.499   5.608   0.043
    1STR   C07244877   7.523   5.412   9.310
    1STR   H07344878   7.469   5.324   9.276
    1STR   H07444879   7.578   5.391   0.082
    1STR   H07544880   7.596   5.440   9.235
    1STR   C07644881   7.375   5.569   9.196
    1STR   H07744882   7.454   5.598   9.127
    1STR   H07844883   7.314   5.491   9.155
    1STR   O07944884   7.299   5.679   9.226
    1STR   C08044885   7.185   5.706   9.152
    1STR   H08144886   7.185   5.811   9.165
    1STR   C08244887   7.214   5.708   9.005
    1STR   H08344888   7.321   5.710   8.984
    1STR   H08444889   7.176   5.798   8.957
    1STR   H08544890   7.165   5.622   8.963
    1STR   C08644891   7.054   5.631   9.199
    1STR   H08744892   6.982   5.648   9.120
    1STR   H08844893   7.087   5.531   9.185
    1STR   O08944894   6.988   5.636   0.014
    1STR   C09044895   6.854   5.694   0.040
    1STR   H09144896   6.869   5.796   0.065
    1STR   C09244897   6.759   5.694   9.240
    1STR   H09344898   6.785   5.622   9.164
    1STR   H09444899   6.753   5.795   9.201
    1STR   H09544900   6.656   5.670   9.262
    1STR   C09644901   6.768   5.659   0.164
    1STR   H09744902   6.669   5.697   0.142
    1STR   H09844903   6.757   5.553   0.178
    1STR   O09944904   6.786   5.731   0.287
    1STR   C10044905   6.679   5.712   0.383
    1STR   H10144906   6.629   5.621   0.357
    1STR   C10244907   6.728   5.704   0.529
    1STR   H10344908   6.761   5.802   0.561
    1STR   H10444909   6.809   5.633   0.543
    1STR   H10544910   6.650   5.678   0.600
    1STR   C10644911   6.569   5.818   0.379
    1STR   H10744912   6.557   5.856   0.479
    1STR   H10844913   6.601   5.903   0.320
    1STR   O10944914   6.448   5.758   0.337
    1STR   C11044915   6.325   5.827   0.361
    1STR   H11144916   6.243   5.760   0.337
    1STR   C11244917   6.307   5.858   0.509
    1STR   H11344918   6.371   5.940   0.537
    1STR   H11444919   6.333   5.771   0.571
    1STR   H11544920   6.205   5.887   0.532
    1STR   C11644921   6.309   5.947   0.268
    1STR   H11744922   6.222   6.003   0.303
    1STR   H11844923   6.396   6.011   0.277
    1STR   O11944924   6.281   5.910   0.132
    1STR   C12044925   6.373   5.959   0.034
    1STR   H12144926   6.406   6.059   0.059
    1STR   C12244927   6.496   5.871   0.032
    1STR   H12344928   6.543   5.868   0.128
    1STR   H12444929   6.569   5.906   9.280
    1STR   H12544930   6.469   5.770   0.007
    1STR   C12644931   6.313   5.967   9.212
    1STR   H12744932   6.284   6.070   9.192
    1STR   H12844933   6.388   5.945   9.136
    1STR   O12944934   6.198   5.888   9.192
    1STR   C13044935   6.216   5.747   9.190
    1STR   H13144936   6.265   5.713   9.280
    1STR   C13244937   6.073   5.696   9.193
    1STR   H13344938   6.017   5.729   9.106
    1STR   H13444939   6.021   5.733   9.282
    1STR   H13544940   6.073   5.587   9.196
    1STR   C13644941   6.289   5.696   9.064
    1STR   H13744942   6.261   5.592   9.046
    1STR   H13844943   6.256   5.753   8.978
    1STR   O13944944   6.430   5.702   9.081
    1STR   C14044945   6.511   5.659   8.971
    1STR   H14144946   6.613   5.677   9.004
    1STR   C14244947   6.501   5.508   8.947
    1STR   H14344948   6.402   5.477   8.913
    1STR   H14444949   6.526   5.454   9.037
    1STR   H14544950   6.573   5.478   8.870
    1STR   C14644951   6.489   5.744   8.845
    1STR   H14744952   6.578   5.744   8.781
    1STR   H14844953   6.408   5.702   8.785
    1STR   O14944954   6.448   5.874   8.882
    1STR   C15044955   6.544   5.977   8.870
    1STR   H15144956   6.587   5.975   8.770
    1STR   C15244957   6.462   6.104   8.883
    1STR   H15344958   6.436   6.127   8.986
    1STR   H15444959   6.370   6.099   8.826
    1STR   H15544960   6.520   6.185   8.841
    1STR   C15644961   6.656   5.966   8.975
    1STR   H15744962   6.676   6.062   9.023
    1STR   H15844963   6.627   5.897   9.054
    1STR   O15944964   6.772   5.926   8.905
    1STR   C16044965   6.869   5.846   8.971
    1STR   H16144966   6.818   5.760   9.010
    1STR   C16244967   6.946   5.793   8.850
    1STR   H16344968   7.022   5.861   8.813
    1STR   H16444969   6.879   5.773   8.766
    1STR   H16544970   6.991   5.696   8.871
    1STR   C16644971   6.949   5.928   9.080
    1STR   H16744972   7.042   5.962   9.035
    1STR   H16844973   6.884   6.011   9.103
    1STR   O16944974   6.980   5.879   9.213
    1STR   C17044975   7.069   5.944   9.310
    1STR   H17144976   7.139   5.996   9.246
    1STR   C17244977   6.980   6.035   0.067
    1STR   H17344978   6.909   6.084   0.001
    1STR   H17444979   7.034   6.105   0.130
    1STR   H17544980   6.921   5.977   0.136
    1STR   C17644981   7.147   5.855   0.101
    1STR   H17744982   7.075   5.835   0.180
    1STR   H17844983   7.166   5.754   0.072
    1STR   O17944984   7.270   5.899   0.170
    1STR   C18044985   7.400   5.842   0.136
    1STR   H18144986   7.366   5.747   0.109
    1STR   C18244987   7.465   5.885   0.006
    1STR   H18344988   7.516   5.980   0.009
    1STR   H18444989   7.384   5.889   9.256
    1STR   H18544990   7.537   5.812   9.289
    1STR   C18644991   7.519   5.831   0.240
    1STR   H18744992   7.585   5.751   0.206
    1STR   H18844993   7.582   5.919   0.239
    1STR   O18944994   7.482   5.806   0.375
    1STR   C19044995   7.578   5.745   0.462
    1STR   H19144996   7.589   5.643   0.425
    1STR   C19244997   7.716   5.812   0.456
    1STR   H19344998   7.712   5.917   0.483
    1STR   H19444999   7.761   5.805   0.356
    1STR   H19545000   7.785   5.763   0.525
    1STR   C19645001   7.526   5.732   0.609
    1STR   H19745002   7.438   5.669   0.619
    1STR   H19845003   7.601   5.675   0.664
    1STR   O19945004   7.503   5.848   0.690
    1STR   C20045005   7.407   5.948   0.655
    1STR   H20145006   7.373   5.991   0.750
    1STR   C20245007   7.495   6.050   0.586
    1STR   H20345008   7.590   6.063   0.638
    1STR   H20445009   7.447   6.145   0.585
    1STR   H20545010   7.517   6.022   0.483
    1STR   C20645011   7.279   5.900   0.579
    1STR   H20745012   7.305   5.881   0.476
    1STR   H20845013   7.250   5.809   0.630
    1STR   O20945014   7.161   5.981   0.566
    1STR   C21045015   7.068   5.937   0.463
    1STR   H21145016   7.122   5.919   0.371
    1STR   C21245017   7.011   5.810   0.517
    1STR   H21345018   6.959   5.830   0.611
    1STR   H21445019   7.083   5.733   0.537
    1STR   H21545020   6.947   5.773   0.440
    1STR   C21645021   6.950   6.034   0.427
    1STR   H21745022   6.901   6.066   0.516
    1STR   H21845023   6.999   6.119   0.381
    1STR   O21945024   6.839   5.999   0.343
    1STR   C22045025   6.755   6.113   0.309
    1STR   H22145026   6.821   6.199   0.303
    1STR   C22245027   6.696   6.101   0.167
    1STR   H22345028   6.746   6.169   0.099
    1STR   H22445029   6.591   6.130   0.160
    1STR   H22545030   6.708   6.001   0.128
    1STR   C22645031   6.645   6.151   0.410
    1STR   H22745032   6.661   6.254   0.440
    1STR   H22845033   6.545   6.149   0.366
    1STR   O22945034   6.642   6.064   0.521
    1STR   C23045035   6.616   6.124   0.646
    1STR   H23145036   6.664   6.222   0.649
    1STR   C23245037   6.467   6.139   0.675
    1STR   H23345038   6.424   6.046   0.711
    1STR   H23445039   6.411   6.172   0.587
    1STR   H23545040   6.451   6.212   0.754
    1STR   C23645041   6.684   6.028   0.744
    1STR   H23745042   6.654   6.049   0.846
    1STR   H23845043   6.652   5.927   0.723
    1STR   O23945044   6.824   6.034   0.725
    1STR   C24045045   6.887   6.144   0.787
    1STR   H24145046   6.826   6.234   0.782
    1STR   C24245047   6.904   6.099   0.933
    1STR   H24345048   6.946   5.998   0.936
    1STR   H24445049   6.810   6.097   0.987
    1STR   H24545050   6.971   6.163   0.987
    1STR   C24645051   7.024   6.183   0.729
    1STR   H24745052   7.040   6.277   0.777
    1STR   H24845053   7.099   6.109   0.759
    1STR   O24945054   7.042   6.219   0.591
    1STR   C25045055   7.169   6.270   0.549
    1STR   H25145056   7.139   6.369   0.528
    1STR   C25245057   7.267   6.298   0.666
    1STR   H25345058   7.289   6.209   0.725
    1STR   H25445059   7.228   6.376   0.730
    1STR   H25545060   7.361   6.338   0.632
    1STR   C25645061   7.246   6.217   0.420
    1STR   H25745062   7.327   6.288   0.411
    1STR   H25845063   7.290   6.123   0.448
    1STR   O25945064   7.207   6.197   0.280
    1STR   C26045065   7.317   6.208   0.182
    1STR   H26145066   7.341   6.314   0.181
    1STR   C26245067   7.431   6.129   0.241
    1STR   H26345068   7.395   6.038   0.286
    1STR   H26445069   7.477   6.174   0.326
    1STR   H26545070   7.508   6.108   0.168
    1STR   C26645071   7.301   6.162   0.030
    1STR   H26745072   7.296   6.057   0.028
    1STR   H26845073   7.208   6.189   9.306
    1STR   O26945074   7.406   6.187   9.254
    1STR   C27045075   7.402   6.150   9.113
    1STR   H27145076   7.490   6.201   9.077
    1STR   C27245077   7.431   6.012   9.054
    1STR   H27345078   7.346   5.945   9.065
    1STR   H27445079   7.522   5.967   9.093
    1STR   H27545080   7.446   6.019   8.946
    1STR   C27645081   7.297   6.217   9.030
    1STR   H27745082   7.262   6.306   9.082
    1STR   H27845083   7.347   6.248   8.941
    1STR   O27945084   7.198   6.132   8.977
    1STR   C28045085   7.084   6.208   8.941
    1STR   H28145086   7.113   6.306   8.908
    1STR   C28245087   7.012   6.149   8.820
    1STR   H28345088   6.951   6.065   8.846
    1STR   H28445089   7.082   6.119   8.742
    1STR   H28545090   6.944   6.222   8.776
    1STR   C28645091   7.006   6.223   9.071
    1STR   H28745092   6.899   6.214   9.060
    1STR   H28845093   7.041   6.147   9.138
    1STR   O28945094   7.041   6.344   9.131
    1STR   C29045095   7.018   6.350   9.268
    1STR   H29145096   7.018   6.253   9.309
    1STR   C29245097   7.137   6.414   0.008
    1STR   H29345098   7.106   6.513   0.013
    1STR   H29445099   7.229   6.408   9.272
    1STR   H29545100   7.151   6.382   0.109
    1STR   C29645101   6.890   6.415   9.314
    1STR   H29745102   6.891   6.524   9.311
    1STR   H29845103   6.804   6.380   9.261
    1STR   O29945104   6.883   6.362   0.123
    1STR   C30045105   6.893   6.456   0.225
    1STR   H30145106   6.918   6.556   0.194
    1STR   C30245107   6.748   6.449   0.271
    1STR   H30345108   6.736   6.447   0.378
    1STR   H30445109   6.689   6.368   0.227
    1STR   H30545110   6.705   6.541   0.234
    1STR   C30645111   7.000   6.409   0.323
    1STR   H30745112   6.960   6.405   0.422
    1STR   H30845113   7.013   6.305   0.298
    1STR   O30945114   7.132   6.467   0.318
    1STR    H1R45115   7.086   6.575   0.484
    1STR    H1S45116   7.354   6.652   0.485
    1STR    H1T45117   7.357   6.482   0.452
    1STR    H1U45118   7.275   6.548   0.595
    1STR    H1V45119   7.219   6.776   0.385
    1STR    H1W45120   7.062   6.732   0.331
    1STR    H1X45121   7.343   6.703   0.068
    1STR    H1Y45122   7.464   6.647   9.220
    1STR    H1Z45123   7.485   6.529   9.021
    1STR    H2045124   7.228   6.426   8.793
    1STR    H2145125   7.343   6.564   8.801
    1STR    H2245126   7.397   6.411   8.844
    1STR    H2345127   7.051   6.479   8.858
    1STR    H2745128   7.046   6.692   9.173
    1STR    H2845129   6.980   5.177   0.663
    1STR    H2945130   6.750   5.103   0.660
    1STR    H2A45131   6.568   5.072   0.355
    1STR    H2B45132   6.549   5.051   0.528
    1STR    H2C45133   6.588   4.911   0.425
    1STR   BCK145134   7.035   4.915   2.041
    1STR    O0345135   6.964   4.869   2.128
    1STR    N0445136   7.170   4.923   2.061
    1STR    C0545137   7.279   4.980   1.993
    1STR    C0645138   7.260   5.064   1.884
    1STR    C0745139   7.364   5.120   1.808
    1STR    N0845140   7.347   5.189   1.689
    1STR    C0945141   7.238   5.240   1.633
    1STR    O0A45142   7.244   5.311   1.532
    1STR    O0B45143   7.126   5.209   1.695
    1STR    C0C45144   7.051   5.306   1.762
    1STR    C0D45145   6.911   5.295   1.699
    1STR    C0E45146   7.045   5.294   1.917
    1STR    O0F45147   7.161   5.287   2.003
    1STR    C0G45148   7.143   5.282   2.147
    1STR    C0H45149   7.022   5.210   2.197
    1STR    C0I45150   7.274   5.248   2.223
    1STR    O0J45151   7.258   5.255   2.365
    1STR    C0K45152   7.711   6.440   2.549
    1STR    C0M45153   7.769   6.405   2.687
    1STR    C0N45154   7.681   6.591   2.531
    1STR    O0O45155   7.584   6.632   2.434
    1STR    C0P45156   7.563   6.764   2.417
    1STR    O0Q45157   7.615   6.849   2.487
    1STR    N0R45158   7.504   6.804   2.304
    1STR    C0S45159   7.426   6.737   2.211
    1STR    C0T45160   7.466   6.739   2.077
    1STR    C0U45161   7.399   6.658   1.986
    1STR    C0V45162   7.283   6.587   2.024
    1STR    C0W45163   7.239   6.479   1.933
    1STR    C0X45164   7.225   6.605   2.150
    1STR    N0Y45165   7.107   6.549   2.202
    1STR   BCK245166   6.986   6.500   2.171
    1STR    O1045167   6.914   6.470   2.265
    1STR    C1345168   7.302   6.679   2.242
    1STR    C1445169   7.494   5.101   1.853
    1STR    C1545170   7.519   5.009   1.955
    1STR    C1645171   7.413   4.944   2.019
    1STR    C1745172   7.447   4.817   2.089
    1STR    H1B45173   7.203   4.879   2.147
    1STR    H1C45174   7.159   5.079   1.859
    1STR    H1D45175   7.429   5.215   1.637
    1STR    H1E45176   7.093   5.401   1.736
    1STR    H1F45177   6.881   5.191   1.696
    1STR    H1G45178   6.835   5.351   1.753
    1STR    H1H45179   6.913   5.331   1.597
    1STR    H1I45180   7.001   5.203   1.939
    1STR    H1J45181   6.972   5.365   1.949
    1STR    H1K45182   7.116   5.376   2.186
    1STR    H1M45183   7.022   5.107   2.171
    1STR    H1N45184   6.933   5.257   2.159
    1STR    H1O45185   7.015   5.214   2.305
    1STR    H1P45186   7.303   5.146   2.199
    1STR    H1Q45187   7.359   5.309   2.192
    1STR   C01045188   7.248   5.376   2.439
    1STR   H01145189   7.241   5.454   2.368
    1STR   C01245190   7.118   5.369   2.512
    1STR   H01345191   7.124   5.283   2.576
    1STR   H01445192   7.029   5.370   2.449
    1STR   H01545193   7.112   5.451   2.581
    1STR   C01645194   7.353   5.411   2.550
    1STR   H01745195   7.438   5.467   2.514
    1STR   H01845196   7.312   5.478   2.625
    1STR   O01945197   7.397   5.304   2.629
    1STR   C02045198   7.470   5.206   2.559
    1STR   H02145199   7.539   5.172   2.634
    1STR   C02245200   7.374   5.089   2.528
    1STR   H02345201   7.378   5.060   2.423
    1STR   H02445202   7.273   5.117   2.555
    1STR   H02545203   7.397   4.999   2.583
    1STR   C02645204   7.558   5.257   2.442
    1STR   H02745205   7.596   5.180   2.377
    1STR   H02845206   7.501   5.316   2.373
    1STR   O02945207   7.669   5.326   2.500
    1STR   C03045208   7.710   5.441   2.430
    1STR   H03145209   7.630   5.512   2.432
    1STR   C03245210   7.822   5.508   2.509
    1STR   H03345211   7.913   5.448   2.509
    1STR   H03445212   7.792   5.523   2.613
    1STR   H03545213   7.847   5.605   2.467
    1STR   C03645214   7.749   5.411   2.284
    1STR   H03745215   7.812   5.492   2.250
    1STR   H03845216   7.808   5.320   2.284
    1STR   O03945217   7.638   5.397   2.195
    1STR   C04045218   7.677   5.382   2.058
    1STR   H04145219   7.753   5.456   2.034
    1STR   C04245220   7.725   5.239   2.043
    1STR   H04345221   7.660   5.171   2.098
    1STR   H04445222   7.825   5.227   2.080
    1STR   H04545223   7.727   5.212   1.939
    1STR   C04645224   7.561   5.409   1.961
    1STR   H04745225   7.490   5.326   1.966
    1STR   H04845226   7.509   5.494   2.000
    1STR   O04945227   7.599   5.443   1.826
    1STR   C05045228   7.494   5.471   1.730
    1STR   H05145229   7.498   5.390   1.658
    1STR   C05245230   7.355   5.478   1.789
    1STR   H05345231   7.325   5.390   1.845
    1STR   H05445232   7.282   5.487   1.711
    1STR   H05545233   7.345   5.567   1.849
    1STR   C05645234   7.511   5.602   1.651
    1STR   H05745235   7.510   5.686   1.720
    1STR   H05845236   7.607   5.601   1.601
    1STR   O05945237   7.408   5.615   1.550
    1STR   C06045238   7.297   5.702   1.576
    1STR   H06145239   7.283   5.716   1.684
    1STR   C06245240   7.330   5.837   1.512
    1STR   H06345241   7.327   5.829   1.403
    1STR   H06445242   7.431   5.869   1.537
    1STR   H06545243   7.259   5.914   1.542
    1STR   C06645244   7.166   5.644   1.516
    1STR   H06745245   7.111   5.718   1.456
    1STR   H06845246   7.192   5.564   1.446
    1STR   O06945247   7.077   5.588   1.611
    1STR   C07045248   6.994   5.676   1.686
    1STR   H07145249   7.042   5.773   1.692
    1STR   C07245250   6.859   5.688   1.615
    1STR   H07345251   6.812   5.590   1.605
    1STR   H07445252   6.870   5.730   1.515
    1STR   H07545253   6.790   5.751   1.672
    1STR   C07645254   6.975   5.621   1.828
    1STR   H07745255   6.929   5.698   1.889
    1STR   H07845256   6.902   5.540   1.830
    1STR   O07945257   7.099   5.572   1.881
    1STR   C08045258   7.121   5.578   2.021
    1STR   H08145259   7.141   5.678   2.016
    1STR   C08245260   6.993   5.567   2.112
    1STR   H08345261   7.015   5.566   2.219
    1STR   H08445262   6.936   5.477   2.102
    1STR   H08545263   6.923   5.648   2.096
    1STR   C08645264   7.262   5.543   2.082
    1STR   H08745265   7.250   5.522   2.185
    1STR   H08845266   7.305   5.454   2.041
    1STR   O08945267   7.360   5.645   2.073
    1STR   C09045268   7.447   5.686   2.181
    1STR   H09145269   7.416   5.784   2.213
    1STR   C09245270   7.436   5.615   2.312
    1STR   H09345271   7.454   5.510   2.299
    1STR   H09445272   7.339   5.633   2.353
    1STR   H09545273   7.505   5.660   2.383
    1STR   C09645274   7.593   5.705   2.142
    1STR   H09745275   7.626   5.800   2.186
    1STR   H09845276   7.656   5.632   2.190
    1STR   O09945277   7.616   5.699   2.003
    1STR   C10045278   7.741   5.755   1.970
    1STR   H10145279   7.815   5.724   2.045
    1STR   C10245280   7.793   5.701   1.837
    1STR   H10345281   7.730   5.729   1.754
    1STR   H10445282   7.798   5.592   1.838
    1STR   H10545283   7.893   5.737   1.816
    1STR   C10645284   7.725   5.907   1.973
    1STR   H10745285   7.784   5.939   2.059
    1STR   H10845286   7.769   5.955   1.886
    1STR   O10945287   7.593   5.953   2.004
    1STR   C11045288   7.494   5.968   1.902
    1STR   H11145289   7.463   6.069   1.920
    1STR   C11245290   7.546   5.981   1.758
    1STR   H11345291   7.585   5.887   1.720
    1STR   H11445292   7.624   6.056   1.751
    1STR   H11545293   7.465   6.014   1.694
    1STR   C11645294   7.367   5.880   1.922
    1STR   H11745295   7.296   5.910   1.845
    1STR   H11845296   7.393   5.778   1.898
    1STR   O11945297   7.314   5.895   2.057
    1STR   C12045298   7.175   5.886   2.099
    1STR   H12145299   7.164   5.976   2.149
    1STR   C12245300   7.077   5.897   1.977
    1STR   H12345301   7.105   5.831   1.895
    1STR   H12445302   7.078   5.993   1.927
    1STR   H12545303   6.975   5.876   2.006
    1STR   C12645304   7.126   5.802   2.228
    1STR   H12745305   7.017   5.796   2.226
    1STR   H12845306   7.170   5.708   2.220
    1STR   O12945307   7.159   5.818   2.367
    1STR   C13045308   7.128   5.709   2.459
    1STR   H13145309   7.138   5.615   2.409
    1STR   C13245310   7.220   5.718   2.581
    1STR   H13345311   7.189   5.650   2.660
    1STR   H13445312   7.216   5.817   2.624
    1STR   H13545313   7.324   5.692   2.562
    1STR   C13645314   6.986   5.704   2.511
    1STR   H13745315   6.976   5.797   2.563
    1STR   H13845316   6.920   5.703   2.424
    1STR   O13945317   6.950   5.594   2.596
    1STR   C14045318   6.938   5.618   2.737
    1STR   H14145319   6.990   5.709   2.759
    1STR   C14245320   6.789   5.630   2.773
    1STR   H14345321   6.725   5.645   2.688
    1STR   H14445322   6.771   5.708   2.846
    1STR   H14545323   6.754   5.544   2.823
    1STR   C14645324   7.002   5.513   2.829
    1STR   H14745325   6.937   5.487   2.913
    1STR   H14845326   7.009   5.422   2.771
    1STR   O14945327   7.127   5.555   2.885
    1STR   C15045328   7.155   5.534   3.025
    1STR   H15145329   7.136   5.433   3.058
    1STR   C15245330   7.306   5.560   3.036
    1STR   H15345331   7.331   5.661   3.006
    1STR   H15445332   7.362   5.493   2.970
    1STR   H15545333   7.343   5.545   3.137
    1STR   C15645334   7.077   5.619   3.127
    1STR   H15745335   7.105   5.591   3.229
    1STR   H15845336   7.109   5.722   3.117
    1STR   O15945337   6.937   5.602   3.113
    1STR   C16045338   6.853   5.710   3.154
    1STR   H16145339   6.754   5.686   3.115
    1STR   C16245340   6.847   5.719   3.306
    1STR   H16345341   6.944   5.744   3.349
    1STR   H16445342   6.815   5.624   3.349
    1STR   H16545343   6.776   5.795   3.338
    1STR   C16645344   6.895   5.843   3.089
    1STR   H16745345   6.811   5.911   3.077
    1STR   H16845346   6.969   5.893   3.151
    1STR   O16945347   6.948   5.815   2.962
    1STR   C17045348   7.026   5.918   2.905
    1STR   H17145349   7.029   6.001   2.973
    1STR   C17245350   7.170   5.867   2.902
    1STR   H17345351   7.180   5.772   2.852
    1STR   H17445352   7.213   5.861   3.001
    1STR   H17545353   7.233   5.934   2.848
    1STR   C17645354   6.968   5.963   2.769
    1STR   H17745355   6.944   6.068   2.769
    1STR   H17845356   7.040   5.951   2.689
    1STR   O17945357   6.852   5.892   2.739
    1STR   C18045358   6.751   5.954   2.665
    1STR   H18145359   6.768   6.061   2.662
    1STR   C18245360   6.756   5.893   2.526
    1STR   H18345361   6.762   5.788   2.542
    1STR   H18445362   6.843   5.925   2.470
    1STR   H18545363   6.671   5.905   2.462
    1STR   C18645364   6.622   5.918   2.739
    1STR   H18745365   6.536   5.975   2.706
    1STR   H18845366   6.595   5.815   2.717
    1STR   O18945367   6.645   5.923   2.879
    1STR   C19045368   6.613   6.045   2.940
    1STR   H19145369   6.528   6.087   2.886
    1STR   C19245370   6.543   6.008   3.071
    1STR   H19345371   6.502   6.096   3.120
    1STR   H19445372   6.608   5.954   3.139
    1STR   H19545373   6.460   5.942   3.050
    1STR   C19645374   6.722   6.158   2.936
    1STR   H19745375   6.732   6.181   2.831
    1STR   H19845376   6.675   6.244   2.983
    1STR   O19945377   6.859   6.147   2.982
    1STR   C20045378   6.943   6.258   2.938
    1STR   H20145379   6.916   6.279   2.835
    1STR   C20245380   6.910   6.378   3.026
    1STR   H20345381   6.972   6.370   3.112
    1STR   H20445382   6.806   6.381   3.054
    1STR   H20545383   6.936   6.476   2.988
    1STR   C20645384   7.099   6.241   2.934
    1STR   H20745385   7.147   6.338   2.924
    1STR   H20845386   7.136   6.197   3.026
    1STR   O20945387   7.142   6.160   2.825
    1STR   C21045388   7.272   6.173   2.770
    1STR   H21145389   7.275   6.273   2.736
    1STR   C21245390   7.387   6.161   2.869
    1STR   H21345391   7.380   6.071   2.929
    1STR   H21445392   7.389   6.248   2.935
    1STR   H21545393   7.483   6.160   2.817
    1STR   C21645394   7.288   6.080   2.647
    1STR   H21745395   7.331   5.985   2.677
    1STR   H21845396   7.193   6.061   2.598
    1STR   O21945397   7.374   6.137   2.552
    1STR   C22045398   7.405   6.063   2.435
    1STR   H22145399   7.485   6.117   2.392
    1STR   C22245400   7.473   5.930   2.465
    1STR   H22345401   7.399   5.852   2.462
    1STR   H22445402   7.524   5.929   2.561
    1STR   H22545403   7.546   5.907   2.388
    1STR   C22645404   7.299   6.059   2.322
    1STR   H22745405   7.343   5.988   2.255
    1STR   H22845406   7.206   6.026   2.363
    1STR   O22945407   7.270   6.180   2.250
    1STR   C23045408   7.188   6.206   2.133
    1STR   H23145409   7.181   6.312   2.146
    1STR   C23245410   7.255   6.189   1.997
    1STR   H23345411   7.261   6.088   1.970
    1STR   H23445412   7.353   6.231   1.991
    1STR   H23545413   7.196   6.226   1.914
    1STR   C23645414   7.038   6.173   2.118
    1STR   H23745415   7.008   6.218   2.024
    1STR   H23845416   7.001   6.074   2.105
    1STR   O23945417   6.958   6.219   2.218
    1STR   C24045418   6.941   6.132   2.325
    1STR   H24145419   6.966   6.027   2.310
    1STR   C24245420   7.021   6.194   2.437
    1STR   H24345421   6.997   6.154   2.536
    1STR   H24445422   6.993   6.297   2.431
    1STR   H24545423   7.128   6.202   2.428
    1STR   C24645424   6.795   6.155   2.354
    1STR   H24745425   6.792   6.140   2.460
    1STR   H24845426   6.773   6.259   2.336
    1STR   O24945427   6.701   6.072   2.286
    1STR   C25045428   6.567   6.114   2.308
    1STR   H25145429   6.566   6.219   2.280
    1STR   C25245430   6.482   6.037   2.207
    1STR   H25345431   6.490   5.930   2.223
    1STR   H25445432   6.515   6.058   2.105
    1STR   H25545433   6.377   6.064   2.214
    1STR   C25645434   6.512   6.098   2.454
    1STR   H25745435   6.411   6.132   2.473
    1STR   H25845436   6.496   5.993   2.475
    1STR   O25945437   6.600   6.153   2.551
    1STR   C26045438   6.593   6.288   2.588
    1STR   H26145439   6.524   6.329   2.519
    1STR   C26245440   6.509   6.286   2.718
    1STR   H26345441   6.567   6.295   2.807
    1STR   H26445442   6.447   6.197   2.723
    1STR   H26545443   6.438   6.366   2.730
    1STR   C26645444   6.723   6.382   2.572
    1STR   H26745445   6.731   6.412   2.468
    1STR   H26845446   6.705   6.477   2.618
    1STR   O26945447   6.858   6.347   2.607
    1STR   C27045448   6.948   6.464   2.603
    1STR   H27145449   6.910   6.539   2.534
    1STR   C27245450   6.941   6.513   2.744
    1STR   H27345451   7.022   6.472   2.805
    1STR   H27445452   6.849   6.482   2.787
    1STR   H27545453   6.953   6.619   2.752
    1STR   C27645454   7.102   6.450   2.588
    1STR   H27745455   7.147   6.530   2.646
    1STR   H27845456   7.128   6.354   2.630
    1STR   O27945457   7.171   6.466   2.465
    1STR   C28045458   7.317   6.481   2.475
    1STR   H28145459   7.341   6.586   2.472
    1STR   C28245460   7.388   6.442   2.603
    1STR   H28345461   7.331   6.455   2.691
    1STR   H28445462   7.469   6.511   2.620
    1STR   H28545463   7.432   6.344   2.605
    1STR   C28645464   7.374   6.403   2.357
    1STR   H28745465   7.390   6.304   2.392
    1STR   H28845466   7.294   6.402   2.286
    1STR   O28945467   7.491   6.438   2.287
    1STR   C29045468   7.510   6.374   2.159
    1STR   H29145469   7.414   6.382   2.111
    1STR   C29245470   7.606   6.453   2.071
    1STR   H29345471   7.620   6.553   2.107
    1STR   H29445472   7.576   6.452   1.967
    1STR   H29545473   7.704   6.410   2.076
    1STR   C29645474   7.559   6.227   2.152
    1STR   H29745475   7.490   6.154   2.191
    1STR   H29845476   7.564   6.202   2.046
    1STR   O29945477   7.691   6.196   2.192
    1STR   C30045478   7.723   6.227   2.325
    1STR   H30145479   7.642   6.222   2.394
    1STR   C30245480   7.828   6.124   2.368
    1STR   H30345481   7.920   6.135   2.311
    1STR   H30445482   7.791   6.023   2.355
    1STR   H30545483   7.853   6.136   2.474
    1STR   C30645484   7.772   6.370   2.330
    1STR   H30745485   7.845   6.382   2.252
    1STR   H30845486   7.705   6.450   2.305
    1STR   O30945487   7.812   6.392   2.463
    1STR    H1R45488   7.622   6.380   2.533
    1STR    H1S45489   7.690   6.375   2.755
    1STR    H1T45490   7.825   6.487   2.731
    1STR    H1U45491   7.836   6.319   2.681
    1STR    H1V45492   7.773   6.643   2.513
    1STR    H1W45493   7.648   6.632   2.625
    1STR    H1X45494   7.544   6.892   2.276
    1STR    H1Y45495   7.557   6.787   2.045
    1STR    H1Z45496   7.445   6.645   1.891
    1STR    H2045497   7.166   6.418   1.979
    1STR    H2145498   7.191   6.520   1.850
    1STR    H2245499   7.324   6.421   1.897
    1STR    H2345500   7.114   6.536   2.303
    1STR    H2745501   7.259   6.694   2.338
    1STR    H2845502   7.576   5.147   1.800
    1STR    H2945503   7.621   4.981   1.978
    1STR    H2A45504   7.480   4.830   2.191
    1STR    H2B45505   7.526   4.771   2.031
    1STR    H2C45506   7.361   4.751   2.086
    1STR   BCK145507   6.774   5.020   4.850
    1STR    O0345508   6.782   4.943   4.943
    1STR    N0445509   6.719   5.142   4.856
    1STR    C0545510   6.717   5.204   4.980
    1STR    C0645511   6.840   5.247   5.029
    1STR    C0745512   6.865   5.282   5.161
    1STR    N0845513   6.998   5.301   5.192
    1STR    C0945514   7.067   5.300   5.306
    1STR    O0A45515   7.017   5.274   5.415
    1STR    O0B45516   7.201   5.317   5.290
    1STR    C0C45517   7.269   5.372   5.175
    1STR    C0D45518   7.415   5.382   5.219
    1STR    C0E45519   7.263   5.295   5.040
    1STR    O0F45520   7.137   5.304   4.973
    1STR    C0G45521   7.137   5.263   4.836
    1STR    C0H45522   7.105   5.117   4.848
    1STR    C0I45523   7.036   5.333   4.741
    1STR    O0J45524   7.056   5.294   4.606
    1STR    C0K45525   6.324   6.163   4.464
    1STR    C0M45526   6.203   6.158   4.369
    1STR    C0N45527   6.284   6.102   4.599
    1STR    O0O45528   6.188   6.181   4.665
    1STR    C0P45529   6.156   6.150   4.790
    1STR    O0Q45530   6.086   6.054   4.819
    1STR    N0R45531   6.206   6.229   4.885
    1STR    C0S45532   6.297   6.335   4.881
    1STR    C0T45533   6.347   6.387   5.003
    1STR    C0U45534   6.446   6.487   5.003
    1STR    C0V45535   6.497   6.536   4.882
    1STR    C0W45536   6.603   6.642   4.879
    1STR    C0X45537   6.447   6.488   4.760
    1STR    N0Y45538   6.518   6.515   4.645
    1STR   BCK245539   6.489   6.487   4.519
    1STR    O1045540   6.571   6.440   4.446
    1STR    C1345541   6.346   6.391   4.761
    1STR    C1445542   6.755   5.289   5.248
    1STR    C1545543   6.626   5.254   5.200
    1STR    C1645544   6.608   5.209   5.067
    1STR    C1745545   6.473   5.164   5.019
    1STR    H1B45546   6.715   5.196   4.769
    1STR    H1C45547   6.921   5.247   4.962
    1STR    H1D45548   7.059   5.318   5.112
    1STR    H1E45549   7.232   5.473   5.163
    1STR    H1F45550   7.459   5.283   5.232
    1STR    H1G45551   7.476   5.434   5.144
    1STR    H1H45552   7.424   5.436   5.313
    1STR    H1I45553   7.292   5.191   5.051
    1STR    H1J45554   7.339   5.338   4.975
    1STR    H1K45555   7.234   5.283   4.792
    1STR    H1M45556   7.015   5.092   4.899
    1STR    H1N45557   7.184   5.064   4.900
    1STR    H1O45558   7.088   5.080   4.748
    1STR    H1P45559   6.933   5.310   4.767
    1STR    H1Q45560   7.052   5.440   4.747
    1STR   C01045561   6.956   5.334   4.512
    1STR   H01145562   6.915   5.430   4.535
    1STR   C01245563   7.017   5.343   4.371
    1STR   H01345564   7.113   5.391   4.363
    1STR   H01445565   6.952   5.398   4.305
    1STR   H01545566   7.035   5.246   4.329
    1STR   C01645567   6.843   5.233   4.507
    1STR   H01745568   6.814   5.218   4.404
    1STR   H01845569   6.889   5.140   4.533
    1STR   O01945570   6.727   5.262   4.586
    1STR   C02045571   6.611   5.289   4.506
    1STR   H02145572   6.637   5.360   4.427
    1STR   C02245573   6.557   5.164   4.436
    1STR   H02345574   6.510   5.093   4.502
    1STR   H02445575   6.631   5.111   4.380
    1STR   H02545576   6.479   5.190   4.364
    1STR   C02645577   6.500   5.351   4.591
    1STR   H02745578   6.503   5.317   4.694
    1STR   H02845579   6.517   5.458   4.591
    1STR   O02945580   6.375   5.313   4.534
    1STR   C03045581   6.284   5.417   4.510
    1STR   H03145582   6.337   5.511   4.508
    1STR   C03245583   6.226   5.394   4.369
    1STR   H03345584   6.187   5.294   4.359
    1STR   H03445585   6.303   5.408   4.294
    1STR   H03545586   6.143   5.460   4.346
    1STR   C03645587   6.177   5.417   4.621
    1STR   H03745588   6.110   5.502   4.606
    1STR   H03845589   6.117   5.329   4.610
    1STR   O03945590   6.231   5.416   4.753
    1STR   C04045591   6.140   5.457   4.856
    1STR   H04145592   6.129   5.566   4.851
    1STR   C04245593   5.999   5.397   4.843
    1STR   H04345594   6.002   5.289   4.847
    1STR   H04445595   5.949   5.426   4.751
    1STR   H04545596   5.936   5.431   4.925
    1STR   C04645597   6.203   5.417   4.992
    1STR   H04745598   6.128   5.379   5.060
    1STR   H04845599   6.271   5.335   4.974
    1STR   O04945600   6.267   5.527   5.056
    1STR   C05045601   6.382   5.492   5.133
    1STR   H05145602   6.371   5.393   5.176
    1STR   C05245603   6.500   5.499   5.038
    1STR   H05345604   6.513   5.601   5.004
    1STR   H05445605   6.489   5.434   4.951
    1STR   H05545606   6.593   5.476   5.087
    1STR   C05645607   6.406   5.593   5.245
    1STR   H05745608   6.431   5.689   5.199
    1STR   H05845609   6.316   5.607   5.303
    1STR   O05945610   6.513   5.552   5.330
    1STR   C06045611   6.594   5.657   5.382
    1STR   H06145612   6.647   5.704   5.299
    1STR   C06245613   6.507   5.764   5.451
    1STR   H06345614   6.448   5.719   5.530
    1STR   H06445615   6.440   5.815   5.382
    1STR   H06545616   6.571   5.841   5.495
    1STR   C06645617   6.693   5.599   5.484
    1STR   H06745618   6.721   5.673   5.559
    1STR   H06845619   6.639   5.525   5.542
    1STR   O06945620   6.810   5.540   5.428
    1STR   C07045621   6.922   5.627   5.415
    1STR   H07145622   6.900   5.722   5.464
    1STR   C07245623   7.045   5.571   5.487
    1STR   H07345624   7.117   5.529   5.417
    1STR   H07445625   7.017   5.493   5.557
    1STR   H07545626   7.097   5.648   5.544
    1STR   C07645627   6.943   5.663   5.267
    1STR   H07745628   6.845   5.685   5.229
    1STR   H07845629   7.000   5.755   5.263
    1STR   O07945630   7.008   5.570   5.181
    1STR   C08045631   6.992   5.603   5.042
    1STR   H08145632   6.987   5.707   5.045
    1STR   C08245633   7.120   5.599   4.959
    1STR   H08345634   7.179   5.511   4.952
    1STR   H08445635   7.191   5.670   5.001
    1STR   H08545636   7.100   5.627   4.856
    1STR   C08645637   6.861   5.547   4.979
    1STR   H08745638   6.883   5.464   4.914
    1STR   H08845639   6.810   5.503   5.064
    1STR   O08945640   6.753   5.630   4.932
    1STR   C09045641   6.729   5.657   4.793
    1STR   H09145642   6.765   5.757   4.771
    1STR   C09245643   6.803   5.566   4.700
    1STR   H09345644   6.778   5.462   4.721
    1STR   H09445645   6.909   5.585   4.709
    1STR   H09545646   6.775   5.585   4.598
    1STR   C09645647   6.578   5.652   4.758
    1STR   H09745648   6.561   5.664   4.651
    1STR   H09845649   6.540   5.554   4.783
    1STR   O09945650   6.505   5.754   4.824
    1STR   C10045651   6.363   5.736   4.825
    1STR   H10145652   6.340   5.630   4.837
    1STR   C10245653   6.313   5.812   4.946
    1STR   H10345654   6.311   5.919   4.926
    1STR   H10445655   6.380   5.798   5.031
    1STR   H10545656   6.213   5.781   4.974
    1STR   C10645657   6.297   5.793   4.700
    1STR   H10745658   6.212   5.854   4.728
    1STR   H10845659   6.371   5.855   4.652
    1STR   O10945660   6.248   5.695   4.612
    1STR   C11045661   6.208   5.735   4.481
    1STR   H11145662   6.181   5.645   4.430
    1STR   C11245663   6.077   5.814   4.478
    1STR   H11345664   6.072   5.899   4.545
    1STR   H11445665   5.995   5.749   4.508
    1STR   H11545666   6.054   5.849   4.377
    1STR   C11645667   6.327   5.787   4.399
    1STR   H11745668   6.307   5.784   4.292
    1STR   H11845669   6.342   5.890   4.424
    1STR   O11945670   6.445   5.713   4.429
    1STR   C12045671   6.566   5.777   4.391
    1STR   H12145672   6.551   5.823   4.295
    1STR   C12245673   6.612   5.878   4.497
    1STR   H12345674   6.533   5.931   4.548
    1STR   H12445675   6.676   5.953   4.451
    1STR   H12545676   6.671   5.832   4.576
    1STR   C12645677   6.675   5.673   4.365
    1STR   H12745678   6.654   5.580   4.417
    1STR   H12845679   6.673   5.650   4.259
    1STR   O12945680   6.799   5.728   4.406
    1STR   C13045681   6.908   5.696   4.324
    1STR   H13145682   6.886   5.604   4.271
    1STR   C13245683   6.934   5.817   4.233
    1STR   H13345684   6.959   5.906   4.290
    1STR   H13445685   6.847   5.842   4.173
    1STR   H13545686   7.020   5.800   4.167
    1STR   C13645687   7.027   5.671   4.412
    1STR   H13745688   7.056   5.763   4.457
    1STR   H13845689   7.006   5.605   4.495
    1STR   O13945690   7.129   5.618   4.329
    1STR   C14045691   7.255   5.613   4.394
    1STR   H14145692   7.261   5.705   4.441
    1STR   C14245693   7.270   5.529   4.521
    1STR   H14345694   7.236   5.428   4.511
    1STR   H14445695   7.210   5.567   4.603
    1STR   H14545696   7.373   5.525   4.554
    1STR   C14645697   7.367   5.614   4.289
    1STR   H14745698   7.463   5.587   4.334
    1STR   H14845699   7.341   5.541   4.214
    1STR   O14945700   7.377   5.743   4.229
    1STR   C15045701   7.468   5.755   4.120
    1STR   H15145702   7.499   5.657   4.086
    1STR   C15245703   7.392   5.825   4.006
    1STR   H15345704   7.361   5.926   4.035
    1STR   H15445705   7.302   5.773   3.975
    1STR   H15545706   7.455   5.835   3.917
    1STR   C15645707   7.595   5.840   4.147
    1STR   H15745708   7.660   5.829   4.060
    1STR   H15845709   7.572   5.946   4.147
    1STR   O15945710   7.678   5.806   4.258
    1STR   C16045711   7.632   5.834   4.390
    1STR   H16145712   7.551   5.766   4.410
    1STR   C16245713   7.745   5.790   4.483
    1STR   H16345714   7.835   5.849   4.468
    1STR   H16445715   7.769   5.685   4.467
    1STR   H16545716   7.714   5.801   4.588
    1STR   C16645717   7.592   5.981   4.418
    1STR   H16745718   7.571   5.993   4.525
    1STR   H16845719   7.676   6.047   4.396
    1STR   O16945720   7.481   6.023   4.338
    1STR   C17045721   7.351   6.038   4.396
    1STR   H17145722   7.342   6.136   4.440
    1STR   C17245723   7.256   6.037   4.276
    1STR   H17345724   7.237   5.937   4.238
    1STR   H17445725   7.296   6.093   4.193
    1STR   H17545726   7.160   6.083   4.298
    1STR   C17645727   7.312   5.924   4.493
    1STR   H17745728   7.213   5.895   4.462
    1STR   H17845729   7.383   5.846   4.477
    1STR   O17945730   7.306   5.939   4.634
    1STR   C18045731   7.251   5.831   4.713
    1STR   H18145732   7.176   5.776   4.658
    1STR   C18245733   7.371   5.742   4.745
    1STR   H18345734   7.441   5.794   4.810
    1STR   H18445735   7.427   5.714   4.655
    1STR   H18545736   7.341   5.650   4.795
    1STR   C18645737   7.184   5.884   4.845
    1STR   H18745738   7.251   5.863   4.928
    1STR   H18845739   7.179   5.989   4.846
    1STR   O18945740   7.048   5.851   4.877
    1STR   C19045741   6.986   5.932   4.981
    1STR   H19145742   6.982   6.030   4.937
    1STR   C19245743   6.838   5.893   5.017
    1STR   H19345744   6.819   5.800   5.066
    1STR   H19445745   6.770   5.891   4.934
    1STR   H19545746   6.792   5.955   5.091
    1STR   C19645747   7.067   5.959   5.109
    1STR   H19745748   7.109   6.058   5.093
    1STR   H19845749   6.999   5.968   5.194
    1STR   O19945750   7.172   5.873   5.148
    1STR   C20045751   7.248   5.928   5.255
    1STR   H20145752   7.239   6.037   5.258
    1STR   C20245753   7.198   5.880   5.390
    1STR   H20345754   7.210   5.772   5.398
    1STR   H20445755   7.093   5.906   5.405
    1STR   H20545756   7.255   5.926   5.472
    1STR   C20645757   7.396   5.894   5.231
    1STR   H20745758   7.458   5.937   5.310
    1STR   H20845759   7.410   5.786   5.237
    1STR   O20945760   7.446   5.937   5.105
    1STR   C21045761   7.414   6.069   5.063
    1STR   H21145762   7.308   6.078   5.048
    1STR   C21245763   7.455   6.176   5.165
    1STR   H21345764   7.563   6.189   5.168
    1STR   H21445765   7.422   6.156   5.266
    1STR   H21545766   7.406   6.269   5.137
    1STR   C21645767   7.475   6.088   4.924
    1STR   H21745768   7.538   6.175   4.915
    1STR   H21845769   7.541   6.004   4.902
    1STR   O21945770   7.371   6.083   4.828
    1STR   C22045771   7.317   6.200   4.767
    1STR   H22145772   7.304   6.275   4.844
    1STR   C22245773   7.431   6.231   4.672
    1STR   H22345774   7.456   6.144   4.613
    1STR   H22445775   7.523   6.254   4.723
    1STR   H22545776   7.407   6.311   4.604
    1STR   C22645777   7.183   6.186   4.682
    1STR   H22745778   7.163   6.281   4.638
    1STR   H22845779   7.202   6.130   4.593
    1STR   O22945780   7.060   6.137   4.739
    1STR   C23045781   6.949   6.100   4.652
    1STR   H23145782   6.911   6.185   4.599
    1STR   C23245783   6.985   6.002   4.544
    1STR   H23345784   7.031   5.917   4.591
    1STR   H23445785   7.051   6.047   4.470
    1STR   H23545786   6.897   5.968   4.490
    1STR   C23645787   6.830   6.038   4.727
    1STR   H23745788   6.747   6.021   4.661
    1STR   H23845789   6.862   5.939   4.754
    1STR   O23945790   6.792   6.111   4.844
    1STR   C24045791   6.659   6.157   4.860
    1STR   H24145792   6.666   6.232   4.938
    1STR   C24245793   6.616   6.231   4.735
    1STR   H24345794   6.512   6.222   4.713
    1STR   H24445795   6.667   6.209   4.642
    1STR   H24545796   6.640   6.334   4.755
    1STR   C24645797   6.555   6.055   4.909
    1STR   H24745798   6.454   6.090   4.888
    1STR   H24845799   6.570   5.966   4.850
    1STR   O24945800   6.564   6.022   5.048
    1STR   C25045801   6.502   6.111   5.140
    1STR   H25145802   6.513   6.213   5.103
    1STR   C25245803   6.355   6.075   5.160
    1STR   H25345804   6.345   5.972   5.195
    1STR   H25445805   6.299   6.082   5.067
    1STR   H25545806   6.307   6.140   5.232
    1STR   C25645807   6.573   6.102   5.276
    1STR   H25745808   6.536   6.173   5.349
    1STR   H25845809   6.555   6.003   5.316
    1STR   O25945810   6.713   6.109   5.262
    1STR   C26045811   6.778   6.234   5.251
    1STR   H26145812   6.827   6.250   5.348
    1STR   C26245813   6.880   6.207   5.145
    1STR   H26345814   6.845   6.139   5.070
    1STR   H26445815   6.973   6.177   5.191
    1STR   H26545816   6.899   6.290   5.079
    1STR   C26645817   6.705   6.362   5.213
    1STR   H26745818   6.685   6.371   5.106
    1STR   H26845819   6.610   6.370   5.265
    1STR   O26945820   6.784   6.470   5.259
    1STR   C27045821   6.906   6.508   5.194
    1STR   H27145822   6.924   6.599   5.245
    1STR   C27245823   7.035   6.432   5.234
    1STR   H27345824   7.076   6.367   5.157
    1STR   H27445825   7.022   6.373   5.325
    1STR   H27545826   7.117   6.498   5.254
    1STR   C27645827   6.892   6.566   5.054
    1STR   H27745828   6.816   6.643   5.059
    1STR   H27845829   6.984   6.618   5.031
    1STR   O27945830   6.853   6.476   4.950
    1STR   C28045831   6.943   6.475   4.841
    1STR   H28145832   6.965   6.573   4.803
    1STR   C28245833   7.072   6.410   4.893
    1STR   H28345834   7.056   6.308   4.928
    1STR   H28445835   7.122   6.467   4.969
    1STR   H28545836   7.143   6.405   4.813
    1STR   C28645837   6.895   6.393   4.721
    1STR   H28745838   6.984   6.363   4.673
    1STR   H28845839   6.855   6.306   4.767
    1STR   O28945840   6.806   6.441   4.619
    1STR   C29045841   6.845   6.422   4.480
    1STR   H29145842   6.792   6.500   4.428
    1STR   C29245843   6.988   6.467   4.456
    1STR   H29345844   7.057   6.383   4.462
    1STR   H29445845   7.012   6.542   4.531
    1STR   H29545846   7.001   6.512   4.359
    1STR   C29645847   6.817   6.293   4.394
    1STR   H29745848   6.812   6.338   4.295
    1STR   H29845849   6.904   6.229   4.390
    1STR   O29945850   6.702   6.207   4.407
    1STR   C30045851   6.626   6.192   4.286
    1STR   H30145852   6.593   6.291   4.262
    1STR   C30245853   6.708   6.144   4.165
    1STR   H30345854   6.770   6.060   4.192
    1STR   H30445855   6.770   6.224   4.124
    1STR   H30545856   6.644   6.114   4.082
    1STR   C30645857   6.494   6.112   4.292
    1STR   H30745858   6.423   6.146   4.217
    1STR   H30845859   6.518   6.014   4.255
    1STR   O30945860   6.438   6.091   4.420
    1STR    H1R45861   6.362   6.261   4.483
    1STR    H1S45862   6.121   6.217   4.411
    1STR    H1T45863   6.167   6.057   4.356
    1STR    H1U45864   6.220   6.198   4.269
    1STR    H1V45865   6.370   6.084   4.663
    1STR    H1W45866   6.239   6.007   4.579
    1STR    H1X45867   6.174   6.199   4.975
    1STR    H1Y45868   6.311   6.350   5.098
    1STR    H1Z45869   6.486   6.525   5.096
    1STR    H2045870   6.573   6.718   4.808
    1STR    H2145871   6.619   6.687   4.976
    1STR    H2245872   6.694   6.600   4.839
    1STR    H2345873   6.620   6.515   4.657
    1STR    H2745874   6.311   6.359   4.666
    1STR    H2845875   6.772   5.320   5.349
    1STR    H2945876   6.541   5.261   5.266
    1STR    H2A45877   6.447   5.220   4.931
    1STR    H2B45878   6.395   5.174   5.095
    1STR    H2C45879   6.482   5.059   4.992
    1STR   BCK145880   7.280   4.908   6.670
    1STR    O0345881   7.296   4.804   6.615
    1STR    N0445882   7.388   4.969   6.712
    1STR    C0545883   7.502   4.998   6.638
    1STR    C0645884   7.498   5.006   6.497
    1STR    C0745885   7.590   5.084   6.424
    1STR    N0845886   7.548   5.146   6.308
    1STR    C0945887   7.544   5.099   6.183
    1STR    O0A45888   7.602   4.996   6.152
    1STR    O0B45889   7.471   5.172   6.092
    1STR    C0C45890   7.424   5.307   6.107
    1STR    C0D45891   7.521   5.393   6.025
    1STR    C0E45892   7.280   5.321   6.051
    1STR    O0F45893   7.189   5.373   6.148
    1STR    C0G45894   7.104   5.277   6.210
    1STR    C0H45895   7.193   5.169   6.273
    1STR    C0I45896   7.015   5.346   6.316
    1STR    O0J45897   6.891   5.397   6.274
    1STR    C0K45898   7.471   6.536   7.174
    1STR    C0M45899   7.587   6.522   7.082
    1STR    C0N45900   7.347   6.492   7.091
    1STR    O0O45901   7.372   6.457   6.951
    1STR    C0P45902   7.341   6.548   6.858
    1STR    O0Q45903   7.314   6.663   6.884
    1STR    N0R45904   7.332   6.518   6.730
    1STR    C0S45905   7.355   6.411   6.646
    1STR    C0T45906   7.478   6.346   6.636
    1STR    C0U45907   7.501   6.256   6.529
    1STR    C0V45908   7.400   6.231   6.432
    1STR    C0W45909   7.427   6.138   6.316
    1STR    C0X45910   7.273   6.293   6.444
    1STR    N0Y45911   7.169   6.268   6.354
    1STR   BCK245912   7.038   6.273   6.384
    1STR    O1045913   6.996   6.289   6.497
    1STR    C1345914   7.257   6.384   6.550
    1STR    C1445915   7.700   5.138   6.492
    1STR    C1545916   7.706   5.129   6.632
    1STR    C1645917   7.603   5.068   6.704
    1STR    C1745918   7.575   5.123   6.840
    1STR    H1B45919   7.381   5.000   6.808
    1STR    H1C45920   7.410   4.972   6.446
    1STR    H1D45921   7.512   5.240   6.324
    1STR    H1E45922   7.424   5.341   6.210
    1STR    H1F45923   7.516   5.369   5.919
    1STR    H1G45924   7.497   5.499   6.038
    1STR    H1H45925   7.624   5.377   6.057
    1STR    H1I45926   7.244   5.228   6.007
    1STR    H1J45927   7.278   5.392   5.968
    1STR    H1K45928   7.039   5.232   6.134
    1STR    H1M45929   7.233   5.101   6.198
    1STR    H1N45930   7.138   5.111   6.346
    1STR    H1O45931   7.279   5.209   6.325
    1STR    H1P45932   6.990   5.274   6.393
    1STR    H1Q45933   7.073   5.425   6.361
    1STR   C01045934   6.858   5.523   6.333
    1STR   H01145935   6.938   5.594   6.311
    1STR   C01245936   6.732   5.567   6.258
    1STR   H01345937   6.649   5.499   6.277
    1STR   H01445938   6.750   5.566   6.150
    1STR   H01545939   6.701   5.667   6.285
    1STR   C01645940   6.831   5.524   6.487
    1STR   H01745941   6.837   5.626   6.523
    1STR   H01845942   6.729   5.493   6.504
    1STR   O01945943   6.925   5.454   6.568
    1STR   C02045944   6.868   5.382   6.678
    1STR   H02145945   6.765   5.408   6.695
    1STR   C02245946   6.883   5.235   6.643
    1STR   H02345947   6.987   5.209   6.643
    1STR   H02445948   6.847   5.210   6.544
    1STR   H02545949   6.832   5.175   6.718
    1STR   C02645950   6.936   5.413   6.811
    1STR   H02745951   7.043   5.426   6.797
    1STR   H02845952   6.895   5.506   6.846
    1STR   O02945953   6.915   5.314   6.910
    1STR   C03045954   6.970   5.354   7.036
    1STR   H03145955   7.037   5.438   7.022
    1STR   C03245956   6.864   5.400   7.130
    1STR   H03345957   6.827   5.321   7.191
    1STR   H03445958   6.779   5.437   7.075
    1STR   H03545959   6.900   5.474   7.202
    1STR   C03645960   7.043   5.240   7.105
    1STR   H03745961   7.096   5.280   7.191
    1STR   H03845962   6.974   5.165   7.140
    1STR   O03945963   7.132   5.173   7.022
    1STR   C04045964   7.237   5.252   6.978
    1STR   H04145965   7.220   5.356   6.994
    1STR   C04245966   7.356   5.205   7.060
    1STR   H04345967   7.378   5.100   7.052
    1STR   H04445968   7.341   5.224   7.166
    1STR   H04545969   7.443   5.261   7.030
    1STR   C04645970   7.236   5.225   6.829
    1STR   H04745971   7.254   5.121   6.824
    1STR   H04845972   7.139   5.244   6.787
    1STR   O04945973   7.327   5.299   6.754
    1STR   C05045974   7.340   5.278   6.615
    1STR   H05145975   7.341   5.175   6.587
    1STR   C05245976   7.220   5.334   6.544
    1STR   H05345977   7.155   5.251   6.522
    1STR   H05445978   7.254   5.381   6.452
    1STR   H05545979   7.161   5.405   6.601
    1STR   C05645980   7.473   5.347   6.581
    1STR   H05745981   7.487   5.434   6.639
    1STR   H05845982   7.551   5.296   6.632
    1STR   O05945983   7.509   5.380   6.448
    1STR   C06045984   7.618   5.474   6.448
    1STR   H06145985   7.695   5.441   6.518
    1STR   C06245986   7.680   5.476   6.310
    1STR   H06345987   7.610   5.521   6.239
    1STR   H06445988   7.705   5.376   6.276
    1STR   H06545989   7.771   5.536   6.309
    1STR   C06645990   7.570   5.615   6.490
    1STR   H06745991   7.598   5.633   6.593
    1STR   H06845992   7.619   5.695   6.433
    1STR   O06945993   7.430   5.622   6.467
    1STR   C07045994   7.348   5.683   6.566
    1STR   H07145995   7.379   5.786   6.581
    1STR   C07245996   7.211   5.684   6.496
    1STR   H07345997   7.129   5.706   6.563
    1STR   H07445998   7.189   5.588   6.452
    1STR   H07545999   7.210   5.757   6.415
    1STR   C07646000   7.344   5.607   6.702
    1STR   H07746001   7.260   5.633   6.761
    1STR   H07846002   7.310   5.509   6.688
    1STR   O07946003   7.468   5.611   6.776
    1STR   C08046004   7.495   5.516   6.881
    1STR   H08146005   7.470   5.416   6.856
    1STR   C08246006   7.645   5.504   6.897
    1STR   H08346007   7.691   5.470   6.805
    1STR   H08446008   7.668   5.431   6.975
    1STR   H08546009   7.690   5.598   6.927
    1STR   C08646010   7.422   5.543   7.012
    1STR   H08746011   7.423   5.644   7.044
    1STR   H08846012   7.317   5.523   6.998
    1STR   O08946013   7.475   5.469   7.119
    1STR   C09046014   7.435   5.519   7.243
    1STR   H09146015   7.455   5.625   7.252
    1STR   C09246016   7.286   5.504   7.264
    1STR   H09346017   7.254   5.402   7.254
    1STR   H09446018   7.231   5.565   7.195
    1STR   H09546019   7.260   5.540   7.363
    1STR   C09646020   7.517   5.445   7.346
    1STR   H09746021   7.477   5.460   7.446
    1STR   H09846022   7.511   5.340   7.317
    1STR   O09946023   7.654   5.475   7.340
    1STR   C10046024   7.691   5.597   7.399
    1STR   H10146025   7.612   5.671   7.395
    1STR   C10246026   7.722   5.578   7.547
    1STR   H10346027   7.635   5.544   7.603
    1STR   H10446028   7.755   5.671   7.593
    1STR   H10546029   7.800   5.504   7.557
    1STR   C10646030   7.814   5.639   7.318
    1STR   H10746031   7.877   5.709   7.372
    1STR   H10846032   7.876   5.551   7.302
    1STR   O10946033   7.783   5.691   7.189
    1STR   C11046034   7.690   5.798   7.183
    1STR   H11146035   7.590   5.764   7.207
    1STR   C11246036   7.723   5.907   7.285
    1STR   H11346037   7.817   5.957   7.260
    1STR   H11446038   7.730   5.871   7.388
    1STR   H11546039   7.641   5.977   7.291
    1STR   C11646040   7.681   5.846   7.037
    1STR   H11746041   7.679   5.954   7.032
    1STR   H11846042   7.769   5.816   6.981
    1STR   O11946043   7.565   5.788   6.978
    1STR   C12046044   7.473   5.870   6.909
    1STR   H12146045   7.472   5.959   6.971
    1STR   C12246046   7.537   5.911   6.775
    1STR   H12346047   7.550   5.825   6.711
    1STR   H12446048   7.637   5.951   6.786
    1STR   H12546049   7.476   5.985   6.723
    1STR   C12646050   7.322   5.825   6.889
    1STR   H12746051   7.284   5.908   6.937
    1STR   H12846052   7.295   5.836   6.785
    1STR   O12946053   7.233   5.731   6.958
    1STR   C13046054   7.087   5.751   6.953
    1STR   H13146055   7.064   5.854   6.963
    1STR   C13246056   7.031   5.724   6.814
    1STR   H13346057   7.054   5.628   6.774
    1STR   H13446058   7.073   5.795   6.746
    1STR   H13546059   6.923   5.740   6.811
    1STR   C13646060   6.999   5.701   7.072
    1STR   H13746061   7.050   5.623   7.126
    1STR   H13846062   6.986   5.778   7.147
    1STR   O13946063   6.876   5.646   7.027
    1STR   C14046064   6.745   5.696   7.060
    1STR   H14146065   6.740   5.802   7.060
    1STR   C14246066   6.669   5.659   6.934
    1STR   H14346067   6.690   5.558   6.902
    1STR   H14446068   6.695   5.726   6.853
    1STR   H14546069   6.561   5.667   6.950
    1STR   C14646070   6.665   5.642   7.183
    1STR   H14746071   6.581   5.711   7.195
    1STR   H14846072   6.617   5.547   7.160
    1STR   O14946073   6.734   5.623   7.307
    1STR   C15046074   6.663   5.667   7.424
    1STR   H15146075   6.635   5.768   7.402
    1STR   C15246076   6.531   5.593   7.447
    1STR   H15346077   6.552   5.490   7.467
    1STR   H15446078   6.464   5.600   7.362
    1STR   H15546079   6.479   5.632   7.535
    1STR   C15646080   6.746   5.680   7.555
    1STR   H15746081   6.719   5.774   7.603
    1STR   H15846082   6.716   5.605   7.627
    1STR   O15946083   6.888   5.675   7.549
    1STR   C16046084   6.954   5.742   7.443
    1STR   H16146085   6.945   5.682   7.353
    1STR   C16246086   6.901   5.883   7.419
    1STR   H16346087   6.876   5.935   7.511
    1STR   H16446088   6.814   5.875   7.356
    1STR   H16546089   6.971   5.943   7.363
    1STR   C16646090   7.102   5.744   7.472
    1STR   H16746091   7.125   5.822   7.545
    1STR   H16846092   7.133   5.650   7.517
    1STR   O16946093   7.165   5.759   7.345
    1STR   C17046094   7.239   5.878   7.332
    1STR   H17146095   7.176   5.953   7.377
    1STR   C17246096   7.366   5.863   7.417
    1STR   H17346097   7.415   5.768   7.399
    1STR   H17446098   7.343   5.866   7.523
    1STR   H17546099   7.439   5.941   7.399
    1STR   C17646100   7.266   5.914   7.184
    1STR   H17746101   7.357   5.970   7.182
    1STR   H17846102   7.297   5.819   7.144
    1STR   O17946103   7.156   5.983   7.113
    1STR   C18046104   7.166   6.086   7.006
    1STR   H18146105   7.104   6.167   7.044
    1STR   C18246106   7.305   6.150   6.987
    1STR   H18346107   7.348   6.137   6.888
    1STR   H18446108   7.382   6.121   7.056
    1STR   H18546109   7.292   6.255   6.999
    1STR   C18646110   7.118   6.060   6.855
    1STR   H18746111   7.135   6.151   6.802
    1STR   H18846112   7.188   6.005   6.797
    1STR   O18946113   6.989   6.010   6.816
    1STR   C19046114   6.954   6.028   6.676
    1STR   H19146115   6.918   6.131   6.670
    1STR   C19246116   7.074   6.015   6.578
    1STR   H19346117   7.131   5.924   6.590
    1STR   H19446118   7.145   6.097   6.588
    1STR   H19546119   7.041   6.018   6.474
    1STR   C19646120   6.841   5.936   6.623
    1STR   H19746121   6.817   5.970   6.522
    1STR   H19846122   6.878   5.835   6.611
    1STR   O19946123   6.721   5.931   6.700
    1STR   C20046124   6.599   5.899   6.632
    1STR   H20146125   6.588   5.972   6.551
    1STR   C20246126   6.605   5.761   6.568
    1STR   H20346127   6.630   5.685   6.642
    1STR   H20446128   6.677   5.761   6.487
    1STR   H20546129   6.509   5.732   6.525
    1STR   C20646130   6.469   5.915   6.717
    1STR   H20746131   6.450   6.019   6.736
    1STR   H20846132   6.385   5.880   6.657
    1STR   O20946133   6.463   5.851   6.844
    1STR   C21046134   6.335   5.867   6.908
    1STR   H21146135   6.271   5.931   6.847
    1STR   C21246136   6.267   5.733   6.918
    1STR   H21346137   6.323   5.673   6.989
    1STR   H21446138   6.266   5.685   6.820
    1STR   H21546139   6.165   5.741   6.954
    1STR   C21646140   6.339   5.933   7.046
    1STR   H21746141   6.393   6.028   7.033
    1STR   H21846142   6.237   5.958   7.072
    1STR   O21946143   6.387   5.859   7.159
    1STR   C22046144   6.411   5.948   7.269
    1STR   H22146145   6.347   6.033   7.256
    1STR   C22246146   6.364   5.893   7.404
    1STR   H22346147   6.436   5.826   7.448
    1STR   H22446148   6.269   5.841   7.394
    1STR   H22546149   6.351   5.974   7.475
    1STR   C22646150   6.555   6.001   7.267
    1STR   H22746151   6.563   6.102   7.303
    1STR   H22846152   6.623   5.949   7.330
    1STR   O22946153   6.598   5.989   7.134
    1STR   C23046154   6.691   6.081   7.087
    1STR   H23146155   6.667   6.184   7.114
    1STR   C23246156   6.827   6.041   7.139
    1STR   H23346157   6.856   5.939   7.128
    1STR   H23446158   6.831   6.063   7.244
    1STR   H23546159   6.905   6.092   7.085
    1STR   C23646160   6.684   6.069   6.938
    1STR   H23746161   6.781   6.091   6.895
    1STR   H23846162   6.665   5.965   6.916
    1STR   O23946163   6.581   6.151   6.883
    1STR   C24046164   6.628   6.228   6.774
    1STR   H24146165   6.692   6.170   6.708
    1STR   C24246166   6.508   6.271   6.691
    1STR   H24346167   6.532   6.357   6.629
    1STR   H24446168   6.425   6.298   6.756
    1STR   H24546169   6.474   6.194   6.623
    1STR   C24646170   6.709   6.346   6.829
    1STR   H24746171   6.670   6.438   6.789
    1STR   H24846172   6.701   6.352   6.937
    1STR   O24946173   6.842   6.342   6.782
    1STR   C25046174   6.944   6.328   6.879
    1STR   H25146175   6.947   6.224   6.904
    1STR   C25246176   7.068   6.373   6.806
    1STR   H25346177   7.069   6.476   6.781
    1STR   H25446178   7.075   6.320   6.713
    1STR   H25546179   7.158   6.354   6.864
    1STR   C25646180   6.938   6.402   7.010
    1STR   H25746181   7.038   6.428   7.044
    1STR   H25846182   6.882   6.492   6.993
    1STR   O25946183   6.876   6.318   7.105
    1STR   C26046184   6.907   6.344   7.240
    1STR   H26146185   6.936   6.447   7.243
    1STR   C26246186   6.778   6.335   7.320
    1STR   H26346187   6.736   6.236   7.321
    1STR   H26446188   6.706   6.405   7.278
    1STR   H26546189   6.793   6.363   7.424
    1STR   C26646190   7.017   6.251   7.297
    1STR   H26746191   6.998   6.234   7.403
    1STR   H26846192   7.013   6.152   7.254
    1STR   O26946193   7.150   6.296   7.279
    1STR   C27046194   7.243   6.203   7.332
    1STR   H27146195   7.215   6.117   7.281
    1STR   C27246196   7.387   6.224   7.290
    1STR   H27346197   7.434   6.286   7.362
    1STR   H27446198   7.404   6.268   7.193
    1STR   H27546199   7.443   6.131   7.293
    1STR   C27646200   7.249   6.182   7.483
    1STR   H27746201   7.341   6.128   7.497
    1STR   H27846202   7.256   6.279   7.530
    1STR   O27946203   7.162   6.098   7.554
    1STR   C28046204   7.191   6.102   7.694
    1STR   H28146205   7.187   6.205   7.723
    1STR   C28246206   7.068   6.042   7.761
    1STR   H28346207   7.055   5.937   7.737
    1STR   H28446208   6.978   6.095   7.727
    1STR   H28546209   7.072   6.053   7.869
    1STR   C28646210   7.325   6.037   7.749
    1STR   H28746211   7.337   6.062   7.855
    1STR   H28846212   7.309   5.929   7.749
    1STR   O28946213   7.451   6.053   7.681
    1STR   C29046214   7.544   6.159   7.711
    1STR   H29146215   7.517   6.214   7.801
    1STR   C29246216   7.683   6.099   7.731
    1STR   H29346217   7.716   6.046   7.641
    1STR   H29446218   7.685   6.029   7.815
    1STR   H29546219   7.756   6.177   7.750
    1STR   C29646220   7.544   6.248   7.586
    1STR   H29746221   7.559   6.185   7.499
    1STR   H29846222   7.446   6.290   7.585
    1STR   O29946223   7.636   6.355   7.573
    1STR   C30046224   7.574   6.482   7.554
    1STR   H30146225   7.496   6.483   7.626
    1STR   C30246226   7.662   6.585   7.627
    1STR   H30346227   7.767   6.578   7.596
    1STR   H30446228   7.660   6.568   7.734
    1STR   H30546229   7.628   6.687   7.610
    1STR   C30646230   7.496   6.522   7.420
    1STR   H30746231   7.391   6.499   7.435
    1STR   H30846232   7.497   6.629   7.407
    1STR   O30946233   7.527   6.469   7.291
    1STR    H1R46234   7.452   6.639   7.200
    1STR    H1S46235   7.580   6.573   6.989
    1STR    H1T46236   7.593   6.419   7.056
    1STR    H1U46237   7.677   6.549   7.132
    1STR    H1V46238   7.281   6.577   7.091
    1STR    H1W46239   7.284   6.420   7.141
    1STR    H1X46240   7.274   6.591   6.691
    1STR    H1Y46241   7.555   6.371   6.707
    1STR    H1Z46242   7.598   6.209   6.521
    1STR    H2046243   7.359   6.053   6.320
    1STR    H2146244   7.411   6.191   6.221
    1STR    H2246245   7.529   6.101   6.317
    1STR    H2346246   7.190   6.243   6.259
    1STR    H2746247   7.164   6.436   6.561
    1STR    H2846248   7.771   5.200   6.440
    1STR    H2946249   7.778   5.189   6.686
    1STR    H2A46250   7.476   5.160   6.840
    1STR    H2B46251   7.634   5.212   6.860
    1STR    H2C46252   7.573   5.052   6.921
    1STR   BCK146253   6.678   7.487   8.902
    1STR    O0346254   6.762   7.524   8.822
    1STR    N0446255   6.554   7.533   8.893
    1STR    C0546256   6.476   7.587   8.993
    1STR    C0646257   6.535   7.616   9.117
    1STR    C0746258   6.461   7.651   9.228
    1STR    N0846259   6.532   7.632   0.026
    1STR    C0946260   6.506   7.637   0.157
    1STR    O0A46261   6.416   7.703   0.208
    1STR    O0B46262   6.603   7.577   0.227
    1STR    C0C46263   6.738   7.613   0.204
    1STR    C0D46264   6.809   7.623   0.336
    1STR    C0E46265   6.816   7.540   0.093
    1STR    O0F46266   6.809   7.602   9.289
    1STR    C0G46267   6.928   7.596   9.210
    1STR    C0H46268   6.899   7.651   9.074
    1STR    C0I46269   7.060   7.663   9.255
    1STR    O0J46270   7.165   7.598   9.180
    1STR    C0K46271   7.378   8.767   9.129
    1STR    C0M46272   7.471   8.727   9.239
    1STR    C0N46273   7.330   8.909   9.099
    1STR    O0O46274   7.217   8.900   9.013
    1STR    C0P46275   7.094   8.881   9.061
    1STR    O0Q46276   7.068   8.864   9.178
    1STR    N0R46277   7.002   8.885   8.966
    1STR    C0S46278   6.869   8.846   8.967
    1STR    C0T46279   6.796   8.880   8.854
    1STR    C0U46280   6.672   8.821   8.829
    1STR    C0V46281   6.604   8.760   8.932
    1STR    C0W46282   6.473   8.698   8.891
    1STR    C0X46283   6.657   8.769   9.062
    1STR    N0Y46284   6.569   8.783   9.170
    1STR   BCK246285   6.574   8.830   9.296
    1STR    O1046286   6.473   8.826   0.045
    1STR    C1346287   6.798   8.785   9.073
    1STR    C1446288   6.324   7.678   9.210
    1STR    C1546289   6.264   7.662   9.084
    1STR    C1646290   6.341   7.618   8.975
    1STR    C1746291   6.277   7.608   8.839
    1STR    H1B46292   6.533   7.554   8.796
    1STR    H1C46293   6.639   7.599   9.131
    1STR    H1D46294   6.630   7.608   0.011
    1STR    H1E46295   6.738   7.715   0.179
    1STR    H1F46296   6.789   7.540   0.396
    1STR    H1G46297   6.916   7.641   0.327
    1STR    H1H46298   6.765   7.697   0.399
    1STR    H1I46299   6.780   7.438   0.080
    1STR    H1J46300   6.920   7.540   0.122
    1STR    H1K46301   6.941   7.491   9.198
    1STR    H1M46302   6.971   7.726   9.048
    1STR    H1N46303   6.802   7.695   9.059
    1STR    H1O46304   6.912   7.570   9.004
    1STR    H1P46305   7.050   7.768   9.233
    1STR    H1Q46306   7.073   7.663   0.042
    1STR   C01046307   7.293   7.660   9.166
    1STR   H01146308   7.281   7.766   9.168
    1STR   C01246309   7.388   7.629   9.279
    1STR   H01346310   7.383   7.525   9.305
    1STR   H01446311   7.367   7.687   0.048
    1STR   H01546312   7.492   7.650   9.254
    1STR   C01646313   7.360   7.638   9.029
    1STR   H01746314   7.341   7.728   8.972
    1STR   H01846315   7.469   7.632   9.038
    1STR   O01946316   7.315   7.527   8.955
    1STR   C02046317   7.345   7.539   8.816
    1STR   H02146318   7.341   7.643   8.784
    1STR   C02246319   7.485   7.487   8.781
    1STR   H02346320   7.484   7.379   8.768
    1STR   H02446321   7.558   7.513   8.857
    1STR   H02546322   7.518   7.529   8.687
    1STR   C02646323   7.233   7.468   8.741
    1STR   H02746324   7.269   7.377   8.696
    1STR   H02846325   7.159   7.428   8.810
    1STR   O02946326   7.178   7.562   8.645
    1STR   C03046327   7.045   7.606   8.674
    1STR   H03146328   6.976   7.524   8.675
    1STR   C03246329   7.056   7.665   8.810
    1STR   H03346330   7.141   7.732   8.810
    1STR   H03446331   7.076   7.596   8.890
    1STR   H03546332   6.962   7.714   8.827
    1STR   C03646333   6.983   7.707   8.576
    1STR   H03746334   7.043   7.796   8.570
    1STR   H03846335   6.988   7.664   8.478
    1STR   O03946336   6.844   7.738   8.605
    1STR   C04046337   6.786   7.855   8.543
    1STR   H04146338   6.835   7.943   8.585
    1STR   C04246339   6.813   7.848   8.392
    1STR   H04346340   6.774   7.756   8.350
    1STR   H04446341   6.920   7.854   8.369
    1STR   H04546342   6.766   7.931   8.339
    1STR   C04646343   6.630   7.868   8.568
    1STR   H04746344   6.585   7.910   8.478
    1STR   H04846345   6.585   7.769   8.575
    1STR   O04946346   6.586   7.958   8.673
    1STR   C05046347   6.533   7.897   8.793
    1STR   H05146348   6.447   7.835   8.769
    1STR   C05246349   6.646   7.810   8.839
    1STR   H05346350   6.739   7.852   8.809
    1STR   H05446351   6.645   7.720   8.781
    1STR   H05546352   6.646   7.790   8.946
    1STR   C05646353   6.492   7.996   8.906
    1STR   H05746354   6.577   8.061   8.925
    1STR   H05846355   6.411   8.058   8.870
    1STR   O05946356   6.454   7.930   9.030
    1STR   C06046357   6.394   8.011   9.134
    1STR   H06146358   6.425   8.114   9.121
    1STR   C06246359   6.242   8.011   9.114
    1STR   H06346360   6.199   7.914   9.134
    1STR   H06446361   6.216   8.038   9.011
    1STR   H06546362   6.194   8.083   9.180
    1STR   C06646363   6.434   7.973   9.281
    1STR   H06746364   6.392   8.047   0.029
    1STR   H06846365   6.393   7.881   9.318
    1STR   O06946366   6.575   7.969   9.291
    1STR   C07046367   6.655   7.913   0.076
    1STR   H07146368   6.587   7.845   0.118
    1STR   C07246369   6.772   7.862   9.311
    1STR   H07346370   6.733   7.806   9.227
    1STR   H07446371   6.849   7.810   0.047
    1STR   H07546372   6.837   7.936   9.267
    1STR   C07646373   6.716   7.976   0.206
    1STR   H07746374   6.820   7.985   0.183
    1STR   H07846375   6.678   8.070   0.241
    1STR   O07946376   6.728   7.894   0.320
    1STR   C08046377   6.815   7.945   0.422
    1STR   H08146378   6.836   8.048   0.402
    1STR   C08246379   6.727   7.938   0.547
    1STR   H08346380   6.675   7.843   0.553
    1STR   H08446381   6.648   8.011   0.544
    1STR   H08546382   6.785   7.952   0.639
    1STR   C08646383   6.955   7.879   0.450
    1STR   H08746384   7.001   7.948   0.521
    1STR   H08846385   6.943   7.786   0.505
    1STR   O08946386   7.048   7.856   0.342
    1STR   C09046387   7.189   7.877   0.372
    1STR   H09146388   7.208   7.982   0.379
    1STR   C09246389   7.226   7.817   0.508
    1STR   H09346390   7.185   7.717   0.513
    1STR   H09446391   7.186   7.874   0.592
    1STR   H09546392   7.333   7.812   0.523
    1STR   C09646393   7.283   7.816   0.262
    1STR   H09746394   7.364   7.758   0.306
    1STR   H09846395   7.220   7.745   0.209
    1STR   O09946396   7.340   7.901   0.161
    1STR   C10046397   7.463   7.974   0.182
    1STR   H10146398   7.439   8.069   0.136
    1STR   C10246399   7.494   8.004   0.330
    1STR   H10346400   7.517   7.914   0.386
    1STR   H10446401   7.411   8.055   0.379
    1STR   H10546402   7.579   8.071   0.339
    1STR   C10646403   7.594   7.928   0.109
    1STR   H10746404   7.667   8.008   0.116
    1STR   H10846405   7.639   7.852   0.172
    1STR   O10946406   7.591   7.875   9.295
    1STR   C11046407   7.646   7.954   9.186
    1STR   H11146408   7.602   8.053   9.186
    1STR   C11246409   7.798   7.965   9.201
    1STR   H11346410   7.844   7.868   9.219
    1STR   H11446411   7.827   8.030   9.283
    1STR   H11546412   7.842   8.006   9.110
    1STR   C11646413   7.607   7.894   9.048
    1STR   H11746414   7.662   7.802   9.034
    1STR   H11846415   7.501   7.869   9.046
    1STR   O11946416   7.630   7.987   8.941
    1STR   C12046417   7.626   7.943   8.804
    1STR   H12146418   7.725   7.971   8.768
    1STR   C12246419   7.616   7.793   8.781
    1STR   H12346420   7.523   7.756   8.823
    1STR   H12446421   7.699   7.738   8.823
    1STR   H12546422   7.613   7.770   8.674
    1STR   C12646423   7.529   8.022   8.712
    1STR   H12746424   7.549   8.128   8.725
    1STR   H12846425   7.555   8.002   8.608
    1STR   O12946426   7.389   7.991   8.725
    1STR   C13046427   7.295   8.088   8.675
    1STR   H13146428   7.276   8.159   8.754
    1STR   C13246429   7.343   8.166   8.551
    1STR   H13346430   7.367   8.098   8.469
    1STR   H13446431   7.429   8.229   8.570
    1STR   H13546432   7.264   8.234   8.516
    1STR   C13646433   7.157   8.028   8.643
    1STR   H13746434   7.083   8.107   8.627
    1STR   H13846435   7.164   7.975   8.548
    1STR   O13946436   7.107   7.937   8.739
    1STR   C14046437   7.074   7.986   8.867
    1STR   H14146438   7.089   8.091   8.859
    1STR   C14246439   6.928   7.968   8.907
    1STR   H14346440   6.900   7.867   8.924
    1STR   H14446441   6.858   8.011   8.836
    1STR   H14546442   6.905   8.007   9.004
    1STR   C14646443   7.164   7.929   8.976
    1STR   H14746444   7.147   7.825   8.997
    1STR   H14846445   7.268   7.943   8.949
    1STR   O14946446   7.123   8.003   9.088
    1STR   C15046447   7.195   8.001   9.207
    1STR   H15146448   7.185   7.909   9.263
    1STR   C15246449   7.342   8.031   9.195
    1STR   H15346450   7.376   8.111   9.260
    1STR   H15446451   7.379   8.053   9.095
    1STR   H15546452   7.390   7.942   9.229
    1STR   C15646453   7.122   8.102   9.289
    1STR   H15746454   7.189   8.181   9.318
    1STR   H15846455   7.041   8.148   9.233
    1STR   O15946456   7.071   8.032   0.079
    1STR   C16046457   7.027   8.120   0.178
    1STR   H16146458   6.989   8.059   0.256
    1STR   C16246459   7.145   8.187   0.239
    1STR   H16346460   7.152   8.292   0.215
    1STR   H16446461   7.238   8.137   0.213
    1STR   H16546462   7.134   8.175   0.345
    1STR   C16646463   6.916   8.213   0.131
    1STR   H16746464   6.852   8.230   0.216
    1STR   H16846465   6.954   8.307   0.090
    1STR   O16946466   6.847   8.141   0.032
    1STR   C17046467   6.740   8.201   9.288
    1STR   H17146468   6.789   8.289   9.255
    1STR   C17246469   6.718   8.135   9.151
    1STR   H17346470   6.722   8.028   9.137
    1STR   H17446471   6.791   8.167   9.083
    1STR   H17546472   6.624   8.160   9.108
    1STR   C17646473   6.613   8.227   0.057
    1STR   H17746474   6.532   8.258   9.314
    1STR   H17846475   6.568   8.141   0.096
    1STR   O17946476   6.632   8.301   0.177
    1STR   C18046477   6.529   8.304   0.278
    1STR   H18146478   6.507   8.410   0.289
    1STR   C18246479   6.394   8.234   0.249
    1STR   H18346480   6.404   8.126   0.245
    1STR   H18446481   6.345   8.267   0.158
    1STR   H18546482   6.323   8.256   0.330
    1STR   C18646483   6.584   8.253   0.413
    1STR   H18746484   6.540   8.315   0.491
    1STR   H18846485   6.545   8.153   0.429
    1STR   O18946486   6.726   8.241   0.421
    1STR   C19046487   6.792   8.299   0.533
    1STR   H19146488   6.782   8.403   0.510
    1STR   C19246489   6.727   8.265   0.670
    1STR   H19346490   6.786   8.303   0.753
    1STR   H19446491   6.718   8.159   0.687
    1STR   H19546492   6.628   8.309   0.682
    1STR   C19646493   6.946   8.271   0.538
    1STR   H19746494   6.981   8.296   0.638
    1STR   H19846495   6.969   8.166   0.527
    1STR   O19946496   7.017   8.347   0.440
    1STR   C20046497   7.145   8.405   0.472
    1STR   H20146498   7.161   8.472   0.388
    1STR   C20246499   7.132   8.494   0.593
    1STR   H20346500   7.127   8.442   0.688
    1STR   H20446501   7.043   8.554   0.580
    1STR   H20546502   7.220   8.558   0.596
    1STR   C20646503   7.272   8.318   0.492
    1STR   H20746504   7.339   8.361   0.567
    1STR   H20846505   7.243   8.222   0.535
    1STR   O20946506   7.349   8.293   0.375
    1STR   C21046507   7.415   8.400   0.307
    1STR   H21146508   7.351   8.487   0.294
    1STR   C21246509   7.540   8.434   0.389
    1STR   H21346510   7.603   8.347   0.402
    1STR   H21446511   7.513   8.471   0.487
    1STR   H21546512   7.598   8.511   0.339
    1STR   C21646513   7.454   8.346   0.169
    1STR   H21746514   7.515   8.260   0.190
    1STR   H21846515   7.369   8.311   0.111
    1STR   O21946516   7.526   8.445   0.095
    1STR   C22046517   7.607   8.402   9.305
    1STR   H22146518   7.680   8.482   9.296
    1STR   C22246519   7.688   8.276   0.014
    1STR   H22346520   7.620   8.192   0.015
    1STR   H22446521   7.736   8.281   0.111
    1STR   H22546522   7.763   8.258   9.257
    1STR   C22646523   7.541   8.395   9.165
    1STR   H22746524   7.521   8.496   9.130
    1STR   H22846525   7.619   8.360   9.098
    1STR   O22946526   7.424   8.313   9.149
    1STR   C23046527   7.361   8.327   9.020
    1STR   H23146528   7.361   8.433   9.006
    1STR   C23246529   7.452   8.276   8.909
    1STR   H23346530   7.461   8.168   8.918
    1STR   H23446531   7.552   8.317   8.908
    1STR   H23546532   7.410   8.304   8.813
    1STR   C23646533   7.217   8.261   9.012
    1STR   H23746534   7.241   8.162   8.982
    1STR   H23846535   7.178   8.259   9.112
    1STR   O23946536   7.109   8.304   8.922
    1STR   C24046537   6.966   8.287   8.953
    1STR   H24146538   6.970   8.196   9.009
    1STR   C24246539   6.905   8.389   9.049
    1STR   H24346540   6.948   8.372   9.146
    1STR   H24446541   6.799   8.377   9.065
    1STR   H24546542   6.912   8.492   9.015
    1STR   C24646543   6.861   8.277   8.835
    1STR   H24746544   6.855   8.361   8.768
    1STR   H24846545   6.889   8.198   8.766
    1STR   O24946546   6.725   8.257   8.881
    1STR   C25046547   6.634   8.368   8.873
    1STR   H25146548   6.686   8.463   8.886
    1STR   C25246549   6.574   8.359   8.732
    1STR   H25346550   6.533   8.260   8.715
    1STR   H25446551   6.650   8.376   8.656
    1STR   H25546552   6.494   8.431   8.716
    1STR   C25646553   6.520   8.363   8.981
    1STR   H25746554   6.441   8.434   8.962
    1STR   H25846555   6.471   8.267   8.971
    1STR   O25946556   6.565   8.371   9.117
    1STR   C26046557   6.544   8.487   9.197
    1STR   H26146558   6.522   8.562   9.126
    1STR   C26246559   6.425   8.480   9.292
    1STR   H26346560   6.444   8.425   0.062
    1STR   H26446561   6.334   8.444   9.245
    1STR   H26546562   6.413   8.579   0.014
    1STR   C26646563   6.672   8.524   9.275
    1STR   H26746564   6.718   8.443   0.003
    1STR   H26846565   6.743   8.566   9.205
    1STR   O26946566   6.661   8.598   0.075
    1STR   C27046567   6.783   8.615   0.148
    1STR   H27146568   6.768   8.706   0.205
    1STR   C27246569   6.802   8.519   0.263
    1STR   H27346570   6.847   8.429   0.229
    1STR   H27446571   6.708   8.495   0.309
    1STR   H27546572   6.869   8.560   0.339
    1STR   C27646573   6.914   8.636   0.070
    1STR   H27746574   6.915   8.737   0.032
    1STR   H27846575   6.989   8.632   0.147
    1STR   O27946576   6.956   8.551   9.283
    1STR   C28046577   7.091   8.577   9.248
    1STR   H28146578   7.117   8.676   9.280
    1STR   C28246579   7.172   8.483   0.018
    1STR   H28346580   7.150   8.381   9.310
    1STR   H28446581   7.148   8.493   0.123
    1STR   H28546582   7.279   8.498   0.007
    1STR   C28646583   7.140   8.557   9.101
    1STR   H28746584   7.247   8.555   9.107
    1STR   H28846585   7.124   8.455   9.089
    1STR   O28946586   7.100   8.621   8.976
    1STR   C29046587   7.169   8.572   8.856
    1STR   H29146588   7.216   8.487   8.894
    1STR   C29246589   7.094   8.500   8.746
    1STR   H29346590   7.137   8.404   8.721
    1STR   H29446591   7.091   8.549   8.651
    1STR   H29546592   6.996   8.488   8.786
    1STR   C29646593   7.284   8.647   8.794
    1STR   H29746594   7.276   8.659   8.687
    1STR   H29846595   7.289   8.746   8.837
    1STR   O29946596   7.393   8.557   8.809
    1STR   C30046597   7.521   8.610   8.823
    1STR   H30146598   7.584   8.530   8.861
    1STR   C30246599   7.561   8.637   8.677
    1STR   H30346600   7.526   8.557   8.612
    1STR   H30446601   7.669   8.641   8.665
    1STR   H30546602   7.517   8.728   8.640
    1STR   C30646603   7.516   8.721   8.931
    1STR   H30746604   7.612   8.732   8.982
    1STR   H30846605   7.489   8.817   8.887
    1STR   O30946606   7.415   8.683   9.023
    1STR    H1R46607   7.286   8.735   9.174
    1STR    H1S46608   7.453   8.790   0.003
    1STR    H1T46609   7.574   8.728   9.207
    1STR    H1U46610   7.447   8.628   9.276
    1STR    H1V46611   7.406   8.968   9.048
    1STR    H1W46612   7.303   8.963   9.190
    1STR    H1X46613   7.035   8.923   8.878
    1STR    H1Y46614   6.836   8.951   8.787
    1STR    H1Z46615   6.626   8.824   8.733
    1STR    H2046616   6.405   8.772   8.851
    1STR    H2146617   6.428   8.642   8.970
    1STR    H2246618   6.492   8.628   8.810
    1STR    H2346619   6.474   8.756   9.152
    1STR    H2746620   6.846   8.771   9.167
    1STR    H2846621   6.263   7.713   9.291
    1STR    H2946622   6.159   7.684   9.072
    1STR    H2A46623   6.213   7.521   8.837
    1STR    H2B46624   6.351   7.604   8.760
    1STR    H2C46625   6.219   7.699   8.823
    1STR   BCK146626   6.591   7.300   2.558
    1STR    O0346627   6.654   7.198   2.576
    1STR    N0446628   6.558   7.384   2.655
    1STR    C0546629   6.624   7.389   2.777
    1STR    C0646630   6.757   7.346   2.786
    1STR    C0746631   6.840   7.383   2.890
    1STR    N0846632   6.973   7.353   2.867
    1STR    C0946633   7.067   7.443   2.848
    1STR    O0A46634   7.049   7.561   2.869
    1STR    O0B46635   7.168   7.389   2.787
    1STR    C0C46636   7.222   7.460   2.677
    1STR    C0D46637   7.367   7.423   2.666
    1STR    C0E46638   7.151   7.423   2.549
    1STR    O0F46639   7.040   7.336   2.564
    1STR    C0G46640   6.926   7.380   2.495
    1STR    C0H46641   6.891   7.512   2.567
    1STR    C0I46642   6.950   7.372   2.343
    1STR    O0J46643   6.837   7.355   2.259
    1STR    C0K46644   6.205   8.829   2.944
    1STR    C0M46645   6.187   8.724   3.054
    1STR    C0N46646   6.290   8.946   2.995
    1STR    O0O46647   6.424   8.957   2.943
    1STR    C0P46648   6.442   9.022   2.828
    1STR    O0Q46649   6.350   9.069   2.762
    1STR    N0R46650   6.571   9.039   2.796
    1STR    C0S46651   6.627   9.076   2.673
    1STR    C0T46652   6.765   9.095   2.664
    1STR    C0U46653   6.828   9.101   2.540
    1STR    C0V46654   6.754   9.093   2.421
    1STR    C0W46655   6.821   9.106   2.292
    1STR    C0X46656   6.614   9.081   2.424
    1STR    N0Y46657   6.533   9.074   2.310
    1STR   BCK246658   6.526   9.007   2.193
    1STR    O1046659   6.615   8.953   2.131
    1STR    C1346660   6.555   9.072   2.552
    1STR    C1446661   6.786   7.450   3.000
    1STR    C1546662   6.647   7.476   3.003
    1STR    C1646663   6.566   7.447   2.891
    1STR    C1746664   6.417   7.465   2.898
    1STR    H1B46665   6.497   7.459   2.628
    1STR    H1C46666   6.807   7.295   2.707
    1STR    H1D46667   6.996   7.272   2.812
    1STR    H1E46668   7.208   7.567   2.689
    1STR    H1F46669   7.413   7.461   2.575
    1STR    H1G46670   7.425   7.457   2.750
    1STR    H1H46671   7.371   7.315   2.662
    1STR    H1I46672   7.219   7.365   2.494
    1STR    H1J46673   7.139   7.510   2.485
    1STR    H1K46674   6.850   7.306   2.512
    1STR    H1M46675   6.952   7.597   2.543
    1STR    H1N46676   6.913   7.506   2.671
    1STR    H1O46677   6.787   7.534   2.573
    1STR    H1P46678   7.017   7.450   2.310
    1STR    H1Q46679   6.999   7.277   2.327
    1STR   C01046680   6.839   7.434   2.141
    1STR   H01146681   6.875   7.531   2.171
    1STR   C01246682   6.947   7.395   2.043
    1STR   H01346683   7.020   7.329   2.088
    1STR   H01446684   6.995   7.484   2.003
    1STR   H01546685   6.904   7.343   1.958
    1STR   C01646686   6.702   7.439   2.070
    1STR   H01746687   6.714   7.482   1.974
    1STR   H01846688   6.684   7.338   2.049
    1STR   O01946689   6.588   7.493   2.139
    1STR   C02046690   6.482   7.567   2.073
    1STR   H02146691   6.423   7.494   2.018
    1STR   C02246692   6.391   7.627   2.180
    1STR   H02346693   6.441   7.704   2.235
    1STR   H02446694   6.368   7.556   2.256
    1STR   H02546695   6.301   7.672   2.139
    1STR   C02646696   6.518   7.689   1.984
    1STR   H02746697   6.428   7.715   1.928
    1STR   H02846698   6.538   7.778   2.042
    1STR   O02946699   6.620   7.666   1.890
    1STR   C03046700   6.749   7.722   1.904
    1STR   H03146701   6.822   7.645   1.887
    1STR   C03246702   6.744   7.814   1.784
    1STR   H03346703   6.662   7.886   1.792
    1STR   H03446704   6.725   7.752   1.698
    1STR   H03546705   6.835   7.868   1.763
    1STR   C03646706   6.786   7.783   2.040
    1STR   H03746707   6.893   7.797   2.050
    1STR   H03846708   6.738   7.879   2.037
    1STR   O03946709   6.739   7.692   2.140
    1STR   C04046710   6.739   7.709   2.282
    1STR   H04146711   6.660   7.775   2.295
    1STR   C04246712   6.669   7.607   2.369
    1STR   H04346713   6.724   7.516   2.369
    1STR   H04446714   6.568   7.586   2.343
    1STR   H04546715   6.657   7.640   2.471
    1STR   C04646716   6.875   7.733   2.346
    1STR   H04746717   6.862   7.771   2.448
    1STR   H04846718   6.922   7.637   2.349
    1STR   O04946719   6.965   7.814   2.278
    1STR   C05046720   7.100   7.790   2.312
    1STR   H05146721   7.126   7.691   2.276
    1STR   C05246722   7.162   7.900   2.231
    1STR   H05346723   7.112   7.993   2.256
    1STR   H05446724   7.148   7.878   2.126
    1STR   H05546725   7.266   7.916   2.254
    1STR   C05646726   7.148   7.803   2.458
    1STR   H05746727   7.165   7.908   2.476
    1STR   H05846728   7.071   7.772   2.528
    1STR   O05946729   7.268   7.729   2.484
    1STR   C06046730   7.373   7.800   2.551
    1STR   H06146731   7.342   7.898   2.583
    1STR   C06246732   7.424   7.730   2.677
    1STR   H06346733   7.483   7.643   2.651
    1STR   H06446734   7.344   7.706   2.746
    1STR   H06546735   7.491   7.792   2.734
    1STR   C06646736   7.490   7.816   2.456
    1STR   H06746737   7.585   7.820   2.509
    1STR   H06846738   7.495   7.725   2.397
    1STR   O06946739   7.470   7.932   2.377
    1STR   C07046740   7.539   8.049   2.420
    1STR   H07146741   7.646   8.034   2.412
    1STR   C07246742   7.502   8.156   2.318
    1STR   H07346743   7.399   8.188   2.329
    1STR   H07446744   7.510   8.125   2.215
    1STR   H07546745   7.568   8.242   2.326
    1STR   C07646746   7.511   8.095   2.565
    1STR   H07746747   7.559   8.191   2.578
    1STR   H07846748   7.404   8.107   2.578
    1STR   O07946749   7.565   8.005   2.663
    1STR   C08046750   7.554   8.037   2.802
    1STR   H08146751   7.599   7.953   2.856
    1STR   C08246752   7.641   8.160   2.831
    1STR   H08346753   7.600   8.251   2.789
    1STR   H08446754   7.741   8.146   2.790
    1STR   H08546755   7.652   8.175   2.939
    1STR   C08646756   7.409   8.050   2.857
    1STR   H08746757   7.410   8.096   2.955
    1STR   H08846758   7.354   8.117   2.792
    1STR   O08946759   7.334   7.930   2.875
    1STR   C09046760   7.193   7.955   2.880
    1STR   H09146761   7.174   8.049   2.927
    1STR   C09246762   7.141   7.953   2.738
    1STR   H09346763   7.166   7.855   2.700
    1STR   H09446764   7.183   8.032   2.677
    1STR   H09546765   7.032   7.957   2.733
    1STR   C09646766   7.113   7.855   2.961
    1STR   H09746767   7.117   7.765   2.903
    1STR   H09846768   7.164   7.834   3.055
    1STR   O09946769   6.977   7.899   2.977
    1STR   C10046770   6.891   7.813   3.052
    1STR   H10146771   6.906   7.710   3.017
    1STR   C10246772   6.928   7.826   3.200
    1STR   H10346773   6.914   7.929   3.234
    1STR   H10446774   7.032   7.801   3.217
    1STR   H10546775   6.868   7.760   3.263
    1STR   C10646776   6.741   7.847   3.038
    1STR   H10746777   6.687   7.785   3.110
    1STR   H10846778   6.722   7.951   3.065
    1STR   O10946779   6.686   7.824   2.909
    1STR   C11046780   6.546   7.793   2.903
    1STR   H11146781   6.541   7.699   2.954
    1STR   C11246782   6.449   7.883   2.984
    1STR   H11346783   6.444   7.986   2.949
    1STR   H11446784   6.475   7.887   3.089
    1STR   H11546785   6.348   7.844   2.977
    1STR   C11646786   6.503   7.765   2.757
    1STR   H11746787   6.585   7.717   2.703
    1STR   H11846788   6.424   7.691   2.760
    1STR   O11946789   6.441   7.871   2.684
    1STR   C12046790   6.521   7.965   2.611
    1STR   H12146791   6.448   8.038   2.577
    1STR   C12246792   6.612   8.031   2.713
    1STR   H12346793   6.563   8.059   2.805
    1STR   H12446794   6.647   8.125   2.678
    1STR   H12546795   6.700   7.972   2.737
    1STR   C12646796   6.591   7.900   2.487
    1STR   H12746797   6.660   7.830   2.533
    1STR   H12846798   6.517   7.843   2.432
    1STR   O12946799   6.683   7.974   2.401
    1STR   C13046800   6.670   8.004   2.257
    1STR   H13146801   6.736   7.932   2.223
    1STR   C13246802   6.528   7.987   2.199
    1STR   H13346803   6.454   8.055   2.240
    1STR   H13446804   6.488   7.891   2.220
    1STR   H13546805   6.527   8.000   2.091
    1STR   C13646806   6.756   8.109   2.179
    1STR   H13746807   6.704   8.127   2.085
    1STR   H13846808   6.764   8.207   2.224
    1STR   O13946809   6.886   8.064   2.143
    1STR   C14046810   6.944   8.139   2.037
    1STR   H14146811   6.902   8.239   2.033
    1STR   C14246812   7.091   8.154   2.063
    1STR   H14346813   7.150   8.067   2.036
    1STR   H14446814   7.114   8.186   2.164
    1STR   H14546815   7.119   8.231   1.997
    1STR   C14646816   6.924   8.065   1.905
    1STR   H14746817   6.994   8.096   1.828
    1STR   H14846818   6.948   7.961   1.921
    1STR   O14946819   6.791   8.082   1.860
    1STR   C15046820   6.771   8.189   1.770
    1STR   H15146821   6.853   8.261   1.774
    1STR   C15246822   6.761   8.131   1.629
    1STR   H15346823   6.678   8.060   1.621
    1STR   H15446824   6.852   8.078   1.602
    1STR   H15546825   6.745   8.210   1.555
    1STR   C15646826   6.645   8.260   1.819
    1STR   H15746827   6.615   8.334   1.745
    1STR   H15846828   6.564   8.190   1.835
    1STR   O15946829   6.686   8.320   1.941
    1STR   C16046830   6.596   8.406   2.009
    1STR   H16146831   6.656   8.442   2.091
    1STR   C16246832   6.554   8.522   1.919
    1STR   H16346833   6.482   8.492   1.844
    1STR   H16446834   6.642   8.563   1.869
    1STR   H16546835   6.510   8.600   1.980
    1STR   C16646836   6.481   8.337   2.084
    1STR   H16746837   6.409   8.412   2.116
    1STR   H16846838   6.429   8.268   2.018
    1STR   O16946839   6.535   8.264   2.194
    1STR   C17046840   6.528   8.314   2.327
    1STR   H17146841   6.570   8.413   2.328
    1STR   C17246842   6.376   8.318   2.358
    1STR   H17346843   6.326   8.231   2.318
    1STR   H17446844   6.329   8.407   2.317
    1STR   H17546845   6.354   8.320   2.465
    1STR   C17646846   6.602   8.224   2.435
    1STR   H17746847   6.554   8.235   2.530
    1STR   H17846848   6.548   8.135   2.415
    1STR   O17946849   6.753   8.214   2.447
    1STR   C18046850   6.848   8.140   2.539
    1STR   H18146851   6.811   8.045   2.574
    1STR   C18246852   6.951   8.092   2.439
    1STR   H18346853   6.971   8.165   2.362
    1STR   H18446854   6.916   8.005   2.387
    1STR   H18546855   7.046   8.068   2.484
    1STR   C18646856   6.930   8.204   2.664
    1STR   H18746857   7.036   8.194   2.648
    1STR   H18846858   6.921   8.310   2.667
    1STR   O18946859   6.926   8.149   2.798
    1STR   C19046860   6.961   8.240   2.906
    1STR   H19146861   6.923   8.336   2.878
    1STR   C19246862   6.883   8.198   3.032
    1STR   H19346863   6.930   8.113   3.079
    1STR   H19446864   6.781   8.169   3.007
    1STR   H19546865   6.878   8.279   3.104
    1STR   C19646866   7.105   8.280   2.944
    1STR   H19746867   7.098   8.378   2.990
    1STR   H19846868   7.144   8.220   3.025
    1STR   O19946869   7.196   8.282   2.835
    1STR   C20046870   7.290   8.389   2.838
    1STR   H20146871   7.231   8.478   2.838
    1STR   C20246872   7.382   8.389   2.961
    1STR   H20346873   7.449   8.304   2.963
    1STR   H20446874   7.326   8.390   3.054
    1STR   H20546875   7.445   8.478   2.961
    1STR   C20646876   7.363   8.395   2.705
    1STR   H20746877   7.453   8.458   2.709
    1STR   H20846878   7.391   8.297   2.673
    1STR   O20946879   7.272   8.454   2.617
    1STR   C21046880   7.288   8.434   2.479
    1STR   H21146881   7.238   8.516   2.432
    1STR   C21246882   7.432   8.446   2.427
    1STR   H21346883   7.499   8.377   2.477
    1STR   H21446884   7.470   8.546   2.445
    1STR   H21546885   7.435   8.430   2.320
    1STR   C21646886   7.199   8.318   2.440
    1STR   H21746887   7.203   8.296   2.334
    1STR   H21846888   7.231   8.227   2.491
    1STR   O21946889   7.066   8.345   2.486
    1STR   C22046890   6.984   8.446   2.429
    1STR   H22146891   7.033   8.539   2.453
    1STR   C22246892   6.989   8.428   2.276
    1STR   H22346893   6.949   8.332   2.244
    1STR   H22446894   7.087   8.442   2.233
    1STR   H22546895   6.927   8.501   2.228
    1STR   C22646896   6.835   8.465   2.482
    1STR   H22746897   6.822   8.565   2.457
    1STR   H22846898   6.763   8.428   2.412
    1STR   O22946899   6.789   8.482   2.619
    1STR   C23046900   6.678   8.405   2.674
    1STR   H23146901   6.700   8.313   2.632
    1STR   C23246902   6.689   8.361   2.819
    1STR   H23346903   6.734   8.264   2.822
    1STR   H23446904   6.597   8.334   2.867
    1STR   H23546905   6.739   8.432   2.882
    1STR   C23646906   6.532   8.440   2.644
    1STR   H23746907   6.507   8.537   2.679
    1STR   H23846908   6.512   8.451   2.538
    1STR   O23946909   6.439   8.353   2.707
    1STR   C24046910   6.352   8.424   2.794
    1STR   H24146911   6.304   8.498   2.731
    1STR   C24246912   6.244   8.323   2.835
    1STR   H24346913   6.289   8.239   2.888
    1STR   H24446914   6.195   8.284   2.746
    1STR   H24546915   6.169   8.370   2.898
    1STR   C24646916   6.420   8.496   2.916
    1STR   H24746917   6.346   8.560   2.960
    1STR   H24846918   6.445   8.421   2.991
    1STR   O24946919   6.536   8.578   2.888
    1STR   C25046920   6.605   8.655   2.987
    1STR   H25146921   6.553   8.751   2.993
    1STR   C25246922   6.599   8.583   3.122
    1STR   H25346923   6.639   8.481   3.112
    1STR   H25446924   6.498   8.576   3.161
    1STR   H25546925   6.661   8.633   3.196
    1STR   C25646926   6.756   8.681   2.953
    1STR   H25746927   6.793   8.754   3.024
    1STR   H25846928   6.813   8.593   2.979
    1STR   O25946929   6.794   8.724   2.820
    1STR   C26046930   6.937   8.725   2.796
    1STR   H26146931   6.982   8.771   2.883
    1STR   C26246932   6.996   8.586   2.801
    1STR   H26346933   7.063   8.561   2.720
    1STR   H26446934   6.917   8.515   2.791
    1STR   H26546935   7.041   8.565   2.897
    1STR   C26646936   6.987   8.810   2.676
    1STR   H26746937   6.911   8.880   2.645
    1STR   H26846938   7.062   8.880   2.712
    1STR   O26946939   7.036   8.733   2.564
    1STR   C27046940   7.072   8.806   2.445
    1STR   H27146941   7.117   8.897   2.480
    1STR   C27246942   7.174   8.742   2.354
    1STR   H27346943   7.135   8.657   2.298
    1STR   H27446944   7.257   8.710   2.413
    1STR   H27546945   7.208   8.814   2.280
    1STR   C27646946   6.957   8.830   2.351
    1STR   H27746947   6.896   8.898   2.405
    1STR   H27846948   6.992   8.882   2.263
    1STR   O27946949   6.888   8.710   2.316
    1STR   C28046950   6.773   8.723   2.234
    1STR   H28146951   6.766   8.827   2.226
    1STR   C28246952   6.809   8.674   2.095
    1STR   H28346953   6.806   8.568   2.080
    1STR   H28446954   6.912   8.700   2.074
    1STR   H28546955   6.744   8.723   2.022
    1STR   C28646956   6.629   8.681   2.280
    1STR   H28746957   6.560   8.764   2.272
    1STR   H28846958   6.590   8.609   2.209
    1STR   O28946959   6.607   8.623   2.407
    1STR   C29046960   6.597   8.707   2.521
    1STR   H29146961   6.631   8.658   2.610
    1STR   C29246962   6.706   8.800   2.530
    1STR   H29346963   6.702   8.861   2.443
    1STR   H29446964   6.798   8.745   2.533
    1STR   H29546965   6.701   8.853   2.623
    1STR   C29646966   6.462   8.772   2.546
    1STR   H29746967   6.469   8.836   2.634
    1STR   H29846968   6.435   8.833   2.459
    1STR   O29946969   6.364   8.675   2.576
    1STR   C30046970   6.235   8.728   2.589
    1STR   H30146971   6.238   8.833   2.561
    1STR   C30246972   6.161   8.645   2.486
    1STR   H30346973   6.182   8.539   2.500
    1STR   H30446974   6.194   8.671   2.385
    1STR   H30546975   6.055   8.660   2.495
    1STR   C30646976   6.174   8.723   2.730
    1STR   H30746977   6.081   8.780   2.727
    1STR   H30846978   6.144   8.623   2.761
    1STR   O30946979   6.264   8.778   2.825
    1STR    H1R46980   6.106   8.869   2.924
    1STR    H1S46981   6.125   8.761   3.135
    1STR    H1T46982   6.283   8.697   3.098
    1STR    H1U46983   6.139   8.633   3.016
    1STR    H1V46984   6.297   8.944   3.103
    1STR    H1W46985   6.236   9.037   2.971
    1STR    H1X46986   6.636   9.014   2.869
    1STR    H1Y46987   6.830   9.100   2.747
    1STR    H1Z46988   6.934   9.113   2.539
    1STR    H2046989   6.809   9.017   2.236
    1STR    H2146990   6.762   9.181   2.245
    1STR    H2246991   6.926   9.128   2.291
    1STR    H2346992   6.455   9.140   2.313
    1STR    H2746993   6.453   9.049   2.559
    1STR    H2846994   6.847   7.478   3.084
    1STR    H2946995   6.605   7.520   3.092
    1STR    H2A46996   6.379   7.371   2.933
    1STR    H2B46997   6.371   7.485   2.801
    1STR    H2C46998   6.387   7.541   2.970
    1STR   BCK146999   7.075   7.233   4.395
    1STR    O0347000   7.035   7.182   4.499
    1STR    N0447001   7.178   7.317   4.391
    1STR    C0547002   7.240   7.371   4.279
    1STR    C0647003   7.172   7.446   4.183
    1STR    C0747004   7.238   7.496   4.069
    1STR    N0847005   7.178   7.575   3.972
    1STR    C0947006   7.054   7.619   3.954
    1STR    O0A47007   7.033   7.689   3.856
    1STR    O0B47008   6.962   7.579   4.043
    1STR    C0C47009   6.861   7.669   4.085
    1STR    C0D47010   6.764   7.700   3.969
    1STR    C0E47011   6.790   7.625   4.214
    1STR    O0F47012   6.885   7.591   4.314
    1STR    C0G47013   6.832   7.577   4.446
    1STR    C0H47014   6.894   7.464   4.527
    1STR    C0I47015   6.874   7.700   4.518
    1STR    O0J47016   6.801   7.703   4.641
    1STR    C0K47017   7.050   8.767   4.726
    1STR    C0M47018   6.920   8.731   4.792
    1STR    C0N47019   7.042   8.889   4.645
    1STR    O0O47020   7.128   8.864   4.536
    1STR    C0P47021   7.218   8.948   4.496
    1STR    O0Q47022   7.234   9.059   4.542
    1STR    N0R47023   7.288   8.909   4.390
    1STR    C0S47024   7.241   8.839   4.279
    1STR    C0T47025   7.317   8.843   4.161
    1STR    C0U47026   7.261   8.798   4.039
    1STR    C0V47027   7.131   8.742   4.036
    1STR    C0W47028   7.067   8.707   3.904
    1STR    C0X47029   7.059   8.726   4.155
    1STR    N0Y47030   6.946   8.647   4.169
    1STR   BCK247031   6.817   8.663   4.139
    1STR    O1047032   6.737   8.583   4.183
    1STR    C1347033   7.113   8.779   4.273
    1STR    C1447034   7.375   7.473   4.053
    1STR    C1547035   7.445   7.399   4.150
    1STR    C1647036   7.377   7.349   4.262
    1STR    C1747037   7.449   7.266   4.364
    1STR    H1B47038   7.226   7.325   4.479
    1STR    H1C47039   7.069   7.467   4.202
    1STR    H1D47040   7.237   7.617   3.903
    1STR    H1E47041   6.915   7.759   4.115
    1STR    H1F47042   6.747   7.616   3.903
    1STR    H1G47043   6.668   7.736   4.003
    1STR    H1H47044   6.807   7.776   3.905
    1STR    H1I47045   6.721   7.543   4.197
    1STR    H1J47046   6.729   7.708   4.249
    1STR    H1K47047   6.724   7.568   4.445
    1STR    H1M47048   7.001   7.464   4.508
    1STR    H1N47049   6.853   7.365   4.512
    1STR    H1O47050   6.881   7.480   4.632
    1STR    H1P47051   6.982   7.703   4.529
    1STR    H1Q47052   6.853   7.780   4.450
    1STR   C01047053   6.873   7.748   4.753
    1STR   H01147054   6.930   7.830   4.716
    1STR   C01247055   6.777   7.793   4.863
    1STR   H01347056   6.758   7.713   4.935
    1STR   H01447057   6.680   7.819   4.822
    1STR   H01547058   6.817   7.877   4.919
    1STR   C01647059   6.972   7.650   4.811
    1STR   H01747060   7.018   7.696   4.897
    1STR   H01847061   6.917   7.562   4.842
    1STR   O01947062   7.072   7.616   4.718
    1STR   C02047063   7.163   7.521   4.768
    1STR   H02147064   7.186   7.545   4.872
    1STR   C02247065   7.106   7.381   4.754
    1STR   H02347066   7.100   7.350   4.651
    1STR   H02447067   7.008   7.371   4.797
    1STR   H02547068   7.165   7.306   4.803
    1STR   C02647069   7.290   7.537   4.689
    1STR   H02747070   7.295   7.470   4.604
    1STR   H02847071   7.289   7.636   4.645
    1STR   O02947072   7.398   7.515   4.780
    1STR   C03047073   7.454   7.634   4.832
    1STR   H03147074   7.368   7.699   4.844
    1STR   C03247075   7.499   7.616   4.977
    1STR   H03347076   7.536   7.517   5.000
    1STR   H03447077   7.414   7.631   5.044
    1STR   H03547078   7.576   7.688   5.004
    1STR   C03647079   7.557   7.698   4.732
    1STR   H03747080   7.577   7.796   4.768
    1STR   H03847081   7.658   7.665   4.735
    1STR   O03947082   7.503   7.689   4.598
    1STR   C04047083   7.578   7.710   4.479
    1STR   H04147084   7.624   7.809   4.471
    1STR   C04247085   7.688   7.608   4.465
    1STR   H04347086   7.641   7.510   4.476
    1STR   H04447087   7.767   7.621   4.539
    1STR   H04547088   7.732   7.613   4.366
    1STR   C04647089   7.479   7.691   4.362
    1STR   H04747090   7.532   7.668   4.270
    1STR   H04847091   7.417   7.604   4.383
    1STR   O04947092   7.399   7.806   4.339
    1STR   C05047093   7.294   7.784   4.245
    1STR   H05147094   7.328   7.712   4.171
    1STR   C05247095   7.170   7.732   4.318
    1STR   H05347096   7.191   7.647   4.384
    1STR   H05447097   7.097   7.700   4.245
    1STR   H05547098   7.122   7.809   4.376
    1STR   C05647099   7.263   7.913   4.170
    1STR   H05747100   7.224   7.988   4.239
    1STR   H05847101   7.355   7.952   4.127
    1STR   O05947102   7.167   7.885   4.068
    1STR   C06047103   7.141   7.995   3.981
    1STR   H06147104   7.160   8.086   4.038
    1STR   C06247105   7.241   7.987   3.865
    1STR   H06347106   7.228   7.894   3.810
    1STR   H06447107   7.344   7.991   3.900
    1STR   H06547108   7.227   8.070   3.796
    1STR   C06647109   6.994   7.996   3.932
    1STR   H06747110   6.970   8.090   3.884
    1STR   H06847111   6.979   7.921   3.854
    1STR   O06947112   6.906   7.969   4.039
    1STR   C07047113   6.779   8.034   4.043
    1STR   H07147114   6.795   8.139   4.059
    1STR   C07247115   6.694   8.028   3.915
    1STR   H07347116   6.656   7.929   3.892
    1STR   H07447117   6.750   8.064   3.828
    1STR   H07547118   6.608   8.094   3.926
    1STR   C07647119   6.704   7.982   4.167
    1STR   H07747120   6.629   8.057   4.190
    1STR   H07847121   6.646   7.892   4.145
    1STR   O07947122   6.789   7.951   4.279
    1STR   C08047123   6.733   7.989   4.404
    1STR   H08147124   6.701   8.089   4.389
    1STR   C08247125   6.614   7.899   4.433
    1STR   H08347126   6.638   7.795   4.414
    1STR   H08447127   6.531   7.928   4.371
    1STR   H08547128   6.582   7.901   4.537
    1STR   C08647129   6.823   8.004   4.529
    1STR   H08747130   6.807   8.102   4.571
    1STR   H08847131   6.786   7.942   4.610
    1STR   O08947132   6.961   7.979   4.509
    1STR   C09047133   7.052   8.046   4.595
    1STR   H09147134   7.067   8.148   4.563
    1STR   C09247135   7.017   8.047   4.745
    1STR   H09347136   6.912   8.062   4.765
    1STR   H09447137   7.072   8.126   4.796
    1STR   H09547138   7.054   7.960   4.800
    1STR   C09647139   7.184   7.974   4.576
    1STR   H09747140   7.167   7.867   4.583
    1STR   H09847141   7.228   7.996   4.478
    1STR   O09947142   7.263   8.023   4.681
    1STR   C10047143   7.369   7.940   4.717
    1STR   H10147144   7.337   7.838   4.703
    1STR   C10247145   7.477   7.972   4.615
    1STR   H10347146   7.490   8.075   4.599
    1STR   H10447147   7.447   7.935   4.518
    1STR   H10547148   7.577   7.937   4.635
    1STR   C10647149   7.399   7.962   4.868
    1STR   H10747150   7.500   7.936   4.895
    1STR   H10847151   7.390   8.066   4.894
    1STR   O10947152   7.307   7.890   4.949
    1STR   C11047153   7.302   7.921   5.089
    1STR   H11147154   7.258   7.833   5.136
    1STR   C11247155   7.441   7.944   5.152
    1STR   H11347156   7.489   8.034   5.115
    1STR   H11447157   7.507   7.859   5.134
    1STR   H11547158   7.431   7.954   5.260
    1STR   C11647159   7.207   8.040   5.110
    1STR   H11747160   7.247   8.111   5.183
    1STR   H11847161   7.196   8.092   5.015
    1STR   O11947162   7.080   7.993   5.153
    1STR   C12047163   6.983   8.095   5.173
    1STR   H12147164   7.021   8.169   5.243
    1STR   C12247165   6.941   8.153   5.039
    1STR   H12347166   6.911   8.072   4.975
    1STR   H12447167   7.019   8.211   4.992
    1STR   H12547168   6.853   8.215   5.049
    1STR   C12647169   6.861   8.025   5.231
    1STR   H12747170   6.833   7.952   5.156
    1STR   H12847171   6.890   7.975   5.324
    1STR   O12947172   6.745   8.104   5.249
    1STR   C13047173   6.635   8.027   5.299
    1STR   H13147174   6.647   7.922   5.275
    1STR   C13247175   6.636   8.044   5.451
    1STR   H13347176   6.731   8.015   5.494
    1STR   H13447177   6.559   7.983   5.498
    1STR   H13547178   6.619   8.148   5.479
    1STR   C13647179   6.501   8.068   5.234
    1STR   H13747180   6.421   8.015   5.285
    1STR   H13847181   6.483   8.174   5.247
    1STR   O13947182   6.500   8.034   5.096
    1STR   C14047183   6.372   8.038   5.032
    1STR   H14147184   6.306   7.974   5.091
    1STR   C14247185   6.313   8.179   5.030
    1STR   H14347186   6.385   8.250   4.990
    1STR   H14447187   6.286   8.213   5.130
    1STR   H14547188   6.223   8.183   4.968
    1STR   C14647189   6.381   7.971   4.892
    1STR   H14747190   6.468   7.905   4.887
    1STR   H14847191   6.297   7.903   4.885
    1STR   O14947192   6.367   8.053   4.774
    1STR   C15047193   6.469   8.145   4.735
    1STR   H15147194   6.433   8.240   4.771
    1STR   C15247195   6.606   8.111   4.801
    1STR   H15347196   6.604   8.123   4.909
    1STR   H15447197   6.692   8.168   4.771
    1STR   H15547198   6.634   8.009   4.778
    1STR   C15647199   6.478   8.148   4.578
    1STR   H15747200   6.577   8.112   4.559
    1STR   H15847201   6.408   8.077   4.534
    1STR   O15947202   6.473   8.274   4.506
    1STR   C16047203   6.520   8.271   4.369
    1STR   H16147204   6.514   8.169   4.332
    1STR   C16247205   6.419   8.350   4.287
    1STR   H16347206   6.412   8.453   4.323
    1STR   H16447207   6.320   8.305   4.293
    1STR   H16547208   6.449   8.353   4.182
    1STR   C16647209   6.665   8.330   4.351
    1STR   H16747210   6.654   8.438   4.355
    1STR   H16847211   6.720   8.305   4.441
    1STR   O16947212   6.745   8.292   4.234
    1STR   C17047213   6.889   8.318   4.241
    1STR   H17147214   6.904   8.416   4.286
    1STR   C17247215   6.952   8.213   4.330
    1STR   H17347216   7.059   8.224   4.346
    1STR   H17447217   6.944   8.113   4.289
    1STR   H17547218   6.909   8.216   4.428
    1STR   C17647219   6.985   8.306   4.119
    1STR   H17747220   7.086   8.318   4.158
    1STR   H17847221   6.984   8.204   4.086
    1STR   O17947222   6.982   8.392   4.005
    1STR   C18047223   7.089   8.359   3.914
    1STR   H18147224   7.100   8.252   3.912
    1STR   C18247225   7.049   8.390   3.770
    1STR   H18347226   7.028   8.494   3.752
    1STR   H18447227   6.959   8.334   3.744
    1STR   H18547228   7.127   8.359   3.701
    1STR   C18647229   7.230   8.411   3.954
    1STR   H18747230   7.260   8.496   3.894
    1STR   H18847231   7.230   8.447   4.057
    1STR   O18947232   7.323   8.303   3.935
    1STR   C19047233   7.454   8.309   3.992
    1STR   H19147234   7.503   8.216   3.962
    1STR   C19247235   7.534   8.426   3.935
    1STR   H19347236   7.498   8.523   3.972
    1STR   H19447237   7.529   8.427   3.826
    1STR   H19547238   7.639   8.417   3.963
    1STR   C19647239   7.446   8.308   4.145
    1STR   H19747240   7.420   8.408   4.181
    1STR   H19847241   7.362   8.242   4.167
    1STR   O19947242   7.563   8.260   4.214
    1STR   C20047243   7.556   8.281   4.356
    1STR   H20147244   7.558   8.388   4.373
    1STR   C20247245   7.425   8.222   4.407
    1STR   H20347246   7.415   8.116   4.384
    1STR   H20447247   7.336   8.273   4.374
    1STR   H20547248   7.423   8.236   4.514
    1STR   C20647249   7.676   8.226   4.440
    1STR   H20747250   7.668   8.118   4.449
    1STR   H20847251   7.770   8.247   4.390
    1STR   O20947252   7.678   8.294   4.568
    1STR   C21047253   7.697   8.216   4.688
    1STR   H21147254   7.685   8.111   4.667
    1STR   C21247255   7.841   8.223   4.742
    1STR   H21347256   7.871   8.322   4.774
    1STR   H21447257   7.912   8.190   4.666
    1STR   H21547258   7.851   8.158   4.828
    1STR   C21647259   7.591   8.256   4.794
    1STR   H21747260   7.608   8.206   4.890
    1STR   H21847261   7.594   8.360   4.813
    1STR   O21947262   7.462   8.230   4.747
    1STR   C22047263   7.346   8.288   4.803
    1STR   H22147264   7.262   8.224   4.782
    1STR   C22247265   7.346   8.311   4.953
    1STR   H22347266   7.374   8.414   4.971
    1STR   H22447267   7.410   8.246   5.011
    1STR   H22547268   7.245   8.303   4.993
    1STR   C22647269   7.315   8.415   4.730
    1STR   H22747270   7.226   8.456   4.777
    1STR   H22847271   7.400   8.481   4.738
    1STR   O22947272   7.286   8.390   4.595
    1STR   C23047273   7.259   8.508   4.524
    1STR   H23147274   7.220   8.580   4.591
    1STR   C23247275   7.384   8.567   4.460
    1STR   H23347276   7.400   8.528   4.360
    1STR   H23447277   7.472   8.549   4.521
    1STR   H23547278   7.374   8.675   4.450
    1STR   C23647279   7.144   8.477   4.430
    1STR   H23747280   7.102   8.567   4.390
    1STR   H23847281   7.180   8.419   4.346
    1STR   O23947282   7.047   8.401   4.500
    1STR   C24047283   6.971   8.465   4.600
    1STR   H24147284   7.037   8.506   4.674
    1STR   C24247285   6.876   8.564   4.530
    1STR   H24347286   6.804   8.604   4.598
    1STR   H24447287   6.821   8.518   4.451
    1STR   H24547288   6.926   8.650   4.488
    1STR   C24647289   6.907   8.355   4.681
    1STR   H24747290   6.845   8.293   4.619
    1STR   H24847291   6.991   8.295   4.711
    1STR   O24947292   6.847   8.388   4.805
    1STR   C25047293   6.722   8.455   4.812
    1STR   H25147294   6.734   8.562   4.803
    1STR   C25247295   6.629   8.418   4.698
    1STR   H25347296   6.526   8.417   4.728
    1STR   H25447297   6.648   8.321   4.657
    1STR   H25547298   6.636   8.481   4.611
    1STR   C25647299   6.666   8.438   4.954
    1STR   H25747300   6.614   8.529   4.977
    1STR   H25847301   6.596   8.355   4.961
    1STR   O25947302   6.769   8.423   5.050
    1STR   C26047303   6.752   8.483   5.177
    1STR   H26147304   6.741   8.591   5.167
    1STR   C26247305   6.627   8.426   5.247
    1STR   H26347306   6.645   8.323   5.278
    1STR   H26447307   6.539   8.427   5.184
    1STR   H26547308   6.603   8.482   5.337
    1STR   C26647309   6.880   8.450   5.257
    1STR   H26747310   6.860   8.458   5.363
    1STR   H26847311   6.902   8.345   5.244
    1STR   O26947312   6.993   8.535   5.232
    1STR   C27047313   7.094   8.480   5.148
    1STR   H27147314   7.106   8.373   5.167
    1STR   C27247315   7.051   8.505   5.004
    1STR   H27347316   6.953   8.549   5.002
    1STR   H27447317   7.048   8.414   4.944
    1STR   H27547318   7.114   8.575   4.951
    1STR   C27647319   7.229   8.549   5.179
    1STR   H27747320   7.257   8.613   5.096
    1STR   H27847321   7.219   8.612   5.268
    1STR   O27947322   7.338   8.459   5.195
    1STR   C28047323   7.461   8.524   5.226
    1STR   H28147324   7.453   8.632   5.216
    1STR   C28247325   7.477   8.497   5.376
    1STR   H28347326   7.481   8.390   5.396
    1STR   H28447327   7.391   8.536   5.429
    1STR   H28547328   7.566   8.544   5.416
    1STR   C28647329   7.583   8.470   5.146
    1STR   H28747330   7.675   8.509   5.189
    1STR   H28847331   7.586   8.363   5.162
    1STR   O28947332   7.587   8.487   5.003
    1STR   C29047333   7.656   8.598   4.945
    1STR   H29147334   7.747   8.615   5.003
    1STR   C29247335   7.695   8.575   4.798
    1STR   H29347336   7.609   8.552   4.736
    1STR   H29447337   7.769   8.499   4.787
    1STR   H29547338   7.734   8.664   4.752
    1STR   C29647339   7.568   8.720   4.953
    1STR   H29747340   7.494   8.700   5.028
    1STR   H29847341   7.631   8.800   4.991
    1STR   O29947342   7.506   8.759   4.828
    1STR   C30047343   7.380   8.822   4.844
    1STR   H30147344   7.363   8.825   4.948
    1STR   C30247345   7.350   8.962   4.788
    1STR   H30347346   7.387   8.972   4.689
    1STR   H30447347   7.387   9.048   4.843
    1STR   H30547348   7.245   8.984   4.787
    1STR   C30647349   7.279   8.734   4.782
    1STR   H30747350   7.298   8.741   4.675
    1STR   H30847351   7.300   8.638   4.824
    1STR   O30947352   7.151   8.771   4.824
    1STR    H1R47353   7.071   8.693   4.653
    1STR    H1S47354   6.910   8.775   4.888
    1STR    H1T47355   6.923   8.626   4.811
    1STR    H1U47356   6.832   8.757   4.735
    1STR    H1V47357   7.057   8.977   4.704
    1STR    H1W47358   6.941   8.891   4.609
    1STR    H1X47359   7.377   8.957   4.384
    1STR    H1Y47360   7.416   8.887   4.161
    1STR    H1Z47361   7.318   8.809   3.949
    1STR    H2047362   6.996   8.627   3.918
    1STR    H2147363   7.010   8.793   3.869
    1STR    H2247364   7.141   8.680   3.829
    1STR    H2347365   6.958   8.562   4.220
    1STR    H2747366   7.047   8.776   4.357
    1STR    H2847367   7.429   7.509   3.967
    1STR    H2947368   7.550   7.378   4.135
    1STR    H2A47369   7.383   7.189   4.400
    1STR    H2B47370   7.485   7.328   4.446
    1STR    H2C47371   7.529   7.209   4.323
    1STR   BCK147372   6.586   7.318   7.132
    1STR    O0347373   6.622   7.223   7.199
    1STR    N0447374   6.508   7.416   7.180
    1STR    C0547375   6.464   7.449   7.311
    1STR    C0647376   6.554   7.465   7.417
    1STR    C0747377   6.518   7.523   7.541
    1STR    N0847378   6.617   7.564   7.628
    1STR    C0947379   6.616   7.640   7.737
    1STR    O0A47380   6.517   7.694   7.786
    1STR    O0B47381   6.738   7.649   7.790
    1STR    C0C47382   6.831   7.742   7.741
    1STR    C0D47383   6.891   7.823   7.856
    1STR    C0E47384   6.932   7.673   7.650
    1STR    O0F47385   6.864   7.582   7.565
    1STR    C0G47386   6.884   7.576   7.424
    1STR    C0H47387   6.775   7.650   7.347
    1STR    C0I47388   7.022   7.615   7.376
    1STR    O0J47389   7.100   7.501   7.350
    1STR    C0K47390   6.435   8.653   6.794
    1STR    C0M47391   6.484   8.680   6.936
    1STR    C0N47392   6.301   8.714   6.758
    1STR    O0O47393   6.233   8.759   6.873
    1STR    C0P47394   6.131   8.701   6.934
    1STR    O0Q47395   6.047   8.630   6.881
    1STR    N0R47396   6.131   8.722   7.065
    1STR    C0S47397   6.222   8.795   7.144
    1STR    C0T47398   6.240   8.767   7.281
    1STR    C0U47399   6.347   8.821   7.352
    1STR    C0V47400   6.437   8.908   7.289
    1STR    C0W47401   6.549   8.967   7.368
    1STR    C0X47402   6.416   8.942   7.154
    1STR    N0Y47403   6.502   9.030   7.093
    1STR   BCK247404   6.519   9.077   6.970
    1STR    O1047405   6.610   9.152   6.952
    1STR    C1347406   6.305   8.892   7.089
    1STR    C1447407   6.383   7.549   7.568
    1STR    C1547408   6.290   7.532   7.466
    1STR    C1647409   6.332   7.489   7.339
    1STR    C1747410   6.228   7.496   7.233
    1STR    H1B47411   6.484   7.489   7.115
    1STR    H1C47412   6.656   7.440   7.396
    1STR    H1D47413   6.715   7.543   7.602
    1STR    H1E47414   6.776   7.812   7.680
    1STR    H1F47415   6.962   7.766   7.916
    1STR    H1G47416   6.942   7.911   7.819
    1STR    H1H47417   6.812   7.857   7.923
    1STR    H1I47418   7.009   7.621   7.704
    1STR    H1J47419   6.984   7.753   7.600
    1STR    H1K47420   6.870   7.472   7.395
    1STR    H1M47421   6.697   7.683   7.413
    1STR    H1N47422   6.729   7.588   7.271
    1STR    H1O47423   6.810   7.735   7.291
    1STR    H1P47424   7.006   7.672   7.285
    1STR    H1Q47425   7.080   7.680   7.440
    1STR   C01047426   7.199   7.530   7.259
    1STR   H01147427   7.200   7.635   7.248
    1STR   C01247428   7.339   7.517   7.319
    1STR   H01347429   7.358   7.423   7.366
    1STR   H01447430   7.353   7.593   7.396
    1STR   H01547431   7.413   7.537   7.243
    1STR   C01647432   7.156   7.480   7.119
    1STR   H01747433   7.205   7.535   7.041
    1STR   H01847434   7.178   7.378   7.101
    1STR   O01947435   7.016   7.497   7.108
    1STR   C02047436   6.951   7.495   6.983
    1STR   H02147437   6.912   7.398   6.953
    1STR   C02247438   6.834   7.576   7.025
    1STR   H02347439   6.860   7.656   7.092
    1STR   H02447440   6.766   7.514   7.080
    1STR   H02547441   6.786   7.620   6.940
    1STR   C02647442   7.031   7.548   6.865
    1STR   H02747443   7.085   7.637   6.889
    1STR   H02847444   7.107   7.473   6.853
    1STR   O02947445   6.960   7.558   6.741
    1STR   C03047446   6.939   7.691   6.694
    1STR   H03147447   6.877   7.731   6.771
    1STR   C03247448   7.065   7.779   6.674
    1STR   H03347449   7.102   7.777   6.573
    1STR   H03447450   7.148   7.757   6.740
    1STR   H03547451   7.043   7.884   6.691
    1STR   C03647452   6.851   7.698   6.568
    1STR   H03747453   6.808   7.795   6.566
    1STR   H03847454   6.907   7.697   6.476
    1STR   O03947455   6.742   7.609   6.563
    1STR   C04047456   6.635   7.654   6.643
    1STR   H04147457   6.665   7.741   6.696
    1STR   C04247458   6.510   7.687   6.560
    1STR   H04347459   6.472   7.596   6.519
    1STR   H04447460   6.529   7.752   6.475
    1STR   H04547461   6.431   7.731   6.619
    1STR   C04647462   6.613   7.544   6.742
    1STR   H04747463   6.599   7.458   6.678
    1STR   H04847464   6.705   7.518   6.792
    1STR   O04947465   6.502   7.565   6.831
    1STR   C05047466   6.518   7.650   6.944
    1STR   H05147467   6.594   7.614   7.009
    1STR   C05247468   6.545   7.786   6.897
    1STR   H05347469   6.515   7.855   6.972
    1STR   H05447470   6.486   7.807   6.809
    1STR   H05547471   6.650   7.805   6.880
    1STR   C05647472   6.396   7.664   7.033
    1STR   H05747473   6.322   7.733   6.993
    1STR   H05847474   6.350   7.566   7.027
    1STR   O05947475   6.443   7.698   7.166
    1STR   C06047476   6.409   7.825   7.225
    1STR   H06147477   6.431   7.901   7.153
    1STR   C06247478   6.258   7.838   7.250
    1STR   H06347479   6.225   7.768   7.327
    1STR   H06447480   6.199   7.820   7.160
    1STR   H06547481   6.233   7.938   7.284
    1STR   C06647482   6.486   7.858   7.359
    1STR   H06747483   6.434   7.940   7.408
    1STR   H06847484   6.480   7.773   7.427
    1STR   O06947485   6.625   7.896   7.345
    1STR   C07047486   6.694   7.979   7.441
    1STR   H07147487   6.696   8.081   7.404
    1STR   C07247488   6.626   7.983   7.579
    1STR   H07347489   6.592   7.885   7.610
    1STR   H07447490   6.538   8.047   7.577
    1STR   H07547491   6.693   8.023   7.655
    1STR   C07647492   6.844   7.937   7.442
    1STR   H07747493   6.850   7.837   7.477
    1STR   H07847494   6.878   7.934   7.339
    1STR   O07947495   6.937   8.013   7.521
    1STR   C08047496   7.080   8.004   7.495
    1STR   H08147497   7.103   8.109   7.515
    1STR   C08247498   7.166   7.932   7.599
    1STR   H08347499   7.180   7.827   7.576
    1STR   H08447500   7.126   7.943   7.699
    1STR   H08547501   7.266   7.975   7.599
    1STR   C08647502   7.133   7.984   7.350
    1STR   H08747503   7.058   8.015   7.281
    1STR   H08847504   7.219   8.050   7.338
    1STR   O08947505   7.175   7.855   7.305
    1STR   C09047506   7.205   7.857   7.164
    1STR   H09147507   7.234   7.956   7.141
    1STR   C09247508   7.334   7.782   7.122
    1STR   H09347509   7.327   7.679   7.096
    1STR   H09447510   7.413   7.788   7.195
    1STR   H09547511   7.366   7.818   7.026
    1STR   C09647512   7.086   7.818   7.073
    1STR   H09747513   7.114   7.826   6.969
    1STR   H09847514   7.066   7.715   7.087
    1STR   O09947515   6.966   7.886   7.101
    1STR   C10047516   6.869   7.900   6.997
    1STR   H10147517   6.862   7.807   6.948
    1STR   C10247518   6.748   7.917   7.085
    1STR   H10347519   6.769   7.985   7.166
    1STR   H10447520   6.709   7.824   7.123
    1STR   H10547521   6.671   7.965   7.028
    1STR   C10647522   6.868   8.008   6.883
    1STR   H10747523   6.792   8.082   6.902
    1STR   H10847524   6.955   8.069   6.876
    1STR   O10947525   6.837   7.953   6.755
    1STR   C11047526   6.793   8.043   6.654
    1STR   H11147527   6.798   8.145   6.691
    1STR   C11247528   6.882   8.034   6.528
    1STR   H11347529   6.904   7.939   6.483
    1STR   H11447530   6.980   8.075   6.550
    1STR   H11547531   6.838   8.092   6.448
    1STR   C11647532   6.645   8.009   6.626
    1STR   H11747533   6.598   8.065   6.547
    1STR   H11847534   6.635   7.910   6.589
    1STR   O11947535   6.581   8.012   6.751
    1STR   C12047536   6.468   8.092   6.772
    1STR   H12147537   6.480   8.186   6.722
    1STR   C12247538   6.339   8.022   6.727
    1STR   H12347539   6.319   7.930   6.781
    1STR   H12447540   6.341   7.999   6.621
    1STR   H12547541   6.252   8.085   6.746
    1STR   C12647542   6.472   8.123   6.921
    1STR   H12747543   6.393   8.189   6.951
    1STR   H12847544   6.447   8.036   6.978
    1STR   O12947545   6.599   8.177   6.958
    1STR   C13047546   6.606   8.231   7.089
    1STR   H13147547   6.557   8.325   7.076
    1STR   C13247548   6.530   8.146   7.191
    1STR   H13347549   6.566   8.047   7.185
    1STR   H13447550   6.423   8.142   7.177
    1STR   H13547551   6.547   8.173   7.294
    1STR   C13647552   6.746   8.274   7.138
    1STR   H13747553   6.760   8.379   7.111
    1STR   H13847554   6.741   8.275   7.247
    1STR   O13947555   6.857   8.197   7.092
    1STR   C14047556   6.987   8.238   7.136
    1STR   H14147557   7.005   8.336   7.104
    1STR   C14247558   6.985   8.248   7.288
    1STR   H14347559   6.926   8.169   7.333
    1STR   H14447560   6.937   8.339   7.320
    1STR   H14547561   7.084   8.248   7.333
    1STR   C14647562   7.105   8.156   7.074
    1STR   H14747563   7.190   8.157   7.140
    1STR   H14847564   7.070   8.060   7.068
    1STR   O14947565   7.149   8.178   6.940
    1STR   C15047566   7.204   8.075   6.856
    1STR   H15147567   7.143   7.987   6.862
    1STR   C15247568   7.186   8.127   6.714
    1STR   H15347569   7.254   8.208   6.693
    1STR   H15447570   7.085   8.166   6.702
    1STR   H15547571   7.202   8.049   6.639
    1STR   C15647572   7.350   8.032   6.874
    1STR   H15747573   7.361   7.929   6.840
    1STR   H15847574   7.416   8.087   6.808
    1STR   O15947575   7.387   8.046   7.010
    1STR   C16047576   7.524   8.039   7.041
    1STR   H16147577   7.555   8.133   7.003
    1STR   C16247578   7.541   8.044   7.193
    1STR   H16347579   7.523   7.949   7.242
    1STR   H16447580   7.473   8.116   7.239
    1STR   H16547581   7.643   8.071   7.221
    1STR   C16647582   7.611   7.931   6.971
    1STR   H16747583   7.710   7.927   7.017
    1STR   H16847584   7.569   7.833   6.991
    1STR   O16947585   7.622   7.951   6.829
    1STR   C17047586   7.739   8.019   6.780
    1STR   H17147587   7.830   7.964   6.801
    1STR   C17247588   7.717   8.052   6.630
    1STR   H17347589   7.615   8.087   6.614
    1STR   H17447590   7.732   7.972   6.560
    1STR   H17547591   7.785   8.130   6.595
    1STR   C17647592   7.759   8.151   6.846
    1STR   H17747593   7.827   8.214   6.788
    1STR   H17847594   7.658   8.187   6.838
    1STR   O17947595   7.805   8.153   6.980
    1STR   C18047596   7.763   8.269   7.051
    1STR   H18147597   7.670   8.253   7.104
    1STR   C18247598   7.863   8.290   7.165
    1STR   H18347599   7.964   8.308   7.127
    1STR   H18447600   7.867   8.201   7.228
    1STR   H18547601   7.834   8.373   7.228
    1STR   C18647602   7.738   8.398   6.970
    1STR   H18747603   7.669   8.448   7.035
    1STR   H18847604   7.833   8.450   6.971
    1STR   O18947605   7.692   8.401   6.833
    1STR   C19047606   7.554   8.411   6.787
    1STR   H19147607   7.528   8.513   6.766
    1STR   C19247608   7.543   8.347   6.649
    1STR   H19347609   7.641   8.321   6.610
    1STR   H19447610   7.500   8.417   6.578
    1STR   H19547611   7.480   8.258   6.649
    1STR   C19647612   7.438   8.370   6.877
    1STR   H19747613   7.345   8.384   6.821
    1STR   H19847614   7.446   8.266   6.898
    1STR   O19947615   7.430   8.440   6.999
    1STR   C20047616   7.312   8.408   7.068
    1STR   H20147617   7.287   8.311   7.035
    1STR   C20247618   7.344   8.383   7.216
    1STR   H20347619   7.344   8.471   7.278
    1STR   H20447620   7.442   8.335   7.226
    1STR   H20547621   7.274   8.315   7.262
    1STR   C20647622   7.199   8.509   7.036
    1STR   H20747623   7.117   8.494   7.103
    1STR   H20847624   7.232   8.608   7.063
    1STR   O20947625   7.156   8.532   6.901
    1STR   C21047626   7.056   8.447   6.843
    1STR   H21147627   7.089   8.348   6.839
    1STR   C21247628   6.914   8.446   6.900
    1STR   H21347629   6.848   8.517   6.854
    1STR   H21447630   6.910   8.472   7.004
    1STR   H21547631   6.866   8.349   6.886
    1STR   C21647632   7.045   8.479   6.697
    1STR   H21747633   6.943   8.459   6.666
    1STR   H21847634   7.066   8.583   6.683
    1STR   O21947635   7.130   8.399   6.619
    1STR   C22047636   7.105   8.413   6.482
    1STR   H22147637   7.086   8.518   6.458
    1STR   C22247638   7.238   8.368   6.422
    1STR   H22347639   7.234   8.366   6.313
    1STR   H22447640   7.265   8.268   6.457
    1STR   H22547641   7.317   8.435   6.455
    1STR   C22647642   6.989   8.328   6.428
    1STR   H22747643   6.961   8.370   6.331
    1STR   H22847644   7.028   8.229   6.405
    1STR   O22947645   6.877   8.308   6.516
    1STR   C23047646   6.753   8.368   6.480
    1STR   H23147647   6.787   8.470   6.473
    1STR   C23247648   6.701   8.312   6.346
    1STR   H23347649   6.665   8.210   6.357
    1STR   H23447650   6.773   8.313   6.265
    1STR   H23547651   6.616   8.372   6.312
    1STR   C23647652   6.642   8.355   6.589
    1STR   H23747653   6.613   8.254   6.589
    1STR   H23847654   6.679   8.370   6.690
    1STR   O23947655   6.526   8.436   6.567
    1STR   C24047656   6.392   8.381   6.557
    1STR   H24147657   6.345   8.465   6.505
    1STR   C24247658   6.378   8.268   6.453
    1STR   H24347659   6.273   8.246   6.434
    1STR   H24447660   6.425   8.176   6.486
    1STR   H24547661   6.421   8.296   6.357
    1STR   C24647662   6.294   8.364   6.679
    1STR   H24747663   6.223   8.446   6.674
    1STR   H24847664   6.229   8.279   6.658
    1STR   O24947665   6.339   8.350   6.815
    1STR   C25047666   6.243   8.389   6.917
    1STR   H25147667   6.234   8.493   6.894
    1STR   C25247668   6.109   8.317   6.899
    1STR   H25347669   6.121   8.209   6.909
    1STR   H25447670   6.062   8.339   6.804
    1STR   H25547671   6.038   8.349   6.975
    1STR   C25647672   6.278   8.389   7.070
    1STR   H25747673   6.195   8.438   7.121
    1STR   H25847674   6.280   8.288   7.108
    1STR   O25947675   6.396   8.458   7.110
    1STR   C26047676   6.410   8.492   7.249
    1STR   H26147677   6.324   8.550   7.271
    1STR   C26247678   6.404   8.380   7.353
    1STR   H26347679   6.504   8.348   7.378
    1STR   H26447680   6.340   8.297   7.325
    1STR   H26547681   6.365   8.419   7.447
    1STR   C26647682   6.538   8.576   7.272
    1STR   H26747683   6.625   8.521   7.236
    1STR   H26847684   6.537   8.669   7.216
    1STR   O26947685   6.543   8.600   7.413
    1STR   C27047686   6.667   8.634   7.473
    1STR   H27147687   6.701   8.732   7.443
    1STR   C27247688   6.631   8.645   7.621
    1STR   H27347689   6.591   8.552   7.659
    1STR   H27447690   6.556   8.723   7.635
    1STR   H27547691   6.718   8.672   7.680
    1STR   C27647692   6.777   8.528   7.451
    1STR   H27747693   6.842   8.521   7.538
    1STR   H27847694   6.731   8.430   7.441
    1STR   O27947695   6.853   8.556   7.333
    1STR   C28047696   6.970   8.633   7.356
    1STR   H28147697   6.943   8.712   7.426
    1STR   C28247698   7.083   8.544   7.411
    1STR   H28347699   7.113   8.471   7.337
    1STR   H28447700   7.057   8.492   7.502
    1STR   H28547701   7.174   8.601   7.432
    1STR   C28647702   7.020   8.706   7.231
    1STR   H28747703   7.008   8.812   7.234
    1STR   H28847704   7.128   8.697   7.225
    1STR   O28947705   6.965   8.665   7.109
    1STR   C29047706   6.835   8.707   7.070
    1STR   H29147707   6.770   8.619   7.072
    1STR   C29247708   6.769   8.813   7.153
    1STR   H29347709   6.828   8.903   7.154
    1STR   H29447710   6.755   8.780   7.254
    1STR   H29547711   6.671   8.838   7.112
    1STR   C29647712   6.848   8.760   6.929
    1STR   H29747713   6.842   8.867   6.932
    1STR   H29847714   6.939   8.726   6.880
    1STR   O29947715   6.736   8.722   6.857
    1STR   C30047716   6.735   8.770   6.726
    1STR   H30147717   6.795   8.861   6.714
    1STR   C30247718   6.778   8.656   6.641
    1STR   H30347719   6.745   8.564   6.685
    1STR   H30447720   6.882   8.653   6.617
    1STR   H30547721   6.725   8.664   6.549
    1STR   C30647722   6.593   8.799   6.689
    1STR   H30747723   6.557   8.867   6.761
    1STR   H30847724   6.587   8.844   6.590
    1STR   O30947725   6.521   8.678   6.687
    1STR    H1R47726   6.431   8.546   6.789
    1STR    H1S47727   6.518   8.782   6.952
    1STR    H1T47728   6.563   8.610   6.963
    1STR    H1U47729   6.405   8.663   7.008
    1STR    H1V47730   6.242   8.647   6.696
    1STR    H1W47731   6.319   8.803   6.699
    1STR    H1X47732   6.057   8.672   7.110
    1STR    H1Y47733   6.183   8.695   7.336
    1STR    H1Z47734   6.362   8.792   7.455
    1STR    H2047735   6.560   8.918   7.464
    1STR    H2147736   6.644   8.960   7.317
    1STR    H2247737   6.528   9.072   7.383
    1STR    H2347738   6.557   9.087   7.157
    1STR    H2747739   6.288   8.929   6.991
    1STR    H2847740   6.349   7.587   7.663
    1STR    H2947741   6.188   7.559   7.485
    1STR    H2A47742   6.225   7.593   7.188
    1STR    H2B47743   6.130   7.491   7.278
    1STR    H2C47744   6.245   7.418   7.160
    1STR   BCK147745   9.134   9.231   0.484
    1STR    O0347746   9.254   9.222   0.470
    1STR    N0447747   9.052   9.147   0.549
    1STR    C0547748   9.091   9.022   0.596
    1STR    C0647749   9.224   9.005   0.639
    1STR    C0747750   9.287   8.880   0.651
    1STR    N0847751   0.105   8.869   0.677
    1STR    C0947752   0.212   8.954   0.683
    1STR    O0A47753   0.320   8.911   0.716
    1STR    O0B47754   0.197   9.079   0.638
    1STR    C0C47755   0.312   9.161   0.610
    1STR    C0D47756   0.264   9.256   0.500
    1STR    C0E47757   0.385   9.244   0.719
    1STR    O0F47758   0.437   9.190   0.838
    1STR    C0G47759   0.522   9.282   0.909
    1STR    C0H47760   0.668   9.271   0.867
    1STR    C0I47761   0.474   0.107   0.939
    1STR    O0J47762   0.461   0.187   0.823
    1STR    C0K47763   8.779   0.541   1.941
    1STR    C0M47764   8.738   0.667   2.012
    1STR    C0N47765   8.799   0.415   2.027
    1STR    O0O47766   8.888   0.335   1.953
    1STR    C0P47767   9.000   0.281   1.997
    1STR    O0Q47768   9.046   0.283   2.109
    1STR    N0R47769   9.059   0.225   1.896
    1STR    C0S47770   9.127   0.105   1.894
    1STR    C0T47771   9.049   9.311   1.901
    1STR    C0U47772   9.106   9.189   1.864
    1STR    C0V47773   9.240   9.173   1.840
    1STR    C0W47774   9.282   9.034   1.813
    1STR    C0X47775   0.003   9.285   1.844
    1STR    N0Y47776   0.138   9.269   1.829
    1STR   BCK247777   0.211   0.010   1.738
    1STR    O1047778   0.166   0.100   1.669
    1STR    C1347779   9.261   0.091   1.855
    1STR    C1447780   9.202   8.768   0.634
    1STR    C1547781   9.065   8.782   0.608
    1STR    C1647782   9.007   8.909   0.589
    1STR    C1747783   8.857   8.918   0.566
    1STR    H1B47784   8.954   9.170   0.546
    1STR    H1C47785   9.287   9.091   0.649
    1STR    H1D47786   0.141   8.781   0.707
    1STR    H1E47787   0.383   9.094   0.568
    1STR    H1F47788   0.258   0.040   0.526
    1STR    H1G47789   0.324   9.251   0.411
    1STR    H1H47790   0.165   9.230   0.467
    1STR    H1I47791   0.323   0.003   0.750
    1STR    H1J47792   0.466   9.297   0.678
    1STR    H1K47793   0.524   9.238   1.005
    1STR    H1M47794   0.697   0.032   0.801
    1STR    H1N47795   0.687   9.176   0.818
    1STR    H1O47796   0.733   9.278   0.954
    1STR    H1P47797   0.381   0.107   0.994
    1STR    H1Q47798   0.548   0.152   1.006
    1STR   C01047799   0.416   0.321   0.843
    1STR   H01147800   0.334   0.323   0.916
    1STR   C01247801   0.534   0.408   0.890
    1STR   H01347802   0.610   0.417   0.812
    1STR   H01447803   0.583   0.367   0.977
    1STR   H01547804   0.501   0.509   0.915
    1STR   C01647805   0.364   0.373   0.708
    1STR   H01747806   0.431   0.448   0.668
    1STR   H01847807   0.359   0.293   0.636
    1STR   O01947808   0.234   0.428   0.713
    1STR   C02047809   0.227   0.560   0.762
    1STR   H02147810   0.292   0.573   0.849
    1STR   C02247811   0.257   0.663   0.655
    1STR   H02347812   0.192   0.645   0.570
    1STR   H02447813   0.360   0.658   0.619
    1STR   H02547814   0.239   0.764   0.691
    1STR   C02647815   0.084   0.571   0.810
    1STR   H02747816   0.071   0.479   0.863
    1STR   H02847817   0.069   0.656   0.877
    1STR   O02947818   9.308   0.567   0.707
    1STR   C03047819   9.180   0.548   0.762
    1STR   H03147820   9.182   0.494   0.857
    1STR   C03247821   9.117   0.686   0.788
    1STR   H03347822   9.154   0.761   0.718
    1STR   H03447823   9.145   0.721   0.887
    1STR   H03547824   9.009   0.683   0.783
    1STR   C03647825   9.104   0.456   0.669
    1STR   H03747826   8.997   0.462   0.686
    1STR   H03847827   9.116   0.488   0.567
    1STR   O03947828   9.157   0.324   0.681
    1STR   C04047829   9.081   0.225   0.749
    1STR   H04147830   9.068   0.250   0.854
    1STR   C04247831   8.947   0.207   0.680
    1STR   H04347832   8.898   0.113   0.703
    1STR   H04447833   8.958   0.209   0.574
    1STR   H04547834   8.879   0.288   0.709
    1STR   C04647835   9.148   0.088   0.740
    1STR   H04747836   9.079   0.008   0.754
    1STR   H04847837   9.184   0.072   0.645
    1STR   O04947838   9.263   0.070   0.815
    1STR   C05047839   0.051   9.317   0.759
    1STR   H05147840   0.045   9.293   0.655
    1STR   C05247841   0.134   0.129   0.771
    1STR   H05347842   0.078   0.223   0.777
    1STR   H05447843   0.193   0.148   0.682
    1STR   H05547844   0.198   0.129   0.858
    1STR   C05647845   0.094   9.187   0.845
    1STR   H05747846   0.199   9.166   0.851
    1STR   H05847847   0.075   9.247   0.925
    1STR   O05947848   0.026   9.056   0.864
    1STR   C06047849   0.052   8.953   0.969
    1STR   H06147850   0.100   8.998   1.052
    1STR   C06247851   9.233   8.906   1.006
    1STR   H06347852   9.192   8.841   0.930
    1STR   H06447853   9.171   8.992   1.017
    1STR   H06547854   9.228   8.847   1.097
    1STR   C06647855   0.114   8.809   0.959
    1STR   H06747856   0.103   8.758   1.054
    1STR   H06847857   0.054   8.749   0.891
    1STR   O06947858   0.246   8.788   0.918
    1STR   C07047859   0.346   8.761   1.013
    1STR   H07147860   0.322   8.668   1.064
    1STR   C07247861   0.476   8.743   0.936
    1STR   H07347862   0.507   8.839   0.895
    1STR   H07447863   0.462   8.676   0.852
    1STR   H07547864   0.557   8.705   0.998
    1STR   C07647865   0.354   8.877   1.113
    1STR   H07747866   0.280   8.856   1.189
    1STR   H07847867   0.452   8.875   1.161
    1STR   O07947868   0.327   9.004   1.051
    1STR   C08047869   0.311   9.109   1.145
    1STR   H08147870   0.264   9.063   1.226
    1STR   C08247871   0.453   9.132   1.202
    1STR   H08347872   0.480   9.236   1.213
    1STR   H08447873   0.529   9.086   1.139
    1STR   H08547874   0.466   9.083   1.298
    1STR   C08647875   0.207   9.228   1.114
    1STR   H08747876   0.227   9.310   1.178
    1STR   H08847877   0.242   9.273   1.022
    1STR   O08947878   0.058   9.200   1.126
    1STR   C09047879   9.258   9.287   1.100
    1STR   H09147880   9.206   9.292   1.194
    1STR   C09247881   9.305   0.113   1.081
    1STR   H09347882   0.083   0.123   1.037
    1STR   H09447883   9.306   0.169   1.173
    1STR   H09547884   9.236   0.170   1.020
    1STR   C09647885   9.139   9.248   0.992
    1STR   H09747886   9.094   0.024   0.969
    1STR   H09847887   9.179   9.201   0.904
    1STR   O09947888   9.009   9.182   1.004
    1STR   C10047889   8.948   9.118   0.890
    1STR   H10147890   8.989   9.155   0.798
    1STR   C10247891   8.964   8.966   0.887
    1STR   H10347892   8.968   8.916   0.982
    1STR   H10447893   9.055   8.946   0.834
    1STR   H10547894   8.887   8.913   0.832
    1STR   C10647895   8.799   9.140   0.881
    1STR   H10747896   8.757   9.077   0.802
    1STR   H10847897   8.752   9.108   0.974
    1STR   O10947898   8.769   9.273   0.847
    1STR   C11047899   8.636   9.291   0.803
    1STR   H11147900   8.645   9.264   0.699
    1STR   C11247901   8.527   9.201   0.870
    1STR   H11347902   8.538   9.188   0.977
    1STR   H11447903   8.529   9.100   0.830
    1STR   H11547904   8.427   9.241   0.854
    1STR   C11647905   8.601   0.120   0.802
    1STR   H11747906   8.672   0.177   0.743
    1STR   H11847907   8.507   0.129   0.750
    1STR   O11947908   8.577   0.184   0.925
    1STR   C12047909   8.681   0.185   1.021
    1STR   H12147910   8.643   0.261   1.087
    1STR   C12247911   8.679   0.053   1.101
    1STR   H12347912   8.579   0.013   1.110
    1STR   H12447913   8.710   0.063   1.202
    1STR   H12547914   8.750   9.300   1.068
    1STR   C12647915   8.817   0.244   0.979
    1STR   H12747916   8.897   0.205   1.041
    1STR   H12847917   8.839   0.202   0.885
    1STR   O12947918   8.803   0.388   0.987
    1STR   C13047919   8.913   0.480   0.981
    1STR   H13147920   8.948   0.480   0.880
    1STR   C13247921   8.851   0.615   1.015
    1STR   H13347922   8.812   0.615   1.116
    1STR   H13447923   8.770   0.639   0.946
    1STR   H13547924   8.926   0.695   1.009
    1STR   C13647925   9.033   0.453   1.075
    1STR   H13747926   8.990   0.436   1.173
    1STR   H13847927   9.082   0.364   1.038
    1STR   O13947928   9.135   0.554   1.088
    1STR   C14047929   9.242   0.510   1.174
    1STR   H14147930   9.202   0.444   1.249
    1STR   C14247931   0.030   0.430   1.100
    1STR   H14347932   0.109   0.495   1.064
    1STR   H14447933   9.310   0.370   1.020
    1STR   H14547934   0.081   0.364   1.169
    1STR   C14647935   9.313   0.622   1.252
    1STR   H14747936   0.041   0.692   1.184
    1STR   H14847937   9.242   0.677   1.314
    1STR   O14947938   0.086   0.551   1.336
    1STR   C15047939   0.216   0.604   1.351
    1STR   H15147940   0.250   0.652   1.259
    1STR   C15247941   0.210   0.707   1.464
    1STR   H15347942   0.179   0.660   1.558
    1STR   H15447943   0.139   0.786   1.442
    1STR   H15547944   0.308   0.753   1.481
    1STR   C15647945   0.312   0.487   1.380
    1STR   H15747946   0.407   0.529   1.413
    1STR   H15847947   0.276   0.425   1.462
    1STR   O15947948   0.327   0.409   1.262
    1STR   C16047949   0.444   0.328   1.245
    1STR   H16147950   0.430   0.283   1.147
    1STR   C16247951   0.567   0.420   1.234
    1STR   H16347952   0.593   0.468   1.328
    1STR   H16447953   0.550   0.500   1.162
    1STR   H16547954   0.655   0.364   1.201
    1STR   C16647955   0.463   0.211   1.345
    1STR   H16747956   0.567   0.178   1.336
    1STR   H16847957   0.452   0.245   1.447
    1STR   O16947958   0.390   0.090   1.316
    1STR   C17047959   0.278   0.063   1.401
    1STR   H17147960   0.313   0.101   1.496
    1STR   C17247961   0.166   0.152   1.353
    1STR   H17347962   0.195   0.208   1.265
    1STR   H17447963   0.130   0.220   1.429
    1STR   H17547964   0.086   0.087   1.323
    1STR   C17647965   0.235   9.231   1.426
    1STR   H17747966   0.321   9.165   1.428
    1STR   H17847967   0.193   9.229   1.523
    1STR   O17947968   0.121   9.170   1.364
    1STR   C18047969   0.083   9.030   1.384
    1STR   H18147970   0.152   8.959   1.341
    1STR   C18247971   0.084   8.986   1.527
    1STR   H18347972   0.064   9.071   1.589
    1STR   H18447973   0.178   8.940   1.551
    1STR   H18547974   0.009   8.911   1.548
    1STR   C18647975   9.271   8.997   1.313
    1STR   H18747976   9.294   9.012   1.211
    1STR   H18847977   9.243   8.892   1.325
    1STR   O18947978   9.163   9.083   1.342
    1STR   C19047979   9.049   9.097   1.254
    1STR   H19147980   9.109   9.104   1.170
    1STR   C19247981   8.965   8.970   1.228
    1STR   H19347982   8.902   8.938   1.310
    1STR   H19447983   9.025   8.886   1.196
    1STR   H19547984   8.890   8.993   1.152
    1STR   C19647985   8.952   9.222   1.277
    1STR   H19747986   8.852   9.188   1.253
    1STR   H19847987   8.955   9.243   1.381
    1STR   O19947988   8.952   0.033   1.215
    1STR   C20047989   8.933   0.146   1.305
    1STR   H20147990   8.926   0.113   1.408
    1STR   C20247991   9.065   0.214   1.277
    1STR   H20347992   9.069   0.313   1.321
    1STR   H20447993   9.083   0.216   1.171
    1STR   H20547994   9.151   0.165   1.318
    1STR   C20647995   8.819   0.255   1.298
    1STR   H20747996   8.854   0.346   1.345
    1STR   H20847997   8.809   0.299   1.203
    1STR   O20947998   8.690   0.221   1.354
    1STR   C21047999   8.576   0.309   1.337
    1STR   H21148000   8.536   0.321   1.436
    1STR   C21248001   8.611   0.452   1.290
    1STR   H21348002   8.643   0.456   1.187
    1STR   H21448003   8.689   0.498   1.351
    1STR   H21548004   8.524   0.518   1.299
    1STR   C21648005   8.451   0.251   1.260
    1STR   H21748006   8.388   0.335   1.231
    1STR   H21848007   8.472   0.200   1.167
    1STR   O21948008   8.365   0.164   1.331
    1STR   C22048009   8.423   0.043   1.377
    1STR   H22148010   8.527   0.043   1.350
    1STR   C22248011   8.405   0.056   1.528
    1STR   H22348012   8.330   0.131   1.553
    1STR   H22448013   8.496   0.098   1.569
    1STR   H22548014   8.384   9.283   1.578
    1STR   C22648015   8.361   9.236   1.312
    1STR   H22748016   8.259   9.219   1.343
    1STR   H22848017   8.354   9.260   1.205
    1STR   O22948018   8.442   9.117   1.313
    1STR   C23048019   8.459   9.038   1.432
    1STR   H23148020   8.479   9.101   1.518
    1STR   C23248021   8.345   8.942   1.464
    1STR   H23348022   8.266   8.950   1.391
    1STR   H23448023   8.310   8.963   1.565
    1STR   H23548024   8.376   8.838   1.468
    1STR   C23648025   8.581   8.948   1.409
    1STR   H23748026   8.601   8.881   1.492
    1STR   H23848027   8.563   8.885   1.322
    1STR   O23948028   8.692   9.026   1.380
    1STR   C24048029   8.747   9.101   1.487
    1STR   H24148030   8.845   9.090   1.451
    1STR   C24248031   8.714   9.247   1.485
    1STR   H24348032   8.706   9.281   1.384
    1STR   H24448033   8.792   9.306   1.532
    1STR   H24548034   8.624   9.262   1.541
    1STR   C24648035   8.753   9.049   1.628
    1STR   H24748036   8.787   9.125   1.698
    1STR   H24848037   8.654   9.017   1.658
    1STR   O24948038   8.842   8.941   1.629
    1STR   C25048039   8.980   8.970   1.638
    1STR   H25148040   9.012   8.937   1.736
    1STR   C25248041   9.037   8.871   1.536
    1STR   H25348042   9.050   8.910   1.439
    1STR   H25448043   8.978   8.784   1.518
    1STR   H25548044   9.139   8.846   1.555
    1STR   C25648045   9.044   9.108   1.598
    1STR   H25748046   9.151   9.098   1.603
    1STR   H25848047   9.029   9.105   1.497
    1STR   O25948048   9.003   9.245   1.614
    1STR   C26048049   9.110   0.020   1.584
    1STR   H26148050   9.173   9.319   1.663
    1STR   C26248051   9.217   9.310   1.484
    1STR   H26348052   9.292   0.068   1.486
    1STR   H26448053   9.178   9.300   1.386
    1STR   H26548054   9.275   9.224   1.510
    1STR   C26648055   9.094   0.171   1.598
    1STR   H26748056   9.059   0.218   1.511
    1STR   H26848057   9.018   0.191   1.670
    1STR   O26948058   9.222   0.231   1.620
    1STR   C27048059   9.234   0.367   1.656
    1STR   H27148060   9.183   0.382   1.750
    1STR   C27248061   0.063   0.390   1.680
    1STR   H27348062   0.089   0.494   1.670
    1STR   H27448063   0.124   0.337   1.607
    1STR   H27548064   0.095   0.357   1.779
    1STR   C27648065   9.186   0.463   1.547
    1STR   H27748066   9.209   0.567   1.571
    1STR   H27848067   9.243   0.437   1.458
    1STR   O27948068   9.049   0.450   1.514
    1STR   C28048069   8.956   0.484   1.614
    1STR   H28148070   8.995   0.476   1.715
    1STR   C28248071   8.913   0.628   1.585
    1STR   H28348072   8.875   0.637   1.483
    1STR   H28448073   8.997   0.697   1.596
    1STR   H28548074   8.835   0.659   1.653
    1STR   C28648075   8.842   0.382   1.600
    1STR   H28748076   8.755   0.428   1.555
    1STR   H28848077   8.873   0.303   1.534
    1STR   O28948078   8.818   0.304   1.715
    1STR   C29048079   8.713   0.209   1.701
    1STR   H29148080   8.702   0.178   1.598
    1STR   C29248081   8.749   0.087   1.784
    1STR   H29348082   8.759   0.112   1.889
    1STR   H29448083   8.843   0.047   1.747
    1STR   H29548084   8.675   0.008   1.772
    1STR   C29648085   8.583   0.274   1.748
    1STR   H29748086   8.500   0.204   1.750
    1STR   H29848087   8.598   0.307   1.850
    1STR   O29948088   8.560   0.373   1.651
    1STR   C30048089   8.518   0.503   1.683
    1STR   H30148090   8.568   0.569   1.612
    1STR   C30248091   8.370   0.508   1.650
    1STR   H30348092   8.323   0.417   1.686
    1STR   H30448093   8.356   0.506   1.542
    1STR   H30548094   8.320   0.595   1.691
    1STR   C30648095   8.564   0.550   1.822
    1STR   H30748096   8.540   0.656   1.832
    1STR   H30848097   8.515   0.497   1.903
    1STR   O30948098   8.704   0.529   1.821
    1STR    H1R48099   8.879   0.560   1.903
    1STR    H1S48100   8.786   0.677   2.109
    1STR    H1T48101   8.631   0.677   2.029
    1STR    H1U48102   8.768   0.746   1.945
    1STR    H1V48103   8.706   0.361   2.047
    1STR    H1W48104   8.843   0.439   2.123
    1STR    H1X48105   9.011   0.251   1.811
    1STR    H1Y48106   8.946   9.319   1.929
    1STR    H1Z48107   9.055   9.096   1.857
    1STR    H2048108   0.063   9.034   1.786
    1STR    H2148109   9.258   8.983   1.903
    1STR    H2248110   9.230   8.977   1.738
    1STR    H2348111   0.181   9.206   1.897
    1STR    H2748112   9.319   0.178   1.831
    1STR    H2848113   9.240   8.667   0.637
    1STR    H2948114   9.004   8.693   0.601
    1STR    H2A48115   8.827   8.884   0.467
    1STR    H2B48116   8.820   9.019   0.582
    1STR    H2C48117   8.804   8.854   0.637
    1STR   BCK148118   0.437   9.238   2.824
    1STR    O0348119   0.378   9.132   2.823
    1STR    N0448120   0.570   9.233   2.838
    1STR    C0548121   0.660   0.001   2.898
    1STR    C0648122   0.633   0.138   2.904
    1STR    C0748123   0.700   0.224   2.990
    1STR    N0848124   0.624   0.335   3.018
    1STR    C0948125   0.637   0.464   3.039
    1STR    O0A48126   0.741   0.530   3.047
    1STR    O0B48127   0.511   0.502   3.045
    1STR    C0C48128   0.467   0.634   3.065
    1STR    C0D48129   0.469   0.712   2.936
    1STR    C0E48130   0.324   0.627   3.123
    1STR    O0F48131   0.215   0.632   3.030
    1STR    C0G48132   0.160   0.515   2.972
    1STR    C0H48133   0.259   0.404   2.939
    1STR    C0I48134   0.035   0.460   3.039
    1STR    O0J48135   9.284   0.371   2.956
    1STR    C0K48136   1.211   8.906   3.825
    1STR    C0M48137   1.156   8.900   3.682
    1STR    C0N48138   1.300   9.031   3.846
    1STR    O0O48139   1.228   9.152   3.825
    1STR    C0P48140   1.157   9.203   3.925
    1STR    O0Q48141   1.156   9.159   4.039
    1STR    N0R48142   1.086   9.309   3.884
    1STR    C0S48143   0.983   0.051   3.955
    1STR    C0T48144   0.950   0.185   3.928
    1STR    C0U48145   0.838   0.243   3.992
    1STR    C0V48146   0.758   0.169   4.081
    1STR    C0W48147   0.641   0.236   4.145
    1STR    C0X48148   0.790   0.034   4.109
    1STR    N0Y48149   0.720   9.261   4.184
    1STR   BCK248150   0.616   9.237   4.264
    1STR    O1048151   0.607   9.121   4.301
    1STR    C1348152   0.902   9.299   4.045
    1STR    C1448153   0.815   0.180   3.057
    1STR    C1548154   0.851   0.044   3.045
    1STR    C1648155   0.769   9.273   2.974
    1STR    C1748156   0.793   9.123   2.990
    1STR    H1B48157   0.601   9.138   2.828
    1STR    H1C48158   0.553   0.179   2.847
    1STR    H1D48159   0.525   0.317   3.021
    1STR    H1E48160   0.533   0.679   3.139
    1STR    H1F48161   0.415   0.660   2.856
    1STR    H1G48162   0.414   0.803   2.954
    1STR    H1H48163   0.570   0.733   2.901
    1STR    H1I48164   0.310   0.718   3.181
    1STR    H1J48165   0.314   0.544   3.190
    1STR    H1K48166   0.129   0.557   2.879
    1STR    H1M48167   0.306   0.359   3.026
    1STR    H1N48168   0.336   0.450   2.882
    1STR    H1O48169   0.215   0.324   2.880
    1STR    H1P48170   0.072   0.405   3.123
    1STR    H1Q48171   9.290   0.539   3.076
    1STR   C01048172   9.216   0.268   3.026
    1STR   H01148173   9.255   0.257   3.125
    1STR   C01248174   9.073   0.310   3.051
    1STR   H01348175   9.016   0.331   2.964
    1STR   H01448176   9.072   0.401   3.111
    1STR   H01548177   9.017   0.234   3.103
    1STR   C01648178   9.244   0.134   2.957
    1STR   H01748179   9.189   0.124   2.865
    1STR   H01848180   0.028   0.138   2.926
    1STR   O01948181   9.225   0.027   3.050
    1STR   C02048182   9.296   9.224   3.028
    1STR   H02148183   9.276   9.184   2.930
    1STR   C02248184   0.128   9.229   3.025
    1STR   H02348185   0.168   0.001   2.990
    1STR   H02448186   0.167   9.148   2.964
    1STR   H02548187   0.168   9.213   3.124
    1STR   C02648188   9.256   9.123   3.135
    1STR   H02748189   9.290   9.154   3.233
    1STR   H02848190   9.149   9.109   3.144
    1STR   O02948191   9.318   9.004   3.092
    1STR   C03048192   0.057   8.926   3.193
    1STR   H03148193   0.015   8.952   3.288
    1STR   C03248194   0.022   8.783   3.166
    1STR   H03348195   0.096   8.738   3.104
    1STR   H03448196   9.242   8.779   3.126
    1STR   H03548197   0.026   8.711   3.244
    1STR   C03648198   0.207   8.939   3.204
    1STR   H03748199   0.227   9.019   3.272
    1STR   H03848200   0.240   8.845   3.245
    1STR   O03948201   0.287   8.955   3.089
    1STR   C04048202   0.425   8.965   3.124
    1STR   H04148203   0.449   8.922   3.222
    1STR   C04248204   0.500   8.878   3.022
    1STR   H04348205   0.607   8.878   3.042
    1STR   H04448206   0.484   8.913   2.920
    1STR   H04548207   0.466   8.775   3.027
    1STR   C04648208   0.466   9.113   3.120
    1STR   H04748209   0.541   9.124   3.045
    1STR   H04848210   0.380   9.166   3.082
    1STR   O04948211   0.516   9.175   3.239
    1STR   C05048212   0.548   9.315   3.230
    1STR   H05148213   0.644   0.000   3.182
    1STR   C05248214   0.450   0.076   3.145
    1STR   H05348215   0.346   0.056   3.162
    1STR   H05448216   0.459   0.048   3.043
    1STR   H05548217   0.465   0.183   3.152
    1STR   C05648218   0.573   0.065   3.366
    1STR   H05748219   0.485   0.060   3.429
    1STR   H05848220   0.653   0.013   3.420
    1STR   O05948221   0.616   0.199   3.342
    1STR   C06048222   0.591   0.296   3.444
    1STR   H06148223   0.485   0.297   3.470
    1STR   C06248224   0.671   0.259   3.569
    1STR   H06348225   0.777   0.252   3.546
    1STR   H06448226   0.638   0.164   3.610
    1STR   H06548227   0.657   0.335   3.646
    1STR   C06648228   0.631   0.436   3.389
    1STR   H06748229   0.699   0.488   3.457
    1STR   H06848230   0.688   0.421   3.298
    1STR   O06948231   0.520   0.520   3.357
    1STR   C07048232   0.475   0.606   3.461
    1STR   H07148233   0.512   0.572   3.558
    1STR   C07248234   0.523   0.748   3.431
    1STR   H07348235   0.482   0.785   3.337
    1STR   H07448236   0.632   0.751   3.422
    1STR   H07548237   0.492   0.817   3.509
    1STR   C07648238   0.322   0.601   3.467
    1STR   H07748239   0.284   0.655   3.553
    1STR   H07848240   0.277   0.648   3.381
    1STR   O07948241   0.288   0.465   3.483
    1STR   C08048242   0.194   0.402   3.399
    1STR   H08148243   0.136   0.336   3.462
    1STR   C08248244   0.083   0.495   3.347
    1STR   H08348245   0.112   0.560   3.265
    1STR   H08448246   0.054   0.562   3.426
    1STR   H08548247   9.313   0.439   3.320
    1STR   C08648248   0.273   0.312   3.302
    1STR   H08748249   0.226   0.304   3.206
    1STR   H08848250   0.369   0.357   3.280
    1STR   O08948251   0.303   0.181   3.352
    1STR   C09048252   0.199   0.084   3.356
    1STR   H09148253   0.143   0.123   3.435
    1STR   C09248254   0.089   0.109   3.256
    1STR   H09348255   0.125   0.122   3.155
    1STR   H09448256   0.039   0.201   3.285
    1STR   H09548257   0.012   0.034   3.263
    1STR   C09648258   0.236   9.251   3.375
    1STR   H09748259   0.143   9.194   3.372
    1STR   H09848260   0.293   9.222   3.289
    1STR   O09948261   0.307   9.203   3.490
    1STR   C10048262   0.369   9.072   3.482
    1STR   H10148263   0.402   9.055   3.382
    1STR   C10248264   0.495   9.081   3.564
    1STR   H10348265   0.471   9.112   3.666
    1STR   H10448266   0.562   9.155   3.521
    1STR   H10548267   0.548   8.986   3.566
    1STR   C10648268   0.289   8.944   3.518
    1STR   H10748269   0.307   8.913   3.619
    1STR   H10848270   0.183   8.963   3.504
    1STR   O10948271   0.334   8.834   3.440
    1STR   C11048272   0.283   8.701   3.459
    1STR   H11148273   0.315   8.652   3.366
    1STR   C11248274   0.366   8.634   3.569
    1STR   H11348275   0.348   8.679   3.666
    1STR   H11448276   0.472   8.645   3.547
    1STR   H11548277   0.344   8.528   3.575
    1STR   C11648278   0.129   8.672   3.467
    1STR   H11748279   0.103   8.591   3.399
    1STR   H11848280   0.103   8.631   3.562
    1STR   O11948281   0.047   8.786   3.446
    1STR   C12048282   9.227   8.780   3.477
    1STR   H12148283   9.214   8.706   3.554
    1STR   C12248284   9.206   8.924   3.522
    1STR   H12348285   9.283   8.956   3.591
    1STR   H12448286   9.111   8.941   3.570
    1STR   H12548287   9.209   8.992   3.439
    1STR   C12648288   9.125   8.745   3.365
    1STR   H12748289   9.128   8.824   3.291
    1STR   H12848290   9.150   8.650   3.319
    1STR   O12948291   8.989   8.743   3.407
    1STR   C13048292   8.898   8.689   3.310
    1STR   H13148293   8.939   8.699   3.210
    1STR   C13248294   8.880   8.539   3.335
    1STR   H13348295   8.975   8.487   3.336
    1STR   H13448296   8.818   8.495   3.257
    1STR   H13548297   8.831   8.521   3.431
    1STR   C13648298   8.763   8.763   3.312
    1STR   H13748299   8.704   8.730   3.227
    1STR   H13848300   8.707   8.736   3.402
    1STR   O13948301   8.781   8.903   3.312
    1STR   C14048302   8.677   8.981   3.253
    1STR   H14148303   8.675   8.946   3.150
    1STR   C14248304   8.536   8.960   3.313
    1STR   H14348305   8.516   9.032   3.392
    1STR   H14448306   8.521   8.860   3.353
    1STR   H14548307   8.458   8.976   3.240
    1STR   C14648308   8.716   9.132   3.246
    1STR   H14748309   8.790   9.153   3.170
    1STR   H14848310   8.626   9.185   3.219
    1STR   O14948311   8.746   9.200   3.365
    1STR   C15048312   8.883   9.222   3.394
    1STR   H15148313   8.871   9.269   3.489
    1STR   C15248314   8.960   9.095   3.414
    1STR   H15348315   9.001   9.051   3.324
    1STR   H15448316   8.906   9.020   3.469
    1STR   H15548317   9.042   9.121   3.478
    1STR   C15648318   8.966   0.003   3.316
    1STR   H15748319   9.071   9.308   3.339
    1STR   H15848320   8.959   9.308   3.209
    1STR   O15948321   8.929   0.134   3.355
    1STR   C16048322   9.037   0.226   3.364
    1STR   H16148323   9.107   0.213   3.283
    1STR   C16248324   8.967   0.363   3.353
    1STR   H16348325   8.891   0.374   3.429
    1STR   H16448326   8.913   0.373   3.259
    1STR   H16548327   9.038   0.445   3.362
    1STR   C16648328   9.123   0.212   3.489
    1STR   H16748329   9.170   0.308   3.504
    1STR   H16848330   9.063   0.191   3.576
    1STR   O16948331   9.231   0.120   3.477
    1STR   C17048332   9.271   0.053   3.596
    1STR   H17148333   9.205   0.076   3.679
    1STR   C17248334   9.255   9.228   3.557
    1STR   H17348335   9.234   9.216   3.452
    1STR   H17448336   9.176   9.182   3.617
    1STR   H17548337   0.024   9.169   3.575
    1STR   C17648338   0.095   0.074   3.649
    1STR   H17748339   0.119   0.012   3.731
    1STR   H17848340   0.164   0.014   3.594
    1STR   O17948341   0.155   0.203   3.640
    1STR   C18048342   0.126   0.299   3.738
    1STR   H18148343   0.121   0.249   3.832
    1STR   C18248344   0.241   0.398   3.749
    1STR   H18348345   0.211   0.499   3.722
    1STR   H18448346   0.324   0.368   3.685
    1STR   H18548347   0.283   0.399   3.849
    1STR   C18648348   9.309   0.361   3.721
    1STR   H18748349   9.232   0.285   3.719
    1STR   H18848350   9.293   0.409   3.814
    1STR   O18948351   9.292   0.457   3.616
    1STR   C19048352   9.195   0.556   3.648
    1STR   H19148353   9.244   0.608   3.729
    1STR   C19248354   9.182   0.671   3.549
    1STR   H19348355   9.118   0.748   3.590
    1STR   H19448356   9.143   0.638   3.453
    1STR   H19548357   9.279   0.718   3.534
    1STR   C19648358   9.060   0.501   3.702
    1STR   H19748359   9.089   0.442   3.787
    1STR   H19848360   8.998   0.583   3.736
    1STR   O19948361   8.983   0.401   3.638
    1STR   C20048362   8.871   0.355   3.717
    1STR   H20148363   8.894   0.358   3.824
    1STR   C20248364   8.759   0.457   3.689
    1STR   H20348365   8.741   0.467   3.582
    1STR   H20448366   8.784   0.555   3.728
    1STR   H20548367   8.665   0.428   3.735
    1STR   C20648368   8.829   0.208   3.686
    1STR   H20748369   8.722   0.196   3.702
    1STR   H20848370   8.846   0.183   3.582
    1STR   O20948371   8.892   0.117   3.777
    1STR   C21048372   8.927   9.305   3.734
    1STR   H21148373   8.985   9.313   3.643
    1STR   C21248374   9.025   9.256   3.837
    1STR   H21348375   9.107   0.005   3.849
    1STR   H21448376   9.062   9.157   3.808
    1STR   H21548377   8.979   9.245   3.934
    1STR   C21648378   8.812   9.201   3.725
    1STR   H21748379   8.763   9.204   3.820
    1STR   H21848380   8.739   9.231   3.651
    1STR   O21948381   8.861   9.067   3.702
    1STR   C22048382   8.769   8.955   3.699
    1STR   H22148383   8.716   8.936   3.791
    1STR   C22248384   8.656   8.981   3.602
    1STR   H22348385   8.699   9.010   3.508
    1STR   H22448386   8.590   9.061   3.633
    1STR   H22548387   8.595   8.892   3.588
    1STR   C22648388   8.846   8.825   3.668
    1STR   H22748389   8.785   8.756   3.610
    1STR   H22848390   8.933   8.847   3.608
    1STR   O22948391   8.881   8.758   3.788
    1STR   C23048392   8.982   8.656   3.788
    1STR   H23148393   8.972   8.604   3.882
    1STR   C23248394   8.965   8.550   3.679
    1STR   H23348395   8.990   8.591   3.582
    1STR   H23448396   8.864   8.511   3.677
    1STR   H23548397   9.034   8.467   3.695
    1STR   C23648398   9.120   8.722   3.787
    1STR   H23748399   9.124   8.798   3.713
    1STR   H23848400   9.129   8.784   3.874
    1STR   O23948401   9.226   8.627   3.774
    1STR   C24048402   0.031   8.667   3.829
    1STR   H24148403   0.014   8.685   3.934
    1STR   C24248404   0.129   8.549   3.816
    1STR   H24348405   0.144   8.511   3.716
    1STR   H24448406   0.093   8.464   3.872
    1STR   H24548407   0.228   8.577   3.854
    1STR   C24648408   0.095   8.799   3.785
    1STR   H24748409   0.189   8.806   3.838
    1STR   H24848410   0.120   8.802   3.681
    1STR   O24948411   0.012   8.910   3.811
    1STR   C25048412   0.081   9.016   3.874
    1STR   H25148413   0.110   8.982   3.972
    1STR   C25248414   0.201   9.062   3.791
    1STR   H25348415   0.174   9.082   3.689
    1STR   H25448416   0.286   8.996   3.800
    1STR   H25548417   0.240   9.156   3.825
    1STR   C25648418   9.314   9.136   3.895
    1STR   H25748419   9.291   9.184   3.801
    1STR   H25848420   9.220   9.112   3.944
    1STR   O25948421   0.076   9.215   3.976
    1STR   C26048422   0.064   0.034   3.967
    1STR   H26148423   0.016   0.071   3.878
    1STR   C26248424   9.280   0.077   4.058
    1STR   H26348425   9.191   0.020   4.042
    1STR   H26448426   9.250   0.178   4.035
    1STR   H26548427   9.319   0.067   4.158
    1STR   C26648428   0.206   0.086   3.992
    1STR   H26748429   0.205   0.193   4.006
    1STR   H26848430   0.245   0.042   4.083
    1STR   O26948431   0.277   0.053   3.875
    1STR   C27048432   0.417   0.041   3.868
    1STR   H27148433   0.436   9.318   3.770
    1STR   C27248434   0.481   0.180   3.863
    1STR   H27348435   0.459   0.225   3.767
    1STR   H27448436   0.589   0.174   3.870
    1STR   H27548437   0.443   0.247   3.939
    1STR   C27648438   0.472   9.261   3.970
    1STR   H27748439   0.580   9.273   3.975
    1STR   H27848440   0.435   9.286   4.068
    1STR   O27948441   0.441   9.126   3.936
    1STR   C28048442   0.475   9.032   4.038
    1STR   H28148443   0.459   9.081   4.132
    1STR   C28248444   0.380   8.913   4.044
    1STR   H28348445   0.373   8.861   3.950
    1STR   H28448446   0.281   8.948   4.074
    1STR   H28548447   0.411   8.842   4.121
    1STR   C28648448   0.618   8.980   4.022
    1STR   H28748449   0.656   8.952   4.120
    1STR   H28848450   0.614   8.887   3.965
    1STR   O28948451   0.707   9.072   3.961
    1STR   C29048452   0.716   9.055   3.820
    1STR   H29148453   0.623   9.012   3.783
    1STR   C29248454   0.738   9.191   3.754
    1STR   H29348455   0.827   9.240   3.791
    1STR   H29448456   0.655   9.259   3.770
    1STR   H29548457   0.750   9.181   3.646
    1STR   C29648458   0.832   8.961   3.787
    1STR   H29748459   0.833   8.945   3.679
    1STR   H29848460   0.925   9.013   3.810
    1STR   O29948461   0.823   8.832   3.849
    1STR   C30048462   0.889   8.818   3.974
    1STR   H30148463   0.878   8.908   4.036
    1STR   C30248464   0.822   8.701   4.047
    1STR   H30348465   0.832   8.609   3.990
    1STR   H30448466   0.716   8.718   4.062
    1STR   H30548467   0.866   8.685   4.145
    1STR   C30648468   1.039   8.792   3.951
    1STR   H30748469   1.085   8.755   4.042
    1STR   H30848470   1.049   8.714   3.875
    1STR   O30948471   1.102   8.914   3.915
    1STR    H1R48472   1.270   8.817   3.848
    1STR    H1S48473   1.235   8.888   3.609
    1STR    H1T48474   1.101   8.991   3.658
    1STR    H1U48475   1.086   8.817   3.669
    1STR    H1V48476   1.385   9.029   3.779
    1STR    H1W48477   1.342   9.030   3.947
    1STR    H1X48478   1.109   0.021   3.793
    1STR    H1Y48479   1.008   0.244   3.860
    1STR    H1Z48480   0.812   0.346   3.970
    1STR    H2048481   0.552   0.182   4.116
    1STR    H2148482   0.653   0.226   4.252
    1STR    H2248483   0.630   0.341   4.119
    1STR    H2348484   0.757   9.169   4.165
    1STR    H2748485   0.924   9.194   4.062
    1STR    H2848486   0.867   0.247   3.123
    1STR    H2948487   0.936   0.008   3.101
    1STR    H2A48488   0.742   9.085   3.078
    1STR    H2B48489   0.899   9.102   3.006
    1STR    H2C48490   0.760   9.067   2.903
    1STR   BCK148491   9.073   0.552   5.130
    1STR    O0348492   9.063   0.445   5.187
    1STR    N0448493   8.968   0.624   5.085
    1STR    C0548494   8.832   0.592   5.097
    1STR    C0648495   8.794   0.458   5.111
    1STR    C0748496   8.665   0.419   5.147
    1STR    N0848497   8.648   0.283   5.160
    1STR    C0948498   8.549   0.211   5.208
    1STR    O0A48499   8.441   0.253   5.249
    1STR    O0B48500   8.584   0.084   5.203
    1STR    C0C48501   8.663   0.030   5.307
    1STR    C0D48502   8.636   9.203   5.306
    1STR    C0E48503   8.816   0.056   5.303
    1STR    O0F48504   8.885   9.301   5.201
    1STR    C0G48505   9.009   0.024   5.143
    1STR    C0H48506   8.997   0.166   5.095
    1STR    C0I48507   9.146   9.306   5.203
    1STR    O0J48508   9.236   0.097   5.231
    1STR    C0K48509   0.377   0.701   6.272
    1STR    C0M48510   0.449   0.833   6.300
    1STR    C0N48511   0.227   0.725   6.259
    1STR    O0O48512   0.158   0.657   6.362
    1STR    C0P48513   0.031   0.686   6.384
    1STR    O0Q48514   9.290   0.781   6.337
    1STR    N0R48515   9.288   0.600   6.463
    1STR    C0S48516   9.311   0.463   6.475
    1STR    C0T48517   9.198   0.386   6.453
    1STR    C0U48518   9.204   0.249   6.431
    1STR    C0V48519   0.008   0.185   6.442
    1STR    C0W48520   0.021   0.047   6.387
    1STR    C0X48521   0.122   0.256   6.484
    1STR    N0Y48522   0.237   0.183   6.512
    1STR   BCK248523   0.240   0.095   6.610
    1STR    O1048524   0.141   0.076   6.677
    1STR    C1348525   0.115   0.397   6.495
    1STR    C1448526   8.566   0.517   5.164
    1STR    C1548527   8.597   0.651   5.134
    1STR    C1648528   8.728   0.688   5.095
    1STR    C1748529   8.748   0.829   5.044
    1STR    H1B48530   8.994   0.716   5.054
    1STR    H1C48531   8.866   0.383   5.088
    1STR    H1D48532   8.721   0.226   5.122
    1STR    H1E48533   8.622   0.069   5.399
    1STR    H1F48534   8.702   9.156   5.236
    1STR    H1G48535   8.661   9.162   5.400
    1STR    H1H48536   8.531   9.183   5.288
    1STR    H1I48537   8.856   0.026   5.398
    1STR    H1J48538   8.829   0.163   5.299
    1STR    H1K48539   9.013   9.284   5.053
    1STR    H1M48540   8.966   0.232   5.173
    1STR    H1N48541   8.935   0.178   5.007
    1STR    H1O48542   9.095   0.200   5.071
    1STR    H1P48543   9.132   9.236   5.283
    1STR    H1Q48544   9.199   9.244   5.130
    1STR   C01048545   0.011   0.076   5.336
    1STR   H01148546   9.271   0.065   5.426
    1STR   C01248547   0.074   9.258   5.323
    1STR   H01348548   0.087   9.228   5.219
    1STR   H01448549   0.013   9.182   5.371
    1STR   H01548550   0.170   9.256   5.370
    1STR   C01648551   0.111   0.192   5.379
    1STR   H01748552   0.075   0.223   5.477
    1STR   H01848553   0.208   0.150   5.403
    1STR   O01948554   0.139   0.311   5.299
    1STR   C02048555   0.150   0.434   5.374
    1STR   H02148556   0.213   0.399   5.453
    1STR   C02248557   0.229   0.565   5.341
    1STR   H02348558   0.187   0.630   5.264
    1STR   H02448559   0.336   0.558   5.325
    1STR   H02548560   0.225   0.627   5.430
    1STR   C02648561   0.004   0.470   5.403
    1STR   H02748562   9.265   0.436   5.321
    1STR   H02848563   9.286   0.416   5.488
    1STR   O02948564   9.298   0.608   5.401
    1STR   C03048565   9.250   0.660   5.520
    1STR   H03148566   9.269   0.589   5.600
    1STR   C03248567   0.024   0.781   5.541
    1STR   H03348568   0.061   0.825   5.449
    1STR   H03448569   0.115   0.748   5.588
    1STR   H03548570   9.298   0.859   5.601
    1STR   C03648571   9.099   0.695   5.511
    1STR   H03748572   9.071   0.757   5.595
    1STR   H03848573   9.087   0.752   5.424
    1STR   O03948574   9.000   0.594   5.484
    1STR   C04048575   8.862   0.630   5.508
    1STR   H04148576   8.848   0.651   5.613
    1STR   C04248577   8.824   0.757   5.434
    1STR   H04348578   8.843   0.739   5.329
    1STR   H04448579   8.881   0.842   5.470
    1STR   H04548580   8.718   0.780   5.446
    1STR   C04648581   8.765   0.517   5.465
    1STR   H04748582   8.693   0.555   5.393
    1STR   H04848583   8.822   0.444   5.407
    1STR   O04948584   8.689   0.461   5.573
    1STR   C05048585   8.640   0.330   5.544
    1STR   H05148586   8.610   0.326   5.439
    1STR   C05248587   8.757   0.238   5.570
    1STR   H05348588   8.833   0.255   5.496
    1STR   H05448589   8.735   0.134   5.561
    1STR   H05548590   8.797   0.253   5.670
    1STR   C05648591   8.525   0.276   5.629
    1STR   H05748592   8.557   0.266   5.733
    1STR   H05848593   8.439   0.343   5.626
    1STR   O05948594   8.492   0.150   5.570
    1STR   C06048595   8.446   0.042   5.651
    1STR   H06148596   8.419   0.081   5.750
    1STR   C06248597   8.321   9.312   5.581
    1STR   H06348598   8.346   9.279   5.480
    1STR   H06448599   8.247   0.071   5.572
    1STR   H06548600   8.276   9.228   5.634
    1STR   C06648601   8.553   9.250   5.668
    1STR   H06748602   8.650   9.288   5.642
    1STR   H06848603   8.556   9.220   5.772
    1STR   O06948604   8.536   9.133   5.586
    1STR   C07048605   8.627   9.026   5.616
    1STR   H07148606   8.623   9.009   5.723
    1STR   C07248607   8.562   8.902   5.554
    1STR   H07348608   8.560   8.910   5.445
    1STR   H07448609   8.459   8.891   5.588
    1STR   H07548610   8.616   8.811   5.581
    1STR   C07648611   8.777   9.033   5.568
    1STR   H07748612   8.836   8.971   5.634
    1STR   H07848613   8.784   8.986   5.470
    1STR   O07948614   8.840   9.160   5.547
    1STR   C08048615   8.980   9.165   5.577
    1STR   H08148616   8.979   9.140   5.679
    1STR   C08248617   9.073   9.052   5.527
    1STR   H08348618   9.124   9.076   5.435
    1STR   H08448619   9.024   8.956   5.515
    1STR   H08548620   9.153   9.036   5.600
    1STR   C08648621   9.050   9.303   5.557
    1STR   H08748622   9.149   9.294   5.599
    1STR   H08848623   9.065   9.311   5.452
    1STR   O08948624   8.996   0.108   5.603
    1STR   C09048625   9.081   0.223   5.576
    1STR   H09148626   9.183   0.198   5.602
    1STR   C09248627   9.074   0.251   5.426
    1STR   H09348628   9.036   0.170   5.367
    1STR   H09448629   9.171   0.268   5.385
    1STR   H09548630   9.015   0.338   5.400
    1STR   C09648631   9.047   0.361   5.643
    1STR   H09748632   9.116   0.428   5.597
    1STR   H09848633   8.949   0.395   5.612
    1STR   O09948634   9.062   0.394   5.781
    1STR   C10048635   9.031   0.533   5.806
    1STR   H10148636   9.033   0.585   5.714
    1STR   C10248637   8.885   0.555   5.850
    1STR   H10348638   8.856   0.508   5.942
    1STR   H10448639   8.815   0.516   5.777
    1STR   H10548640   8.863   0.661   5.863
    1STR   C10648641   9.139   0.608   5.886
    1STR   H10748642   9.092   0.694   5.934
    1STR   H10848643   9.182   0.544   5.961
    1STR   O10948644   9.236   0.669   5.801
    1STR   C11048645   0.039   0.718   5.856
    1STR   H11148646   0.075   0.798   5.791
    1STR   C11248647   0.015   0.789   5.990
    1STR   H11348648   9.302   0.721   6.069
    1STR   H11448649   9.259   0.866   5.979
    1STR   H11548650   0.106   0.839   6.023
    1STR   C11648651   0.146   0.608   5.853
    1STR   H11748652   0.213   0.618   5.938
    1STR   H11848653   0.091   0.515   5.864
    1STR   O11948654   0.228   0.596   5.735
    1STR   C12048655   0.296   0.470   5.729
    1STR   H12148656   0.330   0.455   5.829
    1STR   C12248657   0.192   0.365   5.686
    1STR   H12348658   0.115   0.335   5.755
    1STR   H12448659   0.235   0.276   5.641
    1STR   H12548660   0.122   0.415   5.622
    1STR   C12648661   0.426   0.469   5.642
    1STR   H12748662   0.403   0.476   5.536
    1STR   H12848663   0.478   0.561   5.668
    1STR   O12948664   0.514   0.356   5.666
    1STR   C13048665   0.641   0.354   5.596
    1STR   H13148666   0.620   0.360   5.490
    1STR   C13248667   0.724   0.477   5.634
    1STR   H13348668   0.735   0.484   5.742
    1STR   H13448669   0.680   0.569   5.596
    1STR   H13548670   0.824   0.471   5.590
    1STR   C13648671   0.731   0.227   5.620
    1STR   H13748672   0.825   0.236   5.566
    1STR   H13848673   0.766   0.224   5.723
    1STR   O13948674   0.672   0.102   5.582
    1STR   C14048675   0.748   9.298   5.590
    1STR   H14148676   0.770   9.266   5.489
    1STR   C14248677   0.885   9.305   5.656
    1STR   H14348678   0.886   0.020   5.758
    1STR   H14448679   0.952   0.050   5.599
    1STR   H14548680   0.929   9.206   5.658
    1STR   C14648681   0.664   9.180   5.644
    1STR   H14748682   0.571   9.164   5.591
    1STR   H14848683   0.718   9.087   5.629
    1STR   O14948684   0.630   9.190   5.780
    1STR   C15048685   0.549   9.301   5.815
    1STR   H15148686   0.500   9.258   5.898
    1STR   C15248687   0.633   0.082   5.891
    1STR   H15348688   0.739   0.060   5.888
    1STR   H15448689   0.609   0.079   5.997
    1STR   H15548690   0.616   0.182   5.855
    1STR   C15648691   0.431   0.027   5.721
    1STR   H15748692   0.401   0.129   5.742
    1STR   H15848693   0.456   0.028   5.616
    1STR   O15948694   0.316   9.267   5.745
    1STR   C16048695   0.216   9.257   5.646
    1STR   H16148696   0.216   0.023   5.580
    1STR   C16248697   0.259   9.132   5.576
    1STR   H16348698   0.280   9.048   5.642
    1STR   H16448699   0.345   9.150   5.515
    1STR   H16548700   0.177   9.103   5.513
    1STR   C16648701   0.073   9.229   5.699
    1STR   H16748702   0.012   9.182   5.623
    1STR   H16848703   0.075   9.156   5.779
    1STR   O16948704   0.005   0.028   5.735
    1STR   C17048705   9.247   0.019   5.854
    1STR   H17148706   9.311   0.009   5.939
    1STR   C17248707   9.181   0.152   5.870
    1STR   H17348708   9.095   0.165   5.807
    1STR   H17448709   9.248   0.236   5.854
    1STR   H17548710   9.136   0.149   5.967
    1STR   C17648711   9.139   9.233   5.873
    1STR   H17748712   9.167   9.135   5.835
    1STR   H17848713   9.125   9.225   5.979
    1STR   O17948714   9.012   9.279   5.834
    1STR   C18048715   8.900   9.247   5.913
    1STR   H18148716   8.923   9.272   6.015
    1STR   C18248717   8.801   0.030   5.863
    1STR   H18348718   8.803   0.030   5.755
    1STR   H18448719   8.835   0.130   5.889
    1STR   H18548720   8.700   0.015   5.900
    1STR   C18648721   8.854   9.100   5.902
    1STR   H18748722   8.809   9.067   5.996
    1STR   H18848723   8.777   9.095   5.827
    1STR   O18948724   8.961   9.016   5.859
    1STR   C19048725   8.977   8.882   5.903
    1STR   H19148726   9.005   8.872   6.007
    1STR   C19248727   8.848   8.801   5.883
    1STR   H19348728   8.865   8.696   5.909
    1STR   H19448729   8.813   8.804   5.780
    1STR   H19548730   8.768   8.837   5.947
    1STR   C19648731   9.093   8.829   5.821
    1STR   H19748732   9.102   8.724   5.844
    1STR   H19848733   9.059   8.835   5.718
    1STR   O19948734   9.221   8.896   5.824
    1STR   C20048735   0.001   8.847   5.916
    1STR   H20148736   9.273   8.851   6.012
    1STR   C20248737   0.044   8.702   5.892
    1STR   H20348738   0.093   8.689   5.796
    1STR   H20448739   9.285   8.629   5.901
    1STR   H20548740   0.118   8.673   5.965
    1STR   C20648741   0.136   8.924   5.914
    1STR   H20748742   0.205   8.866   5.975
    1STR   H20848743   0.177   8.927   5.813
    1STR   O20948744   0.141   9.054   5.970
    1STR   C21048745   0.270   9.113   5.998
    1STR   H21148746   0.303   9.099   6.098
    1STR   C21248747   0.391   9.046   5.930
    1STR   H21348748   0.484   9.077   5.977
    1STR   H21448749   0.399   9.063   5.823
    1STR   H21548750   0.396   8.938   5.945
    1STR   C21648751   0.240   9.266   6.005
    1STR   H21748752   0.181   9.287   5.919
    1STR   H21848753   0.174   9.284   6.089
    1STR   O21948754   0.344   0.043   6.005
    1STR   C22048755   0.306   0.179   6.025
    1STR   H22148756   0.284   0.186   6.129
    1STR   C22248757   0.414   0.280   5.984
    1STR   H22348758   0.425   0.281   5.877
    1STR   H22448759   0.513   0.265   6.021
    1STR   H22548760   0.389   0.381   6.018
    1STR   C22648761   0.177   0.222   5.962
    1STR   H22748762   0.184   0.327   5.939
    1STR   H22848763   0.163   0.169   5.869
    1STR   O22948764   0.071   0.205   6.050
    1STR   C23048765   0.039   0.309   6.141
    1STR   H23148766   0.073   0.272   6.235
    1STR   C23248767   0.099   0.446   6.131
    1STR   H23348768   0.047   0.506   6.060
    1STR   H23448769   0.206   0.451   6.119
    1STR   H23548770   0.075   0.493   6.225
    1STR   C23648771   9.209   0.317   6.131
    1STR   H23748772   9.187   0.336   6.027
    1STR   H23848773   9.172   0.221   6.164
    1STR   O23948774   9.145   0.426   6.193
    1STR   C24048775   9.003   0.419   6.193
    1STR   H24148776   8.969   0.387   6.291
    1STR   C24248777   8.965   0.564   6.180
    1STR   H24348778   9.018   0.614   6.103
    1STR   H24448779   8.991   0.617   6.272
    1STR   H24548780   8.859   0.576   6.157
    1STR   C24648781   8.934   0.325   6.091
    1STR   H24748782   8.828   0.349   6.085
    1STR   H24848783   8.973   0.339   5.991
    1STR   O24948784   8.954   0.188   6.119
    1STR   C25048785   8.880   0.134   6.225
    1STR   H25148786   8.892   0.194   6.314
    1STR   C25248787   8.732   0.139   6.182
    1STR   H25348788   8.720   0.148   6.074
    1STR   H25448789   8.684   0.228   6.223
    1STR   H25548790   8.673   0.052   6.208
    1STR   C25648791   8.937   9.314   6.258
    1STR   H25748792   8.937   9.303   6.365
    1STR   H25848793   8.865   9.243   6.220
    1STR   O25948794   9.071   9.288   6.211
    1STR   C26048795   9.123   9.155   6.232
    1STR   H26148796   9.139   9.133   6.334
    1STR   C26248797   9.029   9.049   6.180
    1STR   H26348798   9.025   9.065   6.075
    1STR   H26448799   8.929   9.049   6.220
    1STR   H26548800   9.067   8.948   6.198
    1STR   C26648801   9.265   9.133   6.177
    1STR   H26748802   9.280   9.161   6.075
    1STR   H26848803   0.021   9.188   6.228
    1STR   O26948804   9.299   8.998   6.177
    1STR   C27048805   0.048   8.943   6.286
    1STR   H27148806   0.001   8.971   6.380
    1STR   C27248807   0.014   8.797   6.256
    1STR   H27348808   0.073   8.759   6.173
    1STR   H27448809   9.228   8.785   6.234
    1STR   H27548810   0.030   8.730   6.338
    1STR   C27648811   0.199   8.978   6.282
    1STR   H27748812   0.256   8.922   6.354
    1STR   H27848813   0.239   8.937   6.190
    1STR   O27948814   0.226   9.120   6.302
    1STR   C28048815   0.351   9.170   6.356
    1STR   H28148816   0.335   9.175   6.462
    1STR   C28248817   0.473   9.079   6.331
    1STR   H28348818   0.464   8.985   6.384
    1STR   H28448819   0.563   9.128   6.368
    1STR   H28548820   0.487   9.058   6.225
    1STR   C28648821   0.378   9.313   6.301
    1STR   H28748822   0.423   9.293   6.204
    1STR   H28848823   0.282   0.039   6.284
    1STR   O28948824   0.464   0.089   6.368
    1STR   C29048825   0.484   0.210   6.290
    1STR   H29148826   0.486   0.170   6.191
    1STR   C29248827   0.380   0.321   6.314
    1STR   H29348828   0.279   0.290   6.298
    1STR   H29448829   0.390   0.402   6.243
    1STR   H29548830   0.391   0.365   6.413
    1STR   C29648831   0.617   0.284   6.291
    1STR   H29748832   0.622   0.334   6.386
    1STR   H29848833   0.700   0.215   6.278
    1STR   O29948834   0.621   0.386   6.191
    1STR   C30048835   0.626   0.520   6.239
    1STR   H30148836   0.574   0.532   6.335
    1STR   C30248837   0.772   0.554   6.263
    1STR   H30348838   0.829   0.549   6.170
    1STR   H30448839   0.814   0.482   6.333
    1STR   H30548840   0.783   0.653   6.307
    1STR   C30648841   0.561   0.615   6.136
    1STR   H30748842   0.612   0.711   6.134
    1STR   H30848843   0.576   0.573   6.036
    1STR   O30948844   0.421   0.636   6.152
    1STR    H1R48845   0.391   0.633   6.357
    1STR    H1S48846   0.405   0.882   6.388
    1STR    H1T48847   0.442   0.902   6.216
    1STR    H1U48848   0.554   0.817   6.325
    1STR    H1V48849   0.192   0.685   6.164
    1STR    H1W48850   0.202   0.830   6.257
    1STR    H1X48851   9.195   0.632   6.486
    1STR    H1Y48852   9.105   0.438   6.437
    1STR    H1Z48853   9.117   0.195   6.396
    1STR    H2048854   0.090   9.302   6.441
    1STR    H2148855   9.244   0.001   6.384
    1STR    H2248856   0.058   0.058   6.286
    1STR    H2348857   0.322   0.193   6.457
    1STR    H2748858   0.204   0.454   6.515
    1STR    H2848859   8.465   0.489   5.192
    1STR    H2948860   8.518   0.725   5.137
    1STR    H2A48861   8.713   0.836   4.942
    1STR    H2B48862   8.852   0.857   5.044
    1STR    H2C48863   8.691   0.901   5.103
    1STR   BCK148864   9.164   8.971   7.452
    1STR    O0348865   9.265   8.981   7.387
    1STR    N0448866   9.109   8.856   7.497
    1STR    C0548867   9.173   8.738   7.535
    1STR    C0648868   9.309   8.724   7.506
    1STR    C0748869   0.073   8.640   7.580
    1STR    N0848870   0.212   8.649   7.568
    1STR    C0948871   0.286   8.734   7.498
    1STR    O0A48872   0.249   8.805   7.406
    1STR    O0B48873   0.408   8.729   7.544
    1STR    C0C48874   0.482   8.846   7.577
    1STR    C0D48875   0.627   8.806   7.557
    1STR    C0E48876   0.439   8.982   7.517
    1STR    O0F48877   0.347   9.049   7.606
    1STR    C0G48878   0.291   9.168   7.554
    1STR    C0H48879   0.180   9.124   7.467
    1STR    C0I48880   0.221   9.266   7.651
    1STR    O0J48881   0.269   0.077   7.629
    1STR    C0K48882   9.257   8.978   8.635
    1STR    C0M48883   9.310   9.064   8.742
    1STR    C0N48884   9.254   8.831   8.667
    1STR    O0O48885   0.067   8.797   8.697
    1STR    C0P48886   0.088   8.751   8.813
    1STR    O0Q48887   0.003   8.757   8.900
    1STR    N0R48888   0.208   8.698   8.834
    1STR    C0S48889   0.330   8.710   8.771
    1STR    C0T48890   0.431   8.612   8.782
    1STR    C0U48891   0.558   8.636   8.725
    1STR    C0V48892   0.587   8.760   8.665
    1STR    C0W48893   0.730   8.784   8.615
    1STR    C0X48894   0.488   8.861   8.663
    1STR    N0Y48895   0.521   8.993   8.637
    1STR   BCK248896   0.474   9.106   8.691
    1STR    O1048897   0.548   9.200   8.690
    1STR    C1348898   0.359   8.829   8.707
    1STR    C1448899   0.013   8.555   7.675
    1STR    C1548900   9.194   8.554   7.694
    1STR    C1648901   9.113   8.649   7.628
    1STR    C1748902   8.970   8.665   7.682
    1STR    H1B48903   9.020   8.875   7.538
    1STR    H1C48904   0.033   8.785   7.431
    1STR    H1D48905   0.270   8.603   7.637
    1STR    H1E48906   0.472   8.859   7.683
    1STR    H1F48907   0.690   8.893   7.549
    1STR    H1G48908   0.664   8.748   7.640
    1STR    H1H48909   0.638   8.742   7.470
    1STR    H1I48910   0.405   8.973   7.415
    1STR    H1J48911   0.527   9.042   7.506
    1STR    H1K48912   0.365   9.221   7.495
    1STR    H1M48913   0.096   9.094   7.524
    1STR    H1N48914   0.200   9.042   7.400
    1STR    H1O48915   0.155   9.214   7.413
    1STR    H1P48916   0.112   9.271   7.640
    1STR    H1Q48917   0.231   9.229   7.751
    1STR   C01048918   0.216   0.178   7.713
    1STR   H01148919   0.222   0.145   7.814
    1STR   C01248920   0.319   0.289   7.712
    1STR   H01348921   0.333   0.325   7.612
    1STR   H01448922   0.416   0.254   7.749
    1STR   H01548923   0.288   0.373   7.775
    1STR   C01648924   0.074   0.226   7.675
    1STR   H01748925   0.064   0.328   7.714
    1STR   H01848926   0.071   0.226   7.567
    1STR   O01948927   9.279   0.152   7.711
    1STR   C02048928   9.176   0.223   7.781
    1STR   H02148929   9.225   0.284   7.857
    1STR   C02248930   9.072   0.307   7.707
    1STR   H02348931   9.066   0.281   7.603
    1STR   H02448932   9.091   0.412   7.724
    1STR   H02548933   8.970   0.295   7.744
    1STR   C02648934   9.091   0.122   7.849
    1STR   H02748935   9.160   0.065   7.907
    1STR   H02848936   9.023   0.172   7.917
    1STR   O02948937   9.018   0.047   7.754
    1STR   C03048938   8.964   9.253   7.814
    1STR   H03148939   8.911   9.287   7.902
    1STR   C03248940   8.860   9.182   7.728
    1STR   H03348941   8.872   9.214   7.625
    1STR   H03448942   8.759   9.204   7.760
    1STR   H03548943   8.869   9.073   7.729
    1STR   C03648944   9.074   9.160   7.859
    1STR   H03748945   9.123   9.192   7.949
    1STR   H03848946   9.017   9.076   7.891
    1STR   O03948947   9.176   9.128   7.766
    1STR   C04048948   9.229   9.001   7.796
    1STR   H04148949   9.242   9.003   7.900
    1STR   C04248950   9.126   8.897   7.782
    1STR   H04348951   9.179   8.803   7.783
    1STR   H04448952   9.053   8.918   7.707
    1STR   H04548953   9.062   8.883   7.863
    1STR   C04648954   0.041   8.957   7.730
    1STR   H04748955   0.027   8.934   7.626
    1STR   H04848956   0.111   9.039   7.731
    1STR   O04948957   0.092   8.839   7.794
    1STR   C05048958   0.232   8.827   7.809
    1STR   H05148959   0.267   8.843   7.709
    1STR   C05248960   0.297   8.935   7.889
    1STR   H05348961   0.284   9.029   7.840
    1STR   H05448962   0.402   8.920   7.889
    1STR   H05548963   0.267   8.939   7.992
    1STR   C05648964   0.280   8.692   7.866
    1STR   H05748965   0.283   8.697   7.975
    1STR   H05848966   0.209   8.614   7.844
    1STR   O05948967   0.407   8.654   7.810
    1STR   C06048968   0.514   8.632   7.902
    1STR   H06148969   0.475   8.582   7.990
    1STR   C06248970   0.612   8.532   7.839
    1STR   H06348971   0.657   8.571   7.748
    1STR   H06448972   0.561   8.439   7.814
    1STR   H06548973   0.693   8.510   7.908
    1STR   C06648974   0.585   8.760   7.951
    1STR   H06748975   0.514   8.809   8.017
    1STR   H06848976   0.671   8.734   8.012
    1STR   O06948977   0.629   8.849   7.848
    1STR   C07048978   0.663   8.982   7.886
    1STR   H07148979   0.628   9.004   7.985
    1STR   C07248980   0.814   8.997   7.881
    1STR   H07348981   0.846   8.981   7.779
    1STR   H07448982   0.866   8.926   7.945
    1STR   H07548983   0.845   9.098   7.909
    1STR   C07648984   0.597   9.080   7.788
    1STR   H07748985   0.634   9.057   7.690
    1STR   H07848986   0.490   9.072   7.786
    1STR   O07948987   0.625   9.216   7.809
    1STR   C08048988   0.564   9.276   7.921
    1STR   H08148989   0.588   9.213   8.004
    1STR   C08248990   0.648   0.084   7.934
    1STR   H08348991   0.621   0.157   7.859
    1STR   H08448992   0.755   0.062   7.923
    1STR   H08548993   0.637   0.128   8.033
    1STR   C08648994   0.410   9.308   7.912
    1STR   H08748995   0.397   0.082   7.959
    1STR   H08848996   0.400   0.011   7.808
    1STR   O08948997   0.309   9.213   7.960
    1STR   C09048998   0.180   9.240   8.029
    1STR   H09148999   0.194   9.266   8.132
    1STR   C09249000   0.088   0.026   7.970
    1STR   H09349001   0.058   0.001   7.869
    1STR   H09449002   0.120   0.129   7.977
    1STR   H09549003   9.319   0.030   8.030
    1STR   C09649004   0.084   9.117   8.033
    1STR   H09749005   9.301   9.148   8.042
    1STR   H09849006   0.100   9.079   7.935
    1STR   O09949007   0.085   9.010   8.128
    1STR   C10049008   0.015   8.887   8.091
    1STR   H10149009   0.049   8.872   7.994
    1STR   C10249010   0.098   8.780   8.159
    1STR   H10349011   0.071   8.766   8.263
    1STR   H10449012   0.203   8.811   8.160
    1STR   H10549013   0.091   8.687   8.105
    1STR   C10649014   9.176   8.852   8.081
    1STR   H10749015   9.167   8.777   8.002
    1STR   H10849016   9.155   8.787   8.161
    1STR   O10949017   9.067   8.952   8.073
    1STR   C11049018   8.920   8.924   8.062
    1STR   H11149019   8.899   8.877   7.967
    1STR   C11249020   8.864   8.816   8.157
    1STR   H11349021   8.847   8.855   8.258
    1STR   H11449022   8.927   8.727   8.160
    1STR   H11549023   8.766   8.783   8.123
    1STR   C11649024   8.821   9.050   8.060
    1STR   H11749025   8.826   9.107   7.969
    1STR   H11849026   8.721   9.007   8.051
    1STR   O11949027   8.804   9.140   8.172
    1STR   C12049028   8.849   9.278   8.175
    1STR   H12149029   8.835   9.303   8.280
    1STR   C12249030   8.999   9.294   8.154
    1STR   H12349031   9.023   0.042   8.076
    1STR   H12449032   9.049   9.200   8.136
    1STR   H12549033   9.041   0.018   8.243
    1STR   C12649034   8.770   0.074   8.107
    1STR   H12749035   8.754   0.056   8.001
    1STR   H12849036   8.671   0.081   8.152
    1STR   O12949037   8.843   0.198   8.129
    1STR   C13049038   8.814   0.309   8.042
    1STR   H13149039   8.819   0.276   7.938
    1STR   C13249040   8.671   0.359   8.069
    1STR   H13349041   8.663   0.401   8.169
    1STR   H13449042   8.597   0.280   8.060
    1STR   H13549043   8.643   0.437   7.999
    1STR   C13649044   8.915   0.428   8.058
    1STR   H13749045   8.868   0.516   8.015
    1STR   H13849046   8.931   0.452   8.163
    1STR   O13949047   9.039   0.408   7.990
    1STR   C14049048   9.137   0.514   7.982
    1STR   H14149049   9.200   0.492   7.896
    1STR   C14249050   9.075   0.650   7.949
    1STR   H14349051   9.020   0.692   8.032
    1STR   H14449052   9.010   0.643   7.862
    1STR   H14549053   9.154   0.722   7.922
    1STR   C14649054   9.240   0.522   8.098
    1STR   H14749055   9.300   0.612   8.085
    1STR   H14849056   9.191   0.535   8.194
    1STR   O14949057   0.018   0.415   8.096
    1STR   C15049058   9.318   0.321   8.200
    1STR   H15149059   9.295   0.378   8.289
    1STR   C15249060   9.202   0.233   8.158
    1STR   H15349061   9.202   0.226   8.051
    1STR   H15449062   9.105   0.270   8.188
    1STR   H15549063   9.212   0.131   8.191
    1STR   C15649064   0.116   0.229   8.240
    1STR   H15749065   0.093   0.198   8.341
    1STR   H15849066   0.113   0.134   8.190
    1STR   O15949067   0.246   0.285   8.238
    1STR   C16049068   0.340   0.218   8.155
    1STR   H16149069   0.287   0.203   8.063
    1STR   C16249070   0.449   0.320   8.127
    1STR   H16349071   0.517   0.330   8.212
    1STR   H16449072   0.405   0.418   8.109
    1STR   H16549073   0.507   0.296   8.038
    1STR   C16649074   0.392   0.087   8.225
    1STR   H16749075   0.435   0.135   8.309
    1STR   H16849076   0.311   0.028   8.264
    1STR   O16949077   0.495   9.318   8.179
    1STR   C17049078   0.510   9.186   8.242
    1STR   H17149079   0.481   9.193   8.344
    1STR   C17249080   0.418   9.082   8.180
    1STR   H17349081   0.420   8.988   8.232
    1STR   H17449082   0.441   9.061   8.077
    1STR   H17549083   0.315   9.111   8.189
    1STR   C17649084   0.652   9.126   8.256
    1STR   H17749085   0.702   9.112   8.160
    1STR   H17849086   0.717   9.196   8.307
    1STR   O17949087   0.648   9.005   8.336
    1STR   C18049088   0.654   8.882   8.262
    1STR   H18149089   0.620   8.905   8.163
    1STR   C18249090   0.800   8.838   8.253
    1STR   H18349091   0.844   8.826   8.352
    1STR   H18449092   0.860   8.912   8.199
    1STR   H18549093   0.810   8.743   8.200
    1STR   C18649094   0.559   8.771   8.314
    1STR   H18749095   0.593   8.741   8.412
    1STR   H18849096   0.458   8.808   8.329
    1STR   O18949097   0.558   8.657   8.227
    1STR   C19049098   0.492   8.535   8.268
    1STR   H19149099   0.540   8.458   8.209
    1STR   C19249100   0.521   8.498   8.414
    1STR   H19349101   0.471   8.566   8.483
    1STR   H19449102   0.628   8.499   8.436
    1STR   H19549103   0.484   8.398   8.437
    1STR   C19649104   0.342   8.528   8.229
    1STR   H19749105   0.301   8.627   8.214
    1STR   H19849106   0.333   8.482   8.131
    1STR   O19949107   0.264   8.447   8.319
    1STR   C20049108   0.168   8.510   8.405
    1STR   H20149109   0.160   8.444   8.491
    1STR   C20249110   0.214   8.646   8.462
    1STR   H20349111   0.274   8.710   8.399
    1STR   H20449112   0.272   8.625   8.550
    1STR   H20549113   0.131   8.709   8.492
    1STR   C20649114   0.026   8.511   8.346
    1STR   H20749115   0.028   8.546   8.244
    1STR   H20849116   9.306   8.409   8.342
    1STR   O20949117   9.264   8.592   8.430
    1STR   C21049118   9.143   8.640   8.374
    1STR   H21149119   9.140   8.614   8.268
    1STR   C21249120   9.030   8.561   8.441
    1STR   H21349121   9.031   8.576   8.549
    1STR   H21449122   9.041   8.454   8.423
    1STR   H21549123   8.933   8.592   8.404
    1STR   C21649124   9.122   8.794   8.392
    1STR   H21749125   9.040   8.814   8.326
    1STR   H21849126   9.074   8.814   8.487
    1STR   O21949127   9.231   8.890   8.367
    1STR   C22049128   9.202   9.029   8.327
    1STR   H22149129   9.211   9.043   8.223
    1STR   C22249130   9.052   9.053   8.339
    1STR   H22349131   9.002   9.003   8.419
    1STR   H22449132   8.992   9.023   8.260
    1STR   H22549133   9.032   9.156   8.345
    1STR   C22649134   9.283   9.159   8.373
    1STR   H22749135   9.238   9.236   8.311
    1STR   H22849136   9.257   9.191   8.472
    1STR   O22949137   0.101   9.192   8.350
    1STR   C23049138   0.186   9.191   8.466
    1STR   H23149139   0.125   9.178   8.554
    1STR   C23249140   0.259   9.058   8.452
    1STR   H23349141   0.231   9.006   8.360
    1STR   H23449142   0.228   8.989   8.529
    1STR   H23549143   0.366   9.066   8.455
    1STR   C23649144   0.264   0.005   8.505
    1STR   H23749145   0.225   0.090   8.451
    1STR   H23849146   0.241   0.027   8.607
    1STR   O23949147   0.407   0.006   8.494
    1STR   C24049148   0.501   0.111   8.533
    1STR   H24149149   0.522   0.102   8.638
    1STR   C24249150   0.633   0.077   8.461
    1STR   H24349151   0.628   0.080   8.353
    1STR   H24449152   0.663   9.297   8.491
    1STR   H24549153   0.714   0.146   8.481
    1STR   C24649154   0.467   0.261   8.517
    1STR   H24749155   0.377   0.280   8.461
    1STR   H24849156   0.453   0.292   8.620
    1STR   O24949157   0.575   0.337   8.464
    1STR   C25049158   0.581   0.474   8.505
    1STR   H25149159   0.501   0.500   8.574
    1STR   C25249160   0.715   0.491   8.577
    1STR   H25349161   0.798   0.474   8.509
    1STR   H25449162   0.726   0.419   8.658
    1STR   H25549163   0.725   0.590   8.621
    1STR   C25649164   0.570   0.567   8.383
    1STR   H25749165   0.591   0.670   8.410
    1STR   H25849166   0.644   0.538   8.309
    1STR   O25949167   0.442   0.552   8.324
    1STR   C26049168   0.351   0.661   8.336
    1STR   H26149169   0.372   0.720   8.425
    1STR   C26249170   0.363   0.750   8.212
    1STR   H26349171   0.341   0.693   8.122
    1STR   H26449172   0.463   0.790   8.202
    1STR   H26549173   0.293   0.833   8.218
    1STR   C26649174   0.212   0.598   8.350
    1STR   H26749175   0.131   0.668   8.327
    1STR   H26849176   0.202   0.514   8.282
    1STR   O26949177   0.207   0.563   8.486
    1STR   C27049178   0.129   0.452   8.523
    1STR   H27149179   0.122   0.381   8.443
    1STR   C27249180   0.207   0.387   8.636
    1STR   H27349181   0.173   0.416   8.735
    1STR   H27449182   0.307   0.427   8.630
    1STR   H27549183   0.211   0.279   8.630
    1STR   C27649184   9.312   0.492   8.577
    1STR   H27749185   9.275   0.403   8.626
    1STR   H27849186   0.005   0.565   8.655
    1STR   O27949187   9.219   0.541   8.481
    1STR   C28049188   9.085   0.505   8.517
    1STR   H28149189   9.076   0.487   8.624
    1STR   C28249190   8.991   0.620   8.482
    1STR   H28349191   8.997   0.644   8.376
    1STR   H28449192   9.018   0.709   8.538
    1STR   H28549193   8.888   0.594   8.507
    1STR   C28649194   9.051   0.375   8.445
    1STR   H28749195   8.962   0.334   8.488
    1STR   H28849196   9.030   0.394   8.341
    1STR   O28949197   9.164   0.292   8.456
    1STR   C29049198   9.160   0.153   8.475
    1STR   H29149199   9.200   0.104   8.389
    1STR   C29249200   9.261   0.134   8.586
    1STR   H29349201   9.225   0.182   8.675
    1STR   H29449202   0.036   0.177   8.560
    1STR   H29549203   9.278   0.030   8.609
    1STR   C29649204   9.026   0.092   8.508
    1STR   H29749205   8.994   0.134   8.602
    1STR   H29849206   8.952   0.110   8.430
    1STR   O29949207   9.051   9.275   8.522
    1STR   C30049208   8.953   9.194   8.583
    1STR   H30149209   8.924   9.260   8.659
    1STR   C30249210   8.821   9.164   8.505
    1STR   H30349211   8.829   9.118   8.408
    1STR   H30449212   8.762   9.253   8.490
    1STR   H30549213   8.755   9.097   8.559
    1STR   C30649214   9.025   9.074   8.650
    1STR   H30749215   9.053   9.103   8.749
    1STR   H30849216   8.965   8.984   8.651
    1STR   O30949217   9.142   9.039   8.583
    1STR    H1R49218   0.011   8.984   8.556
    1STR    H1S49219   0.094   9.039   8.751
    1STR    H1T49220   9.260   9.046   8.835
    1STR    H1U49221   9.305   9.168   8.715
    1STR    H1V49222   9.244   8.763   8.586
    1STR    H1W49223   9.175   8.806   8.737
    1STR    H1X49224   0.206   8.652   8.924
    1STR    H1Y49225   0.412   8.518   8.832
    1STR    H1Z49226   0.634   8.560   8.731
    1STR    H2049227   0.800   8.785   8.698
    1STR    H2149228   0.762   8.705   8.548
    1STR    H2249229   0.740   8.878   8.562
    1STR    H2349230   0.603   9.011   8.579
    1STR    H2749231   0.280   8.900   8.702
    1STR    H2849232   0.072   8.489   7.736
    1STR    H2949233   9.152   8.486   7.767
    1STR    H2A49234   8.970   8.702   7.784
    1STR    H2B49235   8.921   8.568   7.693
    1STR    H2C49236   8.909   8.730   7.621
    1STR   BCK149237   0.510   2.312   0.530
    1STR    O0349238   0.400   2.294   0.580
    1STR    N0449239   0.562   2.435   0.511
    1STR    C0549240   0.486   2.552   0.503
    1STR    C0649241   0.352   2.547   0.464
    1STR    C0749242   0.269   2.656   0.446
    1STR    N0849243   0.137   2.622   0.424
    1STR    C0949244   0.024   2.684   0.452
    1STR    O0A49245   0.014   2.802   0.483
    1STR    O0B49246   9.245   2.593   0.453
    1STR    C0C49247   9.127   2.620   0.526
    1STR    C0D49248   9.060   2.738   0.454
    1STR    C0E49249   9.031   2.498   0.553
    1STR    O0F49250   9.078   2.372   0.507
    1STR    C0G49251   9.156   2.293   0.598
    1STR    C0H49252   9.258   2.372   0.672
    1STR    C0I49253   9.082   2.202   0.695
    1STR    O0J49254   9.167   2.088   0.706
    1STR    C0K49255   0.512   2.551   1.866
    1STR    C0M49256   0.537   2.683   1.798
    1STR    C0N49257   0.364   2.527   1.894
    1STR    O0O49258   0.318   2.414   1.826
    1STR    C0P49259   0.197   2.374   1.851
    1STR    O0Q49260   0.115   2.430   1.922
    1STR    N0R49261   0.177   2.265   1.778
    1STR    C0S49262   0.062   2.199   1.743
    1STR    C0T49263   9.254   2.255   1.756
    1STR    C0U49264   9.147   2.204   1.682
    1STR    C0V49265   9.166   2.096   1.594
    1STR    C0W49266   9.061   2.064   1.491
    1STR    C0X49267   9.287   2.024   1.600
    1STR    N0Y49268   9.289   1.896   1.545
    1STR   BCK249269   0.045   1.790   1.574
    1STR    O1049270   0.005   1.678   1.545
    1STR    C1349271   0.076   2.085   1.663
    1STR    C1449272   0.321   2.783   0.473
    1STR    C1549273   0.453   2.792   0.525
    1STR    C1649274   0.533   2.679   0.544
    1STR    C1749275   0.664   2.701   0.614
    1STR    H1B49276   0.661   2.444   0.485
    1STR    H1C49277   0.302   2.454   0.462
    1STR    H1D49278   0.123   2.529   0.389
    1STR    H1E49279   9.164   2.654   0.623
    1STR    H1F49280   8.953   2.729   0.451
    1STR    H1G49281   9.085   2.827   0.510
    1STR    H1H49282   9.096   2.753   0.353
    1STR    H1I49283   8.935   2.514   0.506
    1STR    H1J49284   9.006   2.491   0.658
    1STR    H1K49285   9.216   2.228   0.538
    1STR    H1M49286   9.211   2.447   0.736
    1STR    H1N49287   0.008   2.419   0.604
    1STR    H1O49288   9.319   2.309   0.735
    1STR    H1P49289   9.072   2.259   0.785
    1STR    H1Q49290   8.980   2.180   0.666
    1STR   C01049291   9.141   1.984   0.799
    1STR   H01149292   9.157   2.020   0.900
    1STR   C01249293   8.998   1.928   0.780
    1STR   H01349294   8.982   1.890   0.679
    1STR   H01449295   8.922   2.004   0.798
    1STR   H01549296   8.978   1.846   0.848
    1STR   C01649297   9.248   1.874   0.784
    1STR   H01749298   9.212   1.785   0.836
    1STR   H01849299   9.262   1.847   0.680
    1STR   O01949300   0.051   1.902   0.847
    1STR   C02049301   0.159   1.943   0.763
    1STR   H02149302   0.145   1.907   0.661
    1STR   C02249303   0.160   2.095   0.765
    1STR   H02349304   0.132   2.136   0.862
    1STR   H02449305   0.090   2.129   0.690
    1STR   H02549306   0.256   2.138   0.737
    1STR   C02649307   0.286   1.876   0.817
    1STR   H02749308   0.277   1.863   0.921
    1STR   H02849309   0.290   1.773   0.781
    1STR   O02949310   0.408   1.941   0.784
    1STR   C03049311   0.473   2.015   0.888
    1STR   H03149312   0.398   2.054   0.955
    1STR   C03249313   0.560   1.911   0.959
    1STR   H03349314   0.632   1.867   0.890
    1STR   H03449315   0.499   1.830   0.999
    1STR   H03549316   0.616   1.953   1.042
    1STR   C03649317   0.554   2.141   0.843
    1STR   H03749318   0.635   2.156   0.914
    1STR   H03849319   0.611   2.129   0.753
    1STR   O03949320   0.473   2.259   0.836
    1STR   C04049321   0.535   2.385   0.870
    1STR   H04149322   0.546   2.380   0.974
    1STR   C04249323   0.681   2.399   0.825
    1STR   H04349324   0.694   2.383   0.719
    1STR   H04449325   0.749   2.331   0.878
    1STR   H04549326   0.718   2.499   0.847
    1STR   C04649327   0.457   2.514   0.826
    1STR   H04749328   0.517   2.603   0.840
    1STR   H04849329   0.449   2.495   0.723
    1STR   O04949330   0.324   2.547   0.867
    1STR   C05049331   0.249   2.631   0.775
    1STR   H05149332   0.279   2.599   0.679
    1STR   C05249333   0.101   2.600   0.770
    1STR   H05349334   0.083   2.502   0.808
    1STR   H05449335   0.070   2.602   0.669
    1STR   H05549336   0.030   2.668   0.816
    1STR   C05649337   0.266   2.782   0.788
    1STR   H05749338   0.272   2.801   0.892
    1STR   H05849339   0.362   2.815   0.750
    1STR   O05949340   0.158   2.854   0.725
    1STR   C06049341   0.078   2.937   0.810
    1STR   H06149342   0.069   2.895   0.910
    1STR   C06249343   0.149   3.074   0.814
    1STR   H06349344   0.118   3.136   0.731
    1STR   H06449345   0.257   3.065   0.806
    1STR   H06549346   0.124   3.129   0.904
    1STR   C06649347   9.254   2.958   0.758
    1STR   H06749348   9.213   3.047   0.804
    1STR   H06849349   9.265   2.971   0.652
    1STR   O06949350   9.160   2.853   0.770
    1STR   C07049351   9.022   2.887   0.787
    1STR   H07149352   9.008   2.915   0.890
    1STR   C07249353   8.958   3.000   0.705
    1STR   H07349354   8.963   2.983   0.598
    1STR   H07449355   9.001   3.097   0.729
    1STR   H07549356   8.852   3.007   0.730
    1STR   C07649357   8.949   2.757   0.755
    1STR   H07749358   8.927   2.751   0.651
    1STR   H07849359   9.018   2.675   0.775
    1STR   O07949360   8.823   2.739   0.816
    1STR   C08049361   8.841   2.666   0.934
    1STR   H08149362   8.925   2.719   0.972
    1STR   C08249363   8.729   2.700   1.034
    1STR   H08349364   8.677   2.613   1.071
    1STR   H08449365   8.659   2.772   0.994
    1STR   H08549366   8.769   2.749   1.122
    1STR   C08649367   8.877   2.515   0.909
    1STR   H08749368   8.834   2.454   0.986
    1STR   H08849369   8.831   2.481   0.817
    1STR   O08949370   9.017   2.479   0.901
    1STR   C09049371   9.065   2.394   1.006
    1STR   H09149372   9.040   2.436   1.100
    1STR   C09249373   9.004   2.256   1.017
    1STR   H09349374   9.065   2.181   0.972
    1STR   H09449375   8.903   2.247   0.977
    1STR   H09549376   9.006   2.231   1.123
    1STR   C09649377   9.216   2.380   1.013
    1STR   H09749378   9.239   2.327   1.106
    1STR   H09849379   9.254   2.317   0.934
    1STR   O09949380   9.280   2.506   1.013
    1STR   C10049381   0.085   2.508   1.082
    1STR   H10149382   0.072   2.487   1.187
    1STR   C10249383   0.168   2.389   1.027
    1STR   H10349384   0.167   2.370   0.921
    1STR   H10449385   0.138   2.294   1.069
    1STR   H10549386   0.272   2.400   1.049
    1STR   C10649387   0.149   2.652   1.074
    1STR   H10749388   0.255   2.642   1.065
    1STR   H10849389   0.113   2.702   0.988
    1STR   O10949390   0.112   2.748   1.173
    1STR   C11049391   0.167   2.883   1.177
    1STR   H11149392   0.207   2.890   1.277
    1STR   C11249393   0.290   2.928   1.097
    1STR   H11349394   0.263   2.971   1.003
    1STR   H11449395   0.364   2.851   1.077
    1STR   H11549396   0.341   3.009   1.149
    1STR   C11649397   0.055   2.988   1.181
    1STR   H11749398   0.043   3.021   1.284
    1STR   H11849399   0.081   3.077   1.124
    1STR   O11949400   9.255   2.932   1.133
    1STR   C12049401   9.136   2.975   1.196
    1STR   H12149402   9.144   2.967   1.305
    1STR   C12249403   9.110   3.120   1.153
    1STR   H12349404   9.106   3.128   1.044
    1STR   H12449405   9.189   3.187   1.188
    1STR   H12549406   9.016   3.157   1.194
    1STR   C12649407   9.025   2.880   1.148
    1STR   H12749408   8.941   2.936   1.107
    1STR   H12849409   9.070   2.826   1.066
    1STR   O12949410   8.972   2.790   1.247
    1STR   C13049411   8.998   2.651   1.222
    1STR   H13149412   8.989   2.627   1.120
    1STR   C13249413   9.149   2.631   1.233
    1STR   H13349414   9.180   2.530   1.216
    1STR   H13449415   9.194   2.658   1.326
    1STR   H13549416   9.203   2.688   1.158
    1STR   C13649417   8.895   2.552   1.289
    1STR   H13749418   8.938   2.500   1.372
    1STR   H13849419   8.814   2.613   1.329
    1STR   O13949420   8.842   2.445   1.208
    1STR   C14049421   8.756   2.350   1.274
    1STR   H14149422   8.802   2.325   1.368
    1STR   C14249423   8.619   2.417   1.291
    1STR   H14349424   8.575   2.443   1.195
    1STR   H14449425   8.624   2.509   1.349
    1STR   H14549426   8.548   2.351   1.342
    1STR   C14649427   8.739   2.212   1.204
    1STR   H14749428   8.648   2.165   1.240
    1STR   H14849429   8.727   2.227   1.097
    1STR   O14949430   8.846   2.123   1.236
    1STR   C15049431   8.846   1.988   1.184
    1STR   H15149432   8.813   1.924   1.266
    1STR   C15249433   8.752   1.966   1.064
    1STR   H15349434   8.777   2.031   0.981
    1STR   H15449435   8.647   1.982   1.089
    1STR   H15549436   8.761   1.864   1.027
    1STR   C15649437   8.991   1.952   1.144
    1STR   H15749438   9.003   1.982   1.041
    1STR   H15849439   9.065   2.014   1.195
    1STR   O15949440   9.025   1.813   1.147
    1STR   C16049441   9.113   1.772   1.252
    1STR   H16149442   9.177   1.853   1.285
    1STR   C16249443   9.022   1.729   1.368
    1STR   H16349444   8.964   1.641   1.342
    1STR   H16449445   8.951   1.807   1.395
    1STR   H16549446   9.080   1.706   1.458
    1STR   C16649447   9.205   1.655   1.204
    1STR   H16749448   9.210   1.582   1.284
    1STR   H16849449   9.155   1.603   1.122
    1STR   O16949450   0.018   1.690   1.159
    1STR   C17049451   0.117   1.698   1.263
    1STR   H17149452   0.070   1.762   1.336
    1STR   C17249453   0.150   1.558   1.318
    1STR   H17349454   0.187   1.493   1.238
    1STR   H17449455   0.067   1.507   1.365
    1STR   H17549456   0.228   1.564   1.394
    1STR   C17649457   0.251   1.771   1.237
    1STR   H17749458   0.292   1.812   1.330
    1STR   H17849459   0.324   1.696   1.205
    1STR   O17949460   0.257   1.866   1.133
    1STR   C18049461   0.213   2.000   1.147
    1STR   H18149462   0.220   2.043   1.048
    1STR   C18249463   0.062   2.000   1.167
    1STR   H18349464   0.035   1.971   1.268
    1STR   H18449465   0.016   1.929   1.099
    1STR   H18549466   0.016   2.095   1.141
    1STR   C18649467   0.312   2.085   1.233
    1STR   H18749468   0.285   2.089   1.338
    1STR   H18849469   0.407   2.031   1.232
    1STR   O18949470   0.333   2.217   1.177
    1STR   C19049471   0.454   2.289   1.208
    1STR   H19149472   0.461   2.277   1.311
    1STR   C19249473   0.576   2.211   1.163
    1STR   H19349474   0.539   2.143   1.091
    1STR   H19449475   0.619   2.150   1.242
    1STR   H19549476   0.653   2.272   1.118
    1STR   C19649477   0.465   2.445   1.193
    1STR   H19749478   0.561   2.477   1.231
    1STR   H19849479   0.452   2.492   1.097
    1STR   O19949480   0.361   2.507   1.264
    1STR   C20049481   0.374   2.642   1.304
    1STR   H20149482   0.365   2.707   1.220
    1STR   C20249483   0.252   2.651   1.390
    1STR   H20349484   0.275   2.602   1.483
    1STR   H20449485   0.164   2.604   1.347
    1STR   H20549486   0.227   2.752   1.415
    1STR   C20649487   0.491   2.692   1.389
    1STR   H20749488   0.469   2.794   1.415
    1STR   H20849489   0.496   2.641   1.485
    1STR   O20949490   0.618   2.686   1.331
    1STR   C21049491   0.635   2.751   1.207
    1STR   H21149492   0.567   2.711   1.133
    1STR   C21249493   0.616   2.903   1.221
    1STR   H21349494   0.687   2.945   1.292
    1STR   H21449495   0.517   2.930   1.256
    1STR   H21549496   0.631   2.953   1.125
    1STR   C21649497   0.778   2.717   1.165
    1STR   H21749498   0.794   2.752   1.063
    1STR   H21849499   0.846   2.774   1.227
    1STR   O21949500   0.802   2.576   1.168
    1STR   C22049501   0.858   2.522   1.288
    1STR   H22149502   0.799   2.549   1.375
    1STR   C22249503   0.844   2.370   1.276
    1STR   H22349504   0.863   2.336   1.174
    1STR   H22449505   0.744   2.341   1.307
    1STR   H22549506   0.912   2.316   1.341
    1STR   C22649507   1.005   2.562   1.306
    1STR   H22749508   1.055   2.495   1.376
    1STR   H22849509   1.056   2.548   1.210
    1STR   O22949510   1.023   2.698   1.346
    1STR   C23049511   0.985   2.731   1.479
    1STR   H23149512   0.891   2.684   1.507
    1STR   C23249513   1.094   2.678   1.573
    1STR   H23349514   1.192   2.713   1.542
    1STR   H23449515   1.095   2.569   1.576
    1STR   H23549516   1.076   2.711   1.675
    1STR   C23649517   0.972   2.885   1.489
    1STR   H23749518   1.025   2.923   1.575
    1STR   H23849519   1.023   2.930   1.403
    1STR   O23949520   0.838   2.937   1.489
    1STR   C24049521   0.749   2.895   1.593
    1STR   H24149522   0.718   2.793   1.571
    1STR   C24249523   0.818   2.900   1.730
    1STR   H24349524   0.873   2.992   1.744
    1STR   H24449525   0.887   2.817   1.741
    1STR   H24549526   0.746   2.891   1.811
    1STR   C24649527   0.621   2.981   1.591
    1STR   H24749528   0.622   3.061   1.665
    1STR   H24849529   0.608   3.027   1.493
    1STR   O24949530   0.511   2.895   1.617
    1STR   C25049531   0.381   2.951   1.634
    1STR   H25149532   0.383   3.018   1.719
    1STR   C25249533   0.340   3.036   1.512
    1STR   H25349534   0.342   2.978   1.421
    1STR   H25449535   0.404   3.123   1.500
    1STR   H25549536   0.239   3.075   1.525
    1STR   C25649537   0.284   2.832   1.663
    1STR   H25749538   0.323   2.740   1.623
    1STR   H25849539   0.278   2.811   1.769
    1STR   O25949540   0.160   2.861   1.601
    1STR   C26049541   0.038   2.787   1.619
    1STR   H26149542   9.298   2.820   1.701
    1STR   C26249543   9.288   2.839   1.494
    1STR   H26349544   9.311   2.944   1.479
    1STR   H26449545   9.181   2.838   1.504
    1STR   H26549546   0.002   2.788   1.405
    1STR   C26649547   0.044   2.637   1.647
    1STR   H26749548   0.095   2.581   1.572
    1STR   H26849549   0.103   2.623   1.737
    1STR   O26949550   9.239   2.578   1.678
    1STR   C27049551   9.148   2.539   1.575
    1STR   H27149552   9.093   2.467   1.632
    1STR   C27249553   9.036   2.642   1.545
    1STR   H27349554   9.044   2.693   1.452
    1STR   H27449555   9.025   2.726   1.608
    1STR   H27549556   8.937   2.599   1.550
    1STR   C27649557   9.193   2.441   1.464
    1STR   H27749558   9.164   2.342   1.492
    1STR   H27849559   9.127   2.439   1.380
    1STR   O27949560   0.009   2.446   1.421
    1STR   C28049561   0.078   2.328   1.458
    1STR   H28149562   0.038   2.310   1.551
    1STR   C28249563   0.043   2.223   1.358
    1STR   H28349564   0.091   2.250   1.266
    1STR   H28449565   9.257   2.212   1.340
    1STR   H28549566   0.083   2.129   1.394
    1STR   C28649567   0.229   2.334   1.483
    1STR   H28749568   0.268   2.347   1.384
    1STR   H28849569   0.243   2.420   1.546
    1STR   O28949570   0.303   2.230   1.553
    1STR   C29049571   0.447   2.241   1.548
    1STR   H29149572   0.478   2.172   1.470
    1STR   C29249573   0.491   2.386   1.522
    1STR   H29349574   0.447   2.432   1.441
    1STR   H29449575   0.596   2.395   1.495
    1STR   H29549576   0.459   2.453   1.600
    1STR   C29649577   0.533   2.190   1.663
    1STR   H29749578   0.503   2.232   1.757
    1STR   H29849579   0.521   2.082   1.671
    1STR   O29949580   0.669   2.220   1.625
    1STR   C30049581   0.742   2.320   1.698
    1STR   H30149582   0.745   2.281   1.797
    1STR   C30249583   0.884   2.327   1.643
    1STR   H30349584   0.885   2.380   1.548
    1STR   H30449585   0.926   2.228   1.628
    1STR   H30549586   0.947   2.383   1.712
    1STR   C30649587   0.689   2.463   1.723
    1STR   H30749588   0.758   2.518   1.786
    1STR   H30849589   0.682   2.523   1.633
    1STR   O30949590   0.565   2.446   1.789
    1STR    H1R49591   0.562   2.549   1.961
    1STR    H1S49592   0.478   2.761   1.844
    1STR    H1T49593   0.510   2.673   1.694
    1STR    H1U49594   0.641   2.710   1.803
    1STR    H1V49595   0.303   2.612   1.865
    1STR    H1W49596   0.347   2.512   2.000
    1STR    H1X49597   0.256   2.248   1.717
    1STR    H1Y49598   9.243   2.347   1.810
    1STR    H1Z49599   9.051   2.254   1.687
    1STR    H2049600   9.110   2.044   1.397
    1STR    H2149601   9.001   1.978   1.518
    1STR    H2249602   8.995   2.149   1.476
    1STR    H2349603   9.207   1.874   1.492
    1STR    H2749604   0.175   2.048   1.644
    1STR    H2849605   0.258   2.870   0.464
    1STR    H2949606   0.492   2.886   0.558
    1STR    H2A49607   0.715   2.607   0.630
    1STR    H2B49608   0.648   2.748   0.710
    1STR    H2C49609   0.725   2.768   0.553
    1STR   BCK149610   9.208   2.619   2.743
    1STR    O0349611   9.256   2.625   2.851
    1STR    N0449612   9.092   2.557   2.718
    1STR    C0549613   9.036   2.474   2.815
    1STR    C0649614   9.090   2.346   2.838
    1STR    C0749615   9.044   2.261   2.941
    1STR    N0849616   9.112   2.141   2.957
    1STR    C0949617   9.105   2.031   3.030
    1STR    O0A49618   9.012   2.004   3.106
    1STR    O0B49619   9.212   1.945   3.004
    1STR    C0C49620   0.019   1.952   3.073
    1STR    C0D49621   0.017   1.847   3.185
    1STR    C0E49622   0.153   1.935   2.999
    1STR    O0F49623   0.206   2.031   2.909
    1STR    C0G49624   0.197   2.173   2.927
    1STR    C0H49625   0.061   2.224   2.905
    1STR    C0I49626   0.293   2.266   3.004
    1STR    O0J49627   0.293   2.397   2.935
    1STR    C0K49628   8.708   3.043   3.760
    1STR    C0M49629   8.657   2.902   3.728
    1STR    C0N49630   8.663   3.089   3.899
    1STR    O0O49631   8.699   2.989   3.992
    1STR    C0P49632   8.749   3.020   4.110
    1STR    O0Q49633   8.755   3.134   4.157
    1STR    N0R49634   8.798   2.915   4.176
    1STR    C0S49635   8.794   2.779   4.147
    1STR    C0T49636   8.697   2.717   4.064
    1STR    C0U49637   8.704   2.578   4.041
    1STR    C0V49638   8.805   2.500   4.100
    1STR    C0W49639   8.809   2.352   4.077
    1STR    C0X49640   8.901   2.560   4.183
    1STR    N0Y49641   8.998   2.477   4.236
    1STR   BCK249642   9.108   2.515   4.299
    1STR    O1049643   9.139   2.628   4.322
    1STR    C1349644   8.892   2.699   4.206
    1STR    C1449645   8.938   2.306   3.023
    1STR    C1549646   8.884   2.434   3.002
    1STR    C1649647   8.932   2.519   2.898
    1STR    C1749648   8.885   2.663   2.883
    1STR    H1B49649   9.061   2.558   2.621
    1STR    H1C49650   9.172   2.314   2.777
    1STR    H1D49651   9.195   2.137   2.900
    1STR    H1E49652   0.029   2.049   3.117
    1STR    H1F49653   0.070   1.758   3.154
    1STR    H1G49654   0.068   1.884   3.274
    1STR    H1H49655   9.236   1.821   3.215
    1STR    H1I49656   0.150   1.840   2.948
    1STR    H1J49657   0.233   1.923   3.071
    1STR    H1K49658   0.239   2.194   2.834
    1STR    H1M49659   0.007   2.198   2.990
    1STR    H1N49660   0.016   2.186   2.815
    1STR    H1O49661   0.053   2.332   2.899
    1STR    H1P49662   0.276   2.274   3.110
    1STR    H1Q49663   0.388   2.217   3.004
    1STR   C01049664   0.365   2.504   2.998
    1STR   H01149665   0.318   2.507   3.094
    1STR   C01249666   0.505   2.455   3.002
    1STR   H01349667   0.541   2.446   2.901
    1STR   H01449668   0.523   2.360   3.048
    1STR   H01549669   0.565   2.526   3.055
    1STR   C01649670   0.383   2.653   2.946
    1STR   H01749671   0.448   2.701   3.016
    1STR   H01849672   0.439   2.660   2.855
    1STR   O01949673   0.274   2.743   2.939
    1STR   C02049674   0.289   2.884   2.964
    1STR   H02149675   0.308   2.907   3.068
    1STR   C02249676   0.411   2.953   2.907
    1STR   H02349677   0.426   2.938   2.801
    1STR   H02449678   0.500   2.922   2.961
    1STR   H02549679   0.402   3.058   2.930
    1STR   C02649680   0.154   2.950   2.939
    1STR   H02749681   0.163   3.038   2.875
    1STR   H02849682   0.087   2.880   2.891
    1STR   O02949683   0.099   2.980   3.066
    1STR   C03049684   9.294   3.047   3.068
    1STR   H03149685   9.247   3.028   3.164
    1STR   C03249686   0.003   3.197   3.071
    1STR   H03349687   0.080   3.222   2.999
    1STR   H03449688   0.042   3.227   3.168
    1STR   H03549689   9.232   3.254   3.054
    1STR   C03649690   9.193   2.996   2.965
    1STR   H03749691   9.100   3.052   2.972
    1STR   H03849692   9.228   3.013   2.863
    1STR   O03949693   9.169   2.856   2.980
    1STR   C04049694   9.121   2.811   3.107
    1STR   H04149695   9.193   2.830   3.185
    1STR   C04249696   8.987   2.881   3.131
    1STR   H04349697   8.928   2.887   3.039
    1STR   H04449698   9.004   2.982   3.167
    1STR   H04549699   8.928   2.827   3.203
    1STR   C04649700   9.103   2.660   3.111
    1STR   H04749701   9.008   2.630   3.153
    1STR   H04849702   9.103   2.627   3.011
    1STR   O04949703   9.202   2.587   3.180
    1STR   C05049704   9.289   2.509   3.103
    1STR   H05149705   9.239   2.468   3.017
    1STR   C05249706   0.078   2.607   3.076
    1STR   H05349707   0.045   2.709   3.057
    1STR   H05449708   0.128   2.571   2.988
    1STR   H05549709   0.144   2.608   3.160
    1STR   C05649710   0.041   2.391   3.164
    1STR   H05749711   0.109   2.370   3.088
    1STR   H05849712   0.109   2.415   3.244
    1STR   O05949713   9.283   2.277   3.187
    1STR   C06049714   9.318   2.206   3.301
    1STR   H06149715   9.291   2.271   3.382
    1STR   C06249716   9.212   2.105   3.322
    1STR   H06349717   9.191   2.041   3.242
    1STR   H06449718   9.117   2.149   3.346
    1STR   H06549719   9.246   2.031   3.389
    1STR   C06649720   0.142   2.156   3.330
    1STR   H06749721   0.196   2.240   3.372
    1STR   H06849722   0.132   2.083   3.407
    1STR   O06949723   0.225   2.087   3.239
    1STR   C07049724   0.343   2.035   3.303
    1STR   H07149725   0.357   2.079   3.402
    1STR   C07249726   0.334   1.884   3.328
    1STR   H07349727   0.322   1.826   3.237
    1STR   H07449728   0.251   1.860   3.394
    1STR   H07549729   0.424   1.848   3.377
    1STR   C07649730   0.466   2.073   3.218
    1STR   H07749731   0.554   2.019   3.251
    1STR   H07849732   0.451   2.037   3.116
    1STR   O07949733   0.494   2.214   3.213
    1STR   C08049734   0.494   2.292   3.331
    1STR   H08149735   0.393   2.293   3.370
    1STR   C08249736   0.585   2.223   3.433
    1STR   H08349737   0.689   2.252   3.419
    1STR   H08449738   0.581   2.115   3.436
    1STR   H08549739   0.551   2.250   3.532
    1STR   C08649740   0.531   2.443   3.310
    1STR   H08749741   0.578   2.482   3.398
    1STR   H08849742   0.613   2.450   3.239
    1STR   O08949743   0.420   2.532   3.279
    1STR   C09049744   0.430   2.674   3.308
    1STR   H09149745   0.445   2.673   3.412
    1STR   C09249746   0.566   2.732   3.262
    1STR   H09349747   0.587   2.716   3.158
    1STR   H09449748   0.648   2.688   3.317
    1STR   H09549749   0.570   2.839   3.279
    1STR   C09649750   0.308   2.774   3.272
    1STR   H09749751   0.345   2.876   3.275
    1STR   H09849752   0.296   2.743   3.171
    1STR   O09949753   0.165   2.778   3.310
    1STR   C10049754   0.108   2.885   3.393
    1STR   H10149755   0.175   2.872   3.473
    1STR   C10249756   0.133   3.031   3.355
    1STR   H10349757   0.040   3.077   3.325
    1STR   H10449758   0.208   3.045   3.277
    1STR   H10549759   0.161   3.090   3.441
    1STR   C10649760   9.287   2.871   3.465
    1STR   H10749761   9.271   2.773   3.505
    1STR   H10849762   9.293   2.933   3.555
    1STR   O10949763   9.163   2.906   3.401
    1STR   C11049764   9.045   2.877   3.480
    1STR   H11149765   9.072   2.888   3.586
    1STR   C11249766   8.940   2.983   3.451
    1STR   H11349767   8.892   2.972   3.354
    1STR   H11449768   8.983   3.083   3.454
    1STR   H11549769   8.858   2.977   3.522
    1STR   C11649770   8.985   2.734   3.462
    1STR   H11749771   8.951   2.693   3.557
    1STR   H11849772   8.896   2.735   3.399
    1STR   O11949773   9.080   2.653   3.397
    1STR   C12049774   9.112   2.521   3.440
    1STR   H12149775   9.068   2.497   3.534
    1STR   C12249776   9.036   2.423   3.348
    1STR   H12349777   9.082   2.403   3.252
    1STR   H12449778   8.936   2.460   3.325
    1STR   H12549779   9.025   2.326   3.395
    1STR   C12649780   9.270   2.523   3.434
    1STR   H12749781   9.268   2.461   3.352
    1STR   H12849782   9.312   2.612   3.387
    1STR   O12949783   0.050   2.448   3.510
    1STR   C13049784   0.190   2.483   3.497
    1STR   H13149785   0.222   2.476   3.395
    1STR   C13249786   0.207   2.624   3.540
    1STR   H13349787   0.116   2.679   3.549
    1STR   H13449788   0.270   2.683   3.484
    1STR   H13549789   0.257   2.628   3.634
    1STR   C13649790   0.292   2.410   3.589
    1STR   H13749791   0.263   2.421   3.693
    1STR   H13849792   0.293   2.304   3.567
    1STR   O13949793   0.421   2.467   3.560
    1STR   C14049794   0.504   2.530   3.659
    1STR   H14149795   0.448   2.536   3.752
    1STR   C14249796   0.630   2.444   3.668
    1STR   H14349797   0.677   2.429   3.572
    1STR   H14449798   0.607   2.346   3.710
    1STR   H14549799   0.707   2.493   3.726
    1STR   C14649800   0.558   2.672   3.626
    1STR   H14749801   0.623   2.707   3.705
    1STR   H14849802   0.621   2.671   3.538
    1STR   O14949803   0.455   2.766   3.610
    1STR   C15049804   0.478   2.899   3.648
    1STR   H15149805   0.518   2.902   3.749
    1STR   C15249806   0.574   2.968   3.549
    1STR   H15349807   0.529   2.972   3.450
    1STR   H15449808   0.668   2.914   3.540
    1STR   H15549809   0.595   3.070   3.580
    1STR   C15649810   0.339   2.965   3.646
    1STR   H15749811   0.339   3.059   3.701
    1STR   H15849812   0.322   2.997   3.545
    1STR   O15949813   0.230   2.879   3.685
    1STR   C16049814   0.241   2.798   3.801
    1STR   H16149815   0.330   2.735   3.801
    1STR   C16249816   0.264   2.905   3.912
    1STR   H16349817   0.173   2.961   3.934
    1STR   H16449818   0.343   2.976   3.891
    1STR   H16549819   0.304   2.864   4.003
    1STR   C16649820   0.115   2.701   3.818
    1STR   H16749821   0.145   2.636   3.896
    1STR   H16849822   0.043   2.772   3.845
    1STR   O16949823   0.058   2.588   3.740
    1STR   C17049824   9.251   2.514   3.760
    1STR   H17149825   9.221   2.500   3.860
    1STR   C17249826   9.136   2.605   3.727
    1STR   H17349827   9.157   2.659   3.636
    1STR   H17449828   9.129   2.683   3.797
    1STR   H17549829   9.039   2.556   3.729
    1STR   C17649830   9.235   2.361   3.717
    1STR   H17749831   9.160   2.315   3.781
    1STR   H17849832   9.193   2.353   3.618
    1STR   O17949833   0.030   2.274   3.722
    1STR   C18049834   0.031   2.155   3.640
    1STR   H18149835   0.045   2.206   3.549
    1STR   C18249836   0.154   2.060   3.649
    1STR   H18349837   0.172   2.018   3.746
    1STR   H18449838   0.247   2.108   3.620
    1STR   H18549839   0.143   1.973   3.585
    1STR   C18649840   9.219   2.078   3.632
    1STR   H18749841   9.176   2.084   3.728
    1STR   H18849842   9.153   2.135   3.569
    1STR   O18949843   9.227   1.943   3.581
    1STR   C19049844   9.102   1.875   3.568
    1STR   H19149845   9.053   1.889   3.662
    1STR   C19249846   9.010   1.929   3.458
    1STR   H19349847   8.910   1.891   3.468
    1STR   H19449848   9.044   1.905   3.358
    1STR   H19549849   8.996   2.036   3.467
    1STR   C19649850   9.121   1.723   3.554
    1STR   H19749851   9.136   1.693   3.450
    1STR   H19849852   9.211   1.694   3.607
    1STR   O19949853   9.012   1.656   3.617
    1STR   C20049854   8.898   1.630   3.535
    1STR   H20149855   8.899   1.686   3.442
    1STR   C20249856   8.908   1.482   3.498
    1STR   H20349857   8.909   1.419   3.587
    1STR   H20449858   9.000   1.463   3.443
    1STR   H20549859   8.825   1.452   3.435
    1STR   C20649860   8.769   1.662   3.613
    1STR   H20749861   8.684   1.618   3.560
    1STR   H20849862   8.772   1.612   3.709
    1STR   O20949863   8.749   1.801   3.638
    1STR   C21049864   8.656   1.869   3.553
    1STR   H21149865   8.682   1.850   3.448
    1STR   C21249866   8.513   1.821   3.583
    1STR   H21349867   8.491   1.831   3.689
    1STR   H21449868   8.495   1.717   3.555
    1STR   H21549869   8.440   1.881   3.529
    1STR   C21649870   8.661   2.021   3.577
    1STR   H21749871   8.591   2.073   3.511
    1STR   H21849872   8.623   2.037   3.677
    1STR   O21949873   8.789   2.081   3.565
    1STR   C22049874   8.791   2.218   3.601
    1STR   H22149875   8.720   2.232   3.679
    1STR   C22249876   8.921   2.259   3.669
    1STR   H22349877   8.999   2.265   3.596
    1STR   H22449878   8.950   2.190   3.748
    1STR   H22549879   8.911   2.357   3.715
    1STR   C22649880   8.756   2.312   3.485
    1STR   H22749881   8.810   2.406   3.494
    1STR   H22849882   8.785   2.267   3.390
    1STR   O22949883   8.617   2.342   3.483
    1STR   C23049884   8.575   2.428   3.589
    1STR   H23149885   8.653   2.445   3.663
    1STR   C23249886   8.542   2.566   3.530
    1STR   H23349887   8.464   2.559   3.455
    1STR   H23449888   8.630   2.610   3.484
    1STR   H23549889   8.508   2.634   3.608
    1STR   C23649890   8.455   2.359   3.654
    1STR   H23749891   8.396   2.430   3.712
    1STR   H23849892   8.387   2.325   3.575
    1STR   O23949893   8.493   2.243   3.729
    1STR   C24049894   8.557   2.267   3.855
    1STR   H24149895   8.640   2.336   3.847
    1STR   C24249896   8.452   2.328   3.944
    1STR   H24349897   8.366   2.264   3.933
    1STR   H24449898   8.425   2.430   3.920
    1STR   H24549899   8.485   2.328   4.047
    1STR   C24649900   8.608   2.134   3.916
    1STR   H24749901   8.608   2.139   4.025
    1STR   H24849902   8.539   2.054   3.890
    1STR   O24949903   8.741   2.104   3.874
    1STR   C25049904   8.813   2.005   3.949
    1STR   H25149905   8.848   2.052   4.039
    1STR   C25249906   8.720   1.887   3.982
    1STR   H25349907   8.687   1.836   3.892
    1STR   H25449908   8.633   1.915   4.041
    1STR   H25549909   8.774   1.818   4.044
    1STR   C25649910   8.936   1.954   3.871
    1STR   H25749911   8.944   1.846   3.879
    1STR   H25849912   8.907   1.972   3.768
    1STR   O25949913   9.065   2.016   3.895
    1STR   C26049914   9.179   1.939   3.944
    1STR   H26149915   9.142   1.906   4.040
    1STR   C26249916   9.217   1.816   3.859
    1STR   H26349917   9.280   1.843   3.775
    1STR   H26449918   9.133   1.760   3.819
    1STR   H26549919   9.279   1.747   3.914
    1STR   C26649920   9.315   2.015   3.969
    1STR   H26749921   0.037   1.978   4.062
    1STR   H26849922   0.071   1.975   3.905
    1STR   O26949923   9.318   2.158   3.956
    1STR   C27049924   0.119   2.233   3.990
    1STR   H27149925   0.148   2.203   4.089
    1STR   C27249926   0.243   2.207   3.908
    1STR   H27349927   0.236   2.235   3.804
    1STR   H27449928   0.271   2.103   3.915
    1STR   H27549929   0.322   2.272   3.944
    1STR   C27649930   0.084   2.385   3.978
    1STR   H27749931   0.122   2.420   3.883
    1STR   H27849932   9.298   2.380   3.979
    1STR   O27949933   0.121   2.482   4.076
    1STR   C28049934   0.049   2.602   4.118
    1STR   H28149935   0.035   2.588   4.224
    1STR   C28249936   0.153   2.711   4.118
    1STR   H28349937   0.238   2.682   4.059
    1STR   H28449938   0.196   2.729   4.215
    1STR   H28549939   0.113   2.805   4.083
    1STR   C28649940   9.234   2.655   4.055
    1STR   H28749941   9.251   2.658   3.954
    1STR   H28849942   9.150   2.587   4.064
    1STR   O28949943   9.195   2.792   4.075
    1STR   C29049944   9.142   2.868   3.964
    1STR   H29149945   9.197   2.859   3.873
    1STR   C29249946   8.999   2.829   3.927
    1STR   H29349947   8.976   2.726   3.954
    1STR   H29449948   8.982   2.840   3.820
    1STR   H29549949   8.931   2.897   3.972
    1STR   C29649950   9.153   3.017   3.987
    1STR   H29749951   9.093   3.045   4.074
    1STR   H29849952   9.257   3.043   4.008
    1STR   O29949953   9.114   3.078   3.865
    1STR   C30049954   9.009   3.172   3.874
    1STR   H30149955   8.946   3.154   3.962
    1STR   C30249956   9.075   3.309   3.883
    1STR   H30349957   9.133   3.330   3.793
    1STR   H30449958   9.143   3.313   3.968
    1STR   H30549959   9.001   3.388   3.895
    1STR   C30649960   8.922   3.157   3.749
    1STR   H30749961   8.856   3.243   3.736
    1STR   H30849962   8.988   3.155   3.662
    1STR   O30949963   8.850   3.034   3.753
    1STR    H1R49964   8.672   3.112   3.684
    1STR    H1S49965   8.549   2.894   3.741
    1STR    H1T49966   8.703   2.827   3.793
    1STR    H1U49967   8.680   2.872   3.625
    1STR    H1V49968   8.555   3.102   3.905
    1STR    H1W49969   8.708   3.185   3.924
    1STR    H1X49970   8.856   2.940   4.255
    1STR    H1Y49971   8.617   2.773   4.019
    1STR    H1Z49972   8.629   2.532   3.978
    1STR    H2049973   8.882   2.323   4.002
    1STR    H2149974   8.828   2.297   4.169
    1STR    H2249975   8.712   2.320   4.048
    1STR    H2349976   8.985   2.378   4.221
    1STR    H2749977   8.963   2.749   4.269
    1STR    H2849978   8.903   2.243   3.104
    1STR    H2949979   8.806   2.469   3.068
    1STR    H2A49980   8.971   2.730   2.883
    1STR    H2B49981   8.818   2.693   2.963
    1STR    H2C49982   8.839   2.681   2.786
    1STR   BCK149983   0.488   2.260   4.958
    1STR    O0349984   0.418   2.197   4.882
    1STR    N0449985   0.577   2.198   5.037
    1STR    C0549986   0.662   2.233   5.142
    1STR    C0649987   0.692   2.367   5.178
    1STR    C0749988   0.771   2.397   5.291
    1STR    N0849989   0.780   2.525   5.341
    1STR    C0949990   0.799   2.641   5.277
    1STR    O0A49991   0.854   2.652   5.169
    1STR    O0B49992   0.746   2.744   5.342
    1STR    C0C49993   0.612   2.736   5.391
    1STR    C0D49994   0.589   2.859   5.480
    1STR    C0E49995   0.514   2.717   5.272
    1STR    O0F49996   0.380   2.686   5.313
    1STR    C0G49997   0.313   2.592   5.229
    1STR    C0H49998   0.367   2.455   5.265
    1STR    C0I49999   0.163   2.584   5.260
    1STR    O0J50000   0.077   2.513   5.170
    1STR    C0K50001   0.313   1.576   6.362
    1STR    C0M50002   0.166   1.600   6.393
    1STR    C0N50003   0.403   1.686   6.418
    1STR    O0O50004   0.470   1.655   6.540
    1STR    C0P50005   0.521   1.760   6.599
    1STR    O0Q50006   0.454   1.858   6.627
    1STR    N0R50007   0.654   1.750   6.602
    1STR    C0S50008   0.745   1.853   6.574
    1STR    C0T50009   0.870   1.818   6.520
    1STR    C0U50010   0.948   1.915   6.455
    1STR    C0V50011   0.900   2.046   6.437
    1STR    C0W50012   0.978   2.142   6.348
    1STR    C0X50013   0.776   2.083   6.494
    1STR    N0Y50014   0.723   2.209   6.467
    1STR   BCK250015   0.603   2.268   6.476
    1STR    O1050016   0.592   2.385   6.444
    1STR    C1350017   0.707   1.988   6.571
    1STR    C1450018   0.825   2.292   5.367
    1STR    C1550019   0.801   2.159   5.329
    1STR    C1650020   0.721   2.129   5.218
    1STR    C1750021   0.704   1.982   5.186
    1STR    H1B50022   0.574   2.100   5.016
    1STR    H1C50023   0.650   2.448   5.122
    1STR    H1D50024   0.765   2.538   5.439
    1STR    H1E50025   0.602   2.649   5.453
    1STR    H1F50026   0.643   2.945   5.442
    1STR    H1G50027   0.483   2.884   5.489
    1STR    H1H50028   0.629   2.842   5.580
    1STR    H1I50029   0.551   2.637   5.209
    1STR    H1J50030   0.514   2.802   5.206
    1STR    H1K50031   0.325   2.617   5.124
    1STR    H1M50032   0.344   2.426   5.368
    1STR    H1N50033   0.473   2.443   5.252
    1STR    H1O50034   0.314   2.384   5.204
    1STR    H1P50035   0.169   2.526   5.348
    1STR    H1Q50036   0.123   2.678   5.293
    1STR   C01050037   9.271   2.465   5.220
    1STR   H01150038   9.301   2.417   5.307
    1STR   C01250039   9.167   2.571   5.255
    1STR   H01350040   9.116   2.609   5.168
    1STR   H01450041   9.210   2.657   5.305
    1STR   H01550042   9.090   2.532   5.319
    1STR   C01650043   9.214   2.345   5.144
    1STR   H01750044   9.140   2.376   5.073
    1STR   H01850045   9.301   2.316   5.090
    1STR   O01950046   9.168   2.238   5.229
    1STR   C02050047   9.160   2.105   5.181
    1STR   H02150048   9.102   2.107   5.090
    1STR   C02250049   9.300   2.066   5.141
    1STR   H02350050   0.040   2.134   5.084
    1STR   H02450051   9.280   1.994   5.067
    1STR   H02550052   0.041   2.020   5.218
    1STR   C02650053   9.100   1.997   5.281
    1STR   H02750054   9.092   2.036   5.382
    1STR   H02850055   8.997   1.973   5.259
    1STR   O02950056   9.173   1.874   5.276
    1STR   C03050057   9.142   1.761   5.357
    1STR   H03150058   9.119   1.792   5.458
    1STR   C03250059   9.006   1.701   5.323
    1STR   H03350060   8.986   1.705   5.217
    1STR   H03450061   8.926   1.758   5.370
    1STR   H03550062   8.998   1.599   5.359
    1STR   C03650063   9.268   1.663   5.359
    1STR   H03750064   9.277   1.613   5.455
    1STR   H03850065   9.257   1.583   5.286
    1STR   O03950066   0.069   1.736   5.327
    1STR   C04050067   0.204   1.694   5.356
    1STR   H04150068   0.208   1.688   5.463
    1STR   C04250069   0.237   1.551   5.316
    1STR   H04350070   0.344   1.531   5.326
    1STR   H04450071   0.207   1.529   5.215
    1STR   H04550072   0.187   1.481   5.384
    1STR   C04650073   0.314   1.796   5.306
    1STR   H04750074   0.398   1.797   5.375
    1STR   H04850075   0.360   1.763   5.214
    1STR   O04950076   0.265   1.929   5.286
    1STR   C05050077   0.356   2.038   5.270
    1STR   H05150078   0.452   2.001   5.237
    1STR   C05250079   0.294   2.124   5.163
    1STR   H05350080   0.269   2.075   5.070
    1STR   H05450081   0.364   2.201   5.146
    1STR   H05550082   0.208   2.181   5.192
    1STR   C05650083   0.377   2.126   5.395
    1STR   H05750084   0.298   2.200   5.402
    1STR   H05850085   0.369   2.064   5.482
    1STR   O05950086   0.496   2.204   5.408
    1STR   C06050087   0.506   2.249   5.544
    1STR   H06150088   0.405   2.249   5.586
    1STR   C06250089   0.598   2.152   5.618
    1STR   H06350090   0.699   2.156   5.579
    1STR   H06450091   0.563   2.049   5.608
    1STR   H06550092   0.603   2.176   5.724
    1STR   C06650093   0.543   2.396   5.570
    1STR   H06750094   0.650   2.411   5.573
    1STR   H06850095   0.502   2.460   5.493
    1STR   O06950096   0.482   2.424   5.696
    1STR   C07050097   0.456   2.558   5.734
    1STR   H07150098   0.399   2.549   5.827
    1STR   C07250099   0.587   2.628   5.768
    1STR   H07350100   0.654   2.634   5.682
    1STR   H07450101   0.639   2.575   5.847
    1STR   H07550102   0.569   2.730   5.802
    1STR   C07650103   0.366   2.641   5.640
    1STR   H07750104   0.334   2.729   5.694
    1STR   H07850105   0.423   2.679   5.557
    1STR   O07950106   0.261   2.571   5.575
    1STR   C08050107   0.130   2.605   5.618
    1STR   H08150108   0.124   2.577   5.722
    1STR   C08250109   0.092   2.752   5.596
    1STR   H08350110   0.063   2.773   5.493
    1STR   H08450111   0.169   2.824   5.616
    1STR   H08550112   0.007   2.773   5.659
    1STR   C08650113   0.031   2.523   5.536
    1STR   H08750114   9.250   2.528   5.567
    1STR   H08850115   0.009   2.578   5.449
    1STR   O08950116   0.078   2.394   5.499
    1STR   C09050117   9.307   2.285   5.496
    1STR   H09150118   0.009   2.253   5.590
    1STR   C09250119   9.150   2.301   5.489
    1STR   H09350120   9.101   2.205   5.502
    1STR   H09450121   9.108   2.348   5.403
    1STR   H09550122   9.105   2.361   5.565
    1STR   C09650123   0.048   2.163   5.437
    1STR   H09750124   9.291   2.100   5.401
    1STR   H09850125   0.099   2.196   5.350
    1STR   O09950126   0.132   2.096   5.533
    1STR   C10050127   0.115   1.956   5.544
    1STR   H10150128   0.114   1.927   5.441
    1STR   C10250129   0.236   1.883   5.610
    1STR   H10350130   0.269   1.926   5.701
    1STR   H10450131   0.324   1.881   5.550
    1STR   H10550132   0.218   1.781   5.639
    1STR   C10650133   9.294   1.909   5.581
    1STR   H10750134   9.222   1.959   5.519
    1STR   H10850135   9.294   1.807   5.551
    1STR   O10950136   9.226   1.916   5.704
    1STR   C11050137   9.286   1.851   5.810
    1STR   H11150138   9.209   1.849   5.887
    1STR   C11250139   9.316   1.701   5.773
    1STR   H11350140   9.222   1.647   5.763
    1STR   H11450141   0.056   1.650   5.846
    1STR   H11550142   0.052   1.681   5.683
    1STR   C11650143   0.077   1.943   5.866
    1STR   H11750144   0.046   1.978   5.964
    1STR   H11850145   0.165   1.883   5.871
    1STR   O11950146   0.104   2.062   5.795
    1STR   C12050147   0.191   2.160   5.849
    1STR   H12150148   0.176   2.168   5.956
    1STR   C12250149   0.338   2.126   5.819
    1STR   H12350150   0.349   2.106   5.714
    1STR   H12450151   0.379   2.043   5.875
    1STR   H12550152   0.403   2.211   5.836
    1STR   C12650153   0.159   2.296   5.787
    1STR   H12750154   0.242   2.360   5.813
    1STR   H12850155   0.177   2.295   5.680
    1STR   O12950156   0.040   2.364   5.835
    1STR   C13050157   9.227   2.344   5.787
    1STR   H13150158   9.252   2.387   5.698
    1STR   C13250159   9.187   2.199   5.773
    1STR   H13350160   9.209   2.147   5.865
    1STR   H13450161   9.235   2.138   5.701
    1STR   H13550162   9.085   2.191   5.741
    1STR   C13650163   9.104   2.438   5.805
    1STR   H13750164   9.015   2.386   5.774
    1STR   H13850165   9.085   2.463   5.906
    1STR   O13950166   9.112   2.556   5.725
    1STR   C14050167   8.997   2.621   5.675
    1STR   H14150168   8.934   2.655   5.755
    1STR   C14250169   9.050   2.737   5.588
    1STR   H14350170   9.114   2.695   5.511
    1STR   H14450171   9.113   2.809   5.638
    1STR   H14550172   8.971   2.794   5.541
    1STR   C14650173   8.910   2.548   5.577
    1STR   H14750174   8.832   2.620   5.557
    1STR   H14850175   8.966   2.530   5.486
    1STR   O14950176   8.849   2.424   5.605
    1STR   C15050177   8.740   2.423   5.694
    1STR   H15150178   8.774   2.476   5.779
    1STR   C15250179   8.609   2.496   5.658
    1STR   H15350180   8.551   2.452   5.577
    1STR   H15450181   8.627   2.602   5.636
    1STR   H15550182   8.543   2.495   5.744
    1STR   C15650183   8.725   2.274   5.723
    1STR   H15750184   8.648   2.258   5.797
    1STR   H15850185   8.695   2.219   5.633
    1STR   O15950186   8.852   2.229   5.768
    1STR   C16050187   8.860   2.099   5.823
    1STR   H16150188   8.766   2.081   5.872
    1STR   C16250189   8.874   2.000   5.706
    1STR   H16350190   8.965   2.019   5.649
    1STR   H16450191   8.790   2.007   5.637
    1STR   H16550192   8.878   1.897   5.741
    1STR   C16650193   8.973   2.086   5.930
    1STR   H16750194   8.945   2.013   6.002
    1STR   H16850195   9.052   2.028   5.886
    1STR   O16950196   9.018   2.211   5.992
    1STR   C17050197   9.116   2.211   6.101
    1STR   H17150198   9.065   2.266   6.178
    1STR   C17250199   9.138   2.071   6.156
    1STR   H17350200   9.179   2.002   6.083
    1STR   H17450201   9.042   2.033   6.191
    1STR   H17550202   9.202   2.071   6.242
    1STR   C17650203   9.252   2.288   6.086
    1STR   H17750204   9.315   2.280   6.174
    1STR   H17850205   9.313   2.237   6.015
    1STR   O17950206   9.235   2.426   6.054
    1STR   C18050207   0.019   2.526   6.052
    1STR   H18150208   0.007   2.549   6.155
    1STR   C18250209   0.165   2.495   6.033
    1STR   H18350210   0.196   2.515   5.932
    1STR   H18450211   0.192   2.394   6.062
    1STR   H18550212   0.220   2.571   6.087
    1STR   C18650213   9.306   2.644   5.954
    1STR   H18750214   9.286   2.605   5.856
    1STR   H18850215   9.215   2.685   5.990
    1STR   O18950216   0.085   2.748   5.931
    1STR   C19050217   0.045   2.887   5.918
    1STR   H19150218   0.039   2.930   6.016
    1STR   C19250219   0.169   2.964   5.871
    1STR   H19350220   0.222   2.914   5.791
    1STR   H19450221   0.241   2.973   5.952
    1STR   H19550222   0.145   3.065   5.837
    1STR   C19650223   9.230   2.932   5.851
    1STR   H19750224   9.198   3.026   5.897
    1STR   H19850225   9.248   2.957   5.747
    1STR   O19950226   9.123   2.836   5.855
    1STR   C20050227   8.996   2.862   5.916
    1STR   H20150228   9.016   2.936   5.991
    1STR   C20250229   8.895   2.926   5.820
    1STR   H20350230   8.863   2.859   5.742
    1STR   H20450231   8.938   3.015   5.773
    1STR   H20550232   8.806   2.957   5.875
    1STR   C20650233   8.952   2.729   5.985
    1STR   H20750234   9.024   2.656   5.954
    1STR   H20850235   8.968   2.742   6.090
    1STR   O20950236   8.824   2.662   5.972
    1STR   C21050237   8.833   2.521   6.010
    1STR   H21150238   8.887   2.466   5.935
    1STR   C21250239   8.919   2.496   6.131
    1STR   H21350240   8.899   2.573   6.202
    1STR   H21450241   9.025   2.501   6.112
    1STR   H21550242   8.898   2.398   6.172
    1STR   C21650243   8.701   2.443   6.029
    1STR   H21750244   8.658   2.469   6.126
    1STR   H21850245   8.629   2.475   5.954
    1STR   O21950246   8.725   2.300   6.015
    1STR   C22050247   8.630   2.214   6.077
    1STR   H22150248   8.641   2.254   6.175
    1STR   C22250249   8.489   2.238   6.020
    1STR   H22350250   8.481   2.207   5.916
    1STR   H22450251   8.459   2.342   6.026
    1STR   H22550252   8.415   2.180   6.074
    1STR   C22650253   8.652   2.058   6.091
    1STR   H22750254   8.578   2.021   6.162
    1STR   H22850255   8.622   2.012   5.998
    1STR   O22950256   8.777   2.004   6.136
    1STR   C23050257   8.787   1.859   6.143
    1STR   H23150258   8.711   1.830   6.216
    1STR   C23250259   8.757   1.786   6.011
    1STR   H23350260   8.829   1.814   5.935
    1STR   H23450261   8.656   1.804   5.973
    1STR   H23550262   8.767   1.679   6.025
    1STR   C23650263   8.921   1.801   6.197
    1STR   H23750264   8.957   1.860   6.279
    1STR   H23850265   8.893   1.709   6.246
    1STR   O23950266   9.032   1.779   6.105
    1STR   C24050267   9.132   1.691   6.160
    1STR   H24150268   9.153   1.725   6.261
    1STR   C24250269   9.074   1.548   6.152
    1STR   H24350270   9.044   1.526   6.049
    1STR   H24450271   8.987   1.530   6.215
    1STR   H24550272   9.147   1.473   6.180
    1STR   C24650273   9.271   1.680   6.094
    1STR   H24750274   0.004   1.597   6.139
    1STR   H24850275   9.247   1.646   5.996
    1STR   O24950276   0.042   1.792   6.094
    1STR   C25050277   0.184   1.763   6.097
    1STR   H25150278   0.194   1.730   6.197
    1STR   C25250279   0.243   1.654   6.005
    1STR   H25350280   0.255   1.688   5.902
    1STR   H25450281   0.187   1.561   6.007
    1STR   H25550282   0.345   1.629   6.036
    1STR   C25650283   0.280   1.884   6.097
    1STR   H25750284   0.381   1.853   6.075
    1STR   H25850285   0.264   1.962   6.025
    1STR   O25950286   0.276   1.942   6.223
    1STR   C26050287   0.187   2.049   6.230
    1STR   H26150288   0.112   2.051   6.152
    1STR   C26250289   0.116   2.013   6.358
    1STR   H26350290   0.182   2.013   6.445
    1STR   H26450291   0.069   1.916   6.351
    1STR   H26550292   0.036   2.083   6.374
    1STR   C26650293   0.270   2.178   6.227
    1STR   H26750294   0.209   2.266   6.246
    1STR   H26850295   0.342   2.169   6.305
    1STR   O26950296   0.345   2.192   6.106
    1STR   C27050297   0.456   2.282   6.096
    1STR   H27150298   0.457   2.322   5.995
    1STR   C27250299   0.449   2.406   6.185
    1STR   H27350300   0.439   2.373   6.286
    1STR   H27450301   0.362   2.467   6.174
    1STR   H27550302   0.536   2.471   6.176
    1STR   C27650303   0.590   2.209   6.119
    1STR   H27750304   0.671   2.266   6.074
    1STR   H27850305   0.609   2.212   6.225
    1STR   O27950306   0.594   2.075   6.070
    1STR   C28050307   0.662   1.987   6.159
    1STR   H28150308   0.752   2.036   6.198
    1STR   C28250309   0.569   1.953   6.275
    1STR   H28350310   0.495   1.884   6.243
    1STR   H28450311   0.518   2.038   6.317
    1STR   H28550312   0.621   1.903   6.354
    1STR   C28650313   0.703   1.857   6.090
    1STR   H28750314   0.620   1.820   6.031
    1STR   H28850315   0.787   1.875   6.023
    1STR   O28950316   0.737   1.764   6.194
    1STR   C29050317   0.776   1.634   6.154
    1STR   H29150318   0.719   1.604   6.066
    1STR   C29250319   0.926   1.641   6.124
    1STR   H29350320   0.980   1.678   6.211
    1STR   H29450321   0.948   1.708   6.041
    1STR   H29550322   0.965   1.542   6.099
    1STR   C29650323   0.746   1.538   6.271
    1STR   H29750324   0.838   1.504   6.318
    1STR   H29850325   0.692   1.591   6.350
    1STR   O29950326   0.675   1.423   6.225
    1STR   C30050327   0.534   1.440   6.226
    1STR   H30150328   0.515   1.543   6.198
    1STR   C30250329   0.468   1.352   6.120
    1STR   H30350330   0.504   1.378   6.020
    1STR   H30450331   0.360   1.365   6.122
    1STR   H30550332   0.489   1.246   6.137
    1STR   C30650333   0.482   1.405   6.368
    1STR   H30750334   0.490   1.298   6.385
    1STR   H30850335   0.544   1.451   6.443
    1STR   O30950336   0.347   1.442   6.394
    1STR    H1R50337   0.318   1.581   6.254
    1STR    H1S50338   0.104   1.560   6.314
    1STR    H1T50339   0.139   1.706   6.403
    1STR    H1U50340   0.137   1.552   6.484
    1STR    H1V50341   0.349   1.781   6.423
    1STR    H1W50342   0.483   1.705   6.348
    1STR    H1X50343   0.684   1.655   6.596
    1STR    H1Y50344   0.905   1.716   6.521
    1STR    H1Z50345   1.043   1.887   6.411
    1STR    H2050346   1.034   2.086   6.273
    1STR    H2150347   0.914   2.211   6.294
    1STR    H2250348   1.051   2.199   6.407
    1STR    H2350349   0.789   2.277   6.432
    1STR    H2750350   0.616   2.018   6.617
    1STR    H2850351   0.885   2.313   5.454
    1STR    H2950352   0.845   2.079   5.387
    1STR    H2A50353   0.646   1.964   5.096
    1STR    H2B50354   0.655   1.931   5.269
    1STR    H2C50355   0.801   1.935   5.171
    1STR   BCK150356   0.100   2.896   7.462
    1STR    O0350357   0.107   2.967   7.561
    1STR    N0450358   9.308   2.871   7.395
    1STR    C0550359   9.182   2.925   7.417
    1STR    C0650360   9.115   2.921   7.540
    1STR    C0750361   8.978   2.956   7.548
    1STR    N0850362   8.903   2.903   7.651
    1STR    C0950363   8.775   2.919   7.682
    1STR    O0A50364   8.712   3.022   7.665
    1STR    O0B50365   8.717   2.805   7.728
    1STR    C0C50366   8.771   2.675   7.707
    1STR    C0D50367   8.674   2.576   7.770
    1STR    C0E50368   8.793   2.643   7.558
    1STR    O0F50369   8.904   2.555   7.547
    1STR    C0G50370   8.951   2.543   7.413
    1STR    C0H50371   9.065   2.637   7.390
    1STR    C0I50372   8.988   2.400   7.380
    1STR    O0J50373   9.119   2.353   7.345
    1STR    C0K50374   0.586   2.918   8.914
    1STR    C0M50375   0.671   3.032   8.860
    1STR    C0N50376   0.469   2.943   9.002
    1STR    O0O50377   0.366   2.844   9.003
    1STR    C0P50378   0.391   2.727   9.065
    1STR    O0Q50379   0.499   2.695   9.108
    1STR    N0R50380   0.293   2.642   9.088
    1STR    C0S50381   0.157   2.637   9.062
    1STR    C0T50382   0.074   2.749   9.060
    1STR    C0U50383   9.255   2.726   9.063
    1STR    C0V50384   9.199   2.600   9.047
    1STR    C0W50385   9.052   2.579   9.067
    1STR    C0X50386   9.285   2.497   9.013
    1STR    N0Y50387   9.235   2.388   8.947
    1STR   BCK250388   9.301   2.325   8.854
    1STR    O1050389   0.097   2.344   8.822
    1STR    C1350390   0.101   2.511   9.039
    1STR    C1450391   8.915   3.015   7.437
    1STR    C1550392   8.984   3.026   7.316
    1STR    C1650393   9.110   2.966   7.304
    1STR    C1750394   9.164   2.925   7.172
    1STR    H1B50395   0.006   2.826   7.307
    1STR    H1C50396   9.168   2.873   7.621
    1STR    H1D50397   8.947   2.824   7.694
    1STR    H1E50398   8.865   2.666   7.762
    1STR    H1F50399   8.583   2.567   7.711
    1STR    H1G50400   8.720   2.478   7.776
    1STR    H1H50401   8.646   2.609   7.870
    1STR    H1I50402   8.813   2.732   7.498
    1STR    H1J50403   8.705   2.598   7.511
    1STR    H1K50404   8.870   2.570   7.345
    1STR    H1M50405   9.089   2.684   7.482
    1STR    H1N50406   9.039   2.716   7.323
    1STR    H1O50407   9.151   2.589   7.345
    1STR    H1P50408   8.950   2.340   7.460
    1STR    H1Q50409   8.926   2.381   7.295
    1STR   C01050410   9.116   2.210   7.318
    1STR   H01150411   9.026   2.176   7.353
    1STR   C01250412   9.126   2.213   7.175
    1STR   H01350413   9.059   2.288   7.145
    1STR   H01450414   9.104   2.119   7.129
    1STR   H01550415   9.227   2.243   7.155
    1STR   C01650416   9.194   2.085   7.360
    1STR   H01750417   9.125   2.001   7.362
    1STR   H01850418   9.261   2.052   7.282
    1STR   O01950419   9.258   2.085   7.483
    1STR   C02050420   0.071   2.125   7.476
    1STR   H02150421   0.134   2.045   7.447
    1STR   C02250422   0.092   2.246   7.381
    1STR   H02350423   0.089   2.225   7.277
    1STR   H02450424   0.187   2.289   7.402
    1STR   H02550425   0.027   2.331   7.384
    1STR   C02650426   0.112   2.133   7.620
    1STR   H02750427   0.044   2.200   7.665
    1STR   H02850428   0.101   2.038   7.670
    1STR   O02950429   0.244   2.169   7.646
    1STR   C03050430   0.254   2.277   7.733
    1STR   H03150431   0.172   2.277   7.798
    1STR   C03250432   0.363   2.244   7.832
    1STR   H03350433   0.403   2.145   7.818
    1STR   H03450434   0.315   2.233   7.928
    1STR   H03550435   0.441   2.319   7.838
    1STR   C03650436   0.246   2.410   7.660
    1STR   H03750437   0.247   2.492   7.729
    1STR   H03850438   0.336   2.424   7.601
    1STR   O03950439   0.137   2.419   7.569
    1STR   C04050440   0.005   2.460   7.603
    1STR   H04150441   0.018   2.480   7.700
    1STR   C04250442   9.309   2.608   7.575
    1STR   H04350443   9.307   2.632   7.470
    1STR   H04450444   0.069   2.666   7.619
    1STR   H04550445   9.222   2.648   7.625
    1STR   C04650446   9.196   2.365   7.597
    1STR   H04750447   9.112   2.430   7.580
    1STR   H04850448   9.214   2.299   7.520
    1STR   O04950449   9.155   2.253   7.683
    1STR   C05050450   9.018   2.209   7.699
    1STR   H05150451   8.958   2.282   7.648
    1STR   C05250452   9.003   2.065   7.649
    1STR   H05350453   9.069   1.998   7.704
    1STR   H05450454   9.027   2.055   7.545
    1STR   H05550455   8.902   2.029   7.664
    1STR   C05650456   8.963   2.207   7.844
    1STR   H05750457   8.974   2.107   7.887
    1STR   H05850458   9.020   2.269   7.909
    1STR   O05950459   8.829   2.255   7.856
    1STR   C06050460   8.787   2.256   7.993
    1STR   H06150461   8.871   2.289   8.054
    1STR   C06250462   8.682   2.364   8.019
    1STR   H06350463   8.598   2.358   7.950
    1STR   H06450464   8.730   2.462   8.009
    1STR   H06550465   8.644   2.359   8.120
    1STR   C06650466   8.743   2.117   8.040
    1STR   H06750467   8.813   2.084   8.118
    1STR   H06850468   8.645   2.119   8.086
    1STR   O06950469   8.741   2.026   7.931
    1STR   C07050470   8.735   1.889   7.963
    1STR   H07150471   8.677   1.873   8.054
    1STR   C07250472   8.663   1.822   7.846
    1STR   H07350473   8.721   1.835   7.754
    1STR   H07450474   8.565   1.867   7.830
    1STR   H07550475   8.650   1.715   7.862
    1STR   C07650476   8.877   1.834   7.979
    1STR   H07750477   8.872   1.725   7.984
    1STR   H07850478   8.937   1.859   7.891
    1STR   O07950479   8.938   1.888   8.095
    1STR   C08050480   9.053   1.821   8.145
    1STR   H08150481   9.098   1.888   8.218
    1STR   C08250482   9.007   1.696   8.220
    1STR   H08350483   8.973   1.617   8.152
    1STR   H08450484   8.922   1.722   8.283
    1STR   H08550485   9.086   1.655   8.282
    1STR   C08650486   9.158   1.789   8.038
    1STR   H08750487   9.245   1.745   8.085
    1STR   H08850488   9.119   1.710   7.975
    1STR   O08950489   9.189   1.900   7.952
    1STR   C09050490   9.286   1.993   7.998
    1STR   H09150491   9.255   2.023   8.096
    1STR   C09250492   0.107   1.930   8.017
    1STR   H09350493   0.170   1.938   7.928
    1STR   H09450494   0.108   1.825   8.045
    1STR   H09550495   0.158   1.980   8.098
    1STR   C09650496   9.292   2.115   7.899
    1STR   H09750497   0.078   2.128   7.881
    1STR   H09850498   9.247   2.083   7.806
    1STR   O09950499   9.237   2.243   7.943
    1STR   C10050500   9.268   2.378   7.892
    1STR   H10150501   9.310   2.332   7.809
    1STR   C10250502   9.140   2.467   7.850
    1STR   H10350503   9.065   2.489   7.923
    1STR   H10450504   9.067   2.432   7.782
    1STR   H10550505   9.169   2.561   7.805
    1STR   C10650506   0.070   2.470   7.938
    1STR   H10750507   0.061   2.507   8.037
    1STR   H10850508   0.162   2.415   7.943
    1STR   O10950509   0.090   2.589   7.857
    1STR   C11050510   0.168   2.700   7.897
    1STR   H11150511   0.159   2.695   8.003
    1STR   C11250512   0.314   2.693   7.850
    1STR   H11350513   0.322   2.699   7.742
    1STR   H11450514   0.362   2.600   7.882
    1STR   H11550515   0.370   2.777   7.890
    1STR   C11650516   0.107   2.834   7.851
    1STR   H11750517   0.127   2.913   7.924
    1STR   H11850518   0.159   2.866   7.761
    1STR   O11950519   9.289   2.821   7.820
    1STR   C12050520   9.198   2.910   7.884
    1STR   H12150521   9.231   2.947   7.979
    1STR   C12250522   9.191   3.044   7.809
    1STR   H12350523   9.092   3.061   7.767
    1STR   H12450524   9.264   3.051   7.729
    1STR   H12550525   9.211   3.127   7.876
    1STR   C12650526   9.066   2.827   7.896
    1STR   H12750527   8.981   2.894   7.903
    1STR   H12850528   9.058   2.770   7.804
    1STR   O12950529   9.045   2.727   7.999
    1STR   C13050530   9.160   2.664   8.054
    1STR   H13150531   9.228   2.648   7.975
    1STR   C13250532   9.235   2.765   8.128
    1STR   H13350533   9.175   2.848   8.159
    1STR   H13450534   0.005   2.799   8.080
    1STR   H13550535   9.275   2.715   8.213
    1STR   C13650536   9.151   2.538   8.147
    1STR   H13750537   9.252   2.525   8.177
    1STR   H13850538   9.102   2.557   8.238
    1STR   O13950539   9.129   2.403   8.110
    1STR   C14050540   9.193   2.303   8.191
    1STR   H14150541   9.181   2.353   8.284
    1STR   C14250542   9.091   2.188   8.181
    1STR   H14350543   9.078   2.149   8.081
    1STR   H14450544   8.994   2.225   8.210
    1STR   H14550545   9.115   2.103   8.243
    1STR   C14650546   0.027   2.254   8.183
    1STR   H14750547   0.045   2.178   8.258
    1STR   H14850548   0.060   2.200   8.098
    1STR   O14950549   0.128   2.352   8.182
    1STR   C15050550   0.267   2.321   8.202
    1STR   H15150551   0.284   2.342   8.305
    1STR   C15250552   0.315   2.176   8.192
    1STR   H15350553   0.299   2.130   8.096
    1STR   H15450554   0.267   2.113   8.267
    1STR   H15550555   0.422   2.170   8.211
    1STR   C15650556   0.352   2.424   8.123
    1STR   H15750557   0.455   2.425   8.153
    1STR   H15850558   0.362   2.400   8.020
    1STR   O15950559   0.290   2.552   8.113
    1STR   C16050560   0.351   2.657   8.184
    1STR   H16150561   0.352   2.610   8.278
    1STR   C16250562   0.495   2.685   8.134
    1STR   H16350563   0.531   2.781   8.171
    1STR   H16450564   0.505   2.687   8.027
    1STR   H16550565   0.565   2.610   8.170
    1STR   C16650566   0.265   2.784   8.210
    1STR   H16750567   0.329   2.855   8.259
    1STR   H16850568   0.244   2.834   8.116
    1STR   O16950569   0.147   2.766   8.290
    1STR   C17050570   0.076   2.882   8.344
    1STR   H17150571   0.139   2.903   8.429
    1STR   C17250572   0.084   3.000   8.244
    1STR   H17350573   0.005   3.001   8.169
    1STR   H17450574   0.178   3.017   8.194
    1STR   H17550575   0.069   3.091   8.298
    1STR   C17650576   9.248   2.874   8.409
    1STR   H17750577   9.255   2.879   8.517
    1STR   H17850578   9.198   2.965   8.380
    1STR   O17950579   9.150   2.770   8.380
    1STR   C18050580   9.006   2.794   8.383
    1STR   H18150581   8.982   2.839   8.478
    1STR   C18250582   8.951   2.884   8.271
    1STR   H18350583   8.960   2.837   8.175
    1STR   H18450584   9.000   2.981   8.265
    1STR   H18550585   8.844   2.899   8.282
    1STR   C18650586   8.937   2.657   8.376
    1STR   H18750587   8.923   2.627   8.272
    1STR   H18850588   9.005   2.589   8.424
    1STR   O18950589   8.806   2.642   8.429
    1STR   C19050590   8.769   2.508   8.467
    1STR   H19150591   8.794   2.495   8.572
    1STR   C19250592   8.616   2.506   8.455
    1STR   H19350593   8.587   2.512   8.350
    1STR   H19450594   8.572   2.590   8.507
    1STR   H19550595   8.574   2.415   8.496
    1STR   C19650596   8.828   2.388   8.388
    1STR   H19750597   8.769   2.300   8.415
    1STR   H19850598   8.810   2.403   8.282
    1STR   O19950599   8.968   2.363   8.402
    1STR   C20050600   9.012   2.257   8.488
    1STR   H20150601   8.984   2.281   8.590
    1STR   C20250602   8.943   2.123   8.453
    1STR   H20350603   8.883   2.125   8.362
    1STR   H20450604   8.877   2.089   8.532
    1STR   H20550605   9.016   2.045   8.434
    1STR   C20650606   9.167   2.242   8.484
    1STR   H20750607   9.179   2.150   8.538
    1STR   H20850608   9.212   2.195   8.400
    1STR   O20950609   9.250   2.351   8.536
    1STR   C21050610   0.051   2.392   8.468
    1STR   H21150611   0.078   2.312   8.404
    1STR   C21250612   0.019   2.522   8.401
    1STR   H21350613   0.058   2.607   8.453
    1STR   H21450614   9.233   2.539   8.393
    1STR   H21550615   0.075   2.534   8.309
    1STR   C21650616   0.185   2.416   8.536
    1STR   H21750617   0.167   2.465   8.630
    1STR   H21850618   0.234   2.321   8.552
    1STR   O21950619   0.270   2.503   8.456
    1STR   C22050620   0.404   2.525   8.495
    1STR   H22150621   0.394   2.505   8.598
    1STR   C22250622   0.498   2.413   8.445
    1STR   H22350623   0.522   2.424   8.340
    1STR   H22450624   0.456   2.314   8.461
    1STR   H22550625   0.595   2.414   8.494
    1STR   C22650626   0.464   2.671   8.472
    1STR   H22750627   0.540   2.685   8.545
    1STR   H22850628   0.525   2.673   8.383
    1STR   O22950629   0.376   2.789   8.471
    1STR   C23050630   0.432   2.922   8.497
    1STR   H23150631   0.442   2.929   8.605
    1STR   C23250632   0.576   2.934   8.441
    1STR   H23350633   0.578   2.922   8.333
    1STR   H23450634   0.645   2.862   8.485
    1STR   H23550635   0.619   3.031   8.465
    1STR   C23650636   0.353   3.051   8.447
    1STR   H23750637   0.424   3.131   8.464
    1STR   H23850638   0.342   3.049   8.340
    1STR   O23950639   0.227   3.096   8.505
    1STR   C24050640   0.185   3.236   8.492
    1STR   H24150641   0.195   3.275   8.593
    1STR   C24250642   0.270   3.322   8.397
    1STR   H24350643   0.232   3.425   8.395
    1STR   H24450644   0.265   3.284   8.295
    1STR   H24550645   0.375   3.331   8.424
    1STR   C24650646   0.035   3.269   8.458
    1STR   H24750647   0.008   3.366   8.498
    1STR   H24850648   0.029   3.289   8.351
    1STR   O24950649   9.255   3.168   8.476
    1STR   C25050650   9.159   3.173   8.581
    1STR   H25150651   9.188   3.095   8.652
    1STR   C25250652   9.152   3.303   8.657
    1STR   H25350653   9.120   3.383   8.591
    1STR   H25450654   9.248   3.326   8.699
    1STR   H25550655   9.081   3.297   8.740
    1STR   C25650656   9.018   3.146   8.526
    1STR   H25750657   8.987   3.222   8.454
    1STR   H25850658   9.018   3.051   8.474
    1STR   O25950659   8.931   3.140   8.638
    1STR   C26050660   8.791   3.121   8.619
    1STR   H26150661   8.746   3.220   8.611
    1STR   C26250662   8.749   3.045   8.493
    1STR   H26350663   8.642   3.026   8.490
    1STR   H26450664   8.797   2.949   8.487
    1STR   H26550665   8.775   3.099   8.402
    1STR   C26650666   8.739   3.055   8.749
    1STR   H26750667   8.701   3.135   8.812
    1STR   H26850668   8.651   2.993   8.730
    1STR   O26950669   8.838   2.990   8.832
    1STR   C27050670   8.886   2.859   8.800
    1STR   H27150671   8.904   2.811   8.896
    1STR   C27250672   8.787   2.772   8.721
    1STR   H27350673   8.685   2.781   8.756
    1STR   H27450674   8.813   2.667   8.728
    1STR   H27550675   8.788   2.793   8.615
    1STR   C27650676   9.027   2.861   8.740
    1STR   H27750677   9.036   2.938   8.666
    1STR   H27850678   9.106   2.879   8.812
    1STR   O27950679   9.045   2.741   8.668
    1STR   C28050680   9.110   2.639   8.738
    1STR   H28150681   9.108   2.661   8.841
    1STR   C28250682   9.031   2.512   8.712
    1STR   H28350683   9.010   2.502   8.607
    1STR   H28450684   8.939   2.506   8.769
    1STR   H28550685   9.088   2.426   8.739
    1STR   C28650686   9.253   2.632   8.686
    1STR   H28750687   9.291   2.531   8.689
    1STR   H28850688   9.245   2.666   8.585
    1STR   O28950689   0.021   2.716   8.758
    1STR   C29050690   0.148   2.739   8.698
    1STR   H29150691   0.153   2.719   8.591
    1STR   C29250692   0.156   2.889   8.720
    1STR   H29350693   0.078   2.943   8.666
    1STR   H29450694   0.251   2.925   8.685
    1STR   H29550695   0.146   2.915   8.825
    1STR   C29650696   0.261   2.664   8.772
    1STR   H29750697   0.257   2.718   8.861
    1STR   H29850698   0.235   2.563   8.797
    1STR   O29950699   0.395   2.679   8.723
    1STR   C30050700   0.512   2.626   8.791
    1STR   H30150701   0.486   2.599   8.891
    1STR   C30250702   0.594   2.507   8.741
    1STR   H30350703   0.664   2.530   8.660
    1STR   H30450704   0.541   2.421   8.711
    1STR   H30550705   0.652   2.472   8.824
    1STR   C30650706   0.616   2.734   8.786
    1STR   H30750707   0.694   2.709   8.857
    1STR   H30850708   0.670   2.743   8.691
    1STR   O30950709   0.546   2.853   8.800
    1STR    H1R50710   0.639   2.857   8.983
    1STR    H1S50711   0.685   3.109   8.934
    1STR    H1T50712   0.626   3.077   8.774
    1STR    H1U50713   0.767   2.995   8.826
    1STR    H1V50714   0.438   3.043   8.992
    1STR    H1W50715   0.509   2.943   9.100
    1STR    H1X50716   0.329   2.555   9.123
    1STR    H1Y50717   0.113   2.849   9.073
    1STR    H1Z50718   9.186   2.800   9.088
    1STR    H2050719   9.010   2.514   8.991
    1STR    H2150720   9.034   2.532   9.164
    1STR    H2250721   8.999   2.674   9.067
    1STR    H2350722   9.136   2.370   8.955
    1STR    H2750723   0.158   2.421   9.036
    1STR    H2850724   8.811   3.043   7.440
    1STR    H2950725   8.931   3.064   7.230
    1STR    H2A50726   9.259   2.972   7.153
    1STR    H2B50727   9.096   2.951   7.093
    1STR    H2C50728   9.181   2.818   7.172
    1STR   BCK150729   9.163   4.397   0.630
    1STR    O0350730   9.132   4.284   0.664
    1STR    N0450731   9.287   4.441   0.612
    1STR    C0550732   0.094   4.384   0.617
    1STR    C0650733   0.149   4.295   0.713
    1STR    C0750734   0.289   4.268   0.709
    1STR    N0850735   0.359   4.198   0.809
    1STR    C0950736   0.484   4.219   0.852
    1STR    O0A50737   0.534   4.144   0.936
    1STR    O0B50738   0.543   4.330   0.800
    1STR    C0C50739   0.661   4.390   0.851
    1STR    C0D50740   0.779   4.290   0.851
    1STR    C0E50741   0.698   4.509   0.761
    1STR    O0F50742   0.640   4.636   0.779
    1STR    C0G50743   0.641   4.712   0.656
    1STR    C0H50744   0.514   4.686   0.577
    1STR    C0I50745   0.682   4.860   0.662
    1STR    O0J50746   0.588   4.958   0.705
    1STR    C0K50747   8.887   4.090   1.600
    1STR    C0M50748   8.942   3.970   1.521
    1STR    C0N50749   8.995   4.192   1.640
    1STR    O0O50750   9.121   4.154   1.586
    1STR    C0P50751   9.228   4.223   1.619
    1STR    O0Q50752   9.222   4.324   1.688
    1STR    N0R50753   0.018   4.163   1.574
    1STR    C0S50754   0.152   4.197   1.595
    1STR    C0T50755   0.254   4.123   1.533
    1STR    C0U50756   0.389   4.149   1.564
    1STR    C0V50757   0.425   4.254   1.652
    1STR    C0W50758   0.571   4.280   1.677
    1STR    C0X50759   0.323   4.334   1.710
    1STR    N0Y50760   0.339   4.450   1.784
    1STR   BCK250761   0.414   4.556   1.759
    1STR    O1050762   0.504   4.558   1.678
    1STR    C1350763   0.189   4.302   1.682
    1STR    C1450764   0.364   4.311   0.600
    1STR    C1550765   0.311   4.395   0.504
    1STR    C1650766   0.179   4.438   0.520
    1STR    C1750767   0.142   4.565   0.453
    1STR    H1B50768   9.290   4.532   0.568
    1STR    H1C50769   0.089   4.258   0.794
    1STR    H1D50770   0.308   4.133   0.866
    1STR    H1E50771   0.641   4.428   0.950
    1STR    H1F50772   0.790   4.243   0.754
    1STR    H1G50773   0.874   4.339   0.875
    1STR    H1H50774   0.766   4.211   0.925
    1STR    H1I50775   0.672   4.478   0.663
    1STR    H1J50776   0.804   4.528   0.766
    1STR    H1K50777   0.722   4.671   0.600
    1STR    H1M50778   0.483   4.582   0.582
    1STR    H1N50779   0.526   4.710   0.473
    1STR    H1O50780   0.434   4.748   0.613
    1STR    H1P50781   0.776   4.868   0.715
    1STR    H1Q50782   0.700   4.888   0.560
    1STR   C01050783   0.648   5.087   0.720
    1STR   H01150784   0.742   5.076   0.773
    1STR   C01250785   0.676   5.151   0.584
    1STR   H01350786   0.591   5.140   0.518
    1STR   H01450787   0.761   5.104   0.537
    1STR   H01550788   0.700   5.257   0.595
    1STR   C01650789   0.562   5.175   0.810
    1STR   H01750790   0.531   5.112   0.892
    1STR   H01850791   0.621   5.257   0.853
    1STR   O01950792   0.449   5.230   0.747
    1STR   C02050793   0.334   5.226   0.830
    1STR   H02150794   0.363   5.238   0.934
    1STR   C02250795   0.246   5.343   0.798
    1STR   H02350796   0.206   5.322   0.701
    1STR   H02450797   0.301   5.436   0.801
    1STR   H02550798   0.161   5.351   0.862
    1STR   C02650799   0.265   5.092   0.800
    1STR   H02750800   0.288   5.065   0.697
    1STR   H02850801   0.317   5.019   0.860
    1STR   O02950802   0.124   5.086   0.822
    1STR   C03050803   0.068   4.954   0.832
    1STR   H03150804   0.099   4.910   0.924
    1STR   C03250805   9.238   4.957   0.854
    1STR   H03350806   9.196   4.859   0.838
    1STR   H03450807   9.187   5.027   0.791
    1STR   H03550808   9.212   4.985   0.955
    1STR   C03650809   0.113   4.860   0.721
    1STR   H03750810   0.057   4.768   0.719
    1STR   H03850811   0.092   4.908   0.627
    1STR   O03950812   0.251   4.830   0.737
    1STR   C04050813   0.284   4.742   0.845
    1STR   H04150814   0.218   4.747   0.930
    1STR   C04250815   0.283   4.603   0.783
    1STR   H04350816   0.377   4.550   0.790
    1STR   H04450817   0.263   4.611   0.678
    1STR   H04550818   0.208   4.537   0.825
    1STR   C04650819   0.424   4.767   0.900
    1STR   H04750820   0.449   4.674   0.951
    1STR   H04850821   0.480   4.782   0.813
    1STR   O04950822   0.463   4.880   0.976
    1STR   C05050823   0.602   4.887   1.012
    1STR   H05150824   0.660   4.897   0.921
    1STR   C05250825   0.626   5.011   1.098
    1STR   H05350826   0.538   5.076   1.101
    1STR   H05450827   0.710   5.069   1.059
    1STR   H05550828   0.651   4.986   1.201
    1STR   C05650829   0.652   4.759   1.080
    1STR   H05750830   0.594   4.735   1.169
    1STR   H05850831   0.637   4.676   1.013
    1STR   O05950832   0.790   4.769   1.111
    1STR   C06050833   0.865   4.656   1.066
    1STR   H06150834   0.840   4.636   0.962
    1STR   C06250835   1.010   4.700   1.070
    1STR   H06350836   1.039   4.730   1.170
    1STR   H06450837   1.025   4.786   1.004
    1STR   H06550838   1.075   4.619   1.037
    1STR   C06650839   0.839   4.529   1.151
    1STR   H06750840   0.889   4.444   1.105
    1STR   H06850841   0.880   4.543   1.251
    1STR   O06950842   0.699   4.504   1.161
    1STR   C07050843   0.657   4.376   1.204
    1STR   H07150844   0.692   4.299   1.137
    1STR   C07250845   0.710   4.352   1.346
    1STR   H07350846   0.685   4.437   1.410
    1STR   H07450847   0.818   4.341   1.348
    1STR   H07550848   0.667   4.262   1.389
    1STR   C07650849   0.503   4.377   1.205
    1STR   H07750850   0.467   4.282   1.245
    1STR   H07850851   0.475   4.455   1.274
    1STR   O07950852   0.440   4.409   1.082
    1STR   C08050853   0.304   4.369   1.056
    1STR   H08150854   0.306   4.376   0.948
    1STR   C08250855   0.264   4.226   1.100
    1STR   H08350856   0.228   4.222   1.202
    1STR   H08450857   0.346   4.155   1.092
    1STR   H08550858   0.182   4.190   1.038
    1STR   C08650859   0.190   4.466   1.077
    1STR   H08750860   0.157   4.463   1.178
    1STR   H08850861   0.218   4.569   1.054
    1STR   O08950862   0.079   4.416   1.003
    1STR   C09050863   9.276   4.486   1.010
    1STR   H09150864   9.235   4.500   1.109
    1STR   C09250865   9.293   4.618   0.940
    1STR   H09350866   0.037   4.684   0.997
    1STR   H09450867   9.200   4.671   0.930
    1STR   H09550868   0.015   4.602   0.842
    1STR   C09650869   9.176   4.400   0.936
    1STR   H09750870   9.102   4.460   0.886
    1STR   H09850871   9.235   4.347   0.863
    1STR   O09950872   9.113   4.305   1.019
    1STR   C10050873   9.048   4.203   0.947
    1STR   H10150874   9.113   4.166   0.868
    1STR   C10250875   9.036   4.085   1.044
    1STR   H10350876   8.965   4.105   1.123
    1STR   H10450877   9.134   4.064   1.087
    1STR   H10550878   9.008   3.993   0.994
    1STR   C10650879   8.913   4.250   0.887
    1STR   H10750880   8.913   4.228   0.780
    1STR   H10850881   8.835   4.189   0.932
    1STR   O10950882   8.879   4.389   0.907
    1STR   C11050883   8.763   4.432   0.834
    1STR   H11150884   8.783   4.415   0.728
    1STR   C11250885   8.644   4.345   0.880
    1STR   H11350886   8.649   4.326   0.987
    1STR   H11450887   8.643   4.250   0.828
    1STR   H11550888   8.548   4.393   0.863
    1STR   C11650889   8.727   4.583   0.849
    1STR   H11750890   8.658   4.605   0.769
    1STR   H11850891   8.661   4.597   0.933
    1STR   O11950892   8.830   4.683   0.844
    1STR   C12050893   8.852   4.757   0.964
    1STR   H12150894   8.758   4.786   1.007
    1STR   C12250895   8.927   4.664   1.056
    1STR   H12350896   8.877   4.570   1.070
    1STR   H12450897   8.942   4.711   1.153
    1STR   H12550898   9.022   4.634   1.016
    1STR   C12650899   8.932   4.888   0.945
    1STR   H12750900   9.023   4.883   1.004
    1STR   H12850901   8.961   4.895   0.842
    1STR   O12950902   8.861   5.006   0.986
    1STR   C13050903   8.932   5.131   0.985
    1STR   H13150904   9.004   5.132   0.904
    1STR   C13250905   8.829   5.240   0.957
    1STR   H13350906   8.755   5.249   1.037
    1STR   H13450907   8.775   5.222   0.865
    1STR   H13550908   8.877   5.338   0.950
    1STR   C13650909   9.009   5.160   1.116
    1STR   H13750910   8.939   5.160   1.199
    1STR   H13850911   9.078   5.078   1.134
    1STR   O13950912   9.074   5.287   1.118
    1STR   C14050913   9.217   5.281   1.123
    1STR   H14150914   9.247   5.195   1.182
    1STR   C14250915   9.264   5.269   0.980
    1STR   H14350916   9.267   5.365   0.929
    1STR   H14450917   9.203   5.204   0.920
    1STR   H14550918   0.044   5.226   0.983
    1STR   C14650919   9.281   5.404   1.190
    1STR   H14750920   9.293   5.488   1.120
    1STR   H14850921   9.213   5.440   1.267
    1STR   O14950922   0.085   5.374   1.255
    1STR   C15050923   0.202   5.358   1.174
    1STR   H15150924   0.181   5.373   1.069
    1STR   C15250925   0.306   5.463   1.215
    1STR   H15350926   0.343   5.446   1.316
    1STR   H15450927   0.265   5.564   1.209
    1STR   H15550928   0.393   5.458   1.149
    1STR   C15650929   0.261   5.218   1.198
    1STR   H15750930   0.367   5.221   1.222
    1STR   H15850931   0.208   5.175   1.281
    1STR   O15950932   0.246   5.128   1.092
    1STR   C16050933   0.236   4.992   1.130
    1STR   H16150934   0.253   4.934   1.042
    1STR   C16250935   0.336   4.936   1.230
    1STR   H16350936   0.395   5.009   1.283
    1STR   H16450937   0.401   4.862   1.188
    1STR   H16550938   0.284   4.873   1.301
    1STR   C16650939   0.095   4.964   1.172
    1STR   H16750940   0.079   5.009   1.269
    1STR   H16850941   0.024   5.011   1.106
    1STR   O16950942   0.081   4.824   1.172
    1STR   C17050943   0.004   4.780   1.280
    1STR   H17150944   0.020   4.843   1.367
    1STR   C17250945   9.181   4.781   1.229
    1STR   H17350946   9.171   4.707   1.151
    1STR   H17450947   9.158   4.877   1.185
    1STR   H17550948   9.105   4.759   1.302
    1STR   C17650949   0.057   4.645   1.325
    1STR   H17750950   0.026   4.620   1.424
    1STR   H17850951   0.017   4.567   1.265
    1STR   O17950952   0.196   4.647   1.319
    1STR   C18050953   0.260   4.580   1.424
    1STR   H18150954   0.215   4.600   1.522
    1STR   C18250955   0.252   4.430   1.406
    1STR   H18350956   0.282   4.396   1.310
    1STR   H18450957   0.151   4.392   1.424
    1STR   H18550958   0.324   4.386   1.470
    1STR   C18650959   0.397   4.642   1.420
    1STR   H18750960   0.476   4.577   1.456
    1STR   H18850961   0.425   4.670   1.318
    1STR   O18950962   0.371   4.753   1.500
    1STR   C19050963   0.471   4.844   1.536
    1STR   H19150964   0.510   4.816   1.633
    1STR   C19250965   0.592   4.847   1.442
    1STR   H19350966   0.560   4.861   1.340
    1STR   H19450967   0.647   4.753   1.446
    1STR   H19550968   0.661   4.927   1.468
    1STR   C19650969   0.393   4.976   1.550
    1STR   H19750970   0.388   5.000   1.657
    1STR   H19850971   0.455   5.052   1.506
    1STR   O19950972   0.257   4.975   1.494
    1STR   C20050973   0.173   5.083   1.535
    1STR   H20150974   0.160   5.053   1.639
    1STR   C20250975   0.260   5.209   1.520
    1STR   H20350976   0.329   5.207   1.438
    1STR   H20450977   0.329   5.219   1.603
    1STR   H20550978   0.201   5.299   1.506
    1STR   C20650979   0.027   5.117   1.482
    1STR   H20750980   9.310   5.181   1.561
    1STR   H20850981   0.031   5.183   1.396
    1STR   O20950982   9.237   5.026   1.457
    1STR   C21050983   9.101   5.073   1.484
    1STR   H21150984   9.085   5.053   1.590
    1STR   C21250985   9.082   5.225   1.467
    1STR   H21350986   9.129   5.262   1.377
    1STR   H21450987   9.121   5.274   1.554
    1STR   H21550988   8.979   5.259   1.465
    1STR   C21650989   8.987   4.994   1.412
    1STR   H21750990   9.009   4.973   1.309
    1STR   H21850991   8.975   4.898   1.461
    1STR   O21950992   8.867   5.071   1.421
    1STR   C22050993   8.738   5.025   1.379
    1STR   H22150994   8.676   5.049   1.466
    1STR   C22250995   8.684   5.116   1.270
    1STR   H22350996   8.725   5.087   1.174
    1STR   H22450997   8.709   5.221   1.288
    1STR   H22550998   8.575   5.108   1.261
    1STR   C22650999   8.715   4.875   1.352
    1STR   H22751000   8.799   4.813   1.380
    1STR   H22851001   8.636   4.844   1.418
    1STR   O22951002   8.672   4.850   1.218
    1STR   C23051003   8.559   4.765   1.202
    1STR   H23151004   8.484   4.784   1.279
    1STR   C23251005   8.487   4.812   1.075
    1STR   H23351006   8.549   4.803   0.987
    1STR   H23451007   8.460   4.917   1.084
    1STR   H23551008   8.396   4.756   1.058
    1STR   C23651009   8.599   4.616   1.193
    1STR   H23751010   8.519   4.559   1.147
    1STR   H23851011   8.683   4.607   1.128
    1STR   O23951012   8.634   4.551   1.314
    1STR   C24051013   8.773   4.534   1.337
    1STR   H24151014   8.827   4.620   1.301
    1STR   C24251015   8.789   4.536   1.488
    1STR   H24351016   8.856   4.459   1.523
    1STR   H24451017   8.695   4.524   1.541
    1STR   H24551018   8.831   4.632   1.517
    1STR   C24651019   8.833   4.409   1.270
    1STR   H24751020   8.806   4.316   1.319
    1STR   H24851021   8.793   4.399   1.170
    1STR   O24951022   8.975   4.425   1.254
    1STR   C25051023   9.057   4.375   1.358
    1STR   H25151024   8.996   4.315   1.423
    1STR   C25251025   9.159   4.279   1.299
    1STR   H25351026   9.220   4.324   1.222
    1STR   H25451027   9.109   4.192   1.260
    1STR   H25551028   9.232   4.242   1.369
    1STR   C25651029   9.132   4.487   1.429
    1STR   H25751030   9.226   4.451   1.469
    1STR   H25851031   9.150   4.558   1.351
    1STR   O25951032   9.063   4.559   1.529
    1STR   C26051033   9.140   4.632   1.624
    1STR   H26151034   9.209   4.567   1.677
    1STR   C26251035   9.211   4.759   1.580
    1STR   H26351036   9.319   4.753   1.568
    1STR   H26451037   9.200   4.841   1.651
    1STR   H26551038   9.165   4.798   1.491
    1STR   C26651039   9.036   4.682   1.720
    1STR   H26751040   8.975   4.600   1.757
    1STR   H26851041   9.093   4.727   1.800
    1STR   O26951042   8.956   4.783   1.664
    1STR   C27051043   8.862   4.828   1.758
    1STR   H27151044   8.902   4.822   1.859
    1STR   C27251045   8.834   4.975   1.732
    1STR   H27351046   8.800   4.988   1.631
    1STR   H27451047   8.925   5.034   1.746
    1STR   H27551048   8.757   5.015   1.796
    1STR   C27651049   8.740   4.736   1.745
    1STR   H27751050   8.765   4.631   1.745
    1STR   H27851051   8.685   4.749   1.835
    1STR   O27951052   8.665   4.765   1.629
    1STR   C28051053   8.525   4.761   1.647
    1STR   H28151054   8.504   4.723   1.746
    1STR   C28251055   8.477   4.907   1.637
    1STR   H28351056   8.486   4.947   1.537
    1STR   H28451057   8.536   4.972   1.703
    1STR   H28551058   8.373   4.921   1.666
    1STR   C28651059   8.456   4.666   1.545
    1STR   H28751060   8.352   4.697   1.534
    1STR   H28851061   8.501   4.680   1.450
    1STR   O28951062   8.466   4.526   1.575
    1STR   C29051063   8.368   4.438   1.517
    1STR   H29151064   8.277   4.444   1.575
    1STR   C29251065   8.331   4.468   1.371
    1STR   H29351066   8.299   4.571   1.355
    1STR   H29451067   8.250   4.403   1.337
    1STR   H29551068   8.415   4.447   1.306
    1STR   C29651069   8.414   4.291   1.529
    1STR   H29751070   8.329   4.224   1.528
    1STR   H29851071   8.474   4.265   1.441
    1STR   O29951072   8.485   4.273   1.650
    1STR   C30051073   8.590   4.178   1.653
    1STR   H30151074   8.619   4.170   1.758
    1STR   C30251075   8.543   4.040   1.607
    1STR   H30351076   8.518   4.038   1.501
    1STR   H30451077   8.455   4.010   1.664
    1STR   H30551078   8.620   3.965   1.624
    1STR   C30651079   8.707   4.242   1.577
    1STR   H30751080   8.670   4.304   1.496
    1STR   H30851081   8.757   4.311   1.644
    1STR   O30951082   8.793   4.149   1.514
    1STR    H1R51083   8.835   4.054   1.688
    1STR    H1S51084   9.019   3.915   1.575
    1STR    H1T51085   8.984   4.002   1.426
    1STR    H1U51086   8.862   3.899   1.497
    1STR    H1V51087   9.001   4.204   1.748
    1STR    H1W51088   8.972   4.295   1.616
    1STR    H1X51089   9.317   4.086   1.511
    1STR    H1Y51090   0.231   4.043   1.464
    1STR    H1Z51091   0.467   4.090   1.518
    1STR    H2051092   0.608   4.346   1.599
    1STR    H2151093   0.585   4.332   1.772
    1STR    H2251094   0.630   4.190   1.678
    1STR    H2351095   0.268   4.465   1.856
    1STR    H2751096   0.116   4.365   1.729
    1STR    H2851097   0.467   4.282   0.590
    1STR    H2951098   0.373   4.436   0.426
    1STR    H2A51099   0.061   4.560   0.381
    1STR    H2B51100   0.233   4.595   0.405
    1STR    H2C51101   0.123   4.642   0.527
    1STR   BCK151102   0.560   3.994   2.886
    1STR    O0351103   0.679   3.983   2.861
    1STR    N0451104   0.489   4.105   2.897
    1STR    C0551105   0.517   4.240   2.890
    1STR    C0651106   0.412   4.323   2.848
    1STR    C0751107   0.418   4.462   2.847
    1STR    N0851108   0.302   4.535   2.818
    1STR    C0951109   0.276   4.662   2.786
    1STR    O0A51110   0.363   4.747   2.782
    1STR    O0B51111   0.143   4.680   2.754
    1STR    C0C51112   0.080   4.808   2.738
    1STR    C0D51113   0.152   4.917   2.656
    1STR    C0E51114   9.252   4.797   2.685
    1STR    O0F51115   9.131   4.758   2.756
    1STR    C0G51116   9.052   4.846   2.838
    1STR    C0H51117   9.058   4.986   2.787
    1STR    C0I51118   8.912   4.790   2.877
    1STR    O0J51119   8.905   4.654   2.923
    1STR    C0K51120   1.009   4.619   3.949
    1STR    C0M51121   0.975   4.688   3.816
    1STR    C0N51122   1.053   4.726   4.049
    1STR    O0O51123   0.984   4.851   4.047
    1STR    C0P51124   0.863   4.858   4.098
    1STR    O0Q51125   0.787   4.763   4.107
    1STR    N0R51126   0.836   4.981   4.143
    1STR    C0S51127   0.722   5.022   4.212
    1STR    C0T51128   0.730   5.128   4.304
    1STR    C0U51129   0.624   5.152   4.392
    1STR    C0V51130   0.501   5.090   4.372
    1STR    C0W51131   0.390   5.116   4.464
    1STR    C0X51132   0.483   5.002   4.266
    1STR    N0Y51133   0.359   4.981   4.210
    1STR   BCK251134   0.248   4.917   4.245
    1STR    O1051135   0.160   4.909   4.161
    1STR    C1351136   0.596   4.961   4.197
    1STR    C1451137   0.542   4.517   2.881
    1STR    C1551138   0.649   4.438   2.926
    1STR    C1651139   0.634   4.299   2.940
    1STR    C1751140   0.730   4.222   3.029
    1STR    H1B51141   0.388   4.087   2.905
    1STR    H1C51142   0.320   4.278   2.819
    1STR    H1D51143   0.219   4.488   2.852
    1STR    H1E51144   0.091   4.852   2.835
    1STR    H1F51145   0.173   4.890   2.553
    1STR    H1G51146   0.093   5.008   2.652
    1STR    H1H51147   0.246   4.945   2.701
    1STR    H1I51148   9.254   4.720   2.609
    1STR    H1J51149   9.230   4.887   2.631
    1STR    H1K51150   9.094   4.867   2.934
    1STR    H1M51151   9.040   4.987   2.681
    1STR    H1N51152   9.158   5.028   2.800
    1STR    H1O51153   8.991   5.051   2.842
    1STR    H1P51154   8.867   4.854   2.952
    1STR    H1Q51155   8.845   4.796   2.792
    1STR   C01051156   8.953   4.617   3.053
    1STR   H01151157   9.021   4.695   3.071
    1STR   C01251158   8.853   4.643   3.166
    1STR   H01351159   8.798   4.554   3.193
    1STR   H01451160   8.783   4.722   3.140
    1STR   H01551161   8.905   4.673   3.257
    1STR   C01651162   9.016   4.473   3.059
    1STR   H01751163   9.015   4.433   3.157
    1STR   H01851164   8.949   4.402   3.012
    1STR   O01951165   9.149   4.455   3.003
    1STR   C02051166   9.241   4.360   3.062
    1STR   H02151167   9.260   4.388   3.165
    1STR   C02251168   9.178   4.219   3.057
    1STR   H02351169   9.193   4.170   2.961
    1STR   H02451170   9.071   4.219   3.071
    1STR   H02551171   9.223   4.155   3.133
    1STR   C02651172   0.052   4.357   2.977
    1STR   H02751173   0.073   4.255   2.953
    1STR   H02851174   0.028   4.409   2.884
    1STR   O02951175   0.182   4.409   3.014
    1STR   C03051176   0.256   4.350   3.122
    1STR   H03151177   0.186   4.389   3.191
    1STR   C03251178   0.260   4.198   3.136
    1STR   H03351179   0.335   4.153   3.073
    1STR   H03451180   0.165   4.148   3.120
    1STR   H03551181   0.295   4.171   3.235
    1STR   C03651182   0.399   4.404   3.163
    1STR   H03751183   0.411   4.396   3.271
    1STR   H03851184   0.476   4.338   3.127
    1STR   O03951185   0.431   4.537   3.123
    1STR   C04051186   0.527   4.613   3.199
    1STR   H04151187   0.488   4.622   3.299
    1STR   C04251188   0.667   4.552   3.216
    1STR   H04351189   0.734   4.577   3.135
    1STR   H04451190   0.664   4.444   3.227
    1STR   H04551191   0.714   4.595   3.305
    1STR   C04651192   0.534   4.749   3.126
    1STR   H04751193   0.637   4.770   3.099
    1STR   H04851194   0.482   4.734   3.033
    1STR   O04951195   0.478   4.864   3.190
    1STR   C05051196   0.424   4.960   3.098
    1STR   H05151197   0.490   4.971   3.014
    1STR   C05251198   0.293   4.912   3.034
    1STR   H05351199   0.292   4.807   3.011
    1STR   H05451200   0.276   4.964   2.940
    1STR   H05551201   0.208   4.929   3.096
    1STR   C05651202   0.412   5.096   3.171
    1STR   H05751203   0.382   5.074   3.274
    1STR   H05851204   0.511   5.140   3.180
    1STR   O05951205   0.321   5.191   3.111
    1STR   C06051206   0.302   5.309   3.191
    1STR   H06151207   0.321   5.283   3.294
    1STR   C06251208   0.409   5.410   3.148
    1STR   H06351209   0.396   5.437   3.043
    1STR   H06451210   0.510   5.369   3.159
    1STR   H06551211   0.404   5.501   3.207
    1STR   C06651212   0.161   5.379   3.191
    1STR   H06751213   0.163   5.441   3.280
    1STR   H06851214   0.156   5.448   3.107
    1STR   O06951215   0.038   5.301   3.190
    1STR   C07051216   9.239   5.357   3.252
    1STR   H07151217   9.247   5.337   3.358
    1STR   C07251218   9.233   5.511   3.236
    1STR   H07351219   9.246   5.539   3.131
    1STR   H07451220   9.308   5.563   3.294
    1STR   H07551221   9.136   5.550   3.268
    1STR   C07651222   9.100   5.297   3.210
    1STR   H07751223   9.030   5.319   3.290
    1STR   H07851224   9.062   5.358   3.128
    1STR   O07951225   9.084   5.161   3.165
    1STR   C08051226   9.065   5.060   3.263
    1STR   H08151227   9.137   5.084   3.338
    1STR   C08251228   8.929   5.067   3.335
    1STR   H08351229   8.852   5.015   3.279
    1STR   H08451230   8.895   5.168   3.356
    1STR   H08551231   8.935   5.015   3.431
    1STR   C08651232   9.082   4.914   3.206
    1STR   H08751233   9.044   4.845   3.280
    1STR   H08851234   9.016   4.905   3.121
    1STR   O08951235   9.216   4.870   3.176
    1STR   C09051236   9.240   4.730   3.147
    1STR   H09151237   9.169   4.663   3.196
    1STR   C09251238   9.260   4.716   2.998
    1STR   H09351239   9.279   4.817   2.967
    1STR   H09451240   9.178   4.669   2.949
    1STR   H09551241   0.023   4.657   2.958
    1STR   C09651242   0.049   4.669   3.181
    1STR   H09751243   0.056   4.571   3.135
    1STR   H09851244   0.127   4.728   3.135
    1STR   O09951245   0.066   4.631   3.312
    1STR   C10051246   0.201   4.604   3.324
    1STR   H10151247   0.247   4.576   3.233
    1STR   C10251248   0.257   4.742   3.346
    1STR   H10351249   0.262   4.802   3.258
    1STR   H10451250   0.360   4.748   3.376
    1STR   H10551251   0.190   4.795   3.412
    1STR   C10651252   0.224   4.495   3.428
    1STR   H10751253   0.329   4.510   3.449
    1STR   H10851254   0.163   4.518   3.514
    1STR   O10951255   0.220   4.352   3.402
    1STR   C11051256   0.101   4.272   3.391
    1STR   H11151257   0.078   4.255   3.287
    1STR   C11251258   0.125   4.131   3.448
    1STR   H11351259   0.227   4.097   3.429
    1STR   H11451260   0.057   4.060   3.401
    1STR   H11551261   0.108   4.124   3.555
    1STR   C11651262   9.295   4.334   3.443
    1STR   H11751263   9.287   4.328   3.551
    1STR   H11851264   9.294   4.439   3.415
    1STR   O11951265   9.194   4.263   3.376
    1STR   C12051266   9.067   4.295   3.421
    1STR   H12151267   9.067   4.275   3.527
    1STR   C12251268   9.040   4.443   3.393
    1STR   H12351269   9.055   4.502   3.483
    1STR   H12451270   8.939   4.458   3.356
    1STR   H12551271   9.110   4.488   3.323
    1STR   C12651272   8.969   4.198   3.356
    1STR   H12751273   8.867   4.215   3.390
    1STR   H12851274   8.967   4.210   3.249
    1STR   O12951275   9.013   4.068   3.391
    1STR   C13051276   8.929   3.962   3.350
    1STR   H13151277   8.892   3.979   3.249
    1STR   C13251278   9.023   3.842   3.343
    1STR   H13351279   9.107   3.862   3.277
    1STR   H13451280   8.971   3.754   3.304
    1STR   H13551281   9.063   3.818   3.441
    1STR   C13651282   8.813   3.945   3.449
    1STR   H13751283   8.773   3.844   3.441
    1STR   H13851284   8.851   3.958   3.551
    1STR   O13951285   8.708   4.038   3.419
    1STR   C14051286   8.601   4.060   3.512
    1STR   H14151287   8.512   4.081   3.453
    1STR   C14251288   8.569   3.937   3.598
    1STR   H14351289   8.651   3.912   3.665
    1STR   H14451290   8.549   3.850   3.535
    1STR   H14551291   8.481   3.954   3.660
    1STR   C14651292   8.631   4.185   3.596
    1STR   H14751293   8.628   4.276   3.536
    1STR   H14851294   8.559   4.198   3.677
    1STR   O14951295   8.760   4.164   3.645
    1STR   C15051296   8.822   4.266   3.720
    1STR   H15151297   8.767   4.291   3.809
    1STR   C15251298   8.942   4.184   3.769
    1STR   H15351299   9.008   4.152   3.689
    1STR   H15451300   8.908   4.094   3.819
    1STR   H15551301   8.998   4.238   3.844
    1STR   C15651302   8.855   4.392   3.635
    1STR   H15751303   8.959   4.413   3.648
    1STR   H15851304   8.838   4.368   3.532
    1STR   O15951305   8.783   4.514   3.657
    1STR   C16051306   8.829   4.629   3.582
    1STR   H16151307   8.850   4.598   3.480
    1STR   C16251308   8.716   4.731   3.567
    1STR   H16351309   8.689   4.777   3.662
    1STR   H16451310   8.627   4.685   3.523
    1STR   H16551311   8.747   4.811   3.500
    1STR   C16651312   8.955   4.696   3.641
    1STR   H16751313   8.930   4.761   3.725
    1STR   H16851314   9.019   4.619   3.684
    1STR   O16951315   9.026   4.773   3.544
    1STR   C17051316   9.160   4.803   3.584
    1STR   H17151317   9.156   4.820   3.691
    1STR   C17251318   9.242   4.679   3.554
    1STR   H17351319   9.216   4.649   3.454
    1STR   H17451320   9.222   4.595   3.619
    1STR   H17551321   0.029   4.699   3.557
    1STR   C17651322   9.220   4.924   3.507
    1STR   H17751323   9.219   4.895   3.404
    1STR   H17851324   9.162   5.013   3.528
    1STR   O17951325   0.038   4.953   3.532
    1STR   C18051326   0.120   5.040   3.452
    1STR   H18151327   0.216   4.992   3.461
    1STR   C18251328   0.093   5.033   3.305
    1STR   H18351329   0.003   5.081   3.271
    1STR   H18451330   0.092   4.931   3.271
    1STR   H18551331   0.170   5.084   3.251
    1STR   C18651332   0.142   5.184   3.502
    1STR   H18751333   0.100   5.251   3.429
    1STR   H18851334   0.084   5.205   3.591
    1STR   O18951335   0.280   5.227   3.512
    1STR   C19051336   0.379   5.152   3.583
    1STR   H19151337   0.387   5.049   3.547
    1STR   C19251338   0.513   5.218   3.552
    1STR   H19351339   0.514   5.323   3.584
    1STR   H19451340   0.534   5.214   3.446
    1STR   H19551341   0.594   5.167   3.604
    1STR   C19651342   0.355   5.149   3.734
    1STR   H19751343   0.421   5.081   3.787
    1STR   H19851344   0.373   5.249   3.773
    1STR   O19951345   0.219   5.121   3.752
    1STR   C20051346   0.175   5.002   3.813
    1STR   H20151347   0.204   5.000   3.917
    1STR   C20251348   0.023   5.010   3.803
    1STR   H20351349   9.306   4.927   3.750
    1STR   H20451350   9.306   5.099   3.751
    1STR   H20551351   9.289   4.999   3.896
    1STR   C20651352   0.223   4.873   3.749
    1STR   H20751353   0.214   4.798   3.823
    1STR   H20851354   0.157   4.838   3.672
    1STR   O20951355   0.357   4.863   3.711
    1STR   C21051356   0.380   4.743   3.639
    1STR   H21151357   0.311   4.762   3.563
    1STR   C21251358   0.518   4.742   3.575
    1STR   H21351359   0.597   4.724   3.646
    1STR   H21451360   0.538   4.836   3.523
    1STR   H21551361   0.523   4.662   3.503
    1STR   C21651362   0.321   4.613   3.694
    1STR   H21751363   0.330   4.616   3.796
    1STR   H21851364   0.214   4.616   3.683
    1STR   O21951365   0.380   4.488   3.659
    1STR   C22051366   0.331   4.375   3.731
    1STR   H22151367   0.343   4.393   3.836
    1STR   C22251368   0.184   4.351   3.710
    1STR   H22351369   0.172   4.314   3.613
    1STR   H22451370   0.123   4.439   3.717
    1STR   H22551371   0.145   4.272   3.771
    1STR   C22651372   0.402   4.246   3.683
    1STR   H22751373   0.478   4.211   3.751
    1STR   H22851374   0.333   4.163   3.681
    1STR   O22951375   0.448   4.263   3.550
    1STR   C23051376   0.588   4.262   3.532
    1STR   H23151377   0.639   4.209   3.612
    1STR   C23251378   0.605   4.177   3.406
    1STR   H23351379   0.557   4.224   3.320
    1STR   H23451380   0.559   4.080   3.420
    1STR   H23551381   0.710   4.162   3.382
    1STR   C23651382   0.646   4.405   3.510
    1STR   H23751383   0.743   4.397   3.462
    1STR   H23851384   0.579   4.454   3.441
    1STR   O23951385   0.663   4.496   3.619
    1STR   C24051386   0.676   4.447   3.750
    1STR   H24151387   0.592   4.383   3.766
    1STR   C24251388   0.804   4.363   3.760
    1STR   H24351389   0.892   4.425   3.776
    1STR   H24451390   0.824   4.304   3.672
    1STR   H24551391   0.796   4.293   3.842
    1STR   C24651392   0.660   4.560   3.855
    1STR   H24751393   0.689   4.526   3.953
    1STR   H24851394   0.721   4.645   3.828
    1STR   O24951395   0.527   4.602   3.876
    1STR   C25051396   0.507   4.713   3.964
    1STR   H25151397   0.565   4.686   4.052
    1STR   C25251398   0.565   4.844   3.904
    1STR   H25351399   0.559   4.853   3.797
    1STR   H25451400   0.672   4.854   3.919
    1STR   H25551401   0.517   4.934   3.942
    1STR   C25651402   0.361   4.732   4.021
    1STR   H25751403   0.374   4.733   4.128
    1STR   H25851404   0.325   4.830   3.994
    1STR   O25951405   0.263   4.631   3.991
    1STR   C26051406   0.123   4.639   4.019
    1STR   H26151407   0.110   4.685   4.114
    1STR   C26251408   0.025   4.723   3.938
    1STR   H26351409   0.024   4.701   3.831
    1STR   H26451410   0.050   4.825   3.959
    1STR   H26551411   9.242   4.714   3.972
    1STR   C26651412   0.078   4.494   4.011
    1STR   H26751413   0.121   4.451   3.922
    1STR   H26851414   0.117   4.435   4.093
    1STR   O26951415   9.257   4.483   4.010
    1STR   C27051416   9.204   4.366   3.955
    1STR   H27151417   9.101   4.361   3.989
    1STR   C27251418   9.190   4.396   3.808
    1STR   H27351419   9.199   4.308   3.746
    1STR   H27451420   9.259   4.473   3.779
    1STR   H27551421   9.093   4.442   3.795
    1STR   C27651422   9.267   4.233   4.002
    1STR   H27751423   9.259   4.232   4.110
    1STR   H27851424   9.210   4.149   3.962
    1STR   O27951425   0.084   4.219   3.974
    1STR   C28051426   0.142   4.097   4.018
    1STR   H28151427   0.082   4.054   4.098
    1STR   C28251428   0.145   4.000   3.900
    1STR   H28351429   0.206   4.040   3.819
    1STR   H28451430   0.044   3.984   3.860
    1STR   H28551431   0.186   3.904   3.930
    1STR   C28651432   0.280   4.128   4.077
    1STR   H28751433   0.259   4.201   4.154
    1STR   H28851434   0.320   4.039   4.123
    1STR   O28951435   0.375   4.176   3.982
    1STR   C29051436   0.472   4.272   4.026
    1STR   H29151437   0.507   4.317   3.935
    1STR   C29251438   0.412   4.388   4.102
    1STR   H29351439   0.392   4.363   4.205
    1STR   H29451440   0.320   4.416   4.055
    1STR   H29551441   0.479   4.473   4.095
    1STR   C29651442   0.601   4.223   4.089
    1STR   H29751443   0.588   4.209   4.196
    1STR   H29851444   0.627   4.128   4.043
    1STR   O29951445   0.702   4.321   4.056
    1STR   C30051446   0.827   4.324   4.126
    1STR   H30151447   0.807   4.368   4.224
    1STR   C30251448   0.878   4.181   4.142
    1STR   H30351449   0.913   4.141   4.048
    1STR   H30451450   0.803   4.111   4.176
    1STR   H30551451   0.957   4.178   4.217
    1STR   C30651452   0.938   4.409   4.054
    1STR   H30751453   1.022   4.422   4.120
    1STR   H30851454   0.977   4.352   3.970
    1STR   O30951455   0.903   4.539   4.005
    1STR    H1R51456   1.095   4.553   3.930
    1STR    H1S51457   1.062   4.741   3.777
    1STR    H1T51458   0.897   4.764   3.829
    1STR    H1U51459   0.941   4.622   3.738
    1STR    H1V51460   1.156   4.747   4.027
    1STR    H1W51461   1.047   4.689   4.150
    1STR    H1X51462   0.915   5.042   4.139
    1STR    H1Y51463   0.818   5.186   4.317
    1STR    H1Z51464   0.638   5.214   4.477
    1STR    H2051465   0.312   5.161   4.404
    1STR    H2151466   0.357   5.024   4.510
    1STR    H2251467   0.421   5.181   4.544
    1STR    H2351468   0.349   5.022   4.119
    1STR    H2751469   0.585   4.879   4.132
    1STR    H2851470   0.553   4.622   2.879
    1STR    H2951471   0.741   4.486   2.955
    1STR    H2A51472   0.674   4.159   3.098
    1STR    H2B51473   0.792   4.290   3.088
    1STR    H2C51474   0.796   4.158   2.971
    1STR   BCK151475   9.228   5.281   4.973
    1STR    O0351476   9.220   5.178   4.906
    1STR    N0451477   9.130   5.366   5.005
    1STR    C0551478   9.001   5.324   5.029
    1STR    C0651479   8.963   5.200   4.979
    1STR    C0751480   8.901   5.110   5.062
    1STR    N0851481   8.929   4.977   5.033
    1STR    C0951482   8.912   4.866   5.102
    1STR    O0A51483   8.858   4.864   5.211
    1STR    O0B51484   8.945   4.761   5.029
    1STR    C0C51485   8.961   4.638   5.095
    1STR    C0D51486   8.864   4.530   5.066
    1STR    C0E51487   9.104   4.591   5.088
    1STR    O0F51488   9.197   4.691   5.117
    1STR    C0G51489   0.013   4.657   5.097
    1STR    C0H51490   0.067   4.799   5.081
    1STR    C0I51491   0.084   4.576   5.208
    1STR    O0J51492   0.202   4.505   5.170
    1STR    C0K51493   9.266   5.428   6.420
    1STR    C0M51494   9.160   5.519   6.356
    1STR    C0N51495   9.211   5.323   6.515
    1STR    O0O51496   9.093   5.250   6.488
    1STR    C0P51497   8.976   5.285   6.540
    1STR    O0Q51498   8.928   5.396   6.525
    1STR    N0R51499   8.911   5.188   6.607
    1STR    C0S51500   8.938   5.051   6.604
    1STR    C0T51501   8.831   4.960   6.610
    1STR    C0U51502   8.848   4.826   6.574
    1STR    C0V51503   8.974   4.780   6.534
    1STR    C0W51504   8.978   4.646   6.462
    1STR    C0X51505   9.084   4.869   6.536
    1STR    N0Y51506   9.207   4.842   6.480
    1STR   BCK251507   9.278   4.743   6.526
    1STR    O1051508   9.230   4.667   6.605
    1STR    C1351509   9.066   5.000   6.580
    1STR    C1451510   8.825   5.162   5.168
    1STR    C1551511   8.834   5.299   5.202
    1STR    C1651512   8.930   5.380   5.137
    1STR    C1751513   8.968   5.515   5.193
    1STR    H1B51514   9.162   5.448   5.055
    1STR    H1C51515   9.006   5.159   4.891
    1STR    H1D51516   8.977   4.955   4.948
    1STR    H1E51517   8.929   4.646   5.196
    1STR    H1F51518   8.867   4.500   4.961
    1STR    H1G51519   8.890   4.452   5.134
    1STR    H1H51520   8.766   4.549   5.103
    1STR    H1I51521   9.124   4.558   4.988
    1STR    H1J51522   9.117   4.508   5.157
    1STR    H1K51523   0.017   4.598   5.007
    1STR    H1M51524   9.319   4.861   5.025
    1STR    H1N51525   0.162   4.806   5.034
    1STR    H1O51526   0.082   4.844   5.176
    1STR    H1P51527   0.099   4.639   5.295
    1STR    H1Q51528   0.018   4.496   5.235
    1STR   C01051529   0.287   4.461   5.274
    1STR   H01151530   0.235   4.474   5.363
    1STR   C01251531   0.312   4.310   5.273
    1STR   H01351532   0.318   4.270   5.172
    1STR   H01451533   0.229   4.259   5.320
    1STR   H01551534   0.402   4.283   5.328
    1STR   C01651535   0.398   4.560   5.305
    1STR   H01751536   0.450   4.537   5.398
    1STR   H01851537   0.472   4.562   5.229
    1STR   O01951538   0.330   4.684   5.315
    1STR   C02051539   0.406   4.800   5.293
    1STR   H02151540   0.495   4.799   5.355
    1STR   C02251541   0.439   4.803   5.149
    1STR   H02351542   0.355   4.820   5.085
    1STR   H02451543   0.494   4.719   5.112
    1STR   H02551544   0.501   4.889   5.145
    1STR   C02651545   0.320   4.921   5.322
    1STR   H02751546   0.219   4.897   5.300
    1STR   H02851547   0.315   4.935   5.426
    1STR   O02951548   0.362   5.045   5.264
    1STR   C03051549   0.325   5.157   5.342
    1STR   H03151550   0.349   5.135   5.446
    1STR   C03251551   0.409   5.282   5.314
    1STR   H03351552   0.381   5.331   5.222
    1STR   H03451553   0.515   5.258   5.309
    1STR   H03551554   0.396   5.355   5.394
    1STR   C03651555   0.176   5.189   5.330
    1STR   H03751556   0.157   5.228   5.427
    1STR   H03851557   0.166   5.276   5.268
    1STR   O03951558   0.086   5.080   5.288
    1STR   C04051559   9.267   5.065   5.326
    1STR   H04151560   9.256   5.102   5.424
    1STR   C04251561   9.163   5.131   5.239
    1STR   H04351562   9.161   5.086   5.140
    1STR   H04451563   9.174   5.238   5.230
    1STR   H04551564   9.065   5.114   5.283
    1STR   C04651565   9.228   4.917   5.329
    1STR   H04751566   9.207   4.890   5.227
    1STR   H04851567   9.311   4.859   5.365
    1STR   O04951568   9.109   4.884   5.400
    1STR   C05051569   9.067   4.749   5.388
    1STR   H05151570   9.057   4.754   5.284
    1STR   C05251571   9.172   4.646   5.414
    1STR   H05351572   9.260   4.682   5.464
    1STR   H05451573   9.196   4.600   5.324
    1STR   H05551574   9.134   4.560   5.465
    1STR   C05651575   8.935   4.698   5.450
    1STR   H05751576   8.944   4.700   5.558
    1STR   H05851577   8.850   4.760   5.425
    1STR   O05951578   8.914   4.564   5.401
    1STR   C06051579   8.869   4.470   5.496
    1STR   H06151580   8.888   4.507   5.595
    1STR   C06251581   8.718   4.457   5.474
    1STR   H06351582   8.695   4.420   5.375
    1STR   H06451583   8.672   4.555   5.484
    1STR   H06551584   8.674   4.391   5.548
    1STR   C06651585   8.940   4.333   5.484
    1STR   H06751586   8.928   4.280   5.578
    1STR   H06851587   8.886   4.273   5.413
    1STR   O06951588   9.074   4.333   5.434
    1STR   C07051589   9.178   4.315   5.530
    1STR   H07151590   9.170   4.395   5.602
    1STR   C07251591   9.162   4.179   5.601
    1STR   H07351592   9.127   4.105   5.530
    1STR   H07451593   9.088   4.182   5.681
    1STR   H07551594   9.254   4.145   5.647
    1STR   C07651595   9.315   4.328   5.461
    1STR   H07751596   0.067   4.256   5.497
    1STR   H07851597   9.300   4.301   5.357
    1STR   O07951598   0.048   4.461   5.459
    1STR   C08051599   0.128   4.512   5.566
    1STR   H08151600   0.046   4.512   5.631
    1STR   C08251601   0.238   4.412   5.613
    1STR   H08351602   0.313   4.390   5.538
    1STR   H08451603   0.199   4.317   5.647
    1STR   H08551604   0.294   4.453   5.697
    1STR   C08651605   0.189   4.659   5.572
    1STR   H08751606   0.208   4.664   5.678
    1STR   H08851607   0.288   4.656   5.532
    1STR   O08951608   0.128   4.791   5.541
    1STR   C09051609   0.162   4.905   5.629
    1STR   H09151610   0.103   4.889   5.715
    1STR   C09251611   0.314   4.892   5.660
    1STR   H09351612   0.378   4.848   5.585
    1STR   H09451613   0.328   4.817   5.735
    1STR   H09551614   0.359   4.986   5.691
    1STR   C09651615   0.126   5.059   5.594
    1STR   H09751616   0.215   5.119   5.610
    1STR   H09851617   0.121   5.031   5.493
    1STR   O09951618   0.012   5.151   5.629
    1STR   C10051619   0.003   5.299   5.593
    1STR   H10151620   0.102   5.341   5.607
    1STR   C10251621   9.263   5.346   5.455
    1STR   H10351622   9.163   5.307   5.440
    1STR   H10451623   9.312   5.326   5.363
    1STR   H10551624   9.256   5.454   5.446
    1STR   C10651625   9.224   5.387   5.676
    1STR   H10751626   9.249   5.400   5.779
    1STR   H10851627   9.222   5.491   5.642
    1STR   O10951628   9.098   5.325   5.661
    1STR   C11051629   8.973   5.390   5.665
    1STR   H11151630   8.916   5.334   5.738
    1STR   C11251631   8.973   5.537   5.706
    1STR   H11351632   9.024   5.600   5.633
    1STR   H11451633   9.022   5.550   5.803
    1STR   H11551634   8.871   5.574   5.717
    1STR   C11651635   8.904   5.359   5.532
    1STR   H11751636   8.795   5.365   5.540
    1STR   H11851637   8.936   5.431   5.458
    1STR   O11951638   8.943   5.231   5.483
    1STR   C12051639   8.902   5.116   5.558
    1STR   H12151640   8.841   5.150   5.640
    1STR   C12251641   8.815   5.043   5.462
    1STR   H12351642   8.881   5.012   5.382
    1STR   H12451643   8.736   5.109   5.428
    1STR   H12551644   8.766   4.955   5.499
    1STR   C12651645   9.028   5.039   5.608
    1STR   H12751646   9.108   5.060   5.542
    1STR   H12851647   9.055   5.094   5.695
    1STR   O12951648   9.025   4.897   5.641
    1STR   C13051649   9.155   4.840   5.676
    1STR   H13151650   9.227   4.865   5.600
    1STR   C13251651   9.189   4.911   5.800
    1STR   H13351652   9.104   4.907   5.865
    1STR   H13451653   9.224   5.009   5.778
    1STR   H13551654   9.271   4.868   5.852
    1STR   C13651655   9.176   4.692   5.718
    1STR   H13751656   9.110   4.668   5.795
    1STR   H13851657   9.148   4.618   5.648
    1STR   O13951658   9.309   4.670   5.763
    1STR   C14051659   0.019   4.596   5.881
    1STR   H14151660   9.262   4.623   5.952
    1STR   C14251661   0.021   4.442   5.852
    1STR   H14351662   0.120   4.408   5.829
    1STR   H14451663   9.273   4.414   5.773
    1STR   H14551664   9.305   4.371   5.925
    1STR   C14651665   0.153   4.653   5.935
    1STR   H14751666   0.169   4.638   6.041
    1STR   H14851667   0.239   4.608   5.886
    1STR   O14951668   0.154   4.791   5.899
    1STR   C15051669   0.219   4.890   5.974
    1STR   H15151670   0.182   4.872   6.073
    1STR   C15251671   0.373   4.877   5.960
    1STR   H15351672   0.417   4.934   5.879
    1STR   H15451673   0.401   4.773   5.950
    1STR   H15551674   0.430   4.921   6.040
    1STR   C15651675   0.171   5.033   5.937
    1STR   H15751676   0.236   5.105   5.984
    1STR   H15851677   0.184   5.055   5.833
    1STR   O15951678   0.035   5.055   5.973
    1STR   C16051679   9.300   5.186   5.987
    1STR   H16151680   9.293   5.198   6.094
    1STR   C16251681   0.079   5.295   5.940
    1STR   H16351682   0.111   5.279   5.837
    1STR   H16451683   0.167   5.296   6.001
    1STR   H16551684   0.037   5.394   5.948
    1STR   C16651685   9.157   5.208   5.922
    1STR   H16751686   9.121   5.309   5.938
    1STR   H16851687   9.185   5.200   5.820
    1STR   O16951688   9.049   5.110   5.923
    1STR   C17051689   8.906   5.126   5.943
    1STR   H17151690   8.905   5.078   6.037
    1STR   C17251691   8.848   5.266   5.973
    1STR   H17351692   8.912   5.348   5.944
    1STR   H17451693   8.834   5.278   6.080
    1STR   H17551694   8.750   5.279   5.927
    1STR   C17651695   8.814   5.031   5.857
    1STR   H17751696   8.743   5.092   5.803
    1STR   H17851697   8.882   4.983   5.791
    1STR   O17951698   8.740   4.917   5.905
    1STR   C18051699   8.646   4.860   5.809
    1STR   H18151700   8.585   4.943   5.774
    1STR   C18251701   8.713   4.795   5.687
    1STR   H18351702   8.646   4.792   5.601
    1STR   H18451703   8.745   4.692   5.702
    1STR   H18551704   8.804   4.844   5.660
    1STR   C18651705   8.546   4.754   5.863
    1STR   H18751706   8.496   4.785   5.954
    1STR   H18851707   8.467   4.746   5.789
    1STR   O18951708   8.615   4.630   5.879
    1STR   C19051709   8.555   4.504   5.851
    1STR   H19151710   8.489   4.470   5.930
    1STR   C19251711   8.471   4.502   5.723
    1STR   H19351712   8.523   4.553   5.641
    1STR   H19451713   8.376   4.553   5.738
    1STR   H19551714   8.447   4.401   5.691
    1STR   C19651715   8.673   4.405   5.844
    1STR   H19751716   8.687   4.353   5.938
    1STR   H19851717   8.651   4.324   5.774
    1STR   O19951718   8.790   4.471   5.799
    1STR   C20051719   8.892   4.496   5.895
    1STR   H20151720   8.871   4.448   5.989
    1STR   C20251721   9.010   4.421   5.838
    1STR   H20351722   9.031   4.456   5.739
    1STR   H20451723   8.992   4.314   5.835
    1STR   H20551724   9.097   4.440   5.898
    1STR   C20651725   8.918   4.646   5.929
    1STR   H20751726   8.911   4.710   5.841
    1STR   H20851727   8.836   4.679   5.990
    1STR   O20951728   9.044   4.672   5.995
    1STR   C21051729   9.047   4.791   6.074
    1STR   H21151730   8.972   4.861   6.039
    1STR   C21251731   9.013   4.727   6.198
    1STR   H21351732   9.068   4.635   6.212
    1STR   H21451733   8.908   4.713   6.202
    1STR   H21551734   9.040   4.788   6.282
    1STR   C21651735   9.174   4.868   6.118
    1STR   H21751736   9.225   4.834   6.208
    1STR   H21851737   9.253   4.857   6.046
    1STR   O21951738   9.137   5.004   6.134
    1STR   C22051739   9.073   5.059   6.249
    1STR   H22151740   9.142   5.045   6.332
    1STR   C22251741   9.067   5.209   6.225
    1STR   H22351742   9.042   5.235   6.126
    1STR   H22451743   9.163   5.253   6.245
    1STR   H22551744   8.992   5.262   6.282
    1STR   C22651745   8.931   5.017   6.293
    1STR   H22751746   8.936   4.935   6.358
    1STR   H22851747   8.889   5.094   6.356
    1STR   O22951748   8.838   4.968   6.202
    1STR   C23051749   8.707   4.973   6.251
    1STR   H23151750   8.707   4.945   6.356
    1STR   C23251751   8.660   5.119   6.223
    1STR   H23351752   8.659   5.137   6.116
    1STR   H23451753   8.727   5.193   6.267
    1STR   H23551754   8.562   5.146   6.259
    1STR   C23651755   8.627   4.867   6.177
    1STR   H23751756   8.532   4.850   6.225
    1STR   H23851757   8.601   4.911   6.082
    1STR   O23951758   8.697   4.744   6.153
    1STR   C24051759   8.663   4.631   6.233
    1STR   H24151760   8.670   4.663   6.337
    1STR   C24251761   8.524   4.596   6.185
    1STR   H24351762   8.497   4.494   6.209
    1STR   H24451763   8.518   4.605   6.080
    1STR   H24551764   8.448   4.665   6.217
    1STR   C24651765   8.738   4.496   6.215
    1STR   H24751766   8.700   4.431   6.293
    1STR   H24851767   8.707   4.453   6.121
    1STR   O24951768   8.880   4.486   6.218
    1STR   C25051769   8.944   4.358   6.229
    1STR   H25151770   8.965   4.348   6.335
    1STR   C25251771   8.856   4.242   6.172
    1STR   H25351772   8.842   4.251   6.065
    1STR   H25451773   8.759   4.236   6.219
    1STR   H25551774   8.899   4.144   6.187
    1STR   C25651775   9.081   4.367   6.156
    1STR   H25751776   9.088   4.291   6.078
    1STR   H25851777   9.075   4.461   6.103
    1STR   O25951778   9.202   4.360   6.234
    1STR   C26051779   9.313   4.434   6.179
    1STR   H26151780   9.274   4.470   6.088
    1STR   C26251781   0.012   4.569   6.242
    1STR   H26351782   9.259   4.584   6.321
    1STR   H26451783   0.001   4.650   6.172
    1STR   H26551784   0.112   4.575   6.282
    1STR   C26651785   0.127   4.364   6.143
    1STR   H26751786   0.115   4.258   6.128
    1STR   H26851787   0.154   4.403   6.047
    1STR   O26951788   0.244   4.401   6.216
    1STR   C27051789   0.373   4.365   6.161
    1STR   H27151790   0.397   4.266   6.194
    1STR   C27251791   0.391   4.357   6.008
    1STR   H27351792   0.369   4.452   5.960
    1STR   H27451793   0.328   4.280   5.964
    1STR   H27551794   0.494   4.334   5.984
    1STR   C27651795   0.472   4.464   6.224
    1STR   H27751796   0.446   4.478   6.329
    1STR   H27851797   0.574   4.425   6.223
    1STR   O27951798   0.466   4.585   6.150
    1STR   C28051799   0.514   4.698   6.218
    1STR   H28151800   0.560   4.669   6.312
    1STR   C28251801   0.624   4.761   6.131
    1STR   H28351802   0.595   4.784   6.030
    1STR   H28451803   0.706   4.691   6.119
    1STR   H28551804   0.663   4.853   6.176
    1STR   C28651805   0.391   4.785   6.251
    1STR   H28751806   0.316   4.764   6.177
    1STR   H28851807   0.346   4.745   6.341
    1STR   O28951808   0.420   4.925   6.268
    1STR   C29051809   0.313   5.020   6.255
    1STR   H29151810   0.302   5.032   6.151
    1STR   C29251811   0.172   4.987   6.308
    1STR   H29351812   0.139   4.888   6.277
    1STR   H29451813   0.098   5.055   6.266
    1STR   H29551814   0.165   4.997   6.416
    1STR   C29651815   0.350   5.163   6.290
    1STR   H29751816   0.358   5.174   6.398
    1STR   H29851817   0.444   5.189   6.243
    1STR   O29951818   0.247   5.241   6.234
    1STR   C30051819   0.255   5.380   6.257
    1STR   H30151820   0.289   5.396   6.359
    1STR   C30251821   0.354   5.441   6.156
    1STR   H30351822   0.333   5.546   6.138
    1STR   H30451823   0.350   5.390   6.060
    1STR   H30551824   0.456   5.433   6.193
    1STR   C30651825   0.112   5.437   6.248
    1STR   H30751826   0.108   5.543   6.271
    1STR   H30851827   0.072   5.432   6.148
    1STR   O30951828   0.027   5.358   6.328
    1STR    H1R51829   0.012   5.489   6.481
    1STR    H1S51830   9.100   5.568   6.433
    1STR    H1T51831   9.091   5.464   6.293
    1STR    H1U51832   9.205   5.597   6.295
    1STR    H1V51833   9.192   5.375   6.605
    1STR    H1W51834   9.288   5.249   6.536
    1STR    H1X51835   8.822   5.215   6.648
    1STR    H1Y51836   8.731   4.987   6.636
    1STR    H1Z51837   8.762   4.762   6.564
    1STR    H2051838   8.958   4.554   6.509
    1STR    H2151839   8.896   4.647   6.393
    1STR    H2251840   9.074   4.625   6.417
    1STR    H2351841   9.247   4.902   6.409
    1STR    H2751842   9.154   5.062   6.584
    1STR    H2851843   8.766   5.095   5.225
    1STR    H2951844   8.778   5.335   5.286
    1STR    H2A51845   9.059   5.507   5.253
    1STR    H2B51846   8.889   5.556   5.256
    1STR    H2C51847   8.986   5.586   5.112
    1STR   BCK151848   0.102   4.151   7.491
    1STR    O0351849   0.086   4.034   7.506
    1STR    N0451850   0.219   4.203   7.462
    1STR    C0551851   0.349   4.159   7.486
    1STR    C0651852   0.440   4.261   7.461
    1STR    C0751853   0.572   4.252   7.499
    1STR    N0851854   0.641   4.369   7.499
    1STR    C0951855   0.770   4.387   7.475
    1STR    O0A51856   0.842   4.296   7.436
    1STR    O0B51857   0.809   4.514   7.494
    1STR    C0C51858   0.744   4.603   7.583
    1STR    C0D51859   0.837   4.708   7.634
    1STR    C0E51860   0.622   4.667   7.524
    1STR    O0F51861   0.518   4.595   7.584
    1STR    C0G51862   0.399   4.665   7.572
    1STR    C0H51863   0.307   4.572   7.501
    1STR    C0I51864   0.354   4.717   7.708
    1STR    O0J51865   0.216   4.742   7.693
    1STR    C0K51866   8.942   4.028   8.706
    1STR    C0M51867   8.814   3.961   8.753
    1STR    C0N51868   9.062   3.976   8.783
    1STR    O0O51869   9.184   4.038   8.749
    1STR    C0P51870   9.256   3.983   8.653
    1STR    O0Q51871   9.219   3.955   8.541
    1STR    N0R51872   0.060   3.952   8.687
    1STR    C0S51873   0.152   4.018   8.766
    1STR    C0T51874   0.281   3.965   8.765
    1STR    C0U51875   0.390   4.044   8.803
    1STR    C0V51876   0.372   4.181   8.832
    1STR    C0W51877   0.500   4.258   8.844
    1STR    C0X51878   0.240   4.237   8.837
    1STR    N0Y51879   0.200   4.372   8.843
    1STR   BCK251880   0.260   4.491   8.830
    1STR    O1051881   0.379   4.509   8.815
    1STR    C1351882   0.132   4.150   8.812
    1STR    C1451883   0.626   4.131   7.544
    1STR    C1551884   0.538   4.026   7.570
    1STR    C1651885   0.399   4.039   7.548
    1STR    C1751886   0.317   3.924   7.603
    1STR    H1B51887   0.207   4.296   7.424
    1STR    H1C51888   0.407   4.354   7.420
    1STR    H1D51889   0.590   4.453   7.530
    1STR    H1E51890   0.715   4.543   7.668
    1STR    H1F51891   0.872   4.770   7.553
    1STR    H1G51892   0.792   4.773   7.709
    1STR    H1H51893   0.921   4.656   7.680
    1STR    H1I51894   0.614   4.658   7.416
    1STR    H1J51895   0.619   4.774   7.548
    1STR    H1K51896   0.412   4.746   7.503
    1STR    H1M51897   0.344   4.562   7.401
    1STR    H1N51898   0.206   4.609   7.495
    1STR    H1O51899   0.310   4.477   7.550
    1STR    H1P51900   0.371   4.646   7.788
    1STR    H1Q51901   0.412   4.806   7.730
    1STR   C01051902   0.157   4.845   7.768
    1STR   H01151903   0.175   4.823   7.870
    1STR   C01251904   0.230   4.979   7.773
    1STR   H01351905   0.256   5.014   7.676
    1STR   H01451906   0.322   4.973   7.830
    1STR   H01551907   0.169   5.055   7.822
    1STR   C01651908   0.007   4.854   7.724
    1STR   H01751909   9.283   4.939   7.771
    1STR   H01851910   0.006   4.871   7.618
    1STR   O01951911   9.241   4.743   7.750
    1STR   C02051912   9.099   4.766   7.757
    1STR   H02151913   9.080   4.857   7.809
    1STR   C02251914   9.036   4.814   7.634
    1STR   H02351915   9.039   4.737   7.559
    1STR   H02451916   9.084   4.904   7.603
    1STR   H02551917   8.934   4.844   7.654
    1STR   C02651918   9.018   4.655   7.828
    1STR   H02751919   9.060   4.646   7.927
    1STR   H02851920   8.917   4.691   7.844
    1STR   O02951921   9.015   4.528   7.764
    1STR   C03051922   8.980   4.418   7.847
    1STR   H03151923   9.026   4.429   7.944
    1STR   C03251924   8.829   4.416   7.871
    1STR   H03351925   8.770   4.390   7.784
    1STR   H03451926   8.795   4.514   7.901
    1STR   H03551927   8.803   4.346   7.950
    1STR   C03651928   9.029   4.285   7.785
    1STR   H03751929   8.971   4.204   7.830
    1STR   H03851930   9.015   4.285   7.678
    1STR   O03951931   9.168   4.261   7.796
    1STR   C04051932   9.213   4.128   7.823
    1STR   H04151933   9.176   4.095   7.918
    1STR   C04251934   9.145   4.024   7.735
    1STR   H04351935   9.169   4.037   7.630
    1STR   H04451936   9.037   4.021   7.744
    1STR   H04551937   9.179   3.926   7.769
    1STR   C04651938   0.049   4.117   7.822
    1STR   H04751939   0.078   4.028   7.877
    1STR   H04851940   0.077   4.091   7.724
    1STR   O04951941   0.130   4.233   7.859
    1STR   C05051942   0.260   4.247   7.800
    1STR   H05151943   0.252   4.213   7.700
    1STR   C05251944   0.309   4.393   7.794
    1STR   H05351945   0.237   4.460   7.752
    1STR   H05451946   0.399   4.402   7.734
    1STR   H05551947   0.338   4.430   7.893
    1STR   C05651948   0.374   4.172   7.867
    1STR   H05751949   0.379   4.220   7.964
    1STR   H05851950   0.353   4.066   7.878
    1STR   O05951951   0.495   4.195   7.796
    1STR   C06051952   0.615   4.200   7.873
    1STR   H06151953   0.592   4.216   7.976
    1STR   C06251954   0.689   4.067   7.868
    1STR   H06351955   0.738   4.049   7.773
    1STR   H06451956   0.622   3.984   7.889
    1STR   H06551957   0.768   4.066   7.944
    1STR   C06651958   0.699   4.322   7.833
    1STR   H06751959   0.799   4.313   7.877
    1STR   H06851960   0.718   4.321   7.727
    1STR   O06951961   0.632   4.442   7.872
    1STR   C07051962   0.715   4.549   7.918
    1STR   H07151963   0.805   4.555   7.857
    1STR   C07251964   0.632   4.678   7.908
    1STR   H07351965   0.541   4.671   7.967
    1STR   H07451966   0.603   4.697   7.805
    1STR   H07551967   0.688   4.764   7.943
    1STR   C07651968   0.761   4.531   8.062
    1STR   H07751969   0.849   4.593   8.079
    1STR   H07851970   0.682   4.567   8.127
    1STR   O07951971   0.788   4.394   8.088
    1STR   C08051972   0.843   4.356   8.212
    1STR   H08151973   0.944   4.323   8.189
    1STR   C08251974   0.857   4.470   8.312
    1STR   H08351975   0.772   4.537   8.315
    1STR   H08451976   0.946   4.531   8.297
    1STR   H08551977   0.861   4.423   8.408
    1STR   C08651978   0.769   4.234   8.273
    1STR   H08751979   0.842   4.154   8.282
    1STR   H08851980   0.734   4.251   8.375
    1STR   O08951981   0.665   4.180   8.191
    1STR   C09051982   0.532   4.219   8.224
    1STR   H09151983   0.525   4.228   8.332
    1STR   C09251984   0.494   4.360   8.173
    1STR   H09351985   0.510   4.378   8.068
    1STR   H09451986   0.548   4.436   8.227
    1STR   H09551987   0.389   4.381   8.190
    1STR   C09651988   0.437   4.105   8.176
    1STR   H09751989   0.467   4.066   8.080
    1STR   H09851990   0.445   4.019   8.241
    1STR   O09951991   0.305   4.158   8.175
    1STR   C10051992   0.189   4.083   8.139
    1STR   H10151993   0.188   4.094   8.033
    1STR   C10251994   0.197   3.934   8.169
    1STR   H10351995   0.212   3.915   8.275
    1STR   H10451996   0.277   3.886   8.113
    1STR   H10551997   0.104   3.885   8.139
    1STR   C10651998   0.062   4.152   8.197
    1STR   H10751999   0.028   4.104   8.288
    1STR   H10852000   0.087   4.253   8.226
    1STR   O10952001   9.275   4.157   8.104
    1STR   C11052002   9.195   4.277   8.096
    1STR   H11152003   9.112   4.256   8.030
    1STR   C11252004   9.125   4.302   8.223
    1STR   H11352005   9.196   4.327   8.299
    1STR   H11452006   9.077   4.209   8.252
    1STR   H11552007   9.052   4.383   8.214
    1STR   C11652008   9.274   4.396   8.040
    1STR   H11752009   0.050   4.396   8.087
    1STR   H11852010   9.295   4.375   7.937
    1STR   O11952011   9.216   4.527   8.034
    1STR   C12052012   9.310   4.635   8.014
    1STR   H12152013   0.043   4.617   8.103
    1STR   C12252014   0.106   4.594   7.924
    1STR   H12352015   0.078   4.592   7.820
    1STR   H12452016   0.146   4.496   7.945
    1STR   H12552017   0.198   4.648   7.942
    1STR   C12652018   9.276   4.793   8.029
    1STR   H12752019   9.303   4.829   8.125
    1STR   H12852020   0.025   4.854   7.977
    1STR   O12952021   9.150   4.858   8.006
    1STR   C13052022   9.134   5.003   8.020
    1STR   H13152023   9.134   5.032   8.125
    1STR   C13252024   9.243   5.095   7.966
    1STR   H13352025   9.241   5.111   7.861
    1STR   H13452026   0.023   5.064   7.992
    1STR   H13552027   9.228   5.194   8.008
    1STR   C13652028   8.996   5.046   7.966
    1STR   H13752029   8.970   5.144   8.008
    1STR   H13852030   9.002   5.059   7.858
    1STR   O13952031   8.893   4.952   7.996
    1STR   C14052032   8.759   4.997   7.977
    1STR   H14152033   8.743   5.083   8.040
    1STR   C14252034   8.736   5.044   7.832
    1STR   H14352035   8.778   4.976   7.759
    1STR   H14452036   8.786   5.139   7.815
    1STR   H14552037   8.631   5.059   7.809
    1STR   C14652038   8.658   4.889   8.025
    1STR   H14752039   8.628   4.911   8.127
    1STR   H14852040   8.566   4.897   7.966
    1STR   O14952041   8.705   4.755   8.011
    1STR   C15052042   8.728   4.682   8.132
    1STR   H15152043   8.708   4.742   8.221
    1STR   C15252044   8.634   4.561   8.128
    1STR   H15352045   8.627   4.516   8.029
    1STR   H15452046   8.532   4.591   8.154
    1STR   H15552047   8.667   4.484   8.197
    1STR   C15652048   8.877   4.643   8.137
    1STR   H15752049   8.898   4.549   8.086
    1STR   H15852050   8.924   4.720   8.076
    1STR   O15952051   8.939   4.636   8.266
    1STR   C16052052   9.072   4.688   8.257
    1STR   H16152053   9.106   4.664   8.158
    1STR   C16252054   9.071   4.838   8.263
    1STR   H16352055   9.167   4.884   8.255
    1STR   H16452056   9.047   4.875   8.356
    1STR   H16552057   9.000   4.880   8.194
    1STR   C16652058   9.183   4.638   8.347
    1STR   H16752059   9.157   4.667   8.448
    1STR   H16852060   9.186   4.531   8.341
    1STR   O16952061   9.303   4.699   8.296
    1STR   C17052062   0.119   4.666   8.326
    1STR   H17152063   0.135   4.698   8.427
    1STR   C17252064   0.129   4.518   8.322
    1STR   H17352065   0.219   4.482   8.272
    1STR   H17452066   0.047   4.468   8.274
    1STR   H17552067   0.127   4.486   8.423
    1STR   C17652068   0.228   4.726   8.229
    1STR   H17752069   0.328   4.726   8.268
    1STR   H17852070   0.243   4.658   8.146
    1STR   O17952071   0.198   4.851   8.168
    1STR   C18052072   0.266   4.963   8.218
    1STR   H18152073   0.282   4.947   8.324
    1STR   C18252074   0.400   4.978   8.145
    1STR   H18352075   0.385   4.987   8.038
    1STR   H18452076   0.465   4.892   8.162
    1STR   H18552077   0.453   5.066   8.178
    1STR   C18652078   0.174   5.086   8.208
    1STR   H18752079   0.069   5.056   8.205
    1STR   H18852080   0.185   5.136   8.303
    1STR   O18952081   0.206   5.179   8.104
    1STR   C19052082   0.195   5.315   8.146
    1STR   H19152083   0.236   5.329   8.245
    1STR   C19252084   0.288   5.396   8.057
    1STR   H19352085   0.252   5.396   7.954
    1STR   H19452086   0.388   5.353   8.059
    1STR   H19552087   0.295   5.499   8.090
    1STR   C19652088   0.052   5.374   8.142
    1STR   H19752089   0.059   5.477   8.177
    1STR   H19852090   0.019   5.377   8.038
    1STR   O19952091   9.276   5.305   8.221
    1STR   C20052092   9.161   5.383   8.257
    1STR   H20152093   9.194   5.467   8.319
    1STR   C20252094   9.088   5.434   8.133
    1STR   H20352095   9.055   5.351   8.071
    1STR   H20452096   9.152   5.499   8.073
    1STR   H20552097   9.000   5.493   8.159
    1STR   C20652098   9.063   5.300   8.341
    1STR   H20752099   9.036   5.210   8.284
    1STR   H20852100   9.110   5.265   8.433
    1STR   O20952101   8.951   5.383   8.374
    1STR   C21052102   8.822   5.322   8.387
    1STR   H21152103   8.755   5.403   8.416
    1STR   C21252104   8.771   5.265   8.254
    1STR   H21352105   8.776   5.340   8.175
    1STR   H21452106   8.668   5.231   8.263
    1STR   H21552107   8.830   5.179   8.223
    1STR   C21652108   8.814   5.218   8.500
    1STR   H21752109   8.843   5.261   8.595
    1STR   H21852110   8.712   5.182   8.509
    1STR   O21952111   8.904   5.116   8.467
    1STR   C22052112   8.882   4.986   8.517
    1STR   H22152113   8.817   4.986   8.602
    1STR   C22252114   8.817   4.913   8.397
    1STR   H22352115   8.844   4.959   8.303
    1STR   H22452116   8.709   4.908   8.390
    1STR   H22552117   8.847   4.809   8.393
    1STR   C22652118   9.018   4.933   8.572
    1STR   H22752119   9.019   4.926   8.679
    1STR   H22852120   9.035   4.829   8.546
    1STR   O22952121   9.119   5.025   8.530
    1STR   C23052122   9.252   5.009   8.574
    1STR   H23152123   9.266   5.021   8.679
    1STR   C23252124   9.302   4.872   8.543
    1STR   H23352125   9.284   4.863   8.437
    1STR   H23452126   9.253   4.793   8.599
    1STR   H23552127   0.088   4.864   8.557
    1STR   C23652128   0.016   5.113   8.501
    1STR   H23752129   0.116   5.076   8.486
    1STR   H23852130   9.294   5.132   8.403
    1STR   O23952131   0.021   5.231   8.579
    1STR   C24052132   0.104   5.332   8.523
    1STR   H24152133   0.090   5.339   8.416
    1STR   C24252134   0.050   5.460   8.583
    1STR   H24352135   0.076   5.457   8.688
    1STR   H24452136   9.262   5.468   8.573
    1STR   H24552137   0.096   5.548   8.539
    1STR   C24652138   0.253   5.315   8.558
    1STR   H24752139   0.299   5.412   8.574
    1STR   H24852140   0.266   5.259   8.650
    1STR   O24952141   0.318   5.251   8.449
    1STR   C25052142   0.456   5.218   8.459
    1STR   H25152143   0.485   5.185   8.359
    1STR   C25252144   0.543   5.339   8.495
    1STR   H25352145   0.525   5.373   8.597
    1STR   H25452146   0.524   5.422   8.427
    1STR   H25552147   0.649   5.313   8.488
    1STR   C25652148   0.478   5.099   8.552
    1STR   H25752149   0.580   5.061   8.544
    1STR   H25852150   0.461   5.131   8.655
    1STR   O25952151   0.391   4.995   8.518
    1STR   C26052152   0.369   4.904   8.624
    1STR   H26152153   0.458   4.892   8.683
    1STR   C26252154   0.263   4.967   8.713
    1STR   H26352155   0.210   5.047   8.664
    1STR   H26452156   0.311   5.012   8.799
    1STR   H26552157   0.187   4.898   8.747
    1STR   C26652158   0.340   4.765   8.566
    1STR   H26752159   0.249   4.722   8.605
    1STR   H26852160   0.327   4.782   8.461
    1STR   O26952161   0.448   4.675   8.586
    1STR   C27052162   0.450   4.563   8.497
    1STR   H27152163   0.430   4.594   8.395
    1STR   C27252164   0.592   4.513   8.502
    1STR   H27352165   0.610   4.466   8.597
    1STR   H27452166   0.662   4.596   8.491
    1STR   H27552167   0.609   4.436   8.429
    1STR   C27652168   0.355   4.448   8.536
    1STR   H27752169   0.396   4.388   8.615
    1STR   H27852170   0.263   4.490   8.573
    1STR   O27952171   0.333   4.360   8.428
    1STR   C28052172   0.259   4.242   8.456
    1STR   H28152173   0.225   4.204   8.365
    1STR   C28252174   0.351   4.132   8.506
    1STR   H28352175   0.415   4.168   8.585
    1STR   H28452176   0.418   4.091   8.433
    1STR   H28552177   0.293   4.045   8.535
    1STR   C28652178   0.126   4.250   8.530
    1STR   H28752179   0.096   4.149   8.550
    1STR   H28852180   0.151   4.300   8.620
    1STR   O28952181   0.008   4.306   8.475
    1STR   C29052182   9.234   4.342   8.577
    1STR   H29152183   9.236   4.266   8.655
    1STR   C29252184   9.276   4.476   8.634
    1STR   H29352185   0.057   4.474   8.669
    1STR   H29452186   9.213   4.508   8.715
    1STR   H29552187   9.279   4.554   8.561
    1STR   C29652188   9.086   4.347   8.536
    1STR   H29752189   9.033   4.367   8.628
    1STR   H29852190   9.061   4.429   8.470
    1STR   O29952191   9.042   4.224   8.483
    1STR   C30052192   8.901   4.210   8.475
    1STR   H30152193   8.858   4.250   8.565
    1STR   C30252194   8.836   4.280   8.355
    1STR   H30352195   8.866   4.237   8.259
    1STR   H30452196   8.859   4.386   8.352
    1STR   H30552197   8.727   4.270   8.356
    1STR   C30652198   8.878   4.058   8.472
    1STR   H30752199   8.772   4.034   8.481
    1STR   H30852200   8.911   4.019   8.376
    1STR   O30952201   8.956   3.991   8.570
    1STR    H1R52202   8.940   4.136   8.722
    1STR    H1S52203   8.792   3.982   8.858
    1STR    H1T52204   8.819   3.855   8.736
    1STR    H1U52205   8.731   3.993   8.692
    1STR    H1V52206   9.072   3.869   8.764
    1STR    H1W52207   9.046   3.987   8.890
    1STR    H1X52208   0.094   3.886   8.619
    1STR    H1Y52209   0.298   3.870   8.720
    1STR    H1Z52210   0.489   4.002   8.797
    1STR    H2052211   0.513   4.331   8.767
    1STR    H2152212   0.507   4.302   8.942
    1STR    H2252213   0.585   4.194   8.825
    1STR    H2352214   0.100   4.386   8.846
    1STR    H2752215   0.033   4.189   8.813
    1STR    H2852216   0.730   4.122   7.568
    1STR    H2952217   0.578   3.937   7.616
    1STR    H2A52218   0.274   3.866   7.522
    1STR    H2B52219   0.240   3.959   7.671
    1STR    H2C52220   0.378   3.855   7.661
    1STR   BCK152221   0.331   6.962   0.559
    1STR    O0352222   0.253   6.958   0.466
    1STR    N0452223   0.338   7.062   0.647
    1STR    C0552224   0.251   7.171   0.656
    1STR    C0652225   0.114   7.156   0.623
    1STR    C0752226   0.022   7.259   0.645
    1STR    N0852227   9.207   7.241   0.614
    1STR    C0952228   9.124   7.332   0.563
    1STR    O0A52229   9.155   7.445   0.527
    1STR    O0B52230   9.001   7.289   0.564
    1STR    C0C52231   8.906   7.368   0.631
    1STR    C0D52232   8.846   7.476   0.541
    1STR    C0E52233   8.802   7.275   0.697
    1STR    O0F52234   8.817   7.131   0.676
    1STR    C0G52235   8.932   7.056   0.721
    1STR    C0H52236   8.982   7.135   0.839
    1STR    C0I52237   8.930   6.898   0.756
    1STR    O0J52238   8.906   6.784   0.663
    1STR    C0K52239   0.770   7.580   1.895
    1STR    C0M52240   0.811   7.719   1.945
    1STR    C0N52241   0.667   7.512   1.986
    1STR    O0O52242   0.710   7.504   2.120
    1STR    C0P52243   0.633   7.491   2.233
    1STR    O0Q52244   0.678   7.500   2.345
    1STR    N0R52245   0.503   7.474   2.236
    1STR    C0S52246   0.387   7.461   2.162
    1STR    C0T52247   0.273   7.484   2.238
    1STR    C0U52248   0.148   7.465   2.181
    1STR    C0V52249   0.136   7.425   2.049
    1STR    C0W52250   0.010   7.453   1.980
    1STR    C0X52251   0.248   7.398   1.972
    1STR    N0Y52252   0.236   7.370   1.839
    1STR   BCK252253   0.275   7.262   1.773
    1STR    O1052254   0.267   7.262   1.652
    1STR    C1352255   0.373   7.419   2.028
    1STR    C1452256   0.066   7.376   0.707
    1STR    C1552257   0.202   7.396   0.735
    1STR    C1652258   0.296   7.296   0.707
    1STR    C1752259   0.441   7.325   0.739
    1STR    H1B52260   0.422   7.061   0.701
    1STR    H1C52261   0.077   7.062   0.586
    1STR    H1D52262   9.170   7.150   0.632
    1STR    H1E52263   8.957   7.421   0.712
    1STR    H1F52264   8.799   7.431   0.455
    1STR    H1G52265   8.773   7.538   0.592
    1STR    H1H52266   8.923   7.542   0.501
    1STR    H1I52267   8.707   7.308   0.660
    1STR    H1J52268   8.793   7.298   0.803
    1STR    H1K52269   9.010   7.071   0.648
    1STR    H1M52270   8.906   7.151   0.916
    1STR    H1N52271   9.020   7.232   0.812
    1STR    H1O52272   9.065   7.081   0.877
    1STR    H1P52273   9.029   6.881   0.794
    1STR    H1Q52274   8.864   6.884   0.840
    1STR   C01052275   8.929   6.647   0.713
    1STR   H01152276   9.023   6.653   0.762
    1STR   C01252277   8.816   6.604   0.807
    1STR   H01352278   8.725   6.587   0.750
    1STR   H01452279   8.793   6.676   0.885
    1STR   H01552280   8.840   6.509   0.856
    1STR   C01652281   8.968   6.523   0.624
    1STR   H01752282   8.887   6.450   0.621
    1STR   H01852283   8.978   6.549   0.520
    1STR   O01952284   9.084   6.455   0.683
    1STR   C02052285   9.188   6.398   0.600
    1STR   H02152286   9.149   6.308   0.553
    1STR   C02252287   9.223   6.501   0.493
    1STR   H02352288   9.187   6.478   0.393
    1STR   H02452289   0.009   6.517   0.480
    1STR   H02552290   9.192   6.599   0.525
    1STR   C02652291   0.004   6.369   0.676
    1STR   H02752292   0.086   6.402   0.613
    1STR   H02852293   0.012   6.434   0.762
    1STR   O02952294   0.053   6.236   0.700
    1STR   C03052295   0.195   6.222   0.732
    1STR   H03152296   0.199   6.136   0.799
    1STR   C03252297   0.298   6.190   0.622
    1STR   H03352298   0.300   6.262   0.541
    1STR   H03452299   0.286   6.090   0.587
    1STR   H03552300   0.401   6.191   0.660
    1STR   C03652301   0.260   6.340   0.800
    1STR   H03752302   0.197   6.376   0.879
    1STR   H03852303   0.355   6.305   0.840
    1STR   O03952304   0.286   6.443   0.708
    1STR   C04052305   0.356   6.550   0.766
    1STR   H04152306   0.373   6.534   0.869
    1STR   C04252307   0.500   6.545   0.711
    1STR   H04352308   0.507   6.526   0.605
    1STR   H04452309   0.555   6.464   0.759
    1STR   H04552310   0.555   6.636   0.732
    1STR   C04652311   0.273   6.679   0.752
    1STR   H04752312   0.325   6.764   0.794
    1STR   H04852313   0.258   6.693   0.648
    1STR   O04952314   0.140   6.685   0.796
    1STR   C05052315   0.068   6.797   0.739
    1STR   H05152316   0.097   6.826   0.639
    1STR   C05252317   9.250   6.744   0.733
    1STR   H05352318   9.249   6.636   0.726
    1STR   H05452319   9.196   6.785   0.650
    1STR   H05552320   9.200   6.767   0.824
    1STR   C05652321   0.078   6.921   0.826
    1STR   H05752322   0.082   6.879   0.923
    1STR   H05852323   0.174   6.968   0.811
    1STR   O05952324   9.293   7.020   0.827
    1STR   C06052325   9.292   7.091   0.952
    1STR   H06152326   0.072   7.095   0.984
    1STR   C06252327   9.257   7.240   0.951
    1STR   H06352328   9.212   7.273   0.860
    1STR   H06452329   0.024   7.304   0.967
    1STR   H06552330   9.184   7.267   1.027
    1STR   C06652331   9.215   7.013   1.059
    1STR   H06752332   9.276   6.994   1.147
    1STR   H06852333   9.133   7.073   1.089
    1STR   O06952334   9.162   6.894   1.006
    1STR   C07052335   9.073   6.824   1.090
    1STR   H07152336   9.114   6.814   1.190
    1STR   C07252337   8.946   6.909   1.091
    1STR   H07352338   8.951   6.987   1.020
    1STR   H07452339   8.937   6.959   1.186
    1STR   H07552340   8.855   6.860   1.057
    1STR   C07652341   9.048   6.688   1.025
    1STR   H07752342   8.963   6.630   1.057
    1STR   H07852343   9.007   6.726   0.935
    1STR   O07952344   9.163   6.611   0.991
    1STR   C08052345   9.183   6.488   1.060
    1STR   H08152346   9.179   6.513   1.165
    1STR   C08252347   9.073   6.387   1.023
    1STR   H08352348   8.974   6.417   1.056
    1STR   H08452349   9.093   6.290   1.069
    1STR   H08552350   9.069   6.372   0.915
    1STR   C08652351   0.004   6.432   1.030
    1STR   H08752352   9.314   6.340   0.973
    1STR   H08852353   0.054   6.505   0.965
    1STR   O08952354   0.082   6.413   1.150
    1STR   C09052355   0.214   6.353   1.149
    1STR   H09152356   0.245   6.339   1.252
    1STR   C09252357   0.204   6.208   1.098
    1STR   H09352358   0.156   6.199   1.002
    1STR   H09452359   0.142   6.150   1.167
    1STR   H09552360   0.301   6.160   1.093
    1STR   C09652361   0.326   6.441   1.087
    1STR   H09752362   0.386   6.378   1.023
    1STR   H09852363   0.272   6.517   1.034
    1STR   O09952364   0.427   6.507   1.166
    1STR   C10052365   0.532   6.573   1.093
    1STR   H10152366   0.573   6.504   1.019
    1STR   C10252367   0.485   6.700   1.020
    1STR   H10352368   0.379   6.699   0.999
    1STR   H10452369   0.541   6.718   0.929
    1STR   H10552370   0.503   6.788   1.080
    1STR   C10652371   0.645   6.620   1.185
    1STR   H10752372   0.603   6.688   1.259
    1STR   H10852373   0.689   6.536   1.239
    1STR   O10952374   0.742   6.684   1.103
    1STR   C11052375   0.823   6.784   1.165
    1STR   H11152376   0.844   6.752   1.267
    1STR   C11252377   0.954   6.788   1.086
    1STR   H11352378   0.934   6.809   0.980
    1STR   H11452379   1.006   6.692   1.090
    1STR   H11552380   1.020   6.866   1.123
    1STR   C11652381   0.756   6.923   1.168
    1STR   H11752382   0.651   6.914   1.195
    1STR   H11852383   0.803   6.982   1.247
    1STR   O11952384   0.774   6.994   1.045
    1STR   C12052385   0.715   7.123   1.044
    1STR   H12152386   0.704   7.163   1.145
    1STR   C12252387   0.801   7.221   0.965
    1STR   H12352388   0.798   7.196   0.860
    1STR   H12452389   0.905   7.220   0.998
    1STR   H12552390   0.764   7.323   0.974
    1STR   C12652391   0.578   7.115   0.978
    1STR   H12752392   0.546   7.217   0.968
    1STR   H12852393   0.584   7.070   0.879
    1STR   O12952394   0.496   7.035   1.059
    1STR   C13052395   0.361   7.069   1.077
    1STR   H13152396   0.353   7.106   1.175
    1STR   C13252397   0.297   7.184   1.000
    1STR   H13352398   0.263   7.148   0.904
    1STR   H13452399   0.354   7.274   0.986
    1STR   H13552400   0.212   7.221   1.056
    1STR   C13652401   0.279   6.942   1.078
    1STR   H13752402   0.178   6.973   1.092
    1STR   H13852403   0.290   6.893   0.981
    1STR   O13952404   0.306   6.848   1.182
    1STR   C14052405   0.187   6.782   1.225
    1STR   H14152406   0.128   6.860   1.266
    1STR   C14252407   0.098   6.727   1.117
    1STR   H14352408   0.151   6.692   1.030
    1STR   H14452409   0.024   6.798   1.090
    1STR   H14552410   0.034   6.649   1.156
    1STR   C14652411   0.198   6.670   1.325
    1STR   H14752412   0.102   6.656   1.373
    1STR   H14852413   0.214   6.583   1.264
    1STR   O14952414   0.298   6.675   1.423
    1STR   C15052415   0.328   6.541   1.461
    1STR   H15152416   0.356   6.481   1.376
    1STR   C15252417   0.463   6.553   1.529
    1STR   H15352418   0.458   6.625   1.610
    1STR   H15452419   0.536   6.592   1.459
    1STR   H15552420   0.500   6.456   1.562
    1STR   C15652421   0.212   6.458   1.525
    1STR   H15752422   0.254   6.368   1.566
    1STR   H15852423   0.159   6.508   1.605
    1STR   O15952424   0.117   6.425   1.422
    1STR   C16052425   0.018   6.322   1.433
    1STR   H16152426   0.002   6.281   1.333
    1STR   C16252427   0.060   6.205   1.521
    1STR   H16352428   0.063   6.235   1.626
    1STR   H16452429   0.158   6.166   1.491
    1STR   H16552430   9.309   6.123   1.513
    1STR   C16652431   9.203   6.380   1.475
    1STR   H16752432   9.139   6.300   1.512
    1STR   H16852433   9.225   6.446   1.559
    1STR   O16952434   9.132   6.443   1.369
    1STR   C17052435   9.042   6.543   1.415
    1STR   H17152436   8.991   6.494   1.496
    1STR   C17252437   9.129   6.669   1.438
    1STR   H17352438   9.069   6.756   1.464
    1STR   H17452439   9.182   6.691   1.346
    1STR   H17552440   9.208   6.658   1.512
    1STR   C17652441   8.926   6.580   1.324
    1STR   H17752442   8.977   6.638   1.251
    1STR   H17852443   8.885   6.491   1.276
    1STR   O17952444   8.823   6.664   1.383
    1STR   C18052445   8.739   6.728   1.285
    1STR   H18152446   8.810   6.758   1.213
    1STR   C18252447   8.650   6.631   1.205
    1STR   H18352448   8.577   6.580   1.267
    1STR   H18452449   8.709   6.554   1.154
    1STR   H18552450   8.596   6.684   1.126
    1STR   C18652451   8.666   6.861   1.323
    1STR   H18752452   8.583   6.873   1.255
    1STR   H18852453   8.625   6.856   1.423
    1STR   O18952454   8.755   6.973   1.313
    1STR   C19052455   8.714   7.105   1.273
    1STR   H19152456   8.789   7.133   1.200
    1STR   C19252457   8.581   7.116   1.196
    1STR   H19352458   8.496   7.090   1.259
    1STR   H19452459   8.581   7.053   1.107
    1STR   H19552460   8.566   7.219   1.162
    1STR   C19652461   8.729   7.217   1.380
    1STR   H19752462   8.805   7.290   1.351
    1STR   H19852463   8.638   7.276   1.383
    1STR   O19952464   8.750   7.178   1.514
    1STR   C20052465   8.875   7.121   1.554
    1STR   H20152466   8.906   7.174   1.644
    1STR   C20252467   8.838   6.981   1.593
    1STR   H20352468   8.736   6.962   1.568
    1STR   H20452469   8.849   6.970   1.701
    1STR   H20552470   8.895   6.905   1.540
    1STR   C20652471   8.995   7.116   1.458
    1STR   H20752472   9.079   7.071   1.510
    1STR   H20852473   8.973   7.049   1.376
    1STR   O20952474   9.027   7.246   1.414
    1STR   C21052475   9.102   7.252   1.295
    1STR   H21152476   9.056   7.183   1.227
    1STR   C21252477   9.077   7.390   1.241
    1STR   H21352478   9.081   7.460   1.323
    1STR   H21452479   8.978   7.396   1.196
    1STR   H21552480   9.150   7.420   1.167
    1STR   C21652481   9.253   7.227   1.316
    1STR   H21752482   9.312   7.246   1.227
    1STR   H21852483   9.288   7.296   1.391
    1STR   O21952484   9.273   7.094   1.355
    1STR   C22052485   0.060   7.067   1.444
    1STR   H22152486   0.051   7.125   1.535
    1STR   C22252487   0.027   6.922   1.478
    1STR   H22352488   9.307   6.867   1.395
    1STR   H22452489   9.260   6.913   1.540
    1STR   H22552490   0.111   6.866   1.519
    1STR   C22652491   0.203   7.092   1.390
    1STR   H22752492   0.277   7.071   1.463
    1STR   H22852493   0.228   7.022   1.315
    1STR   O22952494   0.228   7.221   1.335
    1STR   C23052495   0.361   7.274   1.350
    1STR   H23152496   0.353   7.327   1.443
    1STR   C23252497   0.484   7.181   1.370
    1STR   H23352498   0.489   7.088   1.314
    1STR   H23452499   0.489   7.150   1.473
    1STR   H23552500   0.576   7.236   1.349
    1STR   C23652501   0.383   7.379   1.239
    1STR   H23752502   0.451   7.341   1.163
    1STR   H23852503   0.287   7.401   1.193
    1STR   O23952504   0.438   7.496   1.296
    1STR   C24052505   0.442   7.615   1.218
    1STR   H24152506   0.455   7.694   1.293
    1STR   C24252507   0.571   7.612   1.136
    1STR   H24352508   0.569   7.533   1.061
    1STR   H24452509   0.656   7.593   1.202
    1STR   H24552510   0.588   7.707   1.086
    1STR   C24652511   0.316   7.652   1.136
    1STR   H24752512   0.330   7.754   1.100
    1STR   H24852513   0.310   7.589   1.047
    1STR   O24952514   0.193   7.641   1.208
    1STR   C25052515   0.092   7.737   1.172
    1STR   H25152516   0.128   7.836   1.200
    1STR   C25252517   0.061   7.732   1.022
    1STR   H25352518   0.032   7.632   0.990
    1STR   H25452519   0.147   7.764   0.963
    1STR   H25552520   9.299   7.800   0.998
    1STR   C25652521   9.285   7.708   1.253
    1STR   H25752522   9.243   7.613   1.221
    1STR   H25852523   9.314   7.696   1.357
    1STR   O25952524   9.187   7.813   1.247
    1STR   C26052525   9.054   7.786   1.296
    1STR   H26152526   9.006   7.882   1.312
    1STR   C26252527   8.975   7.714   1.186
    1STR   H26352528   9.023   7.623   1.153
    1STR   H26452529   8.965   7.778   1.098
    1STR   H26552530   8.875   7.688   1.221
    1STR   C26652531   9.052   7.713   1.431
    1STR   H26752532   9.124   7.634   1.421
    1STR   H26852533   9.088   7.778   1.510
    1STR   O26952534   8.929   7.650   1.469
    1STR   C27052535   8.925   7.599   1.604
    1STR   H27152536   8.943   7.682   1.672
    1STR   C27252537   8.782   7.548   1.628
    1STR   H27352538   8.758   7.466   1.561
    1STR   H27452539   8.709   7.627   1.614
    1STR   H27552540   8.772   7.510   1.730
    1STR   C27652541   9.024   7.486   1.639
    1STR   H27752542   9.022   7.469   1.747
    1STR   H27852543   8.991   7.393   1.594
    1STR   O27952544   9.155   7.515   1.594
    1STR   C28052545   9.265   7.444   1.644
    1STR   H28152546   9.282   7.495   1.736
    1STR   C28252547   9.235   7.297   1.673
    1STR   H28352548   9.198   7.245   1.586
    1STR   H28452549   9.158   7.287   1.749
    1STR   H28552550   0.004   7.247   1.709
    1STR   C28652551   0.069   7.466   1.556
    1STR   H28752552   0.108   7.372   1.519
    1STR   H28852553   0.041   7.522   1.468
    1STR   O28952554   0.175   7.531   1.626
    1STR   C29052555   0.285   7.568   1.541
    1STR   H29152556   0.274   7.517   1.447
    1STR   C29252557   0.265   7.717   1.515
    1STR   H29352558   0.232   7.770   1.604
    1STR   H29452559   0.187   7.733   1.441
    1STR   H29552560   0.355   7.765   1.478
    1STR   C29652561   0.423   7.536   1.608
    1STR   H29752562   0.482   7.627   1.621
    1STR   H29852563   0.393   7.497   1.703
    1STR   O29952564   0.514   7.435   1.564
    1STR   C30052565   0.614   7.402   1.663
    1STR   H30152566   0.566   7.394   1.760
    1STR   C30252567   0.668   7.261   1.637
    1STR   H30352568   0.705   7.251   1.535
    1STR   H30452569   0.590   7.187   1.654
    1STR   H30552570   0.749   7.236   1.704
    1STR   C30652571   0.730   7.503   1.667
    1STR   H30752572   0.826   7.453   1.680
    1STR   H30852573   0.736   7.551   1.569
    1STR   O30952574   0.714   7.604   1.765
    1STR    H1R52575   0.860   7.518   1.890
    1STR    H1S52576   0.839   7.717   2.050
    1STR    H1T52577   0.731   7.790   1.932
    1STR    H1U52578   0.896   7.756   1.888
    1STR    H1V52579   0.652   7.411   1.951
    1STR    H1W52580   0.574   7.567   1.983
    1STR    H1X52581   0.483   7.474   2.334
    1STR    H1Y52582   0.278   7.516   2.341
    1STR    H1Z52583   0.059   7.487   2.238
    1STR    H2052584   0.043   7.522   1.905
    1STR    H2152585   9.285   7.365   1.936
    1STR    H2252586   9.267   7.512   2.046
    1STR    H2352587   0.197   7.441   1.776
    1STR    H2752588   0.453   7.395   1.963
    1STR    H2852589   9.313   7.450   0.733
    1STR    H2952590   0.234   7.489   0.778
    1STR    H2A52591   0.500   7.236   0.748
    1STR    H2B52592   0.451   7.385   0.829
    1STR    H2C52593   0.483   7.385   0.659
    1STR   BCK152594   9.031   7.170   2.685
    1STR    O0352595   8.921   7.119   2.694
    1STR    N0452596   9.143   7.112   2.725
    1STR    C0552597   9.186   6.988   2.686
    1STR    C0652598   9.112   6.872   2.711
    1STR    C0752599   9.174   6.746   2.703
    1STR    N0852600   9.133   6.640   2.780
    1STR    C0952601   9.211   6.562   2.854
    1STR    O0A52602   9.163   6.474   2.921
    1STR    O0B52603   0.018   6.592   2.844
    1STR    C0C52604   0.119   6.550   2.929
    1STR    C0D52605   0.153   6.407   2.908
    1STR    C0E52606   0.239   6.636   2.888
    1STR    O0F52607   0.260   6.759   2.955
    1STR    C0G52608   0.215   6.876   2.892
    1STR    C0H52609   0.066   6.902   2.910
    1STR    C0I52610   0.294   6.995   2.940
    1STR    O0J52611   0.395   6.969   3.036
    1STR    C0K52612   8.645   7.494   3.993
    1STR    C0M52613   8.588   7.375   3.915
    1STR    C0N52614   8.799   7.500   3.985
    1STR    O0O52615   8.859   7.567   4.096
    1STR    C0P52616   8.818   7.540   4.220
    1STR    O0Q52617   8.753   7.617   4.288
    1STR    N0R52618   8.844   7.418   4.262
    1STR    C0S52619   8.913   7.319   4.197
    1STR    C0T52620   8.837   7.211   4.153
    1STR    C0U52621   8.900   7.098   4.105
    1STR    C0V52622   9.038   7.087   4.114
    1STR    C0W52623   9.097   6.956   4.081
    1STR    C0X52624   9.117   7.195   4.147
    1STR    N0Y52625   9.252   7.167   4.150
    1STR   BCK252626   0.033   7.249   4.160
    1STR    O1052627   0.022   7.368   4.152
    1STR    C1352628   9.054   7.317   4.180
    1STR    C1452629   9.294   6.735   2.637
    1STR    C1552630   0.046   6.848   2.616
    1STR    C1652631   9.318   6.975   2.643
    1STR    C1752632   0.099   7.085   2.654
    1STR    H1B52633   9.214   7.174   2.760
    1STR    H1C52634   9.015   6.881   2.753
    1STR    H1D52635   9.035   6.619   2.791
    1STR    H1E52636   0.081   6.555   3.028
    1STR    H1F52637   0.179   6.403   2.804
    1STR    H1G52638   0.237   6.374   2.968
    1STR    H1H52639   0.066   6.345   2.929
    1STR    H1I52640   0.231   6.653   2.781
    1STR    H1J52641   0.331   6.580   2.904
    1STR    H1K52642   0.234   6.865   2.788
    1STR    H1M52643   0.033   6.998   2.876
    1STR    H1N52644   0.029   6.916   3.006
    1STR    H1O52645   0.005   6.822   2.876
    1STR    H1P52646   0.334   7.052   2.856
    1STR    H1Q52647   0.220   7.060   2.985
    1STR   C01052648   0.407   7.074   3.132
    1STR   H01152649   0.312   7.081   3.184
    1STR   C01252650   0.519   7.039   3.232
    1STR   H01352651   0.617   7.048   3.190
    1STR   H01452652   0.511   6.937   3.268
    1STR   H01552653   0.518   7.107   3.317
    1STR   C01652654   0.433   7.209   3.068
    1STR   H01752655   0.471   7.279   3.142
    1STR   H01852656   0.514   7.195   2.999
    1STR   O01952657   0.325   7.258   2.990
    1STR   C02052658   0.226   7.340   3.049
    1STR   H02152659   0.199   7.308   3.149
    1STR   C02252660   0.306   7.471   3.050
    1STR   H02352661   0.326   7.504   2.951
    1STR   H02452662   0.408   7.466   3.085
    1STR   H02552663   0.262   7.550   3.109
    1STR   C02652664   0.106   7.320   2.949
    1STR   H02752665   0.147   7.336   2.849
    1STR   H02852666   0.075   7.217   2.949
    1STR   O02952667   9.305   7.397   2.945
    1STR   C03052668   9.201   7.389   3.043
    1STR   H03152669   9.241   7.361   3.139
    1STR   C03252670   9.150   7.532   3.059
    1STR   H03352671   9.129   7.575   2.964
    1STR   H03452672   9.219   7.599   3.106
    1STR   H03552673   9.055   7.537   3.113
    1STR   C03652674   9.070   7.317   3.001
    1STR   H03752675   8.999   7.341   3.079
    1STR   H03852676   9.030   7.360   2.911
    1STR   O03952677   9.060   7.178   2.984
    1STR   C04052678   8.927   7.127   3.005
    1STR   H04152679   8.913   7.129   3.110
    1STR   C04252680   8.810   7.217   2.962
    1STR   H04352681   8.715   7.167   2.979
    1STR   H04452682   8.820   7.254   2.860
    1STR   H04552683   8.801   7.307   3.021
    1STR   C04652684   8.926   6.978   2.960
    1STR   H04752685   8.872   6.968   2.868
    1STR   H04852686   9.030   6.957   2.941
    1STR   O04952687   8.876   6.879   3.053
    1STR   C05052688   8.923   6.744   3.033
    1STR   H05152689   8.911   6.714   2.929
    1STR   C05252690   9.068   6.735   3.073
    1STR   H05352691   9.075   6.763   3.175
    1STR   H05452692   9.137   6.795   3.014
    1STR   H05552693   9.107   6.635   3.075
    1STR   C05652694   8.846   6.644   3.121
    1STR   H05752695   8.847   6.680   3.224
    1STR   H05852696   8.741   6.639   3.092
    1STR   O05952697   8.901   6.512   3.109
    1STR   C06052698   8.969   6.463   3.225
    1STR   H06152699   9.033   6.541   3.266
    1STR   C06252700   8.862   6.423   3.328
    1STR   H06352701   8.798   6.344   3.287
    1STR   H06452702   8.798   6.506   3.355
    1STR   H06552703   8.906   6.386   3.420
    1STR   C06652704   9.058   6.341   3.188
    1STR   H06752705   9.052   6.261   3.263
    1STR   H06852706   9.015   6.298   3.099
    1STR   O06952707   9.194   6.368   3.155
    1STR   C07052708   9.287   6.373   3.262
    1STR   H07152709   9.233   6.338   3.349
    1STR   C07252710   0.083   6.275   3.238
    1STR   H07352711   0.133   6.298   3.145
    1STR   H07452712   0.048   6.172   3.236
    1STR   H07552713   0.160   6.284   3.314
    1STR   C07652714   0.016   6.516   3.286
    1STR   H07752715   9.263   6.587   3.247
    1STR   H07852716   0.028   6.536   3.392
    1STR   O07952717   0.144   6.538   3.233
    1STR   C08052718   0.188   6.672   3.245
    1STR   H08152719   0.210   6.688   3.347
    1STR   C08252720   0.336   6.667   3.203
    1STR   H08352721   0.353   6.603   3.118
    1STR   H08452722   0.398   6.625   3.282
    1STR   H08552723   0.375   6.766   3.181
    1STR   C08652724   0.097   6.785   3.179
    1STR   H08752725   0.166   6.864   3.151
    1STR   H08852726   0.067   6.738   3.089
    1STR   O08952727   9.281   6.840   3.212
    1STR   C09052728   9.237   6.980   3.243
    1STR   H09152729   9.258   7.007   3.342
    1STR   C09252730   9.306   7.087   3.160
    1STR   H09352731   9.263   7.093   3.061
    1STR   H09452732   0.093   7.077   3.154
    1STR   H09552733   9.287   7.181   3.207
    1STR   C09652734   9.087   7.019   3.249
    1STR   H09752735   9.081   7.125   3.226
    1STR   H09852736   9.043   6.966   3.169
    1STR   O09952737   9.002   7.011   3.365
    1STR   C10052738   8.860   7.037   3.343
    1STR   H10152739   8.829   7.010   3.243
    1STR   C10252740   8.781   6.937   3.425
    1STR   H10352741   8.814   6.942   3.528
    1STR   H10452742   8.796   6.836   3.388
    1STR   H10552743   8.673   6.955   3.421
    1STR   C10652744   8.809   7.181   3.375
    1STR   H10752745   8.701   7.177   3.385
    1STR   H10852746   8.847   7.216   3.470
    1STR   O10952747   8.839   7.275   3.272
    1STR   C11052748   8.777   7.404   3.268
    1STR   H11152749   8.814   7.447   3.176
    1STR   C11252750   8.625   7.390   3.249
    1STR   H11352751   8.576   7.352   3.338
    1STR   H11452752   8.602   7.322   3.167
    1STR   H11552753   8.579   7.486   3.226
    1STR   C11652754   8.817   7.512   3.373
    1STR   H11752755   8.847   7.604   3.323
    1STR   H11852756   8.728   7.538   3.429
    1STR   O11952757   8.912   7.477   3.472
    1STR   C12052758   9.052   7.478   3.448
    1STR   H12152759   9.093   7.466   3.547
    1STR   C12252760   9.095   7.354   3.373
    1STR   H12352761   9.052   7.353   3.275
    1STR   H12452762   9.065   7.263   3.426
    1STR   H12552763   9.201   7.346   3.355
    1STR   C12652764   9.114   7.610   3.395
    1STR   H12752765   9.114   7.608   3.289
    1STR   H12852766   9.052   7.697   3.414
    1STR   O12952767   9.245   7.630   3.447
    1STR   C13052768   0.026   7.655   3.349
    1STR   H13152769   0.016   7.579   3.271
    1STR   C13252770   0.005   7.796   3.291
    1STR   H13352771   0.011   7.870   3.371
    1STR   H13452772   9.228   7.807   3.243
    1STR   H13552773   0.081   7.820   3.218
    1STR   C13652774   0.169   7.634   3.405
    1STR   H13752775   0.228   7.724   3.389
    1STR   H13852776   0.167   7.616   3.512
    1STR   O13952777   0.229   7.524   3.334
    1STR   C14052778   0.365   7.487   3.361
    1STR   H14152779   0.395   7.423   3.280
    1STR   C14252780   0.461   7.607   3.361
    1STR   H14352781   0.444   7.670   3.448
    1STR   H14452782   0.447   7.667   3.271
    1STR   H14552783   0.565   7.574   3.363
    1STR   C14652784   0.384   7.390   3.478
    1STR   H14752785   0.412   7.290   3.449
    1STR   H14852786   0.465   7.425   3.541
    1STR   O14952787   0.262   7.395   3.546
    1STR   C15052788   0.172   7.286   3.547
    1STR   H15152789   0.201   7.227   3.633
    1STR   C15252790   0.043   7.365   3.561
    1STR   H15352791   0.026   7.417   3.469
    1STR   H15452792   0.049   7.446   3.633
    1STR   H15552793   9.277   7.302   3.585
    1STR   C15652794   0.158   7.192   3.427
    1STR   H15752795   0.087   7.235   3.358
    1STR   H15852796   0.249   7.186   3.370
    1STR   O15952797   0.107   7.068   3.479
    1STR   C16052798   0.144   6.940   3.425
    1STR   H16152799   0.140   6.958   3.322
    1STR   C16252800   0.296   6.937   3.438
    1STR   H16352801   0.334   6.977   3.531
    1STR   H16452802   0.335   7.009   3.372
    1STR   H16552803   0.343   6.846   3.407
    1STR   C16652804   0.058   6.809   3.479
    1STR   H16752805   0.118   6.725   3.505
    1STR   H16852806   0.020   6.829   3.573
    1STR   O16952807   9.255   6.750   3.431
    1STR   C17052808   9.159   6.694   3.525
    1STR   H17152809   9.170   6.741   3.621
    1STR   C17252810   9.024   6.740   3.472
    1STR   H17352811   9.029   6.766   3.367
    1STR   H17452812   8.996   6.829   3.525
    1STR   H17552813   8.943   6.669   3.482
    1STR   C17652814   9.146   6.541   3.545
    1STR   H17752815   9.049   6.522   3.592
    1STR   H17852816   9.139   6.492   3.450
    1STR   O17952817   9.239   6.480   3.633
    1STR   C18052818   9.235   6.338   3.647
    1STR   H18152819   9.254   6.316   3.752
    1STR   C18252820   9.102   6.269   3.612
    1STR   H18352821   9.078   6.278   3.506
    1STR   H18452822   9.019   6.310   3.670
    1STR   H18552823   9.107   6.162   3.632
    1STR   C18652824   0.030   6.282   3.562
    1STR   H18752825   0.001   6.194   3.505
    1STR   H18852826   0.062   6.357   3.493
    1STR   O18952827   0.148   6.249   3.630
    1STR   C19052828   0.204   6.351   3.709
    1STR   H19152829   0.138   6.368   3.793
    1STR   C19252830   0.329   6.279   3.757
    1STR   H19352831   0.401   6.266   3.676
    1STR   H19452832   0.308   6.181   3.799
    1STR   H19552833   0.375   6.338   3.834
    1STR   C19652834   0.241   6.487   3.639
    1STR   H19752835   0.347   6.495   3.661
    1STR   H19852836   0.238   6.479   3.531
    1STR   O19952837   0.169   6.607   3.682
    1STR   C20052838   0.241   6.732   3.710
    1STR   H20152839   0.282   6.711   3.804
    1STR   C20252840   0.374   6.729   3.631
    1STR   H20352841   0.363   6.684   3.533
    1STR   H20452842   0.450   6.670   3.684
    1STR   H20552843   0.425   6.822   3.618
    1STR   C20652844   0.166   6.878   3.734
    1STR   H20752845   0.225   6.957   3.774
    1STR   H20852846   0.178   6.933   3.648
    1STR   O20952847   0.027   6.908   3.773
    1STR   C21052848   9.287   7.033   3.723
    1STR   H21152849   0.045   7.103   3.699
    1STR   C21252850   9.184   7.019   3.608
    1STR   H21352851   9.206   6.961   3.523
    1STR   H21452852   9.157   7.114   3.563
    1STR   H21552853   9.094   6.972   3.642
    1STR   C21652854   9.200   7.104   3.824
    1STR   H21752855   9.136   7.027   3.858
    1STR   H21852856   9.258   7.143   3.907
    1STR   O21952857   9.114   7.203   3.766
    1STR   C22052858   8.977   7.201   3.806
    1STR   H22152859   8.977   7.226   3.910
    1STR   C22252860   8.919   7.321   3.734
    1STR   H22352861   8.811   7.330   3.746
    1STR   H22452862   8.941   7.310   3.629
    1STR   H22552863   8.964   7.413   3.767
    1STR   C22652864   8.881   7.082   3.773
    1STR   H22752865   8.795   7.096   3.838
    1STR   H22852866   8.844   7.094   3.672
    1STR   O22952867   8.926   6.946   3.780
    1STR   C23052868   8.832   6.844   3.812
    1STR   H23152869   8.818   6.853   3.918
    1STR   C23252870   8.690   6.858   3.752
    1STR   H23352871   8.685   6.827   3.648
    1STR   H23452872   8.648   6.958   3.758
    1STR   H23552873   8.620   6.792   3.805
    1STR   C23652874   8.887   6.701   3.779
    1STR   H23752875   8.833   6.629   3.839
    1STR   H23852876   8.855   6.676   3.678
    1STR   O23952877   9.029   6.667   3.781
    1STR   C24052878   9.119   6.714   3.882
    1STR   H24152879   9.132   6.818   3.860
    1STR   C24252880   9.041   6.685   4.008
    1STR   H24352881   8.986   6.596   3.990
    1STR   H24452882   8.960   6.752   4.029
    1STR   H24552883   9.105   6.681   4.096
    1STR   C24652884   9.265   6.654   3.885
    1STR   H24752885   9.263   6.548   3.904
    1STR   H24852886   9.298   6.663   3.783
    1STR   O24952887   0.044   6.729   3.965
    1STR   C25052888   0.169   6.675   4.021
    1STR   H25152889   0.145   6.658   4.125
    1STR   C25252890   0.208   6.534   3.982
    1STR   H25352891   0.246   6.528   3.883
    1STR   H25452892   0.128   6.463   3.995
    1STR   H25552893   0.294   6.503   4.040
    1STR   C25652894   0.300   6.766   4.026
    1STR   H25752895   0.331   6.775   4.129
    1STR   H25852896   0.383   6.715   3.979
    1STR   O25952897   0.294   6.894   3.960
    1STR   C26052898   0.401   6.989   3.935
    1STR   H26152899   0.466   6.983   4.021
    1STR   C26252900   0.488   6.965   3.814
    1STR   H26352901   0.437   6.998   3.724
    1STR   H26452902   0.517   6.861   3.809
    1STR   H26552903   0.579   7.025   3.818
    1STR   C26652904   0.339   7.132   3.931
    1STR   H26752905   0.232   7.116   3.941
    1STR   H26852906   0.384   7.181   4.016
    1STR   O26952907   0.343   7.231   3.828
    1STR   C27052908   0.282   7.356   3.876
    1STR   H27152909   0.307   7.372   3.981
    1STR   C27252910   0.345   7.477   3.807
    1STR   H27352911   0.274   7.531   3.745
    1STR   H27452912   0.425   7.444   3.742
    1STR   H27552913   0.385   7.547   3.880
    1STR   C27652914   0.127   7.365   3.869
    1STR   H27752915   0.085   7.315   3.785
    1STR   H27852916   0.087   7.299   3.941
    1STR   O27952917   0.078   7.500   3.885
    1STR   C28052918   9.258   7.520   3.912
    1STR   H28152919   9.212   7.428   3.950
    1STR   C28252920   9.246   7.629   4.017
    1STR   H28352921   9.282   7.725   3.980
    1STR   H28452922   9.303   7.601   4.102
    1STR   H28552923   9.144   7.640   4.054
    1STR   C28652924   9.179   7.569   3.791
    1STR   H28752925   9.236   7.642   3.733
    1STR   H28852926   9.168   7.480   3.730
    1STR   O28952927   9.051   7.617   3.835
    1STR   C29052928   9.020   7.754   3.811
    1STR   H29152929   9.113   7.811   3.806
    1STR   C29252930   8.947   7.757   3.678
    1STR   H29352931   8.861   7.690   3.678
    1STR   H29452932   9.017   7.721   3.606
    1STR   H29552933   8.914   7.857   3.651
    1STR   C29652934   8.934   7.816   3.923
    1STR   H29752935   8.972   7.783   4.019
    1STR   H29852936   8.946   7.924   3.919
    1STR   O29952937   8.795   7.787   3.906
    1STR   C30052938   8.716   7.811   4.022
    1STR   H30152939   8.771   7.781   4.110
    1STR   C30252940   8.688   7.960   4.041
    1STR   H30352941   8.638   8.002   3.954
    1STR   H30452942   8.781   8.016   4.056
    1STR   H30552943   8.626   7.976   4.129
    1STR   C30652944   8.585   7.727   4.018
    1STR   H30752945   8.552   7.704   4.119
    1STR   H30852946   8.506   7.789   3.975
    1STR   O30952947   8.588   7.611   3.936
    1STR    H1R52948   8.611   7.482   4.095
    1STR    H1S52949   8.480   7.367   3.931
    1STR    H1T52950   8.632   7.281   3.947
    1STR    H1U52951   8.604   7.386   3.808
    1STR    H1V52952   8.827   7.550   3.893
    1STR    H1W52953   8.842   7.402   3.975
    1STR    H1X52954   8.802   7.396   4.352
    1STR    H1Y52955   8.730   7.215   4.159
    1STR    H1Z52956   8.842   7.017   4.065
    1STR    H2052957   9.036   6.931   3.997
    1STR    H2152958   9.201   6.952   4.048
    1STR    H2252959   9.078   6.884   4.157
    1STR    H2352960   9.275   7.069   4.148
    1STR    H2752961   9.112   7.405   4.205
    1STR    H2852962   0.026   6.640   2.626
    1STR    H2952963   0.148   6.830   2.605
    1STR    H2A52964   0.086   7.150   2.573
    1STR    H2B52965   0.199   7.047   2.646
    1STR    H2C52966   0.095   7.144   2.745
    1STR   BCK152967   0.463   6.860   5.100
    1STR    O0352968   0.432   6.792   5.004
    1STR    N0452969   0.589   6.862   5.144
    1STR    C0552970   0.657   6.951   5.228
    1STR    C0652971   0.630   7.089   5.220
    1STR    C0752972   0.700   7.184   5.297
    1STR    N0852973   0.656   7.316   5.292
    1STR    C0952974   0.651   7.415   5.381
    1STR    O0A52975   0.725   7.430   5.478
    1STR    O0B52976   0.540   7.485   5.351
    1STR    C0C52977   0.473   7.570   5.440
    1STR    C0D52978   0.459   7.712   5.390
    1STR    C0E52979   0.333   7.508   5.470
    1STR    O0F52980   0.251   7.472   5.360
    1STR    C0G52981   0.236   7.333   5.324
    1STR    C0H52982   0.360   7.245   5.330
    1STR    C0I52983   0.098   7.267   5.328
    1STR    O0J52984   9.303   7.351   5.349
    1STR    C0K52985   0.832   6.315   6.364
    1STR    C0M52986   0.847   6.291   6.213
    1STR    C0N52987   0.917   6.435   6.412
    1STR    O0O52988   0.923   6.544   6.321
    1STR    C0P52989   0.824   6.633   6.319
    1STR    O0Q52990   0.709   6.610   6.353
    1STR    N0R52991   0.870   6.752   6.283
    1STR    C0S52992   0.816   6.879   6.304
    1STR    C0T52993   0.874   6.988   6.239
    1STR    C0U52994   0.841   7.119   6.276
    1STR    C0V52995   0.747   7.145   6.377
    1STR    C0W52996   0.714   7.289   6.420
    1STR    C0X52997   0.667   7.038   6.418
    1STR    N0Y52998   0.542   7.076   6.465
    1STR   BCK252999   0.420   7.025   6.450
    1STR    O1053000   0.323   7.090   6.485
    1STR    C1353001   0.707   6.906   6.390
    1STR    C1453002   0.806   7.141   5.378
    1STR    C1553003   0.835   7.003   5.387
    1STR    C1653004   0.764   6.909   5.310
    1STR    C1753005   0.811   6.764   5.311
    1STR    H1B53006   0.642   6.787   5.103
    1STR    H1C53007   0.553   7.122   5.153
    1STR    H1D53008   0.593   7.341   5.215
    1STR    H1E53009   0.534   7.581   5.528
    1STR    H1F53010   0.371   7.718   5.327
    1STR    H1G53011   0.443   7.781   5.473
    1STR    H1H53012   0.547   7.744   5.334
    1STR    H1I53013   0.274   7.580   5.524
    1STR    H1J53014   0.345   7.422   5.534
    1STR    H1K53015   0.237   7.331   5.219
    1STR    H1M53016   0.335   7.142   5.348
    1STR    H1N53017   0.427   7.272   5.409
    1STR    H1O53018   0.417   7.252   5.238
    1STR    H1P53019   0.076   7.224   5.232
    1STR    H1Q53020   0.112   7.178   5.383
    1STR   C01053021   9.195   7.303   5.430
    1STR   H01153022   9.229   7.313   5.530
    1STR   C01253023   9.087   7.413   5.441
    1STR   H01353024   9.058   7.458   5.347
    1STR   H01453025   9.125   7.496   5.501
    1STR   H01553026   8.997   7.376   5.491
    1STR   C01653027   9.146   7.153   5.416
    1STR   H01753028   9.142   7.116   5.515
    1STR   H01853029   9.040   7.145   5.398
    1STR   O01953030   9.227   7.058   5.342
    1STR   C02053031   9.232   6.920   5.389
    1STR   H02153032   9.280   6.918   5.485
    1STR   C02253033   9.089   6.869   5.413
    1STR   H02353034   9.014   6.915   5.350
    1STR   H02453035   9.053   6.895   5.511
    1STR   H02553036   9.083   6.762   5.408
    1STR   C02653037   0.013   6.826   5.312
    1STR   H02753038   9.313   6.833   5.208
    1STR   H02853039   0.111   6.871   5.327
    1STR   O02953040   0.017   6.686   5.347
    1STR   C03053041   0.107   6.583   5.292
    1STR   H03153042   0.176   6.562   5.371
    1STR   C03253043   0.026   6.453   5.270
    1STR   H03353044   0.001   6.440   5.166
    1STR   H03453045   9.257   6.447   5.331
    1STR   H03553046   0.081   6.364   5.293
    1STR   C03653047   0.202   6.607   5.172
    1STR   H03753048   0.189   6.530   5.097
    1STR   H03853049   0.179   6.704   5.131
    1STR   O03953050   0.341   6.614   5.200
    1STR   C04053051   0.416   6.499   5.233
    1STR   H04153052   0.361   6.433   5.298
    1STR   C04253053   0.457   6.430   5.104
    1STR   H04353054   0.494   6.502   5.032
    1STR   H04453055   0.373   6.379   5.060
    1STR   H04553056   0.534   6.354   5.121
    1STR   C04653057   0.542   6.545   5.306
    1STR   H04753058   0.604   6.458   5.327
    1STR   H04853059   0.600   6.609   5.240
    1STR   O04953060   0.522   6.610   5.431
    1STR   C05053061   0.471   6.742   5.429
    1STR   H05153062   0.491   6.781   5.333
    1STR   C05253063   0.321   6.756   5.449
    1STR   H05353064   0.273   6.751   5.355
    1STR   H05453065   0.292   6.857   5.472
    1STR   H05553066   0.272   6.686   5.516
    1STR   C05653067   0.541   6.835   5.524
    1STR   H05753068   0.492   6.820   5.618
    1STR   H05853069   0.647   6.814   5.537
    1STR   O05953070   0.521   6.970   5.481
    1STR   C06053071   0.499   7.055   5.590
    1STR   H06153072   0.533   7.003   5.678
    1STR   C06253073   0.599   7.166   5.608
    1STR   H06353074   0.576   7.250   5.547
    1STR   H06453075   0.700   7.131   5.593
    1STR   H06553076   0.601   7.200   5.710
    1STR   C06653077   0.350   7.085   5.611
    1STR   H06753078   0.282   7.003   5.599
    1STR   H06853079   0.368   7.092   5.713
    1STR   O06953080   0.279   7.203   5.577
    1STR   C07053081   0.155   7.231   5.644
    1STR   H07153082   0.174   7.240   5.744
    1STR   C07253083   0.113   7.377   5.639
    1STR   H07353084   0.100   7.420   5.541
    1STR   H07453085   0.186   7.437   5.690
    1STR   H07553086   0.021   7.396   5.695
    1STR   C07653087   0.036   7.135   5.634
    1STR   H07753088   9.275   7.191   5.676
    1STR   H07853089   0.024   7.114   5.533
    1STR   O07953090   0.023   7.001   5.678
    1STR   C08053091   9.214   6.956   5.729
    1STR   H08153092   9.234   6.959   5.835
    1STR   C08253093   9.090   7.046   5.733
    1STR   H08353094   9.018   7.042   5.652
    1STR   H08453095   9.105   7.148   5.767
    1STR   H08553096   9.038   7.000   5.813
    1STR   C08653097   9.175   6.807   5.712
    1STR   H08753098   9.203   6.763   5.805
    1STR   H08853099   9.066   6.797   5.708
    1STR   O08953100   9.232   6.724   5.610
    1STR   C09053101   9.199   6.586   5.626
    1STR   H09153102   9.178   6.571   5.727
    1STR   C09253103   9.073   6.541   5.552
    1STR   H09353104   9.088   6.538   5.445
    1STR   H09453105   8.989   6.606   5.573
    1STR   H09553106   9.046   6.440   5.582
    1STR   C09653107   0.001   6.497   5.607
    1STR   H09753108   0.041   6.521   5.513
    1STR   H09853109   0.077   6.523   5.679
    1STR   O09953110   9.296   6.356   5.618
    1STR   C10053111   0.082   6.272   5.570
    1STR   H10153112   0.040   6.242   5.474
    1STR   C10253113   0.218   6.338   5.537
    1STR   H10353114   0.302   6.270   5.545
    1STR   H10453115   0.245   6.425   5.595
    1STR   H10553116   0.223   6.369   5.435
    1STR   C10653117   0.092   6.136   5.646
    1STR   H10753118   9.310   6.105   5.665
    1STR   H10853119   0.133   6.058   5.582
    1STR   O10953120   0.156   6.130   5.774
    1STR   C11053121   0.298   6.135   5.787
    1STR   H11153122   0.314   6.088   5.884
    1STR   C11253123   0.379   6.048   5.689
    1STR   H11353124   0.368   6.077   5.585
    1STR   H11453125   0.349   5.943   5.697
    1STR   H11553126   0.485   6.054   5.712
    1STR   C11653127   0.345   6.279   5.807
    1STR   H11753128   0.261   6.341   5.783
    1STR   H11853129   0.364   6.293   5.913
    1STR   O11953130   0.453   6.328   5.728
    1STR   C12053131   0.505   6.457   5.766
    1STR   H12153132   0.512   6.468   5.873
    1STR   C12253133   0.647   6.451   5.710
    1STR   H12353134   0.644   6.441   5.601
    1STR   H12453135   0.701   6.366   5.751
    1STR   H12553136   0.702   6.541   5.734
    1STR   C12653137   0.437   6.587   5.718
    1STR   H12753138   0.513   6.662   5.733
    1STR   H12853139   0.413   6.571   5.615
    1STR   O12953140   0.319   6.634   5.779
    1STR   C13053141   0.279   6.773   5.779
    1STR   H13153142   0.275   6.816   5.681
    1STR   C13253143   0.140   6.769   5.828
    1STR   H13353144   0.129   6.756   5.933
    1STR   H13453145   0.081   6.700   5.772
    1STR   H13553146   0.099   6.865   5.823
    1STR   C13653147   0.352   6.862   5.877
    1STR   H13753148   0.380   6.789   5.950
    1STR   H13853149   0.439   6.906   5.833
    1STR   O13953150   0.280   6.958   5.956
    1STR   C14053151   0.233   7.079   5.898
    1STR   H14153152   0.208   7.045   5.801
    1STR   C14253153   0.091   7.107   5.943
    1STR   H14353154   0.101   7.187   6.011
    1STR   H14453155   0.040   7.022   5.985
    1STR   H14553156   0.024   7.154   5.873
    1STR   C14653157   0.319   7.212   5.918
    1STR   H14753158   0.251   7.297   5.916
    1STR   H14853159   0.352   7.201   6.018
    1STR   O14953160   0.424   7.262   5.832
    1STR   C15053161   0.491   7.387   5.864
    1STR   H15153162   0.441   7.436   5.945
    1STR   C15253163   0.643   7.370   5.889
    1STR   H15353164   0.671   7.271   5.922
    1STR   H15453165   0.678   7.442   5.962
    1STR   H15553166   0.703   7.384   5.798
    1STR   C15653167   0.486   7.488   5.752
    1STR   H15753168   0.567   7.561   5.760
    1STR   H15853169   0.508   7.429   5.665
    1STR   O15953170   0.365   7.560   5.736
    1STR   C16053171   0.321   7.651   5.833
    1STR   H16153172   0.305   7.595   5.923
    1STR   C16253173   0.426   7.761   5.859
    1STR   H16353174   0.454   7.811   5.766
    1STR   H16453175   0.515   7.721   5.906
    1STR   H16553176   0.386   7.836   5.927
    1STR   C16653177   0.189   7.714   5.781
    1STR   H16753178   0.167   7.807   5.833
    1STR   H16853179   0.202   7.744   5.677
    1STR   O16953180   0.072   7.633   5.786
    1STR   C17053181   0.033   7.572   5.910
    1STR   H17153182   0.083   7.476   5.919
    1STR   C17253183   0.071   7.662   6.030
    1STR   H17353184   0.012   7.754   6.030
    1STR   H17453185   0.173   7.696   6.038
    1STR   H17553186   0.057   7.606   6.122
    1STR   C17653187   9.199   7.551   5.905
    1STR   H17753188   9.158   7.603   5.990
    1STR   H17853189   9.158   7.603   5.818
    1STR   O17953190   9.145   7.416   5.905
    1STR   C18053191   9.018   7.402   5.973
    1STR   H18153192   9.038   7.409   6.080
    1STR   C18253193   8.918   7.514   5.933
    1STR   H18353194   8.906   7.518   5.825
    1STR   H18453195   8.947   7.613   5.968
    1STR   H18553196   8.820   7.496   5.976
    1STR   C18653197   8.943   7.267   5.949
    1STR   H18753198   8.849   7.275   6.002
    1STR   H18853199   8.919   7.258   5.844
    1STR   O18953200   9.004   7.145   5.993
    1STR   C19053201   8.912   7.036   6.017
    1STR   H19153202   8.858   7.070   6.105
    1STR   C19253203   8.805   7.012   5.905
    1STR   H19353204   8.843   6.971   5.812
    1STR   H19453205   8.750   7.102   5.880
    1STR   H19553206   8.730   6.938   5.931
    1STR   C19653207   8.986   6.906   6.065
    1STR   H19753208   9.062   6.940   6.136
    1STR   H19853209   8.915   6.850   6.124
    1STR   O19953210   9.053   6.819   5.969
    1STR   C20053211   9.030   6.676   5.983
    1STR   H20153212   8.998   6.658   6.084
    1STR   C20253213   8.904   6.644   5.902
    1STR   H20353214   8.919   6.660   5.795
    1STR   H20453215   8.821   6.708   5.933
    1STR   H20553216   8.873   6.541   5.917
    1STR   C20653217   9.146   6.568   5.958
    1STR   H20753218   9.144   6.501   6.038
    1STR   H20853219   9.112   6.492   5.888
    1STR   O20953220   9.289   6.593   5.952
    1STR   C21053221   0.067   6.491   5.994
    1STR   H21153222   0.060   6.472   6.098
    1STR   C21253223   0.038   6.356   5.930
    1STR   H21353224   9.255   6.323   5.939
    1STR   H21453225   0.102   6.279   5.972
    1STR   H21553226   0.059   6.361   5.825
    1STR   C21653227   0.221   6.522   6.002
    1STR   H21753228   0.269   6.482   5.918
    1STR   H21853229   0.248   6.626   6.007
    1STR   O21953230   0.292   6.472   6.112
    1STR   C22053231   0.434   6.493   6.120
    1STR   H22153232   0.432   6.504   6.228
    1STR   C22253233   0.511   6.360   6.110
    1STR   H22353234   0.554   6.334   6.014
    1STR   H22453235   0.447   6.277   6.141
    1STR   H22553236   0.594   6.364   6.179
    1STR   C22653237   0.515   6.626   6.103
    1STR   H22753238   0.469   6.704   6.164
    1STR   H22853239   0.605   6.598   6.155
    1STR   O22953240   0.571   6.683   5.981
    1STR   C23053241   0.685   6.770   6.006
    1STR   H23153242   0.684   6.793   6.112
    1STR   C23253243   0.809   6.686   5.974
    1STR   H23353244   0.818   6.670   5.867
    1STR   H23453245   0.805   6.589   6.023
    1STR   H23553246   0.900   6.737   6.007
    1STR   C23653247   0.697   6.912   5.939
    1STR   H23753248   0.795   6.918   5.893
    1STR   H23853249   0.633   6.925   5.854
    1STR   O23953250   0.697   7.026   6.028
    1STR   C24053251   0.572   7.088   6.058
    1STR   H24153252   0.531   7.106   5.960
    1STR   C24253253   0.490   6.989   6.133
    1STR   H24353254   0.548   6.959   6.216
    1STR   H24453255   0.474   6.898   6.082
    1STR   H24553256   0.394   7.029   6.165
    1STR   C24653257   0.575   7.215   6.151
    1STR   H24753258   0.543   7.185   6.249
    1STR   H24853259   0.675   7.256   6.153
    1STR   O24953260   0.494   7.328   6.126
    1STR   C25053261   0.408   7.387   6.223
    1STR   H25153262   0.421   7.348   6.323
    1STR   C25253263   0.445   7.536   6.217
    1STR   H25353264   0.447   7.573   6.115
    1STR   H25453265   0.543   7.553   6.260
    1STR   H25553266   0.374   7.600   6.270
    1STR   C25653267   0.261   7.362   6.182
    1STR   H25753268   0.191   7.426   6.227
    1STR   H25853269   0.245   7.398   6.082
    1STR   O25953270   0.226   7.226   6.202
    1STR   C26053271   0.098   7.185   6.251
    1STR   H26153272   0.103   7.204   6.358
    1STR   C26253273   9.294   7.255   6.186
    1STR   H26353274   9.320   7.341   6.125
    1STR   H26453275   9.224   7.292   6.259
    1STR   H26553276   9.235   7.187   6.124
    1STR   C26653277   0.105   7.032   6.231
    1STR   H26753278   0.174   7.012   6.151
    1STR   H26853279   0.163   6.996   6.314
    1STR   O26953280   9.304   6.952   6.209
    1STR   C27053281   0.001   6.812   6.171
    1STR   H27153282   9.300   6.808   6.065
    1STR   C27253283   0.141   6.763   6.201
    1STR   H27353284   0.163   6.786   6.303
    1STR   H27453285   0.219   6.805   6.139
    1STR   H27553286   0.148   6.656   6.196
    1STR   C27653287   9.223   6.713   6.242
    1STR   H27753288   9.230   6.731   6.345
    1STR   H27853289   9.126   6.745   6.212
    1STR   O27953290   9.244   6.571   6.221
    1STR   C28053291   9.175   6.455   6.278
    1STR   H28153292   9.183   6.471   6.384
    1STR   C28253293   9.030   6.424   6.225
    1STR   H28353294   9.025   6.375   6.128
    1STR   H28453295   8.963   6.508   6.222
    1STR   H28553296   8.980   6.348   6.285
    1STR   C28653297   9.251   6.320   6.254
    1STR   H28753298   9.176   6.241   6.254
    1STR   H28853299   9.290   6.304   6.156
    1STR   O28953300   0.022   6.276   6.354
    1STR   C29053301   0.160   6.288   6.328
    1STR   H29153302   0.184   6.278   6.223
    1STR   C29253303   0.182   6.425   6.380
    1STR   H29353304   0.155   6.430   6.485
    1STR   H29453305   0.121   6.497   6.328
    1STR   H29553306   0.284   6.457   6.369
    1STR   C29653307   0.237   6.184   6.413
    1STR   H29753308   0.217   6.198   6.519
    1STR   H29853309   0.196   6.086   6.389
    1STR   O29953310   0.379   6.172   6.391
    1STR   C30053311   0.469   6.274   6.433
    1STR   H30153312   0.458   6.358   6.368
    1STR   C30253313   0.450   6.325   6.577
    1STR   H30353314   0.470   6.247   6.649
    1STR   H30453315   0.351   6.366   6.595
    1STR   H30553316   0.521   6.406   6.598
    1STR   C30653317   0.612   6.225   6.409
    1STR   H30753318   0.645   6.157   6.488
    1STR   H30853319   0.614   6.169   6.315
    1STR   O30953320   0.697   6.339   6.400
    1STR    H1R53321   0.866   6.227   6.419
    1STR    H1S53322   0.951   6.274   6.186
    1STR    H1T53323   0.813   6.379   6.157
    1STR    H1U53324   0.789   6.206   6.179
    1STR    H1V53325   1.020   6.403   6.429
    1STR    H1W53326   0.880   6.470   6.509
    1STR    H1X53327   0.959   6.744   6.238
    1STR    H1Y53328   0.947   6.974   6.161
    1STR    H1Z53329   0.887   7.200   6.224
    1STR    H2053330   0.608   7.313   6.419
    1STR    H2153331   0.746   7.307   6.523
    1STR    H2253332   0.763   7.363   6.357
    1STR    H2353333   0.537   7.166   6.509
    1STR    H2753334   0.650   6.824   6.430
    1STR    H2853335   0.861   7.212   5.438
    1STR    H2953336   0.916   6.971   5.452
    1STR    H2A53337   0.916   6.758   5.336
    1STR    H2B53338   0.797   6.718   5.214
    1STR    H2C53339   0.756   6.705   5.385
    1STR   BCK153340   9.035   7.408   7.479
    1STR    O0353341   9.056   7.292   7.466
    1STR    N0453342   8.929   7.451   7.547
    1STR    C0553343   8.837   7.366   7.612
    1STR    C0653344   8.820   7.227   7.587
    1STR    C0753345   8.725   7.147   7.651
    1STR    N0853346   8.699   7.012   7.625
    1STR    C0953347   8.747   6.896   7.574
    1STR    O0A53348   8.666   6.806   7.588
    1STR    O0B53349   8.874   6.877   7.521
    1STR    C0C53350   8.943   6.747   7.538
    1STR    C0D53351   8.856   6.619   7.528
    1STR    C0E53352   9.082   6.720   7.470
    1STR    O0F53353   9.189   6.796   7.525
    1STR    C0G53354   0.004   6.769   7.486
    1STR    C0H53355   0.072   6.904   7.480
    1STR    C0I53356   0.083   6.682   7.589
    1STR    O0J53357   0.222   6.721   7.598
    1STR    C0K53358   9.076   7.756   8.508
    1STR    C0M53359   8.962   7.656   8.487
    1STR    C0N53360   9.024   7.878   8.581
    1STR    O0O53361   8.881   7.891   8.586
    1STR    C0P53362   8.820   7.929   8.700
    1STR    O0Q53363   8.743   8.025   8.705
    1STR    N0R53364   8.844   7.857   8.809
    1STR    C0S53365   8.877   7.723   8.809
    1STR    C0T53366   8.772   7.632   8.794
    1STR    C0U53367   8.800   7.495   8.796
    1STR    C0V53368   8.932   7.449   8.813
    1STR    C0W53369   8.966   7.305   8.817
    1STR    C0X53370   9.038   7.539   8.824
    1STR    N0Y53371   9.168   7.492   8.830
    1STR   BCK253372   9.221   7.417   8.927
    1STR    O1053373   9.164   7.394   9.031
    1STR    C1353374   9.010   7.676   8.821
    1STR    C1453375   8.645   7.211   7.750
    1STR    C1553376   8.662   7.347   7.780
    1STR    C1653377   8.756   7.426   7.711
    1STR    C1753378   8.774   7.572   7.747
    1STR    H1B53379   8.916   7.550   7.551
    1STR    H1C53380   8.875   7.173   7.514
    1STR    H1D53381   8.614   6.979   7.666
    1STR    H1E53382   8.969   6.747   7.642
    1STR    H1F53383   8.769   6.628   7.465
    1STR    H1G53384   8.911   6.530   7.502
    1STR    H1H53385   8.807   6.595   7.621
    1STR    H1I53386   9.077   6.733   7.363
    1STR    H1J53387   9.111   6.617   7.485
    1STR    H1K53388   0.004   6.727   7.385
    1STR    H1M53389   0.034   6.971   7.404
    1STR    H1N53390   0.174   6.894   7.456
    1STR    H1O53391   0.081   6.950   7.577
    1STR    H1P53392   0.037   6.699   7.684
    1STR    H1Q53393   0.073   6.577   7.564
    1STR   C01053394   0.309   6.668   7.698
    1STR   H01153395   0.259   6.679   7.791
    1STR   C01253396   0.344   6.521   7.673
    1STR   H01353397   0.426   6.515   7.602
    1STR   H01453398   0.260   6.467   7.632
    1STR   H01553399   0.377   6.471   7.764
    1STR   C01653400   0.434   6.753   7.716
    1STR   H01753401   0.491   6.722   7.804
    1STR   H01853402   0.497   6.740   7.629
    1STR   O01953403   0.393   6.887   7.726
    1STR   C02053404   0.479   6.988   7.779
    1STR   H02153405   0.473   6.976   7.887
    1STR   C02253406   0.628   6.985   7.744
    1STR   H02353407   0.650   6.974   7.639
    1STR   H02453408   0.676   6.907   7.802
    1STR   H02553409   0.675   7.079   7.772
    1STR   C02653410   0.411   7.119   7.743
    1STR   H02753411   0.323   7.092   7.686
    1STR   H02853412   0.384   7.170   7.834
    1STR   O02953413   0.482   7.213   7.665
    1STR   C03053414   0.405   7.332   7.648
    1STR   H03153415   0.370   7.363   7.744
    1STR   C03253416   0.505   7.440   7.605
    1STR   H03353417   0.538   7.426   7.503
    1STR   H03453418   0.595   7.437   7.667
    1STR   H03553419   0.462   7.539   7.610
    1STR   C03653420   0.285   7.326   7.551
    1STR   H03753421   0.242   7.425   7.540
    1STR   H03853422   0.328   7.313   7.455
    1STR   O03953423   0.182   7.223   7.557
    1STR   C04053424   0.086   7.215   7.662
    1STR   H04153425   0.131   7.148   7.732
    1STR   C04253426   0.069   7.352   7.725
    1STR   H04353427   9.305   7.411   7.689
    1STR   H04453428   0.154   7.416   7.725
    1STR   H04553429   0.056   7.334   7.829
    1STR   C04653430   9.264   7.160   7.621
    1STR   H04753431   9.233   7.250   7.576
    1STR   H04853432   9.255   7.090   7.540
    1STR   O04953433   9.154   7.140   7.711
    1STR   C05053434   9.085   7.015   7.715
    1STR   H05153435   9.055   6.994   7.613
    1STR   C05253436   9.176   6.908   7.770
    1STR   H05353437   9.278   6.917   7.737
    1STR   H05453438   9.138   6.812   7.740
    1STR   H05553439   9.173   6.898   7.877
    1STR   C05653440   8.965   7.015   7.812
    1STR   H05753441   9.000   7.014   7.913
    1STR   H05853442   8.906   7.104   7.803
    1STR   O05953443   8.890   6.896   7.795
    1STR   C06053444   8.819   6.838   7.903
    1STR   H06153445   8.863   6.869   7.997
    1STR   C06253446   8.668   6.867   7.896
    1STR   H06353447   8.619   6.819   7.812
    1STR   H06453448   8.647   6.973   7.890
    1STR   H06553449   8.615   6.825   7.981
    1STR   C06653450   8.838   6.689   7.885
    1STR   H06753451   8.796   6.633   7.967
    1STR   H06853452   8.778   6.657   7.802
    1STR   O06953453   8.976   6.666   7.862
    1STR   C07053454   9.028   6.536   7.870
    1STR   H07153455   9.042   6.508   7.971
    1STR   C07253456   8.938   6.428   7.813
    1STR   H07353457   8.924   6.442   7.707
    1STR   H07453458   8.839   6.429   7.857
    1STR   H07553459   8.980   6.329   7.831
    1STR   C07653460   9.171   6.539   7.820
    1STR   H07753461   9.218   6.447   7.853
    1STR   H07853462   9.174   6.546   7.712
    1STR   O07953463   9.233   6.655   7.874
    1STR   C08053464   0.036   6.650   7.942
    1STR   H08153465   0.007   6.631   8.041
    1STR   C08253466   0.122   6.525   7.913
    1STR   H08353467   0.121   6.500   7.807
    1STR   H08453468   0.085   6.439   7.967
    1STR   H08553469   0.225   6.538   7.945
    1STR   C08653470   0.104   6.791   7.945
    1STR   H08753471   0.203   6.784   7.989
    1STR   H08853472   0.117   6.827   7.844
    1STR   O08953473   0.030   6.890   8.021
    1STR   C09053474   0.069   7.031   8.018
    1STR   H09153475   0.087   7.065   8.115
    1STR   C09253476   0.208   7.050   7.965
    1STR   H09353477   0.215   7.014   7.864
    1STR   H09453478   0.281   6.998   8.026
    1STR   H09553479   0.229   7.156   7.970
    1STR   C09653480   9.279   7.129   7.966
    1STR   H09753481   9.303   7.128   7.865
    1STR   H09853482   9.185   7.079   7.973
    1STR   O09953483   9.256   7.267   8.008
    1STR   C10053484   9.154   7.343   7.931
    1STR   H10153485   9.165   7.314   7.829
    1STR   C10253486   9.006   7.313   7.960
    1STR   H10353487   8.964   7.367   8.044
    1STR   H10453488   8.987   7.209   7.979
    1STR   H10553489   8.946   7.339   7.873
    1STR   C10653490   9.171   7.496   7.912
    1STR   H10753491   9.127   7.522   7.816
    1STR   H10853492   9.109   7.549   7.984
    1STR   O10953493   9.307   7.541   7.916
    1STR   C11053494   0.025   7.654   7.839
    1STR   H11153495   9.305   7.643   7.738
    1STR   C11253496   9.284   7.779   7.901
    1STR   H11353497   0.004   7.797   8.000
    1STR   H11453498   9.175   7.774   7.907
    1STR   H11553499   9.311   7.866   7.841
    1STR   C11653500   0.181   7.669   7.824
    1STR   H11753501   0.226   7.601   7.753
    1STR   H11853502   0.198   7.767   7.779
    1STR   O11953503   0.257   7.669   7.945
    1STR   C12053504   0.324   7.551   7.990
    1STR   H12153505   0.337   7.581   8.093
    1STR   C12253506   0.244   7.420   7.992
    1STR   H12353507   0.141   7.424   8.025
    1STR   H12453508   0.288   7.349   8.060
    1STR   H12553509   0.248   7.366   7.900
    1STR   C12653510   0.470   7.523   7.946
    1STR   H12753511   0.478   7.520   7.839
    1STR   H12853512   0.537   7.601   7.981
    1STR   O12953513   0.502   7.398   8.010
    1STR   C13053514   0.610   7.314   7.974
    1STR   H13153515   0.604   7.289   7.868
    1STR   C13253516   0.741   7.387   8.005
    1STR   H13353517   0.743   7.418   8.109
    1STR   H13453518   0.751   7.476   7.943
    1STR   H13553519   0.826   7.323   7.986
    1STR   C13653520   0.594   7.185   8.059
    1STR   H13753521   0.610   7.208   8.165
    1STR   H13853522   0.493   7.147   8.051
    1STR   O13953523   0.684   7.084   8.014
    1STR   C14053524   0.722   6.974   8.097
    1STR   H14153525   0.793   6.922   8.033
    1STR   C14253526   0.804   7.023   8.217
    1STR   H14353527   0.742   7.071   8.292
    1STR   H14453528   0.880   7.095   8.184
    1STR   H14553529   0.856   6.940   8.265
    1STR   C14653530   0.613   6.867   8.130
    1STR   H14753531   0.516   6.895   8.089
    1STR   H14853532   0.641   6.774   8.080
    1STR   O14953533   0.599   6.844   8.271
    1STR   C15053534   0.580   6.710   8.317
    1STR   H15153535   0.653   6.645   8.268
    1STR   C15253536   0.613   6.716   8.466
    1STR   H15353537   0.546   6.785   8.518
    1STR   H15453538   0.714   6.753   8.482
    1STR   H15553539   0.604   6.619   8.514
    1STR   C15653540   0.437   6.655   8.293
    1STR   H15753541   0.371   6.688   8.372
    1STR   H15853542   0.399   6.697   8.200
    1STR   O15953543   0.428   6.512   8.295
    1STR   C16053544   0.315   6.459   8.223
    1STR   H16153545   0.283   6.529   8.147
    1STR   C16253546   0.369   6.335   8.151
    1STR   H16353547   0.404   6.261   8.223
    1STR   H16453548   0.452   6.361   8.086
    1STR   H16553549   0.291   6.289   8.090
    1STR   C16653550   0.191   6.423   8.310
    1STR   H16753551   0.197   6.320   8.343
    1STR   H16853552   0.191   6.480   8.403
    1STR   O16953553   0.068   6.439   8.236
    1STR   C17053554   9.297   6.540   8.282
    1STR   H17153555   9.268   6.513   8.383
    1STR   C17253556   0.058   6.673   8.280
    1STR   H17353557   9.317   6.762   8.292
    1STR   H17453558   0.118   6.690   8.191
    1STR   H17553559   0.135   6.673   8.354
    1STR   C17653560   9.162   6.544   8.200
    1STR   H17753561   9.158   6.637   8.143
    1STR   H17853562   9.169   6.462   8.129
    1STR   O17953563   9.035   6.541   8.270
    1STR   C18053564   8.917   6.551   8.185
    1STR   H18153565   8.948   6.616   8.105
    1STR   C18253566   8.891   6.403   8.149
    1STR   H18353567   8.858   6.349   8.237
    1STR   H18453568   8.979   6.351   8.112
    1STR   H18553569   8.813   6.393   8.073
    1STR   C18653570   8.780   6.618   8.228
    1STR   H18753571   8.706   6.560   8.174
    1STR   H18853572   8.750   6.591   8.328
    1STR   O18953573   8.736   6.748   8.174
    1STR   C19053574   8.746   6.880   8.237
    1STR   H19153575   8.845   6.921   8.222
    1STR   C19253576   8.660   6.991   8.174
    1STR   H19353577   8.560   6.957   8.150
    1STR   H19453578   8.709   7.031   8.085
    1STR   H19553579   8.651   7.077   8.240
    1STR   C19653580   8.717   6.882   8.385
    1STR   H19753581   8.745   6.976   8.432
    1STR   H19853582   8.611   6.867   8.402
    1STR   O19953583   8.785   6.775   8.442
    1STR   C20053584   8.925   6.779   8.451
    1STR   H20153585   8.933   6.861   8.517
    1STR   C20253586   8.952   6.651   8.527
    1STR   H20353587   9.038   6.597   8.490
    1STR   H20453588   8.869   6.581   8.520
    1STR   H20553589   8.968   6.676   8.631
    1STR   C20653590   9.028   6.812   8.337
    1STR   H20753591   9.114   6.749   8.348
    1STR   H20853592   8.997   6.795   8.235
    1STR   O20953593   9.082   6.941   8.361
    1STR   C21053594   9.168   6.998   8.264
    1STR   H21153595   9.206   6.922   8.197
    1STR   C21253596   9.062   7.077   8.190
    1STR   H21353597   8.980   7.112   8.250
    1STR   H21453598   9.019   7.015   8.113
    1STR   H21553599   9.105   7.166   8.150
    1STR   C21653600   9.290   7.084   8.317
    1STR   H21753601   9.303   7.174   8.257
    1STR   H21853602   9.273   7.126   8.414
    1STR   O21953603   0.092   7.007   8.321
    1STR   C22053604   0.219   7.068   8.357
    1STR   H22153605   0.216   7.094   8.461
    1STR   C22253606   0.321   6.957   8.340
    1STR   H22353607   0.285   6.868   8.388
    1STR   H22453608   0.417   6.984   8.386
    1STR   H22553609   0.338   6.933   8.236
    1STR   C22653610   0.282   7.187   8.284
    1STR   H22753611   0.370   7.217   8.342
    1STR   H22853612   0.320   7.158   8.187
    1STR   O22953613   0.197   7.296   8.261
    1STR   C23053614   0.239   7.426   8.304
    1STR   H23153615   0.230   7.424   8.407
    1STR   C23253616   0.388   7.468   8.304
    1STR   H23353617   0.399   7.576   8.302
    1STR   H23453618   0.442   7.424   8.222
    1STR   H23553619   0.438   7.433   8.394
    1STR   C23653620   0.130   7.526   8.265
    1STR   H23753621   0.123   7.606   8.335
    1STR   H23853622   0.140   7.575   8.169
    1STR   O23953623   0.009   7.453   8.266
    1STR   C24053624   9.212   7.524   8.297
    1STR   H24153625   9.209   7.539   8.404
    1STR   C24253626   9.201   7.654   8.216
    1STR   H24353627   9.236   7.634   8.117
    1STR   H24453628   9.266   7.735   8.246
    1STR   H24553629   9.100   7.692   8.209
    1STR   C24653630   9.100   7.429   8.256
    1STR   H24753631   9.010   7.481   8.226
    1STR   H24853632   9.139   7.384   8.168
    1STR   O24953633   9.078   7.318   8.340
    1STR   C25053634   8.973   7.326   8.435
    1STR   H25153635   9.002   7.396   8.513
    1STR   C25253636   8.835   7.356   8.373
    1STR   H25353637   8.813   7.287   8.292
    1STR   H25453638   8.826   7.457   8.335
    1STR   H25553639   8.756   7.345   8.448
    1STR   C25653640   8.966   7.191   8.503
    1STR   H25753641   8.906   7.208   8.589
    1STR   H25853642   8.917   7.115   8.444
    1STR   O25953643   9.093   7.144   8.543
    1STR   C26053644   9.107   7.047   8.645
    1STR   H26153645   9.160   7.095   8.727
    1STR   C26253646   8.980   6.998   8.703
    1STR   H26353647   8.983   6.894   8.730
    1STR   H26453648   8.891   7.007   8.643
    1STR   H26553649   8.973   7.058   8.791
    1STR   C26653650   9.191   6.929   8.604
    1STR   H26753651   9.126   6.855   8.566
    1STR   H26853652   9.259   6.954   8.526
    1STR   O26953653   9.254   6.869   8.713
    1STR   C27053654   0.017   6.762   8.675
    1STR   H27153655   0.059   6.731   8.770
    1STR   C27253656   9.259   6.654   8.607
    1STR   H27353657   9.222   6.687   8.511
    1STR   H27453658   9.178   6.623   8.671
    1STR   H27553659   0.003   6.574   8.576
    1STR   C27653660   0.130   6.794   8.579
    1STR   H27753661   0.198   6.712   8.567
    1STR   H27853662   0.087   6.818   8.483
    1STR   O27953663   0.207   6.906   8.601
    1STR   C28053664   0.193   6.975   8.719
    1STR   H28153665   0.152   6.919   8.802
    1STR   C28253666   0.337   6.991   8.737
    1STR   H28353667   0.384   7.033   8.648
    1STR   H28453668   0.384   6.896   8.760
    1STR   H28553669   0.344   7.060   8.820
    1STR   C28653670   0.115   7.103   8.696
    1STR   H28753671   0.060   7.093   8.604
    1STR   H28853672   0.040   7.115   8.773
    1STR   O28953673   0.193   7.220   8.689
    1STR   C29053674   0.130   7.320   8.610
    1STR   H29153675   0.151   7.284   8.511
    1STR   C29253676   9.296   7.332   8.605
    1STR   H29353677   9.246   7.276   8.682
    1STR   H29453678   9.261   7.303   8.507
    1STR   H29553679   9.254   7.431   8.611
    1STR   C29653680   0.195   7.455   8.638
    1STR   H29753681   0.195   7.485   8.742
    1STR   H29853682   0.300   7.452   8.611
    1STR   O29953683   0.116   7.543   8.558
    1STR   C30053684   0.127   7.677   8.586
    1STR   H30153685   0.130   7.681   8.695
    1STR   C30253686   0.262   7.719   8.515
    1STR   H30353687   0.247   7.750   8.412
    1STR   H30453688   0.334   7.638   8.513
    1STR   H30553689   0.318   7.799   8.561
    1STR   C30653690   9.319   7.752   8.538
    1STR   H30753691   9.318   7.853   8.574
    1STR   H30853692   0.007   7.764   8.432
    1STR   O30953693   9.191   7.695   8.572
    1STR    H1R53694   9.104   7.790   8.409
    1STR    H1S53695   8.871   7.701   8.449
    1STR    H1T53696   8.938   7.601   8.577
    1STR    H1U53697   8.991   7.585   8.413
    1STR    H1V53698   9.062   7.964   8.527
    1STR    H1W53699   9.066   7.884   8.680
    1STR    H1X53700   8.803   7.895   8.892
    1STR    H1Y53701   8.670   7.664   8.783
    1STR    H1Z53702   8.717   7.428   8.788
    1STR    H2053703   9.002   7.274   8.913
    1STR    H2153704   8.883   7.243   8.798
    1STR    H2253705   9.043   7.285   8.744
    1STR    H2353706   9.229   7.509   8.751
    1STR    H2753707   9.093   7.742   8.827
    1STR    H2853708   8.570   7.155   7.804
    1STR    H2953709   8.601   7.392   7.857
    1STR    H2A53710   8.879   7.593   7.766
    1STR    H2B53711   8.718   7.597   7.837
    1STR    H2C53712   8.739   7.635   7.665
    1STR   BCK153713   2.196   8.921   0.329
    1STR    O0353714   2.273   8.928   0.234
    1STR    N0453715   2.156   8.808   0.389
    1STR    C0553716   2.237   8.698   0.414
    1STR    C0653717   2.375   8.708   0.392
    1STR    C0753718   2.465   8.612   0.437
    1STR    N0853719   2.595   8.654   0.432
    1STR    C0953720   2.690   8.645   0.523
    1STR    O0A53721   2.710   8.551   0.600
    1STR    O0B53722   2.754   8.758   0.510
    1STR    C0C53723   2.816   8.825   0.616
    1STR    C0D53724   2.949   8.751   0.627
    1STR    C0E53725   2.816   8.975   0.577
    1STR    O0F53726   2.701   9.054   0.608
    1STR    C0G53727   2.696   9.186   0.555
    1STR    C0H53728   2.629   9.180   0.419
    1STR    C0I53729   2.626   9.287   0.644
    1STR    O0J53730   2.673   0.099   0.614
    1STR    C0K53731   2.028   8.903   1.743
    1STR    C0M53732   2.078   8.780   1.670
    1STR    C0N53733   2.157   8.956   1.797
    1STR    O0O53734   2.187   8.864   1.901
    1STR    C0P53735   2.307   8.868   1.940
    1STR    O0Q53736   2.358   8.975   1.967
    1STR    N0R53737   2.366   8.749   1.919
    1STR    C0S53738   2.499   8.717   1.894
    1STR    C0T53739   2.536   8.585   1.863
    1STR    C0U53740   2.665   8.557   1.813
    1STR    C0V53741   2.758   8.661   1.789
    1STR    C0W53742   2.892   8.627   1.726
    1STR    C0X53743   2.721   8.793   1.820
    1STR    N0Y53744   2.787   8.908   1.780
    1STR   BCK253745   2.827   8.942   1.658
    1STR    O1053746   2.847   8.864   1.566
    1STR    C1353747   2.598   8.817   1.882
    1STR    C1453748   2.417   8.494   0.496
    1STR    C1553749   2.278   8.481   0.519
    1STR    C1653750   2.188   8.583   0.480
    1STR    C1753751   2.043   8.571   0.520
    1STR    H1B53752   2.072   8.817   0.445
    1STR    H1C53753   2.418   8.798   0.351
    1STR    H1D53754   2.619   8.735   0.376
    1STR    H1E53755   2.766   8.815   0.711
    1STR    H1F53756   3.011   8.796   0.702
    1STR    H1G53757   2.935   8.647   0.658
    1STR    H1H53758   3.003   8.750   0.534
    1STR    H1I53759   2.829   8.981   0.470
    1STR    H1J53760   2.896   9.025   0.628
    1STR    H1K53761   2.794   9.228   0.552
    1STR    H1M53762   2.583   9.083   0.399
    1STR    H1N53763   2.700   9.202   0.342
    1STR    H1O53764   2.556   9.259   0.407
    1STR    H1P53765   2.521   9.272   0.633
    1STR    H1Q53766   2.646   9.264   0.747
    1STR   C01053767   2.668   0.187   0.726
    1STR   H01153768   2.708   0.136   0.813
    1STR   C01253769   2.753   0.311   0.712
    1STR   H01353770   2.726   0.365   0.622
    1STR   H01453771   2.858   0.282   0.713
    1STR   H01553772   2.742   0.379   0.796
    1STR   C01653773   2.528   0.231   0.755
    1STR   H01753774   2.526   0.330   0.801
    1STR   H01853775   2.475   0.241   0.661
    1STR   O01953776   2.471   0.140   0.846
    1STR   C02053777   2.330   0.137   0.842
    1STR   H02153778   2.294   0.090   0.932
    1STR   C02253779   2.266   0.276   0.822
    1STR   H02353780   2.255   0.293   0.718
    1STR   H02453781   2.323   0.361   0.859
    1STR   H02553782   2.168   0.283   0.866
    1STR   C02653783   2.297   0.043   0.728
    1STR   H02753784   2.361   0.063   0.645
    1STR   H02853785   2.309   9.258   0.752
    1STR   O02953786   2.173   0.078   0.677
    1STR   C03053787   2.070   0.020   0.746
    1STR   H03153788   2.104   0.008   0.847
    1STR   C03253789   1.967   0.129   0.750
    1STR   H03353790   1.972   0.184   0.659
    1STR   H03453791   1.984   0.201   0.829
    1STR   H03553792   1.866   0.092   0.764
    1STR   C03653793   2.031   9.206   0.680
    1STR   H03753794   1.939   9.172   0.725
    1STR   H03853795   2.009   9.221   0.575
    1STR   O03953796   2.132   9.107   0.698
    1STR   C04053797   2.092   8.971   0.722
    1STR   H04153798   2.070   8.955   0.825
    1STR   C04253799   1.966   8.926   0.646
    1STR   H04353800   1.975   8.940   0.539
    1STR   H04453801   1.876   8.976   0.679
    1STR   H04553802   1.947   8.820   0.660
    1STR   C04653803   2.206   8.874   0.688
    1STR   H04753804   2.163   8.776   0.675
    1STR   H04853805   2.247   8.906   0.594
    1STR   O04953806   2.317   8.856   0.775
    1STR   C05053807   2.417   8.778   0.710
    1STR   H05153808   2.366   8.721   0.636
    1STR   C05253809   2.501   8.887   0.650
    1STR   H05353810   2.576   8.907   0.724
    1STR   H05453811   2.448   8.980   0.632
    1STR   H05553812   2.547   8.862   0.556
    1STR   C05653813   2.497   8.666   0.785
    1STR   H05753814   2.432   8.625   0.859
    1STR   H05853815   2.510   8.582   0.719
    1STR   O05953816   2.627   8.699   0.841
    1STR   C06053817   2.678   8.620   0.949
    1STR   H06153818   2.635   8.662   1.040
    1STR   C06253819   2.638   8.473   0.937
    1STR   H06353820   2.677   8.441   0.840
    1STR   H06453821   2.531   8.453   0.940
    1STR   H06553822   2.684   8.412   1.014
    1STR   C06653823   2.833   8.618   0.967
    1STR   H06753824   2.854   8.613   1.074
    1STR   H06853825   2.874   8.526   0.926
    1STR   O06953826   2.912   8.715   0.901
    1STR   C07053827   3.003   8.788   0.982
    1STR   H07153828   3.026   8.736   1.075
    1STR   C07253829   3.138   8.819   0.915
    1STR   H07353830   3.128   8.897   0.839
    1STR   H07453831   3.181   8.731   0.868
    1STR   H07553832   3.210   8.858   0.987
    1STR   C07653833   2.929   8.915   1.011
    1STR   H07753834   2.842   8.892   1.072
    1STR   H07853835   2.997   8.982   1.064
    1STR   O07953836   2.886   8.979   0.892
    1STR   C08053837   2.819   9.100   0.921
    1STR   H08153838   2.837   9.134   1.018
    1STR   C08253839   2.885   9.213   0.842
    1STR   H08353840   2.888   9.198   0.736
    1STR   H08453841   2.988   9.226   0.875
    1STR   H08553842   2.835   9.307   0.860
    1STR   C08653843   2.667   9.091   0.928
    1STR   H08753844   2.632   9.190   0.959
    1STR   H08853845   2.632   9.072   0.829
    1STR   O08953846   2.611   8.992   1.017
    1STR   C09053847   2.467   8.996   1.037
    1STR   H09153848   2.452   9.039   1.135
    1STR   C09253849   2.397   9.089   0.933
    1STR   H09353850   2.425   9.067   0.831
    1STR   H09453851   2.419   9.194   0.952
    1STR   H09553852   2.291   9.085   0.930
    1STR   C09653853   2.415   8.848   1.046
    1STR   H09753854   2.461   8.806   0.962
    1STR   H09853855   2.463   8.801   1.131
    1STR   O09953856   2.273   8.817   1.048
    1STR   C10053857   2.212   8.698   0.988
    1STR   H10153858   2.229   8.688   0.882
    1STR   C10253859   2.269   8.570   1.047
    1STR   H10353860   2.228   8.555   1.145
    1STR   H10453861   2.378   8.573   1.054
    1STR   H10553862   2.243   8.483   0.987
    1STR   C10653863   2.057   8.697   1.002
    1STR   H10753864   2.024   8.596   1.029
    1STR   H10853865   2.031   8.760   1.085
    1STR   O10953866   1.978   8.735   0.888
    1STR   C11053867   1.837   8.767   0.908
    1STR   H11153868   1.792   8.760   0.809
    1STR   C11253869   1.767   8.658   0.991
    1STR   H11353870   1.808   8.649   1.091
    1STR   H11453871   1.777   8.561   0.943
    1STR   H11553872   1.661   8.680   1.002
    1STR   C11653873   1.806   8.912   0.957
    1STR   H11753874   1.779   8.980   0.876
    1STR   H11853875   1.728   8.917   1.033
    1STR   O11953876   1.929   8.951   1.008
    1STR   C12053877   1.957   9.068   1.080
    1STR   H12153878   1.903   9.082   1.173
    1STR   C12253879   2.102   9.025   1.098
    1STR   H12353880   2.171   9.101   1.130
    1STR   H12453881   2.141   8.991   1.005
    1STR   H12553882   2.116   8.939   1.159
    1STR   C12653883   1.980   9.192   0.997
    1STR   H12753884   2.070   9.244   1.028
    1STR   H12853885   2.015   9.145   0.909
    1STR   O12953886   1.880   9.283   0.956
    1STR   C13053887   1.852   0.080   1.032
    1STR   H13153888   1.807   0.155   0.967
    1STR   C13253889   1.736   0.018   1.108
    1STR   H13353890   1.776   9.279   1.189
    1STR   H13453891   1.678   9.269   1.046
    1STR   H13553892   1.662   0.089   1.143
    1STR   C13653893   1.968   0.152   1.114
    1STR   H13753894   1.938   0.165   1.216
    1STR   H13853895   2.055   0.091   1.120
    1STR   O13953896   2.024   0.277   1.069
    1STR   C14053897   2.132   0.325   1.154
    1STR   H14153898   2.104   0.305   1.257
    1STR   C14253899   2.269   0.259   1.132
    1STR   H14353900   2.322   0.295   1.047
    1STR   H14453901   2.265   0.150   1.131
    1STR   H14553902   2.345   0.290   1.202
    1STR   C14653903   2.151   0.478   1.144
    1STR   H14753904   2.177   0.505   1.042
    1STR   H14853905   2.058   0.529   1.170
    1STR   O14953906   2.256   0.512   1.235
    1STR   C15053907   2.295   0.649   1.238
    1STR   H15153908   2.261   0.702   1.149
    1STR   C15253909   2.233   0.709   1.364
    1STR   H15353910   2.266   0.655   1.454
    1STR   H15453911   2.124   0.704   1.361
    1STR   H15553912   2.262   0.813   1.376
    1STR   C15653913   2.449   0.654   1.243
    1STR   H15753914   2.482   0.755   1.266
    1STR   H15853915   2.485   0.589   1.323
    1STR   O15953916   2.501   0.615   1.117
    1STR   C16053917   2.641   0.588   1.110
    1STR   H16153918   2.657   0.565   1.005
    1STR   C16253919   2.728   0.709   1.146
    1STR   H16353920   2.721   0.734   1.252
    1STR   H16453921   2.700   0.796   1.087
    1STR   H16553922   2.833   0.686   1.125
    1STR   C16653923   2.679   0.463   1.190
    1STR   H16753924   2.710   0.484   1.292
    1STR   H16853925   2.590   0.402   1.199
    1STR   O16953926   2.785   0.399   1.120
    1STR   C17053927   2.783   0.257   1.126
    1STR   H17153928   2.794   0.223   1.228
    1STR   C17253929   2.656   0.205   1.059
    1STR   H17353930   2.660   0.098   1.036
    1STR   H17453931   2.647   0.263   0.969
    1STR   H17553932   2.560   0.221   1.106
    1STR   C17653933   2.900   0.200   1.046
    1STR   H17753934   2.878   0.095   1.031
    1STR   H17853935   2.907   0.245   0.947
    1STR   O17953936   3.024   0.213   1.112
    1STR   C18053937   3.100   0.093   1.106
    1STR   H18153938   3.089   0.043   1.010
    1STR   C18253939   3.245   0.134   1.113
    1STR   H18353940   3.261   0.204   1.194
    1STR   H18453941   3.276   0.184   1.021
    1STR   H18553942   3.307   0.046   1.127
    1STR   C18653943   3.054   9.319   1.219
    1STR   H18753944   3.138   9.263   1.260
    1STR   H18853945   3.006   0.057   1.298
    1STR   O18953946   2.961   9.227   1.167
    1STR   C19053947   2.899   9.131   1.253
    1STR   H19153948   2.846   9.057   1.197
    1STR   C19253949   3.001   9.045   1.329
    1STR   H19353950   3.047   9.097   1.411
    1STR   H19453951   3.082   9.013   1.264
    1STR   H19553952   2.954   8.955   1.368
    1STR   C19653953   2.777   9.185   1.324
    1STR   H19753954   2.735   9.100   1.377
    1STR   H19853955   2.812   9.258   1.397
    1STR   O19953956   2.671   9.233   1.240
    1STR   C20053957   2.563   9.282   1.321
    1STR   H20153958   2.558   9.218   1.407
    1STR   C20253959   2.607   0.102   1.368
    1STR   H20353960   2.711   0.113   1.395
    1STR   H20453961   2.554   0.131   1.455
    1STR   H20553962   2.583   0.179   1.298
    1STR   C20653963   2.419   9.282   1.259
    1STR   H20753964   2.368   0.047   1.300
    1STR   H20853965   2.427   9.302   1.152
    1STR   O20953966   2.332   9.167   1.276
    1STR   C21053967   2.212   9.169   1.360
    1STR   H21153968   2.240   9.204   1.455
    1STR   C21253969   2.111   9.277   1.329
    1STR   H21353970   2.043   9.246   1.252
    1STR   H21453971   2.157   0.050   1.302
    1STR   H21553972   2.055   9.300   1.419
    1STR   C21653973   2.158   9.028   1.403
    1STR   H21753974   2.236   8.957   1.378
    1STR   H21853975   2.151   9.026   1.512
    1STR   O21953976   2.032   8.982   1.354
    1STR   C22053977   2.002   8.841   1.365
    1STR   H22153978   1.977   8.830   1.467
    1STR   C22253979   1.865   8.811   1.306
    1STR   H22353980   1.863   8.831   1.200
    1STR   H22453981   1.788   8.875   1.349
    1STR   H22553982   1.836   8.708   1.324
    1STR   C22653983   2.110   8.733   1.326
    1STR   H22753984   2.065   8.655   1.266
    1STR   H22853985   2.192   8.776   1.269
    1STR   O22953986   2.159   8.665   1.440
    1STR   C23053987   2.270   8.577   1.437
    1STR   H23153988   2.299   8.572   1.542
    1STR   C23253989   2.221   8.436   1.401
    1STR   H23353990   2.175   8.431   1.302
    1STR   H23453991   2.145   8.404   1.472
    1STR   H23553992   2.303   8.364   1.404
    1STR   C23653993   2.396   8.625   1.363
    1STR   H23753994   2.483   8.570   1.398
    1STR   H23853995   2.395   8.597   1.259
    1STR   O23953996   2.418   8.766   1.363
    1STR   C24053997   2.448   8.828   1.486
    1STR   H24153998   2.359   8.833   1.549
    1STR   C24253999   2.553   8.747   1.555
    1STR   H24354000   2.640   8.725   1.492
    1STR   H24454001   2.515   8.656   1.601
    1STR   H24554002   2.586   8.811   1.633
    1STR   C24654003   2.503   8.971   1.464
    1STR   H24754004   2.600   8.988   1.510
    1STR   H24854005   2.520   8.984   1.357
    1STR   O24954006   2.411   9.073   1.503
    1STR   C25054007   2.405   9.146   1.625
    1STR   H25154008   2.301   9.140   1.654
    1STR   C25254009   2.481   9.074   1.729
    1STR   H25354010   2.587   9.079   1.714
    1STR   H25454011   2.452   8.970   1.732
    1STR   H25554012   2.457   9.120   1.823
    1STR   C25654013   2.432   9.299   1.619
    1STR   H25754014   2.437   0.020   1.717
    1STR   H25854015   2.535   9.311   1.590
    1STR   O25954016   2.334   0.052   1.543
    1STR   C26054017   2.296   0.188   1.569
    1STR   H26154018   2.350   0.225   1.653
    1STR   C26254019   2.325   0.270   1.446
    1STR   H26354020   2.270   0.218   1.371
    1STR   H26454021   2.427   0.281   1.417
    1STR   H26554022   2.283   0.370   1.448
    1STR   C26654023   2.144   0.208   1.588
    1STR   H26754024   2.088   0.192   1.495
    1STR   H26854025   2.098   0.145   1.660
    1STR   O26954026   2.126   0.338   1.640
    1STR   C27054027   1.999   0.393   1.622
    1STR   H27154028   1.921   0.318   1.635
    1STR   C27254029   1.985   0.499   1.730
    1STR   H27354030   2.064   0.572   1.719
    1STR   H27454031   1.997   0.452   1.827
    1STR   H27554032   1.890   0.551   1.727
    1STR   C27654033   1.992   0.456   1.483
    1STR   H27754034   1.942   0.552   1.485
    1STR   H27854035   2.093   0.476   1.447
    1STR   O27954036   1.930   0.364   1.396
    1STR   C28054037   1.789   0.373   1.399
    1STR   H28154038   1.753   0.393   1.499
    1STR   C28254039   1.750   0.486   1.301
    1STR   H28354040   1.795   0.468   1.203
    1STR   H28454041   1.784   0.583   1.335
    1STR   H28554042   1.642   0.490   1.289
    1STR   C28654043   1.728   0.240   1.353
    1STR   H28754044   1.623   0.242   1.380
    1STR   H28854045   1.731   0.246   1.246
    1STR   O28954046   1.799   0.121   1.392
    1STR   C29054047   1.728   0.009   1.446
    1STR   H29154048   1.718   0.040   1.548
    1STR   C29254049   1.591   9.294   1.382
    1STR   H29354050   1.601   9.225   1.299
    1STR   H29454051   1.532   0.058   1.346
    1STR   H29554052   1.527   9.242   1.452
    1STR   C29654053   1.819   9.204   1.449
    1STR   H29754054   1.872   9.196   1.356
    1STR   H29854055   1.894   9.208   1.528
    1STR   O29954056   1.747   9.082   1.451
    1STR   C30054057   1.715   9.036   1.580
    1STR   H30154058   1.707   9.120   1.645
    1STR   C30254059   1.578   8.967   1.569
    1STR   H30354060   1.583   8.883   1.499
    1STR   H30454061   1.502   9.035   1.532
    1STR   H30554062   1.544   8.930   1.665
    1STR   C30654063   1.819   8.944   1.643
    1STR   H30754064   1.782   8.940   1.745
    1STR   H30854065   1.813   8.845   1.600
    1STR   O30954066   1.954   8.988   1.655
    1STR    H1R54067   1.967   8.880   1.829
    1STR    H1S54068   2.150   8.721   1.725
    1STR    H1T54069   2.140   8.820   1.591
    1STR    H1U54070   2.002   8.714   1.632
    1STR    H1V54071   2.162   9.058   1.831
    1STR    H1W54072   2.236   8.952   1.722
    1STR    H1X54073   2.295   8.678   1.913
    1STR    H1Y54074   2.465   8.504   1.873
    1STR    H1Z54075   2.693   8.457   1.785
    1STR    H2054076   2.966   8.703   1.751
    1STR    H2154077   2.930   8.530   1.757
    1STR    H2254078   2.881   8.625   1.617
    1STR    H2354079   2.780   8.986   1.845
    1STR    H2754080   2.575   8.920   1.905
    1STR    H2854081   2.488   8.421   0.531
    1STR    H2954082   2.241   8.395   0.573
    1STR    H2A54083   2.029   8.597   0.624
    1STR    H2B54084   2.012   8.467   0.507
    1STR    H2C54085   1.978   8.633   0.459
    1STR   BCK154086   2.544   9.255   2.787
    1STR    O0354087   2.617   9.263   2.692
    1STR    N0454088   2.456   0.024   2.825
    1STR    C0554089   2.441   0.135   2.751
    1STR    C0654090   2.316   0.167   2.708
    1STR    C0754091   2.301   0.274   2.621
    1STR    N0854092   2.181   0.340   2.625
    1STR    C0954093   2.132   0.373   2.746
    1STR    O0A54094   2.203   0.386   2.845
    1STR    O0B54095   1.999   0.391   2.747
    1STR    C0C54096   1.940   0.427   2.872
    1STR    C0D54097   1.823   0.524   2.854
    1STR    C0E54098   1.908   0.301   2.954
    1STR    O0F54099   2.016   0.262   3.029
    1STR    C0G54100   2.070   0.136   3.003
    1STR    C0H54101   2.209   0.149   3.058
    1STR    C0I54102   1.992   0.020   3.066
    1STR    O0J54103   1.882   9.272   3.002
    1STR    C0K54104   3.297   0.762   4.023
    1STR    C0M54105   3.240   0.897   4.070
    1STR    C0N54106   3.345   0.675   4.141
    1STR    O0O54107   3.232   0.655   4.222
    1STR    C0P54108   3.173   0.536   4.230
    1STR    O0Q54109   3.223   0.428   4.204
    1STR    N0R54110   3.052   0.558   4.276
    1STR    C0S54111   2.951   0.481   4.330
    1STR    C0T54112   2.916   0.531   4.454
    1STR    C0U54113   2.802   0.491   4.520
    1STR    C0V54114   2.720   0.397   4.461
    1STR    C0W54115   2.597   0.359   4.535
    1STR    C0X54116   2.755   0.336   4.340
    1STR    N0Y54117   2.656   0.251   4.296
    1STR   BCK254118   2.632   0.174   4.194
    1STR    O1054119   2.516   0.152   4.163
    1STR    C1354120   2.871   0.379   4.271
    1STR    C1454121   2.413   0.316   2.546
    1STR    C1554122   2.540   0.287   2.594
    1STR    C1654123   2.551   0.209   2.710
    1STR    C1754124   2.664   0.216   2.808
    1STR    H1B54125   2.401   0.006   2.906
    1STR    H1C54126   2.234   0.117   2.754
    1STR    H1D54127   2.120   0.330   2.544
    1STR    H1E54128   2.011   0.484   2.930
    1STR    H1F54129   1.741   0.483   2.798
    1STR    H1G54130   1.783   0.555   2.951
    1STR    H1H54131   1.855   0.615   2.803
    1STR    H1I54132   1.880   0.214   2.897
    1STR    H1J54133   1.828   0.324   3.022
    1STR    H1K54134   2.088   0.125   2.899
    1STR    H1M54135   2.215   0.129   3.164
    1STR    H1N54136   2.247   0.249   3.040
    1STR    H1O54137   2.280   0.089   3.004
    1STR    H1P54138   2.067   9.267   3.092
    1STR    H1Q54139   1.953   0.060   3.155
    1STR   C01054140   1.858   9.138   3.049
    1STR   H01154141   1.858   9.138   3.156
    1STR   C01254142   1.713   9.100   3.021
    1STR   H01354143   1.701   9.053   2.925
    1STR   H01454144   1.647   9.187   3.029
    1STR   H01554145   1.678   9.026   3.094
    1STR   C01654146   1.957   9.025   3.010
    1STR   H01754147   1.916   8.930   3.047
    1STR   H01854148   1.959   9.012   2.902
    1STR   O01954149   2.087   9.032   3.069
    1STR   C02054150   2.198   9.022   2.980
    1STR   H02154151   2.168   8.967   2.894
    1STR   C02254152   2.243   9.160   2.937
    1STR   H02354153   2.294   9.154   2.843
    1STR   H02454154   2.308   9.203   3.011
    1STR   H02554155   2.171   9.234   2.922
    1STR   C02654156   2.329   8.957   3.027
    1STR   H02754157   2.380   8.930   2.935
    1STR   H02854158   2.388   9.030   3.079
    1STR   O02954159   2.338   8.846   3.111
    1STR   C03054160   2.475   8.803   3.126
    1STR   H03154161   2.462   8.730   3.204
    1STR   C03254162   2.530   8.727   3.007
    1STR   H03354163   2.553   8.800   2.932
    1STR   H03454164   2.461   8.658   2.963
    1STR   H03554165   2.622   8.674   3.032
    1STR   C03654166   2.584   8.906   3.172
    1STR   H03754167   2.544   8.985   3.234
    1STR   H03854168   2.657   8.850   3.227
    1STR   O03954169   2.659   8.973   3.072
    1STR   C04054170   2.767   9.052   3.121
    1STR   H04154171   2.768   9.048   3.228
    1STR   C04254172   2.888   8.973   3.074
    1STR   H04354173   2.897   8.983   2.966
    1STR   H04454174   2.879   8.867   3.099
    1STR   H04554175   2.979   9.011   3.119
    1STR   C04654176   2.784   9.202   3.080
    1STR   H04754177   2.885   9.224   3.112
    1STR   H04854178   2.784   9.218   2.972
    1STR   O04954179   2.720   9.309   3.151
    1STR   C05054180   2.605   0.051   3.096
    1STR   H05154181   2.614   0.038   2.992
    1STR   C05254182   2.499   9.291   3.164
    1STR   H05354183   2.527   9.290   3.269
    1STR   H05454184   2.502   9.189   3.133
    1STR   H05554185   2.401   0.014   3.156
    1STR   C05654186   2.591   0.202   3.126
    1STR   H05754187   2.580   0.195   3.229
    1STR   H05854188   2.685   0.252   3.102
    1STR   O05954189   2.478   0.284   3.085
    1STR   C06054190   2.453   0.404   3.166
    1STR   H06154191   2.436   0.366   3.266
    1STR   C06254192   2.567   0.509   3.170
    1STR   H06354193   2.550   0.593   3.106
    1STR   H06454194   2.666   0.471   3.143
    1STR   H06554195   2.574   0.560   3.265
    1STR   C06654196   2.322   0.482   3.138
    1STR   H06754197   2.331   0.580   3.185
    1STR   H06854198   2.310   0.501   3.032
    1STR   O06954199   2.207   0.417   3.190
    1STR   C07054200   2.098   0.494   3.241
    1STR   H07154201   2.117   0.519   3.342
    1STR   C07254202   2.073   0.625   3.169
    1STR   H07354203   2.091   0.613   3.063
    1STR   H07454204   2.144   0.699   3.205
    1STR   H07554205   1.973   0.664   3.186
    1STR   C07654206   1.974   0.407   3.252
    1STR   H07754207   1.907   0.434   3.172
    1STR   H07854208   2.009   0.304   3.245
    1STR   O07954209   1.906   0.414   3.375
    1STR   C08054210   1.788   0.334   3.380
    1STR   H08154211   1.765   0.329   3.486
    1STR   C08254212   1.674   0.415   3.316
    1STR   H08354213   1.686   0.426   3.208
    1STR   H08454214   1.670   0.515   3.359
    1STR   H08554215   1.577   0.368   3.334
    1STR   C08654216   1.795   0.189   3.324
    1STR   H08754217   1.703   0.143   3.359
    1STR   H08854218   1.788   0.190   3.216
    1STR   O08954219   1.913   0.113   3.362
    1STR   C09054220   1.912   9.288   3.380
    1STR   H09154221   1.929   9.276   3.483
    1STR   C09254222   1.771   9.228   3.358
    1STR   H09354223   1.726   9.260   3.264
    1STR   H09454224   1.703   9.259   3.436
    1STR   H09554225   1.768   9.120   3.358
    1STR   C09654226   2.045   9.213   3.335
    1STR   H09754227   2.026   9.151   3.251
    1STR   H09854228   2.116   9.289   3.305
    1STR   O09954229   2.113   9.115   3.417
    1STR   C10054230   2.235   9.059   3.360
    1STR   H10154231   2.228   9.050   3.252
    1STR   C10254232   2.340   9.161   3.392
    1STR   H10354233   2.344   9.171   3.498
    1STR   H10454234   2.320   9.258   3.349
    1STR   H10554235   2.439   9.128   3.362
    1STR   C10654236   2.283   8.922   3.416
    1STR   H10754237   2.265   8.930   3.520
    1STR   H10854238   2.223   8.839   3.378
    1STR   O10954239   2.424   8.897   3.395
    1STR   C11054240   2.503   8.809   3.477
    1STR   H11154241   2.473   8.823   3.580
    1STR   C11254242   2.486   8.660   3.443
    1STR   H11354243   2.546   8.629   3.359
    1STR   H11454244   2.381   8.636   3.422
    1STR   H11554245   2.519   8.599   3.527
    1STR   C11654246   2.655   8.843   3.478
    1STR   H11754247   2.693   8.823   3.577
    1STR   H11854248   2.712   8.776   3.415
    1STR   O11954249   2.683   8.977   3.438
    1STR   C12054250   2.810   9.031   3.474
    1STR   H12154251   2.812   9.036   3.580
    1STR   C12254252   2.933   8.951   3.431
    1STR   H12354253   2.937   8.936   3.324
    1STR   H12454254   2.936   8.853   3.479
    1STR   H12554255   3.024   9.003   3.459
    1STR   C12654256   2.811   9.178   3.435
    1STR   H12754257   2.726   9.198   3.370
    1STR   H12854258   2.788   9.234   3.525
    1STR   O12954259   2.931   9.221   3.371
    1STR   C13054260   2.960   0.041   3.381
    1STR   H13154261   2.993   0.059   3.479
    1STR   C13254262   3.087   0.072   3.302
    1STR   H13354263   3.079   0.030   3.203
    1STR   H13454264   3.174   0.027   3.348
    1STR   H13554265   3.104   0.179   3.292
    1STR   C13654266   2.847   0.142   3.355
    1STR   H13754267   2.886   0.235   3.395
    1STR   H13854268   2.838   0.160   3.248
    1STR   O13954269   2.719   0.105   3.413
    1STR   C14054270   2.622   0.202   3.454
    1STR   H14154271   2.627   0.211   3.559
    1STR   C14254272   2.663   0.339   3.396
    1STR   H14354273   2.584   0.408   3.399
    1STR   H14454274   2.704   0.338   3.296
    1STR   H14554275   2.746   0.386   3.445
    1STR   C14654276   2.475   0.148   3.453
    1STR   H14754277   2.424   0.165   3.358
    1STR   H14854278   2.483   0.041   3.461
    1STR   O14954279   2.396   0.184   3.569
    1STR   C15054280   2.252   0.197   3.564
    1STR   H15154281   2.228   0.260   3.649
    1STR   C15254282   2.217   0.276   3.440
    1STR   H15354283   2.219   0.216   3.351
    1STR   H15454284   2.282   0.361   3.426
    1STR   H15554285   2.115   0.312   3.447
    1STR   C15654286   2.153   0.077   3.575
    1STR   H15754287   2.070   0.110   3.517
    1STR   H15854288   2.190   9.309   3.527
    1STR   O15954289   2.092   0.040   3.699
    1STR   C16054290   1.946   0.027   3.709
    1STR   H16154291   1.935   0.049   3.813
    1STR   C16254292   1.863   0.146   3.663
    1STR   H16354293   1.820   0.129   3.566
    1STR   H16454294   1.918   0.240   3.662
    1STR   H16554295   1.774   0.158   3.725
    1STR   C16654296   1.870   9.209   3.697
    1STR   H16754297   1.830   9.182   3.793
    1STR   H16854298   1.779   9.228   3.641
    1STR   O16954299   1.939   9.094   3.642
    1STR   C17054300   1.853   8.986   3.595
    1STR   H17154301   1.757   9.028   3.566
    1STR   C17254302   1.912   8.920   3.469
    1STR   H17354303   2.012   8.883   3.489
    1STR   H17454304   1.920   8.984   3.382
    1STR   H17554305   1.851   8.834   3.437
    1STR   C17654306   1.825   8.875   3.698
    1STR   H17754307   1.843   8.909   3.798
    1STR   H17854308   1.719   8.849   3.692
    1STR   O17954309   1.904   8.760   3.670
    1STR   C18054310   1.893   8.644   3.751
    1STR   H18154311   1.921   8.665   3.853
    1STR   C18254312   1.750   8.588   3.750
    1STR   H18354313   1.714   8.575   3.648
    1STR   H18454314   1.681   8.654   3.803
    1STR   H18554315   1.747   8.491   3.800
    1STR   C18654316   1.994   8.544   3.691
    1STR   H18754317   1.996   8.452   3.749
    1STR   H18854318   1.962   8.518   3.590
    1STR   O18954319   2.122   8.605   3.678
    1STR   C19054320   2.224   8.558   3.766
    1STR   H19154321   2.190   8.554   3.869
    1STR   C19254322   2.271   8.421   3.715
    1STR   H19354323   2.354   8.384   3.774
    1STR   H19454324   2.305   8.428   3.611
    1STR   H19554325   2.192   8.346   3.718
    1STR   C19654326   2.343   8.655   3.755
    1STR   H19754327   2.436   8.609   3.787
    1STR   H19854328   2.352   8.677   3.650
    1STR   O19954329   2.334   8.777   3.828
    1STR   C20054330   2.248   8.873   3.769
    1STR   H20154331   2.202   8.838   3.677
    1STR   C20254332   2.133   8.883   3.861
    1STR   H20354333   2.058   8.951   3.821
    1STR   H20454334   2.170   8.921   3.955
    1STR   H20554335   2.092   8.785   3.876
    1STR   C20654336   2.314   9.011   3.760
    1STR   H20754337   2.240   9.085   3.729
    1STR   H20854338   2.351   9.036   3.858
    1STR   O20954339   2.422   9.015   3.672
    1STR   C21054340   2.514   9.121   3.681
    1STR   H21154341   2.557   9.130   3.581
    1STR   C21254342   2.455   9.257   3.717
    1STR   H21354343   2.449   9.272   3.823
    1STR   H21454344   2.357   9.276   3.677
    1STR   H21554345   2.521   0.014   3.680
    1STR   C21654346   2.626   9.089   3.777
    1STR   H21754347   2.693   9.172   3.768
    1STR   H21854348   2.587   9.082   3.877
    1STR   O21954349   2.692   8.968   3.751
    1STR   C22054350   2.806   8.942   3.831
    1STR   H22154351   2.775   8.950   3.935
    1STR   C22254352   2.834   8.795   3.798
    1STR   H22354353   2.881   8.784   3.701
    1STR   H22454354   2.741   8.738   3.795
    1STR   H22554355   2.897   8.749   3.872
    1STR   C22654356   2.932   9.029   3.800
    1STR   H22754357   3.010   9.000   3.868
    1STR   H22854358   2.972   9.003   3.703
    1STR   O22954359   2.912   9.172   3.808
    1STR   C23054360   3.023   9.262   3.790
    1STR   H23154361   3.061   9.293   3.885
    1STR   C23254362   3.136   9.201   3.705
    1STR   H23354363   3.102   9.182   3.603
    1STR   H23454364   3.173   9.108   3.745
    1STR   H23554365   3.221   9.269   3.700
    1STR   C23654366   2.975   0.070   3.720
    1STR   H23754367   3.058   0.112   3.664
    1STR   H23854368   2.902   0.027   3.654
    1STR   O23954369   2.920   0.184   3.788
    1STR   C24054370   2.811   0.240   3.713
    1STR   H24154371   2.818   0.202   3.612
    1STR   C24254372   2.695   0.181   3.789
    1STR   H24354373   2.703   0.073   3.786
    1STR   H24454374   2.596   0.208   3.755
    1STR   H24554375   2.700   0.217   3.891
    1STR   C24654376   2.793   0.391   3.685
    1STR   H24754377   2.812   0.448   3.769
    1STR   H24854378   2.865   0.428   3.612
    1STR   O24954379   2.656   0.421   3.652
    1STR   C25054380   2.602   0.553   3.641
    1STR   H25154381   2.581   0.594   3.740
    1STR   C25254382   2.698   0.651   3.573
    1STR   H25354383   2.720   0.622   3.471
    1STR   H25454384   2.792   0.660   3.628
    1STR   H25554385   2.653   0.751   3.571
    1STR   C25654386   2.467   0.542   3.563
    1STR   H25754387   2.472   0.603   3.473
    1STR   H25854388   2.452   0.438   3.536
    1STR   O25954389   2.346   0.560   3.632
    1STR   C26054390   2.235   0.603   3.554
    1STR   H26154391   2.260   0.578   3.453
    1STR   C26254392   2.100   0.540   3.598
    1STR   H26354393   2.108   0.434   3.617
    1STR   H26454394   2.022   0.557   3.525
    1STR   H26554395   2.059   0.581   3.688
    1STR   C26654396   2.226   0.755   3.562
    1STR   H26754397   2.286   0.797   3.481
    1STR   H26854398   2.124   0.791   3.547
    1STR   O26954399   2.283   0.802   3.682
    1STR   C27054400   2.221   0.768   3.805
    1STR   H27154401   2.277   0.842   3.859
    1STR   C27254402   2.076   0.817   3.819
    1STR   H27354403   2.005   0.770   3.752
    1STR   H27454404   2.071   0.924   3.801
    1STR   H27554405   2.041   0.800   3.921
    1STR   C27654406   2.254   0.629   3.872
    1STR   H27754407   2.209   0.621   3.971
    1STR   H27854408   2.207   0.547   3.822
    1STR   O27954409   2.394   0.601   3.878
    1STR   C28054410   2.432   0.472   3.927
    1STR   H28154411   2.361   0.459   4.005
    1STR   C28254412   2.388   0.351   3.844
    1STR   H28354413   2.432   0.352   3.745
    1STR   H28454414   2.281   0.346   3.834
    1STR   H28554415   2.418   0.258   3.892
    1STR   C28654416   2.585   0.456   3.968
    1STR   H28754417   2.593   0.371   4.034
    1STR   H28854418   2.636   0.423   3.881
    1STR   O28954419   2.663   0.563   4.028
    1STR   C29054420   2.788   0.598   3.964
    1STR   H29154421   2.764   0.623   3.862
    1STR   C29254422   2.847   0.726   4.021
    1STR   H29354423   2.863   0.715   4.128
    1STR   H29454424   2.785   0.811   3.998
    1STR   H29554425   2.944   0.748   3.977
    1STR   C29654426   2.905   0.496   3.971
    1STR   H29754427   2.956   0.507   4.064
    1STR   H29854428   2.873   0.392   3.964
    1STR   O29954429   2.998   0.529   3.866
    1STR   C30054430   3.130   0.479   3.880
    1STR   H30154431   3.144   0.433   3.977
    1STR   C30254432   3.162   0.374   3.774
    1STR   H30354433   3.115   0.397   3.678
    1STR   H30454434   3.127   0.277   3.807
    1STR   H30554435   3.269   0.362   3.759
    1STR   C30654436   3.227   0.597   3.866
    1STR   H30754437   3.328   0.560   3.883
    1STR   H30854438   3.222   0.638   3.766
    1STR   O30954439   3.190   0.698   3.958
    1STR    H1R54440   3.379   0.781   3.953
    1STR    H1S54441   3.313   0.956   4.124
    1STR    H1T54442   3.153   0.882   4.135
    1STR    H1U54443   3.205   0.955   3.984
    1STR    H1V54444   3.422   0.725   4.200
    1STR    H1W54445   3.387   0.580   4.107
    1STR    H1X54446   3.033   0.657   4.283
    1STR    H1Y54447   2.975   0.608   4.499
    1STR    H1Z54448   2.777   0.534   4.615
    1STR    H2054449   2.611   0.391   4.637
    1STR    H2154450   2.508   0.405   4.495
    1STR    H2254451   2.582   0.252   4.535
    1STR    H2354452   2.573   0.258   4.354
    1STR    H2754453   2.895   0.337   4.175
    1STR    H2854454   2.407   0.380   2.462
    1STR    H2954455   2.625   0.335   2.551
    1STR    H2A54456   2.615   0.241   2.898
    1STR    H2B54457   2.739   0.293   2.792
    1STR    H2C54458   2.709   0.121   2.831
    1STR   BCK154459   2.191   0.354   5.076
    1STR    O0354460   2.139   0.451   5.127
    1STR    N0454461   2.129   0.239   5.057
    1STR    C0554462   2.037   0.169   5.133
    1STR    C0654463   2.059   0.031   5.125
    1STR    C0754464   2.004   9.263   5.217
    1STR    N0854465   2.064   9.140   5.219
    1STR    C0954466   2.040   9.023   5.274
    1STR    O0A54467   1.941   8.987   5.336
    1STR    O0B54468   2.140   8.947   5.248
    1STR    C0C54469   2.223   8.912   5.353
    1STR    C0D54470   2.201   8.767   5.397
    1STR    C0E54471   2.365   8.973   5.337
    1STR    O0F54472   2.387   9.030   5.210
    1STR    C0G54473   2.523   9.032   5.173
    1STR    C0H54474   2.532   9.009   5.026
    1STR    C0I54475   2.591   9.162   5.193
    1STR    O0J54476   2.615   9.181   5.328
    1STR    C0K54477   1.863   0.823   6.099
    1STR    C0M54478   1.752   0.726   6.056
    1STR    C0N54479   1.859   0.843   6.250
    1STR    O0O54480   1.850   0.721   6.322
    1STR    C0P54481   1.742   0.696   6.396
    1STR    O0Q54482   1.631   0.743   6.375
    1STR    N0R54483   1.760   0.616   6.500
    1STR    C0S54484   1.863   0.529   6.535
    1STR    C0T54485   1.844   0.450   6.649
    1STR    C0U54486   1.924   0.337   6.670
    1STR    C0V54487   2.016   0.301   6.571
    1STR    C0W54488   2.073   0.163   6.566
    1STR    C0X54489   2.065   0.401   6.488
    1STR    N0Y54490   2.204   0.407   6.479
    1STR   BCK254491   2.271   0.419   6.593
    1STR    O1054492   2.217   0.438   6.700
    1STR    C1354493   1.983   0.513   6.463
    1STR    C1454494   1.910   9.310   5.309
    1STR    C1554495   1.875   0.126   5.309
    1STR    C1654496   1.942   0.218   5.228
    1STR    C1754497   1.903   0.362   5.248
    1STR    H1B54498   2.162   0.188   4.974
    1STR    H1C54499   2.133   9.311   5.058
    1STR    H1D54500   2.151   9.131   5.167
    1STR    H1E54501   2.182   8.961   5.437
    1STR    H1F54502   2.095   8.752   5.420
    1STR    H1G54503   2.226   8.697   5.320
    1STR    H1H54504   2.257   8.744   5.486
    1STR    H1I54505   2.441   8.905   5.373
    1STR    H1J54506   2.379   9.056   5.404
    1STR    H1K54507   2.582   8.957   5.225
    1STR    H1M54508   2.514   9.100   4.968
    1STR    H1N54509   2.464   8.935   4.993
    1STR    H1O54510   2.628   8.972   5.000
    1STR    H1P54511   2.686   9.148   5.144
    1STR    H1Q54512   2.539   9.246   5.149
    1STR   C01054513   2.747   9.218   5.359
    1STR   H01154514   2.748   9.258   5.458
    1STR   C01254515   2.835   9.093   5.357
    1STR   H01354516   2.876   9.074   5.258
    1STR   H01454517   2.778   9.005   5.387
    1STR   H01554518   2.916   9.101   5.428
    1STR   C01654519   2.793   0.016   5.279
    1STR   H01754520   2.882   0.054   5.325
    1STR   H01854521   2.822   9.305   5.181
    1STR   O01954522   2.697   0.118   5.257
    1STR   C02054523   2.682   0.225   5.349
    1STR   H02154524   2.595   0.195   5.405
    1STR   C02254525   2.795   0.256   5.448
    1STR   H02354526   2.888   0.289   5.403
    1STR   H02454527   2.815   0.170   5.510
    1STR   H02554528   2.766   0.339   5.511
    1STR   C02654529   2.644   0.345   5.263
    1STR   H02754530   2.682   0.324   5.163
    1STR   H02854531   2.538   0.350   5.251
    1STR   O02954532   2.704   0.468   5.295
    1STR   C03054533   2.638   0.566   5.372
    1STR   H03154534   2.624   0.527   5.473
    1STR   C03254535   2.746   0.675   5.368
    1STR   H03354536   2.781   0.691   5.267
    1STR   H03454537   2.834   0.645   5.426
    1STR   H03554538   2.710   0.772   5.404
    1STR   C03654539   2.505   0.624   5.317
    1STR   H03754540   2.464   0.697   5.387
    1STR   H03854541   2.525   0.683   5.228
    1STR   O03954542   2.408   0.527   5.282
    1STR   C04054543   2.330   0.473   5.387
    1STR   H04154544   2.387   0.476   5.479
    1STR   C04254545   2.217   0.571   5.408
    1STR   H04354546   2.145   0.574   5.327
    1STR   H04454547   2.251   0.672   5.426
    1STR   H04554548   2.168   0.538   5.497
    1STR   C04654549   2.279   0.329   5.352
    1STR   H04754550   2.174   0.333   5.327
    1STR   H04854551   2.334   0.293   5.268
    1STR   O04954552   2.291   0.217   5.437
    1STR   C05054553   2.244   0.091   5.388
    1STR   H05154554   2.162   0.118   5.327
    1STR   C05254555   2.350   0.024   5.303
    1STR   H05354556   2.379   9.250   5.348
    1STR   H05454557   2.441   0.081   5.301
    1STR   H05554558   2.317   0.001   5.202
    1STR   C05654559   2.180   9.320   5.495
    1STR   H05754560   2.199   0.039   5.592
    1STR   H05854561   2.073   0.012   5.487
    1STR   O05954562   2.215   9.180   5.498
    1STR   C06054563   2.161   9.110   5.610
    1STR   H06154564   2.169   9.181   5.686
    1STR   C06254565   2.012   9.081   5.587
    1STR   H06354566   1.996   8.977   5.561
    1STR   H06454567   1.972   9.144   5.511
    1STR   H06554568   1.948   9.102   5.671
    1STR   C06654569   2.238   8.988   5.670
    1STR   H06754570   2.253   9.002   5.777
    1STR   H06854571   2.180   8.896   5.662
    1STR   O06954572   2.362   8.967   5.609
    1STR   C07054573   2.462   8.901   5.683
    1STR   H07154574   2.465   8.941   5.783
    1STR   C07254575   2.438   8.749   5.687
    1STR   H07354576   2.445   8.705   5.587
    1STR   H07454577   2.339   8.726   5.727
    1STR   H07554578   2.511   8.700   5.750
    1STR   C07654579   2.590   8.940   5.608
    1STR   H07754580   2.678   8.925   5.670
    1STR   H07854581   2.603   8.874   5.522
    1STR   O07954582   2.580   9.072   5.554
    1STR   C08054583   2.591   9.182   5.642
    1STR   H08154584   2.528   9.151   5.723
    1STR   C08254585   2.737   9.181   5.694
    1STR   H08354586   2.809   9.148   5.620
    1STR   H08454587   2.751   9.110   5.774
    1STR   H08554588   2.770   9.279   5.730
    1STR   C08654589   2.543   0.005   5.584
    1STR   H08754590   2.624   0.074   5.604
    1STR   H08854591   2.538   0.002   5.478
    1STR   O08954592   2.414   0.067   5.617
    1STR   C09054593   2.393   0.200   5.675
    1STR   H09154594   2.393   0.178   5.778
    1STR   C09254595   2.500   0.301   5.627
    1STR   H09354596   2.489   0.315   5.521
    1STR   H09454597   2.602   0.272   5.635
    1STR   H09554598   2.495   0.398   5.674
    1STR   C09654599   2.256   0.280   5.690
    1STR   H09754600   2.253   0.318   5.792
    1STR   H09854601   2.263   0.365   5.625
    1STR   O09954602   2.122   0.230   5.677
    1STR   C10054603   2.028   0.322   5.619
    1STR   H10154604   2.065   0.340   5.518
    1STR   C10254605   1.892   0.255   5.603
    1STR   H10354606   1.837   0.242   5.695
    1STR   H10454607   1.905   0.155   5.562
    1STR   H10554608   1.829   0.313   5.536
    1STR   C10654609   2.014   0.458   5.692
    1STR   H10754610   1.942   0.454   5.773
    1STR   H10854611   2.109   0.485   5.735
    1STR   O10954612   1.974   0.556   5.597
    1STR   C11054613   1.989   0.694   5.629
    1STR   H11154614   2.006   0.745   5.534
    1STR   C11254615   1.851   0.737   5.679
    1STR   H11354616   1.817   0.667   5.756
    1STR   H11454617   1.779   0.732   5.598
    1STR   H11554618   1.851   0.838   5.720
    1STR   C11654619   2.106   0.737   5.723
    1STR   H11754620   2.102   0.845   5.737
    1STR   H11854621   2.091   0.694   5.822
    1STR   O11954622   2.235   0.707   5.669
    1STR   C12054623   2.346   0.709   5.760
    1STR   H12154624   2.341   0.795   5.826
    1STR   C12254625   2.339   0.579   5.837
    1STR   H12354626   2.343   0.500   5.765
    1STR   H12454627   2.248   0.569   5.895
    1STR   H12554628   2.425   0.566   5.902
    1STR   C12654629   2.479   0.711   5.683
    1STR   H12754630   2.475   0.637   5.605
    1STR   H12854631   2.490   0.808   5.634
    1STR   O12954632   2.593   0.680   5.767
    1STR   C13054633   2.719   0.715   5.709
    1STR   H13154634   2.708   0.706   5.603
    1STR   C13254635   2.746   0.861   5.745
    1STR   H13354636   2.755   0.873   5.853
    1STR   H13454637   2.667   0.927   5.710
    1STR   H13554638   2.839   0.895   5.699
    1STR   C13654639   2.840   0.625   5.747
    1STR   H13754640   2.930   0.664   5.699
    1STR   H13854641   2.857   0.631   5.854
    1STR   O13954642   2.826   0.489   5.704
    1STR   C14054643   2.928   0.394   5.740
    1STR   H14154644   2.981   0.377   5.645
    1STR   C14254645   3.035   0.437   5.841
    1STR   H14354646   2.994   0.455   5.940
    1STR   H14454647   3.090   0.525   5.809
    1STR   H14554648   3.108   0.357   5.854
    1STR   C14654649   2.868   0.256   5.780
    1STR   H14754650   2.789   0.227   5.712
    1STR   H14854651   2.945   0.182   5.762
    1STR   O14954652   2.830   0.236   5.917
    1STR   C15054653   2.705   0.282   5.971
    1STR   H15154654   2.703   0.239   6.069
    1STR   C15254655   2.699   0.435   5.963
    1STR   H15354656   2.679   0.463   5.861
    1STR   H15454657   2.788   0.483   6.002
    1STR   H15554658   2.613   0.482   6.007
    1STR   C15654659   2.580   0.226   5.907
    1STR   H15754660   2.513   0.309   5.888
    1STR   H15854661   2.616   0.189   5.814
    1STR   O15954662   2.497   0.129   5.973
    1STR   C16054663   2.487   0.003   5.904
    1STR   H16154664   2.527   0.020   5.810
    1STR   C16254665   2.608   9.252   5.965
    1STR   H16354666   2.606   9.259   6.072
    1STR   H16454667   2.700   9.305   5.939
    1STR   H16554668   2.620   9.150   5.932
    1STR   C16654669   2.345   9.249   5.865
    1STR   H16754670   2.346   9.230   5.759
    1STR   H16854671   2.341   9.149   5.903
    1STR   O16954672   2.215   9.310   5.890
    1STR   C17054673   2.080   9.246   5.881
    1STR   H17154674   2.039   9.287   5.968
    1STR   C17254675   1.983   0.002   5.789
    1STR   H17354676   2.010   0.000   5.686
    1STR   H17454677   1.982   0.105   5.816
    1STR   H17554678   1.880   9.287   5.794
    1STR   C17654679   2.026   9.106   5.928
    1STR   H17754680   2.048   9.087   6.032
    1STR   H17854681   1.919   9.121   5.929
    1STR   O17954682   2.036   8.990   5.846
    1STR   C18054683   1.938   8.886   5.860
    1STR   H18154684   1.893   8.892   5.959
    1STR   C18254685   1.818   8.894   5.765
    1STR   H18354686   1.846   8.868   5.663
    1STR   H18454687   1.773   8.993   5.764
    1STR   H18554688   1.741   8.823   5.795
    1STR   C18654689   2.011   8.752   5.845
    1STR   H18754690   1.949   8.669   5.878
    1STR   H18854691   2.034   8.734   5.740
    1STR   O18954692   2.136   8.752   5.914
    1STR   C19054693   2.123   8.774   6.053
    1STR   H19154694   2.046   8.845   6.078
    1STR   C19254695   2.090   8.643   6.123
    1STR   H19354696   2.170   8.570   6.115
    1STR   H19454697   1.999   8.597   6.085
    1STR   H19554698   2.071   8.665   6.227
    1STR   C19654699   2.249   8.844   6.101
    1STR   H19754700   2.259   8.829   6.208
    1STR   H19854701   2.334   8.798   6.052
    1STR   O19954702   2.241   8.983   6.073
    1STR   C20054703   2.335   9.065   6.140
    1STR   H20154704   2.333   9.035   6.243
    1STR   C20254705   2.472   9.016   6.090
    1STR   H20354706   2.477   9.012   5.982
    1STR   H20454707   2.491   8.915   6.121
    1STR   H20554708   2.558   9.068   6.130
    1STR   C20654709   2.308   9.222   6.143
    1STR   H20754710   2.352   9.256   6.232
    1STR   H20854711   2.376   9.283   6.092
    1STR   O20954712   2.173   9.277   6.143
    1STR   C21054713   2.146   0.098   6.172
    1STR   H21154714   2.140   0.112   6.279
    1STR   C21254715   2.250   0.193   6.113
    1STR   H21354716   2.251   0.194   6.005
    1STR   H21454717   2.351   0.173   6.145
    1STR   H21554718   2.226   0.293   6.145
    1STR   C21654719   2.011   0.145   6.116
    1STR   H21754720   2.031   0.168   6.013
    1STR   H21854721   1.940   0.063   6.120
    1STR   O21954722   1.950   0.258   6.176
    1STR   C22054723   1.867   0.341   6.092
    1STR   H22154724   1.781   0.371   6.153
    1STR   C22254725   1.950   0.463   6.062
    1STR   H22354726   2.051   0.436   6.033
    1STR   H22454727   1.949   0.525   6.152
    1STR   H22554728   1.911   0.526   5.982
    1STR   C22654729   1.816   0.293   5.955
    1STR   H22754730   1.768   0.376   5.905
    1STR   H22854731   1.902   0.275   5.893
    1STR   O22954732   1.732   0.179   5.953
    1STR   C23054733   1.593   0.207   5.960
    1STR   H23154734   1.577   0.282   6.039
    1STR   C23254735   1.545   0.265   5.826
    1STR   H23354736   1.578   0.202   5.745
    1STR   H23454737   1.582   0.365   5.806
    1STR   H23554738   1.436   0.271   5.821
    1STR   C23654739   1.511   0.082   6.002
    1STR   H23754740   1.490   0.089   6.109
    1STR   H23854741   1.411   0.088   5.958
    1STR   O23954742   1.564   9.273   5.970
    1STR   C24054743   1.685   9.231   6.034
    1STR   H24154744   1.768   9.260   5.970
    1STR   C24254745   1.707   9.295   6.168
    1STR   H24354746   1.621   9.276   6.230
    1STR   H24454747   1.723   0.083   6.166
    1STR   H24554748   1.795   9.252   6.214
    1STR   C24654749   1.688   9.079   6.058
    1STR   H24754750   1.603   9.052   6.122
    1STR   H24854751   1.674   9.026   5.965
    1STR   O24954752   1.815   9.043   6.117
    1STR   C25054753   1.812   8.963   6.233
    1STR   H25154754   1.734   9.006   6.293
    1STR   C25254755   1.768   8.820   6.198
    1STR   H25354756   1.840   8.770   6.135
    1STR   H25454757   1.672   8.820   6.146
    1STR   H25554758   1.755   8.759   6.287
    1STR   C25654759   1.943   8.965   6.318
    1STR   H25754760   1.918   8.919   6.412
    1STR   H25854761   2.018   8.901   6.273
    1STR   O25954762   2.004   9.090   6.348
    1STR   C26054763   2.102   9.092   6.456
    1STR   H26154764   2.046   9.121   6.544
    1STR   C26254765   2.177   8.960   6.474
    1STR   H26354766   2.116   8.872   6.483
    1STR   H26454767   2.240   8.964   6.562
    1STR   H26554768   2.244   8.940   6.392
    1STR   C26654769   2.207   9.201   6.429
    1STR   H26754770   2.200   9.175   6.330
    1STR   H26854771   2.172   9.300   6.438
    1STR   O26954772   2.345   9.187   6.470
    1STR   C27054773   2.454   9.280   6.443
    1STR   H27154774   2.506   9.287   6.538
    1STR   C27254775   2.552   9.198   6.359
    1STR   H27354776   2.589   9.251   6.273
    1STR   H27454777   2.508   9.104   6.329
    1STR   H27554778   2.638   9.166   6.416
    1STR   C27654779   2.433   0.108   6.389
    1STR   H27754780   2.339   0.115   6.340
    1STR   H27854781   2.413   0.175   6.470
    1STR   O27954782   2.540   0.159   6.304
    1STR   C28054783   2.575   0.301   6.301
    1STR   H28154784   2.551   0.346   6.393
    1STR   C28254785   2.727   0.326   6.292
    1STR   H28354786   2.762   0.379   6.204
    1STR   H28454787   2.784   0.234   6.297
    1STR   H28554788   2.760   0.395   6.370
    1STR   C28654789   2.501   0.394   6.208
    1STR   H28754790   2.566   0.481   6.198
    1STR   H28854791   2.483   0.346   6.113
    1STR   O28954792   2.386   0.452   6.261
    1STR   C29054793   2.326   0.538   6.166
    1STR   H29154794   2.314   0.483   6.073
    1STR   C29254795   2.190   0.555   6.222
    1STR   H29354796   2.139   0.460   6.235
    1STR   H29454797   2.129   0.621   6.162
    1STR   H29554798   2.199   0.599   6.319
    1STR   C29654799   2.388   0.679   6.142
    1STR   H29754800   2.412   0.732   6.234
    1STR   H29854801   2.483   0.670   6.089
    1STR   O29954802   2.297   0.754   6.061
    1STR   C30054803   2.227   0.861   6.124
    1STR   H30154804   2.206   0.837   6.228
    1STR   C30254805   2.318   0.983   6.117
    1STR   H30354806   2.344   1.006   6.013
    1STR   H30454807   2.411   0.968   6.172
    1STR   H30554808   2.268   1.070   6.159
    1STR   C30654809   2.091   0.888   6.053
    1STR   H30754810   2.051   0.980   6.097
    1STR   H30854811   2.109   0.912   5.949
    1STR   O30954812   1.995   0.782   6.060
    1STR    H1R54813   1.841   0.918   6.049
    1STR    H1S54814   1.654   0.768   6.077
    1STR    H1T54815   1.756   0.632   6.111
    1STR    H1U54816   1.756   0.703   5.950
    1STR    H1V54817   1.776   0.910   6.277
    1STR    H1W54818   1.951   0.890   6.283
    1STR    H1X54819   1.678   0.614   6.557
    1STR    H1Y54820   1.766   0.472   6.718
    1STR    H1Z54821   1.914   0.274   6.756
    1STR    H2054822   2.052   0.107   6.656
    1STR    H2154823   2.028   0.114   6.481
    1STR    H2254824   2.180   0.166   6.545
    1STR    H2354825   2.254   0.407   6.390
    1STR    H2754826   2.013   0.588   6.394
    1STR    H2854827   1.864   9.246   5.382
    1STR    H2954828   1.798   0.161   5.375
    1STR    H2A54829   1.970   0.412   5.318
    1STR    H2B54830   1.802   0.372   5.286
    1STR    H2C54831   1.907   0.412   5.154
    1STR   BCK154832   2.483   9.085   7.467
    1STR    O0354833   2.470   8.968   7.486
    1STR    N0454834   2.605   9.140   7.463
    1STR    C0554835   2.735   9.104   7.499
    1STR    C0654836   2.818   9.216   7.503
    1STR    C0754837   2.950   9.215   7.547
    1STR    N0854838   3.013   0.019   7.553
    1STR    C0954839   3.139   0.057   7.556
    1STR    O0A54840   3.231   9.298   7.569
    1STR    O0B54841   3.160   0.191   7.538
    1STR    C0C54842   3.068   0.295   7.569
    1STR    C0D54843   3.151   0.424   7.563
    1STR    C0E54844   2.945   0.308   7.479
    1STR    O0F54845   2.832   0.370   7.540
    1STR    C0G54846   2.706   0.301   7.523
    1STR    C0H54847   2.703   0.182   7.613
    1STR    C0I54848   2.592   0.399   7.550
    1STR    O0J54849   2.453   0.359   7.558
    1STR    C0K54850   2.543   8.854   8.844
    1STR    C0M54851   2.409   8.850   8.769
    1STR    C0N54852   2.562   8.981   8.929
    1STR    O0O54853   2.686   9.052   8.909
    1STR    C0P54854   2.687   9.185   8.889
    1STR    O0Q54855   2.595   9.250   8.840
    1STR    N0R54856   2.798   9.244   8.935
    1STR    C0S54857   2.826   0.061   8.928
    1STR    C0T54858   2.858   0.135   9.043
    1STR    C0U54859   2.904   0.268   9.032
    1STR    C0V54860   2.915   0.331   8.906
    1STR    C0W54861   2.996   0.460   8.889
    1STR    C0X54862   2.867   0.263   8.793
    1STR    N0Y54863   2.864   0.327   8.669
    1STR   BCK254864   2.801   0.438   8.630
    1STR    O1054865   2.817   0.475   8.514
    1STR    C1354866   2.832   0.127   8.804
    1STR    C1454867   3.007   9.091   7.580
    1STR    C1554868   2.928   8.975   7.578
    1STR    C1654869   2.792   8.979   7.540
    1STR    C1754870   2.716   8.849   7.551
    1STR    H1B54871   2.600   9.238   7.433
    1STR    H1C54872   2.779   9.310   7.470
    1STR    H1D54873   2.948   0.095   7.550
    1STR    H1E54874   3.035   0.275   7.669
    1STR    H1F54875   3.195   0.437   7.464
    1STR    H1G54876   3.090   0.511   7.585
    1STR    H1H54877   3.233   0.420   7.635
    1STR    H1I54878   2.915   0.213   7.440
    1STR    H1J54879   2.976   0.368   7.394
    1STR    H1K54880   2.691   0.262   7.424
    1STR    H1M54881   2.691   0.212   7.713
    1STR    H1N54882   2.793   0.125   7.618
    1STR    H1O54883   2.619   0.120   7.587
    1STR    H1P54884   2.625   0.461   7.632
    1STR    H1Q54885   2.596   0.464   7.464
    1STR   C01054886   2.399   0.337   7.689
    1STR   H01154887   2.456   0.251   7.718
    1STR   C01254888   2.419   0.456   7.785
    1STR   H01354889   2.349   0.534   7.762
    1STR   H01454890   2.517   0.502   7.792
    1STR   H01554891   2.397   0.430   7.888
    1STR   C01654892   2.250   0.295   7.709
    1STR   H01754893   2.234   0.289   7.816
    1STR   H01854894   2.181   0.370   7.676
    1STR   O01954895   2.204   0.173   7.654
    1STR   C02054896   2.079   0.121   7.703
    1STR   H02154897   2.069   0.144   7.808
    1STR   C02254898   1.956   0.177   7.633
    1STR   H02354899   1.960   0.158   7.527
    1STR   H02454900   1.949   0.283   7.654
    1STR   H02554901   1.865   0.131   7.672
    1STR   C02654902   2.087   9.290   7.686
    1STR   H02754903   2.118   9.263   7.587
    1STR   H02854904   2.162   9.249   7.752
    1STR   O02954905   1.961   9.228   7.694
    1STR   C03054906   1.926   9.167   7.814
    1STR   H03154907   1.950   9.234   7.896
    1STR   C03254908   1.774   9.151   7.800
    1STR   H03354909   1.746   9.115   7.702
    1STR   H03454910   1.723   9.246   7.814
    1STR   H03554911   1.732   9.076   7.868
    1STR   C03654912   1.999   9.035   7.840
    1STR   H03754913   1.996   9.024   7.946
    1STR   H03854914   1.945   8.952   7.797
    1STR   O03954915   2.136   9.036   7.801
    1STR   C04054916   2.223   8.928   7.835
    1STR   H04154917   2.247   8.938   7.940
    1STR   C04254918   2.161   8.789   7.823
    1STR   H04354919   2.158   8.755   7.720
    1STR   H04454920   2.062   8.780   7.867
    1STR   H04554921   2.223   8.718   7.877
    1STR   C04654922   2.350   8.947   7.745
    1STR   H04754923   2.383   8.852   7.704
    1STR   H04854924   2.317   9.006   7.661
    1STR   O04954925   2.463   9.005   7.814
    1STR   C05054926   2.555   9.103   7.765
    1STR   H05154927   2.595   9.048   7.685
    1STR   C05254928   2.476   9.224   7.722
    1STR   H05354929   2.460   9.296   7.794
    1STR   H05454930   2.374   9.203   7.697
    1STR   H05554931   2.528   9.276   7.645
    1STR   C05654932   2.679   9.141   7.852
    1STR   H05754933   2.648   9.174   7.950
    1STR   H05854934   2.732   9.048   7.868
    1STR   O05954935   2.772   9.242   7.801
    1STR   C06054936   2.880   9.275   7.893
    1STR   H06154937   2.831   9.289   7.989
    1STR   C06254938   2.982   9.160   7.899
    1STR   H06354939   3.042   9.158   7.809
    1STR   H06454940   2.937   9.063   7.909
    1STR   H06554941   3.056   9.174   7.977
    1STR   C06654942   2.968   0.082   7.873
    1STR   H06754943   3.022   0.099   7.966
    1STR   H06854944   3.046   0.063   7.801
    1STR   O06954945   2.903   0.201   7.833
    1STR   C07054946   2.926   0.318   7.912
    1STR   H07154947   2.916   0.291   8.017
    1STR   C07254948   3.063   0.384   7.899
    1STR   H07354949   3.069   0.444   7.809
    1STR   H07454950   3.144   0.311   7.897
    1STR   H07554951   3.080   0.452   7.982
    1STR   C07654952   2.813   0.414   7.872
    1STR   H07754953   2.812   0.504   7.934
    1STR   H07854954   2.828   0.449   7.771
    1STR   O07954955   2.685   0.351   7.875
    1STR   C08054956   2.657   0.258   7.979
    1STR   H08154957   2.734   0.183   7.991
    1STR   C08254958   2.656   0.357   8.097
    1STR   H08354959   2.589   0.440   8.073
    1STR   H08454960   2.753   0.402   8.116
    1STR   H08554961   2.636   0.315   8.193
    1STR   C08654962   2.532   0.171   7.938
    1STR   H08754963   2.443   0.231   7.931
    1STR   H08854964   2.560   0.140   7.840
    1STR   O08954965   2.508   0.038   7.991
    1STR   C09054966   2.375   9.306   8.020
    1STR   H09154967   2.362   9.314   8.123
    1STR   C09254968   2.258   0.061   7.959
    1STR   H09354969   2.279   0.071   7.854
    1STR   H09454970   2.244   0.160   8.000
    1STR   H09554971   2.164   0.008   7.975
    1STR   C09654972   2.353   9.156   8.010
    1STR   H09754973   2.263   9.130   8.064
    1STR   H09854974   2.323   9.143   7.908
    1STR   O09954975   2.467   9.081   8.052
    1STR   C10054976   2.467   8.941   8.087
    1STR   H10154977   2.381   8.917   8.149
    1STR   C10254978   2.499   8.821   7.991
    1STR   H10354979   2.583   8.844   7.925
    1STR   H10454980   2.416   8.790   7.930
    1STR   H10554981   2.530   8.730   8.040
    1STR   C10654982   2.592   8.945   8.169
    1STR   H10754983   2.578   9.019   8.246
    1STR   H10854984   2.605   8.845   8.205
    1STR   O10954985   2.711   8.970   8.098
    1STR   C11054986   2.819   8.978   8.188
    1STR   H11154987   2.793   8.939   8.286
    1STR   C11254988   2.927   8.882   8.139
    1STR   H11354989   2.957   8.901   8.037
    1STR   H11454990   2.887   8.780   8.140
    1STR   H11554991   3.015   8.883   8.203
    1STR   C11654992   2.856   9.127   8.208
    1STR   H11754993   2.900   9.144   8.303
    1STR   H11854994   2.933   9.158   8.139
    1STR   O11954995   2.744   9.211   8.198
    1STR   C12054996   2.729   9.318   8.292
    1STR   H12154997   2.723   9.274   8.391
    1STR   C12254998   2.842   0.102   8.276
    1STR   H12354999   2.839   0.149   8.179
    1STR   H12455000   2.942   0.059   8.284
    1STR   H12555001   2.832   0.181   8.350
    1STR   C12655002   2.593   0.054   8.246
    1STR   H12755003   2.628   0.092   8.154
    1STR   H12855004   2.529   9.290   8.229
    1STR   O12955005   2.521   0.166   8.302
    1STR   C13055006   2.401   0.214   8.232
    1STR   H13155007   2.417   0.192   8.132
    1STR   C13255008   2.271   0.152   8.277
    1STR   H13355009   2.251   0.189   8.374
    1STR   H13455010   2.270   0.046   8.287
    1STR   H13555011   2.190   0.179   8.211
    1STR   C13655012   2.368   0.363   8.218
    1STR   H13755013   2.310   0.393   8.303
    1STR   H13855014   2.454   0.428   8.221
    1STR   O13955015   2.293   0.380   8.098
    1STR   C14055016   2.198   0.485   8.098
    1STR   H14155017   2.136   0.479   8.186
    1STR   C14255018   2.271   0.619   8.093
    1STR   H14355019   2.337   0.624   8.007
    1STR   H14455020   2.332   0.637   8.182
    1STR   H14555021   2.200   0.702   8.085
    1STR   C14655022   2.100   0.467   7.980
    1STR   H14755023   2.020   0.540   7.986
    1STR   H14855024   2.152   0.488   7.888
    1STR   O14955025   2.050   0.333   7.973
    1STR   C15055026   1.923   0.308   8.032
    1STR   H15155027   1.917   0.357   8.129
    1STR   C15255028   1.814   0.361   7.938
    1STR   H15355029   1.819   0.308   7.842
    1STR   H15455030   1.824   0.467   7.918
    1STR   H15555031   1.715   0.343   7.979
    1STR   C15655032   1.908   0.155   8.049
    1STR   H15755033   1.923   0.108   7.953
    1STR   H15855034   1.985   0.113   8.115
    1STR   O15955035   1.776   0.123   8.089
    1STR   C16055036   1.762   0.017   8.183
    1STR   H16155037   1.821   0.041   8.268
    1STR   C16255038   1.615   0.021   8.225
    1STR   H16355039   1.550   9.320   8.140
    1STR   H16455040   1.589   0.120   8.263
    1STR   H16555041   1.594   9.269   8.304
    1STR   C16655042   1.802   9.197   8.133
    1STR   H16755043   1.743   9.121   8.184
    1STR   H16855044   1.765   9.192   8.033
    1STR   O16955045   1.943   9.167   8.136
    1STR   C17055046   1.977   9.054   8.218
    1STR   H17155047   1.903   9.051   8.294
    1STR   C17255048   1.964   8.916   8.151
    1STR   H17355049   2.051   8.891   8.091
    1STR   H17455050   1.873   8.907   8.091
    1STR   H17555051   1.959   8.836   8.225
    1STR   C17655052   2.111   9.065   8.291
    1STR   H17755053   2.115   8.988   8.365
    1STR   H17855054   2.188   9.036   8.221
    1STR   O17955055   2.141   9.187   8.361
    1STR   C18055056   2.252   9.174   8.452
    1STR   H18155057   2.227   9.093   8.521
    1STR   C18255058   2.369   9.130   8.363
    1STR   H18355059   2.354   9.166   8.263
    1STR   H18455060   2.375   9.023   8.357
    1STR   H18555061   2.465   9.172   8.388
    1STR   C18655062   2.285   9.296   8.544
    1STR   H18755063   2.197   0.039   8.557
    1STR   H18855064   2.312   9.259   8.643
    1STR   O18955065   2.397   0.053   8.499
    1STR   C19055066   2.457   0.153   8.582
    1STR   H19155067   2.425   0.140   8.685
    1STR   C19255068   2.605   0.119   8.582
    1STR   H19355069   2.649   0.130   8.485
    1STR   H19455070   2.627   0.022   8.622
    1STR   H19555071   2.660   0.191   8.637
    1STR   C19655072   2.446   0.303   8.538
    1STR   H19755073   2.527   0.361   8.578
    1STR   H19855074   2.472   0.324   8.437
    1STR   O19955075   2.323   0.364   8.569
    1STR   C20055076   2.306   0.503   8.540
    1STR   H20155077   2.294   0.545   8.640
    1STR   C20255078   2.424   0.585   8.481
    1STR   H20355079   2.444   0.565   8.377
    1STR   H20455080   2.517   0.572   8.535
    1STR   H20555081   2.402   0.692   8.486
    1STR   C20655082   2.175   0.529   8.463
    1STR   H20755083   2.106   0.581   8.528
    1STR   H20855084   2.194   0.600   8.383
    1STR   O20955085   2.107   0.417   8.402
    1STR   C21055086   2.060   0.307   8.479
    1STR   H21155087   2.138   0.246   8.522
    1STR   C21255088   1.990   0.361   8.595
    1STR   H21355089   1.902   0.419   8.566
    1STR   H21455090   2.057   0.421   8.655
    1STR   H21555091   1.963   0.276   8.654
    1STR   C21655092   1.969   0.217   8.394
    1STR   H21755093   1.868   0.256   8.385
    1STR   H21855094   2.006   0.227   8.293
    1STR   O21955095   1.976   0.076   8.422
    1STR   C22055096   1.895   0.017   8.524
    1STR   H22155097   1.962   0.011   8.607
    1STR   C22255098   1.768   0.099   8.557
    1STR   H22355099   1.699   0.101   8.474
    1STR   H22455100   1.785   0.201   8.587
    1STR   H22555101   1.717   0.054   8.641
    1STR   C22655102   1.845   9.192   8.497
    1STR   H22755103   1.767   9.173   8.569
    1STR   H22855104   1.794   9.189   8.403
    1STR   O22955105   1.935   9.079   8.510
    1STR   C23055106   1.872   8.952   8.534
    1STR   H23155107   1.835   8.963   8.634
    1STR   C23255108   1.750   8.915   8.446
    1STR   H23355109   1.698   8.828   8.487
    1STR   H23455110   1.779   8.885   8.345
    1STR   H23555111   1.677   8.995   8.438
    1STR   C23655112   1.967   8.833   8.549
    1STR   H23755113   2.036   8.855   8.629
    1STR   H23855114   1.906   8.747   8.575
    1STR   O23955115   2.044   8.791   8.438
    1STR   C24055116   2.131   8.683   8.470
    1STR   H24155117   2.154   8.680   8.577
    1STR   C24255118   2.062   8.553   8.430
    1STR   H24355119   2.032   8.555   8.325
    1STR   H24455120   1.971   8.536   8.489
    1STR   H24555121   2.127   8.467   8.445
    1STR   C24655122   2.264   8.707   8.397
    1STR   H24755123   2.256   8.662   8.298
    1STR   H24855124   2.281   8.813   8.383
    1STR   O24955125   2.369   8.652   8.477
    1STR   C25055126   2.503   8.653   8.427
    1STR   H25155127   2.557   8.580   8.485
    1STR   C25255128   2.507   8.596   8.284
    1STR   H25355129   2.452   8.657   8.215
    1STR   H25455130   2.464   8.496   8.280
    1STR   H25555131   2.609   8.588   8.247
    1STR   C25655132   2.576   8.789   8.435
    1STR   H25755133   2.668   8.777   8.378
    1STR   H25855134   2.507   8.860   8.391
    1STR   O25955135   2.630   8.849   8.552
    1STR   C26055136   2.657   8.990   8.534
    1STR   H26155137   2.656   9.018   8.430
    1STR   C26255138   2.543   9.064   8.596
    1STR   H26355139   2.449   9.021   8.567
    1STR   H26455140   2.543   9.169   8.571
    1STR   H26555141   2.550   9.063   8.702
    1STR   C26655142   2.790   9.048   8.584
    1STR   H26755143   2.779   9.156   8.586
    1STR   H26855144   2.813   9.018   8.686
    1STR   O26955145   2.890   9.011   8.489
    1STR   C27055146   3.020   9.069   8.496
    1STR   H27155147   3.065   9.058   8.398
    1STR   C27255148   3.021   9.219   8.531
    1STR   H27355149   2.981   9.240   8.629
    1STR   H27455150   2.959   9.276   8.464
    1STR   H27555151   3.122   9.259   8.524
    1STR   C27655152   3.105   8.983   8.584
    1STR   H27755153   3.210   9.014   8.583
    1STR   H27855154   3.066   8.993   8.683
    1STR   O27955155   3.092   8.853   8.530
    1STR   C28055156   3.052   8.749   8.617
    1STR   H28155157   3.138   8.722   8.678
    1STR   C28255158   2.932   8.780   8.708
    1STR   H28355159   2.903   8.692   8.764
    1STR   H28455160   2.846   8.807   8.649
    1STR   H28555161   2.948   8.857   8.783
    1STR   C28655162   3.021   8.636   8.519
    1STR   H28755163   2.961   8.674   8.436
    1STR   H28855164   3.114   8.600   8.475
    1STR   O28955165   2.957   8.528   8.584
    1STR   C29055166   2.816   8.525   8.568
    1STR   H29155167   2.772   8.625   8.564
    1STR   C29255168   2.788   8.449   8.438
    1STR   H29355169   2.851   8.362   8.428
    1STR   H29455170   2.807   8.513   8.352
    1STR   H29555171   2.684   8.416   8.432
    1STR   C29655172   2.765   8.456   8.694
    1STR   H29755173   2.804   8.356   8.688
    1STR   H29855174   2.812   8.497   8.782
    1STR   O29955175   2.624   8.448   8.710
    1STR   C30055176   2.553   8.566   8.747
    1STR   H30155177   2.571   8.644   8.675
    1STR   C30255178   2.404   8.526   8.743
    1STR   H30355179   2.376   8.456   8.819
    1STR   H30455180   2.379   8.478   8.649
    1STR   H30555181   2.335   8.608   8.755
    1STR   C30655182   2.604   8.626   8.878
    1STR   H30755183   2.601   8.550   8.955
    1STR   H30855184   2.707   8.656   8.869
    1STR   O30955185   2.533   8.739   8.924
    1STR    H1R55186   2.629   8.848   8.779
    1STR    H1S55187   2.415   8.795   8.676
    1STR    H1T55188   2.374   8.948   8.742
    1STR    H1U55189   2.330   8.806   8.829
    1STR    H1V55190   2.548   8.960   9.035
    1STR    H1W55191   2.481   9.048   8.905
    1STR    H1X55192   2.862   9.185   8.986
    1STR    H1Y55193   2.853   0.090   9.140
    1STR    H1Z55194   2.938   0.319   9.120
    1STR    H2055195   3.084   0.441   8.828
    1STR    H2155196   2.943   0.540   8.840
    1STR    H2255197   3.029   0.498   8.985
    1STR    H2355198   2.910   0.282   8.592
    1STR    H2755199   2.813   0.068   8.716
    1STR    H2855200   3.108   9.087   7.615
    1STR    H2955201   2.972   8.882   7.610
    1STR    H2A55202   2.647   8.848   7.635
    1STR    H2B55203   2.784   8.765   7.563
    1STR    H2C55204   2.660   8.831   7.460
    1STR   BCK155205   2.449   2.233   0.481
    1STR    O0355206   2.371   2.243   0.574
    1STR    N0455207   2.488   2.339   0.412
    1STR    C0555208   2.415   2.457   0.413
    1STR    C0655209   2.275   2.456   0.400
    1STR    C0755210   2.199   2.573   0.392
    1STR    N0855211   2.063   2.562   0.391
    1STR    C0955212   1.979   2.626   0.471
    1STR    O0A55213   1.991   2.742   0.508
    1STR    O0B55214   1.886   2.543   0.516
    1STR    C0C55215   1.852   2.546   0.652
    1STR    C0D55216   1.772   2.672   0.678
    1STR    C0E55217   1.785   2.412   0.699
    1STR    O0F55218   1.811   2.285   0.637
    1STR    C0G55219   1.938   2.218   0.641
    1STR    C0H55220   2.045   2.306   0.582
    1STR    C0I55221   1.977   2.157   0.773
    1STR    O0J55222   2.106   2.101   0.761
    1STR    C0K55223   2.929   2.857   1.505
    1STR    C0M55224   3.032   2.935   1.588
    1STR    C0N55225   2.818   2.948   1.452
    1STR    O0O55226   2.723   2.966   1.555
    1STR    C0P55227   2.749   3.060   1.643
    1STR    O0Q55228   2.795   3.170   1.614
    1STR    N0R55229   2.729   3.021   1.769
    1STR    C0S55230   2.651   2.914   1.806
    1STR    C0T55231   2.514   2.918   1.779
    1STR    C0U55232   2.435   2.807   1.806
    1STR    C0V55233   2.487   2.694   1.872
    1STR    C0W55234   2.393   2.585   1.917
    1STR    C0X55235   2.625   2.691   1.906
    1STR    N0Y55236   2.681   2.593   1.987
    1STR   BCK255237   2.701   2.464   1.965
    1STR    O1055238   2.770   2.396   2.037
    1STR    C1355239   2.705   2.802   1.872
    1STR    C1455240   2.264   2.695   0.398
    1STR    C1555241   2.401   2.699   0.425
    1STR    C1655242   2.476   2.582   0.429
    1STR    C1755243   2.620   2.591   0.462
    1STR    H1B55244   2.577   2.332   0.361
    1STR    H1C55245   2.223   2.363   0.398
    1STR    H1D55246   2.018   2.484   0.343
    1STR    H1E55247   1.945   2.563   0.705
    1STR    H1F55248   1.696   2.656   0.754
    1STR    H1G55249   1.838   2.751   0.715
    1STR    H1H55250   1.727   2.712   0.588
    1STR    H1I55251   1.678   2.426   0.687
    1STR    H1J55252   1.801   2.399   0.804
    1STR    H1K55253   1.931   2.131   0.577
    1STR    H1M55254   2.068   2.397   0.635
    1STR    H1N55255   2.013   2.339   0.485
    1STR    H1O55256   2.138   2.253   0.573
    1STR    H1P55257   1.980   2.238   0.841
    1STR    H1Q55258   1.904   2.084   0.807
    1STR   C01055259   2.172   2.079   0.883
    1STR   H01155260   2.125   2.137   0.959
    1STR   C01255261   2.146   1.932   0.921
    1STR   H01355262   2.039   1.911   0.922
    1STR   H01455263   2.185   1.910   1.020
    1STR   H01555264   2.193   1.863   0.851
    1STR   C01655265   2.325   2.111   0.874
    1STR   H01755266   2.371   2.087   0.969
    1STR   H01855267   2.358   2.040   0.800
    1STR   O01955268   2.379   2.240   0.840
    1STR   C02055269   2.525   2.251   0.840
    1STR   H02155270   2.557   2.261   0.943
    1STR   C02255271   2.587   2.125   0.777
    1STR   H02355272   2.568   2.124   0.673
    1STR   H02455273   2.560   2.030   0.820
    1STR   H02555274   2.693   2.123   0.777
    1STR   C02655275   2.594   2.366   0.761
    1STR   H02755276   2.697   2.332   0.749
    1STR   H02855277   2.556   2.377   0.661
    1STR   O02955278   2.604   2.496   0.816
    1STR   C03055279   2.720   2.575   0.783
    1STR   H03155280   2.776   2.560   0.871
    1STR   C03255281   2.826   2.532   0.682
    1STR   H03355282   2.784   2.462   0.612
    1STR   H03455283   2.911   2.487   0.731
    1STR   H03555284   2.864   2.617   0.625
    1STR   C03655285   2.702   2.726   0.784
    1STR   H03755286   2.669   2.731   0.885
    1STR   H03855287   2.797   2.777   0.777
    1STR   O03955288   2.603   2.787   0.702
    1STR   C04055289   2.599   2.930   0.707
    1STR   H04155290   2.634   2.975   0.799
    1STR   C04255291   2.703   2.972   0.604
    1STR   H04355292   2.707   2.901   0.522
    1STR   H04455293   2.802   2.972   0.648
    1STR   H04555294   2.685   3.071   0.565
    1STR   C04655295   2.451   2.976   0.683
    1STR   H04755296   2.447   3.079   0.648
    1STR   H04855297   2.421   2.911   0.603
    1STR   O04955298   2.358   2.960   0.792
    1STR   C05055299   2.216   2.950   0.763
    1STR   H05155300   2.190   3.037   0.705
    1STR   C05255301   2.198   2.821   0.685
    1STR   H05355302   2.182   2.843   0.583
    1STR   H05455303   2.113   2.761   0.719
    1STR   H05555304   2.286   2.759   0.684
    1STR   C05655305   2.115   2.944   0.882
    1STR   H05755306   2.111   2.842   0.921
    1STR   H05855307   2.144   3.009   0.963
    1STR   O05955308   1.979   2.971   0.847
    1STR   C06055309   1.892   2.982   0.962
    1STR   H06155310   1.940   2.938   1.050
    1STR   C06255311   1.872   3.131   0.988
    1STR   H06355312   1.826   3.179   0.902
    1STR   H06455313   1.967   3.181   1.008
    1STR   H06555314   1.808   3.148   1.075
    1STR   C06655315   1.756   2.911   0.946
    1STR   H06755316   1.690   2.942   1.026
    1STR   H06855317   1.709   2.938   0.851
    1STR   O06955318   1.773   2.770   0.951
    1STR   C07055319   1.680   2.692   1.025
    1STR   H07155320   1.685   2.728   1.128
    1STR   C07255321   1.535   2.704   0.974
    1STR   H07355322   1.523   2.661   0.875
    1STR   H07455323   1.500   2.807   0.970
    1STR   H07555324   1.467   2.649   1.039
    1STR   C07655325   1.728   2.546   1.023
    1STR   H07755326   1.720   2.503   1.122
    1STR   H07855327   1.665   2.484   0.960
    1STR   O07955328   1.862   2.539   0.973
    1STR   C08055329   1.953   2.441   1.021
    1STR   H08155330   1.993   2.462   1.118
    1STR   C08255331   1.886   2.304   1.051
    1STR   H08355332   1.818   2.270   0.974
    1STR   H08455333   1.828   2.311   1.143
    1STR   H08555334   1.960   2.228   1.071
    1STR   C08655335   2.076   2.450   0.925
    1STR   H08755336   2.142   2.366   0.932
    1STR   H08855337   2.039   2.440   0.826
    1STR   O08955338   2.154   2.572   0.927
    1STR   C09055339   2.294   2.554   0.895
    1STR   H09155340   2.340   2.475   0.954
    1STR   C09255341   2.291   2.510   0.747
    1STR   H09355342   2.216   2.562   0.689
    1STR   H09455343   2.264   2.406   0.736
    1STR   H09555344   2.386   2.523   0.696
    1STR   C09655345   2.383   2.682   0.913
    1STR   H09755346   2.451   2.681   0.830
    1STR   H09855347   2.318   2.763   0.894
    1STR   O09955348   2.459   2.718   1.032
    1STR   C10055349   2.518   2.852   1.030
    1STR   H10155350   2.529   2.868   0.926
    1STR   C10255351   2.436   2.977   1.065
    1STR   H10355352   2.434   3.001   1.169
    1STR   H10455353   2.335   2.969   1.030
    1STR   H10555354   2.481   3.063   1.016
    1STR   C10655355   2.658   2.863   1.096
    1STR   H10755356   2.660   2.943   1.170
    1STR   H10855357   2.675   2.771   1.150
    1STR   O10955358   2.760   2.891   1.002
    1STR   C11055359   2.896   2.865   1.036
    1STR   H11155360   2.949   2.859   0.941
    1STR   C11255361   2.947   2.990   1.107
    1STR   H11355362   2.892   3.009   1.198
    1STR   H11455363   2.933   3.078   1.043
    1STR   H11555364   3.053   2.982   1.130
    1STR   C11655365   2.926   2.732   1.111
    1STR   H11755366   3.031   2.737   1.137
    1STR   H11855367   2.870   2.724   1.204
    1STR   O11955368   2.913   2.613   1.034
    1STR   C12055369   2.859   2.498   1.101
    1STR   H12155370   2.904   2.489   1.198
    1STR   C12255371   2.708   2.514   1.121
    1STR   H12355372   2.655   2.421   1.115
    1STR   H12455373   2.660   2.576   1.047
    1STR   H12555374   2.686   2.560   1.218
    1STR   C12655375   2.896   2.369   1.021
    1STR   H12755376   2.865   2.378   0.918
    1STR   H12855377   3.004   2.357   1.020
    1STR   O12955378   2.834   2.253   1.075
    1STR   C13055379   2.844   2.133   0.999
    1STR   H13155380   2.840   2.163   0.896
    1STR   C13255381   2.980   2.066   1.019
    1STR   H13355382   2.997   2.035   1.122
    1STR   H13455383   3.062   2.130   0.988
    1STR   H13555384   2.985   1.975   0.958
    1STR   C13655385   2.727   2.036   1.034
    1STR   H13755386   2.737   2.012   1.138
    1STR   H13855387   2.630   2.083   1.026
    1STR   O13955388   2.717   1.917   0.956
    1STR   C14055389   2.627   1.818   1.007
    1STR   H14155390   2.626   1.826   1.115
    1STR   C14255391   2.478   1.833   0.980
    1STR   H14355392   2.455   1.849   0.875
    1STR   H14455393   2.439   1.913   1.043
    1STR   H14555394   2.424   1.744   1.012
    1STR   C14655395   2.679   1.679   0.960
    1STR   H14755396   2.638   1.598   1.020
    1STR   H14855397   2.642   1.661   0.859
    1STR   O14955398   2.822   1.673   0.954
    1STR   C15055399   2.894   1.643   1.074
    1STR   H15155400   2.877   1.538   1.100
    1STR   C15255401   3.041   1.666   1.042
    1STR   H15355402   3.059   1.769   1.013
    1STR   H15455403   3.073   1.602   0.959
    1STR   H15555404   3.103   1.644   1.129
    1STR   C15655405   2.845   1.733   1.186
    1STR   H15755406   2.846   1.836   1.155
    1STR   H15855407   2.744   1.697   1.204
    1STR   O15955408   2.910   1.729   1.310
    1STR   C16055409   2.820   1.764   1.415
    1STR   H16155410   2.725   1.715   1.402
    1STR   C16255411   2.893   1.692   1.527
    1STR   H16355412   2.995   1.729   1.538
    1STR   H16455413   2.901   1.585   1.504
    1STR   H16555414   2.842   1.697   1.622
    1STR   C16655415   2.795   1.918   1.435
    1STR   H16755416   2.772   1.938   1.540
    1STR   H16855417   2.894   1.960   1.420
    1STR   O16955418   2.689   1.984   1.357
    1STR   C17055419   2.679   2.130   1.370
    1STR   H17155420   2.649   2.151   1.472
    1STR   C17255421   2.823   2.180   1.350
    1STR   H17355422   2.877   2.122   1.276
    1STR   H17455423   2.879   2.173   1.443
    1STR   H17555424   2.829   2.282   1.314
    1STR   C17655425   2.587   2.223   1.278
    1STR   H17755426   2.611   2.325   1.306
    1STR   H17855427   2.616   2.218   1.175
    1STR   O17955428   2.443   2.223   1.281
    1STR   C18055429   2.365   2.314   1.194
    1STR   H18155430   2.418   2.327   1.101
    1STR   C18255431   2.244   2.227   1.173
    1STR   H18355432   2.167   2.239   1.249
    1STR   H18455433   2.268   2.121   1.162
    1STR   H18555434   2.201   2.265   1.084
    1STR   C18655435   2.307   2.457   1.241
    1STR   H18755436   2.249   2.443   1.331
    1STR   H18855437   2.389   2.526   1.259
    1STR   O18955438   2.206   2.526   1.165
    1STR   C19055439   2.155   2.654   1.214
    1STR   H19155440   2.181   2.658   1.316
    1STR   C19255441   2.231   2.773   1.176
    1STR   H19355442   2.226   2.786   1.071
    1STR   H19455443   2.331   2.757   1.207
    1STR   H19555444   2.194   2.864   1.221
    1STR   C19655445   2.011   2.702   1.185
    1STR   H19755446   1.993   2.801   1.224
    1STR   H19855447   1.999   2.710   1.077
    1STR   O19955448   1.903   2.626   1.233
    1STR   C20055449   1.883   2.621   1.370
    1STR   H20155450   1.877   2.719   1.414
    1STR   C20255451   1.747   2.551   1.372
    1STR   H20355452   1.753   2.451   1.329
    1STR   H20455453   1.671   2.609   1.320
    1STR   H20555454   1.710   2.536   1.472
    1STR   C20655455   1.992   2.535   1.433
    1STR   H20755456   1.949   2.480   1.509
    1STR   H20855457   2.025   2.459   1.361
    1STR   O20955458   2.107   2.590   1.496
    1STR   C21055459   2.097   2.694   1.589
    1STR   H21155460   1.995   2.722   1.610
    1STR   C21255461   2.164   2.635   1.711
    1STR   H21355462   2.149   2.696   1.799
    1STR   H21455463   2.270   2.627   1.690
    1STR   H21555464   2.133   2.534   1.734
    1STR   C21655465   2.175   2.815   1.534
    1STR   H21755466   2.119   2.861   1.453
    1STR   H21855467   2.192   2.889   1.611
    1STR   O21955468   2.298   2.768   1.482
    1STR   C22055469   2.404   2.860   1.465
    1STR   H22155470   2.457   2.869   1.557
    1STR   C22255471   2.501   2.791   1.373
    1STR   H22355472   2.603   2.799   1.403
    1STR   H22455473   2.498   2.836   1.277
    1STR   H22555474   2.477   2.687   1.359
    1STR   C22655475   2.371   3.000   1.415
    1STR   H22755476   2.465   3.040   1.379
    1STR   H22855477   2.301   2.997   1.333
    1STR   O22955478   2.320   3.084   1.516
    1STR   C23055479   2.304   3.219   1.472
    1STR   H23155480   2.269   3.269   1.561
    1STR   C23255481   2.439   3.281   1.430
    1STR   H23355482   2.467   3.256   1.328
    1STR   H23455483   2.521   3.244   1.492
    1STR   H23555484   2.437   3.389   1.436
    1STR   C23655485   2.196   3.242   1.364
    1STR   H23755486   2.158   3.344   1.370
    1STR   H23855487   2.242   3.234   1.265
    1STR   O23955488   2.089   3.149   1.361
    1STR   C24055489   2.009   3.123   1.476
    1STR   H24155490   2.067   3.062   1.545
    1STR   C24255491   1.964   3.251   1.549
    1STR   H24355492   1.907   3.316   1.483
    1STR   H24455493   2.049   3.308   1.587
    1STR   H24555494   1.903   3.226   1.635
    1STR   C24655495   1.892   3.042   1.417
    1STR   H24755496   1.811   3.107   1.381
    1STR   H24855497   1.928   2.994   1.326
    1STR   O24955498   1.844   2.931   1.493
    1STR   C25055499   1.762   2.950   1.607
    1STR   H25155500   1.827   2.977   1.689
    1STR   C25255501   1.655   3.058   1.586
    1STR   H25355502   1.597   3.039   1.496
    1STR   H25455503   1.698   3.158   1.577
    1STR   H25555504   1.586   3.062   1.671
    1STR   C25655505   1.692   2.816   1.641
    1STR   H25755506   1.643   2.825   1.738
    1STR   H25855507   1.613   2.801   1.567
    1STR   O25955508   1.775   2.700   1.637
    1STR   C26055509   1.734   2.588   1.717
    1STR   H26155510   1.740   2.631   1.814
    1STR   C26255511   1.589   2.548   1.691
    1STR   H26355512   1.581   2.448   1.647
    1STR   H26455513   1.533   2.614   1.625
    1STR   H26555514   1.538   2.548   1.787
    1STR   C26655515   1.832   2.467   1.720
    1STR   H26755516   1.931   2.509   1.710
    1STR   H26855517   1.838   2.418   1.817
    1STR   O26955518   1.804   2.369   1.619
    1STR   C27055519   1.895   2.259   1.600
    1STR   H27155520   1.862   2.184   1.670
    1STR   C27255521   1.870   2.201   1.461
    1STR   H27355522   1.902   2.270   1.383
    1STR   H27455523   1.765   2.179   1.446
    1STR   H27555524   1.927   2.108   1.447
    1STR   C27655525   2.046   2.272   1.634
    1STR   H27755526   2.053   2.314   1.733
    1STR   H27855527   2.073   2.167   1.639
    1STR   O27955528   2.144   2.333   1.547
    1STR   C28055529   2.283   2.302   1.574
    1STR   H28155530   2.302   2.308   1.678
    1STR   C28255531   2.303   2.162   1.515
    1STR   H28355532   2.264   2.156   1.415
    1STR   H28455533   2.248   2.084   1.567
    1STR   H28555534   2.407   2.132   1.512
    1STR   C28655535   2.390   2.406   1.528
    1STR   H28755536   2.412   2.383   1.429
    1STR   H28855537   2.351   2.507   1.533
    1STR   O28955538   2.528   2.396   1.568
    1STR   C29055539   2.613   2.497   1.509
    1STR   H29155540   2.585   2.515   1.406
    1STR   C29255541   2.597   2.620   1.593
    1STR   H29355542   2.495   2.653   1.600
    1STR   H29455543   2.664   2.701   1.567
    1STR   H29555544   2.629   2.593   1.691
    1STR   C29655545   2.763   2.466   1.512
    1STR   H29755546   2.796   2.475   1.614
    1STR   H29855547   2.779   2.362   1.495
    1STR   O29955548   2.840   2.552   1.424
    1STR   C30055549   2.981   2.556   1.451
    1STR   H30155550   2.986   2.563   1.557
    1STR   C30255551   3.058   2.431   1.408
    1STR   H30355552   3.071   2.422   1.300
    1STR   H30455553   3.009   2.341   1.441
    1STR   H30555554   3.157   2.429   1.452
    1STR   C30655555   3.061   2.680   1.406
    1STR   H30755556   3.145   2.696   1.473
    1STR   H30855557   3.109   2.657   1.311
    1STR   O30955558   2.989   2.802   1.390
    1STR    H1R55559   2.882   2.778   1.564
    1STR    H1S55560   2.992   2.962   1.685
    1STR    H1T55561   3.063   3.026   1.537
    1STR    H1U55562   3.122   2.878   1.606
    1STR    H1V55563   2.772   2.902   1.365
    1STR    H1W55564   2.858   3.043   1.416
    1STR    H1X55565   2.766   3.082   1.841
    1STR    H1Y55566   2.470   3.005   1.731
    1STR    H1Z55567   2.331   2.812   1.780
    1STR    H2055568   2.298   2.626   1.953
    1STR    H2155569   2.375   2.512   1.839
    1STR    H2255570   2.439   2.534   1.999
    1STR    H2355571   2.712   2.621   2.079
    1STR    H2755572   2.808   2.800   1.898
    1STR    H2855573   2.204   2.783   0.387
    1STR    H2955574   2.450   2.792   0.442
    1STR    H2A55575   2.615   2.589   0.569
    1STR    H2B55576   2.671   2.681   0.430
    1STR    H2C55577   2.672   2.504   0.424
    1STR   BCK155578   2.785   2.703   2.782
    1STR    O0355579   2.876   2.698   2.864
    1STR    N0455580   2.699   2.605   2.756
    1STR    C0555581   2.679   2.478   2.806
    1STR    C0655582   2.771   2.405   2.886
    1STR    C0755583   2.745   2.268   2.917
    1STR    N0855584   2.820   2.184   3.000
    1STR    C0955585   2.892   2.198   3.111
    1STR    O0A55586   2.926   2.096   3.169
    1STR    O0B55587   2.913   2.325   3.154
    1STR    C0C55588   2.959   2.351   3.287
    1STR    C0D55589   3.091   2.281   3.327
    1STR    C0E55590   2.982   2.502   3.309
    1STR    O0F55591   2.865   2.579   3.294
    1STR    C0G55592   2.855   2.649   3.172
    1STR    C0H55593   2.714   2.622   3.128
    1STR    C0I55594   2.889   2.797   3.191
    1STR    O0J55595   2.833   2.881   3.090
    1STR    C0K55596   2.005   2.772   4.096
    1STR    C0M55597   2.127   2.859   4.106
    1STR    C0N55598   1.990   2.685   4.219
    1STR    O0O55599   1.952   2.553   4.189
    1STR    C0P55600   2.039   2.463   4.148
    1STR    O0Q55601   2.150   2.490   4.110
    1STR    N0R55602   1.987   2.340   4.155
    1STR    C0S55603   2.041   2.218   4.121
    1STR    C0T55604   1.970   2.100   4.151
    1STR    C0U55605   2.033   1.976   4.150
    1STR    C0V55606   2.172   1.970   4.133
    1STR    C0W55607   2.242   1.838   4.159
    1STR    C0X55608   2.243   2.087   4.100
    1STR    N0Y55609   2.381   2.095   4.113
    1STR   BCK255610   2.443   2.196   4.175
    1STR    O1055611   2.395   2.306   4.196
    1STR    C1355612   2.172   2.205   4.076
    1STR    C1455613   2.635   2.207   2.857
    1STR    C1555614   2.536   2.284   2.797
    1STR    C1655615   2.556   2.419   2.772
    1STR    C1755616   2.445   2.490   2.698
    1STR    H1B55617   2.628   2.627   2.689
    1STR    H1C55618   2.859   2.453   2.921
    1STR    H1D55619   2.813   2.085   2.980
    1STR    H1E55620   2.879   2.317   3.354
    1STR    H1F55621   3.087   2.173   3.322
    1STR    H1G55622   3.174   2.314   3.264
    1STR    H1H55623   3.117   2.305   3.430
    1STR    H1I55624   3.063   2.539   3.247
    1STR    H1J55625   3.014   2.518   3.412
    1STR    H1K55626   2.919   2.607   3.094
    1STR    H1M55627   2.637   2.639   3.202
    1STR    H1N55628   2.707   2.519   3.098
    1STR    H1O55629   2.694   2.681   3.040
    1STR    H1P55630   2.863   2.830   3.292
    1STR    H1Q55631   2.997   2.807   3.184
    1STR   C01055632   2.730   2.971   3.129
    1STR   H01155633   2.709   2.969   3.236
    1STR   C01255634   2.781   3.109   3.090
    1STR   H01355635   2.797   3.115   2.982
    1STR   H01455636   2.876   3.131   3.138
    1STR   H01555637   2.710   3.187   3.118
    1STR   C01655638   2.602   2.938   3.053
    1STR   H01755639   2.543   3.028   3.036
    1STR   H01855640   2.628   2.898   2.955
    1STR   O01955641   2.521   2.847   3.126
    1STR   C02055642   2.415   2.798   3.047
    1STR   H02155643   2.389   2.875   2.978
    1STR   C02255644   2.448   2.672   2.968
    1STR   H02355645   2.466   2.586   3.032
    1STR   H02455646   2.534   2.690   2.907
    1STR   H02555647   2.368   2.646   2.901
    1STR   C02655648   2.293   2.770   3.131
    1STR   H02755649   2.321   2.702   3.212
    1STR   H02855650   2.254   2.862   3.172
    1STR   O02955651   2.198   2.721   3.038
    1STR   C03055652   2.124   2.612   3.083
    1STR   H03155653   2.181   2.555   3.155
    1STR   C03255654   2.002   2.678   3.140
    1STR   H03355655   1.925   2.680   3.065
    1STR   H03455656   2.017   2.779   3.173
    1STR   H03555657   1.969   2.620   3.225
    1STR   C03655658   2.097   2.522   2.963
    1STR   H03755659   2.059   2.589   2.890
    1STR   H03855660   2.190   2.486   2.920
    1STR   O03955661   2.006   2.411   2.975
    1STR   C04055662   1.967   2.363   3.103
    1STR   H04155663   2.035   2.404   3.174
    1STR   C04255664   1.831   2.425   3.138
    1STR   H04355665   1.744   2.362   3.127
    1STR   H04455666   1.809   2.517   3.088
    1STR   H04555667   1.836   2.456   3.241
    1STR   C04655668   1.974   2.209   3.122
    1STR   H04755669   2.043   2.172   3.196
    1STR   H04855670   1.880   2.174   3.162
    1STR   O04955671   1.982   2.132   3.005
    1STR   C05055672   2.106   2.089   2.954
    1STR   H05155673   2.091   2.016   2.876
    1STR   C05255674   2.186   2.200   2.893
    1STR   H05355675   2.208   2.269   2.970
    1STR   H05455676   2.132   2.257   2.818
    1STR   H05555677   2.278   2.161   2.854
    1STR   C05655678   2.177   2.009   3.054
    1STR   H05755679   2.256   1.967   2.993
    1STR   H05855680   2.219   2.070   3.134
    1STR   O05955681   2.089   1.911   3.103
    1STR   C06055682   2.133   1.850   3.221
    1STR   H06155683   2.149   1.932   3.290
    1STR   C06255684   2.013   1.761   3.264
    1STR   H06355685   1.987   1.688   3.189
    1STR   H06455686   1.924   1.823   3.278
    1STR   H06555687   2.033   1.706   3.355
    1STR   C06655688   2.264   1.770   3.208
    1STR   H06755689   2.310   1.767   3.303
    1STR   H06855690   2.246   1.665   3.189
    1STR   O06955691   2.356   1.818   3.111
    1STR   C07055692   2.459   1.903   3.156
    1STR   H07155693   2.422   1.948   3.245
    1STR   C07255694   2.578   1.809   3.183
    1STR   H07355695   2.668   1.837   3.129
    1STR   H07455696   2.548   1.708   3.161
    1STR   H07555697   2.612   1.798   3.284
    1STR   C07655698   2.498   2.016   3.057
    1STR   H07755699   2.603   2.042   3.071
    1STR   H07855700   2.492   1.970   2.959
    1STR   O07955701   2.422   2.139   3.054
    1STR   C08055702   2.439   2.238   3.156
    1STR   H08155703   2.449   2.182   3.244
    1STR   C08255704   2.567   2.315   3.146
    1STR   H08355705   2.566   2.368   3.052
    1STR   H08455706   2.651   2.249   3.160
    1STR   H08555707   2.580   2.393   3.221
    1STR   C08655708   2.330   2.344   3.177
    1STR   H08755709   2.374   2.432   3.221
    1STR   H08855710   2.307   2.389   3.082
    1STR   O08955711   2.215   2.299   3.249
    1STR   C09055712   2.186   2.341   3.384
    1STR   H09155713   2.242   2.275   3.449
    1STR   C09255714   2.226   2.487   3.410
    1STR   H09355715   2.164   2.558   3.356
    1STR   H09455716   2.330   2.515   3.394
    1STR   H09555717   2.209   2.508   3.514
    1STR   C09655718   2.035   2.338   3.426
    1STR   H09755719   2.032   2.359   3.533
    1STR   H09855720   1.986   2.423   3.379
    1STR   O09955721   1.952   2.223   3.409
    1STR   C10055722   1.809   2.241   3.407
    1STR   H10155723   1.776   2.279   3.313
    1STR   C10255724   1.743   2.103   3.398
    1STR   H10355725   1.772   2.052   3.305
    1STR   H10455726   1.634   2.109   3.397
    1STR   H10555727   1.772   2.034   3.476
    1STR   C10655728   1.745   2.341   3.508
    1STR   H10755729   1.637   2.329   3.506
    1STR   H10855730   1.775   2.310   3.607
    1STR   O10955731   1.783   2.480   3.492
    1STR   C11055732   1.697   2.579   3.430
    1STR   H11155733   1.685   2.558   3.324
    1STR   C11255734   1.554   2.575   3.487
    1STR   H11355735   1.552   2.585   3.595
    1STR   H11455736   1.500   2.484   3.459
    1STR   H11555737   1.495   2.657   3.445
    1STR   C11655738   1.753   2.725   3.442
    1STR   H11755739   1.684   2.791   3.388
    1STR   H11855740   1.747   2.760   3.544
    1STR   O11955741   1.882   2.754   3.386
    1STR   C12055742   1.983   2.804   3.474
    1STR   H12155743   1.944   2.884   3.537
    1STR   C12255744   2.023   2.688   3.558
    1STR   H12355745   2.128   2.688   3.585
    1STR   H12455746   1.999   2.595   3.511
    1STR   H12555747   1.968   2.699   3.649
    1STR   C12655748   2.110   2.855   3.406
    1STR   H12755749   2.153   2.775   3.347
    1STR   H12855750   2.086   2.938   3.343
    1STR   O12955751   2.209   2.895   3.501
    1STR   C13055752   2.315   2.971   3.446
    1STR   H13155753   2.328   2.953   3.340
    1STR   C13255754   2.279   3.118   3.469
    1STR   H13355755   2.268   3.138   3.575
    1STR   H13455756   2.185   3.143   3.421
    1STR   H13555757   2.356   3.184   3.429
    1STR   C13655758   2.451   2.935   3.510
    1STR   H13755759   2.521   3.008   3.471
    1STR   H13855760   2.448   2.946   3.618
    1STR   O13955761   2.491   2.802   3.479
    1STR   C14055762   2.632   2.775   3.464
    1STR   H14155763   2.652   2.774   3.357
    1STR   C14255764   2.728   2.877   3.528
    1STR   H14355765   2.702   2.897   3.632
    1STR   H14455766   2.730   2.972   3.473
    1STR   H14555767   2.830   2.840   3.526
    1STR   C14655768   2.663   2.635   3.520
    1STR   H14755769   2.769   2.613   3.515
    1STR   H14855770   2.639   2.637   3.626
    1STR   O14955771   2.593   2.530   3.453
    1STR   C15055772   2.563   2.422   3.541
    1STR   H15155773   2.648   2.399   3.604
    1STR   C15255774   2.446   2.472   3.623
    1STR   H15355775   2.410   2.570   3.593
    1STR   H15455776   2.483   2.482   3.723
    1STR   H15555777   2.364   2.401   3.623
    1STR   C15655778   2.527   2.298   3.460
    1STR   H15755779   2.447   2.329   3.396
    1STR   H15855780   2.615   2.282   3.399
    1STR   O15955781   2.482   2.179   3.528
    1STR   C16055782   2.481   2.054   3.454
    1STR   H16155783   2.399   2.080   3.390
    1STR   C16255784   2.622   2.036   3.390
    1STR   H16355785   2.700   2.102   3.425
    1STR   H16455786   2.625   2.049   3.283
    1STR   H16555787   2.662   1.939   3.414
    1STR   C16655788   2.414   1.917   3.502
    1STR   H16755789   2.404   1.898   3.607
    1STR   H16855790   2.312   1.921   3.470
    1STR   O16955791   2.465   1.795   3.449
    1STR   C17055792   2.431   1.671   3.512
    1STR   H17155793   2.471   1.675   3.614
    1STR   C17255794   2.282   1.634   3.520
    1STR   H17355795   2.237   1.609   3.424
    1STR   H17455796   2.224   1.712   3.566
    1STR   H17555797   2.269   1.545   3.582
    1STR   C17655798   2.500   1.557   3.435
    1STR   H17755799   2.478   1.460   3.480
    1STR   H17855800   2.460   1.554   3.334
    1STR   O17955801   2.640   1.576   3.424
    1STR   C18055802   2.709   1.558   3.547
    1STR   H18155803   2.643   1.537   3.631
    1STR   C18255804   2.801   1.438   3.525
    1STR   H18355805   2.866   1.454   3.439
    1STR   H18455806   2.742   1.348   3.505
    1STR   H18555807   2.863   1.418   3.613
    1STR   C18655808   2.785   1.687   3.576
    1STR   H18755809   2.849   1.672   3.662
    1STR   H18855810   2.847   1.713   3.490
    1STR   O18955811   2.694   1.794   3.600
    1STR   C19055812   2.749   1.908   3.665
    1STR   H19155813   2.778   1.868   3.760
    1STR   C19255814   2.881   1.955   3.598
    1STR   H19355815   2.870   1.968   3.491
    1STR   H19455816   2.962   1.884   3.613
    1STR   H19555817   2.914   2.050   3.639
    1STR   C19655818   2.652   2.027   3.693
    1STR   H19755819   2.706   2.075   3.766
    1STR   H19855820   2.662   2.107   3.623
    1STR   O19955821   2.518   2.005   3.744
    1STR   C20055822   2.416   2.103   3.786
    1STR   H20155823   2.389   2.056   3.878
    1STR   C20255824   2.457   2.243   3.825
    1STR   H20355825   2.376   2.316   3.815
    1STR   H20455826   2.544   2.276   3.771
    1STR   H20555827   2.472   2.252   3.931
    1STR   C20655828   2.277   2.121   3.718
    1STR   H20755829   2.213   2.163   3.795
    1STR   H20855830   2.282   2.196   3.640
    1STR   O20955831   2.211   2.007   3.667
    1STR   C21055832   2.089   2.032   3.600
    1STR   H21155833   2.113   2.100   3.519
    1STR   C21255834   2.039   1.904   3.537
    1STR   H21355835   2.015   1.829   3.609
    1STR   H21455836   2.117   1.862   3.478
    1STR   H21555837   1.953   1.922   3.474
    1STR   C21655838   1.977   2.088   3.689
    1STR   H21755839   2.014   2.184   3.720
    1STR   H21855840   1.891   2.112   3.630
    1STR   O21955841   1.947   2.009   3.804
    1STR   C22055842   1.821   1.940   3.818
    1STR   H22155843   1.814   1.933   3.926
    1STR   C22255844   1.700   2.020   3.769
    1STR   H22355845   1.692   2.024   3.662
    1STR   H22455846   1.704   2.122   3.806
    1STR   H22555847   1.609   1.972   3.803
    1STR   C22655848   1.817   1.792   3.773
    1STR   H22755849   1.723   1.746   3.804
    1STR   H22855850   1.820   1.785   3.665
    1STR   O22955851   1.925   1.728   3.838
    1STR   C23055852   1.954   1.590   3.819
    1STR   H23155853   1.875   1.536   3.870
    1STR   C23255854   1.953   1.548   3.671
    1STR   H23355855   2.024   1.607   3.613
    1STR   H23455856   1.854   1.561   3.626
    1STR   H23555857   1.980   1.444   3.660
    1STR   C23655858   2.090   1.556   3.889
    1STR   H23755859   2.092   1.593   3.991
    1STR   H23855860   2.094   1.447   3.899
    1STR   O23955861   2.211   1.591   3.818
    1STR   C24055862   2.277   1.717   3.841
    1STR   H24155863   2.318   1.750   3.746
    1STR   C24255864   2.180   1.828   3.870
    1STR   H24355865   2.106   1.811   3.947
    1STR   H24455866   2.120   1.839   3.783
    1STR   H24555867   2.229   1.921   3.889
    1STR   C24655868   2.408   1.712   3.923
    1STR   H24755869   2.393   1.669   4.021
    1STR   H24855870   2.470   1.642   3.868
    1STR   O24955871   2.477   1.840   3.929
    1STR   C25055872   2.603   1.850   3.998
    1STR   H25155873   2.569   1.842   4.099
    1STR   C25255874   2.683   1.720   3.977
    1STR   H25355875   2.706   1.703   3.872
    1STR   H25455876   2.632   1.632   4.014
    1STR   H25555877   2.774   1.722   4.034
    1STR   C25655878   2.695   1.983   3.994
    1STR   H25755879   2.740   1.990   4.091
    1STR   H25855880   2.781   1.970   3.932
    1STR   O25955881   2.647   2.118   3.965
    1STR   C26055882   2.739   2.235   3.962
    1STR   H26155883   2.804   2.214   4.046
    1STR   C26255884   2.821   2.262   3.835
    1STR   H26355885   2.759   2.279   3.748
    1STR   H26455886   2.891   2.183   3.812
    1STR   H26555887   2.877   2.354   3.845
    1STR   C26655888   2.682   2.377   4.001
    1STR   H26755889   2.592   2.375   4.060
    1STR   H26855890   2.756   2.421   4.066
    1STR   O26955891   2.655   2.470   3.895
    1STR   C27055892   2.635   2.602   3.946
    1STR   H27155893   2.630   2.603   4.055
    1STR   C27255894   2.757   2.684   3.902
    1STR   H27355895   2.770   2.683   3.794
    1STR   H27455896   2.849   2.643   3.944
    1STR   H27555897   2.750   2.787   3.935
    1STR   C27655898   2.505   2.668   3.897
    1STR   H27755899   2.484   2.755   3.959
    1STR   H27855900   2.518   2.703   3.795
    1STR   O27955901   2.392   2.580   3.902
    1STR   C28055902   2.265   2.637   3.872
    1STR   H28155903   2.228   2.663   3.968
    1STR   C28255904   2.266   2.766   3.788
    1STR   H28355905   2.312   2.750   3.691
    1STR   H28455906   2.319   2.848   3.837
    1STR   H28555907   2.165   2.803   3.772
    1STR   C28655908   2.166   2.530   3.819
    1STR   H28755909   2.185   2.507   3.716
    1STR   H28855910   2.183   2.438   3.874
    1STR   O28955911   2.031   2.576   3.839
    1STR   C29055912   1.923   2.500   3.784
    1STR   H29155913   1.946   2.477   3.682
    1STR   C29255914   1.911   2.368   3.858
    1STR   H29355915   2.006   2.319   3.874
    1STR   H29455916   1.841   2.299   3.812
    1STR   H29555917   1.871   2.389   3.955
    1STR   C29655918   1.785   2.572   3.790
    1STR   H29755919   1.721   2.521   3.719
    1STR   H29855920   1.735   2.552   3.882
    1STR   O29955921   1.769   2.712   3.765
    1STR   C30055922   1.832   2.808   3.849
    1STR   H30155923   1.940   2.799   3.837
    1STR   C30255924   1.791   2.945   3.796
    1STR   H30355925   1.684   2.961   3.806
    1STR   H30455926   1.816   2.957   3.690
    1STR   H30555927   1.843   3.024   3.851
    1STR   C30655928   1.794   2.794   3.997
    1STR   H30755929   1.697   2.841   4.015
    1STR   H30855930   1.786   2.691   4.028
    1STR   O30955931   1.892   2.855   4.078
    1STR    H1R55932   2.022   2.708   4.012
    1STR    H1S55933   2.221   2.806   4.105
    1STR    H1T55934   2.127   2.907   4.202
    1STR    H1U55935   2.131   2.929   4.023
    1STR    H1V55936   1.916   2.726   4.286
    1STR    H1W55937   2.083   2.684   4.273
    1STR    H1X55938   1.914   2.334   4.225
    1STR    H1Y55939   1.867   2.105   4.181
    1STR    H1Z55940   1.978   1.886   4.172
    1STR    H2055941   2.349   1.846   4.150
    1STR    H2155942   2.219   1.814   4.259
    1STR    H2255943   2.206   1.751   4.107
    1STR    H2355944   2.438   2.021   4.076
    1STR    H2755945   2.228   2.291   4.043
    1STR    H2855946   2.618   2.101   2.861
    1STR    H2955947   2.447   2.237   2.766
    1STR    H2A55948   2.348   2.459   2.737
    1STR    H2B55949   2.446   2.458   2.595
    1STR    H2C55950   2.449   2.598   2.703
    1STR   BCK155951   2.859   2.132   5.056
    1STR    O0355952   2.843   2.087   4.944
    1STR    N0455953   2.852   2.264   5.068
    1STR    C0555954   2.886   2.362   5.161
    1STR    C0655955   2.796   2.469   5.179
    1STR    C0755956   2.835   2.590   5.243
    1STR    N0855957   2.739   2.688   5.274
    1STR    C0955958   2.749   2.796   5.354
    1STR    O0A55959   2.853   2.826   5.413
    1STR    O0B55960   2.638   2.869   5.376
    1STR    C0C55961   2.510   2.871   5.312
    1STR    C0D55962   2.515   2.918   5.172
    1STR    C0E55963   2.417   2.750   5.311
    1STR    O0F55964   2.324   2.758   5.414
    1STR    C0G55965   2.211   2.843   5.409
    1STR    C0H55966   2.222   2.975   5.485
    1STR    C0I55967   2.128   2.825   5.285
    1STR    O0J55968   2.140   2.692   5.236
    1STR    C0K55969   2.961   1.533   6.309
    1STR    C0M55970   3.058   1.562   6.194
    1STR    C0N55971   3.033   1.543   6.445
    1STR    O0O55972   3.070   1.678   6.462
    1STR    C0P55973   2.980   1.763   6.509
    1STR    O0Q55974   2.875   1.731   6.565
    1STR    N0R55975   3.024   1.886   6.486
    1STR    C0S55976   2.964   2.007   6.515
    1STR    C0T55977   3.019   2.120   6.454
    1STR    C0U55978   2.966   2.246   6.480
    1STR    C0V55979   2.856   2.261   6.566
    1STR    C0W55980   2.790   2.395   6.556
    1STR    C0X55981   2.793   2.147   6.622
    1STR    N0Y55982   2.663   2.161   6.671
    1STR   BCK255983   2.558   2.079   6.691
    1STR    O1055984   2.448   2.127   6.678
    1STR    C1355985   2.852   2.022   6.600
    1STR    C1455986   2.972   2.605   5.272
    1STR    C1555987   3.059   2.496   5.264
    1STR    C1655988   3.015   2.372   5.217
    1STR    C1755989   3.107   2.254   5.237
    1STR    H1B55990   2.827   2.299   4.975
    1STR    H1C55991   2.694   2.453   5.147
    1STR    H1D55992   2.647   2.682   5.234
    1STR    H1E55993   2.462   2.950   5.367
    1STR    H1F55994   2.522   2.832   5.110
    1STR    H1G55995   2.418   2.952   5.142
    1STR    H1H55996   2.592   2.991   5.154
    1STR    H1I55997   2.472   2.658   5.327
    1STR    H1J55998   2.364   2.736   5.217
    1STR    H1K55999   2.142   2.797   5.476
    1STR    H1M56000   2.295   3.043   5.447
    1STR    H1N56001   2.249   2.957   5.589
    1STR    H1O56002   2.125   3.024   5.489
    1STR    H1P56003   2.023   2.841   5.309
    1STR    H1Q56004   2.158   2.895   5.208
    1STR   C01056005   2.100   2.587   5.323
    1STR   H01156006   2.159   2.592   5.412
    1STR   C01256007   1.952   2.599   5.360
    1STR   H01356008   1.893   2.640   5.280
    1STR   H01456009   1.934   2.669   5.439
    1STR   H01556010   1.908   2.504   5.388
    1STR   C01656011   2.146   2.454   5.264
    1STR   H01756012   2.075   2.405   5.200
    1STR   H01856013   2.227   2.479   5.198
    1STR   O01956014   2.187   2.357   5.359
    1STR   C02056015   2.283   2.270   5.301
    1STR   H02156016   2.260   2.252   5.198
    1STR   C02256017   2.416   2.346   5.309
    1STR   H02356018   2.424   2.427   5.237
    1STR   H02456019   2.503   2.284   5.296
    1STR   H02556020   2.426   2.387   5.408
    1STR   C02656021   2.293   2.134   5.373
    1STR   H02756022   2.370   2.074   5.327
    1STR   H02856023   2.331   2.173   5.463
    1STR   O02956024   2.176   2.054   5.395
    1STR   C03056025   2.177   1.925   5.463
    1STR   H03156026   2.182   1.939   5.566
    1STR   C03256027   2.035   1.867   5.480
    1STR   H03356028   1.969   1.881   5.395
    1STR   H03456029   1.982   1.917   5.562
    1STR   H03556030   2.037   1.762   5.506
    1STR   C03656031   2.296   1.826   5.454
    1STR   H03756032   2.306   1.776   5.550
    1STR   H03856033   2.272   1.747   5.387
    1STR   O03956034   2.423   1.874   5.413
    1STR   C04056035   2.535   1.793   5.449
    1STR   H04156036   2.532   1.787   5.555
    1STR   C04256037   2.522   1.650   5.393
    1STR   H04356038   2.517   1.651   5.285
    1STR   H04456039   2.433   1.598   5.430
    1STR   H04556040   2.607   1.589   5.422
    1STR   C04656041   2.673   1.850   5.409
    1STR   H04756042   2.749   1.775   5.433
    1STR   H04856043   2.680   1.861   5.306
    1STR   O04956044   2.726   1.970   5.462
    1STR   C05056045   2.669   2.094   5.423
    1STR   H05156046   2.624   2.090   5.324
    1STR   C05256047   2.570   2.131   5.529
    1STR   H05356048   2.613   2.136   5.628
    1STR   H05456049   2.495   2.056   5.530
    1STR   H05556050   2.527   2.229   5.514
    1STR   C05656051   2.776   2.201   5.430
    1STR   H05756052   2.824   2.188   5.525
    1STR   H05856053   2.856   2.191   5.359
    1STR   O05956054   2.718   2.329   5.413
    1STR   C06056055   2.738   2.409   5.527
    1STR   H06156056   2.721   2.347   5.614
    1STR   C06256057   2.881   2.465   5.525
    1STR   H06356058   2.885   2.568   5.491
    1STR   H06456059   2.948   2.401   5.470
    1STR   H06556060   2.928   2.475   5.620
    1STR   C06656061   2.633   2.518   5.528
    1STR   H06756062   2.683   2.613   5.534
    1STR   H06856063   2.580   2.519   5.435
    1STR   O06956064   2.548   2.496   5.639
    1STR   C07056065   2.451   2.595   5.670
    1STR   H07156066   2.452   2.591   5.778
    1STR   C07256067   2.481   2.739   5.628
    1STR   H07356068   2.393   2.802   5.629
    1STR   H07456069   2.524   2.744   5.531
    1STR   H07556070   2.548   2.796   5.687
    1STR   C07656071   2.312   2.546   5.629
    1STR   H07756072   2.312   2.494   5.535
    1STR   H07856073   2.279   2.477   5.705
    1STR   O07956074   2.218   2.652   5.620
    1STR   C08056075   2.090   2.630   5.672
    1STR   H08156076   2.135   2.615   5.765
    1STR   C08256077   2.008   2.761   5.684
    1STR   H08356078   1.958   2.794   5.593
    1STR   H08456079   2.074   2.843   5.711
    1STR   H08556080   1.930   2.754   5.759
    1STR   C08656081   2.014   2.501   5.634
    1STR   H08756082   1.910   2.527   5.614
    1STR   H08856083   2.057   2.457   5.546
    1STR   O08956084   2.016   2.402   5.736
    1STR   C09056085   1.964   2.274   5.701
    1STR   H09156086   1.944   2.224   5.795
    1STR   C09256087   1.831   2.280   5.624
    1STR   H09356088   1.843   2.320   5.523
    1STR   H09456089   1.757   2.340   5.676
    1STR   H09556090   1.789   2.180   5.613
    1STR   C09656091   2.070   2.193   5.625
    1STR   H09756092   2.020   2.138   5.547
    1STR   H09856093   2.140   2.258   5.574
    1STR   O09956094   2.135   2.099   5.711
    1STR   C10056095   2.278   2.094   5.712
    1STR   H10156096   2.313   2.069   5.616
    1STR   C10256097   2.340   2.233   5.728
    1STR   H10356098   2.276   2.295   5.788
    1STR   H10456099   2.349   2.285   5.634
    1STR   H10556100   2.441   2.232   5.766
    1STR   C10656101   2.337   1.967   5.778
    1STR   H10756102   2.330   1.961   5.885
    1STR   H10856103   2.278   1.880   5.749
    1STR   O10956104   2.469   1.948   5.726
    1STR   C11056105   2.559   1.864   5.795
    1STR   H11156106   2.559   1.900   5.897
    1STR   C11256107   2.502   1.721   5.806
    1STR   H11356108   2.457   1.684   5.715
    1STR   H11456109   2.424   1.718   5.882
    1STR   H11556110   2.579   1.649   5.835
    1STR   C11656111   2.706   1.874   5.735
    1STR   H11756112   2.769   1.815   5.797
    1STR   H11856113   2.715   1.818   5.645
    1STR   O11956114   2.773   2.004   5.720
    1STR   C12056115   2.917   2.007   5.734
    1STR   H12156116   2.941   1.986   5.837
    1STR   C12256117   2.984   1.895   5.651
    1STR   H12356118   2.957   1.904   5.546
    1STR   H12456119   2.956   1.795   5.684
    1STR   H12556120   3.092   1.901   5.658
    1STR   C12656121   2.993   2.141   5.704
    1STR   H12756122   3.085   2.142   5.762
    1STR   H12856123   3.026   2.138   5.601
    1STR   O12956124   2.932   2.270   5.716
    1STR   C13056125   2.871   2.315   5.836
    1STR   H13156126   2.787   2.249   5.844
    1STR   C13256127   2.965   2.296   5.951
    1STR   H13356128   2.923   2.326   6.046
    1STR   H13456129   3.055   2.353   5.932
    1STR   H13556130   2.988   2.191   5.958
    1STR   C13656131   2.823   2.464   5.841
    1STR   H13756132   2.741   2.482   5.774
    1STR   H13856133   2.780   2.480   5.937
    1STR   O13956134   2.927   2.560   5.825
    1STR   C14056135   2.896   2.700   5.834
    1STR   H14156136   2.929   2.739   5.930
    1STR   C14256137   2.993   2.763   5.734
    1STR   H14356138   2.972   2.732   5.632
    1STR   H14456139   3.096   2.734   5.757
    1STR   H14556140   2.988   2.872   5.737
    1STR   C14656141   2.751   2.748   5.803
    1STR   H14756142   2.757   2.854   5.782
    1STR   H14856143   2.732   2.705   5.706
    1STR   O14956144   2.636   2.713   5.888
    1STR   C15056145   2.539   2.814   5.934
    1STR   H15156146   2.558   2.805   6.040
    1STR   C15256147   2.579   2.961   5.904
    1STR   H15356148   2.581   2.982   5.797
    1STR   H15456149   2.676   2.986   5.947
    1STR   H15556150   2.506   3.032   5.944
    1STR   C15656151   2.379   2.802   5.916
    1STR   H15756152   2.340   2.867   5.992
    1STR   H15856153   2.348   2.854   5.826
    1STR   O15956154   2.299   2.680   5.920
    1STR   C16056155   2.173   2.678   5.995
    1STR   H16156156   2.219   2.639   6.081
    1STR   C16256157   2.098   2.813   6.011
    1STR   H16356158   2.088   2.867   5.918
    1STR   H16456159   2.147   2.881   6.079
    1STR   H16556160   1.999   2.799   6.053
    1STR   C16656161   2.065   2.567   5.973
    1STR   H16756162   1.995   2.606   5.902
    1STR   H16856163   2.114   2.480   5.930
    1STR   O16956164   1.982   2.523   6.081
    1STR   C17056165   1.839   2.530   6.067
    1STR   H17156166   1.810   2.630   6.098
    1STR   C17256167   1.777   2.501   5.928
    1STR   H17356168   1.669   2.489   5.935
    1STR   H17456169   1.816   2.407   5.890
    1STR   H17556170   1.795   2.578   5.854
    1STR   C17656171   1.779   2.430   6.166
    1STR   H17756172   1.843   2.424   6.253
    1STR   H17856173   1.681   2.464   6.199
    1STR   O17956174   1.769   2.299   6.110
    1STR   C18056175   1.716   2.204   6.200
    1STR   H18156176   1.708   2.248   6.299
    1STR   C18256177   1.574   2.167   6.157
    1STR   H18356178   1.575   2.120   6.059
    1STR   H18456179   1.512   2.256   6.152
    1STR   H18556180   1.529   2.098   6.229
    1STR   C18656181   1.810   2.083   6.208
    1STR   H18756182   1.904   2.116   6.251
    1STR   H18856183   1.770   2.006   6.274
    1STR   O18956184   1.837   2.030   6.079
    1STR   C19056185   1.932   1.924   6.076
    1STR   H19156186   1.977   1.905   6.174
    1STR   C19256187   1.853   1.801   6.031
    1STR   H19356188   1.808   1.817   5.933
    1STR   H19456189   1.773   1.778   6.101
    1STR   H19556190   1.918   1.714   6.025
    1STR   C19656191   2.044   1.959   5.977
    1STR   H19756192   2.078   1.870   5.925
    1STR   H19856193   2.004   2.024   5.900
    1STR   O19956194   2.160   2.011   6.042
    1STR   C20056195   2.192   2.147   6.012
    1STR   H20156196   2.163   2.169   5.912
    1STR   C20256197   2.095   2.240   6.081
    1STR   H20356198   2.079   2.215   6.185
    1STR   H20456199   1.998   2.243   6.032
    1STR   H20556200   2.138   2.339   6.079
    1STR   C20656201   2.342   2.192   6.021
    1STR   H20756202   2.352   2.288   5.972
    1STR   H20856203   2.361   2.224   6.119
    1STR   O20956204   2.452   2.100   6.000
    1STR   C21056205   2.583   2.150   5.960
    1STR   H21156206   2.597   2.138   5.853
    1STR   C21256207   2.595   2.297   5.999
    1STR   H21356208   2.540   2.321   6.088
    1STR   H21456209   2.563   2.363   5.919
    1STR   H21556210   2.696   2.322   6.029
    1STR   C21656211   2.699   2.071   6.027
    1STR   H21756212   2.780   2.133   6.063
    1STR   H21856213   2.643   2.025   6.103
    1STR   O21956214   2.764   1.958   5.975
    1STR   C22056215   2.819   1.868   6.070
    1STR   H22156216   2.779   1.888   6.167
    1STR   C22256217   2.770   1.728   6.030
    1STR   H22356218   2.817   1.688   5.940
    1STR   H22456219   2.662   1.730   6.021
    1STR   H22556220   2.789   1.652   6.102
    1STR   C22656221   2.971   1.879   6.087
    1STR   H22756222   2.995   1.833   6.183
    1STR   H22856223   3.017   1.823   6.007
    1STR   O22956224   3.018   2.014   6.088
    1STR   C23056225   3.156   2.031   6.118
    1STR   H23156226   3.167   1.995   6.220
    1STR   C23256227   3.244   1.945   6.026
    1STR   H23356228   3.219   1.963   5.921
    1STR   H23456229   3.233   1.839   6.047
    1STR   H23556230   3.350   1.968   6.040
    1STR   C23656231   3.205   2.180   6.113
    1STR   H23756232   3.311   2.180   6.136
    1STR   H23856233   3.201   2.218   6.011
    1STR   O23956234   3.137   2.268   6.203
    1STR   C24056235   3.191   2.399   6.229
    1STR   H24156236   3.146   2.430   6.322
    1STR   C24256237   3.342   2.397   6.259
    1STR   H24356238   3.374   2.493   6.299
    1STR   H24456239   3.401   2.379   6.169
    1STR   H24556240   3.367   2.321   6.333
    1STR   C24656241   3.157   2.511   6.128
    1STR   H24756242   3.211   2.602   6.153
    1STR   H24856243   3.195   2.485   6.029
    1STR   O24956244   3.020   2.547   6.112
    1STR   C25056245   2.941   2.594   6.221
    1STR   H25156246   2.908   2.506   6.275
    1STR   C25256247   3.018   2.685   6.317
    1STR   H25356248   3.049   2.776   6.266
    1STR   H25456249   3.107   2.639   6.359
    1STR   H25556250   2.955   2.710   6.401
    1STR   C25656251   2.823   2.671   6.155
    1STR   H25756252   2.851   2.775   6.141
    1STR   H25856253   2.810   2.634   6.056
    1STR   O25956254   2.691   2.672   6.209
    1STR   C26056255   2.606   2.566   6.172
    1STR   H26156256   2.627   2.535   6.070
    1STR   C26256257   2.644   2.465   6.275
    1STR   H26356258   2.653   2.516   6.370
    1STR   H26456259   2.732   2.408   6.251
    1STR   H26556260   2.561   2.400   6.288
    1STR   C26656261   2.453   2.588   6.172
    1STR   H26756262   2.425   2.688   6.141
    1STR   H26856263   2.406   2.517   6.103
    1STR   O26956264   2.397   2.571   6.299
    1STR   C27056265   2.256   2.562   6.311
    1STR   H27156266   2.272   2.589   6.411
    1STR   C27256267   2.164   2.684   6.295
    1STR   H27356268   2.129   2.733   6.383
    1STR   H27456269   2.075   2.661   6.240
    1STR   H27556270   2.218   2.761   6.242
    1STR   C27656271   2.197   2.422   6.328
    1STR   H27756272   2.176   2.407   6.431
    1STR   H27856273   2.102   2.414   6.277
    1STR   O27956274   2.289   2.322   6.292
    1STR   C28056275   2.311   2.206   6.374
    1STR   H28156276   2.274   2.219   6.475
    1STR   C28256277   2.274   2.072   6.305
    1STR   H28356278   2.329   2.049   6.216
    1STR   H28456279   2.169   2.055   6.284
    1STR   H28556280   2.307   1.988   6.363
    1STR   C28656281   2.459   2.203   6.386
    1STR   H28756282   2.489   2.220   6.284
    1STR   H28856283   2.494   2.284   6.451
    1STR   O28956284   2.514   2.079   6.428
    1STR   C29056285   2.608   2.025   6.339
    1STR   H29156286   2.540   2.001   6.258
    1STR   C29256287   2.714   2.132   6.310
    1STR   H29356288   2.813   2.093   6.287
    1STR   H29456289   2.717   2.200   6.391
    1STR   H29556290   2.686   2.200   6.232
    1STR   C29656291   2.670   1.893   6.383
    1STR   H29756292   2.777   1.890   6.370
    1STR   H29856293   2.657   1.879   6.488
    1STR   O29956294   2.613   1.791   6.304
    1STR   C30056295   2.608   1.666   6.369
    1STR   H30156296   2.605   1.678   6.478
    1STR   C30256297   2.472   1.615   6.324
    1STR   H30356298   2.470   1.598   6.216
    1STR   H30456299   2.393   1.687   6.347
    1STR   H30556300   2.444   1.523   6.372
    1STR   C30656301   2.726   1.572   6.336
    1STR   H30756302   2.743   1.518   6.427
    1STR   H30856303   2.697   1.501   6.259
    1STR   O30956304   2.854   1.628   6.307
    1STR    H1R56305   2.925   1.432   6.294
    1STR    H1S56306   3.133   1.483   6.186
    1STR    H1T56307   3.112   1.655   6.209
    1STR    H1U56308   3.005   1.568   6.099
    1STR    H1V56309   3.123   1.482   6.448
    1STR    H1W56310   2.970   1.510   6.527
    1STR    H1X56311   3.109   1.887   6.433
    1STR    H1Y56312   3.100   2.116   6.385
    1STR    H1Z56313   3.005   2.330   6.428
    1STR    H2056314   2.685   2.380   6.543
    1STR    H2156315   2.811   2.460   6.640
    1STR    H2256316   2.827   2.451   6.471
    1STR    H2356317   2.627   2.255   6.664
    1STR    H2756318   2.805   1.936   6.643
    1STR    H2856319   3.011   2.694   5.318
    1STR    H2956320   3.156   2.507   5.307
    1STR    H2A56321   3.106   2.183   5.155
    1STR    H2B56322   3.079   2.200   5.327
    1STR    H2C56323   3.210   2.287   5.251
    1STR   BCK156324   2.136   2.977   7.427
    1STR    O0356325   2.122   3.079   7.491
    1STR    N0456326   2.050   2.876   7.419
    1STR    C0556327   1.926   2.838   7.475
    1STR    C0656328   1.896   2.703   7.454
    1STR    C0756329   1.779   2.639   7.495
    1STR    N0856330   1.774   2.505   7.457
    1STR    C0956331   1.711   2.395   7.495
    1STR    O0A56332   1.608   2.392   7.562
    1STR    O0B56333   1.778   2.293   7.439
    1STR    C0C56334   1.775   2.156   7.483
    1STR    C0D56335   1.641   2.079   7.486
    1STR    C0E56336   1.892   2.078   7.422
    1STR    O0F56337   2.011   2.157   7.435
    1STR    C0G56338   2.137   2.088   7.432
    1STR    C0H56339   2.253   2.170   7.379
    1STR    C0I56340   2.173   2.014   7.561
    1STR    O0J56341   2.308   1.967   7.573
    1STR    C0K56342   2.322   3.132   8.616
    1STR    C0M56343   2.208   3.235   8.604
    1STR    C0N56344   2.268   2.985   8.625
    1STR    O0O56345   2.167   2.947   8.714
    1STR    C0P56346   2.139   2.817   8.740
    1STR    O0Q56347   2.033   2.783   8.790
    1STR    N0R56348   2.240   2.731   8.717
    1STR    C0S56349   2.242   2.593   8.720
    1STR    C0T56350   2.127   2.519   8.706
    1STR    C0U56351   2.131   2.381   8.693
    1STR    C0V56352   2.252   2.314   8.703
    1STR    C0W56353   2.246   2.168   8.688
    1STR    C0X56354   2.372   2.384   8.727
    1STR    N0Y56355   2.491   2.315   8.741
    1STR   BCK256356   2.605   2.357   8.795
    1STR    O1056357   2.612   2.459   8.860
    1STR    C1356358   2.363   2.525   8.733
    1STR    C1456359   1.686   2.712   7.568
    1STR    C1556360   1.712   2.849   7.594
    1STR    C1656361   1.830   2.913   7.549
    1STR    C1756362   1.851   3.054   7.597
    1STR    H1B56363   2.091   2.804   7.361
    1STR    H1C56364   1.969   2.637   7.413
    1STR    H1D56365   1.844   2.474   7.392
    1STR    H1E56366   1.804   2.164   7.583
    1STR    H1F56367   1.611   2.038   7.391
    1STR    H1G56368   1.649   1.993   7.551
    1STR    H1H56369   1.559   2.141   7.522
    1STR    H1I56370   1.865   2.052   7.321
    1STR    H1J56371   1.907   1.982   7.469
    1STR    H1K56372   2.121   2.021   7.354
    1STR    H1M56373   2.227   2.272   7.363
    1STR    H1N56374   2.292   2.129   7.286
    1STR    H1O56375   2.337   2.169   7.446
    1STR    H1P56376   2.152   2.081   7.642
    1STR    H1Q56377   2.106   1.930   7.570
    1STR   C01056378   2.379   2.013   7.689
    1STR   H01156379   2.312   2.049   7.764
    1STR   C01256380   2.463   1.902   7.751
    1STR   H01356381   2.531   1.863   7.678
    1STR   H01456382   2.404   1.819   7.785
    1STR   H01556383   2.519   1.938   7.836
    1STR   C01656384   2.459   2.137   7.668
    1STR   H01756385   2.540   2.146   7.740
    1STR   H01856386   2.503   2.131   7.570
    1STR   O01956387   2.372   2.249   7.681
    1STR   C02056388   2.437   2.367   7.639
    1STR   H02156389   2.536   2.338   7.617
    1STR   C02256390   2.379   2.431   7.513
    1STR   H02356391   2.274   2.453   7.518
    1STR   H02456392   2.400   2.372   7.425
    1STR   H02556393   2.428   2.525   7.494
    1STR   C02656394   2.462   2.466   7.747
    1STR   H02756395   2.372   2.523   7.762
    1STR   H02856396   2.484   2.420   7.842
    1STR   O02956397   2.573   2.539   7.695
    1STR   C03056398   2.590   2.667   7.743
    1STR   H03156399   2.564   2.653   7.845
    1STR   C03256400   2.738   2.709   7.726
    1STR   H03356401   2.763   2.739   7.625
    1STR   H03456402   2.803   2.627   7.753
    1STR   H03556403   2.769   2.794   7.785
    1STR   C03656404   2.493   2.766   7.680
    1STR   H03756405   2.480   2.852   7.743
    1STR   H03856406   2.546   2.812   7.597
    1STR   O03956407   2.371   2.707   7.632
    1STR   C04056408   2.249   2.735   7.699
    1STR   H04156409   2.249   2.705   7.803
    1STR   C04256410   2.235   2.887   7.690
    1STR   H04356411   2.287   2.926   7.604
    1STR   H04456412   2.284   2.942   7.770
    1STR   H04556413   2.131   2.918   7.691
    1STR   C04656414   2.130   2.656   7.639
    1STR   H04756415   2.038   2.708   7.668
    1STR   H04856416   2.142   2.656   7.532
    1STR   O04956417   2.115   2.522   7.684
    1STR   C05056418   2.000   2.439   7.648
    1STR   H05156419   1.983   2.456   7.543
    1STR   C05256420   2.074   2.313   7.644
    1STR   H05356421   2.146   2.303   7.721
    1STR   H05456422   2.133   2.309   7.555
    1STR   H05556423   2.007   2.230   7.648
    1STR   C05656424   1.863   2.423   7.735
    1STR   H05756425   1.873   2.416   7.839
    1STR   H05856426   1.800   2.510   7.721
    1STR   O05956427   1.777   2.308   7.733
    1STR   C06056428   1.702   2.263   7.849
    1STR   H06156429   1.776   2.228   7.919
    1STR   C06256430   1.622   2.370   7.921
    1STR   H06356431   1.551   2.417   7.853
    1STR   H06456432   1.689   2.443   7.965
    1STR   H06556433   1.565   2.330   8.005
    1STR   C06656434   1.601   2.149   7.819
    1STR   H06756435   1.537   2.134   7.906
    1STR   H06856436   1.534   2.182   7.740
    1STR   O06956437   1.647   2.018   7.788
    1STR   C07056438   1.763   1.971   7.853
    1STR   H07156439   1.775   2.010   7.953
    1STR   C07256440   1.750   1.821   7.861
    1STR   H07356441   1.733   1.779   7.761
    1STR   H07456442   1.667   1.792   7.925
    1STR   H07556443   1.841   1.778   7.902
    1STR   C07656444   1.875   2.012   7.760
    1STR   H07756445   1.848   1.975   7.662
    1STR   H07856446   1.886   2.118   7.762
    1STR   O07956447   2.004   1.970   7.779
    1STR   C08056448   2.066   2.019   7.894
    1STR   H08156449   1.994   1.986   7.962
    1STR   C08256450   2.178   1.916   7.901
    1STR   H08356451   2.200   1.877   7.804
    1STR   H08456452   2.156   1.828   7.959
    1STR   H08556453   2.271   1.954   7.941
    1STR   C08656454   2.109   2.169   7.926
    1STR   H08756455   2.131   2.174   8.031
    1STR   H08856456   2.204   2.184   7.878
    1STR   O08956457   2.027   2.290   7.922
    1STR   C09056458   2.074   2.416   7.986
    1STR   H09156459   2.061   2.405   8.093
    1STR   C09256460   2.226   2.427   7.962
    1STR   H09356461   2.258   2.377   7.873
    1STR   H09456462   2.283   2.388   8.046
    1STR   H09556463   2.260   2.528   7.944
    1STR   C09656464   2.002   2.558   7.953
    1STR   H09756465   2.065   2.643   7.943
    1STR   H09856466   1.998   2.569   7.851
    1STR   O09956467   1.866   2.593   7.991
    1STR   C10056468   1.805   2.698   7.909
    1STR   H10156469   1.845   2.697   7.808
    1STR   C10256470   1.653   2.684   7.895
    1STR   H10356471   1.606   2.658   7.990
    1STR   H10456472   1.629   2.608   7.822
    1STR   H10556473   1.608   2.775   7.858
    1STR   C10656474   1.833   2.838   7.962
    1STR   H10756475   1.746   2.883   8.008
    1STR   H10856476   1.904   2.824   8.040
    1STR   O10956477   1.888   2.920   7.860
    1STR   C11056478   1.956   3.036   7.906
    1STR   H11156479   2.005   3.086   7.823
    1STR   C11256480   1.858   3.137   7.967
    1STR   H11356481   1.798   3.095   8.047
    1STR   H11456482   1.788   3.173   7.891
    1STR   H11556483   1.910   3.224   8.006
    1STR   C11656484   2.074   3.000   7.995
    1STR   H11756485   2.137   3.087   8.010
    1STR   H11856486   2.032   2.972   8.090
    1STR   O11956487   2.151   2.890   7.946
    1STR   C12056488   2.245   2.840   8.040
    1STR   H12156489   2.255   2.922   8.102
    1STR   C12256490   2.169   2.735   8.119
    1STR   H12356491   2.182   2.731   8.222
    1STR   H12456492   2.196   2.636   8.093
    1STR   H12556493   2.063   2.746   8.121
    1STR   C12656494   2.392   2.809   7.992
    1STR   H12756495   2.394   2.714   7.941
    1STR   H12856496   2.417   2.891   7.926
    1STR   O12956497   2.503   2.810   8.084
    1STR   C13056498   2.637   2.779   8.038
    1STR   H13156499   2.641   2.816   7.938
    1STR   C13256500   2.731   2.872   8.111
    1STR   H13356501   2.703   2.872   8.215
    1STR   H13456502   2.720   2.974   8.075
    1STR   H13556503   2.835   2.842   8.100
    1STR   C13656504   2.683   2.628   8.056
    1STR   H13756505   2.710   2.613   8.161
    1STR   H13856506   2.599   2.563   8.033
    1STR   O13956507   2.793   2.573   7.983
    1STR   C14056508   2.811   2.430   8.004
    1STR   H14156509   2.767   2.404   8.099
    1STR   C14256510   2.741   2.341   7.901
    1STR   H14356511   2.639   2.321   7.932
    1STR   H14456512   2.787   2.242   7.894
    1STR   H14556513   2.742   2.384   7.802
    1STR   C14656514   2.959   2.391   8.023
    1STR   H14756515   3.008   2.367   7.928
    1STR   H14856516   3.012   2.477   8.063
    1STR   O14956517   2.968   2.287   8.121
    1STR   C15056518   2.977   2.152   8.077
    1STR   H15156519   2.985   2.145   7.969
    1STR   C15256520   3.106   2.101   8.142
    1STR   H15356521   3.103   2.112   8.250
    1STR   H15456522   3.192   2.158   8.106
    1STR   H15556523   3.124   1.996   8.119
    1STR   C15656524   2.854   2.070   8.125
    1STR   H15756525   2.871   2.025   8.223
    1STR   H15856526   2.772   2.141   8.138
    1STR   O15956527   2.818   1.968   8.029
    1STR   C16056528   2.706   1.882   8.057
    1STR   H16156529   2.676   1.838   7.962
    1STR   C16256530   2.747   1.766   8.147
    1STR   H16356531   2.792   1.800   8.240
    1STR   H16456532   2.820   1.703   8.097
    1STR   H16556533   2.661   1.703   8.171
    1STR   C16656534   2.586   1.963   8.109
    1STR   H16756535   2.611   2.002   8.207
    1STR   H16856536   2.586   2.047   8.040
    1STR   O16956537   2.454   1.905   8.112
    1STR   C17056538   2.361   1.993   8.179
    1STR   H17156539   2.400   2.002   8.279
    1STR   C17256540   2.376   2.134   8.118
    1STR   H17356541   2.380   2.133   8.009
    1STR   H17456542   2.465   2.186   8.154
    1STR   H17556543   2.294   2.198   8.145
    1STR   C17656544   2.207   1.956   8.196
    1STR   H17756545   2.161   2.014   8.275
    1STR   H17856546   2.156   2.002   8.118
    1STR   O17956547   2.153   1.823   8.203
    1STR   C18056548   2.010   1.808   8.176
    1STR   H18156549   1.994   1.811   8.069
    1STR   C18256550   1.964   1.664   8.203
    1STR   H18356551   1.943   1.642   8.307
    1STR   H18456552   2.041   1.594   8.169
    1STR   H18556553   1.873   1.642   8.147
    1STR   C18656554   1.910   1.916   8.229
    1STR   H18756555   1.807   1.882   8.217
    1STR   H18856556   1.923   1.943   8.332
    1STR   O18956557   1.929   2.031   8.151
    1STR   C19056558   1.872   2.157   8.172
    1STR   H19156559   1.890   2.214   8.083
    1STR   C19256560   1.720   2.154   8.190
    1STR   H19356561   1.686   2.076   8.256
    1STR   H19456562   1.670   2.132   8.096
    1STR   H19556563   1.681   2.250   8.224
    1STR   C19656564   1.954   2.233   8.273
    1STR   H19756565   1.911   2.332   8.282
    1STR   H19856566   1.938   2.174   8.360
    1STR   O19956567   2.095   2.242   8.256
    1STR   C20056568   2.158   2.312   8.365
    1STR   H20156569   2.107   2.281   8.456
    1STR   C20256570   2.305   2.279   8.380
    1STR   H20356571   2.366   2.320   8.301
    1STR   H20456572   2.327   2.176   8.378
    1STR   H20556573   2.345   2.320   8.472
    1STR   C20656574   2.147   2.463   8.354
    1STR   H20756575   2.057   2.491   8.302
    1STR   H20856576   2.155   2.511   8.451
    1STR   O20956577   2.246   2.517   8.276
    1STR   C21056578   2.353   2.578   8.344
    1STR   H21156579   2.385   2.520   8.429
    1STR   C21256580   2.443   2.566   8.225
    1STR   H21356581   2.395   2.594   8.133
    1STR   H21456582   2.481   2.466   8.206
    1STR   H21556583   2.522   2.637   8.236
    1STR   C21656584   2.334   2.722   8.400
    1STR   H21756585   2.234   2.732   8.442
    1STR   H21856586   2.402   2.739   8.483
    1STR   O21956587   2.361   2.819   8.298
    1STR   C22056588   2.321   2.954   8.319
    1STR   H22156589   2.369   2.956   8.414
    1STR   C22256590   2.404   3.054   8.233
    1STR   H22356591   2.396   3.052   8.126
    1STR   H22456592   2.510   3.033   8.250
    1STR   H22556593   2.382   3.156   8.260
    1STR   C22656594   2.165   2.988   8.323
    1STR   H22756595   2.146   3.067   8.394
    1STR   H22856596   2.141   3.045   8.236
    1STR   O22956597   2.076   2.876   8.343
    1STR   C23056598   1.938   2.885   8.382
    1STR   H23156599   1.938   2.889   8.491
    1STR   C23256600   1.875   3.019   8.341
    1STR   H23356601   1.880   3.034   8.234
    1STR   H23456602   1.923   3.103   8.390
    1STR   H23556603   1.770   3.022   8.370
    1STR   C23656604   1.847   2.765   8.329
    1STR   H23756605   1.744   2.779   8.362
    1STR   H23856606   1.838   2.775   8.223
    1STR   O23956607   1.880   2.624   8.343
    1STR   C24056608   1.870   2.553   8.468
    1STR   H24156609   1.966   2.516   8.495
    1STR   C24256610   1.856   2.648   8.578
    1STR   H24356611   1.773   2.711   8.558
    1STR   H24456612   1.946   2.708   8.583
    1STR   H24556613   1.845   2.598   8.674
    1STR   C24656614   1.787   2.423   8.484
    1STR   H24756615   1.720   2.438   8.566
    1STR   H24856616   1.727   2.403   8.396
    1STR   O24956617   1.875   2.312   8.517
    1STR   C25056618   1.828   2.192   8.581
    1STR   H25156619   1.806   2.230   8.680
    1STR   C25256620   1.695   2.137   8.528
    1STR   H25356621   1.713   2.061   8.454
    1STR   H25456622   1.629   2.213   8.487
    1STR   H25556623   1.641   2.087   8.608
    1STR   C25656624   1.930   2.071   8.600
    1STR   H25756625   1.984   2.088   8.691
    1STR   H25856626   1.869   1.984   8.619
    1STR   O25956627   2.035   2.032   8.508
    1STR   C26056628   2.116   1.918   8.548
    1STR   H26156629   2.125   1.921   8.656
    1STR   C26256630   2.042   1.792   8.499
    1STR   H26356631   2.087   1.756   8.409
    1STR   H26456632   1.936   1.807   8.483
    1STR   H26556633   2.050   1.704   8.560
    1STR   C26656634   2.263   1.916   8.492
    1STR   H26756635   2.282   1.836   8.421
    1STR   H26856636   2.270   2.007   8.440
    1STR   O26956637   2.374   1.924   8.580
    1STR   C27056638   2.507   1.951   8.527
    1STR   H27156639   2.562   1.920   8.615
    1STR   C27256640   2.562   1.846   8.430
    1STR   H27356641   2.503   1.832   8.341
    1STR   H27456642   2.564   1.747   8.477
    1STR   H27556643   2.664   1.871   8.402
    1STR   C27656644   2.558   2.101   8.517
    1STR   H27756645   2.476   2.166   8.539
    1STR   H27856646   2.625   2.110   8.602
    1STR   O27956647   2.627   2.164   8.406
    1STR   C28056648   2.703   2.284   8.446
    1STR   H28156649   2.668   2.312   8.543
    1STR   C28256650   2.851   2.248   8.450
    1STR   H28356651   2.891   2.233   8.351
    1STR   H28456652   2.869   2.158   8.509
    1STR   H28556653   2.909   2.329   8.496
    1STR   C28656654   2.676   2.421   8.379
    1STR   H28756655   2.679   2.408   8.272
    1STR   H28856656   2.572   2.439   8.403
    1STR   O28956657   2.756   2.539   8.417
    1STR   C29056658   2.681   2.655   8.465
    1STR   H29156659   2.590   2.662   8.412
    1STR   C29256660   2.642   2.622   8.604
    1STR   H29356661   2.590   2.527   8.606
    1STR   H29456662   2.575   2.699   8.637
    1STR   H29556663   2.726   2.617   8.672
    1STR   C29656664   2.734   2.803   8.462
    1STR   H29756665   2.790   2.823   8.554
    1STR   H29856666   2.808   2.812   8.383
    1STR   O29956667   2.625   2.902   8.449
    1STR   C30056668   2.656   3.043   8.472
    1STR   H30156669   2.710   3.043   8.564
    1STR   C30256670   2.765   3.091   8.374
    1STR   H30356671   2.728   3.095   8.272
    1STR   H30456672   2.854   3.028   8.376
    1STR   H30556673   2.798   3.191   8.400
    1STR   C30656674   2.545   3.159   8.487
    1STR   H30756675   2.579   3.242   8.548
    1STR   H30856676   2.551   3.211   8.391
    1STR   O30956677   2.401   3.149   8.498
    1STR    H1R56678   2.381   3.161   8.701
    1STR    H1S56679   2.173   3.267   8.702
    1STR    H1T56680   2.120   3.197   8.553
    1STR    H1U56681   2.241   3.325   8.553
    1STR    H1V56682   2.348   2.914   8.617
    1STR    H1W56683   2.208   2.954   8.544
    1STR    H1X56684   2.330   2.776   8.734
    1STR    H1Y56685   2.034   2.566   8.710
    1STR    H1Z56686   2.038   2.329   8.681
    1STR    H2056687   2.184   2.121   8.763
    1STR    H2156688   2.206   2.151   8.591
    1STR    H2256689   2.341   2.122   8.689
    1STR    H2356690   2.488   2.216   8.722
    1STR    H2756691   2.450   2.582   8.755
    1STR    H2856692   1.598   2.665   7.607
    1STR    H2956693   1.641   2.904   7.653
    1STR    H2A56694   1.951   3.060   7.635
    1STR    H2B56695   1.785   3.078   7.679
    1STR    H2C56696   1.839   3.132   7.524
    1STR   BCK156697   2.726   4.501   0.490
    1STR    O0356698   2.767   4.604   0.437
    1STR    N0456699   2.801   4.393   0.517
    1STR    C0556700   2.940   4.384   0.518
    1STR    C0656701   3.017   4.500   0.533
    1STR    C0756702   3.145   4.499   0.591
    1STR    N0856703   3.197   4.616   0.647
    1STR    C0956704   3.164   4.741   0.616
    1STR    O0A56705   3.099   4.772   0.517
    1STR    O0B56706   3.209   4.829   0.704
    1STR    C0C56707   3.111   4.920   0.755
    1STR    C0D56708   3.165   4.977   0.886
    1STR    C0E56709   3.059   5.029   0.658
    1STR    O0F56710   2.926   5.065   0.692
    1STR    C0G56711   2.820   5.028   0.603
    1STR    C0H56712   2.814   4.878   0.572
    1STR    C0I56713   2.693   5.079   0.673
    1STR    O0J56714   2.561   5.041   0.625
    1STR    C0K56715   2.271   3.907   1.568
    1STR    C0M56716   2.313   3.770   1.509
    1STR    C0N56717   2.386   4.005   1.548
    1STR    O0O56718   2.496   4.008   1.636
    1STR    C0P56719   2.497   4.105   1.727
    1STR    O0Q56720   2.397   4.147   1.783
    1STR    N0R56721   2.618   4.148   1.761
    1STR    C0S56722   2.742   4.139   1.701
    1STR    C0T56723   2.836   4.035   1.709
    1STR    C0U56724   2.972   4.060   1.675
    1STR    C0V56725   3.015   4.189   1.637
    1STR    C0W56726   3.162   4.221   1.621
    1STR    C0X56727   2.919   4.292   1.630
    1STR    N0Y56728   2.947   4.426   1.615
    1STR   BCK256729   2.902   4.521   1.698
    1STR    O1056730   2.910   4.639   1.666
    1STR    C1356731   2.786   4.261   1.658
    1STR    C1456732   3.206   4.375   0.614
    1STR    C1556733   3.133   4.257   0.594
    1STR    C1656734   3.000   4.260   0.550
    1STR    C1756735   2.921   4.132   0.550
    1STR    H1B56736   2.751   4.311   0.547
    1STR    H1C56737   2.967   4.594   0.525
    1STR    H1D56738   3.257   4.607   0.727
    1STR    H1E56739   3.029   4.853   0.778
    1STR    H1F56740   3.254   5.036   0.869
    1STR    H1G56741   3.089   5.040   0.933
    1STR    H1H56742   3.189   4.897   0.955
    1STR    H1I56743   3.061   5.000   0.554
    1STR    H1J56744   3.123   5.117   0.662
    1STR    H1K56745   2.831   5.083   0.510
    1STR    H1M56746   2.849   4.812   0.650
    1STR    H1N56747   2.873   4.853   0.484
    1STR    H1O56748   2.712   4.848   0.550
    1STR    H1P56749   2.700   5.054   0.779
    1STR    H1Q56750   2.703   5.187   0.667
    1STR   C01056751   2.462   5.070   0.726
    1STR   H01156752   2.486   4.999   0.805
    1STR   C01256753   2.474   5.216   0.768
    1STR   H01356754   2.448   5.272   0.680
    1STR   H01456755   2.569   5.248   0.811
    1STR   H01556756   2.401   5.247   0.842
    1STR   C01656757   2.310   5.053   0.697
    1STR   H01756758   2.256   5.132   0.748
    1STR   H01856759   2.289   5.075   0.594
    1STR   O01956760   2.254   4.932   0.750
    1STR   C02056761   2.111   4.911   0.757
    1STR   H02156762   2.091   4.871   0.855
    1STR   C02256763   2.028   5.036   0.740
    1STR   H02356764   2.058   5.088   0.652
    1STR   H02456765   2.041   5.108   0.819
    1STR   H02556766   1.924   5.013   0.723
    1STR   C02656767   2.067   4.809   0.651
    1STR   H02756768   2.064   4.863   0.559
    1STR   H02856769   2.134   4.725   0.641
    1STR   O02956770   1.934   4.767   0.647
    1STR   C03056771   1.899   4.664   0.734
    1STR   H03156772   1.913   4.713   0.830
    1STR   C03256773   1.748   4.653   0.720
    1STR   H03356774   1.722   4.628   0.618
    1STR   H03456775   1.700   4.749   0.740
    1STR   H03556776   1.708   4.580   0.790
    1STR   C03656777   1.984   4.533   0.742
    1STR   H03756778   2.076   4.565   0.791
    1STR   H03856779   1.928   4.472   0.811
    1STR   O03956780   2.029   4.441   0.640
    1STR   C04056781   2.097   4.327   0.699
    1STR   H04156782   2.121   4.365   0.795
    1STR   C04256783   2.003   4.210   0.733
    1STR   H04356784   1.970   4.153   0.649
    1STR   H04456785   1.912   4.245   0.781
    1STR   H04556786   2.050   4.138   0.800
    1STR   C04656787   2.236   4.284   0.639
    1STR   H04756788   2.209   4.248   0.543
    1STR   H04856789   2.298   4.373   0.627
    1STR   O04956790   2.319   4.182   0.703
    1STR   C05056791   2.464   4.183   0.689
    1STR   H05156792   2.491   4.210   0.587
    1STR   C05256793   2.528   4.286   0.777
    1STR   H05356794   2.519   4.267   0.883
    1STR   H05456795   2.486   4.382   0.755
    1STR   H05556796   2.634   4.294   0.754
    1STR   C05656797   2.533   4.046   0.719
    1STR   H05756798   2.483   3.987   0.794
    1STR   H05856799   2.525   3.985   0.630
    1STR   O05956800   2.674   4.057   0.749
    1STR   C06056801   2.710   4.050   0.888
    1STR   H06156802   2.635   4.100   0.948
    1STR   C06256803   2.717   3.903   0.931
    1STR   H06356804   2.790   3.848   0.872
    1STR   H06456805   2.621   3.853   0.920
    1STR   H06556806   2.746   3.894   1.036
    1STR   C06656807   2.845   4.121   0.917
    1STR   H06756808   2.858   4.134   1.025
    1STR   H06856809   2.929   4.060   0.884
    1STR   O06956810   2.853   4.244   0.848
    1STR   C07056811   2.904   4.358   0.918
    1STR   H07156812   2.859   4.359   1.016
    1STR   C07256813   3.055   4.350   0.936
    1STR   H07356814   3.105   4.336   0.842
    1STR   H07456815   3.084   4.269   1.002
    1STR   H07556816   3.092   4.444   0.979
    1STR   C07656817   2.859   4.475   0.827
    1STR   H07756818   2.917   4.454   0.742
    1STR   H07856819   2.757   4.461   0.793
    1STR   O07956820   2.892   4.612   0.846
    1STR   C08056821   2.785   4.696   0.889
    1STR   H08156822   2.778   4.672   0.989
    1STR   C08256823   2.826   4.839   0.921
    1STR   H08356824   2.835   4.902   0.836
    1STR   H08456825   2.919   4.840   0.978
    1STR   H08556826   2.752   4.888   0.985
    1STR   C08656827   2.644   4.680   0.822
    1STR   H08756828   2.591   4.774   0.837
    1STR   H08856829   2.665   4.672   0.717
    1STR   O08956830   2.558   4.568   0.864
    1STR   C09056831   2.417   4.591   0.894
    1STR   H09156832   2.406   4.661   0.973
    1STR   C09256833   2.352   4.663   0.781
    1STR   H09356834   2.253   4.694   0.815
    1STR   H09456835   2.343   4.591   0.702
    1STR   H09556836   2.403   4.752   0.749
    1STR   C09656837   2.317   4.473   0.924
    1STR   H09756838   2.223   4.515   0.958
    1STR   H09856839   2.301   4.431   0.828
    1STR   O09956840   2.342   4.357   1.004
    1STR   C10056841   2.247   4.251   0.988
    1STR   H10156842   2.222   4.232   0.888
    1STR   C10256843   2.316   4.115   1.014
    1STR   H10356844   2.402   4.126   1.079
    1STR   H10456845   2.353   4.074   0.922
    1STR   H10556846   2.248   4.039   1.055
    1STR   C10656847   2.111   4.275   1.057
    1STR   H10756848   2.076   4.177   1.087
    1STR   H10856849   2.130   4.341   1.141
    1STR   O10956850   2.004   4.338   0.987
    1STR   C11056851   1.872   4.337   1.045
    1STR   H11156852   1.809   4.378   0.966
    1STR   C11256853   1.815   4.195   1.063
    1STR   H11356854   1.861   4.139   1.143
    1STR   H11456855   1.825   4.137   0.971
    1STR   H11556856   1.709   4.201   1.086
    1STR   C11656857   1.852   4.432   1.165
    1STR   H11756858   1.785   4.386   1.237
    1STR   H11856859   1.944   4.452   1.221
    1STR   O11956860   1.787   4.551   1.121
    1STR   C12056861   1.863   4.672   1.120
    1STR   H12156862   1.884   4.704   1.220
    1STR   C12256863   1.999   4.649   1.054
    1STR   H12356864   2.041   4.737   1.008
    1STR   H12456865   1.989   4.574   0.981
    1STR   H12556866   2.075   4.608   1.120
    1STR   C12656867   1.772   4.781   1.061
    1STR   H12756868   1.751   4.759   0.957
    1STR   H12856869   1.677   4.777   1.113
    1STR   O12956870   1.822   4.914   1.077
    1STR   C13056871   1.773   5.011   0.984
    1STR   H13156872   1.815   4.982   0.889
    1STR   C13256873   1.620   5.009   0.969
    1STR   H13356874   1.571   5.029   1.064
    1STR   H13456875   1.584   4.914   0.930
    1STR   H13556876   1.589   5.085   0.897
    1STR   C13656877   1.819   5.155   1.016
    1STR   H13756878   1.781   5.223   0.940
    1STR   H13856879   1.780   5.187   1.113
    1STR   O13956880   1.960   5.165   1.021
    1STR   C14056881   2.026   5.292   1.027
    1STR   H14156882   2.070   5.310   0.930
    1STR   C14256883   1.935   5.412   1.059
    1STR   H14356884   1.887   5.400   1.156
    1STR   H14456885   1.859   5.426   0.983
    1STR   H14556886   1.994   5.504   1.062
    1STR   C14656887   2.143   5.282   1.127
    1STR   H14756888   2.231   5.240   1.080
    1STR   H14856889   2.173   5.381   1.159
    1STR   O14956890   2.108   5.210   1.243
    1STR   C15056891   2.111   5.067   1.241
    1STR   H15156892   2.184   5.041   1.314
    1STR   C15256893   1.978   5.024   1.305
    1STR   H15356894   1.892   5.065   1.253
    1STR   H15456895   1.970   5.061   1.407
    1STR   H15556896   1.965   4.917   1.307
    1STR   C15656897   2.159   4.985   1.117
    1STR   H15756898   2.081   4.913   1.098
    1STR   H15856899   2.162   5.040   1.024
    1STR   O15956900   2.281   4.913   1.146
    1STR   C16056901   2.394   4.914   1.056
    1STR   H16156902   2.366   4.867   0.962
    1STR   C16256903   2.425   5.061   1.033
    1STR   H16356904   2.412   5.125   1.119
    1STR   H16456905   2.352   5.096   0.962
    1STR   H16556906   2.526   5.077   0.996
    1STR   C16656907   2.518   4.844   1.121
    1STR   H16756908   2.596   4.915   1.144
    1STR   H16856909   2.476   4.809   1.209
    1STR   O16956910   2.587   4.727   1.080
    1STR   C17056911   2.616   4.623   1.177
    1STR   H17156912   2.639   4.658   1.276
    1STR   C17256913   2.491   4.545   1.180
    1STR   H17356914   2.403   4.605   1.161
    1STR   H17456915   2.479   4.503   1.275
    1STR   H17556916   2.496   4.462   1.112
    1STR   C17656917   2.721   4.514   1.141
    1STR   H17756918   2.710   4.418   1.188
    1STR   H17856919   2.700   4.488   1.038
    1STR   O17956920   2.856   4.554   1.154
    1STR   C18056921   2.914   4.550   1.282
    1STR   H18156922   2.840   4.563   1.361
    1STR   C18256923   2.987   4.416   1.293
    1STR   H18356924   3.049   4.399   1.205
    1STR   H18456925   2.916   4.333   1.299
    1STR   H18556926   3.053   4.411   1.379
    1STR   C18656927   3.009   4.670   1.278
    1STR   H18756928   3.071   4.675   1.368
    1STR   H18856929   3.076   4.660   1.193
    1STR   O18956930   2.932   4.789   1.258
    1STR   C19056931   2.892   4.851   1.379
    1STR   H19156932   2.875   4.776   1.455
    1STR   C19256933   3.008   4.943   1.421
    1STR   H19356934   3.028   5.018   1.344
    1STR   H19456935   3.100   4.888   1.438
    1STR   H19556936   2.985   4.995   1.513
    1STR   C19656937   2.762   4.932   1.361
    1STR   H19756938   2.760   5.009   1.438
    1STR   H19856939   2.766   4.984   1.265
    1STR   O19956940   2.642   4.853   1.372
    1STR   C20056941   2.520   4.919   1.409
    1STR   H20156942   2.548   4.946   1.508
    1STR   C20256943   2.500   5.058   1.347
    1STR   H20356944   2.567   5.082   1.265
    1STR   H20456945   2.513   5.134   1.420
    1STR   H20556946   2.398   5.070   1.314
    1STR   C20656947   2.383   4.836   1.422
    1STR   H20756948   2.366   4.813   1.524
    1STR   H20856949   2.300   4.898   1.397
    1STR   O20956950   2.358   4.709   1.361
    1STR   C21056951   2.239   4.638   1.399
    1STR   H21156952   2.235   4.629   1.506
    1STR   C21256953   2.115   4.708   1.350
    1STR   H21356954   2.135   4.761   1.258
    1STR   H21456955   2.077   4.776   1.423
    1STR   H21556956   2.037   4.635   1.335
    1STR   C21656957   2.243   4.494   1.345
    1STR   H21756958   2.256   4.489   1.238
    1STR   H21856959   2.327   4.451   1.395
    1STR   O21956960   2.139   4.406   1.374
    1STR   C22056961   2.178   4.269   1.392
    1STR   H22156962   2.206   4.256   1.495
    1STR   C22256963   2.046   4.198   1.354
    1STR   H22356964   2.003   4.239   1.266
    1STR   H22456965   1.962   4.223   1.416
    1STR   H22556966   2.054   4.092   1.339
    1STR   C22656967   2.298   4.206   1.316
    1STR   H22756968   2.312   4.101   1.334
    1STR   H22856969   2.259   4.199   1.221
    1STR   O22956970   2.419   4.279   1.297
    1STR   C23056971   2.542   4.231   1.350
    1STR   H23156972   2.527   4.164   1.433
    1STR   C23256973   2.620   4.156   1.242
    1STR   H23356974   2.630   4.217   1.152
    1STR   H23456975   2.569   4.064   1.215
    1STR   H23556976   2.719   4.129   1.277
    1STR   C23656977   2.619   4.344   1.419
    1STR   H23756978   2.719   4.308   1.437
    1STR   H23856979   2.638   4.436   1.369
    1STR   O23956980   2.548   4.374   1.537
    1STR   C24056981   2.510   4.508   1.560
    1STR   H24156982   2.478   4.555   1.470
    1STR   C24256983   2.394   4.490   1.656
    1STR   H24356984   2.361   4.582   1.702
    1STR   H24456985   2.424   4.419   1.732
    1STR   H24556986   2.310   4.444   1.606
    1STR   C24656987   2.612   4.609   1.609
    1STR   H24756988   2.650   4.576   1.703
    1STR   H24856989   2.692   4.622   1.537
    1STR   O24956990   2.539   4.728   1.625
    1STR   C25056991   2.571   4.827   1.721
    1STR   H25156992   2.586   4.780   1.816
    1STR   C25256993   2.709   4.887   1.691
    1STR   H25356994   2.707   4.984   1.644
    1STR   H25456995   2.763   4.824   1.623
    1STR   H25556996   2.773   4.894   1.778
    1STR   C25656997   2.440   4.912   1.742
    1STR   H25756998   2.369   4.832   1.746
    1STR   H25856999   2.429   4.958   1.838
    1STR   O25957000   2.388   5.005   1.645
    1STR   C26057001   2.252   5.045   1.659
    1STR   H26157002   2.232   5.064   1.765
    1STR   C26257003   2.233   5.169   1.567
    1STR   H26357004   2.258   5.145   1.465
    1STR   H26457005   2.298   5.253   1.585
    1STR   H26557006   2.131   5.206   1.569
    1STR   C26657007   2.142   4.946   1.620
    1STR   H26757008   2.047   4.977   1.663
    1STR   H26857009   2.126   4.956   1.514
    1STR   O26957010   2.174   4.809   1.637
    1STR   C27057011   2.109   4.730   1.734
    1STR   H27157012   2.128   4.626   1.708
    1STR   C27257013   2.172   4.754   1.867
    1STR   H27357014   2.186   4.861   1.879
    1STR   H27457015   2.269   4.706   1.869
    1STR   H27557016   2.116   4.716   1.952
    1STR   C27657017   1.961   4.751   1.738
    1STR   H27757018   1.919   4.669   1.793
    1STR   H27857019   1.938   4.843   1.790
    1STR   O27957020   1.907   4.757   1.609
    1STR   C28057021   1.834   4.642   1.573
    1STR   H28157022   1.761   4.617   1.649
    1STR   C28257023   1.763   4.686   1.445
    1STR   H28357024   1.823   4.763   1.397
    1STR   H28457025   1.670   4.738   1.463
    1STR   H28557026   1.743   4.604   1.376
    1STR   C28657027   1.922   4.518   1.563
    1STR   H28757028   1.878   4.450   1.491
    1STR   H28857029   2.019   4.546   1.525
    1STR   O28957030   1.943   4.453   1.690
    1STR   C29057031   1.996   4.322   1.673
    1STR   H29157032   2.031   4.322   1.573
    1STR   C29257033   2.123   4.286   1.748
    1STR   H29357034   2.107   4.236   1.842
    1STR   H29457035   2.188   4.371   1.763
    1STR   H29557036   2.180   4.211   1.693
    1STR   C29657037   1.886   4.217   1.684
    1STR   H29757038   1.875   4.182   1.785
    1STR   H29857039   1.793   4.268   1.662
    1STR   O29957040   1.904   4.110   1.591
    1STR   C30057041   1.958   3.991   1.643
    1STR   H30157042   2.027   4.015   1.724
    1STR   C30257043   1.833   3.919   1.691
    1STR   H30357044   1.855   3.832   1.750
    1STR   H30457045   1.769   3.890   1.607
    1STR   H30557046   1.775   3.985   1.754
    1STR   C30657047   2.030   3.909   1.533
    1STR   H30757048   2.036   3.804   1.560
    1STR   H30857049   1.968   3.910   1.444
    1STR   O30957050   2.160   3.957   1.496
    1STR    H1R57051   2.243   3.907   1.673
    1STR    H1S57052   2.400   3.730   1.561
    1STR    H1T57053   2.340   3.781   1.405
    1STR    H1U57054   2.234   3.696   1.512
    1STR    H1V57055   2.345   4.105   1.547
    1STR    H1W57056   2.430   3.984   1.451
    1STR    H1X57057   2.611   4.218   1.837
    1STR    H1Y57058   2.810   3.941   1.750
    1STR    H1Z57059   3.044   3.981   1.688
    1STR    H2057060   3.178   4.286   1.535
    1STR    H2157061   3.195   4.274   1.710
    1STR    H2257062   3.222   4.131   1.610
    1STR    H2357063   3.004   4.460   1.539
    1STR    H2757064   2.717   4.341   1.663
    1STR    H2857065   3.305   4.368   0.654
    1STR    H2957066   3.177   4.162   0.622
    1STR    H2A57067   2.826   4.141   0.498
    1STR    H2B57068   2.901   4.099   0.651
    1STR    H2C57069   2.981   4.056   0.501
    1STR   BCK157070   2.368   4.727   2.681
    1STR    O0357071   2.258   4.678   2.702
    1STR    N0457072   2.395   4.857   2.668
    1STR    C0557073   2.338   4.959   2.740
    1STR    C0657074   2.201   4.984   2.735
    1STR    C0757075   2.140   5.085   2.813
    1STR    N0857076   2.002   5.099   2.805
    1STR    C0957077   1.907   5.164   2.869
    1STR    O0A57078   1.918   5.264   2.939
    1STR    O0B57079   1.794   5.093   2.847
    1STR    C0C57080   1.700   5.065   2.952
    1STR    C0D57081   1.578   5.155   2.931
    1STR    C0E57082   1.660   4.914   2.956
    1STR    O0F57083   1.739   4.825   3.036
    1STR    C0G57084   1.848   4.758   2.974
    1STR    C0H57085   1.971   4.843   2.975
    1STR    C0I57086   1.896   4.624   3.033
    1STR    O0J57087   1.828   4.510   2.984
    1STR    C0K57088   3.174   5.092   3.910
    1STR    C0M57089   3.159   5.240   3.877
    1STR    C0N57090   3.079   5.050   4.023
    1STR    O0O57091   3.062   5.157   4.114
    1STR    C0P57092   3.029   5.125   4.237
    1STR    O0Q57093   3.105   5.131   4.332
    1STR    N0R57094   2.906   5.082   4.258
    1STR    C0S57095   2.790   5.072   4.184
    1STR    C0T57096   2.768   5.140   4.063
    1STR    C0U57097   2.637   5.160   4.019
    1STR    C0V57098   2.532   5.097   4.085
    1STR    C0W57099   2.394   5.110   4.030
    1STR    C0X57100   2.556   5.011   4.193
    1STR    N0Y57101   2.452   4.930   4.231
    1STR   BCK257102   2.451   4.801   4.260
    1STR    O1057103   2.348   4.741   4.241
    1STR    C1357104   2.684   5.004   4.246
    1STR    C1457105   2.219   5.155   2.903
    1STR    C1557106   2.357   5.129   2.912
    1STR    C1657107   2.418   5.036   2.825
    1STR    C1757108   2.568   5.016   2.827
    1STR    H1B57109   2.492   4.867   2.643
    1STR    H1C57110   2.147   4.922   2.668
    1STR    H1D57111   1.964   5.020   2.755
    1STR    H1E57112   1.743   5.092   3.047
    1STR    H1F57113   1.527   5.132   2.838
    1STR    H1G57114   1.506   5.142   3.012
    1STR    H1H57115   1.607   5.260   2.930
    1STR    H1I57116   1.647   4.874   2.856
    1STR    H1J57117   1.561   4.907   3.000
    1STR    H1K57118   1.815   4.744   2.874
    1STR    H1M57119   2.031   4.825   3.064
    1STR    H1N57120   1.945   4.946   2.980
    1STR    H1O57121   2.033   4.825   2.888
    1STR    H1P57122   2.001   4.611   3.009
    1STR    H1Q57123   1.897   4.629   3.141
    1STR   C01057124   1.885   4.389   3.034
    1STR   H01157125   1.924   4.410   3.133
    1STR   C01257126   1.775   4.283   3.033
    1STR   H01357127   1.692   4.309   3.098
    1STR   H01457128   1.813   4.185   3.061
    1STR   H01557129   1.735   4.279   2.933
    1STR   C01657130   2.008   4.343   2.957
    1STR   H01757131   1.982   4.280   2.874
    1STR   H01857132   2.045   4.432   2.909
    1STR   O01957133   2.105   4.275   3.039
    1STR   C02057134   2.241   4.294   2.998
    1STR   H02157135   2.228   4.248   2.904
    1STR   C02257136   2.273   4.445   2.993
    1STR   H02357137   2.238   4.497   3.080
    1STR   H02457138   2.232   4.501   2.910
    1STR   H02557139   2.379   4.465   2.983
    1STR   C02657140   2.358   4.212   3.064
    1STR   H02757141   2.353   4.208   3.172
    1STR   H02857142   2.349   4.109   3.032
    1STR   O02957143   2.484   4.266   3.016
    1STR   C03057144   2.608   4.255   3.087
    1STR   H03157145   2.590   4.232   3.191
    1STR   C03257146   2.686   4.133   3.038
    1STR   H03357147   2.691   4.131   2.929
    1STR   H03457148   2.638   4.043   3.072
    1STR   H03557149   2.787   4.131   3.079
    1STR   C03657150   2.695   4.385   3.076
    1STR   H03757151   2.762   4.392   3.161
    1STR   H03857152   2.764   4.370   2.996
    1STR   O03957153   2.631   4.510   3.044
    1STR   C04057154   2.684   4.636   3.096
    1STR   H04157155   2.668   4.642   3.201
    1STR   C04257156   2.834   4.660   3.095
    1STR   H04357157   2.873   4.709   3.008
    1STR   H04457158   2.891   4.572   3.123
    1STR   H04557159   2.859   4.730   3.172
    1STR   C04657160   2.602   4.755   3.041
    1STR   H04757161   2.667   4.842   3.030
    1STR   H04857162   2.566   4.728   2.942
    1STR   O04957163   2.497   4.790   3.131
    1STR   C05057164   2.381   4.856   3.083
    1STR   H05157165   2.428   4.932   3.028
    1STR   C05257166   2.297   4.761   3.002
    1STR   H05357167   2.357   4.692   2.943
    1STR   H05457168   2.236   4.816   2.933
    1STR   H05557169   2.231   4.705   3.066
    1STR   C05657170   2.291   4.925   3.186
    1STR   H05757171   2.249   4.850   3.252
    1STR   H05857172   2.350   4.995   3.244
    1STR   O05957173   2.180   4.996   3.131
    1STR   C06057174   2.110   5.075   3.226
    1STR   H06157175   2.146   5.047   3.325
    1STR   C06257176   2.152   5.221   3.210
    1STR   H06357177   2.092   5.273   3.135
    1STR   H06457178   2.258   5.232   3.188
    1STR   H06557179   2.130   5.276   3.299
    1STR   C06657180   1.956   5.065   3.215
    1STR   H06757181   1.911   5.142   3.275
    1STR   H06857182   1.935   5.099   3.116
    1STR   O06957183   1.892   4.937   3.234
    1STR   C07057184   1.772   4.928   3.315
    1STR   H07157185   1.804   4.948   3.414
    1STR   C07257186   1.662   5.033   3.290
    1STR   H07357187   1.604   5.010   3.201
    1STR   H07457188   1.699   5.135   3.281
    1STR   H07557189   1.591   5.033   3.373
    1STR   C07657190   1.708   4.787   3.326
    1STR   H07757191   1.645   4.786   3.414
    1STR   H07857192   1.642   4.775   3.241
    1STR   O07957193   1.796   4.673   3.333
    1STR   C08057194   1.731   4.546   3.351
    1STR   H08157195   1.674   4.556   3.443
    1STR   C08257196   1.619   4.521   3.249
    1STR   H08357197   1.654   4.537   3.147
    1STR   H08457198   1.534   4.587   3.264
    1STR   H08557199   1.580   4.420   3.257
    1STR   C08657200   1.828   4.422   3.364
    1STR   H08757201   1.799   4.359   3.447
    1STR   H08857202   1.805   4.353   3.284
    1STR   O08957203   1.969   4.450   3.368
    1STR   C09057204   2.069   4.344   3.378
    1STR   H09157205   2.101   4.329   3.480
    1STR   C09257206   2.022   4.210   3.319
    1STR   H09357207   1.981   4.220   3.220
    1STR   H09457208   1.943   4.163   3.377
    1STR   H09557209   2.106   4.141   3.309
    1STR   C09657210   2.198   4.395   3.312
    1STR   H09757211   2.199   4.349   3.219
    1STR   H09857212   2.180   4.499   3.291
    1STR   O09957213   2.329   4.362   3.364
    1STR   C10057214   2.445   4.430   3.307
    1STR   H10157215   2.458   4.384   3.213
    1STR   C10257216   2.421   4.569   3.258
    1STR   H10357217   2.331   4.623   3.277
    1STR   H10457218   2.432   4.572   3.151
    1STR   H10557219   2.499   4.629   3.296
    1STR   C10657220   2.582   4.419   3.387
    1STR   H10757221   2.567   4.461   3.484
    1STR   H10857222   2.614   4.315   3.393
    1STR   O10957223   2.701   4.488   3.351
    1STR   C11057224   2.807   4.481   3.446
    1STR   H11157225   2.773   4.436   3.538
    1STR   C11257226   2.923   4.397   3.393
    1STR   H11357227   2.968   4.451   3.310
    1STR   H11457228   2.890   4.299   3.360
    1STR   H11557229   3.000   4.385   3.469
    1STR   C11657230   2.855   4.622   3.485
    1STR   H11757231   2.768   4.682   3.507
    1STR   H11857232   2.915   4.613   3.576
    1STR   O11957233   2.941   4.684   3.390
    1STR   C12057234   2.966   4.821   3.419
    1STR   H12157235   2.955   4.840   3.526
    1STR   C12257236   3.112   4.848   3.380
    1STR   H12357237   3.129   4.824   3.276
    1STR   H12457238   3.179   4.787   3.440
    1STR   H12557239   3.138   4.953   3.396
    1STR   C12657240   2.869   4.912   3.342
    1STR   H12757241   2.867   5.010   3.390
    1STR   H12857242   2.904   4.930   3.241
    1STR   O12957243   2.741   4.851   3.332
    1STR   C13057244   2.633   4.930   3.375
    1STR   H13157245   2.669   4.992   3.455
    1STR   C13257246   2.604   5.045   3.277
    1STR   H13357247   2.578   5.011   3.178
    1STR   H13457248   2.691   5.109   3.267
    1STR   H13557249   2.525   5.109   3.315
    1STR   C13657250   2.511   4.846   3.430
    1STR   H13757251   2.454   4.912   3.495
    1STR   H13857252   2.447   4.828   3.346
    1STR   O13957253   2.520   4.715   3.494
    1STR   C14057254   2.397   4.668   3.558
    1STR   H14157255   2.403   4.729   3.645
    1STR   C14257256   2.264   4.716   3.501
    1STR   H14357257   2.213   4.647   3.435
    1STR   H14457258   2.267   4.813   3.454
    1STR   H14557259   2.193   4.725   3.581
    1STR   C14657260   2.367   4.519   3.604
    1STR   H14757261   2.295   4.544   3.679
    1STR   H14857262   2.299   4.470   3.540
    1STR   O14957263   2.452   4.427   3.678
    1STR   C15057264   2.474   4.287   3.644
    1STR   H15157265   2.487   4.272   3.539
    1STR   C15257266   2.606   4.257   3.716
    1STR   H15357267   2.592   4.257   3.824
    1STR   H15457268   2.680   4.334   3.696
    1STR   H15557269   2.650   4.162   3.685
    1STR   C15657270   2.374   4.171   3.665
    1STR   H15757271   2.434   4.081   3.677
    1STR   H15857272   2.315   4.178   3.754
    1STR   O15957273   2.288   4.147   3.554
    1STR   C16057274   2.195   4.039   3.568
    1STR   H16157275   2.168   4.013   3.466
    1STR   C16257276   2.256   3.909   3.623
    1STR   H16357277   2.281   3.917   3.729
    1STR   H16457278   2.347   3.884   3.568
    1STR   H16557279   2.187   3.825   3.612
    1STR   C16657280   2.063   4.082   3.637
    1STR   H16757281   2.006   4.144   3.572
    1STR   H16857282   2.001   3.993   3.653
    1STR   O16957283   2.082   4.145   3.762
    1STR   C17057284   2.037   4.280   3.785
    1STR   H17157285   2.014   4.283   3.890
    1STR   C17257286   2.155   4.368   3.769
    1STR   H17357287   2.235   4.346   3.838
    1STR   H17457288   2.130   4.473   3.782
    1STR   H17557289   2.191   4.352   3.669
    1STR   C17657290   1.922   4.344   3.706
    1STR   H17757291   1.949   4.353   3.603
    1STR   H17857292   1.830   4.286   3.708
    1STR   O17957293   1.900   4.476   3.757
    1STR   C18057294   1.827   4.560   3.670
    1STR   H18157295   1.786   4.497   3.595
    1STR   C18257296   1.702   4.620   3.731
    1STR   H18357297   1.727   4.678   3.819
    1STR   H18457298   1.631   4.541   3.754
    1STR   H18557299   1.649   4.686   3.662
    1STR   C18657300   1.919   4.666   3.609
    1STR   H18757301   2.012   4.668   3.662
    1STR   H18857302   1.950   4.639   3.508
    1STR   O18957303   1.852   4.792   3.610
    1STR   C19057304   1.934   4.905   3.623
    1STR   H19157305   2.003   4.895   3.704
    1STR   C19257306   2.028   4.916   3.506
    1STR   H19357307   2.027   4.832   3.437
    1STR   H19457308   2.128   4.937   3.540
    1STR   H19557309   2.000   5.001   3.450
    1STR   C19657310   1.842   5.026   3.654
    1STR   H19757311   1.758   5.040   3.587
    1STR   H19857312   1.795   5.004   3.750
    1STR   O19957313   1.915   5.146   3.671
    1STR   C20057314   1.939   5.231   3.560
    1STR   H20157315   1.918   5.179   3.469
    1STR   C20257316   1.838   5.346   3.563
    1STR   H20357317   1.854   5.415   3.645
    1STR   H20457318   1.737   5.307   3.571
    1STR   H20557319   1.844   5.404   3.470
    1STR   C20657320   2.088   5.276   3.562
    1STR   H20757321   2.104   5.352   3.486
    1STR   H20857322   2.107   5.326   3.655
    1STR   O20957323   2.177   5.164   3.547
    1STR   C21057324   2.319   5.178   3.525
    1STR   H21157325   2.338   5.108   3.444
    1STR   C21257326   2.365   5.315   3.476
    1STR   H21357327   2.345   5.389   3.553
    1STR   H21457328   2.318   5.348   3.384
    1STR   H21557329   2.473   5.315   3.460
    1STR   C21657330   2.407   5.127   3.642
    1STR   H21757331   2.398   5.195   3.726
    1STR   H21857332   2.371   5.031   3.675
    1STR   O21957333   2.544   5.115   3.602
    1STR   C22057334   2.635   5.054   3.696
    1STR   H22157335   2.591   5.069   3.793
    1STR   C22257336   2.659   4.904   3.682
    1STR   H22357337   2.716   4.868   3.598
    1STR   H22457338   2.569   4.846   3.691
    1STR   H22557339   2.728   4.871   3.756
    1STR   C22657340   2.775   5.117   3.693
    1STR   H22757341   2.783   5.182   3.779
    1STR   H22857342   2.855   5.043   3.707
    1STR   O22957343   2.798   5.186   3.571
    1STR   C23057344   2.910   5.272   3.579
    1STR   H23157345   2.943   5.281   3.682
    1STR   C23257346   3.027   5.206   3.507
    1STR   H23357347   3.008   5.195   3.401
    1STR   H23457348   3.046   5.107   3.549
    1STR   H23557349   3.119   5.264   3.520
    1STR   C23657350   2.873   5.413   3.528
    1STR   H23757351   2.949   5.484   3.562
    1STR   H23857352   2.879   5.414   3.419
    1STR   O23957353   2.744   5.466   3.561
    1STR   C24057354   2.687   5.440   3.690
    1STR   H24157355   2.660   5.335   3.693
    1STR   C24257356   2.784   5.476   3.804
    1STR   H24357357   2.783   5.583   3.824
    1STR   H24457358   2.888   5.452   3.786
    1STR   H24557359   2.760   5.421   3.894
    1STR   C24657360   2.550   5.512   3.698
    1STR   H24757361   2.562   5.611   3.743
    1STR   H24857362   2.513   5.529   3.597
    1STR   O24957363   2.453   5.432   3.768
    1STR   C25057364   2.340   5.501   3.821
    1STR   H25157365   2.377   5.576   3.890
    1STR   C25257366   2.256   5.580   3.719
    1STR   H25357367   2.202   5.516   3.650
    1STR   H25457368   2.318   5.647   3.659
    1STR   H25557369   2.182   5.642   3.769
    1STR   C25657370   2.253   5.408   3.908
    1STR   H25757371   2.315   5.376   3.991
    1STR   H25857372   2.172   5.468   3.948
    1STR   O25957373   2.202   5.289   3.850
    1STR   C26057374   2.100   5.223   3.927
    1STR   H26157375   2.130   5.216   4.031
    1STR   C26257376   1.967   5.300   3.916
    1STR   H26357377   1.943   5.322   3.813
    1STR   H26457378   1.966   5.397   3.964
    1STR   H26557379   1.884   5.243   3.957
    1STR   C26657380   2.084   5.077   3.882
    1STR   H26757381   1.978   5.050   3.884
    1STR   H26857382   2.122   5.067   3.781
    1STR   O26957383   2.144   4.986   3.972
    1STR   C27057384   2.157   4.851   3.932
    1STR   H27157385   2.208   4.808   4.016
    1STR   C27257386   2.025   4.772   3.913
    1STR   H27357387   1.939   4.828   3.877
    1STR   H27457388   1.983   4.733   4.001
    1STR   H27557389   2.039   4.681   3.858
    1STR   C27657390   2.255   4.827   3.818
    1STR   H27757391   2.245   4.723   3.791
    1STR   H27857392   2.225   4.883   3.731
    1STR   O27957393   2.393   4.856   3.844
    1STR   C28057394   2.465   4.763   3.924
    1STR   H28157395   2.406   4.752   4.013
    1STR   C28257396   2.480   4.626   3.860
    1STR   H28357397   2.544   4.555   3.910
    1STR   H28457398   2.533   4.633   3.766
    1STR   H28557399   2.384   4.577   3.856
    1STR   C28657400   2.606   4.811   3.963
    1STR   H28757401   2.624   4.912   3.930
    1STR   H28857402   2.616   4.818   4.068
    1STR   O28957403   2.706   4.717   3.929
    1STR   C29057404   2.839   4.759   3.946
    1STR   H29157405   2.847   4.866   3.929
    1STR   C29257406   2.884   4.725   4.086
    1STR   H29357407   2.890   4.618   4.104
    1STR   H29457408   2.812   4.765   4.156
    1STR   H29557409   2.980   4.770   4.109
    1STR   C29657410   2.912   4.681   3.838
    1STR   H29757411   2.951   4.586   3.875
    1STR   H29857412   2.838   4.654   3.764
    1STR   O29957413   3.008   4.762   3.772
    1STR   C30057414   3.132   4.777   3.839
    1STR   H30157415   3.115   4.798   3.944
    1STR   C30257416   3.211   4.646   3.830
    1STR   H30357417   3.220   4.612   3.726
    1STR   H30457418   3.165   4.565   3.887
    1STR   H30557419   3.311   4.658   3.870
    1STR   C30657420   3.205   4.895   3.774
    1STR   H30757421   3.308   4.901   3.808
    1STR   H30857422   3.211   4.876   3.667
    1STR   O30957423   3.140   5.020   3.791
    1STR    H1R57424   3.277   5.075   3.941
    1STR    H1S57425   3.199   5.302   3.958
    1STR    H1T57426   3.055   5.268   3.865
    1STR    H1U57427   3.213   5.266   3.786
    1STR    H1V57428   3.117   4.965   4.078
    1STR    H1W57429   2.983   5.020   3.983
    1STR    H1X57430   2.893   5.064   4.356
    1STR    H1Y57431   2.846   5.194   4.013
    1STR    H1Z57432   2.616   5.227   3.937
    1STR    H2057433   2.392   5.169   3.940
    1STR    H2157434   2.363   5.010   4.006
    1STR    H2257435   2.326   5.150   4.104
    1STR    H2357436   2.362   4.968   4.205
    1STR    H2757437   2.698   4.948   4.338
    1STR    H2857438   2.175   5.233   2.961
    1STR    H2957439   2.416   5.185   2.983
    1STR    H2A57440   2.611   5.058   2.736
    1STR    H2B57441   2.588   4.910   2.830
    1STR    H2C57442   2.615   5.061   2.914
    1STR   BCK157443   2.686   4.815   5.097
    1STR    O0357444   2.779   4.807   5.175
    1STR    N0457445   2.603   4.722   5.062
    1STR    C0557446   2.586   4.589   5.077
    1STR    C0657447   2.673   4.504   5.142
    1STR    C0757448   2.628   4.379   5.182
    1STR    N0857449   2.708   4.310   5.272
    1STR    C0957450   2.669   4.220   5.359
    1STR    O0A57451   2.555   4.180   5.361
    1STR    O0B57452   2.755   4.176   5.453
    1STR    C0C57453   2.890   4.215   5.469
    1STR    C0D57454   2.972   4.159   5.354
    1STR    C0E57455   2.904   4.364   5.506
    1STR    O0F57456   2.910   4.450   5.394
    1STR    C0G57457   2.875   4.589   5.409
    1STR    C0H57458   2.728   4.602   5.440
    1STR    C0I57459   2.967   4.685   5.487
    1STR    O0J57460   2.963   4.812   5.420
    1STR    C0K57461   1.876   5.065   6.439
    1STR    C0M57462   1.931   5.086   6.295
    1STR    C0N57463   1.943   4.954   6.529
    1STR    O0O57464   1.901   4.820   6.497
    1STR    C0P57465   1.959   4.711   6.547
    1STR    O0Q57466   2.036   4.715   6.640
    1STR    N0R57467   1.928   4.599   6.480
    1STR    C0S57468   1.996   4.477   6.457
    1STR    C0T57469   1.927   4.373   6.392
    1STR    C0U57470   1.993   4.256   6.353
    1STR    C0V57471   2.133   4.246   6.363
    1STR    C0W57472   2.199   4.134   6.282
    1STR    C0X57473   2.206   4.347   6.428
    1STR    N0Y57474   2.346   4.341   6.422
    1STR   BCK257475   2.437   4.438   6.432
    1STR    O1057476   2.411   4.549   6.471
    1STR    C1357477   2.134   4.457   6.483
    1STR    C1457478   2.503   4.331   5.130
    1STR    C1557479   2.424   4.413   5.048
    1STR    C1657480   2.467   4.544   5.024
    1STR    C1757481   2.392   4.641   4.938
    1STR    H1B57482   2.529   4.760   5.006
    1STR    H1C57483   2.770   4.542   5.171
    1STR    H1D57484   2.804   4.343   5.281
    1STR    H1E57485   2.918   4.158   5.558
    1STR    H1F57486   2.985   4.233   5.275
    1STR    H1G57487   3.070   4.127   5.389
    1STR    H1H57488   2.924   4.072   5.308
    1STR    H1I57489   2.990   4.382   5.571
    1STR    H1J57490   2.814   4.385   5.563
    1STR    H1K57491   2.885   4.629   5.308
    1STR    H1M57492   2.701   4.563   5.537
    1STR    H1N57493   2.669   4.541   5.377
    1STR    H1O57494   2.695   4.704   5.428
    1STR    H1P57495   2.943   4.691   5.593
    1STR    H1Q57496   3.070   4.652   5.481
    1STR   C01057497   2.905   4.925   5.484
    1STR   H01157498   2.855   4.891   5.573
    1STR   C01257499   3.020   5.018   5.521
    1STR   H01357500   3.073   5.051   5.432
    1STR   H01457501   3.091   4.968   5.587
    1STR   H01557502   2.984   5.107   5.573
    1STR   C01657503   2.801   4.997   5.395
    1STR   H01757504   2.844   5.026   5.299
    1STR   H01857505   2.718   4.930   5.374
    1STR   O01957506   2.749   5.112   5.462
    1STR   C02057507   2.669   5.205   5.389
    1STR   H02157508   2.622   5.267   5.465
    1STR   C02257509   2.759   5.299   5.308
    1STR   H02357510   2.816   5.244   5.233
    1STR   H02457511   2.829   5.351   5.373
    1STR   H02557512   2.699   5.374   5.256
    1STR   C02657513   2.556   5.143   5.303
    1STR   H02757514   2.597   5.127   5.205
    1STR   H02857515   2.518   5.047   5.335
    1STR   O02957516   2.448   5.232   5.281
    1STR   C03057517   2.354   5.247   5.386
    1STR   H03157518   2.386   5.180   5.464
    1STR   C03257519   2.361   5.391   5.443
    1STR   H03357520   2.358   5.471   5.372
    1STR   H03457521   2.453   5.407   5.499
    1STR   H03557522   2.277   5.417   5.508
    1STR   C03657523   2.213   5.195   5.350
    1STR   H03757524   2.169   5.156   5.442
    1STR   H03857525   2.146   5.277   5.323
    1STR   O03957526   2.208   5.092   5.250
    1STR   C04057527   2.114   4.989   5.279
    1STR   H04157528   2.154   4.955   5.373
    1STR   C04257529   1.971   5.034   5.304
    1STR   H04357530   1.925   5.073   5.216
    1STR   H04457531   1.960   5.100   5.390
    1STR   H04557532   1.908   4.950   5.324
    1STR   C04657533   2.114   4.872   5.177
    1STR   H04757534   2.075   4.899   5.079
    1STR   H04857535   2.218   4.847   5.162
    1STR   O04957536   2.035   4.762   5.231
    1STR   C05057537   2.045   4.625   5.184
    1STR   H05157538   1.969   4.617   5.108
    1STR   C05257539   2.171   4.606   5.112
    1STR   H05357540   2.171   4.682   5.035
    1STR   H05457541   2.172   4.509   5.064
    1STR   H05557542   2.257   4.614   5.177
    1STR   C05657543   2.043   4.506   5.286
    1STR   H05757544   2.116   4.431   5.258
    1STR   H05857545   2.080   4.538   5.381
    1STR   O05957546   1.921   4.437   5.311
    1STR   C06057547   1.914   4.352   5.427
    1STR   H06157548   1.890   4.412   5.512
    1STR   C06257549   1.788   4.266   5.411
    1STR   H06357550   1.786   4.209   5.319
    1STR   H06457551   1.700   4.330   5.411
    1STR   H06557552   1.777   4.197   5.495
    1STR   C06657553   2.045   4.278   5.469
    1STR   H06757554   2.099   4.232   5.388
    1STR   H06857555   2.118   4.352   5.500
    1STR   O06957556   2.017   4.182   5.572
    1STR   C07057557   2.120   4.140   5.663
    1STR   H07157558   2.142   4.221   5.733
    1STR   C07257559   2.059   4.024   5.742
    1STR   H07357560   2.042   3.938   5.678
    1STR   H07457561   1.964   4.050   5.786
    1STR   H07557562   2.126   3.993   5.823
    1STR   C07657563   2.252   4.092   5.600
    1STR   H07757564   2.324   4.072   5.680
    1STR   H07857565   2.237   3.994   5.557
    1STR   O07957566   2.305   4.181   5.502
    1STR   C08057567   2.373   4.294   5.555
    1STR   H08157568   2.305   4.330   5.629
    1STR   C08257569   2.500   4.242   5.628
    1STR   H08357570   2.535   4.147   5.589
    1STR   H08457571   2.485   4.221   5.733
    1STR   H08557572   2.582   4.314   5.618
    1STR   C08657573   2.399   4.406   5.447
    1STR   H08757574   2.497   4.450   5.463
    1STR   H08857575   2.403   4.357   5.352
    1STR   O08957576   2.303   4.509   5.421
    1STR   C09057577   2.340   4.645   5.453
    1STR   H09157578   2.399   4.644   5.542
    1STR   C09257579   2.433   4.711   5.352
    1STR   H09357580   2.500   4.638   5.310
    1STR   H09457581   2.492   4.789   5.400
    1STR   H09557582   2.384   4.758   5.268
    1STR   C09657583   2.217   4.737   5.475
    1STR   H09757584   2.248   4.829   5.523
    1STR   H09857585   2.196   4.758   5.374
    1STR   O09957586   2.095   4.689   5.533
    1STR   C10057587   1.975   4.768   5.519
    1STR   H10157588   2.003   4.855   5.466
    1STR   C10257589   1.866   4.690   5.458
    1STR   H10357590   1.844   4.601   5.514
    1STR   H10457591   1.878   4.663   5.357
    1STR   H10557592   1.775   4.745   5.463
    1STR   C10657593   1.902   4.821   5.640
    1STR   H10757594   1.988   4.848   5.695
    1STR   H10857595   1.842   4.909   5.620
    1STR   O10957596   1.831   4.720   5.711
    1STR   C11057597   1.693   4.723   5.746
    1STR   H11157598   1.674   4.791   5.829
    1STR   C11257599   1.594   4.760   5.636
    1STR   H11357600   1.592   4.683   5.559
    1STR   H11457601   1.617   4.856   5.589
    1STR   H11557602   1.493   4.767   5.675
    1STR   C11657603   1.671   4.578   5.794
    1STR   H11757604   1.681   4.572   5.902
    1STR   H11857605   1.569   4.546   5.773
    1STR   O11957606   1.762   4.491   5.725
    1STR   C12057607   1.874   4.444   5.801
    1STR   H12157608   1.875   4.498   5.894
    1STR   C12257609   1.828   4.297   5.816
    1STR   H12357610   1.817   4.251   5.718
    1STR   H12457611   1.731   4.292   5.865
    1STR   H12557612   1.895   4.234   5.872
    1STR   C12657613   2.013   4.468   5.731
    1STR   H12757614   2.022   4.383   5.672
    1STR   H12857615   2.000   4.551   5.666
    1STR   O12957616   2.143   4.475   5.798
    1STR   C13057617   2.260   4.540   5.738
    1STR   H13157618   2.242   4.522   5.635
    1STR   C13257619   2.265   4.688   5.762
    1STR   H13357620   2.277   4.711   5.866
    1STR   H13457621   2.174   4.731   5.729
    1STR   H13557622   2.346   4.742   5.714
    1STR   C13657623   2.405   4.502   5.784
    1STR   H13757624   2.416   4.548   5.880
    1STR   H13857625   2.411   4.397   5.806
    1STR   O13957626   2.518   4.546   5.705
    1STR   C14057627   2.634   4.596   5.775
    1STR   H14157628   2.607   4.609   5.877
    1STR   C14257629   2.749   4.496   5.786
    1STR   H14357630   2.830   4.521   5.718
    1STR   H14457631   2.716   4.393   5.770
    1STR   H14557632   2.794   4.499   5.885
    1STR   C14657633   2.680   4.737   5.730
    1STR   H14757634   2.758   4.771   5.798
    1STR   H14857635   2.727   4.742   5.634
    1STR   O14957636   2.569   4.824   5.724
    1STR   C15057637   2.585   4.965   5.736
    1STR   H15157638   2.534   4.993   5.824
    1STR   C15257639   2.721   5.029   5.772
    1STR   H15357640   2.787   5.044   5.689
    1STR   H15457641   2.773   4.977   5.852
    1STR   H15557642   2.703   5.130   5.811
    1STR   C15657643   2.508   5.031   5.622
    1STR   H15757644   2.533   5.137   5.621
    1STR   H15857645   2.547   4.986   5.532
    1STR   O15957646   2.366   5.011   5.621
    1STR   C16057647   2.293   5.089   5.716
    1STR   H16157648   2.356   5.098   5.800
    1STR   C16257649   2.277   5.237   5.687
    1STR   H16357650   2.201   5.257   5.614
    1STR   H16457651   2.372   5.284   5.668
    1STR   H16557652   2.239   5.286   5.774
    1STR   C16657653   2.154   5.032   5.751
    1STR   H16757654   2.100   5.111   5.802
    1STR   H16857655   2.102   5.014   5.658
    1STR   O16957656   2.156   4.918   5.837
    1STR   C17057657   2.045   4.876   5.921
    1STR   H17157658   2.066   4.916   6.018
    1STR   C17257659   1.922   4.959   5.894
    1STR   H17357660   1.917   5.022   5.806
    1STR   H17457661   1.907   5.023   5.980
    1STR   H17557662   1.837   4.895   5.885
    1STR   C17657663   2.016   4.717   5.935
    1STR   H17757664   1.918   4.700   5.974
    1STR   H17857665   2.009   4.680   5.837
    1STR   O17957666   2.115   4.631   5.998
    1STR   C18057667   2.111   4.506   6.077
    1STR   H18157668   2.100   4.524   6.182
    1STR   C18257669   2.024   4.383   6.051
    1STR   H18357670   2.048   4.337   5.956
    1STR   H18457671   1.917   4.393   6.067
    1STR   H18557672   2.054   4.305   6.119
    1STR   C18657673   2.254   4.458   6.056
    1STR   H18757674   2.260   4.401   5.965
    1STR   H18857675   2.311   4.548   6.047
    1STR   O18957676   2.314   4.373   6.148
    1STR   C19057677   2.444   4.327   6.112
    1STR   H19157678   2.475   4.283   6.205
    1STR   C19257679   2.439   4.206   6.017
    1STR   H19357680   2.379   4.223   5.928
    1STR   H19457681   2.394   4.120   6.067
    1STR   H19557682   2.539   4.176   5.986
    1STR   C19657683   2.550   4.436   6.077
    1STR   H19757684   2.645   4.402   6.118
    1STR   H19857685   2.567   4.434   5.971
    1STR   O19957686   2.513   4.566   6.130
    1STR   C20057687   2.588   4.689   6.121
    1STR   H20157688   2.569   4.735   6.218
    1STR   C20257689   2.738   4.669   6.111
    1STR   H20357690   2.781   4.687   6.013
    1STR   H20457691   2.767   4.569   6.138
    1STR   H20557692   2.784   4.738   6.181
    1STR   C20657693   2.538   4.790   6.015
    1STR   H20757694   2.623   4.811   5.953
    1STR   H20857695   2.461   4.749   5.952
    1STR   O20957696   2.516   4.926   6.045
    1STR   C21057697   2.387   4.978   6.013
    1STR   H21157698   2.364   4.942   5.915
    1STR   C21257699   2.295   4.904   6.095
    1STR   H21357700   2.255   4.820   6.041
    1STR   H21457701   2.218   4.965   6.142
    1STR   H21557702   2.358   4.864   6.170
    1STR   C21657703   2.360   5.129   6.037
    1STR   H21757704   2.363   5.153   6.142
    1STR   H21857705   2.440   5.187   5.991
    1STR   O21957706   2.230   5.165   5.985
    1STR   C22057707   2.171   5.287   6.026
    1STR   H22157708   2.137   5.264   6.126
    1STR   C22257709   2.279   5.398   6.016
    1STR   H22357710   2.333   5.396   5.922
    1STR   H22457711   2.355   5.384   6.092
    1STR   H22557712   2.240   5.499   6.026
    1STR   C22657713   2.041   5.334   5.953
    1STR   H22757714   1.999   5.415   6.013
    1STR   H22857715   2.070   5.378   5.858
    1STR   O22957716   1.935   5.240   5.931
    1STR   C23057717   1.810   5.293   5.883
    1STR   H23157718   1.776   5.366   5.957
    1STR   C23257719   1.837   5.364   5.748
    1STR   H23357720   1.889   5.296   5.680
    1STR   H23457721   1.896   5.454   5.758
    1STR   H23557722   1.743   5.392   5.700
    1STR   C23657723   1.691   5.194   5.859
    1STR   H23757724   1.597   5.248   5.866
    1STR   H23857725   1.696   5.162   5.754
    1STR   O23957726   1.679   5.067   5.923
    1STR   C24057727   1.654   5.056   6.063
    1STR   H24157728   1.726   5.117   6.117
    1STR   C24257729   1.511   5.106   6.088
    1STR   H24357730   1.487   5.108   6.193
    1STR   H24457731   1.438   5.041   6.038
    1STR   H24557732   1.496   5.207   6.053
    1STR   C24657733   1.672   4.906   6.102
    1STR   H24757734   1.628   4.888   6.198
    1STR   H24857735   1.615   4.843   6.034
    1STR   O24957736   1.807   4.858   6.106
    1STR   C25057737   1.850   4.777   6.215
    1STR   H25157738   1.810   4.829   6.298
    1STR   C25257739   1.786   4.639   6.191
    1STR   H25357740   1.848   4.579   6.127
    1STR   H25457741   1.690   4.645   6.140
    1STR   H25557742   1.771   4.582   6.281
    1STR   C25657743   2.006   4.768   6.242
    1STR   H25757744   2.024   4.673   6.284
    1STR   H25857745   2.060   4.769   6.154
    1STR   O25957746   2.087   4.862   6.314
    1STR   C26057747   2.212   4.814   6.367
    1STR   H26157748   2.187   4.764   6.459
    1STR   C26257749   2.273   4.695   6.294
    1STR   H26357750   2.252   4.688   6.190
    1STR   H26457751   2.236   4.600   6.327
    1STR   H26557752   2.380   4.695   6.301
    1STR   C26657753   2.319   4.922   6.414
    1STR   H26757754   2.279   4.981   6.495
    1STR   H26857755   2.400   4.862   6.452
    1STR   O26957756   2.378   5.018   6.324
    1STR   C27057757   2.509   5.065   6.356
    1STR   H27157758   2.534   5.023   6.453
    1STR   C27257759   2.623   5.042   6.255
    1STR   H27357760   2.604   5.092   6.161
    1STR   H27457761   2.644   4.936   6.240
    1STR   H27557762   2.716   5.089   6.285
    1STR   C27657763   2.511   5.213   6.379
    1STR   H27757764   2.418   5.236   6.423
    1STR   H27857765   2.589   5.234   6.452
    1STR   O27957766   2.525   5.292   6.264
    1STR   C28057767   2.550   5.426   6.301
    1STR   H28157768   2.610   5.431   6.392
    1STR   C28257769   2.639   5.482   6.190
    1STR   H28357770   2.589   5.480   6.094
    1STR   H28457771   2.730   5.422   6.182
    1STR   H28557772   2.670   5.584   6.213
    1STR   C28657773   2.420   5.505   6.324
    1STR   H28757774   2.454   5.587   6.385
    1STR   H28857775   2.376   5.546   6.233
    1STR   O28957776   2.324   5.444   6.408
    1STR   C29057777   2.217   5.369   6.353
    1STR   H29157778   2.261   5.303   6.279
    1STR   C29257779   2.166   5.277   6.463
    1STR   H29357780   2.235   5.206   6.504
    1STR   H29457781   2.096   5.211   6.420
    1STR   H29557782   2.114   5.327   6.543
    1STR   C29657783   2.100   5.456   6.296
    1STR   H29757784   2.089   5.554   6.341
    1STR   H29857785   2.122   5.485   6.195
    1STR   O29957786   1.976   5.386   6.295
    1STR   C30057787   1.886   5.418   6.401
    1STR   H30157788   1.940   5.458   6.487
    1STR   C30257789   1.792   5.525   6.346
    1STR   H30357790   1.738   5.486   6.259
    1STR   H30457791   1.847   5.613   6.315
    1STR   H30557792   1.718   5.555   6.421
    1STR   C30657793   1.806   5.296   6.453
    1STR   H30757794   1.748   5.332   6.537
    1STR   H30857795   1.735   5.260   6.379
    1STR   O30957796   1.887   5.190   6.505
    1STR    H1R57797   1.771   5.040   6.430
    1STR    H1S57798   1.901   5.012   6.227
    1STR    H1T57799   2.039   5.085   6.284
    1STR    H1U57800   1.896   5.176   6.246
    1STR    H1V57801   1.920   4.970   6.634
    1STR    H1W57802   2.051   4.964   6.524
    1STR    H1X57803   1.851   4.619   6.419
    1STR    H1Y57804   1.824   4.382   6.366
    1STR    H1Z57805   1.938   4.180   6.300
    1STR    H2057806   2.307   4.132   6.292
    1STR    H2157807   2.157   4.037   6.307
    1STR    H2257808   2.181   4.148   6.176
    1STR    H2357809   2.387   4.250   6.404
    1STR    H2757810   2.186   4.536   6.535
    1STR    H2857811   2.468   4.232   5.150
    1STR    H2957812   2.332   4.374   5.007
    1STR    H2A57813   2.300   4.602   4.901
    1STR    H2B57814   2.455   4.664   4.855
    1STR    H2C57815   2.368   4.734   4.989
    1STR   BCK157816   2.504   4.256   7.626
    1STR    O0357817   2.535   4.166   7.702
    1STR    N0457818   2.584   4.305   7.533
    1STR    C0557819   2.720   4.286   7.517
    1STR    C0657820   2.797   4.402   7.492
    1STR    C0757821   2.937   4.399   7.475
    1STR    N0857822   3.017   4.514   7.476
    1STR    C0957823   2.984   4.644   7.487
    1STR    O0A57824   2.874   4.689   7.465
    1STR    O0B57825   3.088   4.717   7.522
    1STR    C0C57826   3.079   4.849   7.574
    1STR    C0D57827   3.225   4.894   7.579
    1STR    C0E57828   2.992   4.952   7.496
    1STR    O0F57829   3.042   5.085   7.508
    1STR    C0G57830   3.036   5.152   7.634
    1STR    C0H57831   3.132   5.270   7.620
    1STR    C0I57832   2.898   5.201   7.674
    1STR    O0J57833   2.809   5.091   7.687
    1STR    C0K57834   2.571   4.199   8.860
    1STR    C0M57835   2.680   4.116   8.922
    1STR    C0N57836   2.638   4.266   8.741
    1STR    O0O57837   2.713   4.377   8.781
    1STR    C0P57838   2.823   4.422   8.721
    1STR    O0Q57839   2.911   4.354   8.669
    1STR    N0R57840   2.820   4.554   8.731
    1STR    C0S57841   2.899   4.655   8.679
    1STR    C0T57842   2.972   4.637   8.561
    1STR    C0U57843   3.032   4.747   8.498
    1STR    C0V57844   3.027   4.875   8.556
    1STR    C0W57845   3.106   4.990   8.496
    1STR    C0X57846   2.949   4.895   8.672
    1STR    N0Y57847   2.925   5.026   8.711
    1STR   BCK257848   2.806   5.083   8.730
    1STR    O1057849   2.793   5.204   8.716
    1STR    C1357850   2.892   4.783   8.736
    1STR    C1457851   2.999   4.274   7.489
    1STR    C1557852   2.927   4.159   7.523
    1STR    C1657853   2.787   4.162   7.531
    1STR    C1757854   2.715   4.029   7.540
    1STR    H1B57855   2.543   4.378   7.474
    1STR    H1C57856   2.745   4.495   7.495
    1STR    H1D57857   3.115   4.501   7.490
    1STR    H1E57858   3.039   4.841   7.675
    1STR    H1F57859   3.257   4.929   7.481
    1STR    H1G57860   3.241   4.975   7.649
    1STR    H1H57861   3.291   4.812   7.607
    1STR    H1I57862   2.887   4.944   7.522
    1STR    H1J57863   2.995   4.930   7.390
    1STR    H1K57864   3.072   5.087   7.712
    1STR    H1M57865   3.098   5.338   7.542
    1STR    H1N57866   3.232   5.236   7.593
    1STR    H1O57867   3.139   5.326   7.713
    1STR    H1P57868   2.907   5.255   7.768
    1STR    H1Q57869   2.862   5.274   7.602
    1STR   C01057870   2.695   5.112   7.769
    1STR   H01157871   2.735   5.100   7.867
    1STR   C01257872   2.626   5.250   7.755
    1STR   H01357873   2.587   5.270   7.656
    1STR   H01457874   2.691   5.332   7.782
    1STR   H01557875   2.538   5.259   7.817
    1STR   C01657876   2.598   4.994   7.765
    1STR   H01757877   2.618   4.930   7.848
    1STR   H01857878   2.493   5.022   7.775
    1STR   O01957879   2.622   4.919   7.650
    1STR   C02057880   2.599   4.783   7.667
    1STR   H02157881   2.515   4.762   7.733
    1STR   C02257882   2.563   4.734   7.529
    1STR   H02357883   2.634   4.776   7.460
    1STR   H02457884   2.465   4.771   7.501
    1STR   H02557885   2.561   4.626   7.521
    1STR   C02657886   2.733   4.731   7.719
    1STR   H02757887   2.815   4.778   7.667
    1STR   H02857888   2.749   4.765   7.820
    1STR   O02957889   2.733   4.591   7.703
    1STR   C03057890   2.788   4.521   7.810
    1STR   H03157891   2.769   4.575   7.900
    1STR   C03257892   2.704   4.400   7.828
    1STR   H03357893   2.746   4.311   7.781
    1STR   H03457894   2.606   4.417   7.791
    1STR   H03557895   2.692   4.385   7.934
    1STR   C03657896   2.935   4.488   7.800
    1STR   H03757897   2.959   4.404   7.864
    1STR   H03857898   2.961   4.451   7.704
    1STR   O03957899   3.011   4.604   7.832
    1STR   C04057900   3.139   4.578   7.888
    1STR   H04157901   3.134   4.531   7.986
    1STR   C04257902   3.219   4.488   7.797
    1STR   H04357903   3.217   4.536   7.699
    1STR   H04457904   3.175   4.389   7.788
    1STR   H04557905   3.321   4.474   7.831
    1STR   C04657906   3.203   4.716   7.904
    1STR   H04757907   3.304   4.710   7.944
    1STR   H04857908   3.210   4.759   7.804
    1STR   O04957909   3.119   4.792   7.989
    1STR   C05057910   3.112   4.930   7.960
    1STR   H05157911   3.174   4.959   7.875
    1STR   C05257912   2.966   4.961   7.930
    1STR   H05357913   2.904   4.946   8.017
    1STR   H05457914   2.926   4.901   7.849
    1STR   H05557915   2.956   5.065   7.901
    1STR   C05657916   3.157   5.005   8.084
    1STR   H05757917   3.099   4.968   8.168
    1STR   H05857918   3.261   4.982   8.103
    1STR   O05957919   3.138   5.146   8.066
    1STR   C06057920   3.126   5.218   8.188
    1STR   H06157921   3.045   5.175   8.245
    1STR   C06257922   3.257   5.208   8.268
    1STR   H06357923   3.340   5.249   8.210
    1STR   H06457924   3.283   5.106   8.293
    1STR   H06557925   3.249   5.263   8.361
    1STR   C06657926   3.090   5.365   8.160
    1STR   H06757927   3.079   5.421   8.253
    1STR   H06857928   3.173   5.411   8.106
    1STR   O06957929   2.975   5.385   8.078
    1STR   C07057930   2.846   5.360   8.135
    1STR   H07157931   2.849   5.346   8.243
    1STR   C07257932   2.763   5.485   8.101
    1STR   H07357933   2.757   5.498   7.993
    1STR   H07457934   2.808   5.575   8.143
    1STR   H07557935   2.662   5.476   8.139
    1STR   C07657936   2.791   5.236   8.065
    1STR   H07757937   2.844   5.238   7.970
    1STR   H07857938   2.824   5.143   8.108
    1STR   O07957939   2.654   5.239   8.027
    1STR   C08057940   2.553   5.161   8.090
    1STR   H08157941   2.559   5.196   8.191
    1STR   C08257942   2.419   5.214   8.037
    1STR   H08357943   2.393   5.172   7.940
    1STR   H08457944   2.420   5.323   8.027
    1STR   H08557945   2.337   5.188   8.103
    1STR   C08657946   2.549   5.005   8.090
    1STR   H08757947   2.512   4.976   8.189
    1STR   H08857948   2.470   4.973   8.022
    1STR   O08957949   2.666   4.927   8.057
    1STR   C09057950   2.657   4.788   8.094
    1STR   H09157951   2.623   4.796   8.194
    1STR   C09257952   2.551   4.709   8.016
    1STR   H09357953   2.582   4.677   7.918
    1STR   H09457954   2.458   4.763   8.003
    1STR   H09557955   2.529   4.616   8.069
    1STR   C09657956   2.793   4.713   8.104
    1STR   H09757957   2.852   4.727   8.014
    1STR   H09857958   2.852   4.759   8.183
    1STR   O09957959   2.775   4.572   8.135
    1STR   C10057960   2.892   4.490   8.129
    1STR   H10157961   2.930   4.513   8.034
    1STR   C10257962   3.005   4.541   8.220
    1STR   H10357963   2.966   4.556   8.319
    1STR   H10457964   3.044   4.636   8.185
    1STR   H10557965   3.088   4.472   8.225
    1STR   C10657966   2.879   4.333   8.132
    1STR   H10757967   2.947   4.293   8.058
    1STR   H10857968   2.922   4.297   8.225
    1STR   O10957969   2.749   4.272   8.117
    1STR   C11057970   2.743   4.151   8.038
    1STR   H11157971   2.805   4.168   7.949
    1STR   C11257972   2.801   4.026   8.106
    1STR   H11357973   2.735   3.990   8.185
    1STR   H11457974   2.900   4.045   8.148
    1STR   H11557975   2.811   3.945   8.034
    1STR   C11657976   2.601   4.123   7.982
    1STR   H11757977   2.578   4.205   7.918
    1STR   H11857978   2.601   4.035   7.918
    1STR   O11957979   2.496   4.112   8.076
    1STR   C12057980   2.374   4.184   8.049
    1STR   H12157981   2.315   4.168   8.136
    1STR   C12257982   2.392   4.335   8.046
    1STR   H12357983   2.302   4.380   8.003
    1STR   H12457984   2.478   4.369   7.991
    1STR   H12557985   2.404   4.377   8.145
    1STR   C12657986   2.283   4.128   7.939
    1STR   H12757987   2.328   4.156   7.845
    1STR   H12857988   2.282   4.019   7.945
    1STR   O12957989   2.149   4.179   7.951
    1STR   C13057990   2.060   4.163   7.839
    1STR   H13157991   2.113   4.197   7.750
    1STR   C13257992   2.022   4.014   7.829
    1STR   H13357993   1.955   3.985   7.910
    1STR   H13457994   2.108   3.948   7.835
    1STR   H13557995   1.971   3.993   7.735
    1STR   C13657996   1.930   4.249   7.837
    1STR   H13757997   1.858   4.193   7.780
    1STR   H13857998   1.875   4.252   7.927
    1STR   O13957999   1.951   4.384   7.792
    1STR   C14058000   1.854   4.487   7.822
    1STR   H14158001   1.844   4.493   7.929
    1STR   C14258002   1.911   4.625   7.789
    1STR   H14358003   2.011   4.634   7.829
    1STR   H14458004   1.851   4.704   7.832
    1STR   H14558005   1.920   4.648   7.685
    1STR   C14658006   1.709   4.471   7.776
    1STR   H14758007   1.651   4.533   7.843
    1STR   H14858008   1.691   4.515   7.680
    1STR   O14958009   1.666   4.335   7.779
    1STR   C15058010   1.528   4.314   7.805
    1STR   H15158011   1.467   4.392   7.760
    1STR   C15258012   1.494   4.181   7.737
    1STR   H15358013   1.559   4.102   7.772
    1STR   H15458014   1.507   4.190   7.629
    1STR   H15558015   1.390   4.153   7.756
    1STR   C15658016   1.507   4.308   7.957
    1STR   H15758017   1.409   4.271   7.983
    1STR   H15858018   1.582   4.240   7.998
    1STR   O15958019   1.522   4.441   8.003
    1STR   C16058020   1.557   4.464   8.138
    1STR   H16158021   1.595   4.566   8.135
    1STR   C16258022   1.433   4.463   8.228
    1STR   H16358023   1.385   4.366   8.229
    1STR   H16458024   1.361   4.538   8.195
    1STR   H16558025   1.460   4.489   8.331
    1STR   C16658026   1.670   4.377   8.192
    1STR   H16758027   1.701   4.422   8.286
    1STR   H16858028   1.638   4.276   8.216
    1STR   O16958029   1.776   4.373   8.097
    1STR   C17058030   1.905   4.338   8.145
    1STR   H17158031   1.896   4.368   8.245
    1STR   C17258032   1.919   4.185   8.163
    1STR   H17358033   2.017   4.156   8.200
    1STR   H17458034   1.902   4.124   8.076
    1STR   H17558035   1.847   4.149   8.236
    1STR   C17658036   2.030   4.419   8.086
    1STR   H17758037   2.117   4.403   8.145
    1STR   H17858038   2.063   4.382   7.992
    1STR   O17958039   2.019   4.559   8.055
    1STR   C18058040   2.106   4.657   8.114
    1STR   H18158041   2.084   4.667   8.219
    1STR   C18258042   2.252   4.621   8.109
    1STR   H18358043   2.308   4.707   8.144
    1STR   H18458044   2.286   4.596   8.009
    1STR   H18558045   2.272   4.541   8.179
    1STR   C18658046   2.085   4.797   8.051
    1STR   H18758047   2.178   4.837   8.012
    1STR   H18858048   2.018   4.796   7.966
    1STR   O18958049   2.040   4.885   8.153
    1STR   C19058050   1.901   4.915   8.155
    1STR   H19158051   1.882   4.952   8.256
    1STR   C19258052   1.881   5.033   8.060
    1STR   H19358053   1.905   5.007   7.957
    1STR   H19458054   1.945   5.116   8.088
    1STR   H19558055   1.778   5.068   8.062
    1STR   C19658056   1.804   4.796   8.129
    1STR   H19758057   1.703   4.828   8.153
    1STR   H19858058   1.801   4.776   8.022
    1STR   O19958059   1.835   4.671   8.190
    1STR   C20058060   1.850   4.669   8.331
    1STR   H20158061   1.914   4.754   8.353
    1STR   C20258062   1.707   4.695   8.384
    1STR   H20358063   1.675   4.626   8.461
    1STR   H20458064   1.631   4.686   8.307
    1STR   H20558065   1.698   4.797   8.422
    1STR   C20658066   1.923   4.545   8.396
    1STR   H20758067   1.972   4.585   8.479
    1STR   H20858068   1.849   4.476   8.434
    1STR   O20958069   2.042   4.479   8.350
    1STR   C21058070   2.089   4.363   8.423
    1STR   H21158071   2.121   4.406   8.515
    1STR   C21258072   1.983   4.259   8.469
    1STR   H21358073   1.884   4.269   8.426
    1STR   H21458074   1.970   4.266   8.577
    1STR   H21558075   2.016   4.158   8.446
    1STR   C21658076   2.214   4.297   8.358
    1STR   H21758077   2.186   4.254   8.264
    1STR   H21858078   2.291   4.371   8.340
    1STR   O21958079   2.266   4.191   8.438
    1STR   C22058080   2.366   4.101   8.389
    1STR   H22158081   2.398   4.041   8.473
    1STR   C22258082   2.306   3.988   8.303
    1STR   H22358083   2.220   4.019   8.243
    1STR   H22458084   2.268   3.908   8.367
    1STR   H22558085   2.381   3.944   8.238
    1STR   C22658086   2.499   4.168   8.349
    1STR   H22758087   2.568   4.092   8.311
    1STR   H22858088   2.488   4.242   8.273
    1STR   O22958089   2.554   4.234   8.460
    1STR   C23058090   2.682   4.291   8.440
    1STR   H23158091   2.713   4.331   8.532
    1STR   C23258092   2.794   4.190   8.420
    1STR   H23358093   2.790   4.145   8.323
    1STR   H23458094   2.786   4.109   8.493
    1STR   H23558095   2.892   4.235   8.434
    1STR   C23658096   2.681   4.427   8.374
    1STR   H23758097   2.784   4.453   8.355
    1STR   H23858098   2.629   4.425   8.279
    1STR   O23958099   2.634   4.527   8.466
    1STR   C24058100   2.613   4.652   8.403
    1STR   H24158101   2.686   4.655   8.325
    1STR   C24258102   2.472   4.649   8.345
    1STR   H24358103   2.460   4.563   8.280
    1STR   H24458104   2.452   4.739   8.290
    1STR   H24558105   2.394   4.644   8.420
    1STR   C24658106   2.646   4.780   8.481
    1STR   H24758107   2.601   4.785   8.579
    1STR   H24858108   2.753   4.777   8.498
    1STR   O24958109   2.612   4.897   8.406
    1STR   C25058110   2.701   5.007   8.422
    1STR   H25158111   2.750   4.996   8.515
    1STR   C25258112   2.818   4.997   8.328
    1STR   H25358113   2.786   4.985   8.228
    1STR   H25458114   2.881   4.912   8.349
    1STR   H25558115   2.876   5.088   8.332
    1STR   C25658116   2.634   5.146   8.421
    1STR   H25758117   2.653   5.198   8.514
    1STR   H25858118   2.682   5.212   8.350
    1STR   O25958119   2.494   5.135   8.397
    1STR   C26058120   2.410   5.246   8.428
    1STR   H26158121   2.412   5.265   8.535
    1STR   C26258122   2.446   5.377   8.358
    1STR   H26358123   2.432   5.371   8.250
    1STR   H26458124   2.548   5.407   8.377
    1STR   H26558125   2.381   5.457   8.393
    1STR   C26658126   2.269   5.197   8.393
    1STR   H26758127   2.196   5.278   8.392
    1STR   H26858128   2.267   5.152   8.295
    1STR   O26958129   2.234   5.104   8.493
    1STR   C27058130   2.164   4.990   8.446
    1STR   H27158131   2.086   5.016   8.374
    1STR   C27258132   2.265   4.892   8.387
    1STR   H27358133   2.346   4.874   8.457
    1STR   H27458134   2.308   4.928   8.294
    1STR   H27558135   2.217   4.796   8.367
    1STR   C27658136   2.102   4.930   8.570
    1STR   H27758137   2.183   4.905   8.636
    1STR   H27858138   2.039   5.003   8.622
    1STR   O27958139   2.029   4.813   8.538
    1STR   C28058140   1.997   4.738   8.653
    1STR   H28158141   1.996   4.809   8.732
    1STR   C28258142   1.847   4.703   8.656
    1STR   H28358143   1.820   4.611   8.608
    1STR   H28458144   1.787   4.786   8.621
    1STR   H28558145   1.810   4.681   8.753
    1STR   C28658146   2.096   4.618   8.679
    1STR   H28758147   2.134   4.622   8.779
    1STR   H28858148   2.041   4.525   8.673
    1STR   O28958149   2.209   4.604   8.592
    1STR   C29058150   2.313   4.507   8.622
    1STR   H29158151   2.351   4.464   8.530
    1STR   C29258152   2.425   4.583   8.685
    1STR   H29358153   2.399   4.613   8.786
    1STR   H29458154   2.443   4.670   8.624
    1STR   H29558155   2.518   4.526   8.688
    1STR   C29658156   2.286   4.392   8.719
    1STR   H29758157   2.380   4.363   8.766
    1STR   H29858158   2.229   4.437   8.797
    1STR   O29958159   2.223   4.276   8.670
    1STR   C30058160   2.247   4.152   8.737
    1STR   H30158161   2.231   4.159   8.843
    1STR   C30258162   2.145   4.051   8.682
    1STR   H30358163   2.154   4.038   8.575
    1STR   H30458164   2.043   4.082   8.702
    1STR   H30558165   2.160   3.953   8.723
    1STR   C30658166   2.390   4.107   8.718
    1STR   H30758167   2.389   4.005   8.682
    1STR   H30858168   2.434   4.164   8.639
    1STR   O30958169   2.464   4.107   8.839
    1STR    H1R58170   2.537   4.277   8.927
    1STR    H1S58171   2.761   4.181   8.948
    1STR    H1T58172   2.719   4.042   8.853
    1STR    H1U58173   2.649   4.065   9.011
    1STR    H1V58174   2.564   4.312   8.677
    1STR    H1W58175   2.697   4.193   8.685
    1STR    H1X58176   2.738   4.583   8.782
    1STR    H1Y58177   2.980   4.537   8.520
    1STR    H1Z58178   3.088   4.732   8.407
    1STR    H2058179   3.168   5.040   8.570
    1STR    H2158180   3.172   4.954   8.417
    1STR    H2258181   3.041   5.067   8.456
    1STR    H2358182   3.001   5.091   8.703
    1STR    H2758183   2.838   4.797   8.828
    1STR    H2858184   3.105   4.262   7.474
    1STR    H2958185   2.979   4.065   7.535
    1STR    H2A58186   2.706   3.997   7.644
    1STR    H2B58187   2.768   3.952   7.484
    1STR    H2C58188   2.616   4.038   7.497
    1STR   BCK158189   2.192   6.814   0.589
    1STR    O0358190   2.073   6.826   0.600
    1STR    N0458191   2.267   6.890   0.507
    1STR    C0558192   2.226   7.007   0.439
    1STR    C0658193   2.099   7.066   0.459
    1STR    C0758194   2.064   7.193   0.415
    1STR    N0858195   1.934   7.235   0.438
    1STR    C0958196   1.883   7.356   0.449
    1STR    O0A58197   1.952   7.456   0.468
    1STR    O0B58198   1.746   7.350   0.455
    1STR    C0C58199   1.673   7.411   0.562
    1STR    C0D58200   1.556   7.497   0.522
    1STR    C0E58201   1.631   7.298   0.660
    1STR    O0F58202   1.692   7.318   0.786
    1STR    C0G58203   1.832   7.317   0.774
    1STR    C0H58204   1.904   7.446   0.813
    1STR    C0I58205   1.903   7.186   0.781
    1STR    O0J58206   1.837   7.074   0.832
    1STR    C0K58207   2.775   7.852   1.680
    1STR    C0M58208   2.848   7.973   1.621
    1STR    C0N58209   2.624   7.870   1.699
    1STR    O0O58210   2.569   7.760   1.769
    1STR    C0P58211   2.605   7.743   1.896
    1STR    O0Q58212   2.687   7.810   1.957
    1STR    N0R58213   2.539   7.648   1.959
    1STR    C0S58214   2.436   7.568   1.915
    1STR    C0T58215   2.327   7.612   1.838
    1STR    C0U58216   2.232   7.517   1.796
    1STR    C0V58217   2.240   7.382   1.833
    1STR    C0W58218   2.140   7.281   1.784
    1STR    C0X58219   2.353   7.340   1.903
    1STR    N0Y58220   2.394   7.211   1.891
    1STR   BCK258221   2.485   7.161   1.972
    1STR    O1058222   2.478   7.181   2.092
    1STR    C1358223   2.445   7.434   1.950
    1STR    C1458224   2.157   7.267   0.342
    1STR    C1558225   2.283   7.210   0.314
    1STR    C1658226   2.320   7.083   0.363
    1STR    C1758227   2.468   7.049   0.366
    1STR    H1B58228   2.363   6.865   0.500
    1STR    H1C58229   2.021   7.018   0.514
    1STR    H1D58230   1.866   7.159   0.433
    1STR    H1E58231   1.738   7.482   0.612
    1STR    H1F58232   1.492   7.438   0.463
    1STR    H1G58233   1.501   7.533   0.609
    1STR    H1H58234   1.584   7.584   0.463
    1STR    H1I58235   1.657   7.199   0.621
    1STR    H1J58236   1.525   7.298   0.678
    1STR    H1K58237   1.859   7.326   0.673
    1STR    H1M58238   1.835   7.525   0.844
    1STR    H1N58239   1.959   7.484   0.728
    1STR    H1O58240   1.980   7.431   0.888
    1STR    H1P58241   1.930   7.153   0.681
    1STR    H1Q58242   1.993   7.213   0.835
    1STR   C01058243   1.930   6.969   0.859
    1STR   H01158244   1.917   6.971   0.964
    1STR   C01258245   1.878   6.833   0.816
    1STR   H01358246   1.862   6.832   0.710
    1STR   H01458247   1.782   6.810   0.863
    1STR   H01558248   1.948   6.753   0.841
    1STR   C01658249   2.084   6.992   0.842
    1STR   H01758250   2.104   7.054   0.926
    1STR   H01858251   2.142   6.901   0.857
    1STR   O01958252   2.128   7.060   0.722
    1STR   C02058253   2.225   7.165   0.728
    1STR   H02158254   2.238   7.181   0.829
    1STR   C02258255   2.358   7.119   0.674
    1STR   H02358256   2.436   7.186   0.700
    1STR   H02458257   2.369   7.145   0.574
    1STR   H02558258   2.385   7.016   0.696
    1STR   C02658259   2.186   7.308   0.679
    1STR   H02758260   2.087   7.307   0.636
    1STR   H02858261   2.178   7.379   0.761
    1STR   O02958262   2.271   7.361   0.579
    1STR   C03058263   2.384   7.429   0.628
    1STR   H03158264   2.401   7.405   0.732
    1STR   C03258265   2.503   7.390   0.539
    1STR   H03358266   2.471   7.375   0.438
    1STR   H03458267   2.546   7.295   0.567
    1STR   H03558268   2.582   7.465   0.541
    1STR   C03658269   2.364   7.578   0.627
    1STR   H03758270   2.442   7.621   0.687
    1STR   H03858271   2.383   7.616   0.531
    1STR   O03958272   2.234   7.621   0.656
    1STR   C04058273   2.231   7.711   0.763
    1STR   H04158274   2.262   7.652   0.848
    1STR   C04258275   2.324   7.832   0.745
    1STR   H04358276   2.333   7.858   0.640
    1STR   H04458277   2.425   7.812   0.782
    1STR   H04558278   2.288   7.919   0.800
    1STR   C04658279   2.088   7.759   0.776
    1STR   H04758280   2.062   7.819   0.689
    1STR   H04858281   2.019   7.676   0.773
    1STR   O04958282   2.073   7.834   0.895
    1STR   C05058283   2.070   7.754   1.012
    1STR   H05158284   2.042   7.653   0.983
    1STR   C05258285   2.208   7.747   1.080
    1STR   H05358286   2.272   7.829   1.049
    1STR   H05458287   2.259   7.654   1.055
    1STR   H05558288   2.202   7.748   1.189
    1STR   C05658289   1.961   7.813   1.101
    1STR   H05758290   1.986   7.799   1.206
    1STR   H05858291   1.958   7.921   1.085
    1STR   O05958292   1.832   7.759   1.067
    1STR   C06058293   1.778   7.668   1.161
    1STR   H06158294   1.817   7.692   1.259
    1STR   C06258295   1.627   7.693   1.166
    1STR   H06358296   1.581   7.673   1.069
    1STR   H06458297   1.607   7.797   1.193
    1STR   H06558298   1.579   7.629   1.241
    1STR   C06658299   1.808   7.520   1.130
    1STR   H06758300   1.773   7.456   1.211
    1STR   H06858301   1.754   7.488   1.041
    1STR   O06958302   1.947   7.502   1.111
    1STR   C07058303   2.002   7.373   1.131
    1STR   H07158304   1.992   7.361   1.238
    1STR   C07258305   1.917   7.254   1.089
    1STR   H07358306   1.838   7.280   1.019
    1STR   H07458307   1.865   7.209   1.173
    1STR   H07558308   1.980   7.180   1.043
    1STR   C07658309   2.157   7.370   1.109
    1STR   H07758310   2.201   7.463   1.143
    1STR   H07858311   2.181   7.303   1.189
    1STR   O07958312   2.228   7.333   0.988
    1STR   C08058313   2.352   7.263   1.018
    1STR   H08158314   2.397   7.318   1.100
    1STR   C08258315   2.305   7.120   1.048
    1STR   H08358316   2.211   7.111   1.099
    1STR   H08458317   2.386   7.081   1.105
    1STR   H08558318   2.302   7.045   0.969
    1STR   C08658319   2.476   7.219   0.934
    1STR   H08758320   2.537   7.171   1.007
    1STR   H08858321   2.457   7.128   0.883
    1STR   O08958322   2.557   7.300   0.850
    1STR   C09058323   2.682   7.245   0.802
    1STR   H09158324   2.758   7.248   0.876
    1STR   C09258325   2.674   7.093   0.777
    1STR   H09358326   2.639   7.034   0.861
    1STR   H09458327   2.774   7.056   0.767
    1STR   H09558328   2.613   7.063   0.693
    1STR   C09658329   2.765   7.341   0.711
    1STR   H09758330   2.871   7.322   0.726
    1STR   H09858331   2.748   7.331   0.605
    1STR   O09958332   2.735   7.473   0.757
    1STR   C10058333   2.807   7.588   0.717
    1STR   H10158334   2.805   7.590   0.609
    1STR   C10258335   2.721   7.703   0.771
    1STR   H10358336   2.732   7.716   0.878
    1STR   H10458337   2.616   7.685   0.755
    1STR   H10558338   2.746   7.798   0.724
    1STR   C10658339   2.949   7.609   0.776
    1STR   H10758340   3.001   7.686   0.719
    1STR   H10858341   2.939   7.652   0.876
    1STR   O10958342   3.030   7.492   0.781
    1STR   C11058343   3.102   7.470   0.903
    1STR   H11158344   3.150   7.373   0.890
    1STR   C11258345   3.210   7.577   0.925
    1STR   H11358346   3.167   7.676   0.936
    1STR   H11458347   3.280   7.579   0.842
    1STR   H11558348   3.267   7.556   1.016
    1STR   C11658349   3.011   7.457   1.026
    1STR   H11758350   3.045   7.378   1.093
    1STR   H11858351   3.010   7.550   1.083
    1STR   O11958352   2.880   7.432   0.980
    1STR   C12058353   2.786   7.421   1.083
    1STR   H12158354   2.819   7.485   1.163
    1STR   C12258355   2.653   7.487   1.046
    1STR   H12358356   2.622   7.482   0.945
    1STR   H12458357   2.652   7.594   1.057
    1STR   H12558358   2.574   7.441   1.103
    1STR   C12658359   2.772   7.271   1.119
    1STR   H12758360   2.712   7.248   1.205
    1STR   H12858361   2.703   7.233   1.053
    1STR   O12958362   2.887   7.186   1.111
    1STR   C13058363   2.856   7.051   1.072
    1STR   H13158364   2.820   7.054   0.971
    1STR   C13258365   2.987   6.974   1.067
    1STR   H13358366   3.036   6.972   1.164
    1STR   H13458367   3.055   7.021   0.996
    1STR   H13558368   2.970   6.872   1.035
    1STR   C13658369   2.748   6.983   1.159
    1STR   H13758370   2.794   6.956   1.251
    1STR   H13858371   2.667   7.051   1.185
    1STR   O13958372   2.692   6.864   1.106
    1STR   C14058373   2.549   6.858   1.105
    1STR   H14158374   2.514   6.932   1.034
    1STR   C14258375   2.522   6.720   1.049
    1STR   H14358376   2.564   6.641   1.109
    1STR   H14458377   2.571   6.713   0.952
    1STR   H14558378   2.415   6.700   1.044
    1STR   C14658379   2.476   6.877   1.241
    1STR   H14758380   2.477   6.782   1.292
    1STR   H14858381   2.531   6.944   1.307
    1STR   O14958382   2.339   6.918   1.230
    1STR   C15058383   2.292   7.012   1.328
    1STR   H15158384   2.315   6.960   1.418
    1STR   C15258385   2.362   7.152   1.333
    1STR   H15358386   2.338   7.219   1.258
    1STR   H15458387   2.471   7.153   1.330
    1STR   H15558388   2.323   7.217   1.410
    1STR   C15658389   2.140   7.035   1.330
    1STR   H15758390   2.119   7.079   1.426
    1STR   H15858391   2.107   7.116   1.267
    1STR   O15958392   2.066   6.916   1.309
    1STR   C16058393   1.955   6.924   1.220
    1STR   H16158394   1.970   7.010   1.157
    1STR   C16258395   1.961   6.801   1.130
    1STR   H16358396   2.049   6.802   1.067
    1STR   H16458397   1.873   6.793   1.069
    1STR   H16558398   1.958   6.712   1.190
    1STR   C16658399   1.812   6.934   1.279
    1STR   H16758400   1.805   7.004   1.362
    1STR   H16858401   1.748   6.976   1.202
    1STR   O16958402   1.774   6.801   1.316
    1STR   C17058403   1.645   6.750   1.285
    1STR   H17158404   1.574   6.797   1.354
    1STR   C17258405   1.596   6.773   1.141
    1STR   H17358406   1.664   6.729   1.069
    1STR   H17458407   1.583   6.879   1.116
    1STR   H17558408   1.499   6.727   1.126
    1STR   C17658409   1.653   6.599   1.316
    1STR   H17758410   1.670   6.588   1.423
    1STR   H17858411   1.555   6.554   1.298
    1STR   O17958412   1.750   6.526   1.236
    1STR   C18058413   1.866   6.481   1.307
    1STR   H18158414   1.897   6.568   1.361
    1STR   C18258415   1.829   6.367   1.404
    1STR   H18358416   1.787   6.282   1.350
    1STR   H18458417   1.755   6.397   1.479
    1STR   H18558418   1.917   6.333   1.458
    1STR   C18658419   1.988   6.441   1.220
    1STR   H18758420   1.969   6.346   1.170
    1STR   H18858421   2.002   6.513   1.139
    1STR   O18958422   2.107   6.430   1.301
    1STR   C19058423   2.226   6.495   1.255
    1STR   H19158424   2.249   6.463   1.153
    1STR   C19258425   2.205   6.645   1.259
    1STR   H19358426   2.283   6.697   1.311
    1STR   H19458427   2.116   6.670   1.315
    1STR   H19558428   2.201   6.687   1.159
    1STR   C19658429   2.348   6.465   1.345
    1STR   H19758430   2.322   6.491   1.448
    1STR   H19858431   2.366   6.358   1.343
    1STR   O19958432   2.464   6.541   1.304
    1STR   C20058433   2.578   6.536   1.390
    1STR   H20158434   2.543   6.558   1.491
    1STR   C20258435   2.629   6.391   1.379
    1STR   H20358436   2.635   6.360   1.275
    1STR   H20458437   2.564   6.321   1.432
    1STR   H20558438   2.728   6.377   1.422
    1STR   C20658439   2.696   6.637   1.358
    1STR   H20758440   2.787   6.594   1.397
    1STR   H20858441   2.717   6.641   1.251
    1STR   O20958442   2.685   6.774   1.406
    1STR   C21058443   2.797   6.835   1.474
    1STR   H21158444   2.803   6.781   1.569
    1STR   C21258445   2.931   6.806   1.402
    1STR   H21358446   3.001   6.888   1.414
    1STR   H21458447   2.918   6.789   1.295
    1STR   H21558448   2.978   6.716   1.442
    1STR   C21658449   2.782   6.987   1.519
    1STR   H21758450   2.705   6.999   1.594
    1STR   H21858451   2.870   7.008   1.578
    1STR   O21958452   2.760   7.094   1.422
    1STR   C22058453   2.833   7.217   1.449
    1STR   H22158454   2.826   7.225   1.556
    1STR   C22258455   2.981   7.188   1.417
    1STR   H22358456   3.041   7.278   1.409
    1STR   H22458457   2.990   7.136   1.322
    1STR   H22558458   3.030   7.126   1.492
    1STR   C22658459   2.788   7.361   1.394
    1STR   H22758460   2.826   7.440   1.452
    1STR   H22858461   2.860   7.376   1.317
    1STR   O22958462   2.650   7.401   1.352
    1STR   C23058463   2.600   7.538   1.372
    1STR   H23158464   2.591   7.553   1.479
    1STR   C23258465   2.698   7.650   1.330
    1STR   H23358466   2.690   7.682   1.227
    1STR   H23458467   2.802   7.627   1.348
    1STR   H23558468   2.674   7.741   1.385
    1STR   C23658469   2.458   7.577   1.311
    1STR   H23758470   2.445   7.684   1.323
    1STR   H23858471   2.460   7.572   1.203
    1STR   O23958472   2.335   7.508   1.344
    1STR   C24058473   2.245   7.556   1.447
    1STR   H24158474   2.242   7.481   1.525
    1STR   C24258475   2.290   7.688   1.512
    1STR   H24358476   2.286   7.772   1.442
    1STR   H24458477   2.391   7.680   1.553
    1STR   H24558478   2.226   7.715   1.595
    1STR   C24658479   2.097   7.565   1.400
    1STR   H24758480   2.053   7.657   1.436
    1STR   H24858481   2.095   7.576   1.293
    1STR   O24958482   2.017   7.451   1.435
    1STR   C25058483   1.914   7.467   1.534
    1STR   H25158484   1.969   7.488   1.625
    1STR   C25258485   1.812   7.576   1.499
    1STR   H25358486   1.765   7.552   1.404
    1STR   H25458487   1.852   7.677   1.494
    1STR   H25558488   1.729   7.576   1.568
    1STR   C25658489   1.831   7.339   1.561
    1STR   H25758490   1.786   7.348   1.660
    1STR   H25858491   1.748   7.330   1.490
    1STR   O25958492   1.905   7.220   1.550
    1STR   C26058493   1.872   7.121   1.647
    1STR   H26158494   1.899   7.156   1.746
    1STR   C26258495   1.726   7.076   1.648
    1STR   H26358496   1.697   7.026   1.556
    1STR   H26458497   1.657   7.158   1.667
    1STR   H26558498   1.716   7.005   1.730
    1STR   C26658499   1.967   7.011   1.611
    1STR   H26758500   1.950   6.981   1.509
    1STR   H26858501   2.065   7.056   1.620
    1STR   O26958502   1.966   6.897   1.691
    1STR   C27058503   2.046   6.792   1.638
    1STR   H27158504   2.052   6.717   1.715
    1STR   C27258505   1.968   6.715   1.536
    1STR   H27358506   1.963   6.767   1.443
    1STR   H27458507   1.865   6.698   1.568
    1STR   H27558508   2.019   6.621   1.518
    1STR   C27658509   2.194   6.815   1.600
    1STR   H27758510   2.247   6.733   1.648
    1STR   H27858511   2.207   6.799   1.494
    1STR   O27958512   2.254   6.939   1.640
    1STR   C28058513   2.398   6.950   1.650
    1STR   H28158514   2.420   6.971   1.751
    1STR   C28258515   2.476   6.827   1.600
    1STR   H28358516   2.459   6.809   1.495
    1STR   H28458517   2.452   6.734   1.650
    1STR   H28558518   2.581   6.838   1.618
    1STR   C28658519   2.447   7.081   1.592
    1STR   H28758520   2.503   7.059   1.503
    1STR   H28858521   2.354   7.135   1.581
    1STR   O28958522   2.530   7.164   1.670
    1STR   C29058523   2.573   7.290   1.624
    1STR   H29158524   2.611   7.263   1.528
    1STR   C29258525   2.455   7.377   1.599
    1STR   H29358526   2.363   7.335   1.635
    1STR   H29458527   2.443   7.379   1.492
    1STR   H29558528   2.467   7.477   1.638
    1STR   C29658529   2.681   7.363   1.711
    1STR   H29758530   2.640   7.397   1.805
    1STR   H29858531   2.758   7.292   1.740
    1STR   O29958532   2.735   7.478   1.643
    1STR   C30058533   2.863   7.532   1.678
    1STR   H30158534   2.854   7.558   1.783
    1STR   C30258535   2.982   7.440   1.644
    1STR   H30358536   3.016   7.449   1.541
    1STR   H30458537   2.961   7.336   1.660
    1STR   H30558538   3.070   7.465   1.701
    1STR   C30658539   2.898   7.664   1.608
    1STR   H30758540   2.980   7.714   1.660
    1STR   H30858541   2.938   7.646   1.508
    1STR   O30958542   2.785   7.745   1.590
    1STR    H1R58543   2.825   7.826   1.773
    1STR    H1S58544   2.800   8.008   1.530
    1STR    H1T58545   2.951   7.948   1.598
    1STR    H1U58546   2.850   8.055   1.693
    1STR    H1V58547   2.573   7.877   1.602
    1STR    H1W58548   2.600   7.959   1.755
    1STR    H1X58549   2.571   7.631   2.053
    1STR    H1Y58550   2.316   7.716   1.814
    1STR    H1Z58551   2.149   7.546   1.737
    1STR    H2058552   2.175   7.232   1.694
    1STR    H2158553   2.126   7.206   1.861
    1STR    H2258554   2.044   7.328   1.764
    1STR    H2358555   2.402   7.177   1.796
    1STR    H2758556   2.531   7.402   2.005
    1STR    H2858557   2.130   7.364   0.306
    1STR    H2958558   2.350   7.274   0.261
    1STR    H2A58559   2.494   6.978   0.444
    1STR    H2B58560   2.521   7.138   0.396
    1STR    H2C58561   2.504   7.015   0.270
    1STR   BCK158562   2.608   7.075   2.773
    1STR    O0358563   2.708   7.132   2.814
    1STR    N0458564   2.607   6.956   2.719
    1STR    C0558565   2.694   6.851   2.735
    1STR    C0658566   2.812   6.861   2.810
    1STR    C0758567   2.879   6.747   2.858
    1STR    N0858568   3.001   6.766   2.922
    1STR    C0958569   3.072   6.688   3.002
    1STR    O0A58570   3.039   6.578   3.042
    1STR    O0B58571   3.183   6.750   3.039
    1STR    C0C58572   3.176   6.839   3.148
    1STR    C0D58573   3.270   6.780   3.253
    1STR    C0E58574   3.209   6.983   3.105
    1STR    O0F58575   3.132   7.083   3.172
    1STR    C0G58576   3.072   7.178   3.083
    1STR    C0H58577   2.955   7.111   3.009
    1STR    C0I58578   3.022   7.303   3.160
    1STR    O0J58579   2.940   7.384   3.076
    1STR    C0K58580   2.138   6.363   4.129
    1STR    C0M58581   2.046   6.245   4.099
    1STR    C0N58582   2.283   6.344   4.072
    1STR    O0O58583   2.370   6.447   4.116
    1STR    C0P58584   2.506   6.462   4.115
    1STR    O0Q58585   2.549   6.566   4.158
    1STR    N0R58586   2.593   6.369   4.067
    1STR    C0S58587   2.728   6.392   4.030
    1STR    C0T58588   2.807   6.289   3.977
    1STR    C0U58589   2.934   6.313   3.920
    1STR    C0V58590   2.986   6.444   3.911
    1STR    C0W58591   3.110   6.471   3.829
    1STR    C0X58592   2.916   6.550   3.969
    1STR    N0Y58593   2.962   6.682   3.945
    1STR   BCK258594   2.922   6.802   3.990
    1STR    O1058595   2.943   6.905   3.927
    1STR    C1358596   2.790   6.521   4.027
    1STR    C1458597   2.823   6.623   2.832
    1STR    C1558598   2.705   6.616   2.757
    1STR    C1658599   2.645   6.726   2.697
    1STR    C1758600   2.508   6.707   2.636
    1STR    H1B58601   2.525   6.938   2.664
    1STR    H1C58602   2.849   6.957   2.838
    1STR    H1D58603   3.048   6.852   2.902
    1STR    H1E58604   3.074   6.838   3.182
    1STR    H1F58605   3.370   6.767   3.213
    1STR    H1G58606   3.274   6.841   3.343
    1STR    H1H58607   3.233   6.680   3.281
    1STR    H1I58608   3.189   6.990   2.998
    1STR    H1J58609   3.315   7.005   3.119
    1STR    H1K58610   3.148   7.210   3.012
    1STR    H1M58611   2.859   7.143   3.046
    1STR    H1N58612   2.956   7.003   3.017
    1STR    H1O58613   2.949   7.139   2.906
    1STR    H1P58614   2.964   7.273   3.247
    1STR    H1Q58615   3.109   7.357   3.198
    1STR   C01058616   2.904   7.511   3.130
    1STR   H01158617   2.891   7.505   3.238
    1STR   C01258618   3.022   7.603   3.094
    1STR   H01358619   3.036   7.606   2.986
    1STR   H01458620   3.115   7.569   3.138
    1STR   H01558621   3.005   7.705   3.129
    1STR   C01658622   2.773   7.566   3.067
    1STR   H01758623   2.769   7.674   3.082
    1STR   H01858624   2.778   7.554   2.958
    1STR   O01958625   2.650   7.515   3.123
    1STR   C02058626   2.560   7.456   3.028
    1STR   H02158627   2.551   7.521   2.943
    1STR   C02258628   2.635   7.336   2.979
    1STR   H02358629   2.717   7.303   3.040
    1STR   H02458630   2.680   7.357   2.882
    1STR   H02558631   2.570   7.251   2.973
    1STR   C02658632   2.414   7.423   3.075
    1STR   H02758633   2.416   7.358   3.160
    1STR   H02858634   2.372   7.512   3.120
    1STR   O02958635   2.323   7.368   2.973
    1STR   C03058636   2.214   7.283   3.013
    1STR   H03158637   2.258   7.208   3.074
    1STR   C03258638   2.118   7.367   3.096
    1STR   H03358639   2.037   7.403   3.035
    1STR   H03458640   2.166   7.451   3.147
    1STR   H03558641   2.065   7.313   3.173
    1STR   C03658642   2.130   7.201   2.906
    1STR   H03758643   2.035   7.169   2.950
    1STR   H03858644   2.096   7.268   2.828
    1STR   O03958645   2.186   7.084   2.843
    1STR   C04058646   2.192   6.960   2.918
    1STR   H04158647   2.214   6.996   3.015
    1STR   C04258648   2.063   6.875   2.916
    1STR   H04358649   2.029   6.830   2.825
    1STR   H04458650   1.980   6.932   2.959
    1STR   H04558651   2.079   6.783   2.971
    1STR   C04658652   2.313   6.872   2.887
    1STR   H04758653   2.303   6.826   2.789
    1STR   H04858654   2.394   6.940   2.881
    1STR   O04958655   2.350   6.775   2.987
    1STR   C05058656   2.490   6.745   2.982
    1STR   H05158657   2.508   6.739   2.879
    1STR   C05258658   2.579   6.854   3.037
    1STR   H05358659   2.560   6.954   3.001
    1STR   H05458660   2.684   6.838   3.019
    1STR   H05558661   2.574   6.851   3.143
    1STR   C05658662   2.539   6.612   3.039
    1STR   H05758663   2.487   6.598   3.131
    1STR   H05858664   2.510   6.531   2.974
    1STR   O05958665   2.681   6.613   3.057
    1STR   C06058666   2.736   6.564   3.178
    1STR   H06158667   2.655   6.568   3.247
    1STR   C06258668   2.784   6.420   3.159
    1STR   H06358669   2.866   6.415   3.088
    1STR   H06458670   2.703   6.357   3.125
    1STR   H06558671   2.819   6.376   3.250
    1STR   C06658672   2.841   6.649   3.252
    1STR   H06758673   2.817   6.639   3.357
    1STR   H06858674   2.940   6.604   3.248
    1STR   O06958675   2.850   6.786   3.210
    1STR   C07058676   2.855   6.876   3.320
    1STR   H07158677   2.773   6.843   3.376
    1STR   C07258678   2.978   6.866   3.412
    1STR   H07358679   3.059   6.930   3.377
    1STR   H07458680   3.016   6.765   3.422
    1STR   H07558681   2.954   6.902   3.512
    1STR   C07658682   2.822   7.020   3.283
    1STR   H07758683   2.810   7.074   3.376
    1STR   H07858684   2.911   7.061   3.243
    1STR   O07958685   2.713   7.038   3.189
    1STR   C08058686   2.601   7.111   3.239
    1STR   H08158687   2.604   7.058   3.329
    1STR   C08258688   2.646   7.251   3.291
    1STR   H08358689   2.732   7.290   3.239
    1STR   H08458690   2.676   7.247   3.395
    1STR   H08558691   2.568   7.326   3.290
    1STR   C08658692   2.448   7.098   3.181
    1STR   H08758693   2.389   7.175   3.226
    1STR   H08858694   2.450   7.120   3.075
    1STR   O08958695   2.359   6.980   3.192
    1STR   C09058696   2.224   6.971   3.257
    1STR   H09158697   2.228   6.955   3.362
    1STR   C09258698   2.128   7.088   3.249
    1STR   H09358699   2.172   7.178   3.287
    1STR   H09458700   2.039   7.062   3.305
    1STR   H09558701   2.088   7.103   3.150
    1STR   C09658702   2.141   6.850   3.211
    1STR   H09758703   2.077   6.896   3.141
    1STR   H09858704   2.195   6.769   3.163
    1STR   O09958705   2.039   6.801   3.296
    1STR   C10058706   1.937   6.725   3.231
    1STR   H10158707   1.924   6.765   3.132
    1STR   C10258708   1.980   6.579   3.210
    1STR   H10358709   2.056   6.546   3.279
    1STR   H10458710   2.021   6.566   3.110
    1STR   H10558711   1.897   6.510   3.222
    1STR   C10658712   1.800   6.742   3.301
    1STR   H10758713   1.721   6.713   3.234
    1STR   H10858714   1.790   6.661   3.371
    1STR   O10958715   1.780   6.875   3.357
    1STR   C11058716   1.648   6.929   3.370
    1STR   H11158717   1.612   6.938   3.271
    1STR   C11258718   1.544   6.840   3.440
    1STR   H11358719   1.556   6.839   3.547
    1STR   H11458720   1.546   6.737   3.403
    1STR   H11558721   1.444   6.878   3.420
    1STR   C11658722   1.641   7.076   3.418
    1STR   H11758723   1.551   7.122   3.380
    1STR   H11858724   1.627   7.080   3.525
    1STR   O11958725   1.751   7.157   3.375
    1STR   C12058726   1.807   7.240   3.476
    1STR   H12158727   1.734   7.266   3.552
    1STR   C12258728   1.927   7.163   3.531
    1STR   H12358729   1.911   7.056   3.539
    1STR   H12458730   1.965   7.203   3.624
    1STR   H12558731   2.008   7.177   3.463
    1STR   C12658732   1.860   7.368   3.411
    1STR   H12758733   1.915   7.334   3.324
    1STR   H12858734   1.778   7.432   3.378
    1STR   O12958735   1.948   7.441   3.495
    1STR   C13058736   2.035   7.526   3.422
    1STR   H13158737   2.077   7.469   3.340
    1STR   C13258738   1.957   7.645   3.365
    1STR   H13358739   1.894   7.691   3.441
    1STR   H13458740   1.895   7.615   3.281
    1STR   H13558741   2.026   7.721   3.330
    1STR   C13658742   2.156   7.568   3.506
    1STR   H13758743   2.146   7.671   3.539
    1STR   H13858744   2.157   7.506   3.596
    1STR   O13958745   2.272   7.549   3.425
    1STR   C14058746   2.400   7.566   3.485
    1STR   H14158747   2.473   7.556   3.404
    1STR   C14258748   2.415   7.707   3.543
    1STR   H14358749   2.352   7.723   3.630
    1STR   H14458750   2.389   7.782   3.468
    1STR   H14558751   2.518   7.726   3.573
    1STR   C14658752   2.431   7.455   3.587
    1STR   H14758753   2.519   7.480   3.646
    1STR   H14858754   2.349   7.447   3.657
    1STR   O14958755   2.457   7.331   3.522
    1STR   C15058756   2.393   7.212   3.571
    1STR   H15158757   2.417   7.191   3.675
    1STR   C15258758   2.247   7.227   3.533
    1STR   H15358759   2.240   7.283   3.441
    1STR   H15458760   2.186   7.283   3.602
    1STR   H15558761   2.203   7.128   3.521
    1STR   C15658762   2.460   7.096   3.501
    1STR   H15758763   2.448   7.145   3.410
    1STR   H15858764   2.564   7.091   3.531
    1STR   O15958765   2.403   6.966   3.474
    1STR   C16058766   2.476   6.856   3.412
    1STR   H16158767   2.529   6.885   3.326
    1STR   C16258768   2.585   6.819   3.505
    1STR   H16358769   2.539   6.801   3.598
    1STR   H16458770   2.655   6.900   3.522
    1STR   H16558771   2.637   6.728   3.475
    1STR   C16658772   2.396   6.736   3.350
    1STR   H16758773   2.293   6.728   3.383
    1STR   H16858774   2.386   6.755   3.245
    1STR   O16958775   2.467   6.612   3.352
    1STR   C17058776   2.401   6.485   3.350
    1STR   H17158777   2.338   6.477   3.438
    1STR   C17258778   2.305   6.463   3.234
    1STR   H17358779   2.255   6.556   3.211
    1STR   H17458780   2.230   6.388   3.259
    1STR   H17558781   2.357   6.428   3.145
    1STR   C17658782   2.510   6.374   3.351
    1STR   H17758783   2.471   6.283   3.397
    1STR   H17858784   2.533   6.345   3.249
    1STR   O17958785   2.631   6.421   3.411
    1STR   C18058786   2.697   6.339   3.506
    1STR   H18158787   2.690   6.234   3.478
    1STR   C18258788   2.843   6.384   3.522
    1STR   H18358789   2.850   6.491   3.542
    1STR   H18458790   2.906   6.363   3.436
    1STR   H18558791   2.891   6.332   3.606
    1STR   C18658792   2.625   6.369   3.634
    1STR   H18758793   2.658   6.304   3.715
    1STR   H18858794   2.653   6.471   3.661
    1STR   O18958795   2.484   6.361   3.615
    1STR   C19058796   2.403   6.455   3.684
    1STR   H19158797   2.304   6.415   3.668
    1STR   C19258798   2.450   6.441   3.824
    1STR   H19358799   2.548   6.485   3.841
    1STR   H19458800   2.453   6.336   3.854
    1STR   H19558801   2.390   6.499   3.888
    1STR   C19658802   2.400   6.604   3.640
    1STR   H19758803   2.440   6.666   3.715
    1STR   H19858804   2.480   6.606   3.569
    1STR   O19958805   2.280   6.671   3.593
    1STR   C20058806   2.230   6.799   3.647
    1STR   H20158807   2.179   6.758   3.727
    1STR   C20258808   2.316   6.909   3.712
    1STR   H20358809   2.416   6.919   3.682
    1STR   H20458810   2.336   6.899   3.814
    1STR   H20558811   2.272   7.008   3.702
    1STR   C20658812   2.098   6.859   3.601
    1STR   H20758813   2.089   6.963   3.629
    1STR   H20858814   2.094   6.862   3.494
    1STR   O20958815   1.987   6.798   3.668
    1STR   C21058816   1.914   6.709   3.588
    1STR   H21158817   1.901   6.779   3.510
    1STR   C21258818   1.994   6.595   3.525
    1STR   H21358819   2.053   6.540   3.593
    1STR   H21458820   2.071   6.635   3.460
    1STR   H21558821   1.931   6.524   3.472
    1STR   C21658822   1.767   6.685   3.630
    1STR   H21758823   1.734   6.784   3.652
    1STR   H21858824   1.705   6.658   3.548
    1STR   O21958825   1.725   6.614   3.745
    1STR   C22058826   1.685   6.478   3.729
    1STR   H22158827   1.636   6.456   3.823
    1STR   C22258828   1.579   6.458   3.619
    1STR   H22358829   1.623   6.461   3.519
    1STR   H22458830   1.503   6.536   3.625
    1STR   H22558831   1.529   6.362   3.629
    1STR   C22658832   1.807   6.385   3.720
    1STR   H22758833   1.796   6.300   3.787
    1STR   H22858834   1.825   6.349   3.619
    1STR   O22958835   1.916   6.467   3.758
    1STR   C23058836   2.033   6.417   3.816
    1STR   H23158837   1.989   6.373   3.902
    1STR   C23258838   2.091   6.305   3.729
    1STR   H23358839   2.107   6.336   3.626
    1STR   H23458840   2.025   6.219   3.727
    1STR   H23558841   2.186   6.272   3.770
    1STR   C23658842   2.119   6.548   3.838
    1STR   H23758843   2.181   6.552   3.753
    1STR   H23858844   2.051   6.629   3.824
    1STR   O23958845   2.204   6.586   3.951
    1STR   C24058846   2.258   6.721   3.955
    1STR   H24158847   2.296   6.707   3.859
    1STR   C24258848   2.162   6.841   3.972
    1STR   H24358849   2.107   6.869   3.882
    1STR   H24458850   2.211   6.930   4.003
    1STR   H24558851   2.088   6.831   4.047
    1STR   C24658852   2.397   6.763   4.006
    1STR   H24758853   2.405   6.870   4.020
    1STR   H24858854   2.403   6.719   4.103
    1STR   O24958855   2.495   6.732   3.906
    1STR   C25058856   2.613   6.805   3.876
    1STR   H25158857   2.655   6.799   3.972
    1STR   C25258858   2.700   6.716   3.785
    1STR   H25358859   2.658   6.683   3.693
    1STR   H25458860   2.717   6.620   3.829
    1STR   H25558861   2.796   6.761   3.760
    1STR   C25658862   2.627   6.952   3.822
    1STR   H25758863   2.733   6.973   3.833
    1STR   H25858864   2.615   6.959   3.716
    1STR   O25958865   2.556   7.063   3.876
    1STR   C26058866   2.628   7.188   3.867
    1STR   H26158867   2.707   7.180   3.941
    1STR   C26258868   2.702   7.224   3.737
    1STR   H26358869   2.635   7.252   3.657
    1STR   H26458870   2.767   7.145   3.700
    1STR   H26558871   2.766   7.311   3.753
    1STR   C26658872   2.542   7.306   3.916
    1STR   H26758873   2.518   7.282   4.016
    1STR   H26858874   2.606   7.395   3.921
    1STR   O26958875   2.423   7.347   3.850
    1STR   C27058876   2.295   7.286   3.875
    1STR   H27158877   2.263   7.243   3.783
    1STR   C27258878   2.289   7.160   3.959
    1STR   H27358879   2.359   7.150   4.040
    1STR   H27458880   2.317   7.079   3.896
    1STR   H27558881   2.188   7.142   3.994
    1STR   C27658882   2.181   7.386   3.896
    1STR   H27758883   2.163   7.405   4.001
    1STR   H27858884   2.203   7.482   3.848
    1STR   O27958885   2.070   7.328   3.830
    1STR   C28058886   1.943   7.359   3.884
    1STR   H28158887   1.950   7.364   3.993
    1STR   C28258888   1.897   7.495   3.833
    1STR   H28358889   1.889   7.495   3.724
    1STR   H28458890   1.967   7.574   3.860
    1STR   H28558891   1.799   7.521   3.874
    1STR   C28658892   1.847   7.245   3.847
    1STR   H28758893   1.763   7.254   3.917
    1STR   H28858894   1.803   7.267   3.750
    1STR   O28958895   1.906   7.111   3.845
    1STR   C29058896   1.809   7.007   3.859
    1STR   H29158897   1.748   7.053   3.937
    1STR   C29258898   1.708   7.006   3.746
    1STR   H29358899   1.654   7.100   3.739
    1STR   H29458900   1.632   6.929   3.756
    1STR   H29558901   1.761   6.987   3.654
    1STR   C29658902   1.829   6.873   3.939
    1STR   H29758903   1.846   6.912   4.037
    1STR   H29858904   1.736   6.821   3.927
    1STR   O29958905   1.911   6.755   3.935
    1STR   C30058906   1.895   6.671   4.054
    1STR   H30158907   1.868   6.739   4.134
    1STR   C30258908   1.780   6.571   4.039
    1STR   H30358909   1.811   6.485   3.982
    1STR   H30458910   1.695   6.613   3.987
    1STR   H30558911   1.746   6.535   4.136
    1STR   C30658912   2.014   6.601   4.127
    1STR   H30758913   2.106   6.656   4.146
    1STR   H30858914   1.969   6.607   4.224
    1STR   O30958915   2.039   6.464   4.088
    1STR    H1R58916   2.164   6.351   4.232
    1STR    H1S58917   2.063   6.171   4.175
    1STR    H1T58918   2.062   6.202   4.000
    1STR    H1U58919   1.940   6.268   4.104
    1STR    H1V58920   2.275   6.336   3.965
    1STR    H1W58921   2.330   6.255   4.111
    1STR    H1X58922   2.549   6.280   4.050
    1STR    H1Y58923   2.768   6.189   3.972
    1STR    H1Z58924   2.989   6.230   3.877
    1STR    H2058925   3.178   6.538   3.881
    1STR    H2158926   3.163   6.378   3.806
    1STR    H2258927   3.082   6.518   3.735
    1STR    H2358928   3.032   6.690   3.873
    1STR    H2758929   2.734   6.606   4.056
    1STR    H2858930   2.863   6.534   2.878
    1STR    H2958931   2.646   6.530   2.756
    1STR    H2A58932   2.455   6.638   2.699
    1STR    H2B58933   2.511   6.662   2.537
    1STR    H2C58934   2.447   6.796   2.631
    1STR   BCK158935   2.526   6.750   5.128
    1STR    O0358936   2.414   6.765   5.172
    1STR    N0458937   2.619   6.845   5.131
    1STR    C0558938   2.593   6.978   5.163
    1STR    C0658939   2.470   7.032   5.129
    1STR    C0758940   2.444   7.165   5.151
    1STR    N0858941   2.318   7.202   5.118
    1STR    C0958942   2.275   7.317   5.073
    1STR    O0A58943   2.351   7.405   5.038
    1STR    O0B58944   2.145   7.328   5.067
    1STR    C0C58945   2.066   7.244   5.146
    1STR    C0D58946   1.954   7.329   5.195
    1STR    C0E58947   2.035   7.114   5.069
    1STR    O0F58948   2.112   7.001   5.109
    1STR    C0G58949   2.072   6.930   5.229
    1STR    C0H58950   2.008   7.017   5.332
    1STR    C0I58951   2.010   6.790   5.236
    1STR    O0J58952   2.089   6.670   5.248
    1STR    C0K58953   3.351   7.109   6.308
    1STR    C0M58954   3.422   7.190   6.202
    1STR    C0N58955   3.294   7.209   6.412
    1STR    O0O58956   3.170   7.271   6.384
    1STR    C0P58957   3.066   7.226   6.453
    1STR    O0Q58958   3.063   7.117   6.506
    1STR    N0R58959   2.965   7.310   6.460
    1STR    C0S58960   2.849   7.280   6.528
    1STR    C0T58961   2.803   7.370   6.621
    1STR    C0U58962   2.695   7.330   6.698
    1STR    C0V58963   2.611   7.222   6.667
    1STR    C0W58964   2.478   7.212   6.734
    1STR    C0X58965   2.660   7.125   6.580
    1STR    N0Y58966   2.617   6.993   6.561
    1STR   BCK258967   2.538   6.898   6.613
    1STR    O1058968   2.440   6.922   6.678
    1STR    C1358969   2.783   7.155   6.518
    1STR    C1458970   2.547   7.252   5.186
    1STR    C1558971   2.667   7.200   5.232
    1STR    C1658972   2.685   7.062   5.228
    1STR    C1758973   2.807   7.011   5.292
    1STR    H1B58974   2.713   6.825   5.100
    1STR    H1C58975   2.393   6.974   5.084
    1STR    H1D58976   2.246   7.132   5.134
    1STR    H1E58977   2.119   7.223   5.237
    1STR    H1F58978   1.905   7.382   5.115
    1STR    H1G58979   1.885   7.276   5.258
    1STR    H1H58980   1.999   7.403   5.258
    1STR    H1I58981   2.045   7.131   4.962
    1STR    H1J58982   1.935   7.084   5.086
    1STR    H1K58983   2.167   6.899   5.257
    1STR    H1M58984   2.084   7.081   5.372
    1STR    H1N58985   1.975   6.957   5.413
    1STR    H1O58986   1.922   7.074   5.300
    1STR    H1P58987   1.926   6.786   5.302
    1STR    H1Q58988   1.964   6.789   5.142
    1STR   C01058989   2.065   6.580   5.358
    1STR   H01158990   2.107   6.631   5.442
    1STR   C01258991   1.920   6.535   5.387
    1STR   H01358992   1.885   6.462   5.315
    1STR   H01458993   1.850   6.616   5.395
    1STR   H01558994   1.915   6.485   5.483
    1STR   C01658995   2.149   6.453   5.345
    1STR   H01758996   2.126   6.408   5.249
    1STR   H01858997   2.254   6.476   5.354
    1STR   O01958998   2.114   6.363   5.449
    1STR   C02058999   2.180   6.239   5.454
    1STR   H02159000   2.128   6.187   5.535
    1STR   C02259001   2.157   6.160   5.329
    1STR   H02359002   2.214   6.200   5.246
    1STR   H02459003   2.052   6.156   5.304
    1STR   H02559004   2.196   6.061   5.349
    1STR   C02659005   2.327   6.243   5.493
    1STR   H02759006   2.332   6.314   5.574
    1STR   H02859007   2.352   6.147   5.538
    1STR   O02959008   2.418   6.271   5.385
    1STR   C03059009   2.554   6.285   5.431
    1STR   H03159010   2.573   6.211   5.508
    1STR   C03259011   2.668   6.268   5.331
    1STR   H03359012   2.662   6.326   5.239
    1STR   H03459013   2.674   6.164   5.305
    1STR   H03559014   2.764   6.293   5.375
    1STR   C03659015   2.569   6.418   5.497
    1STR   H03759016   2.516   6.403   5.586
    1STR   H03859017   2.672   6.429   5.528
    1STR   O03959018   2.513   6.530   5.430
    1STR   C04059019   2.599   6.641   5.448
    1STR   H04159020   2.631   6.637   5.549
    1STR   C04259021   2.720   6.615   5.357
    1STR   H04359022   2.755   6.706   5.312
    1STR   H04459023   2.697   6.546   5.278
    1STR   H04559024   2.800   6.566   5.410
    1STR   C04659025   2.540   6.783   5.447
    1STR   H04759026   2.585   6.845   5.523
    1STR   H04859027   2.565   6.837   5.359
    1STR   O04959028   2.403   6.789   5.474
    1STR   C05059029   2.334   6.907   5.435
    1STR   H05159030   2.335   6.901   5.329
    1STR   C05259031   2.206   6.894   5.515
    1STR   H05359032   2.219   6.847   5.610
    1STR   H05459033   2.137   6.831   5.463
    1STR   H05559034   2.161   6.989   5.538
    1STR   C05659035   2.388   7.047   5.448
    1STR   H05759036   2.380   7.057   5.553
    1STR   H05859037   2.489   7.048   5.410
    1STR   O05959038   2.313   7.158   5.395
    1STR   C06059039   2.328   7.287   5.460
    1STR   H06159040   2.361   7.270   5.559
    1STR   C06259041   2.440   7.382   5.421
    1STR   H06359042   2.418   7.420   5.323
    1STR   H06459043   2.539   7.338   5.423
    1STR   H06559044   2.444   7.469   5.485
    1STR   C06659045   2.196   7.363   5.461
    1STR   H06759046   2.197   7.440   5.538
    1STR   H06859047   2.186   7.415   5.365
    1STR   O06959048   2.086   7.274   5.474
    1STR   C07059049   1.986   7.305   5.567
    1STR   H07159050   2.037   7.316   5.662
    1STR   C07259051   1.913   7.434   5.525
    1STR   H07359052   1.864   7.423   5.429
    1STR   H07459053   1.980   7.519   5.518
    1STR   H07559054   1.833   7.462   5.594
    1STR   C07659055   1.885   7.189   5.576
    1STR   H07759056   1.814   7.220   5.652
    1STR   H07859057   1.831   7.182   5.481
    1STR   O07959058   1.938   7.059   5.607
    1STR   C08059059   1.846   6.951   5.636
    1STR   H08159060   1.894   6.921   5.725
    1STR   C08259061   1.698   6.994   5.648
    1STR   H08359062   1.661   7.029   5.552
    1STR   H08459063   1.681   7.071   5.722
    1STR   H08559064   1.634   6.911   5.678
    1STR   C08659065   1.855   6.806   5.582
    1STR   H08759066   1.771   6.746   5.615
    1STR   H08859067   1.840   6.816   5.478
    1STR   O08959068   1.973   6.727   5.601
    1STR   C09059069   2.003   6.653   5.720
    1STR   H09159070   2.009   6.729   5.795
    1STR   C09259071   1.898   6.552   5.765
    1STR   H09359072   1.889   6.468   5.695
    1STR   H09459073   1.799   6.595   5.777
    1STR   H09559074   1.928   6.510   5.861
    1STR   C09659075   2.139   6.578   5.692
    1STR   H09759076   2.117   6.491   5.632
    1STR   H09859077   2.196   6.641   5.625
    1STR   O09959078   2.224   6.530   5.799
    1STR   C10059079   2.364   6.524   5.762
    1STR   H10159080   2.360   6.494   5.659
    1STR   C10259081   2.421   6.663   5.754
    1STR   H10359082   2.413   6.716   5.847
    1STR   H10459083   2.371   6.719   5.679
    1STR   H10559084   2.524   6.667   5.722
    1STR   C10659085   2.464   6.434   5.844
    1STR   H10759086   2.469   6.467   5.948
    1STR   H10859087   2.433   6.330   5.844
    1STR   O10959088   2.592   6.448   5.779
    1STR   C11059089   2.722   6.428   5.834
    1STR   H11159090   2.726   6.466   5.936
    1STR   C11259091   2.755   6.279   5.838
    1STR   H11359092   2.752   6.235   5.738
    1STR   H11459093   2.683   6.225   5.900
    1STR   H11559094   2.854   6.263   5.880
    1STR   C11659095   2.823   6.508   5.745
    1STR   H11759096   2.920   6.516   5.794
    1STR   H11859097   2.842   6.458   5.651
    1STR   O11959098   2.766   6.637   5.718
    1STR   C12059099   2.845   6.749   5.677
    1STR   H12159100   2.923   6.762   5.748
    1STR   C12259101   2.930   6.730   5.557
    1STR   H12359102   2.877   6.777   5.476
    1STR   H12459103   2.956   6.626   5.536
    1STR   H12559104   3.025   6.779   5.572
    1STR   C12659105   2.763   6.881   5.687
    1STR   H12759106   2.659   6.862   5.715
    1STR   H12859107   2.805   6.927   5.773
    1STR   O12959108   2.772   6.984   5.587
    1STR   C13059109   2.735   7.114   5.640
    1STR   H13159110   2.780   7.118   5.736
    1STR   C13259111   2.810   7.232   5.581
    1STR   H13359112   2.789   7.251   5.477
    1STR   H13459113   2.917   7.218   5.596
    1STR   H13559114   2.787   7.325   5.634
    1STR   C13659115   2.584   7.150   5.649
    1STR   H13759116   2.575   7.251   5.683
    1STR   H13859117   2.558   7.169   5.548
    1STR   O13959118   2.498   7.060   5.727
    1STR   C14059119   2.379   7.095   5.808
    1STR   H14159120   2.405   7.137   5.904
    1STR   C14259121   2.272   7.194   5.757
    1STR   H14359122   2.226   7.160   5.665
    1STR   H14459123   2.304   7.297   5.751
    1STR   H14559124   2.187   7.200   5.822
    1STR   C14659125   2.301   6.963   5.829
    1STR   H14759126   2.198   6.973   5.793
    1STR   H14859127   2.348   6.899   5.758
    1STR   O14959128   2.298   6.897   5.956
    1STR   C15059129   2.196   6.796   5.966
    1STR   H15159130   2.189   6.760   5.865
    1STR   C15259131   2.226   6.669   6.048
    1STR   H15359132   2.328   6.633   6.038
    1STR   H15459133   2.161   6.587   6.016
    1STR   H15559134   2.201   6.679   6.153
    1STR   C15659135   2.061   6.848   6.019
    1STR   H15759136   1.996   6.763   6.039
    1STR   H15859137   2.077   6.897   6.115
    1STR   O15959138   1.999   6.934   5.926
    1STR   C16059139   1.862   6.967   5.946
    1STR   H16159140   1.839   7.043   5.871
    1STR   C16259141   1.763   6.848   5.936
    1STR   H16359142   1.781   6.772   6.013
    1STR   H16459143   1.768   6.797   5.841
    1STR   H16559144   1.660   6.882   5.949
    1STR   C16659145   1.835   7.048   6.066
    1STR   H16759146   1.754   7.119   6.051
    1STR   H16859147   1.795   6.970   6.128
    1STR   O16959148   1.950   7.099   6.130
    1STR   C17059149   2.010   7.218   6.084
    1STR   H17159150   2.004   7.289   6.165
    1STR   C17259151   2.155   7.177   6.069
    1STR   H17359152   2.163   7.095   5.999
    1STR   H17459153   2.196   7.139   6.161
    1STR   H17559154   2.218   7.259   6.034
    1STR   C17659155   1.953   7.291   5.963
    1STR   H17759156   1.977   7.239   5.871
    1STR   H17859157   1.844   7.298   5.970
    1STR   O17959158   2.007   7.423   5.968
    1STR   C18059159   1.956   7.511   5.870
    1STR   H18159160   1.935   7.454   5.781
    1STR   C18259161   1.824   7.572   5.919
    1STR   H18359162   1.839   7.625   6.013
    1STR   H18459163   1.747   7.497   5.934
    1STR   H18559164   1.786   7.644   5.846
    1STR   C18659165   2.060   7.617   5.833
    1STR   H18759166   2.024   7.673   5.747
    1STR   H18859167   2.072   7.687   5.916
    1STR   O18959168   2.188   7.561   5.804
    1STR   C19059169   2.277   7.645   5.732
    1STR   H19159170   2.241   7.640   5.631
    1STR   C19259171   2.281   7.792   5.776
    1STR   H19359172   2.309   7.797   5.881
    1STR   H19459173   2.186   7.843   5.762
    1STR   H19559174   2.356   7.847   5.720
    1STR   C19659175   2.420   7.587   5.722
    1STR   H19759176   2.416   7.482   5.698
    1STR   H19859177   2.468   7.634   5.637
    1STR   O19959178   2.505   7.617   5.832
    1STR   C20059179   2.514   7.523   5.939
    1STR   H20159180   2.590   7.566   6.004
    1STR   C20259181   2.381   7.515   6.012
    1STR   H20359182   2.315   7.441   5.968
    1STR   H20459183   2.328   7.610   6.013
    1STR   H20559184   2.395   7.488   6.116
    1STR   C20659185   2.567   7.387   5.894
    1STR   H20759186   2.489   7.344   5.835
    1STR   H20859187   2.657   7.401   5.834
    1STR   O20959188   2.589   7.291   5.996
    1STR   C21059189   2.661   7.173   5.960
    1STR   H21159190   2.634   7.160   5.864
    1STR   C21259191   2.811   7.193   5.960
    1STR   H21359192   2.854   7.214   6.057
    1STR   H21459193   2.843   7.272   5.892
    1STR   H21559194   2.857   7.101   5.930
    1STR   C21659195   2.620   7.036   6.018
    1STR   H21759196   2.660   7.040   6.114
    1STR   H21859197   2.513   7.027   6.033
    1STR   O21959198   2.668   6.920   5.946
    1STR   C22059199   2.713   6.798   6.010
    1STR   H22159200   2.715   6.796   6.115
    1STR   C22259201   2.612   6.688   6.006
    1STR   H22359202   2.612   6.649   5.907
    1STR   H22459203   2.515   6.730   6.031
    1STR   H22559204   2.633   6.608   6.077
    1STR   C22659205   2.861   6.762   5.985
    1STR   H22759206   2.901   6.707   6.068
    1STR   H22859207   2.868   6.681   5.916
    1STR   O22959208   2.932   6.882   5.949
    1STR   C23059209   3.073   6.895   5.927
    1STR   H23159210   3.120   6.925   6.020
    1STR   C23259211   3.141   6.766   5.876
    1STR   H23359212   3.125   6.746   5.771
    1STR   H23459213   3.110   6.678   5.933
    1STR   H23559214   3.249   6.775   5.885
    1STR   C23659215   3.094   7.010   5.826
    1STR   H23759216   3.191   6.998   5.779
    1STR   H23859217   3.023   6.995   5.744
    1STR   O23959218   3.075   7.146   5.869
    1STR   C24059219   3.166   7.206   5.961
    1STR   H24159220   3.157   7.157   6.058
    1STR   C24259221   3.308   7.185   5.904
    1STR   H24359222   3.309   7.204   5.797
    1STR   H24459223   3.343   7.084   5.922
    1STR   H24559224   3.381   7.254   5.947
    1STR   C24659225   3.142   7.359   5.980
    1STR   H24759226   3.215   7.399   6.051
    1STR   H24859227   3.166   7.407   5.886
    1STR   O24959228   3.012   7.409   6.014
    1STR   C25059229   2.976   7.423   6.152
    1STR   H25159230   2.992   7.327   6.199
    1STR   C25259231   3.058   7.532   6.223
    1STR   H25359232   3.060   7.624   6.164
    1STR   H25459233   3.161   7.500   6.242
    1STR   H25559234   3.014   7.557   6.319
    1STR   C25659235   2.827   7.460   6.159
    1STR   H25759236   2.811   7.567   6.144
    1STR   H25859237   2.776   7.414   6.076
    1STR   O25959238   2.769   7.420   6.284
    1STR   C26059239   2.631   7.383   6.274
    1STR   H26159240   2.588   7.431   6.186
    1STR   C26259241   2.627   7.238   6.254
    1STR   H26359242   2.626   7.179   6.343
    1STR   H26459243   2.715   7.210   6.201
    1STR   H26559244   2.537   7.212   6.199
    1STR   C26659245   2.536   7.415   6.389
    1STR   H26759246   2.593   7.464   6.467
    1STR   H26859247   2.466   7.482   6.345
    1STR   O26959248   2.465   7.306   6.448
    1STR   C27059249   2.327   7.281   6.425
    1STR   H27159250   2.271   7.310   6.513
    1STR   C27259251   2.266   7.350   6.304
    1STR   H27359252   2.320   7.319   6.216
    1STR   H27459253   2.267   7.459   6.310
    1STR   H27559254   2.162   7.321   6.296
    1STR   C27659255   2.313   7.129   6.412
    1STR   H27759256   2.324   7.084   6.509
    1STR   H27859257   2.214   7.100   6.377
    1STR   O27959258   2.418   7.080   6.330
    1STR   C28059259   2.441   6.941   6.332
    1STR   H28159260   2.409   6.904   6.426
    1STR   C28259261   2.332   6.890   6.246
    1STR   H28359262   2.325   6.957   6.161
    1STR   H28459263   2.234   6.892   6.294
    1STR   H28559264   2.358   6.790   6.215
    1STR   C28659265   2.583   6.887   6.288
    1STR   H28759266   2.594   6.781   6.308
    1STR   H28859267   2.560   6.885   6.185
    1STR   O28959268   2.710   6.952   6.324
    1STR   C29059269   2.840   6.935   6.254
    1STR   H29159270   2.827   6.945   6.149
    1STR   C29259271   2.933   7.054   6.246
    1STR   H29359272   3.018   7.034   6.306
    1STR   H29459273   2.889   7.148   6.274
    1STR   H29559274   2.979   7.065   6.149
    1STR   C29659275   2.929   6.813   6.286
    1STR   H29759276   2.972   6.829   6.381
    1STR   H29859277   2.873   6.719   6.288
    1STR   O29959278   3.044   6.807   6.201
    1STR   C30059279   3.168   6.777   6.262
    1STR   H30159280   3.146   6.701   6.336
    1STR   C30259281   3.264   6.707   6.167
    1STR   H30359282   3.302   6.777   6.094
    1STR   H30459283   3.214   6.623   6.118
    1STR   H30559284   3.349   6.667   6.222
    1STR   C30659285   3.236   6.900   6.327
    1STR   H30759286   3.177   6.929   6.413
    1STR   H30859287   3.332   6.864   6.361
    1STR   O30959288   3.261   7.016   6.247
    1STR    H1R59289   3.431   7.053   6.357
    1STR    H1S59290   3.506   7.244   6.244
    1STR    H1T59291   3.353   7.263   6.161
    1STR    H1U59292   3.459   7.125   6.123
    1STR    H1V59293   3.364   7.290   6.429
    1STR    H1W59294   3.291   7.158   6.508
    1STR    H1X59295   2.965   7.394   6.405
    1STR    H1Y59296   2.858   7.459   6.646
    1STR    H1Z59297   2.687   7.381   6.789
    1STR    H2059298   2.434   7.309   6.749
    1STR    H2159299   2.410   7.161   6.669
    1STR    H2259300   2.483   7.160   6.828
    1STR    H2359301   2.666   6.959   6.478
    1STR    H2759302   2.832   7.078   6.464
    1STR    H2859303   2.537   7.359   5.181
    1STR    H2959304   2.741   7.268   5.269
    1STR    H2A59305   2.886   7.027   5.221
    1STR    H2B59306   2.798   6.908   5.321
    1STR    H2C59307   2.831   7.068   5.380
    1STR   BCK159308   2.500   7.387   7.356
    1STR    O0359309   2.574   7.318   7.422
    1STR    N0459310   2.389   7.443   7.400
    1STR    C0559311   2.286   7.365   7.446
    1STR    C0659312   2.311   7.231   7.479
    1STR    C0759313   2.214   7.133   7.459
    1STR    N0859314   2.259   7.002   7.456
    1STR    C0959315   2.196   6.890   7.425
    1STR    O0A59316   2.075   6.880   7.412
    1STR    O0B59317   2.280   6.790   7.421
    1STR    C0C59318   2.334   6.741   7.542
    1STR    C0D59319   2.307   6.591   7.539
    1STR    C0E59320   2.482   6.773   7.557
    1STR    O0F59321   2.505   6.907   7.605
    1STR    C0G59322   2.625   6.964   7.554
    1STR    C0H59323   2.573   6.994   7.414
    1STR    C0I59324   2.682   7.091   7.631
    1STR    O0J59325   2.821   7.114   7.615
    1STR    C0K59326   1.797   7.551   8.695
    1STR    C0M59327   1.756   7.431   8.608
    1STR    C0N59328   1.901   7.521   8.806
    1STR    O0O59329   1.929   7.387   8.840
    1STR    C0P59330   2.038   7.365   8.914
    1STR    O0Q59331   2.119   7.451   8.943
    1STR    N0R59332   2.061   7.243   8.955
    1STR    C0S59333   2.000   7.121   8.938
    1STR    C0T59334   1.871   7.093   8.892
    1STR    C0U59335   1.823   6.962   8.897
    1STR    C0V59336   1.906   6.853   8.933
    1STR    C0W59337   1.847   6.713   8.950
    1STR    C0X59338   2.042   6.880   8.954
    1STR    N0Y59339   2.135   6.779   8.961
    1STR   BCK259340   2.260   6.784   8.918
    1STR    O1059341   2.321   6.885   8.886
    1STR    C1359342   2.084   7.014   8.959
    1STR    C1459343   2.082   7.177   7.439
    1STR    C1559344   2.052   7.313   7.419
    1STR    C1659345   2.155   7.407   7.423
    1STR    C1759346   2.123   7.553   7.400
    1STR    H1B59347   2.360   7.522   7.340
    1STR    H1C59348   2.406   7.202   7.518
    1STR    H1D59349   2.356   6.985   7.482
    1STR    H1E59350   2.282   6.784   7.627
    1STR    H1F59351   2.333   6.549   7.442
    1STR    H1G59352   2.365   6.541   7.616
    1STR    H1H59353   2.204   6.570   7.560
    1STR    H1I59354   2.529   6.752   7.462
    1STR    H1J59355   2.531   6.701   7.620
    1STR    H1K59356   2.702   6.887   7.552
    1STR    H1M59357   2.529   7.091   7.417
    1STR    H1N59358   2.497   6.931   7.369
    1STR    H1O59359   2.649   6.995   7.340
    1STR    H1P59360   2.622   7.180   7.617
    1STR    H1Q59361   2.689   7.072   7.736
    1STR   C01059362   2.887   7.242   7.628
    1STR   H01159363   2.904   7.268   7.727
    1STR   C01259364   3.029   7.212   7.595
    1STR   H01359365   3.038   7.137   7.518
    1STR   H01459366   3.076   7.171   7.685
    1STR   H01559367   3.082   7.301   7.564
    1STR   C01659368   2.837   7.380   7.581
    1STR   H01759369   2.921   7.440   7.546
    1STR   H01859370   2.772   7.377   7.497
    1STR   O01959371   2.787   7.446   7.697
    1STR   C02059372   2.721   7.571   7.688
    1STR   H02159373   2.703   7.604   7.790
    1STR   C02259374   2.810   7.675   7.619
    1STR   H02359375   2.826   7.650   7.514
    1STR   H02459376   2.907   7.681   7.668
    1STR   H02559377   2.763   7.773   7.622
    1STR   C02659378   2.584   7.552   7.623
    1STR   H02759379   2.605   7.543   7.518
    1STR   H02859380   2.532   7.461   7.652
    1STR   O02959381   2.500   7.665   7.637
    1STR   C03059382   2.410   7.666   7.746
    1STR   H03159383   2.452   7.614   7.832
    1STR   C03259384   2.403   7.815   7.778
    1STR   H03359385   2.359   7.866   7.693
    1STR   H03459386   2.503   7.856   7.798
    1STR   H03559387   2.339   7.838   7.862
    1STR   C03659388   2.266   7.618   7.714
    1STR   H03759389   2.206   7.657   7.794
    1STR   H03859390   2.230   7.669   7.626
    1STR   O03959391   2.240   7.477   7.705
    1STR   C04059392   2.110   7.431   7.749
    1STR   H04159393   2.105   7.453   7.853
    1STR   C04259394   1.987   7.507   7.700
    1STR   H04359395   1.962   7.479   7.600
    1STR   H04459396   1.999   7.615   7.704
    1STR   H04559397   1.903   7.481   7.764
    1STR   C04659398   2.106   7.276   7.735
    1STR   H04759399   2.184   7.249   7.669
    1STR   H04859400   2.153   7.236   7.819
    1STR   O04959401   1.986   7.201   7.707
    1STR   C05059402   1.982   7.058   7.737
    1STR   H05159403   1.938   7.042   7.834
    1STR   C05259404   1.870   7.002   7.652
    1STR   H05359405   1.894   6.986   7.548
    1STR   H05459406   1.783   7.066   7.656
    1STR   H05559407   1.845   6.904   7.691
    1STR   C05659408   2.109   6.966   7.719
    1STR   H05759409   2.087   6.888   7.648
    1STR   H05859410   2.187   7.029   7.681
    1STR   O05959411   2.182   6.905   7.826
    1STR   C06059412   2.161   6.772   7.873
    1STR   H06159413   2.153   6.793   7.979
    1STR   C06259414   2.023   6.716   7.837
    1STR   H06359415   2.016   6.689   7.731
    1STR   H06459416   1.944   6.788   7.857
    1STR   H06559417   2.001   6.628   7.897
    1STR   C06659418   2.276   6.666   7.858
    1STR   H06759419   2.277   6.603   7.946
    1STR   H06859420   2.241   6.595   7.785
    1STR   O06959421   2.412   6.700   7.818
    1STR   C07059422   2.531   6.667   7.894
    1STR   H07159423   2.522   6.732   7.981
    1STR   C07259424   2.546   6.521   7.939
    1STR   H07359425   2.612   6.462   7.877
    1STR   H07459426   2.453   6.468   7.943
    1STR   H07559427   2.593   6.517   8.038
    1STR   C07659428   2.669   6.705   7.833
    1STR   H07759429   2.711   6.623   7.776
    1STR   H07859430   2.666   6.786   7.761
    1STR   O07959431   2.752   6.742   7.943
    1STR   C08059432   2.893   6.752   7.928
    1STR   H08159433   2.929   6.787   8.024
    1STR   C08259434   2.949   6.610   7.915
    1STR   H08359435   2.913   6.558   7.827
    1STR   H08459436   2.920   6.551   8.002
    1STR   H08559437   3.058   6.612   7.911
    1STR   C08659438   2.944   6.852   7.820
    1STR   H08759439   3.052   6.846   7.813
    1STR   H08859440   2.907   6.822   7.722
    1STR   O08959441   2.909   6.990   7.837
    1STR   C09059442   2.943   7.061   7.956
    1STR   H09159443   2.896   6.996   8.028
    1STR   C09259444   3.094   7.065   7.982
    1STR   H09359445   3.145   7.114   7.899
    1STR   H09459446   3.135   6.966   7.995
    1STR   H09559447   3.113   7.122   8.073
    1STR   C09659448   2.883   7.206   7.946
    1STR   H09759449   2.960   7.276   7.914
    1STR   H09859450   2.806   7.190   7.872
    1STR   O09959451   2.807   7.279   8.042
    1STR   C10059452   2.728   7.389   7.990
    1STR   H10159453   2.795   7.457   7.937
    1STR   C10259454   2.611   7.344   7.901
    1STR   H10359455   2.639   7.293   7.810
    1STR   H10459456   2.551   7.429   7.870
    1STR   H10559457   2.544   7.281   7.957
    1STR   C10659458   2.663   7.469   8.103
    1STR   H10759459   2.593   7.401   8.152
    1STR   H10859460   2.739   7.497   8.175
    1STR   O10959461   2.590   7.585   8.058
    1STR   C11059462   2.523   7.654   8.164
    1STR   H11159463   2.478   7.582   8.231
    1STR   C11259464   2.623   7.745   8.236
    1STR   H11359465   2.666   7.818   8.168
    1STR   H11459466   2.706   7.689   8.280
    1STR   H11559467   2.575   7.799   8.318
    1STR   C11659468   2.406   7.739   8.115
    1STR   H11759469   2.349   7.781   8.198
    1STR   H11859470   2.445   7.825   8.059
    1STR   O11959471   2.320   7.669   8.028
    1STR   C12059472   2.239   7.569   8.084
    1STR   H12159473   2.247   7.569   8.193
    1STR   C12259474   2.096   7.614   8.047
    1STR   H12359475   2.086   7.659   7.950
    1STR   H12459476   2.061   7.692   8.115
    1STR   H12559477   2.023   7.534   8.049
    1STR   C12659478   2.290   7.431   8.032
    1STR   H12759479   2.335   7.439   7.933
    1STR   H12859480   2.369   7.392   8.098
    1STR   O12959481   2.182   7.340   8.024
    1STR   C13059482   2.199   7.201   8.053
    1STR   H13159483   2.222   7.175   8.154
    1STR   C13259484   2.064   7.140   8.017
    1STR   H13359485   2.004   7.202   7.952
    1STR   H13459486   1.995   7.132   8.094
    1STR   H13559487   2.073   7.037   7.985
    1STR   C13659488   2.312   7.134   7.984
    1STR   H13759489   2.280   7.031   7.974
    1STR   H13859490   2.333   7.175   7.886
    1STR   O13959491   2.427   7.127   8.066
    1STR   C14059492   2.505   7.014   8.032
    1STR   H14159493   2.460   6.921   8.061
    1STR   C14259494   2.514   6.997   7.882
    1STR   H14359495   2.604   6.944   7.862
    1STR   H14459496   2.516   7.093   7.832
    1STR   H14559497   2.431   6.940   7.841
    1STR   C14659498   2.644   7.018   8.093
    1STR   H14759499   2.690   6.920   8.085
    1STR   H14859500   2.694   7.083   8.026
    1STR   O14959501   2.658   7.068   8.225
    1STR   C15059502   2.795   7.088   8.261
    1STR   H15159503   2.856   7.105   8.177
    1STR   C15259504   2.813   7.224   8.321
    1STR   H15359505   2.743   7.292   8.276
    1STR   H15459506   2.913   7.264   8.305
    1STR   H15559507   2.792   7.220   8.425
    1STR   C15659508   2.863   6.975   8.336
    1STR   H15759509   2.968   7.001   8.349
    1STR   H15859510   2.822   6.964   8.436
    1STR   O15959511   2.860   6.857   8.257
    1STR   C16059512   2.784   6.748   8.307
    1STR   H16159513   2.786   6.670   8.231
    1STR   C16259514   2.855   6.694   8.433
    1STR   H16359515   2.847   6.762   8.517
    1STR   H16459516   2.961   6.677   8.413
    1STR   H16559517   2.811   6.599   8.464
    1STR   C16659518   2.636   6.783   8.333
    1STR   H16759519   2.605   6.716   8.411
    1STR   H16859520   2.623   6.884   8.368
    1STR   O16959521   2.548   6.769   8.223
    1STR   C17059522   2.409   6.773   8.261
    1STR   H17159523   2.401   6.748   8.361
    1STR   C17259524   2.334   6.908   8.260
    1STR   H17359525   2.401   6.990   8.281
    1STR   H17459526   2.256   6.913   8.335
    1STR   H17559527   2.281   6.928   8.167
    1STR   C17659528   2.342   6.663   8.184
    1STR   H17759529   2.259   6.704   8.129
    1STR   H17859530   2.415   6.628   8.115
    1STR   O17959531   2.303   6.552   8.261
    1STR   C18059532   2.294   6.428   8.192
    1STR   H18159533   2.313   6.452   8.090
    1STR   C18259534   2.410   6.343   8.243
    1STR   H18359535   2.505   6.393   8.224
    1STR   H18459536   2.415   6.244   8.198
    1STR   H18559537   2.404   6.329   8.350
    1STR   C18659538   2.155   6.356   8.186
    1STR   H18759539   2.167   6.254   8.151
    1STR   H18859540   2.111   6.331   8.280
    1STR   O18959541   2.068   6.430   8.098
    1STR   C19059542   1.927   6.406   8.095
    1STR   H19159543   1.889   6.467   8.013
    1STR   C19259544   1.894   6.262   8.059
    1STR   H19359545   1.938   6.191   8.129
    1STR   H19459546   1.929   6.242   7.959
    1STR   H19559547   1.786   6.245   8.058
    1STR   C19659548   1.848   6.455   8.218
    1STR   H19759549   1.813   6.558   8.208
    1STR   H19859550   1.757   6.397   8.231
    1STR   O19959551   1.925   6.437   8.334
    1STR   C20059552   1.999   6.551   8.377
    1STR   H20159553   1.929   6.583   8.450
    1STR   C20259554   2.122   6.508   8.459
    1STR   H20359555   2.180   6.595   8.480
    1STR   H20459556   2.194   6.442   8.419
    1STR   H20559557   2.101   6.462   8.552
    1STR   C20659558   2.031   6.673   8.282
    1STR   H20759559   2.111   6.732   8.327
    1STR   H20859560   2.068   6.641   8.185
    1STR   O20959561   1.922   6.761   8.259
    1STR   C21059562   1.953   6.890   8.203
    1STR   H21159563   2.047   6.886   8.149
    1STR   C21259564   1.834   6.900   8.105
    1STR   H21359565   1.741   6.904   8.161
    1STR   H21459566   1.829   6.814   8.040
    1STR   H21559567   1.838   6.990   8.044
    1STR   C21659568   1.954   7.010   8.303
    1STR   H21759569   1.859   7.060   8.296
    1STR   H21859570   1.960   6.977   8.404
    1STR   O21959571   2.059   7.107   8.297
    1STR   C22059572   2.029   7.247   8.327
    1STR   H22159573   1.982   7.253   8.423
    1STR   C22259574   2.165   7.322   8.327
    1STR   H22359575   2.253   7.260   8.344
    1STR   H22459576   2.172   7.413   8.381
    1STR   H22559577   2.181   7.369   8.236
    1STR   C22659578   1.931   7.326   8.240
    1STR   H22759579   1.886   7.402   8.303
    1STR   H22859580   1.982   7.374   8.158
    1STR   O22959581   1.831   7.251   8.180
    1STR   C23059582   1.716   7.320   8.141
    1STR   H23159583   1.688   7.395   8.215
    1STR   C23259584   1.739   7.393   8.009
    1STR   H23359585   1.790   7.330   7.936
    1STR   H23459586   1.801   7.481   8.024
    1STR   H23559587   1.644   7.428   7.967
    1STR   C23659588   1.616   7.204   8.140
    1STR   H23759589   1.515   7.237   8.120
    1STR   H23859590   1.649   7.130   8.069
    1STR   O23959591   1.616   7.121   8.254
    1STR   C24059592   1.631   7.188   8.376
    1STR   H24159593   1.725   7.240   8.387
    1STR   C24259594   1.514   7.286   8.391
    1STR   H24359595   1.529   7.338   8.484
    1STR   H24459596   1.418   7.236   8.390
    1STR   H24559597   1.508   7.364   8.316
    1STR   C24659598   1.635   7.079   8.480
    1STR   H24759599   1.650   7.124   8.578
    1STR   H24859600   1.542   7.026   8.471
    1STR   O24959601   1.726   6.975   8.456
    1STR   C25059602   1.773   6.912   8.574
    1STR   H25159603   1.837   6.980   8.629
    1STR   C25259604   1.662   6.866   8.658
    1STR   H25359605   1.602   6.804   8.593
    1STR   H25459606   1.609   6.949   8.703
    1STR   H25559607   1.696   6.802   8.739
    1STR   C25659608   1.837   6.782   8.535
    1STR   H25759609   1.817   6.700   8.604
    1STR   H25859610   1.790   6.749   8.443
    1STR   O25959611   1.975   6.796   8.521
    1STR   C26059612   2.046   6.807   8.639
    1STR   H26159613   1.996   6.873   8.706
    1STR   C26259614   2.060   6.666   8.698
    1STR   H26359615   1.989   6.601   8.652
    1STR   H26459616   2.032   6.653   8.800
    1STR   H26559617   2.160   6.625   8.691
    1STR   C26659618   2.173   6.878   8.598
    1STR   H26759619   2.150   6.958   8.528
    1STR   H26859620   2.215   6.929   8.683
    1STR   O26959621   2.261   6.792   8.529
    1STR   C27059622   2.380   6.764   8.597
    1STR   H27159623   2.343   6.751   8.694
    1STR   C27259624   2.434   6.623   8.567
    1STR   H27359625   2.439   6.588   8.464
    1STR   H27459626   2.359   6.558   8.609
    1STR   H27559627   2.533   6.603   8.608
    1STR   C27659628   2.474   6.884   8.612
    1STR   H27759629   2.498   6.894   8.716
    1STR   H27859630   2.570   6.873   8.564
    1STR   O27959631   2.405   7.002   8.572
    1STR   C28059632   2.472   7.120   8.602
    1STR   H28159633   2.535   7.108   8.687
    1STR   C28259634   2.552   7.146   8.479
    1STR   H28359635   2.491   7.145   8.389
    1STR   H28459636   2.631   7.074   8.470
    1STR   H28559637   2.595   7.244   8.484
    1STR   C28659638   2.386   7.241   8.633
    1STR   H28759639   2.440   7.305   8.699
    1STR   H28859640   2.376   7.298   8.541
    1STR   O28959641   2.264   7.211   8.699
    1STR   C29059642   2.156   7.249   8.616
    1STR   H29159643   2.184   7.202   8.525
    1STR   C29259644   2.034   7.166   8.647
    1STR   H29359645   2.064   7.086   8.711
    1STR   H29459646   1.995   7.113   8.561
    1STR   H29559647   1.952   7.221   8.688
    1STR   C29659648   2.144   7.406   8.614
    1STR   H29759649   2.151   7.443   8.714
    1STR   H29859650   2.234   7.446   8.570
    1STR   O29959651   2.032   7.467   8.547
    1STR   C30059652   2.042   7.606   8.509
    1STR   H30159653   2.147   7.632   8.507
    1STR   C30259654   1.991   7.626   8.367
    1STR   H30359655   1.883   7.610   8.362
    1STR   H30459656   2.040   7.560   8.297
    1STR   H30559657   2.010   7.728   8.333
    1STR   C30659658   1.964   7.706   8.595
    1STR   H30759659   2.018   7.735   8.685
    1STR   H30859660   1.960   7.802   8.543
    1STR   O30959661   1.828   7.667   8.618
    1STR    H1R59662   1.705   7.580   8.744
    1STR    H1S59663   1.679   7.372   8.658
    1STR    H1T59664   1.836   7.362   8.585
    1STR    H1U59665   1.718   7.465   8.512
    1STR    H1V59666   1.870   7.573   8.895
    1STR    H1W59667   1.997   7.563   8.783
    1STR    H1X59668   2.156   7.238   8.992
    1STR    H1Y59669   1.805   7.172   8.859
    1STR    H1Z59670   1.717   6.948   8.885
    1STR    H2059671   1.914   6.647   9.005
    1STR    H2159672   1.754   6.716   9.007
    1STR    H2259673   1.825   6.666   8.855
    1STR    H2359674   2.104   6.686   8.985
    1STR    H2759675   2.186   7.038   8.976
    1STR    H2859676   2.001   7.109   7.435
    1STR    H2959677   1.952   7.343   7.396
    1STR    H2A59678   2.033   7.589   7.447
    1STR    H2B59679   2.106   7.563   7.295
    1STR    H2C59680   2.206   7.618   7.426
    1STR   BCK159681   4.800   0.063   0.485
    1STR    O0359682   4.735   9.283   0.465
    1STR    N0459683   4.930   0.060   0.475
    1STR    C0559684   5.009   9.267   0.483
    1STR    C0659685   5.120   9.283   0.567
    1STR    C0759686   5.219   9.186   0.578
    1STR    N0859687   5.331   9.202   0.660
    1STR    C0959688   5.385   9.307   0.723
    1STR    O0A59689   5.487   9.289   0.789
    1STR    O0B59690   5.327   0.109   0.703
    1STR    C0C59691   5.336   0.221   0.793
    1STR    C0D59692   5.474   0.247   0.857
    1STR    C0E59693   5.278   0.349   0.725
    1STR    O0F59694   5.176   0.409   0.808
    1STR    C0G59695   5.041   0.402   0.758
    1STR    C0H59696   5.013   0.256   0.724
    1STR    C0I59697   4.937   0.460   0.858
    1STR    O0J59698   4.802   0.420   0.826
    1STR    C0K59699   4.560   8.557   1.758
    1STR    C0M59700   4.417   8.612   1.771
    1STR    C0N59701   4.646   8.558   1.887
    1STR    O0O59702   4.783   8.512   1.881
    1STR    C0P59703   4.891   8.584   1.927
    1STR    O0Q59704   4.888   8.698   1.968
    1STR    N0R59705   5.006   8.516   1.915
    1STR    C0S59706   5.138   8.562   1.927
    1STR    C0T59707   5.241   8.494   1.997
    1STR    C0U59708   5.373   8.542   2.004
    1STR    C0V59709   5.405   8.665   1.945
    1STR    C0W59710   5.542   8.726   1.965
    1STR    C0X59711   5.304   8.734   1.876
    1STR    N0Y59712   5.334   8.860   1.829
    1STR   BCK259713   5.258   8.968   1.829
    1STR    O1059714   5.305   9.068   1.776
    1STR    C1359715   5.176   8.678   1.860
    1STR    C1459716   5.205   9.069   0.501
    1STR    C1559717   5.100   9.058   0.409
    1STR    C1659718   4.996   9.151   0.402
    1STR    C1759719   4.888   9.129   0.296
    1STR    H1B59720   4.976   0.149   0.472
    1STR    H1C59721   5.127   0.051   0.625
    1STR    H1D59722   5.378   9.117   0.684
    1STR    H1E59723   5.270   0.196   0.876
    1STR    H1F59724   5.556   0.228   0.788
    1STR    H1G59725   5.483   0.349   0.893
    1STR    H1H59726   5.490   0.181   0.941
    1STR    H1I59727   5.243   0.326   0.625
    1STR    H1J59728   5.356   0.423   0.708
    1STR    H1K59729   5.034   0.460   0.667
    1STR    H1M59730   5.071   0.184   0.780
    1STR    H1N59731   5.038   0.239   0.620
    1STR    H1O59732   4.910   0.230   0.738
    1STR    H1P59733   4.963   0.430   0.960
    1STR    H1Q59734   4.944   0.568   0.856
    1STR   C01059735   4.696   0.433   0.923
    1STR   H01159736   4.712   0.358   0.999
    1STR   C01259737   4.712   0.569   0.994
    1STR   H01359738   4.742   0.650   0.929
    1STR   H01459739   4.791   0.565   1.068
    1STR   H01559740   4.620   0.601   1.042
    1STR   C01659741   4.550   0.411   0.866
    1STR   H01759742   4.482   0.439   0.946
    1STR   H01859743   4.532   0.481   0.785
    1STR   O01959744   4.508   0.279   0.819
    1STR   C02059745   4.366   0.242   0.821
    1STR   H02159746   4.331   0.227   0.923
    1STR   C02259747   4.282   0.362   0.771
    1STR   H02359748   4.316   0.395   0.674
    1STR   H02459749   4.286   0.447   0.838
    1STR   H02559750   4.177   0.335   0.761
    1STR   C02659751   4.334   0.116   0.731
    1STR   H02759752   4.250   0.141   0.667
    1STR   H02859753   4.426   0.116   0.678
    1STR   O02959754   4.324   9.294   0.763
    1STR   C03059755   4.281   9.192   0.666
    1STR   H03159756   4.240   9.121   0.736
    1STR   C03259757   4.157   9.236   0.590
    1STR   H03359758   4.116   9.156   0.530
    1STR   H03459759   4.171   9.320   0.524
    1STR   H03559760   4.082   9.265   0.662
    1STR   C03659761   4.366   9.089   0.577
    1STR   H03759762   4.333   8.989   0.606
    1STR   H03859763   4.338   9.097   0.474
    1STR   O03959764   4.508   9.086   0.568
    1STR   C04059765   4.575   8.961   0.555
    1STR   H04159766   4.533   8.892   0.626
    1STR   C04259767   4.560   8.919   0.411
    1STR   H04359768   4.605   8.995   0.348
    1STR   H04459769   4.457   8.906   0.380
    1STR   H04559770   4.613   8.826   0.401
    1STR   C04659771   4.723   8.976   0.593
    1STR   H04759772   4.771   9.046   0.526
    1STR   H04859773   4.720   9.025   0.687
    1STR   O04959774   4.807   8.861   0.620
    1STR   C05059775   4.946   8.899   0.642
    1STR   H05159776   4.980   8.911   0.541
    1STR   C05259777   4.961   9.028   0.723
    1STR   H05359778   4.916   9.113   0.673
    1STR   H05459779   5.062   9.059   0.744
    1STR   H05559780   4.913   9.015   0.819
    1STR   C05659781   5.044   8.798   0.704
    1STR   H05759782   5.003   8.763   0.798
    1STR   H05859783   5.056   8.712   0.638
    1STR   O05959784   5.173   8.860   0.722
    1STR   C06059785   5.227   8.851   0.854
    1STR   H06159786   5.144   8.853   0.923
    1STR   C06259787   5.302   8.718   0.859
    1STR   H06359788   5.379   8.715   0.782
    1STR   H06459789   5.234   8.634   0.841
    1STR   H06559790   5.350   8.702   0.955
    1STR   C06659791   5.318   8.969   0.897
    1STR   H06759792   5.366   8.944   0.992
    1STR   H06859793   5.399   8.984   0.826
    1STR   O06959794   5.244   9.090   0.910
    1STR   C07059795   5.249   9.165   1.032
    1STR   H07159796   5.210   9.108   1.116
    1STR   C07259797   5.390   9.212   1.073
    1STR   H07359798   5.422   9.298   1.016
    1STR   H07459799   5.466   9.135   1.064
    1STR   H07559800   5.389   9.245   1.177
    1STR   C07659801   5.156   9.286   1.007
    1STR   H07759802   5.190   0.051   1.066
    1STR   H07859803   5.160   9.313   0.902
    1STR   O07959804   5.023   9.257   1.045
    1STR   C08059805   4.923   0.025   0.994
    1STR   H08159806   4.831   0.016   1.048
    1STR   C08259807   4.954   0.173   1.013
    1STR   H08359808   5.053   0.205   0.981
    1STR   H08459809   4.947   0.204   1.115
    1STR   H08559810   4.878   0.229   0.962
    1STR   C08659811   4.862   9.302   0.861
    1STR   H08759812   4.808   0.068   0.827
    1STR   H08859813   4.941   9.286   0.789
    1STR   O08959814   4.778   9.184   0.878
    1STR   C09059815   4.635   9.180   0.850
    1STR   H09159816   4.578   9.249   0.906
    1STR   C09259817   4.620   9.267   0.734
    1STR   H09359818   4.700   9.237   0.671
    1STR   H09459819   4.624   0.053   0.758
    1STR   H09559820   4.527   9.256   0.690
    1STR   C09659821   4.541   9.049   0.863
    1STR   H09759822   4.486   9.059   0.955
    1STR   H09859823   4.458   9.056   0.796
    1STR   O09959824   4.588   8.911   0.865
    1STR   C10059825   4.501   8.810   0.927
    1STR   H10159826   4.458   8.845   1.019
    1STR   C10259827   4.378   8.784   0.842
    1STR   H10359828   4.409   8.760   0.743
    1STR   H10459829   4.315   8.871   0.833
    1STR   H10559830   4.318   8.703   0.882
    1STR   C10659831   4.583   8.677   0.954
    1STR   H10759832   4.539   8.590   0.906
    1STR   H10859833   4.673   8.705   0.903
    1STR   O10959834   4.619   8.639   1.089
    1STR   C11059835   4.748   8.576   1.121
    1STR   H11159836   4.750   8.580   1.230
    1STR   C11259837   4.746   8.424   1.092
    1STR   H11359838   4.738   8.396   0.987
    1STR   H11459839   4.661   8.377   1.138
    1STR   H11559840   4.836   8.378   1.132
    1STR   C11659841   4.884   8.649   1.092
    1STR   H11759842   4.964   8.577   1.077
    1STR   H11859843   4.880   8.707   1.001
    1STR   O11959844   4.923   8.729   1.205
    1STR   C12059845   5.005   8.846   1.188
    1STR   H12159846   5.001   8.897   1.284
    1STR   C12259847   5.151   8.804   1.170
    1STR   H12359848   5.161   8.726   1.096
    1STR   H12459849   5.196   8.767   1.261
    1STR   H12559850   5.211   8.890   1.143
    1STR   C12659851   4.954   8.952   1.086
    1STR   H12759852   5.035   9.013   1.052
    1STR   H12859853   4.916   8.909   0.995
    1STR   O12959854   4.863   9.044   1.145
    1STR   C13059855   4.724   9.029   1.116
    1STR   H13159856   4.725   9.027   1.011
    1STR   C13259857   4.687   8.891   1.146
    1STR   H13359858   4.737   8.843   1.226
    1STR   H13459859   4.720   8.839   1.059
    1STR   H13559860   4.582   8.881   1.163
    1STR   C13659861   4.611   9.128   1.165
    1STR   H13759862   4.513   9.086   1.149
    1STR   H13859863   4.611   9.150   1.270
    1STR   O13959864   4.618   9.254   1.109
    1STR   C14059865   4.517   0.027   1.135
    1STR   H14159866   4.506   0.032   1.243
    1STR   C14259867   4.582   0.148   1.072
    1STR   H14359868   4.626   0.126   0.976
    1STR   H14459869   4.660   0.186   1.132
    1STR   H14559870   4.510   0.226   1.054
    1STR   C14659871   4.385   0.010   1.061
    1STR   H14759872   4.311   0.080   1.092
    1STR   H14859873   4.407   0.033   0.959
    1STR   O14959874   4.332   9.203   1.055
    1STR   C15059875   4.192   9.192   1.057
    1STR   H15159876   4.154   9.214   1.157
    1STR   C15259877   4.108   9.276   0.960
    1STR   H15359878   4.100   9.228   0.864
    1STR   H15459879   4.146   0.057   0.945
    1STR   H15559880   4.006   9.284   0.997
    1STR   C15659881   4.184   9.044   1.021
    1STR   H15759882   4.081   9.012   1.013
    1STR   H15859883   4.224   9.033   0.921
    1STR   O15959884   4.267   8.962   1.104
    1STR   C16059885   4.251   8.982   1.244
    1STR   H16159886   4.265   9.086   1.273
    1STR   C16259887   4.107   8.938   1.274
    1STR   H16359888   4.101   8.835   1.310
    1STR   H16459889   4.033   8.949   1.196
    1STR   H16559890   4.072   9.009   1.347
    1STR   C16659891   4.359   8.907   1.324
    1STR   H16759892   4.318   8.869   1.417
    1STR   H16859893   4.383   8.821   1.263
    1STR   O16959894   4.473   8.992   1.354
    1STR   C17059895   4.585   8.944   1.432
    1STR   H17159896   4.563   8.961   1.536
    1STR   C17259897   4.590   8.791   1.417
    1STR   H17359898   4.559   8.748   1.323
    1STR   H17459899   4.531   8.742   1.494
    1STR   H17559900   4.693   8.758   1.418
    1STR   C17659901   4.729   9.014   1.425
    1STR   H17759902   4.792   8.956   1.489
    1STR   H17859903   4.786   8.991   1.342
    1STR   O17959904   4.750   9.158   1.444
    1STR   C18059905   4.874   9.219   1.395
    1STR   H18159906   4.939   9.142   1.353
    1STR   C18259907   4.825   9.308   1.291
    1STR   H18359908   4.733   0.039   1.320
    1STR   H18459909   4.809   9.243   1.212
    1STR   H18559910   4.901   0.053   1.253
    1STR   C18659911   4.969   9.318   1.469
    1STR   H18759912   5.014   9.271   1.556
    1STR   H18859913   5.059   0.009   1.410
    1STR   O18959914   4.913   0.128   1.501
    1STR   C19059915   4.933   0.244   1.417
    1STR   H19159916   4.949   0.322   1.488
    1STR   C19259917   5.067   0.249   1.340
    1STR   H19359918   5.084   0.167   1.272
    1STR   H19459919   5.150   0.249   1.410
    1STR   H19559920   5.076   0.341   1.283
    1STR   C19659921   4.809   0.298   1.340
    1STR   H19759922   4.836   0.391   1.291
    1STR   H19859923   4.792   0.234   1.258
    1STR   O19959924   4.690   0.309   1.421
    1STR   C20059925   4.579   0.397   1.389
    1STR   H20159926   4.533   0.424   1.483
    1STR   C20259927   4.612   0.531   1.324
    1STR   H20359928   4.671   0.515   1.235
    1STR   H20459929   4.664   0.597   1.392
    1STR   H20559930   4.520   0.582   1.294
    1STR   C20659931   4.472   0.323   1.311
    1STR   H20759932   4.486   0.349   1.207
    1STR   H20859933   4.489   0.218   1.326
    1STR   O20959934   4.337   0.356   1.343
    1STR   C21059935   4.245   0.269   1.277
    1STR   H21159936   4.277   0.259   1.174
    1STR   C21259937   4.241   0.132   1.348
    1STR   H21359938   4.144   0.083   1.349
    1STR   H21459939   4.275   0.142   1.450
    1STR   H21559940   4.307   0.060   1.304
    1STR   C21659941   4.107   0.333   1.266
    1STR   H21759942   4.074   0.368   1.363
    1STR   H21859943   4.114   0.422   1.203
    1STR   O21959944   4.017   0.241   1.205
    1STR   C22059945   3.910   0.198   1.289
    1STR   H22159946   3.947   0.168   1.387
    1STR   C22259947   3.814   0.317   1.307
    1STR   H22359948   3.757   0.336   1.216
    1STR   H22459949   3.865   0.410   1.332
    1STR   H22559950   3.746   0.300   1.390
    1STR   C22659951   3.843   0.076   1.224
    1STR   H22759952   3.735   0.084   1.231
    1STR   H22859953   3.862   0.075   1.116
    1STR   O22959954   3.888   9.272   1.281
    1STR   C23059955   3.783   9.187   1.327
    1STR   H23159956   3.715   9.249   1.386
    1STR   C23259957   3.709   9.125   1.208
    1STR   H23359958   3.778   9.066   1.147
    1STR   H23459959   3.664   9.200   1.143
    1STR   H23559960   3.629   9.059   1.242
    1STR   C23659961   3.833   9.078   1.424
    1STR   H23759962   3.746   9.047   1.482
    1STR   H23859963   3.865   8.990   1.370
    1STR   O23959964   3.936   9.130   1.508
    1STR   C24059965   3.984   9.050   1.617
    1STR   H24159966   4.024   9.120   1.689
    1STR   C24259967   3.875   8.972   1.687
    1STR   H24359968   3.839   8.888   1.628
    1STR   H24459969   3.791   9.037   1.711
    1STR   H24559970   3.915   8.934   1.780
    1STR   C24659971   4.106   8.965   1.589
    1STR   H24759972   4.139   8.918   1.681
    1STR   H24859973   4.080   8.882   1.524
    1STR   O24959974   4.207   9.046   1.530
    1STR   C25059975   4.299   9.104   1.620
    1STR   H25159976   4.243   9.163   1.691
    1STR   C25259977   4.375   8.991   1.689
    1STR   H25359978   4.473   9.030   1.714
    1STR   H25459979   4.386   8.903   1.627
    1STR   H25559980   4.331   8.959   1.782
    1STR   C25659981   4.394   9.205   1.552
    1STR   H25759982   4.494   9.165   1.537
    1STR   H25859983   4.358   9.231   1.453
    1STR   O25959984   4.403   9.319   1.636
    1STR   C26059985   4.504   0.093   1.603
    1STR   H26159986   4.527   0.093   1.497
    1STR   C26259987   4.456   0.230   1.651
    1STR   H26359988   4.425   0.224   1.755
    1STR   H26459989   4.376   0.271   1.591
    1STR   H26559990   4.538   0.301   1.650
    1STR   C26659991   4.631   0.067   1.681
    1STR   H26759992   4.707   0.139   1.651
    1STR   H26859993   4.609   0.082   1.786
    1STR   O26959994   4.676   9.256   1.665
    1STR   C27059995   4.806   9.236   1.717
    1STR   H27159996   4.873   9.316   1.691
    1STR   C27259997   4.802   9.238   1.863
    1STR   H27359998   4.701   9.208   1.887
    1STR   H27459999   4.831   0.016   1.896
    1STR   H27560000   4.870   9.169   1.911
    1STR   C27660001   4.853   9.097   1.683
    1STR   H27760002   4.907   9.084   1.591
    1STR   H27860003   4.933   9.071   1.744
    1STR   O27960004   4.741   9.014   1.701
    1STR   C28060005   4.764   8.904   1.782
    1STR   H28160006   4.843   8.920   1.851
    1STR   C28260007   4.634   8.900   1.862
    1STR   H28360008   4.556   8.847   1.810
    1STR   H28460009   4.599   9.002   1.881
    1STR   H28560010   4.647   8.862   1.961
    1STR   C28660011   4.799   8.788   1.688
    1STR   H28760012   4.791   8.695   1.737
    1STR   H28860013   4.723   8.789   1.614
    1STR   O28960014   4.929   8.791   1.633
    1STR   C29060015   4.954   8.701   1.525
    1STR   H29160016   4.902   8.736   1.437
    1STR   C29260017   5.104   8.720   1.502
    1STR   H29360018   5.162   8.695   1.591
    1STR   H29460019   5.127   8.823   1.476
    1STR   H29560020   5.139   8.654   1.423
    1STR   C29660021   4.924   8.550   1.546
    1STR   H29760022   5.016   8.495   1.525
    1STR   H29860023   4.907   8.530   1.652
    1STR   O29960024   4.829   8.485   1.458
    1STR   C30060025   4.693   8.484   1.499
    1STR   H30160026   4.674   8.586   1.523
    1STR   C30260027   4.592   8.441   1.392
    1STR   H30360028   4.621   8.347   1.346
    1STR   H30460029   4.576   8.516   1.315
    1STR   H30560030   4.493   8.427   1.435
    1STR   C30660031   4.667   8.395   1.620
    1STR   H30760032   4.656   8.293   1.584
    1STR   H30860033   4.750   8.396   1.688
    1STR   O30960034   4.550   8.433   1.691
    1STR    H1R60035   4.599   8.634   1.695
    1STR    H1S60036   4.387   8.663   1.680
    1STR    H1T60037   4.409   8.683   1.853
    1STR    H1U60038   4.345   8.533   1.785
    1STR    H1V60039   4.595   8.509   1.968
    1STR    H1W60040   4.648   8.661   1.913
    1STR    H1X60041   4.988   8.417   1.910
    1STR    H1Y60042   5.227   8.402   2.050
    1STR    H1Z60043   5.446   8.488   2.061
    1STR    H2060044   5.598   8.725   1.872
    1STR    H2160045   5.533   8.830   1.999
    1STR    H2260046   5.598   8.672   2.041
    1STR    H2360047   5.427   8.878   1.795
    1STR    H2760048   5.101   8.726   1.799
    1STR    H2860049   5.276   8.988   0.507
    1STR    H2960050   5.096   8.974   0.343
    1STR    H2A60051   4.815   9.054   0.325
    1STR    H2B60052   4.929   9.094   0.203
    1STR    H2C60053   4.835   9.219   0.268
    1STR   BCK160054   4.567   0.348   2.901
    1STR    O0360055   4.595   0.235   2.936
    1STR    N0460056   4.446   0.376   2.851
    1STR    C0560057   4.391   0.499   2.825
    1STR    C0660058   4.283   0.551   2.901
    1STR    C0760059   4.247   0.687   2.893
    1STR    N0860060   4.159   0.749   2.982
    1STR    C0960061   4.059   0.700   3.055
    1STR    O0A60062   4.012   0.765   3.148
    1STR    O0B60063   4.016   0.582   3.015
    1STR    C0C60064   4.008   0.472   3.103
    1STR    C0D60065   3.883   0.471   3.192
    1STR    C0E60066   4.015   0.353   3.009
    1STR    O0F60067   4.067   0.229   3.057
    1STR    C0G60068   4.166   0.162   2.979
    1STR    C0H60069   4.292   0.200   3.047
    1STR    C0I60070   4.151   0.008   2.982
    1STR    O0J60071   4.123   9.247   2.868
    1STR    C0K60072   5.414   0.666   3.944
    1STR    C0M60073   5.401   0.734   3.807
    1STR    C0N60074   5.310   0.718   4.047
    1STR    O0O60075   5.190   0.771   3.988
    1STR    C0P60076   5.074   0.750   4.051
    1STR    O0Q60077   5.063   0.679   4.150
    1STR    N0R60078   4.971   0.809   3.990
    1STR    C0S60079   4.834   0.780   4.006
    1STR    C0T60080   4.736   0.869   3.958
    1STR    C0U60081   4.599   0.836   3.965
    1STR    C0V60082   4.557   0.713   4.017
    1STR    C0W60083   4.409   0.687   4.041
    1STR    C0X60084   4.653   0.617   4.052
    1STR    N0Y60085   4.607   0.492   4.089
    1STR   BCK260086   4.665   0.379   4.127
    1STR    O1060087   4.592   0.283   4.144
    1STR    C1360088   4.789   0.655   4.052
    1STR    C1460089   4.317   0.769   2.803
    1STR    C1560090   4.416   0.713   2.721
    1STR    C1660091   4.450   0.578   2.727
    1STR    C1760092   4.544   0.518   2.626
    1STR    H1B60093   4.391   0.293   2.835
    1STR    H1C60094   4.241   0.491   2.978
    1STR    H1D60095   4.178   0.845   3.006
    1STR    H1E60096   4.096   0.478   3.165
    1STR    H1F60097   3.791   0.475   3.134
    1STR    H1G60098   3.879   0.381   3.253
    1STR    H1H60099   3.883   0.557   3.260
    1STR    H1I60100   4.070   0.383   2.920
    1STR    H1J60101   3.912   0.336   2.979
    1STR    H1K60102   4.188   0.207   2.883
    1STR    H1M60103   4.288   0.170   3.150
    1STR    H1N60104   4.307   0.306   3.044
    1STR    H1O60105   4.379   0.152   3.006
    1STR    H1P60106   4.248   9.290   3.012
    1STR    H1Q60107   4.075   9.307   3.056
    1STR   C01060108   4.111   9.105   2.894
    1STR   H01160109   4.087   9.081   2.997
    1STR   C01260110   3.990   9.059   2.814
    1STR   H01360111   3.997   9.097   2.712
    1STR   H01460112   3.897   9.095   2.857
    1STR   H01560113   3.983   8.950   2.810
    1STR   C01660114   4.235   9.025   2.852
    1STR   H01760115   4.206   8.931   2.806
    1STR   H01860116   4.283   9.082   2.774
    1STR   O01960117   4.327   8.990   2.956
    1STR   C02060118   4.446   8.925   2.909
    1STR   H02160119   4.416   8.850   2.837
    1STR   C02260120   4.536   9.024   2.835
    1STR   H02360121   4.582   9.099   2.897
    1STR   H02460122   4.484   9.081   2.761
    1STR   H02560123   4.616   8.970   2.785
    1STR   C02660124   4.528   8.856   3.021
    1STR   H02760125   4.502   8.901   3.115
    1STR   H02860126   4.499   8.756   3.043
    1STR   O02960127   4.667   8.849   2.987
    1STR   C03060128   4.761   8.897   3.083
    1STR   H03160129   4.742   8.849   3.179
    1STR   C03260130   4.901   8.856   3.038
    1STR   H03360131   4.927   8.904   2.944
    1STR   H03460132   4.910   8.749   3.026
    1STR   H03560133   4.976   8.888   3.112
    1STR   C03660134   4.752   9.049   3.101
    1STR   H03760135   4.808   9.078   3.189
    1STR   H03860136   4.793   9.101   3.014
    1STR   O03960137   4.616   9.083   3.116
    1STR   C04060138   4.578   9.190   3.194
    1STR   H04160139   4.614   9.164   3.294
    1STR   C04260140   4.646   9.315   3.139
    1STR   H04360141   4.605   0.018   3.041
    1STR   H04460142   4.753   9.304   3.125
    1STR   H04560143   4.629   0.081   3.204
    1STR   C04660144   4.423   9.203   3.182
    1STR   H04760145   4.398   9.308   3.190
    1STR   H04860146   4.401   9.173   3.080
    1STR   O04960147   4.335   9.133   3.274
    1STR   C05060148   4.194   9.161   3.258
    1STR   H05160149   4.188   9.166   3.153
    1STR   C05260150   4.107   9.036   3.279
    1STR   H05360151   4.073   9.023   3.382
    1STR   H05460152   4.161   8.946   3.249
    1STR   H05560153   4.016   9.042   3.219
    1STR   C05660154   4.125   9.289   3.324
    1STR   H05760155   4.033   9.308   3.269
    1STR   H05860156   4.093   9.263   3.424
    1STR   O05960157   4.198   0.093   3.334
    1STR   C06060158   4.124   0.215   3.358
    1STR   H06160159   4.057   0.233   3.276
    1STR   C06260160   4.030   0.202   3.479
    1STR   H06360161   4.083   0.178   3.571
    1STR   H06460162   3.954   0.126   3.463
    1STR   H06560163   3.976   0.296   3.496
    1STR   C06660164   4.215   0.342   3.374
    1STR   H06760165   4.157   0.423   3.417
    1STR   H06860166   4.291   0.320   3.447
    1STR   O06960167   4.276   0.399   3.257
    1STR   C07060168   4.414   0.433   3.271
    1STR   H07160169   4.422   0.484   3.366
    1STR   C07260170   4.487   0.298   3.252
    1STR   H07360171   4.498   0.274   3.148
    1STR   H07460172   4.436   0.214   3.299
    1STR   H07560173   4.589   0.295   3.283
    1STR   C07660174   4.479   0.532   3.175
    1STR   H07760175   4.578   0.495   3.157
    1STR   H07860176   4.432   0.531   3.080
    1STR   O07960177   4.504   0.664   3.222
    1STR   C08060178   4.584   0.738   3.129
    1STR   H08160179   4.589   0.690   3.031
    1STR   C08260180   4.499   0.862   3.106
    1STR   H08360181   4.491   0.919   3.198
    1STR   H08460182   4.398   0.833   3.077
    1STR   H08560183   4.540   0.922   3.026
    1STR   C08660184   4.730   0.768   3.177
    1STR   H08760185   4.754   0.871   3.153
    1STR   H08860186   4.739   0.762   3.285
    1STR   O08960187   4.832   0.686   3.118
    1STR   C09060188   4.965   0.743   3.099
    1STR   H09160189   4.955   0.820   3.022
    1STR   C09260190   5.017   0.819   3.223
    1STR   H09360191   5.006   0.762   3.316
    1STR   H09460192   4.965   0.913   3.237
    1STR   H09560193   5.123   0.841   3.212
    1STR   C09660194   5.066   0.636   3.042
    1STR   H09760195   5.016   0.548   3.002
    1STR   H09860196   5.109   0.681   2.952
    1STR   O09960197   5.181   0.601   3.122
    1STR   C10060198   5.176   0.505   3.229
    1STR   H10160199   5.247   0.546   3.300
    1STR   C10260200   5.041   0.502   3.300
    1STR   H10360201   5.052   0.539   3.400
    1STR   H10460202   4.998   0.404   3.299
    1STR   H10560203   4.962   0.559   3.257
    1STR   C10660204   5.232   0.362   3.202
    1STR   H10760205   5.155   0.296   3.161
    1STR   H10860206   5.312   0.369   3.129
    1STR   O10960207   5.286   0.300   3.320
    1STR   C11060208   5.331   0.163   3.312
    1STR   H11160209   5.343   0.155   3.210
    1STR   C11260210   5.471   0.149   3.372
    1STR   H11360211   5.469   0.162   3.480
    1STR   H11460212   5.538   0.222   3.328
    1STR   H11560213   5.511   0.050   3.350
    1STR   C11660214   5.241   0.039   3.340
    1STR   H11760215   5.298   9.267   3.332
    1STR   H11860216   5.199   0.037   3.439
    1STR   O11960217   5.145   0.033   3.235
    1STR   C12060218   5.014   9.302   3.257
    1STR   H12160219   4.970   9.292   3.158
    1STR   C12260220   5.012   9.161   3.318
    1STR   H12360221   5.094   9.145   3.387
    1STR   H12460222   5.023   9.087   3.240
    1STR   H12560223   4.918   9.138   3.368
    1STR   C12660224   4.934   0.089   3.328
    1STR   H12760225   4.858   0.132   3.262
    1STR   H12860226   4.876   0.052   3.412
    1STR   O12960227   5.024   0.194   3.359
    1STR   C13060228   5.036   0.219   3.496
    1STR   H13160229   5.029   0.124   3.548
    1STR   C13260230   5.162   0.285   3.553
    1STR   H13360231   5.181   0.384   3.510
    1STR   H13460232   5.252   0.225   3.544
    1STR   H13560233   5.153   0.299   3.659
    1STR   C13660234   4.922   0.308   3.525
    1STR   H13760235   4.914   0.274   3.623
    1STR   H13860236   4.948   0.412   3.525
    1STR   O13960237   4.800   0.286   3.460
    1STR   C14060238   4.705   0.383   3.497
    1STR   H14160239   4.731   0.443   3.585
    1STR   C14260240   4.714   0.487   3.387
    1STR   H14360241   4.734   0.443   3.290
    1STR   H14460242   4.797   0.554   3.404
    1STR   H14560243   4.626   0.547   3.385
    1STR   C14660244   4.573   0.312   3.534
    1STR   H14760245   4.549   0.322   3.639
    1STR   H14860246   4.488   0.365   3.500
    1STR   O14960247   4.571   0.177   3.488
    1STR   C15060248   4.500   0.079   3.562
    1STR   H15160249   4.569   0.043   3.637
    1STR   C15260250   4.370   0.126   3.618
    1STR   H15360251   4.294   0.141   3.544
    1STR   H15460252   4.375   0.213   3.680
    1STR   H15560253   4.338   0.043   3.676
    1STR   C15660254   4.463   9.284   3.472
    1STR   H15760255   4.360   9.289   3.440
    1STR   H15860256   4.518   9.313   3.385
    1STR   O15960257   4.492   9.147   3.505
    1STR   C16060258   4.413   9.080   3.602
    1STR   H16160259   4.424   9.137   3.692
    1STR   C16260260   4.265   9.069   3.570
    1STR   H16360261   4.259   9.017   3.476
    1STR   H16460262   4.218   9.167   3.563
    1STR   H16560263   4.212   9.009   3.643
    1STR   C16660264   4.470   8.940   3.625
    1STR   H16760265   4.576   8.942   3.601
    1STR   H16860266   4.461   8.915   3.729
    1STR   O16960267   4.399   8.836   3.557
    1STR   C17060268   4.476   8.750   3.474
    1STR   H17160269   4.402   8.688   3.423
    1STR   C17260270   4.548   8.829   3.366
    1STR   H17360271   4.578   8.763   3.285
    1STR   H17460272   4.637   8.880   3.402
    1STR   H17560273   4.483   8.907   3.326
    1STR   C17660274   4.570   8.654   3.549
    1STR   H17760275   4.512   8.589   3.615
    1STR   H17860276   4.618   8.591   3.475
    1STR   O17960277   4.665   8.724   3.629
    1STR   C18060278   4.799   8.677   3.633
    1STR   H18160279   4.837   8.715   3.727
    1STR   C18260280   4.810   8.523   3.639
    1STR   H18360281   4.798   8.477   3.541
    1STR   H18460282   4.735   8.480   3.705
    1STR   H18560283   4.908   8.493   3.677
    1STR   C18660284   4.883   8.740   3.520
    1STR   H18760285   4.969   8.678   3.497
    1STR   H18860286   4.825   8.742   3.428
    1STR   O18960287   4.924   8.875   3.547
    1STR   C19060288   5.033   8.892   3.639
    1STR   H19160289   5.010   8.843   3.733
    1STR   C19260290   5.163   8.837   3.580
    1STR   H19360291   5.180   8.878   3.480
    1STR   H19460292   5.164   8.728   3.572
    1STR   H19560293   5.249   8.865   3.641
    1STR   C19660294   5.053   9.042   3.669
    1STR   H19760295   5.126   9.049   3.749
    1STR   H19860296   5.099   9.092   3.586
    1STR   O19960297   4.935   9.106   3.714
    1STR   C20060298   4.891   9.222   3.644
    1STR   H20160299   4.957   9.245   3.563
    1STR   C20260300   4.757   9.179   3.589
    1STR   H20360301   4.683   9.173   3.669
    1STR   H20460302   4.761   9.082   3.540
    1STR   H20560303   4.722   9.251   3.515
    1STR   C20660304   4.879   0.026   3.737
    1STR   H20760305   4.851   9.312   3.833
    1STR   H20860306   4.974   0.077   3.745
    1STR   O20960307   4.781   0.120   3.703
    1STR   C21060308   4.752   0.228   3.793
    1STR   H21160309   4.718   0.294   3.720
    1STR   C21260310   4.621   0.213   3.866
    1STR   H21360311   4.626   0.149   3.951
    1STR   H21460312   4.548   0.171   3.800
    1STR   H21560313   4.579   0.309   3.893
    1STR   C21660314   4.849   0.336   3.846
    1STR   H21760315   4.789   0.401   3.907
    1STR   H21860316   4.933   0.292   3.899
    1STR   O21960317   4.886   0.436   3.753
    1STR   C22060318   4.969   0.541   3.792
    1STR   H22160319   4.917   0.595   3.866
    1STR   C22260320   5.100   0.491   3.850
    1STR   H22360321   5.187   0.541   3.809
    1STR   H22460322   5.113   0.386   3.831
    1STR   H22560323   5.101   0.500   3.959
    1STR   C22660324   4.985   0.636   3.673
    1STR   H22760325   5.033   0.729   3.705
    1STR   H22860326   5.057   0.591   3.605
    1STR   O22960327   4.862   0.657   3.602
    1STR   C23060328   4.761   0.738   3.661
    1STR   H23160329   4.741   0.702   3.762
    1STR   C23260330   4.815   0.882   3.658
    1STR   H23360331   4.849   0.908   3.558
    1STR   H23460332   4.900   0.896   3.725
    1STR   H23560333   4.740   0.955   3.687
    1STR   C23660334   4.627   0.734   3.581
    1STR   H23760335   4.576   0.829   3.589
    1STR   H23860336   4.655   0.734   3.477
    1STR   O23960337   4.535   0.625   3.602
    1STR   C24060338   4.441   0.631   3.710
    1STR   H24160339   4.501   0.613   3.799
    1STR   C24260340   4.368   0.767   3.715
    1STR   H24360341   4.325   0.790   3.617
    1STR   H24460342   4.433   0.849   3.743
    1STR   H24560343   4.287   0.766   3.787
    1STR   C24660344   4.335   0.517   3.701
    1STR   H24760345   4.235   0.557   3.709
    1STR   H24860346   4.336   0.479   3.600
    1STR   O24960347   4.360   0.408   3.792
    1STR   C25060348   4.270   0.367   3.897
    1STR   H25160349   4.330   0.381   3.987
    1STR   C25260350   4.143   0.454   3.913
    1STR   H25360351   4.076   0.441   3.828
    1STR   H25460352   4.166   0.560   3.924
    1STR   H25560353   4.088   0.424   4.002
    1STR   C25660354   4.231   0.216   3.897
    1STR   H25760355   4.161   0.194   3.977
    1STR   H25860356   4.178   0.195   3.804
    1STR   O25960357   4.344   0.130   3.912
    1STR   C26060358   4.330   9.306   3.921
    1STR   H26160359   4.301   9.280   4.020
    1STR   C26260360   4.208   9.249   3.845
    1STR   H26360361   4.231   9.151   3.809
    1STR   H26460362   4.169   9.305   3.761
    1STR   H26560363   4.123   9.240   3.913
    1STR   C26660364   4.477   9.248   3.904
    1STR   H26760365   4.525   9.283   3.815
    1STR   H26860366   4.531   9.293   3.985
    1STR   O26960367   4.507   9.107   3.910
    1STR   C27060368   4.642   9.058   3.940
    1STR   H27160369   4.615   9.003   4.028
    1STR   C27260370   4.692   8.942   3.853
    1STR   H27360371   4.717   8.974   3.753
    1STR   H27460372   4.621   8.860   3.850
    1STR   H27560373   4.784   8.899   3.891
    1STR   C27660374   4.758   9.149   3.994
    1STR   H27760375   4.738   9.254   3.978
    1STR   H27860376   4.753   9.141   4.100
    1STR   O27960377   4.892   9.104   3.965
    1STR   C28060378   5.006   9.163   4.032
    1STR   H28160379   4.976   9.207   4.126
    1STR   C28260380   5.109   9.051   4.058
    1STR   H28360381   5.133   8.997   3.967
    1STR   H28460382   5.076   8.980   4.132
    1STR   H28560383   5.201   9.093   4.097
    1STR   C28660384   5.075   9.272   3.950
    1STR   H28760385   5.085   9.239   3.848
    1STR   H28860386   5.012   0.040   3.954
    1STR   O28960387   5.204   9.314   3.989
    1STR   C29060388   5.243   0.114   3.922
    1STR   H29160389   5.186   0.129   3.830
    1STR   C29260390   5.214   0.234   4.014
    1STR   H29360391   5.108   0.252   4.025
    1STR   H29460392   5.256   0.326   3.976
    1STR   H29560393   5.253   0.224   4.114
    1STR   C29660394   5.389   0.103   3.877
    1STR   H29760395   5.453   0.058   3.952
    1STR   H29860396   5.392   0.032   3.794
    1STR   O29960397   5.436   0.229   3.827
    1STR   C30060398   5.513   0.308   3.918
    1STR   H30160399   5.472   0.306   4.019
    1STR   C30260400   5.655   0.251   3.923
    1STR   H30360401   5.719   0.311   3.987
    1STR   H30460402   5.700   0.248   3.823
    1STR   H30560403   5.656   0.150   3.963
    1STR   C30660404   5.510   0.455   3.872
    1STR   H30760405   5.604   0.503   3.899
    1STR   H30860406   5.501   0.461   3.763
    1STR   O30960407   5.401   0.525   3.934
    1STR    H1R60408   5.512   0.688   3.986
    1STR    H1S60409   5.411   0.842   3.816
    1STR    H1T60410   5.305   0.714   3.760
    1STR    H1U60411   5.478   0.700   3.737
    1STR    H1V60412   5.353   0.798   4.108
    1STR    H1W60413   5.290   0.636   4.117
    1STR    H1X60414   5.000   0.876   3.923
    1STR    H1Y60415   4.766   0.963   3.916
    1STR    H1Z60416   4.526   0.907   3.932
    1STR    H2060417   4.347   0.770   4.009
    1STR    H2160418   4.377   0.598   3.988
    1STR    H2260419   4.391   0.671   4.147
    1STR    H2360420   4.509   0.477   4.072
    1STR    H2760421   4.864   0.586   4.084
    1STR    H2860422   4.295   0.874   2.798
    1STR    H2960423   4.469   0.769   2.649
    1STR    H2A60424   4.549   0.577   2.534
    1STR    H2B60425   4.519   0.417   2.599
    1STR    H2C60426   4.641   0.509   2.673
    1STR   BCK160427   4.605   9.280   5.086
    1STR    O0360428   4.714   9.279   5.138
    1STR    N0460429   4.531   9.174   5.054
    1STR    C0560430   4.556   9.040   5.082
    1STR    C0660431   4.686   8.992   5.085
    1STR    C0760432   4.716   8.869   5.146
    1STR    N0860433   4.844   8.854   5.194
    1STR    C0960434   4.893   8.777   5.288
    1STR    O0A60435   4.829   8.701   5.358
    1STR    O0B60436   5.026   8.790   5.291
    1STR    C0C60437   5.095   8.791   5.413
    1STR    C0D60438   5.207   8.687   5.424
    1STR    C0E60439   5.140   8.936   5.435
    1STR    O0F60440   5.043   9.021   5.373
    1STR    C0G60441   5.098   9.124   5.293
    1STR    C0H60442   4.989   9.194   5.214
    1STR    C0I60443   5.170   9.222   5.383
    1STR    O0J60444   5.184   0.033   5.329
    1STR    C0K60445   4.320   0.003   6.313
    1STR    C0M60446   4.386   0.137   6.275
    1STR    C0N60447   4.424   9.225   6.372
    1STR    O0O60448   4.415   9.088   6.333
    1STR    C0P60449   4.370   8.998   6.418
    1STR    O0Q60450   4.346   9.021   6.535
    1STR    N0R60451   4.350   8.874   6.375
    1STR    C0S60452   4.421   8.786   6.295
    1STR    C0T60453   4.362   8.665   6.256
    1STR    C0U60454   4.441   8.558   6.211
    1STR    C0V60455   4.582   8.569   6.205
    1STR    C0W60456   4.659   8.443   6.169
    1STR    C0X60457   4.645   8.691   6.242
    1STR    N0Y60458   4.783   8.709   6.225
    1STR   BCK260459   4.856   8.811   6.272
    1STR    O1060460   4.819   8.881   6.362
    1STR    C1360461   4.560   8.797   6.284
    1STR    C1460462   4.614   8.776   5.167
    1STR    C1560463   4.482   8.818   5.154
    1STR    C1660464   4.454   8.952   5.124
    1STR    C1760465   4.321   9.003   5.167
    1STR    H1B60466   4.446   9.194   5.005
    1STR    H1C60467   4.762   9.062   5.060
    1STR    H1D60468   4.911   8.927   5.172
    1STR    H1E60469   5.023   8.768   5.489
    1STR    H1F60470   5.264   8.678   5.332
    1STR    H1G60471   5.275   8.710   5.505
    1STR    H1H60472   5.166   8.588   5.444
    1STR    H1I60473   5.240   8.953   5.397
    1STR    H1J60474   5.145   8.955   5.542
    1STR    H1K60475   5.166   9.077   5.225
    1STR    H1M60476   4.935   9.123   5.153
    1STR    H1N60477   5.031   9.267   5.146
    1STR    H1O60478   4.920   9.249   5.277
    1STR    H1P60479   5.115   9.227   5.474
    1STR    H1Q60480   5.265   9.178   5.408
    1STR   C01060481   5.108   0.129   5.400
    1STR   H01160482   5.006   0.092   5.410
    1STR   C01260483   5.176   0.148   5.537
    1STR   H01360484   5.239   0.236   5.541
    1STR   H01460485   5.239   0.065   5.568
    1STR   H01560486   5.099   0.157   5.614
    1STR   C01660487   5.098   0.254   5.311
    1STR   H01760488   5.189   0.311   5.307
    1STR   H01860489   5.078   0.221   5.208
    1STR   O01960490   4.990   0.339   5.348
    1STR   C02060491   5.009   0.412   5.468
    1STR   H02160492   5.057   0.350   5.541
    1STR   C02260493   5.095   0.538   5.453
    1STR   H02360494   5.067   0.597   5.366
    1STR   H02460495   5.200   0.512   5.440
    1STR   H02560496   5.086   0.602   5.540
    1STR   C02660497   4.876   0.428   5.538
    1STR   H02760498   4.828   0.332   5.537
    1STR   H02860499   4.890   0.457   5.640
    1STR   O02960500   4.794   0.523   5.478
    1STR   C03060501   4.664   0.525   5.528
    1STR   H03160502   4.667   0.513   5.636
    1STR   C03260503   4.614   0.667   5.499
    1STR   H03360504   4.518   0.669   5.449
    1STR   H03460505   4.682   0.717   5.433
    1STR   H03560506   4.607   0.727   5.589
    1STR   C03660507   4.573   0.418   5.467
    1STR   H03760508   4.491   0.409   5.533
    1STR   H03860509   4.523   0.458   5.382
    1STR   O03960510   4.624   0.291   5.425
    1STR   C04060511   4.523   0.190   5.421
    1STR   H04160512   4.495   0.190   5.523
    1STR   C04260513   4.402   0.233   5.341
    1STR   H04360514   4.424   0.264   5.241
    1STR   H04460515   4.342   0.309   5.390
    1STR   H04560516   4.340   0.147   5.326
    1STR   C04660517   4.564   0.044   5.380
    1STR   H04760518   4.502   0.016   5.297
    1STR   H04860519   4.667   0.046   5.350
    1STR   O04960520   4.538   9.249   5.462
    1STR   C05060521   4.563   9.120   5.404
    1STR   H05160522   4.508   9.117   5.312
    1STR   C05260523   4.711   9.106   5.379
    1STR   H05360524   4.740   9.093   5.279
    1STR   H05460525   4.755   9.024   5.432
    1STR   H05560526   4.760   9.198   5.400
    1STR   C05660527   4.517   8.999   5.489
    1STR   H05760528   4.551   9.013   5.591
    1STR   H05860529   4.409   8.993   5.489
    1STR   O05960530   4.561   8.873   5.436
    1STR   C06060531   4.524   8.760   5.514
    1STR   H06160532   4.426   8.778   5.557
    1STR   C06260533   4.509   8.628   5.437
    1STR   H06360534   4.605   8.594   5.399
    1STR   H06460535   4.439   8.636   5.355
    1STR   H06560536   4.472   8.549   5.502
    1STR   C06660537   4.619   8.740   5.630
    1STR   H06760538   4.603   8.827   5.691
    1STR   H06860539   4.578   8.653   5.680
    1STR   O06960540   4.757   8.716   5.610
    1STR   C07060541   4.849   8.783   5.697
    1STR   H07160542   4.814   8.798   5.798
    1STR   C07260543   4.972   8.693   5.719
    1STR   H07360544   5.062   8.752   5.738
    1STR   H07460545   4.990   8.626   5.635
    1STR   H07560546   4.957   8.628   5.805
    1STR   C07660547   4.872   8.925   5.646
    1STR   H07760548   4.895   8.924   5.540
    1STR   H07860549   4.776   8.976   5.654
    1STR   O07960550   4.972   8.992   5.720
    1STR   C08060551   4.982   9.133   5.706
    1STR   H08160552   4.928   9.180   5.783
    1STR   C08260553   5.130   9.173   5.723
    1STR   H08360554   5.194   9.142   5.642
    1STR   H08460555   5.175   9.126   5.810
    1STR   H08560556   5.138   9.281   5.738
    1STR   C08660557   4.899   9.207   5.602
    1STR   H08760558   4.936   9.308   5.591
    1STR   H08860559   4.921   9.157   5.509
    1STR   O08960560   4.757   9.203   5.628
    1STR   C09060561   4.694   9.315   5.689
    1STR   H09160562   4.740   9.303   5.784
    1STR   C09260563   4.739   0.127   5.633
    1STR   H09360564   4.664   0.202   5.652
    1STR   H09460565   4.758   0.120   5.527
    1STR   H09560566   4.833   0.158   5.677
    1STR   C09660567   4.543   9.303   5.722
    1STR   H09760568   4.522   9.197   5.727
    1STR   H09860569   4.546   0.019   5.824
    1STR   O09960570   4.431   0.070   5.689
    1STR   C10060571   4.318   0.032   5.605
    1STR   H10160572   4.341   0.053   5.504
    1STR   C10260573   4.291   9.204   5.587
    1STR   H10360574   4.359   9.141   5.639
    1STR   H10460575   4.302   9.175   5.484
    1STR   H10560576   4.191   9.176   5.613
    1STR   C10660577   4.192   0.118   5.627
    1STR   H10760578   4.101   0.059   5.622
    1STR   H10860579   4.200   0.160   5.725
    1STR   O10960580   4.179   0.224   5.532
    1STR   C11060581   4.071   0.319   5.539
    1STR   H11160582   4.081   0.376   5.447
    1STR   C11260583   3.928   0.264   5.537
    1STR   H11360584   3.919   0.167   5.584
    1STR   H11460585   3.892   0.254   5.434
    1STR   H11560586   3.858   0.332   5.585
    1STR   C11660587   4.094   0.416   5.652
    1STR   H11760588   4.011   0.486   5.664
    1STR   H11860589   4.104   0.360   5.744
    1STR   O11960590   4.212   0.488   5.623
    1STR   C12060591   4.300   0.496   5.731
    1STR   H12160592   4.240   0.520   5.818
    1STR   C12260593   4.374   0.361   5.738
    1STR   H12360594   4.366   0.307   5.645
    1STR   H12460595   4.330   0.292   5.808
    1STR   H12560596   4.480   0.368   5.763
    1STR   C12660597   4.389   0.616   5.713
    1STR   H12760598   4.491   0.590   5.739
    1STR   H12860599   4.383   0.645   5.609
    1STR   O12960600   4.344   0.722   5.795
    1STR   C13060601   4.415   0.843   5.774
    1STR   H13160602   4.429   0.858   5.667
    1STR   C13260603   4.323   0.953   5.826
    1STR   H13360604   4.301   0.940   5.932
    1STR   H13460605   4.228   0.951   5.772
    1STR   H13560606   4.368   1.051   5.812
    1STR   C13660607   4.553   0.841   5.845
    1STR   H13760608   4.548   0.891   5.941
    1STR   H13860609   4.583   0.738   5.868
    1STR   O13960610   4.647   0.904   5.759
    1STR   C14060611   4.778   0.847   5.760
    1STR   H14160612   4.770   0.738   5.750
    1STR   C14260613   4.848   0.900   5.634
    1STR   H14360614   4.866   1.007   5.640
    1STR   H14460615   4.788   0.882   5.545
    1STR   H14560616   4.943   0.849   5.617
    1STR   C14660617   4.854   0.882   5.889
    1STR   H14760618   4.921   0.967   5.877
    1STR   H14860619   4.784   0.910   5.967
    1STR   O14960620   4.921   0.767   5.937
    1STR   C15060621   5.053   0.744   5.889
    1STR   H15160622   5.075   0.800   5.797
    1STR   C15260623   5.149   0.786   6.000
    1STR   H15360624   5.131   0.728   6.090
    1STR   H15460625   5.137   0.892   6.025
    1STR   H15560626   5.252   0.770   5.970
    1STR   C15660627   5.061   0.594   5.859
    1STR   H15760628   5.012   0.541   5.940
    1STR   H15860629   5.005   0.575   5.768
    1STR   O15960630   5.194   0.546   5.846
    1STR   C16060631   5.207   0.418   5.784
    1STR   H16160632   5.187   0.430   5.679
    1STR   C16260633   5.355   0.382   5.797
    1STR   H16360634   5.385   0.377   5.901
    1STR   H16460635   5.417   0.458   5.748
    1STR   H16560636   5.377   0.287   5.750
    1STR   C16660637   5.118   0.307   5.845
    1STR   H16760638   5.158   0.208   5.824
    1STR   H16860639   5.126   0.319   5.952
    1STR   O16960640   4.983   0.309   5.795
    1STR   C17060641   4.879   0.304   5.894
    1STR   H17160642   4.920   0.354   5.978
    1STR   C17260643   4.762   0.396   5.858
    1STR   H17360644   4.713   0.362   5.769
    1STR   H17460645   4.794   0.499   5.843
    1STR   H17560646   4.688   0.395   5.938
    1STR   C17660647   4.825   0.167   5.939
    1STR   H17760648   4.798   0.173   6.044
    1STR   H17860649   4.727   0.153   5.897
    1STR   O17960650   4.908   0.053   5.911
    1STR   C18060651   4.939   9.291   6.023
    1STR   H18160652   4.865   9.303   6.100
    1STR   C18260653   4.949   9.138   6.004
    1STR   H18360654   4.870   9.089   5.949
    1STR   H18460655   4.938   9.089   6.096
    1STR   H18560656   5.044   9.104   5.966
    1STR   C18660657   5.075   0.023   6.064
    1STR   H18760658   5.119   9.284   6.143
    1STR   H18860659   5.143   0.016   5.980
    1STR   O18960660   5.060   0.158   6.097
    1STR   C19060661   4.997   0.188   6.220
    1STR   H19160662   4.905   0.134   6.242
    1STR   C19260663   5.099   0.156   6.322
    1STR   H19360664   5.182   0.207   6.279
    1STR   H19460665   5.128   0.054   6.328
    1STR   H19560666   5.079   0.186   6.424
    1STR   C19660667   4.972   0.338   6.214
    1STR   H19760668   5.004   0.388   6.303
    1STR   H19860669   5.035   0.389   6.141
    1STR   O19960670   4.834   0.351   6.188
    1STR   C20060671   4.775   0.464   6.244
    1STR   H20160672   4.825   0.480   6.339
    1STR   C20260673   4.795   0.588   6.156
    1STR   H20360674   4.751   0.575   6.058
    1STR   H20460675   4.901   0.609   6.142
    1STR   H20560676   4.749   0.677   6.199
    1STR   C20660677   4.629   0.424   6.270
    1STR   H20760678   4.627   0.323   6.312
    1STR   H20860679   4.578   0.488   6.340
    1STR   O20960680   4.559   0.425   6.148
    1STR   C21060681   4.421   0.457   6.159
    1STR   H21160682   4.376   0.415   6.248
    1STR   C21260683   4.407   0.610   6.157
    1STR   H21360684   4.303   0.640   6.144
    1STR   H21460685   4.464   0.654   6.075
    1STR   H21560686   4.442   0.655   6.250
    1STR   C21660687   4.371   0.391   6.031
    1STR   H21760688   4.425   0.449   5.957
    1STR   H21860689   4.411   0.291   6.021
    1STR   O21960690   4.233   0.395   5.993
    1STR   C22060691   4.143   0.304   6.051
    1STR   H22160692   4.199   0.227   6.101
    1STR   C22260693   4.086   0.401   6.151
    1STR   H22360694   4.050   0.493   6.103
    1STR   H22460695   4.154   0.428   6.231
    1STR   H22560696   4.002   0.352   6.192
    1STR   C22660697   4.026   0.242   5.961
    1STR   H22760698   3.944   0.216   6.027
    1STR   H22860699   3.979   0.317   5.899
    1STR   O22960700   4.057   0.122   5.883
    1STR   C23060701   3.968   0.006   5.877
    1STR   H23160702   3.973   9.282   5.973
    1STR   C23260703   3.823   0.042   5.842
    1STR   H23360704   3.814   0.078   5.740
    1STR   H23460705   3.782   0.119   5.907
    1STR   H23560706   3.760   9.274   5.851
    1STR   C23660707   4.019   9.203   5.798
    1STR   H23760708   3.982   9.202   5.696
    1STR   H23860709   4.125   9.221   5.796
    1STR   O23960710   4.000   9.072   5.860
    1STR   C24060711   4.060   8.955   5.797
    1STR   H24160712   4.000   8.945   5.709
    1STR   C24260713   4.211   8.970   5.762
    1STR   H24360714   4.276   8.897   5.809
    1STR   H24460715   4.254   9.063   5.791
    1STR   H24560716   4.237   8.959   5.659
    1STR   C24660717   4.036   8.815   5.863
    1STR   H24760718   4.027   8.817   5.970
    1STR   H24860719   3.939   8.778   5.830
    1STR   O24960720   4.136   8.720   5.823
    1STR   C25060721   4.221   8.671   5.928
    1STR   H25160722   4.242   8.750   6.001
    1STR   C25260723   4.146   8.554   5.991
    1STR   H25360724   4.127   8.476   5.917
    1STR   H25460725   4.050   8.585   6.032
    1STR   H25560726   4.202   8.509   6.073
    1STR   C25660727   4.358   8.626   5.873
    1STR   H25760728   4.404   8.555   5.942
    1STR   H25860729   4.346   8.572   5.779
    1STR   O25960730   4.446   8.736   5.851
    1STR   C26060731   4.555   8.752   5.942
    1STR   H26160732   4.507   8.748   6.038
    1STR   C26260733   4.663   8.643   5.927
    1STR   H26360734   4.749   8.663   5.990
    1STR   H26460735   4.707   8.625   5.831
    1STR   H26560736   4.622   8.546   5.947
    1STR   C26660737   4.609   8.895   5.936
    1STR   H26760738   4.667   8.926   5.851
    1STR   H26860739   4.517   8.947   5.921
    1STR   O26960740   4.681   8.941   6.051
    1STR   C27060741   4.628   9.061   6.106
    1STR   H27160742   4.531   9.028   6.141
    1STR   C27260743   4.702   9.114   6.227
    1STR   H27360744   4.709   9.223   6.233
    1STR   H27460745   4.799   9.073   6.230
    1STR   H27560746   4.657   9.081   6.319
    1STR   C27660747   4.614   9.171   6.001
    1STR   H27760748   4.628   9.272   6.039
    1STR   H27860749   4.685   9.157   5.921
    1STR   O27960750   4.487   9.159   5.944
    1STR   C28060751   4.384   9.194   6.029
    1STR   H28160752   4.428   9.212   6.124
    1STR   C28260753   4.327   0.002   5.970
    1STR   H28360754   4.297   9.307   5.868
    1STR   H28460755   4.400   0.083   5.968
    1STR   H28560756   4.240   0.035   6.024
    1STR   C28660757   4.285   9.078   6.031
    1STR   H28760758   4.198   9.114   5.980
    1STR   H28860759   4.328   8.993   5.981
    1STR   O28960760   4.248   9.016   6.152
    1STR   C29060761   4.110   8.988   6.158
    1STR   H29160762   4.061   8.989   6.062
    1STR   C29260763   4.074   8.858   6.226
    1STR   H29360764   4.110   8.859   6.328
    1STR   H29460765   4.117   8.773   6.176
    1STR   H29560766   3.966   8.843   6.230
    1STR   C29660767   4.052   9.102   6.231
    1STR   H29760768   3.945   9.085   6.235
    1STR   H29860769   4.102   9.104   6.328
    1STR   O29960770   4.077   9.218   6.160
    1STR   C30060771   4.024   0.016   6.212
    1STR   H30160772   4.060   0.079   6.135
    1STR   C30260773   3.870   0.017   6.196
    1STR   H30360774   3.816   9.268   6.259
    1STR   H30460775   3.829   9.309   6.100
    1STR   H30560776   3.833   0.115   6.211
    1STR   C30660777   4.093   0.083   6.335
    1STR   H30760778   4.115   0.187   6.313
    1STR   H30860779   4.025   0.092   6.418
    1STR   O30960780   4.205   0.018   6.393
    1STR    H1R60781   4.278   9.278   6.228
    1STR    H1S60782   4.415   0.138   6.171
    1STR    H1T60783   4.479   0.156   6.326
    1STR    H1U60784   4.321   0.221   6.294
    1STR    H1V60785   4.424   9.231   6.478
    1STR    H1W60786   4.522   9.259   6.343
    1STR    H1X60787   4.284   8.831   6.439
    1STR    H1Y60788   4.257   8.649   6.273
    1STR    H1Z60789   4.393   8.463   6.190
    1STR    H2060790   4.766   8.460   6.154
    1STR    H2160791   4.648   8.369   6.248
    1STR    H2260792   4.618   8.392   6.082
    1STR    H2360793   4.829   8.649   6.160
    1STR    H2760794   4.600   8.890   6.316
    1STR    H2860795   4.636   8.678   5.205
    1STR    H2960796   4.402   8.752   5.182
    1STR    H2A60797   4.307   8.963   5.266
    1STR    H2B60798   4.238   8.971   5.104
    1STR    H2C60799   4.325   9.109   5.179
    1STR   BCK160800   4.893   8.874   7.350
    1STR    O0360801   4.829   8.776   7.313
    1STR    N0460802   5.026   8.878   7.330
    1STR    C0560803   5.123   8.974   7.354
    1STR    C0660804   5.093   9.109   7.350
    1STR    C0760805   5.167   9.200   7.428
    1STR    N0860806   5.113   0.001   7.468
    1STR    C0960807   5.030   0.081   7.397
    1STR    O0A60808   5.012   0.064   7.277
    1STR    O0B60809   4.974   0.185   7.465
    1STR    C0C60810   5.004   0.219   7.601
    1STR    C0D60811   5.125   0.306   7.613
    1STR    C0E60812   4.894   0.297   7.672
    1STR    O0F60813   4.769   0.233   7.664
    1STR    C0G60814   4.679   0.267   7.769
    1STR    C0H60815   4.654   0.419   7.773
    1STR    C0I60816   4.552   0.190   7.739
    1STR    O0J60817   4.557   0.047   7.746
    1STR    C0K60818   5.385   0.067   8.500
    1STR    C0M60819   5.291   0.016   8.391
    1STR    C0N60820   5.491   0.163   8.442
    1STR    O0O60821   5.441   0.261   8.351
    1STR    C0P60822   5.346   0.347   8.386
    1STR    O0Q60823   5.228   0.331   8.357
    1STR    N0R60824   5.398   0.456   8.443
    1STR    C0S60825   5.330   0.566   8.496
    1STR    C0T60826   5.400   0.686   8.521
    1STR    C0U60827   5.334   0.797   8.578
    1STR    C0V60828   5.197   0.789   8.613
    1STR    C0W60829   5.131   0.907   8.681
    1STR    C0X60830   5.127   0.669   8.589
    1STR    N0Y60831   4.991   0.657   8.611
    1STR   BCK260832   4.928   0.555   8.668
    1STR    O1060833   4.812   0.532   8.640
    1STR    C1360834   5.194   0.560   8.531
    1STR    C1460835   5.296   9.160   7.469
    1STR    C1560836   5.342   9.031   7.443
    1STR    C1660837   5.254   8.936   7.389
    1STR    C1760838   5.299   8.795   7.382
    1STR    H1B60839   5.057   8.789   7.295
    1STR    H1C60840   5.000   9.139   7.303
    1STR    H1D60841   5.135   0.036   7.559
    1STR    H1E60842   5.026   0.128   7.653
    1STR    H1F60843   5.131   0.351   7.712
    1STR    H1G60844   5.215   0.250   7.597
    1STR    H1H60845   5.113   0.388   7.543
    1STR    H1I60846   4.890   0.399   7.638
    1STR    H1J60847   4.922   0.307   7.776
    1STR    H1K60848   4.718   0.233   7.865
    1STR    H1M60849   4.640   0.468   7.678
    1STR    H1N60850   4.735   0.472   7.822
    1STR    H1O60851   4.561   0.445   7.821
    1STR    H1P60852   4.470   0.231   7.797
    1STR    H1Q60853   4.531   0.216   7.637
    1STR   C01060854   4.429   9.308   7.716
    1STR   H01160855   4.366   0.038   7.787
    1STR   C01260856   4.359   0.042   7.592
    1STR   H01360857   4.400   0.007   7.498
    1STR   H01460858   4.349   0.150   7.586
    1STR   H01560859   4.257   0.011   7.600
    1STR   C01660860   4.405   9.156   7.748
    1STR   H01760861   4.438   9.120   7.842
    1STR   H01860862   4.298   9.140   7.753
    1STR   O01960863   4.466   9.060   7.664
    1STR   C02060864   4.465   8.924   7.710
    1STR   H02160865   4.522   8.918   7.802
    1STR   C02260866   4.328   8.863   7.740
    1STR   H02360867   4.269   8.844   7.651
    1STR   H02460868   4.269   8.924   7.809
    1STR   H02560869   4.341   8.766   7.789
    1STR   C02660870   4.540   8.852   7.598
    1STR   H02760871   4.482   8.837   7.508
    1STR   H02860872   4.620   8.915   7.570
    1STR   O02960873   4.595   8.727   7.629
    1STR   C03060874   4.710   8.724   7.711
    1STR   H03160875   4.726   8.818   7.761
    1STR   C03260876   4.655   8.621   7.809
    1STR   H03360877   4.596   8.545   7.761
    1STR   H03460878   4.579   8.667   7.872
    1STR   H03560879   4.731   8.574   7.871
    1STR   C03660880   4.836   8.680   7.630
    1STR   H03760881   4.866   8.581   7.662
    1STR   H03860882   4.804   8.669   7.527
    1STR   O03960883   4.953   8.760   7.619
    1STR   C04060884   5.062   8.728   7.706
    1STR   H04160885   5.004   8.751   7.791
    1STR   C04260886   5.100   8.584   7.740
    1STR   H04360887   5.109   8.525   7.652
    1STR   H04460888   5.025   8.535   7.802
    1STR   H04560889   5.194   8.580   7.794
    1STR   C04660890   5.186   8.819   7.679
    1STR   H04760891   5.261   8.761   7.628
    1STR   H04860892   5.152   8.898   7.613
    1STR   O04960893   5.252   8.877   7.793
    1STR   C05060894   5.326   8.999   7.774
    1STR   H05160895   5.391   8.987   7.689
    1STR   C05260896   5.232   9.119   7.757
    1STR   H05360897   5.158   9.105   7.679
    1STR   H05460898   5.285   9.210   7.729
    1STR   H05560899   5.181   9.141   7.850
    1STR   C05660900   5.416   9.028   7.896
    1STR   H05760901   5.357   9.044   7.986
    1STR   H05860902   5.477   8.939   7.915
    1STR   O05960903   5.505   9.137   7.869
    1STR   C06060904   5.462   9.266   7.912
    1STR   H06160905   5.353   9.271   7.923
    1STR   C06260906   5.524   9.294   8.050
    1STR   H06360907   5.632   9.297   8.044
    1STR   H06460908   5.496   9.215   8.120
    1STR   H06560909   5.488   0.067   8.092
    1STR   C06660910   5.504   0.047   7.802
    1STR   H06760911   5.602   0.092   7.823
    1STR   H06860912   5.517   9.313   7.708
    1STR   O06960913   5.407   0.148   7.774
    1STR   C07060914   5.384   0.242   7.878
    1STR   H07160915   5.461   0.235   7.955
    1STR   C07260916   5.399   0.384   7.822
    1STR   H07360917   5.332   0.405   7.740
    1STR   H07460918   5.500   0.400   7.784
    1STR   H07560919   5.381   0.459   7.898
    1STR   C07660920   5.248   0.214   7.946
    1STR   H07760921   5.266   0.151   8.033
    1STR   H07860922   5.208   0.308   7.985
    1STR   O07960923   5.151   0.149   7.862
    1STR   C08060924   5.042   0.093   7.937
    1STR   H08160925   5.086   0.016   8.000
    1STR   C08260926   4.977   0.203   8.026
    1STR   H08360927   4.973   0.300   7.977
    1STR   H08460928   5.033   0.217   8.118
    1STR   H08560929   4.876   0.179   8.055
    1STR   C08660930   4.934   0.020   7.853
    1STR   H08760931   4.852   0.005   7.920
    1STR   H08860932   4.882   0.080   7.783
    1STR   O08960933   4.965   9.217   7.790
    1STR   C09060934   4.891   9.106   7.843
    1STR   H09160935   4.873   9.128   7.940
    1STR   C09260936   4.746   9.082   7.800
    1STR   H09360937   4.735   9.029   7.707
    1STR   H09460938   4.684   9.171   7.806
    1STR   H09560939   4.698   9.009   7.861
    1STR   C09660940   4.968   8.979   7.858
    1STR   H09760941   4.894   8.905   7.840
    1STR   H09860942   5.031   8.974   7.773
    1STR   O09960943   5.035   8.956   7.983
    1STR   C10060944   5.069   8.820   8.017
    1STR   H10160945   5.119   8.771   7.938
    1STR   C10260946   5.198   8.817   8.102
    1STR   H10360947   5.210   8.904   8.166
    1STR   H10460948   5.287   8.820   8.038
    1STR   H10560949   5.207   8.726   8.161
    1STR   C10660950   4.946   8.726   8.049
    1STR   H10760951   4.972   8.627   8.014
    1STR   H10860952   4.923   8.709   8.152
    1STR   O10960953   4.824   8.760   7.983
    1STR   C11060954   4.708   8.809   8.052
    1STR   H11160955   4.633   8.837   7.980
    1STR   C11260956   4.646   8.699   8.140
    1STR   H11360957   4.717   8.648   8.205
    1STR   H11460958   4.600   8.620   8.080
    1STR   H11560959   4.566   8.739   8.203
    1STR   C11660960   4.733   8.940   8.125
    1STR   H11760961   4.669   8.939   8.212
    1STR   H11860962   4.838   8.945   8.149
    1STR   O11960963   4.703   9.064   8.067
    1STR   C12060964   4.758   9.175   8.136
    1STR   H12160965   4.730   9.151   8.233
    1STR   C12260966   4.911   9.191   8.156
    1STR   H12360967   4.985   9.144   8.093
    1STR   H12460968   4.937   9.148   8.252
    1STR   H12560969   4.938   9.295   8.154
    1STR   C12660970   4.681   9.304   8.107
    1STR   H12760971   4.725   0.060   8.169
    1STR   H12860972   4.683   0.025   8.007
    1STR   O12960973   4.548   9.279   8.147
    1STR   C13060974   4.458   9.255   8.046
    1STR   H13160975   4.518   9.243   7.958
    1STR   C13260976   4.375   9.130   8.081
    1STR   H13360977   4.439   9.043   8.091
    1STR   H13460978   4.300   9.106   8.006
    1STR   H13560979   4.320   9.146   8.174
    1STR   C13660980   4.372   0.059   8.033
    1STR   H13760981   4.354   0.092   8.132
    1STR   H13860982   4.427   0.139   7.983
    1STR   O13960983   4.252   0.022   7.968
    1STR   C14060984   4.148   0.116   7.952
    1STR   H14160985   4.117   0.160   8.045
    1STR   C14260986   4.177   0.224   7.846
    1STR   H14360987   4.183   0.182   7.746
    1STR   H14460988   4.269   0.279   7.864
    1STR   H14560989   4.096   0.298   7.844
    1STR   C14660990   4.032   0.029   7.913
    1STR   H14760991   3.942   0.089   7.901
    1STR   H14860992   4.057   9.303   7.820
    1STR   O14960993   4.025   9.244   8.007
    1STR   C15060994   3.894   9.210   8.044
    1STR   H15160995   3.821   9.238   7.968
    1STR   C15260996   3.896   9.058   8.054
    1STR   H15360997   3.972   9.023   8.125
    1STR   H15460998   3.921   9.015   7.957
    1STR   H15560999   3.799   9.018   8.084
    1STR   C15661000   3.867   9.285   8.176
    1STR   H15761001   3.775   9.245   8.218
    1STR   H15861002   3.948   9.268   8.246
    1STR   O15961003   3.855   0.105   8.148
    1STR   C16061004   3.819   0.196   8.252
    1STR   H16161005   3.770   0.278   8.199
    1STR   C16261006   3.719   0.136   8.351
    1STR   H16361007   3.762   0.055   8.410
    1STR   H16461008   3.631   0.098   8.299
    1STR   H16561009   3.684   0.212   8.421
    1STR   C16661010   3.939   0.263   8.324
    1STR   H16761011   3.909   0.355   8.374
    1STR   H16861012   3.970   0.199   8.405
    1STR   O16961013   4.044   0.296   8.232
    1STR   C17061014   4.176   0.282   8.283
    1STR   H17161015   4.190   0.337   8.376
    1STR   C17261016   4.195   0.131   8.310
    1STR   H17361017   4.165   0.067   8.227
    1STR   H17461018   4.139   0.093   8.394
    1STR   H17561019   4.297   0.109   8.334
    1STR   C17661020   4.280   0.335   8.179
    1STR   H17761021   4.375   0.288   8.200
    1STR   H17861022   4.255   0.303   8.081
    1STR   O17961023   4.303   0.475   8.167
    1STR   C18061024   4.389   0.511   8.057
    1STR   H18161025   4.344   0.476   7.964
    1STR   C18261026   4.389   0.664   8.050
    1STR   H18361027   4.437   0.706   8.137
    1STR   H18461028   4.288   0.703   8.044
    1STR   H18561029   4.445   0.698   7.962
    1STR   C18661030   4.533   0.452   8.066
    1STR   H18761031   4.547   0.415   8.165
    1STR   H18861032   4.542   0.359   8.010
    1STR   O18961033   4.638   0.546   8.035
    1STR   C19061034   4.750   0.546   8.124
    1STR   H19161035   4.772   0.443   8.151
    1STR   C19261036   4.874   0.600   8.052
    1STR   H19361037   4.858   0.701   8.015
    1STR   H19461038   4.902   0.537   7.968
    1STR   H19561039   4.960   0.602   8.120
    1STR   C19661040   4.719   0.629   8.250
    1STR   H19761041   4.795   0.614   8.327
    1STR   H19861042   4.715   0.735   8.228
    1STR   O19961043   4.590   0.589   8.291
    1STR   C20061044   4.554   0.582   8.425
    1STR   H20161045   4.631   0.624   8.489
    1STR   C20261046   4.431   0.672   8.431
    1STR   H20361047   4.351   0.633   8.367
    1STR   H20461048   4.455   0.772   8.394
    1STR   H20561049   4.391   0.682   8.532
    1STR   C20661050   4.524   0.435   8.466
    1STR   H20761051   4.598   0.409   8.539
    1STR   H20861052   4.428   0.432   8.519
    1STR   O20961053   4.519   0.331   8.367
    1STR   C21061054   4.628   0.239   8.342
    1STR   H21161055   4.635   0.235   8.234
    1STR   C21261056   4.761   0.300   8.389
    1STR   H21361057   4.775   0.298   8.496
    1STR   H21461058   4.766   0.405   8.365
    1STR   H21561059   4.846   0.258   8.338
    1STR   C21661060   4.581   0.095   8.386
    1STR   H21761061   4.534   0.116   8.479
    1STR   H21861062   4.496   0.075   8.325
    1STR   O21961063   4.667   9.293   8.386
    1STR   C22061064   4.623   9.160   8.437
    1STR   H22161065   4.642   9.172   8.541
    1STR   C22261066   4.480   9.126   8.394
    1STR   H22361067   4.488   9.078   8.298
    1STR   H22461068   4.413   9.210   8.383
    1STR   H22561069   4.433   9.053   8.459
    1STR   C22661070   4.698   9.020   8.442
    1STR   H22761071   4.720   9.000   8.545
    1STR   H22861072   4.628   8.939   8.419
    1STR   O22961073   4.821   8.994   8.378
    1STR   C23061074   4.872   8.859   8.383
    1STR   H23161075   4.808   8.798   8.323
    1STR   C23261076   5.012   8.850   8.325
    1STR   H23361077   5.096   8.888   8.381
    1STR   H23461078   5.014   8.913   8.238
    1STR   H23561079   5.042   8.747   8.309
    1STR   C23661080   4.874   8.792   8.516
    1STR   H23761081   4.770   8.764   8.533
    1STR   H23861082   4.933   8.701   8.515
    1STR   O23961083   4.913   8.876   8.621
    1STR   C24061084   5.031   8.952   8.616
    1STR   H24161085   5.030   8.990   8.717
    1STR   C24261086   5.156   8.860   8.616
    1STR   H24361087   5.146   8.773   8.551
    1STR   H24461088   5.172   8.820   8.715
    1STR   H24561089   5.246   8.914   8.586
    1STR   C24661090   5.024   9.082   8.529
    1STR   H24761091   5.114   9.131   8.549
    1STR   H24861092   5.035   9.072   8.422
    1STR   O24961093   4.911   9.169   8.549
    1STR   C25061094   4.937   9.308   8.528
    1STR   H25161095   5.037   9.311   8.555
    1STR   C25261096   4.964   0.044   8.392
    1STR   H25361097   4.873   0.051   8.335
    1STR   H25461098   5.037   9.303   8.341
    1STR   H25561099   5.010   0.142   8.399
    1STR   C25661100   4.867   0.086   8.622
    1STR   H25761101   4.890   0.064   8.725
    1STR   H25861102   4.915   0.181   8.604
    1STR   O25961103   4.728   0.101   8.602
    1STR   C26061104   4.639   0.108   8.711
    1STR   H26161105   4.701   0.101   8.796
    1STR   C26261106   4.560   0.236   8.718
    1STR   H26361107   4.626   0.320   8.718
    1STR   H26461108   4.506   0.239   8.812
    1STR   H26561109   4.485   0.244   8.641
    1STR   C26661110   4.546   9.309   8.704
    1STR   H26761111   4.517   9.293   8.605
    1STR   H26861112   4.603   9.224   8.739
    1STR   O26961113   4.420   9.317   8.764
    1STR   C27061114   4.316   9.235   8.712
    1STR   H27161115   4.233   9.247   8.782
    1STR   C27261116   4.268   9.304   8.584
    1STR   H27361117   4.345   0.032   8.527
    1STR   H27461118   4.205   0.068   8.611
    1STR   H27561119   4.216   9.238   8.515
    1STR   C27661120   4.343   9.082   8.709
    1STR   H27761121   4.303   9.038   8.800
    1STR   H27861122   4.288   9.033   8.628
    1STR   O27961123   4.481   9.050   8.695
    1STR   C28061124   4.533   8.946   8.776
    1STR   H28161125   4.493   8.952   8.877
    1STR   C28261126   4.485   8.820   8.703
    1STR   H28361127   4.515   8.823   8.598
    1STR   H28461128   4.377   8.809   8.705
    1STR   H28561129   4.531   8.732   8.746
    1STR   C28661130   4.688   8.945   8.789
    1STR   H28761131   4.720   8.890   8.877
    1STR   H28861132   4.714   8.873   8.713
    1STR   O28961133   4.773   9.059   8.757
    1STR   C29061134   4.832   9.146   8.856
    1STR   H29161135   4.793   9.242   8.832
    1STR   C29261136   4.768   9.115   8.987
    1STR   H29361137   4.795   9.016   9.014
    1STR   H29461138   4.660   9.113   8.984
    1STR   H29561139   4.804   9.182   9.064
    1STR   C29661140   4.988   9.172   8.872
    1STR   H29761141   4.997   9.236   8.958
    1STR   H29861142   5.046   9.085   8.899
    1STR   O29961143   5.051   9.238   8.762
    1STR   C30061144   5.189   9.274   8.754
    1STR   H30161145   5.216   9.288   8.856
    1STR   C30261146   5.280   9.156   8.715
    1STR   H30361147   5.300   9.143   8.610
    1STR   H30461148   5.240   9.064   8.756
    1STR   H30561149   5.377   9.164   8.757
    1STR   C30661150   5.212   0.094   8.682
    1STR   H30761151   5.136   0.137   8.619
    1STR   H30861152   5.200   0.167   8.762
    1STR   O30961153   5.334   0.130   8.617
    1STR    H1R61154   5.435   9.299   8.536
    1STR    H1S61155   5.347   9.294   8.308
    1STR    H1T61156   5.227   0.093   8.350
    1STR    H1U61157   5.228   9.256   8.428
    1STR    H1V61158   5.562   0.105   8.384
    1STR    H1W61159   5.546   0.211   8.523
    1STR    H1X61160   5.498   0.456   8.445
    1STR    H1Y61161   5.505   0.694   8.497
    1STR    H1Z61162   5.389   0.887   8.597
    1STR    H2061163   5.155   0.998   8.626
    1STR    H2161164   5.023   0.898   8.686
    1STR    H2261165   5.168   0.916   8.783
    1STR    H2361166   4.930   0.723   8.565
    1STR    H2761167   5.137   0.470   8.515
    1STR    H2861168   5.362   9.224   7.525
    1STR    H2961169   5.441   9.003   7.475
    1STR    H2A61170   5.333   8.771   7.281
    1STR    H2B61171   5.219   8.729   7.411
    1STR    H2C61172   5.379   8.775   7.452
    1STR   BCK161173   4.526   2.813   0.544
    1STR    O0361174   4.546   2.711   0.481
    1STR    N0461175   4.417   2.840   0.617
    1STR    C0561176   4.304   2.765   0.649
    1STR    C0661177   4.295   2.626   0.635
    1STR    C0761178   4.180   2.553   0.668
    1STR    N0861179   4.188   2.416   0.652
    1STR    C0961180   4.106   2.313   0.666
    1STR    O0A61181   3.995   2.313   0.717
    1STR    O0B61182   4.170   2.212   0.609
    1STR    C0C61183   4.169   2.078   0.655
    1STR    C0D61184   4.041   2.001   0.619
    1STR    C0E61185   4.295   2.015   0.591
    1STR    O0F61186   4.422   2.016   0.660
    1STR    C0G61187   4.533   2.081   0.597
    1STR    C0H61188   4.496   2.226   0.606
    1STR    C0I61189   4.670   2.079   0.674
    1STR    O0J61190   4.758   1.968   0.664
    1STR    C0K61191   4.702   3.169   1.599
    1STR    C0M61192   4.792   3.285   1.647
    1STR    C0N61193   4.575   3.228   1.536
    1STR    O0O61194   4.471   3.133   1.540
    1STR    C0P61195   4.346   3.174   1.523
    1STR    O0Q61196   4.313   3.281   1.473
    1STR    N0R61197   4.254   3.089   1.568
    1STR    C0S61198   4.267   2.963   1.626
    1STR    C0T61199   4.158   2.878   1.602
    1STR    C0U61200   4.164   2.745   1.642
    1STR    C0V61201   4.275   2.695   1.712
    1STR    C0W61202   4.290   2.548   1.743
    1STR    C0X61203   4.381   2.780   1.743
    1STR    N0Y61204   4.477   2.714   1.817
    1STR   BCK261205   4.600   2.733   1.856
    1STR    O1061206   4.660   2.839   1.845
    1STR    C1361207   4.380   2.913   1.697
    1STR    C1461208   4.066   2.620   0.713
    1STR    C1561209   4.074   2.759   0.732
    1STR    C1661210   4.192   2.829   0.704
    1STR    C1761211   4.203   2.974   0.735
    1STR    H1B61212   4.417   2.933   0.657
    1STR    H1C61213   4.383   2.574   0.608
    1STR    H1D61214   4.282   2.383   0.636
    1STR    H1E61215   4.172   2.077   0.763
    1STR    H1F61216   3.952   2.054   0.653
    1STR    H1G61217   4.033   1.986   0.511
    1STR    H1H61218   4.039   1.903   0.665
    1STR    H1I61219   4.304   2.049   0.488
    1STR    H1J61220   4.272   1.911   0.588
    1STR    H1K61221   4.543   2.051   0.493
    1STR    H1M61222   4.500   2.249   0.708
    1STR    H1N61223   4.397   2.248   0.570
    1STR    H1O61224   4.568   2.290   0.560
    1STR    H1P61225   4.731   2.160   0.635
    1STR    H1Q61226   4.652   2.107   0.776
    1STR   C01061227   4.885   1.986   0.727
    1STR   H01161228   4.866   2.002   0.831
    1STR   C01261229   4.961   1.855   0.713
    1STR   H01361230   4.962   1.820   0.610
    1STR   H01461231   4.920   1.783   0.780
    1STR   H01561232   5.065   1.860   0.743
    1STR   C01661233   4.983   2.090   0.671
    1STR   H01761234   5.080   2.062   0.708
    1STR   H01861235   4.984   2.088   0.563
    1STR   O01961236   4.984   2.220   0.719
    1STR   C02061237   5.098   2.293   0.672
    1STR   H02161238   5.129   2.264   0.571
    1STR   C02261239   5.034   2.423   0.665
    1STR   H02361240   5.021   2.467   0.763
    1STR   H02461241   4.937   2.417   0.625
    1STR   H02561242   5.094   2.484   0.598
    1STR   C02661243   5.222   2.312   0.762
    1STR   H02761244   5.200   2.298   0.867
    1STR   H02861245   5.293   2.234   0.735
    1STR   O02961246   5.284   2.441   0.734
    1STR   C03061247   5.255   2.549   0.823
    1STR   H03161248   5.183   2.508   0.892
    1STR   C03261249   5.379   2.574   0.908
    1STR   H03361250   5.461   2.617   0.850
    1STR   H03461251   5.415   2.481   0.950
    1STR   H03561252   5.357   2.642   0.990
    1STR   C03661253   5.205   2.685   0.759
    1STR   H03761254   5.193   2.760   0.837
    1STR   H03861255   5.285   2.725   0.697
    1STR   O03961256   5.091   2.689   0.672
    1STR   C04061257   4.962   2.722   0.725
    1STR   H04161258   4.956   2.667   0.816
    1STR   C04261259   4.967   2.875   0.749
    1STR   H04361260   4.971   2.899   0.855
    1STR   H04461261   4.881   2.925   0.705
    1STR   H04561262   5.054   2.920   0.701
    1STR   C04661263   4.838   2.673   0.643
    1STR   H04761264   4.821   2.745   0.567
    1STR   H04861265   4.852   2.586   0.585
    1STR   O04961266   4.713   2.660   0.711
    1STR   C05061267   4.638   2.537   0.713
    1STR   H05161268   4.587   2.522   0.619
    1STR   C05261269   4.720   2.414   0.740
    1STR   H05361270   4.665   2.340   0.796
    1STR   H05461271   4.809   2.433   0.798
    1STR   H05561272   4.747   2.368   0.646
    1STR   C05661273   4.529   2.539   0.821
    1STR   H05761274   4.576   2.524   0.917
    1STR   H05861275   4.478   2.634   0.823
    1STR   O05961276   4.437   2.432   0.803
    1STR   C06061277   4.403   2.364   0.923
    1STR   H06161278   4.491   2.354   0.984
    1STR   C06261279   4.298   2.456   0.987
    1STR   H06361280   4.208   2.458   0.926
    1STR   H06461281   4.331   2.558   0.995
    1STR   H06561282   4.271   2.422   1.086
    1STR   C06661283   4.352   2.219   0.900
    1STR   H06761284   4.273   2.195   0.968
    1STR   H06861285   4.307   2.222   0.803
    1STR   O06961286   4.455   2.117   0.899
    1STR   C07061287   4.433   1.986   0.956
    1STR   H07161288   4.413   1.997   1.060
    1STR   C07261289   4.312   1.903   0.912
    1STR   H07361290   4.322   1.870   0.810
    1STR   H07461291   4.218   1.956   0.924
    1STR   H07561292   4.304   1.814   0.973
    1STR   C07661293   4.565   1.906   0.954
    1STR   H07761294   4.631   1.935   0.875
    1STR   H07861295   4.619   1.928   1.045
    1STR   O07961296   4.548   1.767   0.934
    1STR   C08061297   4.625   1.683   1.018
    1STR   H08161298   4.591   1.704   1.118
    1STR   C08261299   4.569   1.543   0.993
    1STR   H08361300   4.583   1.512   0.891
    1STR   H08461301   4.462   1.542   1.011
    1STR   H08561302   4.614   1.469   1.059
    1STR   C08661303   4.781   1.692   1.011
    1STR   H08761304   4.819   1.641   1.100
    1STR   H08861305   4.817   1.633   0.926
    1STR   O08961306   4.841   1.823   1.002
    1STR   C09061307   4.980   1.836   1.043
    1STR   H09161308   4.977   1.816   1.148
    1STR   C09261309   5.073   1.721   0.997
    1STR   H09361310   5.089   1.712   0.891
    1STR   H09461311   5.038   1.623   1.031
    1STR   H09561312   5.172   1.734   1.043
    1STR   C09661313   5.045   1.979   1.020
    1STR   H09761314   5.148   1.970   1.054
    1STR   H09861315   5.059   2.003   0.917
    1STR   O09961316   4.996   2.093   1.095
    1STR   C10061317   4.945   2.207   1.026
    1STR   H10161318   5.005   2.217   0.937
    1STR   C10261319   4.799   2.181   0.993
    1STR   H10361320   4.771   2.078   1.010
    1STR   H10461321   4.789   2.205   0.889
    1STR   H10561322   4.730   2.244   1.047
    1STR   C10661323   4.955   2.347   1.093
    1STR   H10761324   4.915   2.346   1.194
    1STR   H10861325   5.060   2.373   1.103
    1STR   O10961326   4.883   2.444   1.014
    1STR   C11061327   4.865   2.575   1.071
    1STR   H11161328   4.833   2.557   1.172
    1STR   C11261329   5.002   2.637   1.068
    1STR   H11361330   5.055   2.618   0.979
    1STR   H11461331   5.059   2.597   1.149
    1STR   H11561332   4.999   2.745   1.075
    1STR   C11661333   4.774   2.674   0.989
    1STR   H11761334   4.826   2.760   0.951
    1STR   H11861335   4.769   2.608   0.907
    1STR   O11961336   4.636   2.711   1.014
    1STR   C12061337   4.586   2.846   0.990
    1STR   H12161338   4.626   2.916   1.061
    1STR   C12261339   4.627   2.908   0.859
    1STR   H12361340   4.601   2.838   0.783
    1STR   H12461341   4.732   2.931   0.856
    1STR   H12561342   4.572   2.999   0.841
    1STR   C12661343   4.433   2.851   1.007
    1STR   H12761344   4.379   2.799   0.928
    1STR   H12861345   4.408   2.800   1.099
    1STR   O12961346   4.392   2.988   1.013
    1STR   C13061347   4.289   3.019   1.107
    1STR   H13161348   4.286   2.948   1.188
    1STR   C13261349   4.330   3.156   1.162
    1STR   H13361350   4.338   3.230   1.082
    1STR   H13461351   4.427   3.151   1.211
    1STR   H13561352   4.259   3.193   1.236
    1STR   C13661353   4.145   3.017   1.057
    1STR   H13761354   4.084   3.056   1.138
    1STR   H13861355   4.131   3.085   0.973
    1STR   O13961356   4.102   2.884   1.025
    1STR   C14061357   3.967   2.853   1.064
    1STR   H14161358   3.962   2.865   1.172
    1STR   C14261359   3.868   2.951   0.998
    1STR   H14361360   3.882   2.955   0.890
    1STR   H14461361   3.878   3.052   1.036
    1STR   H14561362   3.765   2.920   1.016
    1STR   C14661363   3.929   2.706   1.036
    1STR   H14761364   3.826   2.692   1.070
    1STR   H14861365   3.927   2.681   0.931
    1STR   O14961366   4.018   2.617   1.102
    1STR   C15061367   3.972   2.487   1.140
    1STR   H15161368   4.057   2.461   1.202
    1STR   C15261369   3.841   2.491   1.222
    1STR   H15361370   3.754   2.505   1.159
    1STR   H15461371   3.843   2.572   1.295
    1STR   H15561372   3.826   2.397   1.276
    1STR   C15661373   3.973   2.373   1.036
    1STR   H15761374   3.876   2.324   1.029
    1STR   H15861375   3.990   2.417   0.938
    1STR   O15961376   4.076   2.276   1.062
    1STR   C16061377   4.069   2.190   1.177
    1STR   H16161378   4.041   2.247   1.266
    1STR   C16261379   3.962   2.084   1.150
    1STR   H16361380   3.982   2.032   1.056
    1STR   H16461381   3.863   2.128   1.143
    1STR   H16561382   3.959   2.010   1.230
    1STR   C16661383   4.208   2.124   1.206
    1STR   H16761384   4.200   2.055   1.290
    1STR   H16861385   4.233   2.062   1.122
    1STR   O16961386   4.309   2.221   1.237
    1STR   C17061387   4.450   2.198   1.216
    1STR   H17161388   4.466   2.187   1.112
    1STR   C17261389   4.525   2.329   1.243
    1STR   H17361390   4.509   2.363   1.343
    1STR   H17461391   4.488   2.412   1.183
    1STR   H17561392   4.632   2.323   1.227
    1STR   C17661393   4.526   2.077   1.277
    1STR   H17761394   4.616   2.065   1.218
    1STR   H17861395   4.561   2.101   1.375
    1STR   O17961396   4.458   1.952   1.279
    1STR   C18061397   4.520   1.849   1.358
    1STR   H18161398   4.514   1.872   1.463
    1STR   C18261399   4.432   1.725   1.336
    1STR   H18361400   4.412   1.707   1.231
    1STR   H18461401   4.335   1.740   1.383
    1STR   H18561402   4.477   1.635   1.379
    1STR   C18661403   4.670   1.827   1.331
    1STR   H18761404   4.703   1.729   1.363
    1STR   H18861405   4.689   1.835   1.226
    1STR   O18961406   4.746   1.925   1.400
    1STR   C19061407   4.857   1.976   1.328
    1STR   H19161408   4.845   1.959   1.222
    1STR   C19261409   4.853   2.129   1.333
    1STR   H19361410   4.797   2.169   1.251
    1STR   H19461411   4.954   2.170   1.327
    1STR   H19561412   4.804   2.169   1.420
    1STR   C19661413   4.989   1.910   1.373
    1STR   H19761414   5.012   1.923   1.477
    1STR   H19861415   4.979   1.802   1.363
    1STR   O19961416   5.100   1.952   1.294
    1STR   C20061417   5.201   2.021   1.364
    1STR   H20161418   5.155   2.080   1.442
    1STR   C20261419   5.290   1.911   1.422
    1STR   H20361420   5.336   1.852   1.343
    1STR   H20461421   5.233   1.842   1.483
    1STR   H20561422   5.369   1.956   1.481
    1STR   C20661423   5.285   2.116   1.277
    1STR   H20761424   5.382   2.123   1.327
    1STR   H20861425   5.304   2.073   1.179
    1STR   O20961426   5.233   2.249   1.262
    1STR   C21061427   5.332   2.353   1.272
    1STR   H21161428   5.375   2.351   1.373
    1STR   C21261429   5.444   2.326   1.170
    1STR   H21361430   5.398   2.305   1.073
    1STR   H21461431   5.507   2.241   1.195
    1STR   H21561432   5.511   2.411   1.159
    1STR   C21661433   5.276   2.495   1.250
    1STR   H21761434   5.362   2.561   1.255
    1STR   H21861435   5.241   2.503   1.148
    1STR   O21961436   5.174   2.536   1.344
    1STR   C22061437   5.163   2.675   1.384
    1STR   H22161438   5.130   2.667   1.487
    1STR   C22261439   5.297   2.750   1.393
    1STR   H22361440   5.337   2.774   1.295
    1STR   H22461441   5.370   2.692   1.450
    1STR   H22561442   5.284   2.844   1.446
    1STR   C22661443   5.050   2.768   1.330
    1STR   H22761444   5.047   2.849   1.400
    1STR   H22861445   5.086   2.817   1.240
    1STR   O22961446   4.916   2.714   1.317
    1STR   C23061447   4.800   2.803   1.301
    1STR   H23161448   4.779   2.857   1.392
    1STR   C23261449   4.831   2.922   1.208
    1STR   H23361450   4.840   2.897   1.104
    1STR   H23461451   4.922   2.974   1.233
    1STR   H23561452   4.752   2.997   1.218
    1STR   C23661453   4.661   2.731   1.278
    1STR   H23761454   4.602   2.800   1.222
    1STR   H23861455   4.663   2.638   1.224
    1STR   O23961456   4.576   2.695   1.384
    1STR   C24061457   4.435   2.717   1.382
    1STR   H24161458   4.404   2.694   1.482
    1STR   C24261459   4.421   2.868   1.378
    1STR   H24361460   4.460   2.919   1.291
    1STR   H24461461   4.479   2.909   1.460
    1STR   H24561462   4.317   2.897   1.389
    1STR   C24661463   4.339   2.633   1.290
    1STR   H24761464   4.247   2.689   1.269
    1STR   H24861465   4.389   2.620   1.194
    1STR   O24961466   4.299   2.499   1.327
    1STR   C25061467   4.223   2.476   1.446
    1STR   H25161468   4.267   2.548   1.510
    1STR   C25261469   4.073   2.500   1.444
    1STR   H25361470   4.022   2.416   1.397
    1STR   H25461471   4.047   2.593   1.395
    1STR   H25561472   4.031   2.497   1.544
    1STR   C25661473   4.247   2.337   1.505
    1STR   H25761474   4.191   2.319   1.597
    1STR   H25861475   4.210   2.261   1.437
    1STR   O25961476   4.384   2.327   1.530
    1STR   C26061477   4.432   2.215   1.601
    1STR   H26161478   4.406   2.227   1.705
    1STR   C26261479   4.366   2.089   1.551
    1STR   H26361480   4.353   2.086   1.445
    1STR   H26461481   4.265   2.078   1.591
    1STR   H26561482   4.428   2.007   1.582
    1STR   C26661483   4.586   2.225   1.588
    1STR   H26761484   4.618   2.274   1.497
    1STR   H26861485   4.611   2.291   1.668
    1STR   O26961486   4.668   2.111   1.593
    1STR   C27061487   4.768   2.120   1.693
    1STR   H27161488   4.777   2.215   1.744
    1STR   C27261489   4.714   2.008   1.773
    1STR   H27361490   4.706   1.922   1.708
    1STR   H27461491   4.615   2.026   1.808
    1STR   H27561492   4.782   1.988   1.855
    1STR   C27661493   4.913   2.085   1.664
    1STR   H27761494   4.974   2.081   1.754
    1STR   H27861495   4.910   1.983   1.629
    1STR   O27961496   4.971   2.172   1.571
    1STR   C28061497   5.017   2.298   1.615
    1STR   H28161498   4.996   2.316   1.720
    1STR   C28261499   5.167   2.283   1.596
    1STR   H28361500   5.193   2.304   1.493
    1STR   H28461501   5.194   2.181   1.619
    1STR   H28561502   5.228   2.344   1.660
    1STR   C28661503   4.953   2.409   1.528
    1STR   H28761504   5.011   2.500   1.530
    1STR   H28861505   4.946   2.380   1.424
    1STR   O28961506   4.826   2.439   1.581
    1STR   C29061507   4.758   2.555   1.535
    1STR   H29161508   4.762   2.553   1.427
    1STR   C29261509   4.617   2.528   1.585
    1STR   H29361510   4.614   2.483   1.682
    1STR   H29461511   4.561   2.473   1.511
    1STR   H29561512   4.557   2.617   1.600
    1STR   C29661513   4.783   2.699   1.592
    1STR   H29761514   4.699   2.764   1.568
    1STR   H29861515   4.780   2.697   1.697
    1STR   O29961516   4.896   2.775   1.563
    1STR   C30061517   4.889   2.907   1.618
    1STR   H30161518   4.813   2.920   1.694
    1STR   C30261519   5.019   2.896   1.686
    1STR   H30361520   5.100   2.880   1.616
    1STR   H30461521   5.012   2.812   1.753
    1STR   H30561522   5.032   2.986   1.742
    1STR   C30661523   4.891   3.034   1.530
    1STR   H30761524   4.955   3.110   1.575
    1STR   H30861525   4.942   3.017   1.437
    1STR   O30961526   4.764   3.089   1.498
    1STR    H1R61527   4.674   3.107   1.684
    1STR    H1S61528   4.735   3.357   1.705
    1STR    H1T61529   4.837   3.338   1.563
    1STR    H1U61530   4.872   3.250   1.713
    1STR    H1V61531   4.591   3.260   1.433
    1STR    H1W61532   4.542   3.315   1.592
    1STR    H1X61533   4.162   3.126   1.551
    1STR    H1Y61534   4.072   2.912   1.546
    1STR    H1Z61535   4.082   2.681   1.617
    1STR    H2061536   4.377   2.506   1.694
    1STR    H2161537   4.305   2.534   1.847
    1STR    H2261538   4.205   2.490   1.710
    1STR    H2361539   4.453   2.618   1.840
    1STR    H2761540   4.467   2.974   1.717
    1STR    H2861541   3.976   2.565   0.736
    1STR    H2961542   3.988   2.812   0.769
    1STR    H2A61543   4.277   2.989   0.812
    1STR    H2B61544   4.107   3.012   0.769
    1STR    H2C61545   4.237   3.025   0.645
    1STR   BCK161546   4.909   2.231   2.792
    1STR    O0361547   5.005   2.301   2.768
    1STR    N0461548   4.912   2.101   2.782
    1STR    C0561549   5.034   2.041   2.782
    1STR    C0661550   5.135   2.083   2.873
    1STR    C0761551   5.262   2.028   2.871
    1STR    N0861552   5.361   2.080   2.957
    1STR    C0961553   5.479   2.027   2.991
    1STR    O0A61554   5.513   1.912   2.966
    1STR    O0B61555   5.561   2.107   3.063
    1STR    C0C61556   5.518   2.207   3.153
    1STR    C0D61557   5.638   2.235   3.244
    1STR    C0E61558   5.470   2.335   3.083
    1STR    O0F61559   5.337   2.354   3.125
    1STR    C0G61560   5.279   2.471   3.071
    1STR    C0H61561   5.210   2.434   2.942
    1STR    C0I61562   5.179   2.519   3.175
    1STR    O0J61563   5.100   2.622   3.118
    1STR    C0K61564   4.415   2.551   4.083
    1STR    C0M61565   4.394   2.698   4.103
    1STR    C0N61566   4.553   2.501   4.127
    1STR    O0O61567   4.600   2.375   4.080
    1STR    C0P61568   4.721   2.341   4.119
    1STR    O0Q61569   4.777   2.388   4.216
    1STR    N0R61570   4.778   2.250   4.042
    1STR    C0S61571   4.913   2.215   4.034
    1STR    C0T61572   4.953   2.085   4.000
    1STR    C0U61573   5.086   2.055   3.966
    1STR    C0V61574   5.185   2.152   3.982
    1STR    C0W61575   5.327   2.128   3.938
    1STR    C0X61576   5.150   2.275   4.040
    1STR    N0Y61577   5.247   2.356   4.093
    1STR   BCK261578   5.254   2.484   4.058
    1STR    O1061579   5.308   2.521   3.955
    1STR    C1361580   5.015   2.308   4.058
    1STR    C1461581   5.281   1.925   2.778
    1STR    C1561582   5.184   1.890   2.682
    1STR    C1661583   5.058   1.945   2.686
    1STR    C1761584   4.954   1.901   2.586
    1STR    H1B61585   4.827   2.047   2.779
    1STR    H1C61586   5.111   2.158   2.947
    1STR    H1D61587   5.339   2.170   2.996
    1STR    H1E61588   5.438   2.166   3.215
    1STR    H1F61589   5.722   2.275   3.188
    1STR    H1G61590   5.612   2.306   3.323
    1STR    H1H61591   5.671   2.142   3.292
    1STR    H1I61592   5.475   2.325   2.975
    1STR    H1J61593   5.531   2.421   3.110
    1STR    H1K61594   5.351   2.552   3.054
    1STR    H1M61595   5.131   2.364   2.966
    1STR    H1N61596   5.275   2.387   2.870
    1STR    H1O61597   5.164   2.521   2.895
    1STR    H1P61598   5.114   2.438   3.209
    1STR    H1Q61599   5.233   2.552   3.263
    1STR   C01061600   5.037   2.699   3.218
    1STR   H01161601   5.019   2.631   3.301
    1STR   C01261602   5.137   2.809   3.259
    1STR   H01361603   5.178   2.860   3.172
    1STR   H01461604   5.221   2.769   3.315
    1STR   H01561605   5.091   2.887   3.320
    1STR   C01661606   4.900   2.755   3.174
    1STR   H01761607   4.851   2.814   3.249
    1STR   H01861608   4.925   2.834   3.105
    1STR   O01961609   4.810   2.659   3.117
    1STR   C02061610   4.674   2.642   3.163
    1STR   H02161611   4.674   2.554   3.225
    1STR   C02261612   4.613   2.758   3.249
    1STR   H02361613   4.623   2.856   3.205
    1STR   H02461614   4.652   2.764   3.349
    1STR   H02561615   4.507   2.744   3.263
    1STR   C02661616   4.579   2.620   3.042
    1STR   H02761617   4.487   2.672   3.062
    1STR   H02861618   4.627   2.679   2.969
    1STR   O02961619   4.557   2.494   2.975
    1STR   C03061620   4.423   2.441   2.969
    1STR   H03161621   4.407   2.431   3.070
    1STR   C03261622   4.306   2.530   2.940
    1STR   H03361623   4.277   2.533   2.835
    1STR   H03461624   4.312   2.630   2.979
    1STR   H03561625   4.227   2.489   3.000
    1STR   C03661626   4.398   2.293   2.943
    1STR   H03761627   4.324   2.258   3.012
    1STR   H03861628   4.339   2.267   2.858
    1STR   O03961629   4.517   2.219   2.949
    1STR   C04061630   4.513   2.099   3.021
    1STR   H04161631   4.486   2.117   3.121
    1STR   C04261632   4.404   2.007   2.968
    1STR   H04361633   4.405   1.995   2.861
    1STR   H04461634   4.309   2.051   2.991
    1STR   H04561635   4.402   1.909   3.015
    1STR   C04661636   4.651   2.041   3.031
    1STR   H04761637   4.629   1.939   3.043
    1STR   H04861638   4.702   2.055   2.937
    1STR   O04961639   4.731   2.068   3.147
    1STR   C05061640   4.868   2.094   3.118
    1STR   H05161641   4.892   2.085   3.015
    1STR   C05261642   4.882   2.238   3.154
    1STR   H05361643   4.801   2.299   3.116
    1STR   H05461644   4.979   2.282   3.130
    1STR   H05561645   4.865   2.239   3.258
    1STR   C05661646   4.970   2.005   3.193
    1STR   H05761647   5.021   2.063   3.268
    1STR   H05861648   4.917   1.929   3.249
    1STR   O05961649   5.068   1.950   3.104
    1STR   C06061650   5.163   1.863   3.166
    1STR   H06161651   5.096   1.798   3.218
    1STR   C06261652   5.243   1.766   3.079
    1STR   H06361653   5.232   1.784   2.973
    1STR   H06461654   5.212   1.665   3.103
    1STR   H06561655   5.350   1.767   3.100
    1STR   C06661656   5.262   1.938   3.254
    1STR   H06761657   5.352   1.959   3.197
    1STR   H06861658   5.229   2.038   3.278
    1STR   O06961659   5.309   1.866   3.369
    1STR   C07061660   5.244   1.746   3.410
    1STR   H07161661   5.244   1.673   3.329
    1STR   C07261662   5.334   1.693   3.521
    1STR   H07361663   5.341   1.765   3.603
    1STR   H07461664   5.435   1.677   3.483
    1STR   H07561665   5.297   1.599   3.561
    1STR   C07661666   5.099   1.769   3.461
    1STR   H07761667   5.112   1.810   3.560
    1STR   H07861668   5.043   1.847   3.411
    1STR   O07961669   5.025   1.646   3.465
    1STR   C08061670   4.933   1.611   3.359
    1STR   H08161671   4.972   1.639   3.261
    1STR   C08261672   4.929   1.458   3.362
    1STR   H08361673   4.884   1.422   3.455
    1STR   H08461674   5.029   1.416   3.353
    1STR   H08561675   4.869   1.420   3.279
    1STR   C08661676   4.791   1.670   3.379
    1STR   H08761677   4.762   1.659   3.483
    1STR   H08861678   4.796   1.776   3.359
    1STR   O08961679   4.690   1.609   3.295
    1STR   C09061680   4.557   1.660   3.314
    1STR   H09161681   4.544   1.686   3.418
    1STR   C09261682   4.532   1.787   3.235
    1STR   H09361683   4.617   1.854   3.239
    1STR   H09461684   4.447   1.841   3.270
    1STR   H09561685   4.506   1.764   3.132
    1STR   C09661686   4.448   1.557   3.277
    1STR   H09761687   4.453   1.529   3.171
    1STR   H09861688   4.468   1.465   3.332
    1STR   O09961689   4.318   1.604   3.315
    1STR   C10061690   4.242   1.672   3.214
    1STR   H10161691   4.304   1.700   3.129
    1STR   C10261692   4.136   1.576   3.161
    1STR   H10361693   4.070   1.542   3.241
    1STR   H10461694   4.183   1.488   3.116
    1STR   H10561695   4.076   1.624   3.084
    1STR   C10661696   4.181   1.801   3.273
    1STR   H10761697   4.081   1.783   3.313
    1STR   H10861698   4.241   1.837   3.356
    1STR   O10961699   4.178   1.899   3.170
    1STR   C11061700   4.148   2.036   3.198
    1STR   H11161701   4.136   2.084   3.102
    1STR   C11261702   4.016   2.045   3.278
    1STR   H11361703   4.031   2.015   3.382
    1STR   H11461704   3.940   1.978   3.238
    1STR   H11561705   3.975   2.145   3.276
    1STR   C11661706   4.266   2.114   3.257
    1STR   H11761707   4.245   2.112   3.359
    1STR   H11861708   4.356   2.055   3.249
    1STR   O11961709   4.281   2.253   3.220
    1STR   C12061710   4.387   2.330   3.282
    1STR   H12161711   4.395   2.291   3.380
    1STR   C12261712   4.533   2.308   3.246
    1STR   H12361713   4.565   2.320   3.144
    1STR   H12461714   4.569   2.212   3.281
    1STR   H12561715   4.592   2.383   3.293
    1STR   C12661716   4.366   2.486   3.286
    1STR   H12761717   4.413   2.519   3.376
    1STR   H12861718   4.437   2.538   3.225
    1STR   O12961719   4.236   2.540   3.253
    1STR   C13061720   4.227   2.684   3.244
    1STR   H13161721   4.302   2.720   3.174
    1STR   C13261722   4.090   2.719   3.187
    1STR   H13361723   4.088   2.703   3.080
    1STR   H13461724   4.066   2.825   3.202
    1STR   H13561725   4.011   2.660   3.234
    1STR   C13661726   4.245   2.766   3.374
    1STR   H13761727   4.258   2.871   3.348
    1STR   H13861728   4.154   2.763   3.435
    1STR   O13961729   4.360   2.726   3.446
    1STR   C14061730   4.335   2.656   3.566
    1STR   H14161731   4.431   2.615   3.596
    1STR   C14261732   4.303   2.764   3.669
    1STR   H14361733   4.204   2.808   3.656
    1STR   H14461734   4.376   2.845   3.662
    1STR   H14561735   4.313   2.726   3.771
    1STR   C14661736   4.237   2.534   3.546
    1STR   H14761737   4.162   2.529   3.621
    1STR   H14861738   4.169   2.544   3.463
    1STR   O14961739   4.308   2.408   3.539
    1STR   C15061740   4.229   2.289   3.548
    1STR   H15161741   4.208   2.318   3.643
    1STR   C15261742   4.093   2.292   3.477
    1STR   H15361743   4.103   2.304   3.369
    1STR   H15461744   4.029   2.374   3.510
    1STR   H15561745   4.036   2.202   3.499
    1STR   C15661746   4.290   2.147   3.577
    1STR   H15761747   4.293   2.130   3.681
    1STR   H15861748   4.221   2.067   3.550
    1STR   O15961749   4.425   2.118   3.542
    1STR   C16061750   4.456   1.981   3.516
    1STR   H16161751   4.397   1.951   3.432
    1STR   C16261752   4.601   1.984   3.470
    1STR   H16361753   4.646   1.887   3.461
    1STR   H16461754   4.657   2.038   3.543
    1STR   H16561755   4.612   2.033   3.374
    1STR   C16661756   4.431   1.873   3.625
    1STR   H16761757   4.416   1.919   3.723
    1STR   H16861758   4.339   1.820   3.600
    1STR   O16961759   4.539   1.779   3.633
    1STR   C17061760   4.515   1.660   3.706
    1STR   H17161761   4.429   1.681   3.768
    1STR   C17261762   4.476   1.542   3.616
    1STR   H17361763   4.561   1.512   3.554
    1STR   H17461764   4.392   1.568   3.553
    1STR   H17561765   4.448   1.455   3.675
    1STR   C17661766   4.637   1.620   3.794
    1STR   H17761767   4.652   1.695   3.871
    1STR   H17861768   4.619   1.526   3.846
    1STR   O17961769   4.755   1.605   3.719
    1STR   C18061770   4.874   1.606   3.797
    1STR   H18161771   4.855   1.599   3.905
    1STR   C18261772   4.957   1.484   3.756
    1STR   H18361773   4.986   1.489   3.651
    1STR   H18461774   4.901   1.392   3.770
    1STR   H18561775   5.049   1.477   3.814
    1STR   C18661776   4.949   1.736   3.766
    1STR   H18761777   5.054   1.729   3.794
    1STR   H18861778   4.945   1.750   3.659
    1STR   O18961779   4.891   1.847   3.830
    1STR   C19061780   4.809   1.928   3.747
    1STR   H19161781   4.770   1.869   3.664
    1STR   C19261782   4.689   1.970   3.832
    1STR   H19361783   4.711   2.055   3.894
    1STR   H19461784   4.655   1.893   3.901
    1STR   H19561785   4.606   1.999   3.770
    1STR   C19661786   4.883   2.053   3.693
    1STR   H19761787   4.815   2.110   3.634
    1STR   H19861788   4.907   2.123   3.772
    1STR   O19961789   4.998   2.030   3.615
    1STR   C20061790   5.064   2.152   3.581
    1STR   H20161791   5.075   2.212   3.668
    1STR   C20261792   5.207   2.116   3.548
    1STR   H20361793   5.202   2.034   3.480
    1STR   H20461794   5.260   2.080   3.636
    1STR   H20561795   5.262   2.199   3.504
    1STR   C20661796   4.993   2.229   3.466
    1STR   H20761797   5.060   2.246   3.382
    1STR   H20861798   4.917   2.160   3.434
    1STR   O20961799   4.939   2.359   3.498
    1STR   C21061800   4.816   2.404   3.437
    1STR   H21161801   4.821   2.416   3.330
    1STR   C21261802   4.713   2.306   3.488
    1STR   H21361803   4.741   2.289   3.590
    1STR   H21461804   4.717   2.213   3.433
    1STR   H21561805   4.610   2.340   3.491
    1STR   C21661806   4.769   2.541   3.484
    1STR   H21761807   4.661   2.556   3.473
    1STR   H21861808   4.792   2.539   3.586
    1STR   O21961809   4.833   2.649   3.421
    1STR   C22061810   4.888   2.753   3.501
    1STR   H22161811   4.928   2.828   3.435
    1STR   C22261812   4.786   2.842   3.574
    1STR   H22361813   4.731   2.904   3.504
    1STR   H22461814   4.836   2.910   3.643
    1STR   H22561815   4.711   2.789   3.630
    1STR   C22661816   5.016   2.704   3.567
    1STR   H22761817   5.095   2.696   3.493
    1STR   H22861818   5.051   2.773   3.639
    1STR   O22961819   5.001   2.579   3.627
    1STR   C23061820   5.107   2.532   3.705
    1STR   H23161821   5.131   2.595   3.787
    1STR   C23261822   5.041   2.422   3.782
    1STR   H23361823   5.118   2.353   3.813
    1STR   H23461824   4.962   2.370   3.729
    1STR   H23561825   4.993   2.466   3.869
    1STR   C23661826   5.235   2.500   3.627
    1STR   H23761827   5.305   2.444   3.688
    1STR   H23861828   5.208   2.436   3.543
    1STR   O23961829   5.298   2.619   3.575
    1STR   C24061830   5.378   2.697   3.664
    1STR   H24161831   5.409   2.637   3.750
    1STR   C24261832   5.502   2.731   3.581
    1STR   H24361833   5.475   2.790   3.494
    1STR   H24461834   5.550   2.639   3.546
    1STR   H24561835   5.575   2.786   3.641
    1STR   C24661836   5.308   2.826   3.714
    1STR   H24761837   5.378   2.893   3.764
    1STR   H24861838   5.265   2.879   3.629
    1STR   O24961839   5.212   2.787   3.808
    1STR   C25061840   5.107   2.869   3.856
    1STR   H25161841   5.153   2.909   3.946
    1STR   C25261842   5.068   2.990   3.767
    1STR   H25361843   5.065   2.972   3.660
    1STR   H25461844   5.137   3.072   3.782
    1STR   H25561845   4.968   3.024   3.794
    1STR   C25661846   4.990   2.779   3.907
    1STR   H25761847   5.030   2.695   3.961
    1STR   H25861848   4.930   2.834   3.976
    1STR   O25961849   4.889   2.729   3.821
    1STR   C26061850   4.777   2.674   3.891
    1STR   H26161851   4.809   2.628   3.985
    1STR   C26261852   4.677   2.787   3.913
    1STR   H26361853   4.718   2.880   3.873
    1STR   H26461854   4.656   2.797   4.019
    1STR   H26561855   4.583   2.770   3.861
    1STR   C26661856   4.712   2.568   3.805
    1STR   H26761857   4.674   2.616   3.717
    1STR   H26861858   4.785   2.491   3.783
    1STR   O26961859   4.594   2.511   3.853
    1STR   C27061860   4.541   2.411   3.767
    1STR   H27161861   4.541   2.441   3.663
    1STR   C27261862   4.612   2.278   3.791
    1STR   H27361863   4.720   2.287   3.795
    1STR   H27461864   4.585   2.208   3.712
    1STR   H27561865   4.578   2.231   3.883
    1STR   C27661866   4.400   2.385   3.812
    1STR   H27761867   4.367   2.291   3.774
    1STR   H27861868   4.418   2.372   3.916
    1STR   O27961869   4.300   2.482   3.794
    1STR   C28061870   4.176   2.460   3.861
    1STR   H28161871   4.200   2.443   3.962
    1STR   C28261872   4.101   2.594   3.857
    1STR   H28361873   4.100   2.649   3.764
    1STR   H28461874   4.141   2.662   3.932
    1STR   H28561875   3.995   2.580   3.873
    1STR   C28661876   4.077   2.347   3.823
    1STR   H28761877   3.995   2.358   3.888
    1STR   H28861878   4.028   2.378   3.732
    1STR   O28961879   4.112   2.208   3.796
    1STR   C29061880   4.142   2.104   3.888
    1STR   H29161881   4.076   2.105   3.972
    1STR   C29261882   4.109   1.974   3.812
    1STR   H29361883   4.185   1.946   3.740
    1STR   H29461884   4.015   1.984   3.757
    1STR   H29561885   4.096   1.890   3.879
    1STR   C29661886   4.289   2.105   3.935
    1STR   H29761887   4.318   2.020   3.993
    1STR   H29861888   4.366   2.098   3.859
    1STR   O29961889   4.318   2.218   4.011
    1STR   C30061890   4.243   2.257   4.121
    1STR   H30161891   4.146   2.297   4.097
    1STR   C30261892   4.230   2.137   4.202
    1STR   H30361893   4.328   2.105   4.226
    1STR   H30461894   4.178   2.056   4.155
    1STR   H30561895   4.176   2.163   4.289
    1STR   C30661896   4.323   2.356   4.201
    1STR   H30761897   4.286   2.363   4.303
    1STR   H30861898   4.423   2.317   4.211
    1STR   O30961899   4.307   2.485   4.145
    1STR    H1R61900   4.406   2.556   3.978
    1STR    H1S61901   4.438   2.723   4.197
    1STR    H1T61902   4.288   2.722   4.101
    1STR    H1U61903   4.440   2.757   4.025
    1STR    H1V61904   4.552   2.498   4.235
    1STR    H1W61905   4.625   2.574   4.091
    1STR    H1X61906   4.709   2.204   3.985
    1STR    H1Y61907   4.881   2.006   3.996
    1STR    H1Z61908   5.109   1.957   3.928
    1STR    H2061909   5.394   2.144   4.022
    1STR    H2161910   5.341   2.029   3.896
    1STR    H2261911   5.353   2.201   3.861
    1STR    H2361912   5.234   2.343   4.192
    1STR    H2761913   4.987   2.406   4.092
    1STR    H2861914   5.370   1.868   2.779
    1STR    H2961915   5.203   1.821   2.603
    1STR    H2A61916   5.000   1.889   2.488
    1STR    H2B61917   4.866   1.963   2.575
    1STR    H2C61918   4.913   1.809   2.621
    1STR   BCK161919   4.962   2.219   5.007
    1STR    O0361920   4.995   2.203   4.892
    1STR    N0461921   4.947   2.335   5.064
    1STR    C0561922   4.853   2.433   5.056
    1STR    C0661923   4.717   2.405   5.074
    1STR    C0761924   4.628   2.508   5.107
    1STR    N0861925   4.499   2.474   5.141
    1STR    C0961926   4.399   2.549   5.184
    1STR    O0A61927   4.398   2.671   5.193
    1STR    O0B61928   4.299   2.468   5.216
    1STR    C0C61929   4.246   2.473   5.345
    1STR    C0D61930   4.174   2.602   5.383
    1STR    C0E61931   4.171   2.345   5.378
    1STR    O0F61932   4.118   2.356   5.509
    1STR    C0G61933   4.012   2.271   5.553
    1STR    C0H61934   3.876   2.328   5.511
    1STR    C0I61935   4.026   2.117   5.536
    1STR    O0J61936   4.140   2.071   5.462
    1STR    C0K61937   5.574   2.646   6.501
    1STR    C0M61938   5.647   2.754   6.418
    1STR    C0N61939   5.485   2.711   6.608
    1STR    O0O61940   5.358   2.739   6.558
    1STR    C0P61941   5.263   2.650   6.576
    1STR    O0Q61942   5.231   2.569   6.491
    1STR    N0R61943   5.201   2.667   6.693
    1STR    C0S61944   5.068   2.634   6.706
    1STR    C0T61945   4.989   2.745   6.730
    1STR    C0U61946   4.854   2.742   6.697
    1STR    C0V61947   4.792   2.626   6.648
    1STR    C0W61948   4.645   2.631   6.611
    1STR    C0X61949   4.871   2.511   6.630
    1STR    N0Y61950   4.825   2.416   6.542
    1STR   BCK261951   4.864   2.294   6.512
    1STR    O1061952   4.835   2.248   6.404
    1STR    C1361953   5.009   2.515   6.661
    1STR    C1461954   4.676   2.640   5.115
    1STR    C1561955   4.810   2.666   5.089
    1STR    C1661956   4.899   2.563   5.063
    1STR    C1761957   5.043   2.594   5.042
    1STR    H1B61958   4.981   2.332   5.160
    1STR    H1C61959   4.685   2.304   5.075
    1STR    H1D61960   4.465   2.380   5.127
    1STR    H1E61961   4.338   2.476   5.399
    1STR    H1F61962   4.070   2.586   5.409
    1STR    H1G61963   4.223   2.642   5.469
    1STR    H1H61964   4.185   2.680   5.309
    1STR    H1I61965   4.238   2.260   5.368
    1STR    H1J61966   4.096   2.326   5.305
    1STR    H1K61967   4.016   2.289   5.660
    1STR    H1M61968   3.885   2.435   5.489
    1STR    H1N61969   3.804   2.318   5.592
    1STR    H1O61970   3.833   2.277   5.426
    1STR    H1P61971   4.025   2.076   5.636
    1STR    H1Q61972   3.937   2.075   5.491
    1STR   C01061973   4.204   1.953   5.509
    1STR   H01161974   4.238   1.977   5.608
    1STR   C01261975   4.108   1.833   5.507
    1STR   H01361976   4.075   1.813   5.405
    1STR   H01461977   4.020   1.848   5.568
    1STR   H01561978   4.158   1.743   5.543
    1STR   C01661979   4.334   1.921   5.434
    1STR   H01761980   4.402   1.861   5.495
    1STR   H01861981   4.312   1.861   5.345
    1STR   O01961982   4.396   2.042   5.400
    1STR   C02061983   4.502   2.027   5.307
    1STR   H02161984   4.472   1.952   5.235
    1STR   C02261985   4.517   2.160   5.235
    1STR   H02361986   4.586   2.148   5.153
    1STR   H02461987   4.567   2.237   5.292
    1STR   H02561988   4.422   2.198   5.199
    1STR   C02661989   4.635   1.987   5.374
    1STR   H02761990   4.722   2.029   5.323
    1STR   H02861991   4.632   2.026   5.474
    1STR   O02961992   4.655   1.848   5.382
    1STR   C03061993   4.750   1.810   5.480
    1STR   H03161994   4.729   1.867   5.569
    1STR   C03261995   4.713   1.665   5.512
    1STR   H03361996   4.729   1.604   5.423
    1STR   H03461997   4.609   1.657   5.540
    1STR   H03561998   4.774   1.624   5.592
    1STR   C03661999   4.903   1.820   5.453
    1STR   H03762000   4.949   1.797   5.550
    1STR   H03862001   4.931   1.738   5.387
    1STR   O03962002   4.962   1.941   5.404
    1STR   C04062003   5.103   1.958   5.436
    1STR   H04162004   5.109   1.979   5.542
    1STR   C04262005   5.188   1.829   5.419
    1STR   H04362006   5.200   1.800   5.315
    1STR   H04462007   5.150   1.744   5.474
    1STR   H04562008   5.288   1.846   5.457
    1STR   C04662009   5.176   2.072   5.355
    1STR   H04762010   5.280   2.052   5.374
    1STR   H04862011   5.165   2.055   5.249
    1STR   O04962012   5.177   2.212   5.389
    1STR   C05062013   5.113   2.313   5.310
    1STR   H05162014   5.131   2.296   5.206
    1STR   C05262015   4.972   2.294   5.344
    1STR   H05362016   4.979   2.329   5.445
    1STR   H05462017   4.941   2.191   5.347
    1STR   H05562018   4.897   2.358   5.298
    1STR   C05662019   5.145   2.461   5.346
    1STR   H05762020   5.159   2.460   5.451
    1STR   H05862021   5.238   2.497   5.304
    1STR   O05962022   5.035   2.550   5.314
    1STR   C06062023   5.006   2.660   5.401
    1STR   H06162024   5.012   2.620   5.499
    1STR   C06262025   5.106   2.773   5.378
    1STR   H06362026   5.110   2.803   5.274
    1STR   H06462027   5.206   2.742   5.407
    1STR   H06562028   5.080   2.861   5.437
    1STR   C06662029   4.859   2.706   5.391
    1STR   H06762030   4.849   2.789   5.323
    1STR   H06862031   4.810   2.623   5.343
    1STR   O06962032   4.793   2.739   5.514
    1STR   C07062033   4.657   2.782   5.498
    1STR   H07162034   4.663   2.861   5.426
    1STR   C07262035   4.571   2.669   5.443
    1STR   H07362036   4.605   2.625   5.351
    1STR   H07462037   4.468   2.698   5.425
    1STR   H07562038   4.568   2.590   5.515
    1STR   C07662039   4.587   2.842   5.622
    1STR   H07762040   4.615   2.789   5.713
    1STR   H07862041   4.622   2.944   5.637
    1STR   O07962042   4.444   2.846   5.597
    1STR   C08062043   4.357   2.768   5.682
    1STR   H08162044   4.374   2.816   5.777
    1STR   C08262045   4.210   2.800   5.656
    1STR   H08362046   4.149   2.710   5.664
    1STR   H08462047   4.194   2.843   5.557
    1STR   H08562048   4.171   2.870   5.729
    1STR   C08662049   4.392   2.617   5.703
    1STR   H08762050   4.498   2.619   5.710
    1STR   H08862051   4.358   2.583   5.799
    1STR   O08962052   4.358   2.513   5.611
    1STR   C09062053   4.424   2.386   5.629
    1STR   H09162054   4.498   2.401   5.704
    1STR   C09262055   4.331   2.276   5.679
    1STR   H09362056   4.381   2.208   5.747
    1STR   H09462057   4.295   2.212   5.599
    1STR   H09562058   4.242   2.315   5.724
    1STR   C09662059   4.499   2.328   5.508
    1STR   H09762060   4.429   2.271   5.449
    1STR   H09862061   4.532   2.402   5.436
    1STR   O09962062   4.603   2.236   5.548
    1STR   C10062063   4.740   2.259   5.515
    1STR   H10162064   4.746   2.229   5.411
    1STR   C10262065   4.761   2.410   5.520
    1STR   H10362066   4.861   2.444   5.542
    1STR   H10462067   4.698   2.453   5.596
    1STR   H10562068   4.734   2.452   5.424
    1STR   C10662069   4.841   2.170   5.600
    1STR   H10762070   4.830   2.195   5.701
    1STR   H10862071   4.810   2.067   5.592
    1STR   O10962072   4.984   2.165   5.584
    1STR   C11062073   5.070   2.198   5.695
    1STR   H11162074   5.041   2.297   5.722
    1STR   C11262075   5.047   2.099   5.811
    1STR   H11362076   5.056   1.996   5.778
    1STR   H11462077   4.950   2.112   5.859
    1STR   H11562078   5.120   2.116   5.889
    1STR   C11662079   5.224   2.205   5.672
    1STR   H11762080   5.276   2.205   5.767
    1STR   H11862081   5.257   2.113   5.624
    1STR   O11962082   5.277   2.311   5.592
    1STR   C12062083   5.336   2.422   5.658
    1STR   H12162084   5.364   2.395   5.758
    1STR   C12262085   5.463   2.457   5.584
    1STR   H12362086   5.437   2.487   5.483
    1STR   H12462087   5.531   2.372   5.580
    1STR   H12562088   5.515   2.540   5.632
    1STR   C12662089   5.244   2.544   5.663
    1STR   H12762090   5.272   2.605   5.749
    1STR   H12862091   5.261   2.608   5.577
    1STR   O12962092   5.107   2.506   5.662
    1STR   C13062093   5.026   2.588   5.742
    1STR   H13162094   5.083   2.575   5.830
    1STR   C13262095   5.042   2.739   5.715
    1STR   H13362096   4.951   2.786   5.679
    1STR   H13462097   5.120   2.765   5.644
    1STR   H13562098   5.073   2.788   5.806
    1STR   C13662099   4.880   2.540   5.768
    1STR   H13762100   4.848   2.589   5.856
    1STR   H13862101   4.818   2.589   5.695
    1STR   O13962102   4.843   2.398   5.782
    1STR   C14062103   4.734   2.353   5.869
    1STR   H14162104   4.782   2.328   5.961
    1STR   C14262105   4.639   2.468   5.887
    1STR   H14362106   4.637   2.522   5.795
    1STR   H14462107   4.675   2.540   5.958
    1STR   H14562108   4.539   2.435   5.913
    1STR   C14662109   4.646   2.223   5.849
    1STR   H14762110   4.566   2.221   5.922
    1STR   H14862111   4.592   2.226   5.759
    1STR   O14962112   4.710   2.096   5.854
    1STR   C15062113   4.644   1.980   5.804
    1STR   H15162114   4.614   1.999   5.701
    1STR   C15262115   4.759   1.879   5.813
    1STR   H15362116   4.792   1.869   5.916
    1STR   H15462117   4.845   1.911   5.756
    1STR   H15562118   4.730   1.779   5.778
    1STR   C15662119   4.523   1.914   5.878
    1STR   H15762120   4.504   1.823   5.821
    1STR   H15862121   4.552   1.876   5.976
    1STR   O15962122   4.403   1.991   5.892
    1STR   C16062123   4.285   1.913   5.869
    1STR   H16162124   4.302   1.865   5.773
    1STR   C16262125   4.261   1.795   5.966
    1STR   H16362126   4.246   1.827   6.068
    1STR   H16462127   4.344   1.725   5.965
    1STR   H16562128   4.172   1.740   5.935
    1STR   C16662129   4.160   2.001   5.844
    1STR   H16762130   4.185   2.088   5.785
    1STR   H16862131   4.096   1.939   5.782
    1STR   O16962132   4.070   2.037   5.947
    1STR   C17062133   4.100   2.142   6.038
    1STR   H17162134   4.002   2.179   6.064
    1STR   C17262135   4.154   2.074   6.162
    1STR   H17362136   4.085   1.998   6.197
    1STR   H17462137   4.171   2.144   6.244
    1STR   H17562138   4.247   2.024   6.140
    1STR   C17662139   4.176   2.269   5.990
    1STR   H17762140   4.234   2.309   6.073
    1STR   H17862141   4.253   2.244   5.918
    1STR   O17962142   4.078   2.364   5.947
    1STR   C18062143   4.114   2.494   5.896
    1STR   H18162144   4.170   2.485   5.803
    1STR   C18262145   3.980   2.559   5.861
    1STR   H18362146   3.914   2.562   5.948
    1STR   H18462147   3.930   2.504   5.782
    1STR   H18562148   3.994   2.661   5.827
    1STR   C18662149   4.192   2.579   5.998
    1STR   H18762150   4.123   2.593   6.078
    1STR   H18862151   4.278   2.523   6.034
    1STR   O18962152   4.233   2.710   5.957
    1STR   C19062153   4.330   2.771   6.044
    1STR   H19162154   4.311   2.742   6.146
    1STR   C19262155   4.469   2.722   6.004
    1STR   H19362156   4.513   2.776   5.921
    1STR   H19462157   4.463   2.619   5.976
    1STR   H19562158   4.541   2.734   6.084
    1STR   C19662159   4.327   2.924   6.038
    1STR   H19762160   4.301   2.957   5.938
    1STR   H19862161   4.248   2.961   6.103
    1STR   O19962162   4.455   2.973   6.084
    1STR   C20062163   4.524   3.054   5.989
    1STR   H20162164   4.489   3.034   5.888
    1STR   C20262165   4.491   3.199   6.029
    1STR   H20362166   4.527   3.220   6.130
    1STR   H20462167   4.383   3.215   6.030
    1STR   H20562168   4.536   3.271   5.961
    1STR   C20662169   4.678   3.031   5.985
    1STR   H20762170   4.715   3.067   5.889
    1STR   H20862171   4.725   3.092   6.062
    1STR   O20962172   4.719   2.895   6.006
    1STR   C21062173   4.847   2.851   5.955
    1STR   H21162174   4.828   2.816   5.854
    1STR   C21262175   4.952   2.964   5.951
    1STR   H21362176   4.934   3.039   6.026
    1STR   H21462177   4.952   3.015   5.855
    1STR   H21562178   5.053   2.925   5.969
    1STR   C21662179   4.891   2.732   6.044
    1STR   H21762180   4.906   2.779   6.139
    1STR   H21862181   4.802   2.671   6.047
    1STR   O21962182   5.001   2.643   6.011
    1STR   C22062183   5.019   2.504   6.064
    1STR   H22162184   5.099   2.506   6.135
    1STR   C22262185   4.902   2.440   6.139
    1STR   H22362186   4.805   2.480   6.113
    1STR   H22462187   4.913   2.448   6.245
    1STR   H22562188   4.894   2.333   6.127
    1STR   C22662189   5.090   2.394   5.984
    1STR   H22762190   5.101   2.304   6.042
    1STR   H22862191   5.025   2.363   5.906
    1STR   O22962192   5.220   2.421   5.934
    1STR   C23062193   5.325   2.428   6.029
    1STR   H23162194   5.289   2.412   6.130
    1STR   C23262195   5.428   2.318   6.000
    1STR   H23362196   5.488   2.337   5.911
    1STR   H23462197   5.379   2.221   5.989
    1STR   H23562198   5.498   2.311   6.083
    1STR   C23662199   5.380   2.570   6.019
    1STR   H23762200   5.471   2.579   6.077
    1STR   H23862201   5.408   2.591   5.916
    1STR   O23962202   5.279   2.662   6.059
    1STR   C24062203   5.277   2.686   6.198
    1STR   H24162204   5.303   2.596   6.255
    1STR   C24262205   5.383   2.793   6.218
    1STR   H24362206   5.360   2.882   6.159
    1STR   H24462207   5.483   2.759   6.192
    1STR   H24562208   5.383   2.820   6.322
    1STR   C24662209   5.144   2.740   6.255
    1STR   H24762210   5.174   2.771   6.354
    1STR   H24862211   5.114   2.826   6.197
    1STR   O24962212   5.033   2.649   6.274
    1STR   C25062213   4.918   2.670   6.357
    1STR   H25162214   4.944   2.592   6.424
    1STR   C25262215   4.938   2.797   6.422
    1STR   H25362216   4.959   2.869   6.346
    1STR   H25462217   5.019   2.782   6.490
    1STR   H25562218   4.856   2.833   6.480
    1STR   C25662219   4.765   2.654   6.317
    1STR   H25762220   4.711   2.717   6.384
    1STR   H25862221   4.731   2.699   6.226
    1STR   O25962222   4.710   2.523   6.335
    1STR   C26062223   4.570   2.499   6.315
    1STR   H26162224   4.545   2.424   6.387
    1STR   C26262225   4.475   2.620   6.338
    1STR   H26362226   4.508   2.712   6.292
    1STR   H26462227   4.456   2.643   6.442
    1STR   H26562228   4.378   2.598   6.298
    1STR   C26662229   4.541   2.431   6.183
    1STR   H26762230   4.435   2.409   6.172
    1STR   H26862231   4.560   2.511   6.117
    1STR   O26962232   4.623   2.321   6.139
    1STR   C27062233   4.604   2.193   6.198
    1STR   H27162234   4.643   2.202   6.296
    1STR   C27262235   4.455   2.158   6.196
    1STR   H27362236   4.416   2.163   6.095
    1STR   H27462237   4.394   2.219   6.262
    1STR   H27562238   4.441   2.055   6.230
    1STR   C27662239   4.677   2.073   6.133
    1STR   H27762240   4.655   1.977   6.177
    1STR   H27862241   4.621   2.061   6.046
    1STR   O27962242   4.816   2.078   6.104
    1STR   C28062243   4.899   2.009   6.196
    1STR   H28162244   4.859   2.035   6.292
    1STR   C28262245   4.902   1.857   6.177
    1STR   H28362246   4.941   1.831   6.079
    1STR   H28462247   4.804   1.813   6.189
    1STR   H28562248   4.968   1.812   6.251
    1STR   C28662249   5.038   2.071   6.177
    1STR   H28762250   5.083   2.036   6.084
    1STR   H28862251   5.012   2.174   6.163
    1STR   O28962252   5.134   2.064   6.283
    1STR   C29062253   5.217   2.180   6.279
    1STR   H29162254   5.235   2.205   6.175
    1STR   C29262255   5.150   2.298   6.350
    1STR   H29362256   5.048   2.311   6.320
    1STR   H29462257   5.198   2.392   6.328
    1STR   H29562258   5.152   2.288   6.458
    1STR   C29662259   5.355   2.162   6.338
    1STR   H29762260   5.350   2.139   6.444
    1STR   H29862261   5.407   2.082   6.287
    1STR   O29962262   5.415   2.289   6.315
    1STR   C30062263   5.535   2.316   6.382
    1STR   H30162264   5.523   2.305   6.490
    1STR   C30262265   5.635   2.215   6.331
    1STR   H30362266   5.635   2.208   6.223
    1STR   H30462267   5.622   2.116   6.374
    1STR   H30562268   5.730   2.253   6.361
    1STR   C30662269   5.580   2.460   6.350
    1STR   H30762270   5.686   2.471   6.374
    1STR   H30862271   5.574   2.478   6.243
    1STR   O30962272   5.501   2.558   6.417
    1STR    H1R62273   5.643   2.582   6.554
    1STR    H1S62274   5.718   2.811   6.477
    1STR    H1T62275   5.579   2.830   6.382
    1STR    H1U62276   5.698   2.712   6.332
    1STR    H1V62277   5.530   2.801   6.648
    1STR    H1W62278   5.472   2.645   6.692
    1STR    H1X62279   5.238   2.732   6.760
    1STR    H1Y62280   5.033   2.838   6.759
    1STR    H1Z62281   4.804   2.837   6.697
    1STR    H2062282   4.573   2.627   6.692
    1STR    H2162283   4.621   2.724   6.562
    1STR    H2262284   4.618   2.546   6.552
    1STR    H2362285   4.772   2.455   6.462
    1STR    H2762286   5.070   2.433   6.631
    1STR    H2862287   4.616   2.721   5.149
    1STR    H2962288   4.849   2.764   5.096
    1STR    H2A62289   5.069   2.691   5.084
    1STR    H2B62290   5.054   2.592   4.935
    1STR    H2C62291   5.110   2.521   5.084
    1STR   BCK162292   4.801   2.719   7.370
    1STR    O0362293   4.753   2.720   7.258
    1STR    N0462294   4.748   2.664   7.477
    1STR    C0562295   4.680   2.549   7.457
    1STR    C0662296   4.751   2.431   7.482
    1STR    C0762297   4.695   2.309   7.445
    1STR    N0862298   4.761   2.193   7.482
    1STR    C0962299   4.700   2.079   7.511
    1STR    O0A62300   4.580   2.070   7.506
    1STR    O0B62301   4.775   1.974   7.542
    1STR    C0C62302   4.906   1.977   7.589
    1STR    C0D62303   4.955   1.835   7.613
    1STR    C0E62304   5.007   2.052   7.498
    1STR    O0F62305   5.029   2.186   7.535
    1STR    C0G62306   5.042   2.208   7.674
    1STR    C0H62307   5.117   2.094   7.751
    1STR    C0I62308   5.112   2.342   7.693
    1STR    O0J62309   5.033   2.460   7.680
    1STR    C0K62310   4.153   2.618   8.862
    1STR    C0M62311   4.125   2.468   8.845
    1STR    C0N62312   4.268   2.660   8.958
    1STR    O0O62313   4.397   2.641   8.907
    1STR    C0P62314   4.495   2.597   8.983
    1STR    O0Q62315   4.494   2.605   9.106
    1STR    N0R62316   4.587   2.536   8.907
    1STR    C0S62317   4.630   2.403   8.905
    1STR    C0T62318   4.537   2.303   8.901
    1STR    C0U62319   4.573   2.170   8.918
    1STR    C0V62320   4.703   2.129   8.903
    1STR    C0W62321   4.730   1.980   8.896
    1STR    C0X62322   4.801   2.228   8.888
    1STR    N0Y62323   4.923   2.166   8.875
    1STR   BCK262324   5.044   2.167   8.827
    1STR    O1062325   5.104   2.252   8.764
    1STR    C1362326   4.764   2.363   8.895
    1STR    C1462327   4.572   2.310   7.377
    1STR    C1562328   4.508   2.427   7.344
    1STR    C1662329   4.556   2.547   7.390
    1STR    C1762330   4.476   2.668   7.359
    1STR    H1B62331   4.805   2.675   7.562
    1STR    H1C62332   4.848   2.433   7.530
    1STR    H1D62333   4.862   2.198   7.494
    1STR    H1E62334   4.887   2.019   7.687
    1STR    H1F62335   5.029   1.804   7.540
    1STR    H1G62336   4.999   1.823   7.711
    1STR    H1H62337   4.868   1.772   7.604
    1STR    H1I62338   4.972   2.051   7.396
    1STR    H1J62339   5.103   2.004   7.493
    1STR    H1K62340   4.941   2.216   7.711
    1STR    H1M62341   5.152   2.009   7.694
    1STR    H1N62342   5.053   2.047   7.820
    1STR    H1O62343   5.201   2.128   7.810
    1STR    H1P62344   5.152   2.335   7.792
    1STR    H1Q62345   5.193   2.347   7.622
    1STR   C01062346   5.067   2.568   7.768
    1STR   H01162347   5.003   2.567   7.855
    1STR   C01262348   5.210   2.568   7.820
    1STR   H01362349   5.272   2.550   7.735
    1STR   H01462350   5.234   2.491   7.890
    1STR   H01562351   5.235   2.662   7.868
    1STR   C01662352   5.047   2.700   7.696
    1STR   H01762353   5.106   2.779   7.741
    1STR   H01862354   5.088   2.687   7.597
    1STR   O01962355   4.911   2.736   7.687
    1STR   C02062356   4.879   2.869   7.728
    1STR   H02162357   4.888   2.880   7.835
    1STR   C02262358   4.965   2.978   7.661
    1STR   H02362359   4.981   2.958   7.556
    1STR   H02462360   5.062   2.988   7.710
    1STR   H02562361   4.917   3.075   7.671
    1STR   C02662362   4.731   2.884   7.697
    1STR   H02762363   4.713   2.866   7.593
    1STR   H02862364   4.675   2.810   7.751
    1STR   O02962365   4.684   3.013   7.725
    1STR   C03062366   4.543   3.020   7.728
    1STR   H03162367   4.512   2.968   7.818
    1STR   C03262368   4.514   3.169   7.739
    1STR   H03362369   4.538   3.221   7.646
    1STR   H03462370   4.576   3.214   7.816
    1STR   H03562371   4.409   3.187   7.762
    1STR   C03662372   4.470   2.958   7.605
    1STR   H03762373   4.370   3.000   7.595
    1STR   H03862374   4.518   2.990   7.514
    1STR   O03962375   4.465   2.815   7.597
    1STR   C04062376   4.397   2.743   7.698
    1STR   H04162377   4.468   2.745   7.781
    1STR   C04262378   4.272   2.819   7.740
    1STR   H04362379   4.221   2.860   7.655
    1STR   H04462380   4.296   2.904   7.803
    1STR   H04562381   4.204   2.755   7.792
    1STR   C04662382   4.363   2.592   7.668
    1STR   H04762383   4.272   2.562   7.720
    1STR   H04862384   4.340   2.567   7.565
    1STR   O04962385   4.463   2.507   7.720
    1STR   C05062386   4.467   2.370   7.680
    1STR   H05162387   4.468   2.372   7.575
    1STR   C05262388   4.593   2.309   7.737
    1STR   H05362389   4.576   2.276   7.838
    1STR   H05462390   4.681   2.372   7.728
    1STR   H05562391   4.621   2.216   7.692
    1STR   C05662392   4.353   2.276   7.713
    1STR   H05762393   4.325   2.288   7.817
    1STR   H05862394   4.268   2.301   7.650
    1STR   O05962395   4.398   2.145   7.676
    1STR   C06062396   4.415   2.048   7.779
    1STR   H06162397   4.423   2.104   7.869
    1STR   C06262398   4.281   1.975   7.771
    1STR   H06362399   4.260   1.970   7.670
    1STR   H06462400   4.191   2.022   7.803
    1STR   H06562401   4.282   1.873   7.805
    1STR   C06662402   4.537   1.946   7.775
    1STR   H06762403   4.510   1.851   7.818
    1STR   H06862404   4.563   1.920   7.675
    1STR   O06962405   4.666   1.981   7.823
    1STR   C07062406   4.732   1.897   7.921
    1STR   H07162407   4.669   1.889   8.006
    1STR   C07262408   4.754   1.749   7.891
    1STR   H07362409   4.811   1.732   7.801
    1STR   H07462410   4.660   1.694   7.882
    1STR   H07562411   4.808   1.701   7.972
    1STR   C07662412   4.863   1.967   7.962
    1STR   H07762413   4.886   1.956   8.067
    1STR   H07862414   4.943   1.912   7.914
    1STR   O07962415   4.860   2.103   7.920
    1STR   C08062416   4.924   2.203   7.999
    1STR   H08162417   4.887   2.195   8.099
    1STR   C08262418   5.072   2.177   8.035
    1STR   H08362419   5.141   2.235   7.976
    1STR   H08462420   5.100   2.072   8.030
    1STR   H08562421   5.092   2.205   8.138
    1STR   C08662422   4.879   2.344   7.946
    1STR   H08762423   4.928   2.428   7.992
    1STR   H08862424   4.894   2.359   7.841
    1STR   O08962425   4.739   2.358   7.961
    1STR   C09062426   4.679   2.484   7.988
    1STR   H09162427   4.721   2.517   8.079
    1STR   C09262428   4.708   2.596   7.889
    1STR   H09362429   4.682   2.574   7.786
    1STR   H09462430   4.811   2.626   7.892
    1STR   H09562431   4.651   2.684   7.920
    1STR   C09662432   4.529   2.466   8.015
    1STR   H09762433   4.475   2.435   7.928
    1STR   H09862434   4.508   2.382   8.081
    1STR   O09962435   4.474   2.585   8.069
    1STR   C10062436   4.349   2.626   8.013
    1STR   H10162437   4.372   2.629   7.910
    1STR   C10262438   4.244   2.516   8.023
    1STR   H10362439   4.271   2.439   8.094
    1STR   H10462440   4.235   2.464   7.928
    1STR   H10562441   4.148   2.557   8.051
    1STR   C10662442   4.303   2.770   8.049
    1STR   H10762443   4.224   2.807   7.986
    1STR   H10862444   4.252   2.770   8.144
    1STR   O10962445   4.417   2.858   8.049
    1STR   C11062446   4.399   3.000   8.055
    1STR   H11162447   4.359   3.033   7.960
    1STR   C11262448   4.298   3.042   8.163
    1STR   H11362449   4.331   3.011   8.262
    1STR   H11462450   4.199   3.000   8.145
    1STR   H11562451   4.287   3.150   8.165
    1STR   C11662452   4.535   3.074   8.075
    1STR   H11762453   4.533   3.167   8.019
    1STR   H11862454   4.545   3.109   8.179
    1STR   O11962455   4.652   3.001   8.037
    1STR   C12062456   4.732   2.956   8.146
    1STR   H12162457   4.764   3.040   8.207
    1STR   C12262458   4.645   2.862   8.229
    1STR   H12362459   4.553   2.908   8.264
    1STR   H12462460   4.693   2.828   8.319
    1STR   H12562461   4.619   2.774   8.169
    1STR   C12662462   4.857   2.875   8.105
    1STR   H12762463   4.884   2.819   8.192
    1STR   H12862464   4.831   2.803   8.028
    1STR   O12962465   4.977   2.946   8.077
    1STR   C13062466   5.084   2.860   8.037
    1STR   H13162467   5.053   2.808   7.947
    1STR   C13262468   5.201   2.951   7.996
    1STR   H13362469   5.234   3.012   8.080
    1STR   H13462470   5.170   3.019   7.917
    1STR   H13562471   5.285   2.893   7.959
    1STR   C13662472   5.127   2.749   8.138
    1STR   H13762473   5.235   2.753   8.150
    1STR   H13862474   5.086   2.763   8.238
    1STR   O13962475   5.089   2.623   8.083
    1STR   C14062476   5.142   2.501   8.136
    1STR   H14162477   5.131   2.429   8.056
    1STR   C14262478   5.293   2.506   8.167
    1STR   H14362479   5.314   2.565   8.256
    1STR   H14462480   5.349   2.549   8.084
    1STR   H14562481   5.332   2.406   8.184
    1STR   C14662482   5.059   2.443   8.249
    1STR   H14762483   5.110   2.357   8.294
    1STR   H14862484   5.062   2.520   8.324
    1STR   O14962485   4.926   2.399   8.210
    1STR   C15062486   4.820   2.434   8.297
    1STR   H15162487   4.863   2.403   8.386
    1STR   C15262488   4.814   2.586   8.299
    1STR   H15362489   4.892   2.628   8.361
    1STR   H15462490   4.719   2.621   8.337
    1STR   H15562491   4.831   2.625   8.200
    1STR   C15662492   4.671   2.380   8.299
    1STR   H15762493   4.644   2.406   8.400
    1STR   H15862494   4.605   2.447   8.247
    1STR   O15962495   4.621   2.245   8.297
    1STR   C16062496   4.647   2.158   8.188
    1STR   H16162497   4.700   2.222   8.123
    1STR   C16262498   4.734   2.047   8.249
    1STR   H16362499   4.697   2.025   8.347
    1STR   H16462500   4.838   2.073   8.259
    1STR   H16562501   4.728   1.951   8.200
    1STR   C16662502   4.541   2.094   8.093
    1STR   H16762503   4.584   2.111   7.995
    1STR   H16862504   4.539   1.988   8.109
    1STR   O16962505   4.404   2.131   8.085
    1STR   C17062506   4.293   2.036   8.095
    1STR   H17162507   4.247   2.024   8.191
    1STR   C17262508   4.182   2.111   8.027
    1STR   H17362509   4.221   2.160   7.940
    1STR   H17462510   4.150   2.197   8.083
    1STR   H17562511   4.094   2.050   8.005
    1STR   C17662512   4.312   1.890   8.047
    1STR   H17762513   4.217   1.852   8.009
    1STR   H17862514   4.389   1.892   7.974
    1STR   O17962515   4.368   1.791   8.132
    1STR   C18062516   4.354   1.659   8.080
    1STR   H18162517   4.347   1.663   7.971
    1STR   C18262518   4.483   1.585   8.114
    1STR   H18362519   4.494   1.572   8.222
    1STR   H18462520   4.570   1.640   8.080
    1STR   H18562521   4.485   1.486   8.068
    1STR   C18662522   4.229   1.587   8.135
    1STR   H18762523   4.187   1.524   8.057
    1STR   H18862524   4.257   1.518   8.214
    1STR   O18962525   4.126   1.676   8.178
    1STR   C19062526   4.099   1.683   8.319
    1STR   H19162527   4.028   1.766   8.330
    1STR   C19262528   4.031   1.556   8.371
    1STR   H19362529   4.096   1.469   8.364
    1STR   H19462530   3.940   1.535   8.314
    1STR   H19562531   4.002   1.568   8.475
    1STR   C19662532   4.222   1.720   8.402
    1STR   H19762533   4.197   1.725   8.508
    1STR   H19862534   4.299   1.645   8.390
    1STR   O19962535   4.266   1.845   8.356
    1STR   C20062536   4.384   1.892   8.416
    1STR   H20162537   4.358   1.888   8.517
    1STR   C20262538   4.511   1.806   8.394
    1STR   H20362539   4.542   1.804   8.290
    1STR   H20462540   4.501   1.704   8.429
    1STR   H20562541   4.596   1.847   8.449
    1STR   C20662542   4.407   2.037   8.373
    1STR   H20762543   4.501   2.077   8.397
    1STR   H20862544   4.431   2.014   8.275
    1STR   O20962545   4.299   2.129   8.387
    1STR   C21062546   4.286   2.256   8.322
    1STR   H21162547   4.335   2.267   8.228
    1STR   C21262548   4.136   2.275   8.307
    1STR   H21362549   4.095   2.311   8.401
    1STR   H21462550   4.086   2.182   8.281
    1STR   H21562551   4.114   2.352   8.234
    1STR   C21662552   4.333   2.376   8.397
    1STR   H21762553   4.273   2.379   8.487
    1STR   H21862554   4.437   2.368   8.420
    1STR   O21962555   4.313   2.489   8.313
    1STR   C22062556   4.284   2.611   8.376
    1STR   H22162557   4.301   2.599   8.479
    1STR   C22262558   4.385   2.720   8.340
    1STR   H22362559   4.424   2.709   8.243
    1STR   H22462560   4.478   2.716   8.394
    1STR   H22562561   4.346   2.820   8.356
    1STR   C22662562   4.136   2.650   8.378
    1STR   H22762563   4.093   2.600   8.465
    1STR   H22862564   4.126   2.757   8.396
    1STR   O22962565   4.064   2.612   8.262
    1STR   C23062566   3.924   2.619   8.282
    1STR   H23162567   3.899   2.690   8.360
    1STR   C23262568   3.862   2.672   8.152
    1STR   H23362569   3.863   2.596   8.074
    1STR   H23462570   3.917   2.759   8.116
    1STR   H23562571   3.758   2.701   8.168
    1STR   C23662572   3.868   2.480   8.320
    1STR   H23762573   3.760   2.487   8.306
    1STR   H23862574   3.902   2.402   8.253
    1STR   O23962575   3.903   2.450   8.455
    1STR   C24062576   3.829   2.350   8.526
    1STR   H24162577   3.843   2.380   8.629
    1STR   C24262578   3.677   2.364   8.502
    1STR   H24362579   3.645   2.314   8.411
    1STR   H24462580   3.650   2.469   8.497
    1STR   H24562581   3.617   2.327   8.585
    1STR   C24662582   3.889   2.206   8.527
    1STR   H24762583   3.809   2.133   8.526
    1STR   H24862584   3.941   2.181   8.436
    1STR   O24962585   3.970   2.191   8.644
    1STR   C25062586   4.032   2.065   8.676
    1STR   H25162587   4.050   2.069   8.782
    1STR   C25262588   3.942   1.942   8.649
    1STR   H25362589   3.923   1.929   8.542
    1STR   H25462590   3.846   1.947   8.700
    1STR   H25562591   3.990   1.851   8.684
    1STR   C25662592   4.167   2.042   8.608
    1STR   H25762593   4.193   1.939   8.625
    1STR   H25862594   4.141   2.045   8.503
    1STR   O25962595   4.276   2.132   8.642
    1STR   C26062596   4.412   2.086   8.672
    1STR   H26162597   4.402   2.145   8.760
    1STR   C26262598   4.433   1.943   8.726
    1STR   H26362599   4.499   1.887   8.661
    1STR   H26462600   4.344   1.884   8.746
    1STR   H26562601   4.488   1.945   8.816
    1STR   C26662602   4.546   2.149   8.614
    1STR   H26762603   4.527   2.219   8.534
    1STR   H26862604   4.598   2.216   8.680
    1STR   O26962605   4.642   2.051   8.569
    1STR   C27062606   4.783   2.072   8.585
    1STR   H27162607   4.800   2.080   8.688
    1STR   C27262608   4.858   1.942   8.550
    1STR   H27362609   4.860   1.920   8.443
    1STR   H27462610   4.813   1.857   8.600
    1STR   H27562611   4.962   1.948   8.583
    1STR   C27662612   4.853   2.198   8.532
    1STR   H27762613   4.956   2.196   8.568
    1STR   H27862614   4.860   2.196   8.425
    1STR   O27962615   4.790   2.320   8.572
    1STR   C28062616   4.868   2.431   8.621
    1STR   H28162617   4.901   2.390   8.712
    1STR   C28262618   5.009   2.464   8.568
    1STR   H28362619   5.050   2.387   8.505
    1STR   H28462620   5.080   2.472   8.649
    1STR   H28562621   5.013   2.562   8.522
    1STR   C28662622   4.775   2.555   8.635
    1STR   H28762623   4.808   2.616   8.719
    1STR   H28862624   4.777   2.619   8.548
    1STR   O28962625   4.642   2.509   8.657
    1STR   C29062626   4.525   2.572   8.609
    1STR   H29162627   4.529   2.559   8.502
    1STR   C29262628   4.416   2.478   8.663
    1STR   H29362629   4.432   2.375   8.637
    1STR   H29462630   4.314   2.504   8.643
    1STR   H29562631   4.409   2.477   8.767
    1STR   C29662632   4.501   2.723   8.646
    1STR   H29762633   4.522   2.748   8.749
    1STR   H29862634   4.572   2.778   8.588
    1STR   O29962635   4.370   2.768   8.605
    1STR   C30062636   4.295   2.867   8.675
    1STR   H30162637   4.353   2.901   8.761
    1STR   C30262638   4.254   2.983   8.582
    1STR   H30362639   4.183   2.950   8.506
    1STR   H30462640   4.334   3.029   8.526
    1STR   H30562641   4.206   3.062   8.640
    1STR   C30662642   4.163   2.805   8.721
    1STR   H30762643   4.125   2.855   8.810
    1STR   H30862644   4.084   2.816   8.646
    1STR   O30962645   4.176   2.666   8.733
    1STR    H1R62646   4.058   2.661   8.895
    1STR    H1S62647   4.074   2.427   8.933
    1STR    H1T62648   4.215   2.411   8.827
    1STR    H1U62649   4.063   2.444   8.759
    1STR    H1V62650   4.258   2.610   9.054
    1STR    H1W62651   4.268   2.766   8.977
    1STR    H1X62652   4.585   2.566   8.810
    1STR    H1Y62653   4.434   2.329   8.891
    1STR    H1Z62654   4.497   2.099   8.940
    1STR    H2062655   4.691   1.938   8.805
    1STR    H2162656   4.832   1.943   8.899
    1STR    H2262657   4.680   1.938   8.980
    1STR    H2362658   4.908   2.074   8.913
    1STR    H2762659   4.832   2.443   8.886
    1STR    H2862660   4.511   2.224   7.357
    1STR    H2962661   4.418   2.420   7.290
    1STR    H2A62662   4.534   2.757   7.379
    1STR    H2B62663   4.383   2.679   7.412
    1STR    H2C62664   4.446   2.662   7.257
    1STR   BCK162665   4.908   4.468   0.432
    1STR    O0362666   4.914   4.351   0.400
    1STR    N0462667   4.996   4.561   0.399
    1STR    C0562668   5.125   4.574   0.441
    1STR    C0662669   5.160   4.705   0.482
    1STR    C0762670   5.272   4.725   0.564
    1STR    N0862671   5.299   4.842   0.633
    1STR    C0962672   5.280   4.970   0.602
    1STR    O0A62673   5.239   5.012   0.494
    1STR    O0B62674   5.315   5.044   0.707
    1STR    C0C62675   5.307   5.186   0.713
    1STR    C0D62676   5.406   5.249   0.614
    1STR    C0E62677   5.164   5.241   0.696
    1STR    O0F62678   5.082   5.208   0.808
    1STR    C0G62679   4.960   5.143   0.772
    1STR    C0H62680   4.989   5.000   0.729
    1STR    C0I62681   4.856   5.154   0.884
    1STR    O0J62682   4.742   5.084   0.837
    1STR    C0K62683   4.978   3.972   1.843
    1STR    C0M62684   4.838   4.014   1.882
    1STR    C0N62685   5.058   3.954   1.974
    1STR    O0O62686   5.196   3.933   1.946
    1STR    C0P62687   5.259   4.038   1.900
    1STR    O0Q62688   5.208   4.149   1.903
    1STR    N0R62689   5.377   4.006   1.843
    1STR    C0S62690   5.454   4.091   1.763
    1STR    C0T62691   5.547   4.043   1.669
    1STR    C0U62692   5.612   4.133   1.581
    1STR    C0V62693   5.582   4.272   1.583
    1STR    C0W62694   5.646   4.362   1.479
    1STR    C0X62695   5.489   4.321   1.677
    1STR    N0Y62696   5.449   4.455   1.677
    1STR   BCK262697   5.348   4.523   1.734
    1STR    O1062698   5.336   4.641   1.711
    1STR    C1362699   5.436   4.230   1.768
    1STR    C1462700   5.347   4.612   0.600
    1STR    C1562701   5.314   4.484   0.557
    1STR    C1662702   5.208   4.464   0.471
    1STR    C1762703   5.187   4.324   0.420
    1STR    H1B62704   4.946   4.649   0.378
    1STR    H1C62705   5.097   4.790   0.459
    1STR    H1D62706   5.333   4.831   0.728
    1STR    H1E62707   5.340   5.212   0.813
    1STR    H1F62708   5.368   5.243   0.513
    1STR    H1G62709   5.423   5.355   0.636
    1STR    H1H62710   5.502   5.198   0.617
    1STR    H1I62711   5.122   5.208   0.601
    1STR    H1J62712   5.167   5.350   0.692
    1STR    H1K62713   4.914   5.193   0.688
    1STR    H1M62714   4.906   4.933   0.752
    1STR    H1N62715   5.076   4.964   0.782
    1STR    H1O62716   5.006   4.994   0.622
    1STR    H1P62717   4.890   5.111   0.977
    1STR    H1Q62718   4.836   5.259   0.903
    1STR   C01062719   4.618   5.109   0.899
    1STR   H01162720   4.627   5.087   1.002
    1STR   C01262721   4.571   5.255   0.879
    1STR   H01362722   4.576   5.286   0.776
    1STR   H01462723   4.632   5.328   0.931
    1STR   H01562724   4.469   5.270   0.913
    1STR   C01662725   4.515   5.010   0.844
    1STR   H01762726   4.416   5.052   0.864
    1STR   H01862727   4.525   5.001   0.736
    1STR   O01962728   4.510   4.879   0.903
    1STR   C02062729   4.598   4.783   0.849
    1STR   H02162730   4.632   4.819   0.755
    1STR   C02262731   4.712   4.779   0.943
    1STR   H02362732   4.665   4.748   1.036
    1STR   H02462733   4.762   4.875   0.958
    1STR   H02562734   4.782   4.704   0.914
    1STR   C02662735   4.541   4.638   0.841
    1STR   H02762736   4.544   4.595   0.940
    1STR   H02862737   4.438   4.639   0.810
    1STR   O02962738   4.612   4.550   0.754
    1STR   C03062739   4.572   4.413   0.759
    1STR   H03162740   4.506   4.404   0.840
    1STR   C03262741   4.493   4.360   0.641
    1STR   H03362742   4.549   4.369   0.549
    1STR   H03462743   4.398   4.412   0.632
    1STR   H03562744   4.469   4.254   0.655
    1STR   C03662745   4.683   4.317   0.797
    1STR   H03762746   4.728   4.356   0.886
    1STR   H03862747   4.642   4.219   0.818
    1STR   O03962748   4.780   4.299   0.699
    1STR   C04062749   4.899   4.243   0.749
    1STR   H04162750   4.892   4.219   0.855
    1STR   C04262751   4.921   4.115   0.669
    1STR   H04362752   4.928   4.138   0.563
    1STR   H04462753   4.837   4.047   0.683
    1STR   H04562754   5.013   4.065   0.700
    1STR   C04662755   5.011   4.345   0.730
    1STR   H04762756   5.105   4.298   0.756
    1STR   H04862757   5.017   4.369   0.626
    1STR   O04962758   4.991   4.470   0.798
    1STR   C05062759   5.106   4.554   0.794
    1STR   H05162760   5.125   4.550   0.691
    1STR   C05262761   5.072   4.702   0.809
    1STR   H05362762   4.974   4.719   0.849
    1STR   H05462763   5.069   4.752   0.714
    1STR   H05562764   5.146   4.758   0.865
    1STR   C05662765   5.235   4.506   0.870
    1STR   H05762766   5.221   4.478   0.974
    1STR   H05862767   5.274   4.418   0.821
    1STR   O05962768   5.335   4.607   0.870
    1STR   C06062769   5.459   4.579   0.933
    1STR   H06162770   5.440   4.559   1.039
    1STR   C06262771   5.534   4.460   0.871
    1STR   H06362772   5.559   4.477   0.766
    1STR   H06462773   5.479   4.367   0.875
    1STR   H06562774   5.628   4.443   0.923
    1STR   C06662775   5.543   4.707   0.918
    1STR   H06762776   5.631   4.706   0.982
    1STR   H06862777   5.582   4.712   0.816
    1STR   O06962778   5.466   4.826   0.933
    1STR   C07062779   5.459   4.880   1.064
    1STR   H07162780   5.553   4.863   1.118
    1STR   C07262781   5.442   5.031   1.046
    1STR   H07362782   5.349   5.052   0.993
    1STR   H07462783   5.524   5.073   0.988
    1STR   H07562784   5.437   5.082   1.142
    1STR   C07662785   5.343   4.821   1.146
    1STR   H07762786   5.358   4.715   1.165
    1STR   H07862787   5.338   4.873   1.242
    1STR   O07962788   5.222   4.838   1.076
    1STR   C08062789   5.100   4.815   1.147
    1STR   H08162790   5.104   4.828   1.254
    1STR   C08262791   5.022   4.934   1.093
    1STR   H08362792   5.006   4.923   0.986
    1STR   H08462793   5.075   5.027   1.109
    1STR   H08562794   4.925   4.943   1.139
    1STR   C08662795   5.037   4.680   1.104
    1STR   H08762796   4.946   4.700   1.050
    1STR   H08862797   5.108   4.633   1.040
    1STR   O08962798   5.007   4.581   1.199
    1STR   C09062799   4.943   4.459   1.157
    1STR   H09162800   4.920   4.407   1.247
    1STR   C09262801   4.810   4.486   1.087
    1STR   H09362802   4.828   4.513   0.983
    1STR   H09462803   4.747   4.562   1.131
    1STR   H09562804   4.749   4.397   1.090
    1STR   C09662805   5.017   4.348   1.081
    1STR   H09762806   4.945   4.269   1.061
    1STR   H09862807   5.041   4.385   0.986
    1STR   O09962808   5.135   4.289   1.133
    1STR   C10062809   5.202   4.202   1.041
    1STR   H10162810   5.196   4.242   0.940
    1STR   C10262811   5.351   4.209   1.078
    1STR   H10362812   5.369   4.180   1.181
    1STR   H10462813   5.386   4.311   1.070
    1STR   H10562814   5.412   4.146   1.012
    1STR   C10662815   5.146   4.058   1.034
    1STR   H10762816   5.211   3.995   0.972
    1STR   H10862817   5.144   4.016   1.134
    1STR   O10962818   5.015   4.057   0.979
    1STR   C11062819   4.946   3.932   0.965
    1STR   H11162820   4.971   3.896   0.865
    1STR   C11262821   4.986   3.821   1.064
    1STR   H11362822   4.970   3.853   1.168
    1STR   H11462823   5.090   3.792   1.053
    1STR   H11562824   4.925   3.732   1.048
    1STR   C11662825   4.792   3.956   0.967
    1STR   H11762826   4.765   4.048   0.917
    1STR   H11862827   4.747   3.877   0.906
    1STR   O11962828   4.729   3.941   1.095
    1STR   C12062829   4.708   4.054   1.180
    1STR   H12162830   4.649   4.015   1.262
    1STR   C12262831   4.840   4.101   1.243
    1STR   H12362832   4.924   4.093   1.177
    1STR   H12462833   4.870   4.041   1.329
    1STR   H12562834   4.837   4.205   1.271
    1STR   C12662835   4.622   4.169   1.122
    1STR   H12762836   4.621   4.253   1.191
    1STR   H12862837   4.666   4.204   1.030
    1STR   O12962838   4.486   4.131   1.104
    1STR   C13062839   4.408   4.208   1.011
    1STR   H13162840   4.450   4.196   0.912
    1STR   C13262841   4.270   4.141   1.008
    1STR   H13362842   4.220   4.151   1.104
    1STR   H13462843   4.278   4.035   0.985
    1STR   H13562844   4.206   4.189   0.933
    1STR   C13662845   4.392   4.358   1.045
    1STR   H13762846   4.343   4.366   1.140
    1STR   H13862847   4.488   4.408   1.057
    1STR   O13962848   4.317   4.424   0.941
    1STR   C14062849   4.242   4.539   0.978
    1STR   H14162850   4.176   4.504   1.051
    1STR   C14262851   4.314   4.661   1.035
    1STR   H14362852   4.404   4.635   1.090
    1STR   H14462853   4.249   4.712   1.105
    1STR   H14562854   4.336   4.739   0.963
    1STR   C14662855   4.151   4.582   0.866
    1STR   H14762856   4.092   4.669   0.895
    1STR   H14862857   4.215   4.611   0.785
    1STR   O14962858   4.073   4.474   0.820
    1STR   C15062859   3.942   4.470   0.871
    1STR   H15162860   3.895   4.569   0.872
    1STR   C15262861   3.865   4.382   0.774
    1STR   H15362862   3.920   4.291   0.752
    1STR   H15462863   3.852   4.435   0.680
    1STR   H15562864   3.767   4.355   0.812
    1STR   C15662865   3.945   4.410   1.011
    1STR   H15762866   3.852   4.356   1.027
    1STR   H15862867   4.026   4.337   1.017
    1STR   O15962868   3.961   4.515   1.106
    1STR   C16062869   3.984   4.475   1.241
    1STR   H16162870   3.970   4.567   1.298
    1STR   C16262871   3.869   4.377   1.275
    1STR   H16362872   3.892   4.276   1.242
    1STR   H16462873   3.776   4.409   1.228
    1STR   H16562874   3.845   4.372   1.379
    1STR   C16662875   4.129   4.426   1.272
    1STR   H16762876   4.138   4.373   1.365
    1STR   H16862877   4.152   4.346   1.203
    1STR   O16962878   4.227   4.533   1.264
    1STR   C17062879   4.335   4.548   1.358
    1STR   H17162880   4.286   4.551   1.454
    1STR   C17262881   4.439   4.436   1.360
    1STR   H17362882   4.391   4.340   1.374
    1STR   H17462883   4.511   4.452   1.440
    1STR   H17562884   4.500   4.436   1.271
    1STR   C17662885   4.407   4.686   1.344
    1STR   H17762886   4.342   4.758   1.295
    1STR   H17862887   4.420   4.724   1.445
    1STR   O17962888   4.535   4.683   1.278
    1STR   C18062889   4.615   4.799   1.305
    1STR   H18162890   4.611   4.819   1.410
    1STR   C18262891   4.762   4.770   1.276
    1STR   H18362892   4.793   4.788   1.175
    1STR   H18462893   4.785   4.668   1.297
    1STR   H18562894   4.829   4.834   1.332
    1STR   C18662895   4.568   4.925   1.232
    1STR   H18762896   4.514   4.899   1.142
    1STR   H18862897   4.498   4.974   1.298
    1STR   O18962898   4.679   5.008   1.198
    1STR   C19062899   4.690   5.130   1.268
    1STR   H19162900   4.647   5.117   1.365
    1STR   C19262901   4.839   5.156   1.282
    1STR   H19362902   4.887   5.173   1.186
    1STR   H19462903   4.888   5.070   1.328
    1STR   H19562904   4.856   5.243   1.343
    1STR   C19662905   4.620   5.250   1.204
    1STR   H19762906   4.614   5.333   1.274
    1STR   H19862907   4.686   5.286   1.125
    1STR   O19962908   4.493   5.218   1.149
    1STR   C20062909   4.385   5.215   1.238
    1STR   H20162910   4.426   5.178   1.330
    1STR   C20262911   4.333   5.358   1.256
    1STR   H20362912   4.303   5.400   1.160
    1STR   H20462913   4.408   5.423   1.299
    1STR   H20562914   4.246   5.360   1.322
    1STR   C20662915   4.278   5.114   1.192
    1STR   H20762916   4.181   5.163   1.181
    1STR   H20862917   4.303   5.073   1.093
    1STR   O20962918   4.273   5.005   1.284
    1STR   C21062919   4.144   4.964   1.329
    1STR   H21162920   4.094   5.055   1.363
    1STR   C21262921   4.060   4.902   1.216
    1STR   H21362922   4.071   4.955   1.122
    1STR   H21462923   3.955   4.901   1.242
    1STR   H21562924   4.088   4.798   1.200
    1STR   C21662925   4.162   4.872   1.452
    1STR   H21762926   4.264   4.873   1.488
    1STR   H21862927   4.109   4.924   1.531
    1STR   O21962928   4.116   4.736   1.437
    1STR   C22062929   4.021   4.698   1.536
    1STR   H22162930   4.063   4.736   1.628
    1STR   C22262931   3.890   4.765   1.491
    1STR   H22362932   3.845   4.713   1.407
    1STR   H22462933   3.904   4.867   1.460
    1STR   H22562934   3.818   4.769   1.571
    1STR   C22662935   3.994   4.548   1.572
    1STR   H22762936   3.957   4.543   1.674
    1STR   H22862937   3.912   4.513   1.511
    1STR   O22962938   4.103   4.459   1.560
    1STR   C23062939   4.088   4.327   1.614
    1STR   H23162940   4.074   4.345   1.720
    1STR   C23262941   3.968   4.249   1.563
    1STR   H23362942   3.980   4.221   1.459
    1STR   H23462943   3.873   4.301   1.578
    1STR   H23562944   3.961   4.156   1.617
    1STR   C23662945   4.215   4.241   1.593
    1STR   H23762946   4.300   4.305   1.609
    1STR   H23862947   4.216   4.164   1.670
    1STR   O23962948   4.231   4.177   1.467
    1STR   C24062949   4.317   4.062   1.469
    1STR   H24162950   4.296   4.001   1.556
    1STR   C24262951   4.277   3.976   1.349
    1STR   H24362952   4.311   4.022   1.256
    1STR   H24462953   4.170   3.963   1.343
    1STR   H24562954   4.324   3.878   1.355
    1STR   C24662955   4.469   4.089   1.463
    1STR   H24762956   4.513   3.992   1.440
    1STR   H24862957   4.493   4.154   1.380
    1STR   O24962958   4.525   4.137   1.585
    1STR   C25062959   4.669   4.146   1.594
    1STR   H25162960   4.692   4.174   1.697
    1STR   C25262961   4.733   4.009   1.567
    1STR   H25362962   4.724   3.975   1.465
    1STR   H25462963   4.688   3.931   1.627
    1STR   H25562964   4.840   4.010   1.591
    1STR   C25662965   4.734   4.256   1.506
    1STR   H25762966   4.832   4.217   1.484
    1STR   H25862967   4.680   4.267   1.412
    1STR   O25962968   4.754   4.385   1.563
    1STR   C26062969   4.841   4.469   1.485
    1STR   H26162970   4.796   4.470   1.386
    1STR   C26262971   4.843   4.615   1.526
    1STR   H26362972   4.893   4.629   1.620
    1STR   H26462973   4.743   4.659   1.525
    1STR   H26562974   4.904   4.677   1.463
    1STR   C26662975   4.987   4.420   1.487
    1STR   H26762976   5.013   4.394   1.590
    1STR   H26862977   5.000   4.332   1.425
    1STR   O26962978   5.073   4.526   1.447
    1STR   C27062979   5.200   4.504   1.388
    1STR   H27162980   5.197   4.489   1.281
    1STR   C27262981   5.269   4.636   1.419
    1STR   H27362982   5.231   4.679   1.511
    1STR   H27462983   5.239   4.708   1.346
    1STR   H27562984   5.378   4.630   1.422
    1STR   C27662985   5.270   4.384   1.444
    1STR   H27762986   5.377   4.389   1.424
    1STR   H27862987   5.253   4.388   1.550
    1STR   O27962988   5.217   4.265   1.390
    1STR   C28062989   5.241   4.156   1.474
    1STR   H28162990   5.344   4.160   1.509
    1STR   C28262991   5.146   4.157   1.593
    1STR   H28362992   5.042   4.143   1.565
    1STR   H28462993   5.152   4.243   1.658
    1STR   H28562994   5.176   4.075   1.656
    1STR   C28662995   5.224   4.029   1.395
    1STR   H28762996   5.119   4.011   1.371
    1STR   H28862997   5.278   4.039   1.302
    1STR   O28962998   5.280   3.928   1.475
    1STR   C29062999   5.313   3.810   1.407
    1STR   H29163000   5.240   3.786   1.329
    1STR   C29263001   5.453   3.829   1.346
    1STR   H29363002   5.525   3.858   1.423
    1STR   H29463003   5.453   3.907   1.270
    1STR   H29563004   5.488   3.738   1.299
    1STR   C29663005   5.309   3.703   1.517
    1STR   H29763006   5.374   3.620   1.489
    1STR   H29863007   5.349   3.742   1.610
    1STR   O29963008   5.179   3.648   1.535
    1STR   C30063009   5.071   3.734   1.572
    1STR   H30163010   5.054   3.810   1.495
    1STR   C30263011   4.948   3.642   1.574
    1STR   H30363012   4.935   3.592   1.478
    1STR   H30463013   4.858   3.699   1.595
    1STR   H30563014   4.958   3.566   1.651
    1STR   C30663015   5.094   3.803   1.707
    1STR   H30763016   5.134   3.731   1.778
    1STR   H30863017   5.172   3.878   1.695
    1STR   O30963018   4.973   3.859   1.756
    1STR    H1R63019   5.014   4.058   1.787
    1STR    H1S63020   4.831   4.121   1.899
    1STR    H1T63021   4.811   3.963   1.972
    1STR    H1U63022   4.761   3.986   1.811
    1STR    H1V63023   5.015   3.877   2.037
    1STR    H1W63024   5.046   4.042   2.036
    1STR    H1X63025   5.400   3.909   1.852
    1STR    H1Y63026   5.566   3.937   1.661
    1STR    H1Z63027   5.682   4.095   1.509
    1STR    H2063028   5.754   4.348   1.477
    1STR    H2163029   5.605   4.340   1.380
    1STR    H2263030   5.628   4.468   1.498
    1STR    H2363031   5.504   4.518   1.621
    1STR    H2763032   5.378   4.270   1.846
    1STR    H2863033   5.429   4.623   0.667
    1STR    H2963034   5.372   4.401   0.593
    1STR    H2A63035   5.116   4.265   0.477
    1STR    H2B63036   5.279   4.269   0.429
    1STR    H2C63037   5.157   4.327   0.316
    1STR   BCK163038   4.513   4.994   2.755
    1STR    O0363039   4.495   4.902   2.832
    1STR    N0463040   4.442   5.106   2.760
    1STR    C0563041   4.327   5.128   2.836
    1STR    C0663042   4.209   5.049   2.824
    1STR    C0763043   4.092   5.079   2.897
    1STR    N0863044   3.988   4.987   2.904
    1STR    C0963045   3.902   4.971   3.004
    1STR    O0A63046   3.866   5.055   3.086
    1STR    O0B63047   3.865   4.845   3.011
    1STR    C0C63048   3.906   4.772   3.125
    1STR    C0D63049   3.783   4.753   3.216
    1STR    C0E63050   3.978   4.641   3.091
    1STR    O0F63051   4.038   4.637   2.964
    1STR    C0G63052   4.177   4.634   2.943
    1STR    C0H63053   4.241   4.757   2.999
    1STR    C0I63054   4.238   4.507   2.996
    1STR    O0J63055   4.359   4.482   2.926
    1STR    C0K63056   5.351   5.471   3.979
    1STR    C0M63057   5.406   5.339   3.922
    1STR    C0N63058   5.387   5.481   4.126
    1STR    O0O63059   5.324   5.370   4.188
    1STR    C0P63060   5.363   5.339   4.310
    1STR    O0Q63061   5.454   5.397   4.369
    1STR    N0R63062   5.292   5.245   4.370
    1STR    C0S63063   5.193   5.152   4.336
    1STR    C0T63064   5.131   5.089   4.445
    1STR    C0U63065   5.013   5.017   4.426
    1STR    C0V63066   4.967   5.001   4.297
    1STR    C0W63067   4.822   4.971   4.270
    1STR    C0X63068   5.057   5.014   4.190
    1STR    N0Y63069   5.051   4.925   4.084
    1STR   BCK263070   5.034   4.793   4.107
    1STR    O1063071   5.008   4.743   4.214
    1STR    C1363072   5.166   5.103   4.206
    1STR    C1463073   4.090   5.196   2.976
    1STR    C1563074   4.208   5.268   2.995
    1STR    C1663075   4.325   5.235   2.927
    1STR    C1763076   4.444   5.322   2.958
    1STR    H1B63077   4.474   5.187   2.710
    1STR    H1C63078   4.210   4.963   2.761
    1STR    H1D63079   3.989   4.905   2.842
    1STR    H1E63080   3.980   4.833   3.175
    1STR    H1F63081   3.705   4.697   3.165
    1STR    H1G63082   3.808   4.701   3.309
    1STR    H1H63083   3.742   4.850   3.243
    1STR    H1I63084   3.908   4.558   3.096
    1STR    H1J63085   4.056   4.623   3.161
    1STR    H1K63086   4.188   4.634   2.835
    1STR    H1M63087   4.280   4.738   3.097
    1STR    H1N63088   4.170   4.839   3.003
    1STR    H1O63089   4.323   4.792   2.940
    1STR    H1P63090   4.256   4.521   3.101
    1STR    H1Q63091   4.167   4.426   2.983
    1STR   C01063092   4.452   4.407   3.002
    1STR   H01163093   4.466   4.455   3.099
    1STR   C01263094   4.396   4.266   3.020
    1STR   H01363095   4.291   4.259   2.997
    1STR   H01463096   4.399   4.231   3.120
    1STR   H01563097   4.454   4.194   2.964
    1STR   C01663098   4.589   4.408   2.932
    1STR   H01763099   4.622   4.308   2.909
    1STR   H01863100   4.581   4.456   2.835
    1STR   O01963101   4.691   4.471   3.009
    1STR   C02063102   4.715   4.606   2.974
    1STR   H02163103   4.731   4.610   2.867
    1STR   C02263104   4.591   4.682   3.013
    1STR   H02363105   4.562   4.659   3.115
    1STR   H02463106   4.507   4.662   2.948
    1STR   H02563107   4.612   4.786   3.003
    1STR   C02663108   4.837   4.669   3.043
    1STR   H02763109   4.811   4.694   3.144
    1STR   H02863110   4.915   4.595   3.057
    1STR   O02963111   4.881   4.783   2.967
    1STR   C03063112   4.948   4.886   3.040
    1STR   H03163113   4.889   4.901   3.128
    1STR   C03263114   5.090   4.847   3.080
    1STR   H03363115   5.159   4.866   3.001
    1STR   H03463116   5.095   4.743   3.111
    1STR   H03563117   5.130   4.906   3.160
    1STR   C03663118   4.954   5.019   2.963
    1STR   H03763119   5.019   5.090   3.013
    1STR   H03863120   4.999   5.000   2.866
    1STR   O03963121   4.828   5.079   2.942
    1STR   C04063122   4.767   5.138   3.056
    1STR   H04163123   4.818   5.110   3.146
    1STR   C04263124   4.773   5.288   3.035
    1STR   H04363125   4.733   5.313   2.938
    1STR   H04463126   4.876   5.324   3.037
    1STR   H04563127   4.715   5.341   3.110
    1STR   C04663128   4.627   5.079   3.053
    1STR   H04763129   4.583   5.109   2.961
    1STR   H04863130   4.646   4.974   3.042
    1STR   O04963131   4.532   5.103   3.158
    1STR   C05063132   4.428   5.003   3.154
    1STR   H05163133   4.410   4.969   3.053
    1STR   C05263134   4.485   4.894   3.239
    1STR   H05363135   4.575   4.857   3.195
    1STR   H05463136   4.420   4.808   3.250
    1STR   H05563137   4.510   4.936   3.335
    1STR   C05663138   4.293   5.035   3.217
    1STR   H05763139   4.305   5.082   3.312
    1STR   H05863140   4.237   5.106   3.161
    1STR   O05963141   4.214   4.915   3.222
    1STR   C06063142   4.166   4.878   3.348
    1STR   H06163143   4.249   4.892   3.414
    1STR   C06263144   4.050   4.976   3.374
    1STR   H06363145   4.027   5.035   3.285
    1STR   H06463146   4.073   5.048   3.452
    1STR   H06563147   3.956   4.925   3.398
    1STR   C06663148   4.137   4.728   3.376
    1STR   H06763149   4.147   4.713   3.483
    1STR   H06863150   4.032   4.710   3.358
    1STR   O06963151   4.219   4.626   3.313
    1STR   C07063152   4.193   4.493   3.362
    1STR   H07163153   4.203   4.504   3.469
    1STR   C07263154   4.050   4.442   3.330
    1STR   H07363155   4.041   4.416   3.224
    1STR   H07463156   3.971   4.511   3.355
    1STR   H07563157   4.027   4.350   3.384
    1STR   C07663158   4.286   4.376   3.318
    1STR   H07763159   4.255   4.294   3.381
    1STR   H07863160   4.257   4.344   3.219
    1STR   O07963161   4.429   4.385   3.322
    1STR   C08063162   4.509   4.265   3.346
    1STR   H08163163   4.554   4.285   3.442
    1STR   C08263164   4.432   4.132   3.367
    1STR   H08363165   4.370   4.134   3.455
    1STR   H08463166   4.501   4.049   3.383
    1STR   H08563167   4.369   4.104   3.283
    1STR   C08663168   4.628   4.240   3.247
    1STR   H08763169   4.664   4.139   3.266
    1STR   H08863170   4.598   4.237   3.145
    1STR   O08963171   4.740   4.329   3.250
    1STR   C09063172   4.861   4.270   3.204
    1STR   H09163173   4.870   4.174   3.253
    1STR   C09263174   4.853   4.232   3.057
    1STR   H09363175   4.879   4.315   2.993
    1STR   H09463176   4.758   4.192   3.025
    1STR   H09563177   4.918   4.147   3.042
    1STR   C09663178   4.993   4.342   3.246
    1STR   H09763179   5.026   4.303   3.341
    1STR   H09863180   5.073   4.302   3.190
    1STR   O09963181   5.002   4.485   3.250
    1STR   C10063182   5.102   4.535   3.341
    1STR   H10163183   5.115   4.472   3.428
    1STR   C10263184   5.243   4.536   3.285
    1STR   H10363185   5.316   4.562   3.362
    1STR   H10463186   5.250   4.613   3.210
    1STR   H10563187   5.273   4.440   3.243
    1STR   C10663188   5.063   4.673   3.397
    1STR   H10763189   5.014   4.653   3.491
    1STR   H10863190   5.153   4.730   3.416
    1STR   O10963191   4.976   4.753   3.317
    1STR   C11063192   4.927   4.870   3.383
    1STR   H11163193   4.939   4.858   3.487
    1STR   C11263194   5.009   4.998   3.359
    1STR   H11363195   4.995   5.041   3.260
    1STR   H11463196   5.116   4.979   3.373
    1STR   H11563197   4.982   5.075   3.430
    1STR   C11663198   4.775   4.883   3.360
    1STR   H11763199   4.723   4.929   3.443
    1STR   H11863200   4.754   4.948   3.277
    1STR   O11963201   4.716   4.756   3.333
    1STR   C12063202   4.675   4.682   3.444
    1STR   H12163203   4.727   4.725   3.525
    1STR   C12263204   4.525   4.693   3.467
    1STR   H12363205   4.469   4.645   3.387
    1STR   H12463206   4.492   4.794   3.482
    1STR   H12563207   4.503   4.643   3.559
    1STR   C12663208   4.721   4.539   3.431
    1STR   H12763209   4.642   4.485   3.382
    1STR   H12863210   4.804   4.541   3.361
    1STR   O12963211   4.753   4.478   3.558
    1STR   C13063212   4.864   4.389   3.554
    1STR   H13163213   4.925   4.421   3.474
    1STR   C13263214   4.951   4.406   3.678
    1STR   H13363215   4.891   4.396   3.767
    1STR   H13463216   5.002   4.501   3.678
    1STR   H13563217   5.030   4.330   3.679
    1STR   C13663218   4.830   4.241   3.529
    1STR   H13763219   4.785   4.198   3.614
    1STR   H13863220   4.756   4.232   3.454
    1STR   O13963221   4.945   4.167   3.490
    1STR   C14063222   4.926   4.029   3.461
    1STR   H14163223   4.837   4.012   3.400
    1STR   C14263224   5.049   3.988   3.379
    1STR   H14363225   5.141   4.007   3.435
    1STR   H14463226   5.056   4.044   3.286
    1STR   H14563227   5.047   3.882   3.353
    1STR   C14663228   4.916   3.949   3.591
    1STR   H14763229   4.812   3.920   3.608
    1STR   H14863230   4.973   3.857   3.589
    1STR   O14963231   4.967   4.036   3.689
    1STR   C15063232   4.917   4.030   3.820
    1STR   H15163233   4.919   3.927   3.855
    1STR   C15263234   5.029   4.113   3.885
    1STR   H15363235   5.015   4.219   3.869
    1STR   H15463236   5.127   4.087   3.844
    1STR   H15563237   5.038   4.098   3.991
    1STR   C15663238   4.774   4.089   3.833
    1STR   H15763239   4.741   4.085   3.935
    1STR   H15863240   4.770   4.196   3.811
    1STR   O15963241   4.676   4.009   3.768
    1STR   C16063242   4.573   4.063   3.686
    1STR   H16163243   4.608   4.063   3.583
    1STR   C16263244   4.464   3.955   3.697
    1STR   H16363245   4.426   3.950   3.799
    1STR   H16463246   4.504   3.857   3.672
    1STR   H16563247   4.380   3.975   3.631
    1STR   C16663248   4.520   4.206   3.718
    1STR   H16763249   4.535   4.231   3.822
    1STR   H16863250   4.581   4.279   3.665
    1STR   O16963251   4.381   4.216   3.680
    1STR   C17063252   4.314   4.338   3.710
    1STR   H17163253   4.314   4.359   3.817
    1STR   C17263254   4.392   4.451   3.647
    1STR   H17363255   4.433   4.425   3.551
    1STR   H17463256   4.475   4.482   3.710
    1STR   H17563257   4.329   4.537   3.630
    1STR   C17663258   4.166   4.333   3.667
    1STR   H17763259   4.156   4.325   3.560
    1STR   H17863260   4.121   4.240   3.701
    1STR   O17963261   4.099   4.448   3.719
    1STR   C18063262   3.964   4.480   3.679
    1STR   H18163263   3.959   4.482   3.571
    1STR   C18263264   3.866   4.374   3.730
    1STR   H18363265   3.864   4.372   3.839
    1STR   H18463266   3.891   4.274   3.694
    1STR   H18563267   3.765   4.396   3.697
    1STR   C18663268   3.922   4.621   3.730
    1STR   H18763269   3.814   4.630   3.728
    1STR   H18863270   3.953   4.636   3.833
    1STR   O18963271   3.976   4.723   3.648
    1STR   C19063272   3.942   4.860   3.677
    1STR   H19163273   4.000   4.915   3.605
    1STR   C19263274   3.796   4.892   3.645
    1STR   H19363275   3.769   4.855   3.546
    1STR   H19463276   3.780   4.999   3.646
    1STR   H19563277   3.728   4.847   3.717
    1STR   C19663278   3.993   4.922   3.809
    1STR   H19763279   4.028   5.024   3.794
    1STR   H19863280   3.910   4.927   3.880
    1STR   O19963281   4.092   4.846   3.873
    1STR   C20063282   4.227   4.846   3.827
    1STR   H20163283   4.286   4.884   3.909
    1STR   C20263284   4.251   4.698   3.810
    1STR   H20363285   4.191   4.662   3.728
    1STR   H20463286   4.224   4.639   3.896
    1STR   H20563287   4.355   4.679   3.783
    1STR   C20663288   4.272   4.908   3.693
    1STR   H20763289   4.370   4.866   3.670
    1STR   H20863290   4.207   4.872   3.615
    1STR   O20963291   4.285   5.049   3.684
    1STR   C21063292   4.369   5.090   3.574
    1STR   H21163293   4.365   5.017   3.496
    1STR   C21263294   4.322   5.224   3.517
    1STR   H21363295   4.340   5.307   3.585
    1STR   H21463296   4.217   5.223   3.490
    1STR   H21563297   4.379   5.250   3.428
    1STR   C21663298   4.518   5.088   3.603
    1STR   H21763299   4.536   5.157   3.682
    1STR   H21863300   4.554   4.991   3.637
    1STR   O21963301   4.590   5.124   3.485
    1STR   C22063302   4.695   5.213   3.516
    1STR   H22163303   4.649   5.295   3.568
    1STR   C22263304   4.798   5.146   3.607
    1STR   H22363305   4.897   5.188   3.598
    1STR   H22463306   4.809   5.040   3.591
    1STR   H22563307   4.766   5.160   3.709
    1STR   C22663308   4.759   5.274   3.392
    1STR   H22763309   4.800   5.194   3.332
    1STR   H22863310   4.683   5.325   3.333
    1STR   O22963311   4.865   5.356   3.439
    1STR   C23063312   4.865   5.495   3.413
    1STR   H23163313   4.930   5.535   3.490
    1STR   C23263314   4.938   5.516   3.281
    1STR   H23363315   4.879   5.480   3.198
    1STR   H23463316   5.033   5.462   3.281
    1STR   H23563317   4.960   5.621   3.264
    1STR   C23663318   4.728   5.569   3.422
    1STR   H23763319   4.745   5.676   3.423
    1STR   H23863320   4.670   5.550   3.332
    1STR   O23963321   4.644   5.535   3.533
    1STR   C24063322   4.705   5.523   3.661
    1STR   H24163323   4.779   5.442   3.660
    1STR   C24263324   4.778   5.654   3.700
    1STR   H24363325   4.707   5.735   3.714
    1STR   H24463326   4.849   5.687   3.625
    1STR   H24563327   4.837   5.640   3.790
    1STR   C24663328   4.599   5.484   3.767
    1STR   H24763329   4.654   5.446   3.853
    1STR   H24863330   4.543   5.574   3.795
    1STR   O24963331   4.501   5.385   3.740
    1STR   C25063332   4.425   5.350   3.857
    1STR   H25163333   4.447   5.419   3.937
    1STR   C25263334   4.274   5.359   3.832
    1STR   H25363335   4.237   5.277   3.771
    1STR   H25463336   4.247   5.452   3.781
    1STR   H25563337   4.218   5.353   3.925
    1STR   C25663338   4.460   5.214   3.916
    1STR   H25763339   4.434   5.210   4.021
    1STR   H25863340   4.398   5.140   3.867
    1STR   O25963341   4.597   5.178   3.897
    1STR   C26063342   4.635   5.060   3.966
    1STR   H26163343   4.641   5.087   4.069
    1STR   C26263344   4.533   4.948   3.954
    1STR   H26363345   4.508   4.928   3.850
    1STR   H26463346   4.443   4.973   4.006
    1STR   H26563347   4.574   4.858   3.999
    1STR   C26663348   4.772   5.010   3.923
    1STR   H26763349   4.843   5.092   3.910
    1STR   H26863350   4.814   4.950   4.002
    1STR   O26963351   4.756   4.938   3.803
    1STR   C27063352   4.792   4.801   3.809
    1STR   H27163353   4.807   4.767   3.911
    1STR   C27263354   4.668   4.728   3.760
    1STR   H27363355   4.619   4.786   3.683
    1STR   H27463356   4.592   4.721   3.835
    1STR   H27563357   4.689   4.627   3.728
    1STR   C27663358   4.917   4.780   3.723
    1STR   H27763359   4.979   4.696   3.748
    1STR   H27863360   4.886   4.739   3.631
    1STR   O27963361   4.991   4.900   3.704
    1STR   C28063362   5.128   4.906   3.742
    1STR   H28163363   5.144   4.877   3.845
    1STR   C28263364   5.221   4.822   3.654
    1STR   H28363365   5.227   4.865   3.555
    1STR   H28463366   5.189   4.718   3.649
    1STR   H28563367   5.322   4.823   3.695
    1STR   C28663368   5.161   5.053   3.730
    1STR   H28763369   5.269   5.069   3.732
    1STR   H28863370   5.122   5.089   3.635
    1STR   O28963371   5.105   5.120   3.841
    1STR   C29063372   5.051   5.250   3.822
    1STR   H29163373   4.946   5.243   3.795
    1STR   C29263374   5.049   5.304   3.964
    1STR   H29363375   4.985   5.242   4.026
    1STR   H29463376   5.013   5.407   3.969
    1STR   H29563377   5.147   5.297   4.009
    1STR   C29663378   5.120   5.339   3.715
    1STR   H29763379   5.209   5.291   3.676
    1STR   H29863380   5.054   5.351   3.629
    1STR   O29963381   5.153   5.468   3.766
    1STR   C30063382   5.264   5.531   3.702
    1STR   H30163383   5.343   5.461   3.677
    1STR   C30263384   5.213   5.596   3.574
    1STR   H30363385   5.133   5.667   3.594
    1STR   H30463386   5.173   5.520   3.505
    1STR   H30563387   5.293   5.648   3.521
    1STR   C30663388   5.325   5.634   3.801
    1STR   H30763389   5.389   5.702   3.746
    1STR   H30863390   5.246   5.695   3.845
    1STR   O30963391   5.407   5.578   3.904
    1STR    H1R63392   5.243   5.479   3.977
    1STR    H1S63393   5.391   5.257   3.992
    1STR    H1T63394   5.512   5.347   3.900
    1STR    H1U63395   5.357   5.308   3.832
    1STR    H1V63396   5.349   5.574   4.170
    1STR    H1W63397   5.495   5.480   4.140
    1STR    H1X63398   5.311   5.245   4.470
    1STR    H1Y63399   5.161   5.107   4.547
    1STR    H1Z63400   4.956   4.989   4.513
    1STR    H2063401   4.786   5.058   4.217
    1STR    H2163402   4.807   4.888   4.203
    1STR    H2263403   4.762   4.959   4.360
    1STR    H2363404   5.075   4.957   3.991
    1STR    H2763405   5.228   5.128   4.122
    1STR    H2863406   4.003   5.228   3.031
    1STR    H2963407   4.213   5.349   3.064
    1STR    H2A63408   4.481   5.305   3.058
    1STR    H2B63409   4.412   5.425   2.956
    1STR    H2C63410   4.524   5.306   2.887
    1STR   BCK163411   4.637   4.766   5.012
    1STR    O0363412   4.754   4.794   5.016
    1STR    N0463413   4.584   4.647   5.017
    1STR    C0563414   4.651   4.528   5.018
    1STR    C0663415   4.604   4.433   5.109
    1STR    C0763416   4.671   4.311   5.117
    1STR    N0863417   4.692   4.249   5.238
    1STR    C0963418   4.815   4.233   5.288
    1STR    O0A63419   4.832   4.193   5.403
    1STR    O0B63420   4.914   4.273   5.205
    1STR    C0C63421   5.005   4.375   5.235
    1STR    C0D63422   5.135   4.304   5.264
    1STR    C0E63423   5.008   4.503   5.137
    1STR    O0F63424   5.109   4.597   5.177
    1STR    C0G63425   5.146   4.726   5.123
    1STR    C0H63426   5.041   4.805   5.049
    1STR    C0I63427   5.243   4.804   5.217
    1STR    O0J63428   5.221   4.942   5.242
    1STR    C0K63429   4.082   4.965   6.388
    1STR    C0M63430   4.001   5.095   6.398
    1STR    C0N63431   4.197   4.968   6.491
    1STR    O0O63432   4.237   4.844   6.542
    1STR    C0P63433   4.344   4.790   6.502
    1STR    O0Q63434   4.416   4.840   6.418
    1STR    N0R63435   4.356   4.669   6.551
    1STR    C0S63436   4.452   4.576   6.521
    1STR    C0T63437   4.419   4.449   6.477
    1STR    C0U63438   4.515   4.365   6.424
    1STR    C0V63439   4.648   4.391   6.451
    1STR    C0W63440   4.744   4.284   6.414
    1STR    C0X63441   4.686   4.512   6.509
    1STR    N0Y63442   4.821   4.540   6.531
    1STR   BCK263443   4.878   4.661   6.524
    1STR    O1063444   4.822   4.765   6.557
    1STR    C1363445   4.586   4.608   6.531
    1STR    C1463446   4.750   4.272   5.011
    1STR    C1563447   4.799   4.367   4.921
    1STR    C1663448   4.758   4.498   4.931
    1STR    C1763449   4.818   4.596   4.835
    1STR    H1B63450   4.485   4.640   5.022
    1STR    H1C63451   4.527   4.461   5.179
    1STR    H1D63452   4.615   4.235   5.302
    1STR    H1E63453   4.972   4.405   5.332
    1STR    H1F63454   5.177   4.244   5.187
    1STR    H1G63455   5.211   4.376   5.284
    1STR    H1H63456   5.121   4.235   5.346
    1STR    H1I63457   4.910   4.549   5.141
    1STR    H1J63458   5.021   4.482   5.031
    1STR    H1K63459   5.207   4.702   5.042
    1STR    H1M63460   4.962   4.736   5.045
    1STR    H1N63461   5.065   4.832   4.946
    1STR    H1O63462   5.006   4.894   5.099
    1STR    H1P63463   5.263   4.750   5.307
    1STR    H1Q63464   5.342   4.793   5.186
    1STR   C01063465   5.289   4.997   5.356
    1STR   H01163466   5.291   4.924   5.437
    1STR   C01263467   5.435   5.027   5.321
    1STR   H01363468   5.441   5.097   5.238
    1STR   H01463469   5.488   4.936   5.293
    1STR   H01563470   5.487   5.069   5.406
    1STR   C01663471   5.218   5.122   5.413
    1STR   H01763472   5.281   5.167   5.490
    1STR   H01863473   5.206   5.199   5.336
    1STR   O01963474   5.094   5.093   5.478
    1STR   C02063475   4.978   5.139   5.410
    1STR   H02163476   4.982   5.247   5.395
    1STR   C02263477   4.971   5.066   5.280
    1STR   H02363478   4.978   4.961   5.297
    1STR   H02463479   5.051   5.094   5.215
    1STR   H02563480   4.881   5.085   5.225
    1STR   C02663481   4.850   5.102   5.484
    1STR   H02763482   4.849   4.994   5.494
    1STR   H02863483   4.855   5.144   5.584
    1STR   O02963484   4.735   5.152   5.413
    1STR   C03063485   4.618   5.074   5.394
    1STR   H03163486   4.609   5.007   5.474
    1STR   C03263487   4.492   5.157   5.393
    1STR   H03363488   4.497   5.225   5.309
    1STR   H03463489   4.484   5.214   5.484
    1STR   H03563490   4.400   5.099   5.384
    1STR   C03663491   4.614   4.992   5.269
    1STR   H03763492   4.522   4.937   5.260
    1STR   H03863493   4.599   5.054   5.185
    1STR   O03963494   4.728   4.912   5.251
    1STR   C04063495   4.732   4.804   5.339
    1STR   H04163496   4.717   4.843   5.438
    1STR   C04263497   4.622   4.706   5.313
    1STR   H04363498   4.656   4.611   5.276
    1STR   H04463499   4.538   4.736   5.252
    1STR   H04563500   4.585   4.692   5.413
    1STR   C04663501   4.867   4.737   5.341
    1STR   H04763502   4.855   4.630   5.334
    1STR   H04863503   4.922   4.766   5.254
    1STR   O04963504   4.935   4.772   5.462
    1STR   C05063505   5.073   4.746   5.471
    1STR   H05163506   5.102   4.818   5.398
    1STR   C05263507   5.132   4.788   5.601
    1STR   H05363508   5.111   4.708   5.672
    1STR   H05463509   5.090   4.884   5.633
    1STR   H05563510   5.240   4.796   5.596
    1STR   C05663511   5.109   4.600   5.448
    1STR   H05763512   5.067   4.536   5.519
    1STR   H05863513   5.044   4.576   5.373
    1STR   O05963514   5.241   4.558   5.409
    1STR   C06063515   5.314   4.490   5.509
    1STR   H06163516   5.246   4.495   5.590
    1STR   C06263517   5.347   4.340   5.493
    1STR   H06363518   5.257   4.280   5.494
    1STR   H06463519   5.405   4.304   5.578
    1STR   H06563520   5.406   4.314   5.407
    1STR   C06663521   5.434   4.571   5.549
    1STR   H06763522   5.525   4.512   5.553
    1STR   H06863523   5.451   4.649   5.474
    1STR   O06963524   5.403   4.630   5.675
    1STR   C07063525   5.402   4.544   5.789
    1STR   H07163526   5.478   4.467   5.779
    1STR   C07263527   5.450   4.645   5.894
    1STR   H07363528   5.379   4.728   5.902
    1STR   H07463529   5.545   4.688   5.863
    1STR   H07563530   5.463   4.599   5.991
    1STR   C07663531   5.264   4.477   5.825
    1STR   H07763532   5.262   4.458   5.931
    1STR   H07863533   5.182   4.544   5.800
    1STR   O07963534   5.248   4.354   5.754
    1STR   C08063535   5.123   4.284   5.737
    1STR   H08163536   5.154   4.203   5.671
    1STR   C08263537   5.094   4.210   5.864
    1STR   H08363538   5.019   4.267   5.917
    1STR   H08463539   5.183   4.198   5.926
    1STR   H08563540   5.055   4.111   5.842
    1STR   C08663541   4.994   4.339   5.665
    1STR   H08763542   5.006   4.327   5.558
    1STR   H08863543   4.908   4.276   5.690
    1STR   O08963544   4.959   4.475   5.690
    1STR   C09063545   4.830   4.527   5.646
    1STR   H09163546   4.765   4.491   5.718
    1STR   C09263547   4.808   4.678   5.667
    1STR   H09363548   4.898   4.735   5.684
    1STR   H09463549   4.749   4.704   5.752
    1STR   H09563550   4.745   4.725   5.593
    1STR   C09663551   4.755   4.471   5.526
    1STR   H09763552   4.714   4.556   5.477
    1STR   H09863553   4.819   4.427   5.453
    1STR   O09963554   4.644   4.390   5.563
    1STR   C10063555   4.535   4.394   5.471
    1STR   H10163556   4.572   4.414   5.372
    1STR   C10263557   4.477   4.253   5.479
    1STR   H10363558   4.435   4.234   5.578
    1STR   H10463559   4.556   4.179   5.465
    1STR   H10563560   4.399   4.237   5.405
    1STR   C10663561   4.433   4.502   5.507
    1STR   H10763562   4.341   4.455   5.542
    1STR   H10863563   4.476   4.565   5.582
    1STR   O10963564   4.394   4.593   5.408
    1STR   C11063565   4.336   4.713   5.461
    1STR   H11163566   4.313   4.761   5.367
    1STR   C11263567   4.201   4.688   5.521
    1STR   H11363568   4.194   4.610   5.595
    1STR   H11463569   4.133   4.670   5.443
    1STR   H11563570   4.163   4.779   5.560
    1STR   C11663571   4.408   4.838   5.519
    1STR   H11763572   4.456   4.883   5.437
    1STR   H11863573   4.328   4.908   5.537
    1STR   O11963574   4.499   4.845   5.630
    1STR   C12063575   4.499   4.976   5.694
    1STR   H12163576   4.443   5.046   5.634
    1STR   C12263577   4.433   4.979   5.830
    1STR   H12363578   4.328   4.995   5.829
    1STR   H12463579   4.466   5.061   5.888
    1STR   H12563580   4.447   4.890   5.888
    1STR   C12663581   4.638   5.039   5.705
    1STR   H12763582   4.688   5.032   5.797
    1STR   H12863583   4.706   4.979   5.647
    1STR   O12963584   4.634   5.177   5.669
    1STR   C13063585   4.591   5.271   5.767
    1STR   H13163586   4.566   5.229   5.862
    1STR   C13263587   4.710   5.366   5.785
    1STR   H13363588   4.734   5.416   5.692
    1STR   H13463589   4.799   5.311   5.816
    1STR   H13563590   4.689   5.441   5.861
    1STR   C13663591   4.465   5.345   5.721
    1STR   H13763592   4.437   5.422   5.792
    1STR   H13863593   4.500   5.397   5.634
    1STR   O13963594   4.356   5.264   5.676
    1STR   C14063595   4.243   5.243   5.759
    1STR   H14163596   4.275   5.199   5.853
    1STR   C14263597   4.172   5.377   5.789
    1STR   H14363598   4.138   5.424   5.698
    1STR   H14463599   4.235   5.449   5.842
    1STR   H14563600   4.086   5.361   5.853
    1STR   C14663601   4.145   5.150   5.682
    1STR   H14763602   4.044   5.159   5.723
    1STR   H14863603   4.137   5.192   5.582
    1STR   O14963604   4.181   5.012   5.667
    1STR   C15063605   4.113   4.916   5.749
    1STR   H15163606   4.093   4.972   5.838
    1STR   C15263607   3.974   4.884   5.690
    1STR   H15363608   3.977   4.867   5.585
    1STR   H15463609   3.902   4.964   5.707
    1STR   H15563610   3.932   4.792   5.730
    1STR   C15663611   4.190   4.790   5.809
    1STR   H15763612   4.214   4.819   5.910
    1STR   H15863613   4.124   4.704   5.816
    1STR   O15963614   4.311   4.736   5.755
    1STR   C16063615   4.374   4.633   5.831
    1STR   H16163616   4.333   4.645   5.929
    1STR   C16263617   4.338   4.491   5.798
    1STR   H16363618   4.403   4.438   5.731
    1STR   H16463619   4.233   4.476   5.777
    1STR   H16563620   4.372   4.433   5.882
    1STR   C16663621   4.528   4.640   5.837
    1STR   H16763622   4.573   4.594   5.751
    1STR   H16863623   4.568   4.739   5.844
    1STR   O16963624   4.567   4.568   5.950
    1STR   C17063625   4.697   4.514   5.959
    1STR   H17163626   4.692   4.489   6.062
    1STR   C17263627   4.690   4.374   5.896
    1STR   H17363628   4.625   4.368   5.809
    1STR   H17463629   4.648   4.303   5.966
    1STR   H17563630   4.788   4.335   5.870
    1STR   C17663631   4.832   4.602   5.949
    1STR   H17763632   4.906   4.558   6.010
    1STR   H17863633   4.893   4.581   5.867
    1STR   O17963634   4.831   4.747   5.960
    1STR   C18063635   4.949   4.824   5.999
    1STR   H18163636   4.977   4.798   6.100
    1STR   C18263637   5.078   4.779   5.935
    1STR   H18363638   5.078   4.816   5.835
    1STR   H18463639   5.090   4.671   5.938
    1STR   H18563640   5.164   4.822   5.985
    1STR   C18663641   4.934   4.981   5.978
    1STR   H18763642   5.034   5.023   5.979
    1STR   H18863643   4.900   5.000   5.876
    1STR   O18963644   4.861   5.066   6.072
    1STR   C19063645   4.723   5.092   6.043
    1STR   H19163646   4.728   5.149   5.952
    1STR   C19263647   4.656   4.957   6.029
    1STR   H19363648   4.665   4.904   5.936
    1STR   H19463649   4.555   4.947   6.066
    1STR   H19563650   4.713   4.897   6.091
    1STR   C19663651   4.631   5.171   6.140
    1STR   H19763652   4.634   5.126   6.239
    1STR   H19863653   4.662   5.275   6.149
    1STR   O19963654   4.499   5.162   6.083
    1STR   C20063655   4.385   5.211   6.152
    1STR   H20163656   4.413   5.213   6.257
    1STR   C20263657   4.364   5.354   6.106
    1STR   H20363658   4.363   5.358   5.997
    1STR   H20463659   4.446   5.418   6.140
    1STR   H20563660   4.270   5.396   6.142
    1STR   C20663661   4.257   5.119   6.148
    1STR   H20763662   4.291   5.027   6.192
    1STR   H20863663   4.194   5.169   6.220
    1STR   O20963664   4.174   5.083   6.033
    1STR   C21063665   4.036   5.040   6.060
    1STR   H21163666   4.017   5.080   6.157
    1STR   C21263667   3.932   5.123   5.984
    1STR   H21363668   3.917   5.090   5.882
    1STR   H21463669   3.959   5.228   5.984
    1STR   H21563670   3.835   5.115   6.033
    1STR   C21663671   3.993   4.886   6.072
    1STR   H21763672   4.070   4.838   6.127
    1STR   H21863673   3.903   4.883   6.134
    1STR   O21963674   3.972   4.799   5.959
    1STR   C22063675   3.896   4.674   5.970
    1STR   H22163676   3.883   4.657   6.072
    1STR   C22263677   3.753   4.710   5.930
    1STR   H22363678   3.743   4.728   5.823
    1STR   H22463679   3.720   4.800   5.982
    1STR   H22563680   3.684   4.631   5.958
    1STR   C22663681   3.941   4.534   5.906
    1STR   H22763682   3.855   4.469   5.919
    1STR   H22863683   3.954   4.545   5.799
    1STR   O22963684   4.054   4.455   5.957
    1STR   C23063685   4.061   4.306   5.942
    1STR   H23163686   4.011   4.261   6.028
    1STR   C23263687   3.986   4.259   5.817
    1STR   H23363688   4.016   4.319   5.731
    1STR   H23463689   3.878   4.267   5.828
    1STR   H23563690   4.010   4.155   5.795
    1STR   C23663691   4.212   4.256   5.939
    1STR   H23763692   4.248   4.266   5.837
    1STR   H23863693   4.257   4.328   6.004
    1STR   O23963694   4.273   4.131   5.985
    1STR   C24063695   4.420   4.142   5.995
    1STR   H24163696   4.455   4.193   5.904
    1STR   C24263697   4.462   4.225   6.116
    1STR   H24363698   4.405   4.199   6.204
    1STR   H24463699   4.459   4.330   6.094
    1STR   H24563700   4.566   4.217   6.145
    1STR   C24663701   4.507   4.015   6.005
    1STR   H24763702   4.490   3.963   6.099
    1STR   H24863703   4.481   3.946   5.925
    1STR   O24963704   4.647   4.053   5.990
    1STR   C25063705   4.738   4.040   6.101
    1STR   H25163706   4.689   4.059   6.196
    1STR   C25263707   4.783   3.893   6.101
    1STR   H25363708   4.821   3.864   6.002
    1STR   H25463709   4.702   3.826   6.127
    1STR   H25563710   4.864   3.876   6.172
    1STR   C25663711   4.863   4.134   6.087
    1STR   H25763712   4.941   4.103   6.155
    1STR   H25863713   4.899   4.111   5.988
    1STR   O25963714   4.843   4.277   6.096
    1STR   C26063715   4.933   4.362   6.172
    1STR   H26163716   4.953   4.294   6.252
    1STR   C26263717   5.074   4.395   6.122
    1STR   H26363718   5.073   4.444   6.026
    1STR   H26463719   5.136   4.306   6.116
    1STR   H26563720   5.123   4.463   6.191
    1STR   C26663721   4.862   4.485   6.239
    1STR   H26763722   4.757   4.464   6.251
    1STR   H26863723   4.914   4.487   6.331
    1STR   O26963724   4.872   4.624   6.208
    1STR   C27063725   4.767   4.710   6.259
    1STR   H27163726   4.732   4.675   6.349
    1STR   C27263727   4.816   4.855   6.293
    1STR   H27363728   4.733   4.921   6.312
    1STR   H27463729   4.871   4.905   6.219
    1STR   H27563730   4.888   4.870   6.371
    1STR   C27663731   4.625   4.705   6.201
    1STR   H27763732   4.581   4.793   6.246
    1STR   H27863733   4.629   4.720   6.095
    1STR   O27963734   4.533   4.598   6.226
    1STR   C28063735   4.393   4.634   6.211
    1STR   H28163736   4.349   4.644   6.307
    1STR   C28263737   4.367   4.766   6.136
    1STR   H28363738   4.428   4.772   6.049
    1STR   H28463739   4.392   4.853   6.192
    1STR   H28563740   4.264   4.777   6.107
    1STR   C28663741   4.305   4.525   6.155
    1STR   H28763742   4.209   4.564   6.121
    1STR   H28863743   4.358   4.497   6.067
    1STR   O28963744   4.290   4.409   6.236
    1STR   C29063745   4.158   4.364   6.260
    1STR   H29163746   4.093   4.385   6.177
    1STR   C29263747   4.160   4.213   6.286
    1STR   H29363748   4.191   4.157   6.199
    1STR   H29463749   4.061   4.177   6.311
    1STR   H29563750   4.230   4.189   6.365
    1STR   C29663751   4.108   4.440   6.380
    1STR   H29763752   4.109   4.376   6.466
    1STR   H29863753   4.178   4.520   6.402
    1STR   O29963754   3.979   4.490   6.365
    1STR   C30063755   3.970   4.612   6.295
    1STR   H30163756   4.010   4.587   6.198
    1STR   C30263757   3.819   4.637   6.295
    1STR   H30363758   3.783   4.629   6.395
    1STR   H30463759   3.767   4.559   6.238
    1STR   H30563760   3.790   4.734   6.257
    1STR   C30663761   4.056   4.729   6.349
    1STR   H30763762   4.101   4.699   6.439
    1STR   H30863763   4.145   4.739   6.287
    1STR   O30963764   3.992   4.854   6.377
    1STR    H1R63765   4.132   4.960   6.294
    1STR    H1S63766   3.912   5.093   6.335
    1STR    H1T63767   4.059   5.184   6.375
    1STR    H1U63768   3.965   5.114   6.498
    1STR    H1V63769   4.173   5.019   6.580
    1STR    H1W63770   4.280   5.029   6.454
    1STR    H1X63771   4.285   4.646   6.618
    1STR    H1Y63772   4.321   4.408   6.477
    1STR    H1Z63773   4.485   4.272   6.380
    1STR    H2063774   4.726   4.245   6.314
    1STR    H2163775   4.844   4.320   6.424
    1STR    H2263776   4.742   4.206   6.484
    1STR    H2363777   4.881   4.460   6.544
    1STR    H2763778   4.607   4.708   6.561
    1STR    H2863779   4.783   4.171   5.012
    1STR    H2963780   4.866   4.337   4.844
    1STR    H2A63781   4.743   4.661   4.795
    1STR    H2B63782   4.864   4.544   4.756
    1STR    H2C63783   4.898   4.656   4.876
    1STR   BCK163784   4.931   4.261   7.487
    1STR    O0363785   4.842   4.332   7.528
    1STR    N0463786   5.060   4.297   7.480
    1STR    C0563787   5.104   4.423   7.518
    1STR    C0663788   5.022   4.530   7.486
    1STR    C0763789   5.047   4.661   7.516
    1STR    N0863790   4.950   4.744   7.463
    1STR    C0963791   4.891   4.844   7.522
    1STR    O0A63792   4.955   4.911   7.599
    1STR    O0B63793   4.759   4.852   7.486
    1STR    C0C63794   4.670   4.937   7.558
    1STR    C0D63795   4.639   5.069   7.490
    1STR    C0E63796   4.545   4.876   7.624
    1STR    O0F63797   4.479   4.775   7.554
    1STR    C0G63798   4.519   4.642   7.579
    1STR    C0H63799   4.665   4.599   7.566
    1STR    C0I63800   4.434   4.556   7.674
    1STR    O0J63801   4.291   4.569   7.658
    1STR    C0K63802   5.357   4.618   8.531
    1STR    C0M63803   5.392   4.670   8.393
    1STR    C0N63804   5.360   4.726   8.638
    1STR    O0O63805   5.285   4.835   8.592
    1STR    C0P63806   5.200   4.892   8.672
    1STR    O0Q63807   5.170   4.859   8.786
    1STR    N0R63808   5.151   4.996   8.609
    1STR    C0S63809   5.065   5.085   8.663
    1STR    C0T63810   5.120   5.200   8.722
    1STR    C0U63811   5.035   5.306   8.752
    1STR    C0V63812   4.897   5.290   8.737
    1STR    C0W63813   4.814   5.411   8.761
    1STR    C0X63814   4.839   5.167   8.701
    1STR    N0Y63815   4.702   5.158   8.687
    1STR   BCK263816   4.603   5.147   8.773
    1STR    O1063817   4.498   5.205   8.749
    1STR    C1363818   4.926   5.066   8.655
    1STR    C1463819   5.154   4.688   7.603
    1STR    C1563820   5.245   4.585   7.635
    1STR    C1663821   5.224   4.452   7.587
    1STR    C1763822   5.328   4.345   7.614
    1STR    H1B63823   5.125   4.229   7.443
    1STR    H1C63824   4.926   4.514   7.443
    1STR    H1D63825   4.912   4.731   7.371
    1STR    H1E63826   4.728   4.969   7.639
    1STR    H1F63827   4.574   5.059   7.404
    1STR    H1G63828   4.589   5.136   7.558
    1STR    H1H63829   4.729   5.122   7.464
    1STR    H1I63830   4.472   4.956   7.633
    1STR    H1J63831   4.560   4.848   7.727
    1STR    H1K63832   4.489   4.610   7.485
    1STR    H1M63833   4.732   4.660   7.622
    1STR    H1N63834   4.700   4.603   7.463
    1STR    H1O63835   4.678   4.496   7.598
    1STR    H1P63836   4.462   4.453   7.656
    1STR    H1Q63837   4.469   4.576   7.773
    1STR   C01063838   4.210   4.466   7.717
    1STR   H01163839   4.266   4.427   7.798
    1STR   C01263840   4.084   4.523   7.783
    1STR   H01363841   3.995   4.466   7.757
    1STR   H01463842   4.067   4.627   7.757
    1STR   H01563843   4.087   4.514   7.891
    1STR   C01663844   4.179   4.347   7.623
    1STR   H01763845   4.087   4.296   7.651
    1STR   H01863846   4.159   4.380   7.522
    1STR   O01963847   4.285   4.253   7.619
    1STR   C02063848   4.290   4.166   7.730
    1STR   H02163849   4.207   4.185   7.798
    1STR   C02263850   4.280   4.022   7.681
    1STR   H02363851   4.286   3.952   7.764
    1STR   H02463852   4.361   3.999   7.611
    1STR   H02563853   4.186   4.007   7.628
    1STR   C02663854   4.417   4.197   7.807
    1STR   H02763855   4.440   4.302   7.797
    1STR   H02863856   4.400   4.172   7.912
    1STR   O02963857   4.537   4.142   7.759
    1STR   C03063858   4.640   4.160   7.855
    1STR   H03163859   4.621   4.244   7.921
    1STR   C03263860   4.626   4.029   7.934
    1STR   H03363861   4.714   4.001   7.988
    1STR   H03463862   4.596   3.945   7.871
    1STR   H03563863   4.547   4.040   8.006
    1STR   C03663864   4.776   4.188   7.786
    1STR   H03763865   4.847   4.111   7.807
    1STR   H03863866   4.759   4.178   7.681
    1STR   O03963867   4.827   4.321   7.796
    1STR   C04063868   4.961   4.345   7.845
    1STR   H04163869   4.972   4.342   7.951
    1STR   C04263870   5.065   4.243   7.798
    1STR   H04363871   5.063   4.222   7.695
    1STR   H04463872   5.048   4.146   7.840
    1STR   H04563873   5.165   4.273   7.828
    1STR   C04663874   5.000   4.489   7.812
    1STR   H04763875   5.108   4.491   7.808
    1STR   H04863876   4.956   4.505   7.715
    1STR   O04963877   4.974   4.598   7.901
    1STR   C05063878   4.901   4.703   7.837
    1STR   H05163879   4.919   4.705   7.731
    1STR   C05263880   4.761   4.662   7.861
    1STR   H05363881   4.740   4.563   7.823
    1STR   H05463882   4.689   4.731   7.822
    1STR   H05563883   4.753   4.665   7.967
    1STR   C05663884   4.926   4.847   7.885
    1STR   H05763885   4.908   4.859   7.990
    1STR   H05863886   5.027   4.877   7.861
    1STR   O05963887   4.831   4.932   7.823
    1STR   C06063888   4.849   5.072   7.840
    1STR   H06163889   4.861   5.080   7.947
    1STR   C06263890   4.972   5.132   7.769
    1STR   H06363891   4.960   5.129   7.662
    1STR   H06463892   5.065   5.083   7.794
    1STR   H06563893   4.981   5.239   7.785
    1STR   C06663894   4.725   5.153   7.794
    1STR   H06763895   4.725   5.251   7.841
    1STR   H06863896   4.739   5.183   7.691
    1STR   O06963897   4.602   5.079   7.812
    1STR   C07063898   4.481   5.150   7.838
    1STR   H07163899   4.492   5.204   7.928
    1STR   C07263900   4.459   5.265   7.750
    1STR   H07363901   4.428   5.228   7.655
    1STR   H07463902   4.547   5.327   7.737
    1STR   H07563903   4.377   5.326   7.788
    1STR   C07663904   4.349   5.071   7.851
    1STR   H07763905   4.289   5.114   7.931
    1STR   H07863906   4.291   5.089   7.761
    1STR   O07963907   4.364   4.931   7.864
    1STR   C08063908   4.268   4.865   7.946
    1STR   H08163909   4.274   4.909   8.044
    1STR   C08263910   4.120   4.885   7.919
    1STR   H08363911   4.089   4.840   7.825
    1STR   H08463912   4.092   4.991   7.922
    1STR   H08563913   4.059   4.836   7.995
    1STR   C08663914   4.299   4.714   7.935
    1STR   H08763915   4.215   4.656   7.968
    1STR   H08863916   4.295   4.705   7.828
    1STR   O08963917   4.426   4.658   7.973
    1STR   C09063918   4.438   4.547   8.065
    1STR   H09163919   4.433   4.587   8.164
    1STR   C09263920   4.341   4.433   8.044
    1STR   H09363921   4.367   4.381   7.957
    1STR   H09463922   4.238   4.463   8.037
    1STR   H09563923   4.351   4.356   8.119
    1STR   C09663924   4.580   4.495   8.053
    1STR   H09763925   4.596   4.478   7.947
    1STR   H09863926   4.633   4.581   8.090
    1STR   O09963927   4.630   4.384   8.130
    1STR   C10063928   4.771   4.363   8.099
    1STR   H10163929   4.775   4.383   7.995
    1STR   C10263930   4.863   4.469   8.163
    1STR   H10363931   4.876   4.450   8.268
    1STR   H10463932   4.832   4.571   8.149
    1STR   H10563933   4.964   4.463   8.122
    1STR   C10663934   4.828   4.219   8.126
    1STR   H10763935   4.895   4.227   8.210
    1STR   H10863936   4.745   4.159   8.157
    1STR   O10963937   4.895   4.141   8.026
    1STR   C11063938   4.981   4.033   8.067
    1STR   H11163939   4.946   3.998   8.163
    1STR   C11263940   4.970   3.909   7.979
    1STR   H11363941   4.983   3.934   7.874
    1STR   H11463942   4.875   3.857   7.992
    1STR   H11563943   5.047   3.836   8.003
    1STR   C11663944   5.130   4.077   8.066
    1STR   H11763945   5.187   4.021   8.140
    1STR   H11863946   5.181   4.054   7.973
    1STR   O11963947   5.133   4.217   8.084
    1STR   C12063948   5.246   4.270   8.146
    1STR   H12163949   5.321   4.194   8.168
    1STR   C12263950   5.305   4.373   8.049
    1STR   H12363951   5.229   4.445   8.017
    1STR   H12463952   5.344   4.325   7.960
    1STR   H12563953   5.387   4.430   8.094
    1STR   C12663954   5.197   4.332   8.278
    1STR   H12763955   5.280   4.339   8.347
    1STR   H12863956   5.166   4.435   8.258
    1STR   O12963957   5.081   4.272   8.336
    1STR   C13063958   5.071   4.137   8.383
    1STR   H13163959   5.069   4.070   8.302
    1STR   C13263960   5.197   4.091   8.458
    1STR   H13363961   5.229   4.157   8.538
    1STR   H13463962   5.281   4.085   8.388
    1STR   H13563963   5.183   3.992   8.500
    1STR   C13663964   4.932   4.118   8.452
    1STR   H13763965   4.942   4.060   8.543
    1STR   H13863966   4.897   4.216   8.483
    1STR   O13963967   4.831   4.056   8.370
    1STR   C14063968   4.693   4.077   8.406
    1STR   H14163969   4.679   4.044   8.509
    1STR   C14263970   4.659   4.227   8.393
    1STR   H14363971   4.575   4.244   8.327
    1STR   H14463972   4.740   4.282   8.348
    1STR   H14563973   4.642   4.277   8.488
    1STR   C14663974   4.599   3.994   8.314
    1STR   H14763975   4.611   4.025   8.211
    1STR   H14863976   4.630   3.890   8.316
    1STR   O14963977   4.458   4.006   8.341
    1STR   C15063978   4.372   3.958   8.236
    1STR   H15163979   4.398   4.008   8.143
    1STR   C15263980   4.390   3.807   8.216
    1STR   H15363981   4.371   3.753   8.309
    1STR   H15463982   4.490   3.781   8.182
    1STR   H15563983   4.322   3.769   8.140
    1STR   C15663984   4.223   3.994   8.256
    1STR   H15763985   4.162   3.928   8.195
    1STR   H15863986   4.195   3.979   8.360
    1STR   O15963987   4.199   4.128   8.214
    1STR   C16063988   4.064   4.176   8.204
    1STR   H16163989   4.041   4.174   8.097
    1STR   C16263990   3.957   4.092   8.274
    1STR   H16363991   3.981   4.078   8.379
    1STR   H16463992   3.946   3.994   8.228
    1STR   H16563993   3.859   4.140   8.269
    1STR   C16663994   4.058   4.325   8.248
    1STR   H16763995   4.114   4.388   8.181
    1STR   H16863996   3.955   4.360   8.236
    1STR   O16963997   4.093   4.350   8.383
    1STR   C17063998   4.224   4.399   8.420
    1STR   H17163999   4.225   4.421   8.526
    1STR   C17264000   4.329   4.290   8.403
    1STR   H17364001   4.356   4.271   8.300
    1STR   H17464002   4.298   4.194   8.445
    1STR   H17564003   4.420   4.321   8.451
    1STR   C17664004   4.270   4.529   8.357
    1STR   H17764005   4.370   4.553   8.395
    1STR   H17864006   4.278   4.502   8.256
    1STR   O17964007   4.187   4.644   8.358
    1STR   C18064008   4.217   4.741   8.256
    1STR   H18164009   4.204   4.688   8.163
    1STR   C18264010   4.105   4.844   8.270
    1STR   H18364011   4.102   4.883   8.372
    1STR   H18464012   4.008   4.799   8.250
    1STR   H18564013   4.118   4.929   8.204
    1STR   C18664014   4.358   4.808   8.263
    1STR   H18764015   4.344   4.901   8.316
    1STR   H18864016   4.425   4.741   8.314
    1STR   O18964017   4.441   4.836   8.153
    1STR   C19064018   4.545   4.933   8.167
    1STR   H19164019   4.593   4.929   8.260
    1STR   C19264020   4.656   4.896   8.074
    1STR   H19364021   4.622   4.889   7.971
    1STR   H19464022   4.696   4.801   8.106
    1STR   H19564023   4.737   4.967   8.081
    1STR   C19664024   4.502   5.078   8.166
    1STR   H19764025   4.441   5.100   8.082
    1STR   H19864026   4.430   5.091   8.245
    1STR   O19964027   4.612   5.163   8.197
    1STR   C20064028   4.673   5.241   8.096
    1STR   H20164029   4.669   5.168   8.019
    1STR   C20264030   4.578   5.361   8.086
    1STR   H20364031   4.603   5.442   8.154
    1STR   H20464032   4.474   5.336   8.105
    1STR   H20564033   4.585   5.397   7.985
    1STR   C20664034   4.823   5.280   8.114
    1STR   H20764035   4.831   5.380   8.156
    1STR   H20864036   4.866   5.205   8.176
    1STR   O20964037   4.917   5.284   8.009
    1STR   C21064038   5.057   5.267   8.043
    1STR   H21164039   5.109   5.236   7.953
    1STR   C21264040   5.120   5.403   8.072
    1STR   H21364041   5.070   5.457   8.152
    1STR   H21464042   5.115   5.466   7.983
    1STR   H21564043   5.225   5.392   8.100
    1STR   C21664044   5.100   5.154   8.143
    1STR   H21764045   5.208   5.152   8.141
    1STR   H21864046   5.073   5.176   8.245
    1STR   O21964047   5.049   5.024   8.111
    1STR   C22064048   5.118   4.916   8.176
    1STR   H22164049   5.151   4.947   8.275
    1STR   C22264050   5.026   4.795   8.197
    1STR   H22364051   5.014   4.734   8.109
    1STR   H22464052   4.927   4.826   8.233
    1STR   H22564053   5.071   4.726   8.267
    1STR   C22664054   5.237   4.870   8.089
    1STR   H22764055   5.271   4.772   8.121
    1STR   H22864056   5.204   4.857   7.987
    1STR   O22964057   5.342   4.966   8.089
    1STR   C23064058   5.433   4.953   8.196
    1STR   H23164059   5.382   4.926   8.288
    1STR   C23264060   5.535   4.844   8.157
    1STR   H23364061   5.583   4.868   8.062
    1STR   H23464062   5.488   4.746   8.145
    1STR   H23564063   5.613   4.833   8.233
    1STR   C23664064   5.502   5.088   8.219
    1STR   H23764065   5.588   5.077   8.286
    1STR   H23864066   5.544   5.121   8.124
    1STR   O23964067   5.417   5.194   8.266
    1STR   C24064068   5.354   5.181   8.394
    1STR   H24164069   5.267   5.115   8.383
    1STR   C24264070   5.447   5.122   8.501
    1STR   H24364071   5.541   5.178   8.508
    1STR   H24464072   5.472   5.018   8.482
    1STR   H24564073   5.401   5.123   8.600
    1STR   C24664074   5.305   5.321   8.436
    1STR   H24764075   5.288   5.321   8.544
    1STR   H24864076   5.384   5.394   8.419
    1STR   O24964077   5.187   5.366   8.367
    1STR   C25064078   5.082   5.413   8.453
    1STR   H25164079   5.064   5.329   8.518
    1STR   C25264080   5.120   5.541   8.527
    1STR   H25364081   5.147   5.620   8.456
    1STR   H25464082   5.205   5.527   8.594
    1STR   H25564083   5.037   5.578   8.587
    1STR   C25664084   4.948   5.425   8.381
    1STR   H25764085   4.941   5.516   8.321
    1STR   H25864086   4.954   5.341   8.314
    1STR   O25964087   4.833   5.411   8.465
    1STR   C26064088   4.730   5.326   8.414
    1STR   H26164089   4.712   5.360   8.315
    1STR   C26264090   4.779   5.177   8.413
    1STR   H26364091   4.713   5.109   8.463
    1STR   H26464092   4.882   5.170   8.444
    1STR   H26564093   4.781   5.119   8.323
    1STR   C26664094   4.588   5.353   8.472
    1STR   H26764095   4.585   5.350   8.579
    1STR   H26864096   4.556   5.453   8.445
    1STR   O26964097   4.499   5.260   8.412
    1STR   C27064098   4.377   5.226   8.477
    1STR   H27164099   4.364   5.284   8.568
    1STR   C27264100   4.260   5.263   8.385
    1STR   H27364101   4.257   5.202   8.294
    1STR   H27464102   4.267   5.367   8.354
    1STR   H27564103   4.165   5.248   8.436
    1STR   C27664104   4.380   5.074   8.510
    1STR   H27764105   4.379   5.059   8.618
    1STR   H27864106   4.286   5.028   8.479
    1STR   O27964107   4.492   5.008   8.449
    1STR   C28064108   4.537   4.887   8.509
    1STR   H28164109   4.587   4.937   8.591
    1STR   C28264110   4.419   4.795   8.549
    1STR   H28364111   4.333   4.778   8.488
    1STR   H28464112   4.358   4.839   8.627
    1STR   H28564113   4.454   4.696   8.575
    1STR   C28664114   4.657   4.810   8.444
    1STR   H28764115   4.628   4.754   8.356
    1STR   H28864116   4.733   4.882   8.414
    1STR   O28964117   4.719   4.713   8.528
    1STR   C29064118   4.838   4.657   8.470
    1STR   H29164119   4.831   4.657   8.362
    1STR   C29264120   4.958   4.745   8.507
    1STR   H29364121   4.976   4.759   8.612
    1STR   H29464122   4.952   4.843   8.461
    1STR   H29564123   5.050   4.701   8.470
    1STR   C29664124   4.849   4.508   8.510
    1STR   H29764125   4.817   4.485   8.609
    1STR   H29864126   4.775   4.457   8.451
    1STR   O29964127   4.979   4.451   8.487
    1STR   C30064128   5.054   4.434   8.606
    1STR   H30164129   5.025   4.523   8.657
    1STR   C30264130   5.021   4.308   8.688
    1STR   H30364131   5.064   4.219   8.646
    1STR   H30464132   4.915   4.292   8.698
    1STR   H30564133   5.061   4.310   8.789
    1STR   C30664134   5.204   4.453   8.595
    1STR   H30764135   5.243   4.467   8.696
    1STR   H30864136   5.253   4.367   8.553
    1STR   O30964137   5.228   4.567   8.516
    1STR    H1R64138   5.425   4.540   8.557
    1STR    H1S64139   5.400   4.587   8.322
    1STR    H1T64140   5.486   4.724   8.395
    1STR    H1U64141   5.312   4.735   8.358
    1STR    H1V64142   5.459   4.766   8.658
    1STR    H1W64143   5.323   4.685   8.732
    1STR    H1X64144   5.187   5.009   8.516
    1STR    H1Y64145   5.227   5.212   8.737
    1STR    H1Z64146   5.076   5.400   8.785
    1STR    H2064147   4.829   5.451   8.861
    1STR    H2164148   4.847   5.481   8.687
    1STR    H2264149   4.709   5.396   8.744
    1STR    H2364150   4.671   5.187   8.595
    1STR    H2764151   4.884   4.975   8.615
    1STR    H2864152   5.170   4.789   7.640
    1STR    H2964153   5.331   4.608   7.695
    1STR    H2A64154   5.387   4.327   7.525
    1STR    H2B64155   5.281   4.252   7.640
    1STR    H2C64156   5.395   4.374   7.695
    1STR   BCK164157   5.110   7.501   0.548
    1STR    O0364158   5.129   7.450   0.657
    1STR    N0464159   4.993   7.517   0.488
    1STR    C0564160   4.866   7.481   0.528
    1STR    C0664161   4.804   7.370   0.468
    1STR    C0764162   4.668   7.339   0.493
    1STR    N0864163   4.616   7.217   0.453
    1STR    C0964164   4.533   7.140   0.524
    1STR    O0A64165   4.453   7.178   0.607
    1STR    O0B64166   4.551   7.016   0.486
    1STR    C0C64167   4.524   6.905   0.570
    1STR    C0D64168   4.380   6.858   0.574
    1STR    C0E64169   4.625   6.794   0.532
    1STR    O0F64170   4.760   6.843   0.526
    1STR    C0G64171   4.868   6.751   0.521
    1STR    C0H64172   4.992   6.821   0.473
    1STR    C0I64173   4.907   6.688   0.654
    1STR    O0J64174   5.033   6.619   0.649
    1STR    C0K64175   4.514   7.861   1.726
    1STR    C0M64176   4.391   7.929   1.665
    1STR    C0N64177   4.480   7.756   1.832
    1STR    O0O64178   4.360   7.684   1.811
    1STR    C0P64179   4.256   7.707   1.889
    1STR    O0Q64180   4.217   7.817   1.923
    1STR    N0R64181   4.193   7.598   1.934
    1STR    C0S64182   4.217   7.462   1.916
    1STR    C0T64183   4.117   7.372   1.958
    1STR    C0U64184   4.127   7.235   1.930
    1STR    C0V64185   4.239   7.183   1.863
    1STR    C0W64186   4.245   7.035   1.831
    1STR    C0X64187   4.344   7.270   1.829
    1STR    N0Y64188   4.457   7.221   1.768
    1STR   BCK264189   4.581   7.262   1.789
    1STR    O1064190   4.615   7.343   1.873
    1STR    C1364191   4.333   7.408   1.857
    1STR    C1464192   4.591   7.433   0.563
    1STR    C1564193   4.653   7.545   0.619
    1STR    C1664194   4.792   7.564   0.612
    1STR    C1764195   4.859   7.672   0.696
    1STR    H1B64196   5.000   7.571   0.403
    1STR    H1C64197   4.866   7.307   0.408
    1STR    H1D64198   4.660   7.163   0.380
    1STR    H1E64199   4.538   6.943   0.670
    1STR    H1F64200   4.334   6.829   0.480
    1STR    H1G64201   4.371   6.770   0.636
    1STR    H1H64202   4.321   6.938   0.618
    1STR    H1I64203   4.595   6.753   0.437
    1STR    H1J64204   4.615   6.707   0.597
    1STR    H1K64205   4.846   6.672   0.452
    1STR    H1M64206   4.977   6.889   0.391
    1STR    H1N64207   5.055   6.743   0.436
    1STR    H1O64208   5.047   6.870   0.553
    1STR    H1P64209   4.913   6.766   0.728
    1STR    H1Q64210   4.829   6.618   0.681
    1STR   C01064211   5.094   6.599   0.776
    1STR   H01164212   5.017   6.586   0.853
    1STR   C01264213   5.176   6.470   0.768
    1STR   H01364214   5.254   6.478   0.692
    1STR   H01464215   5.114   6.385   0.743
    1STR   H01564216   5.225   6.450   0.864
    1STR   C01664217   5.181   6.719   0.816
    1STR   H01764218   5.270   6.726   0.754
    1STR   H01864219   5.125   6.809   0.796
    1STR   O01964220   5.210   6.709   0.955
    1STR   C02064221   5.296   6.808   1.016
    1STR   H02164222   5.297   6.779   1.121
    1STR   C02264223   5.435   6.794   0.964
    1STR   H02364224   5.464   6.689   0.958
    1STR   H02464225   5.506   6.849   1.024
    1STR   H02564226   5.432   6.838   0.865
    1STR   C02664227   5.246   6.953   1.009
    1STR   H02764228   5.148   6.947   0.967
    1STR   H02864229   5.240   6.997   1.109
    1STR   O02964230   5.313   7.047   0.928
    1STR   C03064231   5.223   7.151   0.890
    1STR   H03164232   5.146   7.166   0.966
    1STR   C03264233   5.294   7.288   0.889
    1STR   H03364234   5.316   7.326   0.790
    1STR   H03464235   5.386   7.286   0.948
    1STR   H03564236   5.230   7.364   0.933
    1STR   C03664237   5.156   7.107   0.757
    1STR   H03764238   5.132   7.196   0.700
    1STR   H03864239   5.229   7.053   0.697
    1STR   O03964240   5.045   7.017   0.771
    1STR   C04064241   4.919   7.069   0.733
    1STR   H04164242   4.911   7.156   0.791
    1STR   C04264243   4.921   7.118   0.590
    1STR   H04364244   4.994   7.070   0.526
    1STR   H04464245   4.948   7.223   0.593
    1STR   H04564246   4.824   7.110   0.543
    1STR   C04664247   4.785   7.006   0.778
    1STR   H04764248   4.717   7.082   0.819
    1STR   H04864249   4.735   6.985   0.688
    1STR   O04964250   4.789   6.895   0.868
    1STR   C05064251   4.673   6.813   0.863
    1STR   H05164252   4.659   6.809   0.760
    1STR   C05264253   4.696   6.664   0.886
    1STR   H05364254   4.646   6.625   0.971
    1STR   H05464255   4.801   6.638   0.893
    1STR   H05564256   4.645   6.612   0.806
    1STR   C05664257   4.538   6.861   0.919
    1STR   H05764258   4.531   6.850   1.026
    1STR   H05864259   4.518   6.965   0.895
    1STR   O05964260   4.445   6.774   0.856
    1STR   C06064261   4.320   6.761   0.919
    1STR   H06164262   4.333   6.765   1.027
    1STR   C06264263   4.225   6.867   0.865
    1STR   H06364264   4.195   6.842   0.764
    1STR   H06464265   4.274   6.964   0.866
    1STR   H06564266   4.133   6.876   0.921
    1STR   C06664267   4.269   6.623   0.887
    1STR   H06764268   4.164   6.606   0.913
    1STR   H06864269   4.274   6.611   0.780
    1STR   O06964270   4.355   6.531   0.952
    1STR   C07064271   4.318   6.497   1.084
    1STR   H07164272   4.250   6.570   1.126
    1STR   C07264273   4.253   6.358   1.088
    1STR   H07364274   4.319   6.283   1.043
    1STR   H07464275   4.160   6.357   1.031
    1STR   H07564276   4.232   6.327   1.190
    1STR   C07664277   4.445   6.501   1.166
    1STR   H07764278   4.422   6.486   1.272
    1STR   H07864279   4.507   6.418   1.132
    1STR   O07964280   4.514   6.624   1.146
    1STR   C08064281   4.626   6.642   1.232
    1STR   H08164282   4.578   6.670   1.324
    1STR   C08264283   4.703   6.510   1.258
    1STR   H08364284   4.737   6.465   1.165
    1STR   H08464285   4.645   6.436   1.312
    1STR   H08564286   4.792   6.527   1.317
    1STR   C08664287   4.735   6.745   1.188
    1STR   H08764288   4.802   6.750   1.272
    1STR   H08864289   4.788   6.690   1.112
    1STR   O08964290   4.725   6.881   1.138
    1STR   C09064291   4.855   6.949   1.130
    1STR   H09164292   4.873   6.960   1.235
    1STR   C09264293   4.971   6.852   1.099
    1STR   H09364294   4.981   6.836   0.992
    1STR   H09464295   4.974   6.752   1.139
    1STR   H09564296   5.058   6.894   1.145
    1STR   C09664297   4.891   7.093   1.063
    1STR   H09764298   4.950   7.146   1.137
    1STR   H09864299   4.963   7.069   0.987
    1STR   O09964300   4.807   7.193   0.996
    1STR   C10064301   4.858   7.331   0.977
    1STR   H10164302   4.932   7.347   1.054
    1STR   C10264303   4.939   7.373   0.857
    1STR   H10364304   4.879   7.367   0.767
    1STR   H10464305   5.029   7.315   0.846
    1STR   H10564306   4.974   7.475   0.867
    1STR   C10664307   4.754   7.444   0.991
    1STR   H10764308   4.676   7.410   1.054
    1STR   H10864309   4.806   7.524   1.039
    1STR   O10964310   4.696   7.517   0.883
    1STR   C11064311   4.603   7.618   0.928
    1STR   H11164312   4.600   7.613   1.035
    1STR   C11264313   4.632   7.765   0.894
    1STR   H11364314   4.612   7.788   0.790
    1STR   H11464315   4.735   7.794   0.916
    1STR   H11564316   4.566   7.829   0.951
    1STR   C11664317   4.461   7.584   0.888
    1STR   H11764318   4.392   7.614   0.967
    1STR   H11864319   4.428   7.636   0.798
    1STR   O11964320   4.463   7.445   0.866
    1STR   C12064321   4.338   7.384   0.882
    1STR   H12164322   4.289   7.413   0.973
    1STR   C12264323   4.257   7.433   0.770
    1STR   H12364324   4.168   7.375   0.774
    1STR   H12464325   4.306   7.413   0.675
    1STR   H12564326   4.230   7.538   0.776
    1STR   C12664327   4.357   7.232   0.884
    1STR   H12764328   4.273   7.181   0.836
    1STR   H12864329   4.447   7.204   0.831
    1STR   O12964330   4.371   7.186   1.016
    1STR   C13064331   4.481   7.244   1.083
    1STR   H13164332   4.555   7.262   1.005
    1STR   C13264333   4.451   7.376   1.160
    1STR   H13364334   4.479   7.464   1.106
    1STR   H13464335   4.503   7.389   1.254
    1STR   H13564336   4.349   7.395   1.184
    1STR   C13664337   4.551   7.143   1.169
    1STR   H13764338   4.497   7.103   1.253
    1STR   H13864339   4.579   7.059   1.106
    1STR   O13964340   4.667   7.216   1.198
    1STR   C14064341   4.699   7.254   1.327
    1STR   H14164342   4.617   7.283   1.392
    1STR   C14264343   4.769   7.132   1.373
    1STR   H14364344   4.871   7.132   1.338
    1STR   H14464345   4.716   7.044   1.339
    1STR   H14564346   4.775   7.120   1.479
    1STR   C14664347   4.792   7.371   1.301
    1STR   H14764348   4.837   7.403   1.388
    1STR   H14864349   4.876   7.338   1.242
    1STR   O14964350   4.729   7.486   1.252
    1STR   C15064351   4.799   7.606   1.277
    1STR   H15164352   4.786   7.606   1.382
    1STR   C15264353   4.950   7.609   1.236
    1STR   H15364354   4.966   7.616   1.129
    1STR   H15464355   5.007   7.523   1.271
    1STR   H15564356   4.998   7.697   1.279
    1STR   C15664357   4.721   7.727   1.228
    1STR   H15764358   4.759   7.811   1.284
    1STR   H15864359   4.749   7.748   1.126
    1STR   O15964360   4.579   7.704   1.235
    1STR   C16064361   4.493   7.807   1.281
    1STR   H16164362   4.498   7.801   1.390
    1STR   C16264363   4.538   7.948   1.236
    1STR   H16364364   4.545   7.954   1.128
    1STR   H16464365   4.633   7.979   1.277
    1STR   H16564366   4.466   8.022   1.269
    1STR   C16664367   4.342   7.786   1.245
    1STR   H16764368   4.286   7.808   1.336
    1STR   H16864369   4.315   7.862   1.172
    1STR   O16964370   4.293   7.662   1.190
    1STR   C17064371   4.150   7.645   1.200
    1STR   H17164372   4.126   7.623   1.304
    1STR   C17264373   4.071   7.769   1.155
    1STR   H17364374   4.100   7.796   1.053
    1STR   H17464375   4.087   7.854   1.220
    1STR   H17564376   3.965   7.747   1.155
    1STR   C17664377   4.099   7.524   1.119
    1STR   H17764378   4.109   7.543   1.012
    1STR   H17864379   4.161   7.439   1.143
    1STR   O17964380   3.963   7.488   1.151
    1STR   C18064381   3.904   7.377   1.081
    1STR   H18164382   3.846   7.418   0.999
    1STR   C18264383   4.005   7.279   1.018
    1STR   H18364384   4.075   7.234   1.086
    1STR   H18464385   4.064   7.325   0.942
    1STR   H18564386   3.953   7.195   0.974
    1STR   C18664387   3.808   7.301   1.175
    1STR   H18764388   3.855   7.285   1.271
    1STR   H18864389   3.720   7.361   1.196
    1STR   O18964390   3.767   7.176   1.117
    1STR   C19064391   3.771   7.061   1.201
    1STR   H19164392   3.831   7.075   1.290
    1STR   C19264393   3.629   7.029   1.249
    1STR   H19364394   3.563   7.009   1.165
    1STR   H19464395   3.589   7.113   1.305
    1STR   H19564396   3.629   6.942   1.314
    1STR   C19664397   3.831   6.943   1.121
    1STR   H19764398   3.815   6.849   1.172
    1STR   H19864399   3.779   6.935   1.025
    1STR   O19964400   3.969   6.963   1.091
    1STR   C20064401   4.060   6.912   1.187
    1STR   H20164402   4.025   6.933   1.287
    1STR   C20264403   4.069   6.760   1.171
    1STR   H20364404   4.077   6.730   1.067
    1STR   H20464405   3.983   6.708   1.212
    1STR   H20564406   4.158   6.725   1.223
    1STR   C20664407   4.197   6.982   1.169
    1STR   H20764408   4.274   6.912   1.142
    1STR   H20864409   4.193   7.051   1.085
    1STR   O20964410   4.249   7.037   1.288
    1STR   C21064411   4.236   7.177   1.300
    1STR   H21164412   4.261   7.219   1.206
    1STR   C21264413   4.096   7.218   1.325
    1STR   H21364414   4.076   7.317   1.289
    1STR   H21464415   4.089   7.232   1.429
    1STR   H21564416   4.023   7.148   1.289
    1STR   C21664417   4.319   7.235   1.414
    1STR   H21764418   4.286   7.189   1.508
    1STR   H21864419   4.424   7.217   1.406
    1STR   O21964420   4.294   7.374   1.409
    1STR   C22064421   4.312   7.441   1.530
    1STR   H22164422   4.320   7.370   1.609
    1STR   C22264423   4.443   7.519   1.519
    1STR   H22364424   4.443   7.581   1.430
    1STR   H22464425   4.528   7.452   1.512
    1STR   H22564426   4.459   7.583   1.606
    1STR   C22664427   4.187   7.525   1.558
    1STR   H22764428   4.183   7.548   1.664
    1STR   H22864429   4.195   7.620   1.507
    1STR   O22964430   4.070   7.456   1.512
    1STR   C23064431   3.970   7.427   1.608
    1STR   H23164432   4.016   7.381   1.696
    1STR   C23264433   3.906   7.561   1.649
    1STR   H23364434   3.870   7.614   1.560
    1STR   H23464435   3.976   7.627   1.699
    1STR   H23564436   3.821   7.546   1.716
    1STR   C23664437   3.860   7.332   1.550
    1STR   H23764438   3.776   7.329   1.619
    1STR   H23864439   3.820   7.380   1.461
    1STR   O23964440   3.892   7.195   1.514
    1STR   C24064441   3.977   7.118   1.601
    1STR   H24164442   4.071   7.169   1.624
    1STR   C24264443   3.899   7.110   1.728
    1STR   H24364444   3.957   7.055   1.799
    1STR   H24464445   3.806   7.057   1.706
    1STR   H24564446   3.878   7.207   1.771
    1STR   C24664447   4.006   6.973   1.551
    1STR   H24764448   3.992   6.908   1.637
    1STR   H24864449   3.930   6.941   1.481
    1STR   O24964450   4.139   6.944   1.501
    1STR   C25064451   4.199   6.815   1.526
    1STR   H25164452   4.230   6.826   1.629
    1STR   C25264453   4.101   6.696   1.513
    1STR   H25364454   4.084   6.667   1.410
    1STR   H25464455   4.003   6.714   1.552
    1STR   H25564456   4.141   6.608   1.563
    1STR   C25664457   4.326   6.781   1.441
    1STR   H25764458   4.315   6.682   1.396
    1STR   H25864459   4.339   6.844   1.355
    1STR   O25964460   4.449   6.769   1.513
    1STR   C26064461   4.554   6.859   1.477
    1STR   H26164462   4.555   6.876   1.369
    1STR   C26264463   4.509   6.989   1.542
    1STR   H26364464   4.518   6.986   1.648
    1STR   H26464465   4.405   7.009   1.520
    1STR   H26564466   4.565   7.074   1.505
    1STR   C26664467   4.695   6.800   1.518
    1STR   H26764468   4.703   6.782   1.624
    1STR   H26864469   4.707   6.700   1.480
    1STR   O26964470   4.807   6.876   1.467
    1STR   C27064471   4.942   6.844   1.504
    1STR   H27164472   4.946   6.824   1.611
    1STR   C27264473   4.999   6.721   1.435
    1STR   H27364474   5.034   6.741   1.335
    1STR   H27464475   4.927   6.641   1.430
    1STR   H27564476   5.085   6.684   1.490
    1STR   C27664477   5.036   6.962   1.469
    1STR   H27764478   5.138   6.930   1.489
    1STR   H27864479   5.035   6.980   1.363
    1STR   O27964480   5.002   7.082   1.538
    1STR   C28064481   5.087   7.198   1.530
    1STR   H28164482   5.159   7.203   1.609
    1STR   C28264483   5.169   7.203   1.399
    1STR   H28364484   5.105   7.201   1.312
    1STR   H28464485   5.239   7.119   1.393
    1STR   H28564486   5.229   7.293   1.395
    1STR   C28664487   4.997   7.321   1.544
    1STR   H28764488   5.029   7.393   1.470
    1STR   H28864489   4.901   7.279   1.520
    1STR   O28964490   4.959   7.388   1.664
    1STR   C29064491   4.871   7.499   1.636
    1STR   H29164492   4.801   7.472   1.560
    1STR   C29264493   4.768   7.532   1.742
    1STR   H29364494   4.670   7.501   1.708
    1STR   H29464495   4.757   7.638   1.758
    1STR   H29564496   4.789   7.489   1.838
    1STR   C29664497   4.948   7.622   1.591
    1STR   H29764498   5.013   7.656   1.669
    1STR   H29864499   5.014   7.599   1.509
    1STR   O29964500   4.856   7.718   1.545
    1STR   C30064501   4.835   7.837   1.616
    1STR   H30164502   4.833   7.824   1.724
    1STR   C30264503   4.952   7.926   1.577
    1STR   H30364504   4.922   8.007   1.511
    1STR   H30464505   5.033   7.872   1.530
    1STR   H30564506   4.994   7.967   1.669
    1STR   C30664507   4.694   7.882   1.569
    1STR   H30764508   4.672   7.988   1.580
    1STR   H30864509   4.691   7.868   1.463
    1STR   O30964510   4.591   7.800   1.623
    1STR    H1R64511   4.575   7.935   1.777
    1STR    H1S64512   4.332   7.979   1.743
    1STR    H1T64513   4.327   7.855   1.617
    1STR    H1U64514   4.418   8.004   1.591
    1STR    H1V64515   4.477   7.801   1.930
    1STR    H1W64516   4.559   7.683   1.838
    1STR    H1X64517   4.113   7.625   1.989
    1STR    H1Y64518   4.031   7.408   2.009
    1STR    H1Z64519   4.047   7.169   1.957
    1STR    H2064520   4.339   7.002   1.788
    1STR    H2164521   4.228   6.976   1.921
    1STR    H2264522   4.170   7.012   1.757
    1STR    H2364523   4.449   7.142   1.705
    1STR    H2764524   4.415   7.470   1.827
    1STR    H2864525   4.486   7.417   0.580
    1STR    H2964526   4.592   7.613   0.673
    1STR    H2A64527   4.803   7.763   0.697
    1STR    H2B64528   4.960   7.692   0.664
    1STR    H2C64529   4.869   7.642   0.800
    1STR   BCK164530   4.667   6.637   2.786
    1STR    O0364531   4.681   6.643   2.665
    1STR    N0464532   4.668   6.528   2.858
    1STR    C0564533   4.764   6.433   2.838
    1STR    C0664534   4.883   6.470   2.772
    1STR    C0764535   5.002   6.404   2.797
    1STR    N0864536   5.114   6.471   2.752
    1STR    C0964537   5.242   6.451   2.778
    1STR    O0A64538   5.289   6.346   2.822
    1STR    O0B64539   5.304   6.566   2.765
    1STR    C0C64540   5.407   6.600   2.855
    1STR    C0D64541   5.532   6.519   2.818
    1STR    C0E64542   5.426   6.752   2.853
    1STR    O0F64543   5.352   6.819   2.953
    1STR    C0G64544   5.242   6.901   2.917
    1STR    C0H64545   5.143   6.826   2.829
    1STR    C0I64546   5.182   6.971   3.043
    1STR    O0J64547   5.044   7.008   3.034
    1STR    C0K64548   4.817   6.467   4.272
    1STR    C0M64549   4.716   6.567   4.329
    1STR    C0N64550   4.822   6.342   4.355
    1STR    O0O64551   4.955   6.294   4.354
    1STR    C0P64552   5.005   6.250   4.468
    1STR    O0Q64553   4.940   6.232   4.569
    1STR    N0R64554   5.137   6.232   4.471
    1STR    C0S64555   5.239   6.242   4.378
    1STR    C0T64556   5.358   6.172   4.404
    1STR    C0U64557   5.466   6.179   4.314
    1STR    C0V64558   5.458   6.262   4.200
    1STR    C0W64559   5.578   6.273   4.108
    1STR    C0X64560   5.341   6.337   4.175
    1STR    N0Y64561   5.343   6.429   4.071
    1STR   BCK264562   5.290   6.552   4.060
    1STR    O1064563   5.317   6.621   3.963
    1STR    C1364564   5.230   6.321   4.261
    1STR    C1464565   5.001   6.293   2.882
    1STR    C1564566   4.880   6.254   2.943
    1STR    C1664567   4.758   6.319   2.918
    1STR    C1764568   4.626   6.279   2.985
    1STR    H1B64569   4.639   6.535   2.955
    1STR    H1C64570   4.889   6.558   2.712
    1STR    H1D64571   5.099   6.559   2.703
    1STR    H1E64572   5.377   6.571   2.954
    1STR    H1F64573   5.518   6.484   2.717
    1STR    H1G64574   5.625   6.574   2.827
    1STR    H1H64575   5.538   6.428   2.876
    1STR    H1I64576   5.402   6.786   2.754
    1STR    H1J64577   5.530   6.777   2.874
    1STR    H1K64578   5.281   6.978   2.856
    1STR    H1M64579   5.089   6.748   2.882
    1STR    H1N64580   5.188   6.782   2.741
    1STR    H1O64581   5.074   6.900   2.790
    1STR    H1P64582   5.196   6.909   3.131
    1STR    H1Q64583   5.244   7.059   3.060
    1STR   C01064584   4.994   7.086   3.144
    1STR   H01164585   5.030   7.036   3.231
    1STR   C01264586   5.056   7.227   3.147
    1STR   H01364587   5.047   7.276   3.050
    1STR   H01464588   5.162   7.225   3.173
    1STR   H01564589   5.007   7.290   3.221
    1STR   C01664590   4.839   7.095   3.157
    1STR   H01764591   4.810   7.145   3.248
    1STR   H01864592   4.805   7.164   3.082
    1STR   O01964593   4.769   6.969   3.148
    1STR   C02064594   4.632   6.957   3.192
    1STR   H02164595   4.624   6.980   3.297
    1STR   C02264596   4.548   7.060   3.117
    1STR   H02364597   4.557   7.046   3.011
    1STR   H02464598   4.578   7.162   3.141
    1STR   H02564599   4.442   7.049   3.139
    1STR   C02664600   4.585   6.812   3.157
    1STR   H02764601   4.523   6.821   3.070
    1STR   H02864602   4.672   6.750   3.139
    1STR   O02964603   4.499   6.736   3.240
    1STR   C03064604   4.451   6.605   3.200
    1STR   H03164605   4.367   6.583   3.264
    1STR   C03264606   4.392   6.583   3.062
    1STR   H03364607   4.461   6.605   2.983
    1STR   H03464608   4.300   6.637   3.049
    1STR   H03564609   4.362   6.479   3.054
    1STR   C03664610   4.549   6.496   3.235
    1STR   H03764611   4.575   6.513   3.337
    1STR   H03864612   4.503   6.398   3.230
    1STR   O03964613   4.661   6.504   3.152
    1STR   C04064614   4.779   6.472   3.223
    1STR   H04164615   4.780   6.526   3.316
    1STR   C04264616   4.794   6.326   3.264
    1STR   H04364617   4.863   6.320   3.348
    1STR   H04464618   4.838   6.265   3.189
    1STR   H04564619   4.700   6.281   3.293
    1STR   C04664620   4.893   6.528   3.143
    1STR   H04764621   4.881   6.514   3.037
    1STR   H04864622   4.889   6.636   3.156
    1STR   O04964623   5.012   6.467   3.186
    1STR   C05064624   5.124   6.510   3.111
    1STR   H05164625   5.105   6.499   3.006
    1STR   C05264626   5.147   6.660   3.131
    1STR   H05364627   5.182   6.689   3.229
    1STR   H05464628   5.064   6.725   3.103
    1STR   H05564629   5.227   6.685   3.067
    1STR   C05664630   5.245   6.423   3.147
    1STR   H05764631   5.226   6.361   3.235
    1STR   H05864632   5.268   6.354   3.066
    1STR   O05964633   5.351   6.514   3.168
    1STR   C06064634   5.473   6.478   3.226
    1STR   H06164635   5.459   6.474   3.334
    1STR   C06264636   5.523   6.342   3.175
    1STR   H06364637   5.523   6.339   3.066
    1STR   H06464638   5.459   6.261   3.209
    1STR   H06564639   5.625   6.323   3.209
    1STR   C06664640   5.565   6.596   3.189
    1STR   H06764641   5.662   6.584   3.237
    1STR   H06864642   5.584   6.597   3.082
    1STR   O06964643   5.501   6.719   3.222
    1STR   C07064644   5.581   6.837   3.217
    1STR   H07164645   5.658   6.828   3.140
    1STR   C07264646   5.489   6.955   3.186
    1STR   H07364647   5.391   6.941   3.232
    1STR   H07464648   5.476   6.968   3.079
    1STR   H07564649   5.526   7.050   3.223
    1STR   C07664650   5.646   6.860   3.354
    1STR   H07764651   5.723   6.936   3.350
    1STR   H07864652   5.569   6.901   3.419
    1STR   O07964653   5.702   6.739   3.403
    1STR   C08064654   5.695   6.715   3.543
    1STR   H08164655   5.755   6.625   3.558
    1STR   C08264656   5.763   6.831   3.618
    1STR   H08364657   5.700   6.920   3.621
    1STR   H08464658   5.858   6.857   3.571
    1STR   H08564659   5.786   6.802   3.719
    1STR   C08664660   5.551   6.683   3.588
    1STR   H08764661   5.507   6.617   3.513
    1STR   H08864662   5.547   6.629   3.683
    1STR   O08964663   5.482   6.806   3.601
    1STR   C09064664   5.341   6.807   3.598
    1STR   H09164665   5.301   6.776   3.694
    1STR   C09264666   5.311   6.955   3.574
    1STR   H09364667   5.204   6.972   3.579
    1STR   H09464668   5.345   6.987   3.476
    1STR   H09564669   5.358   7.019   3.649
    1STR   C09664670   5.278   6.724   3.486
    1STR   H09764671   5.191   6.777   3.450
    1STR   H09864672   5.341   6.714   3.398
    1STR   O09964673   5.242   6.597   3.539
    1STR   C10064674   5.144   6.529   3.462
    1STR   H10164675   5.180   6.525   3.361
    1STR   C10264676   5.137   6.384   3.514
    1STR   H10364677   5.111   6.379   3.619
    1STR   H10464678   5.232   6.334   3.500
    1STR   H10564679   5.063   6.327   3.457
    1STR   C10664680   5.008   6.600   3.462
    1STR   H10764681   4.928   6.530   3.450
    1STR   H10864682   4.996   6.648   3.555
    1STR   O10964683   4.995   6.700   3.363
    1STR   C11064684   4.900   6.804   3.376
    1STR   H11164685   4.890   6.831   3.272
    1STR   C11264686   4.760   6.766   3.424
    1STR   H11364687   4.754   6.720   3.520
    1STR   H11464688   4.704   6.704   3.357
    1STR   H11564689   4.699   6.854   3.435
    1STR   C11664690   4.959   6.927   3.445
    1STR   H11764691   4.987   6.911   3.545
    1STR   H11864692   5.056   6.950   3.403
    1STR   O11964693   4.868   7.036   3.435
    1STR   C12064694   4.875   7.138   3.533
    1STR   H12164695   4.835   7.100   3.627
    1STR   C12264696   5.019   7.187   3.554
    1STR   H12364697   5.075   7.186   3.461
    1STR   H12464698   5.069   7.125   3.628
    1STR   H12564699   5.022   7.289   3.592
    1STR   C12664700   4.788   7.256   3.488
    1STR   H12764701   4.776   7.324   3.572
    1STR   H12864702   4.844   7.308   3.411
    1STR   O12964703   4.658   7.226   3.435
    1STR   C13064704   4.568   7.338   3.431
    1STR   H13164705   4.541   7.366   3.533
    1STR   C13264706   4.638   7.460   3.374
    1STR   H13364707   4.655   7.449   3.267
    1STR   H13464708   4.730   7.490   3.422
    1STR   H13564709   4.571   7.541   3.396
    1STR   C13664710   4.439   7.305   3.351
    1STR   H13764711   4.431   7.371   3.268
    1STR   H13864712   4.450   7.205   3.312
    1STR   O13964713   4.314   7.324   3.417
    1STR   C14064714   4.193   7.262   3.369
    1STR   H14164715   4.148   7.226   3.460
    1STR   C14264716   4.085   7.364   3.330
    1STR   H14364717   4.085   7.392   3.225
    1STR   H14464718   4.093   7.453   3.392
    1STR   H14564719   3.986   7.323   3.348
    1STR   C14664720   4.202   7.139   3.272
    1STR   H14764721   4.103   7.096   3.257
    1STR   H14864722   4.235   7.172   3.173
    1STR   O14964723   4.295   7.040   3.319
    1STR   C15064724   4.251   6.906   3.340
    1STR   H15164725   4.157   6.902   3.386
    1STR   C15264726   4.219   6.834   3.214
    1STR   H15364727   4.309   6.834   3.155
    1STR   H15464728   4.137   6.884   3.162
    1STR   H15564729   4.188   6.731   3.233
    1STR   C15664730   4.344   6.833   3.438
    1STR   H15764731   4.449   6.859   3.425
    1STR   H15864732   4.320   6.870   3.534
    1STR   O15964733   4.320   6.694   3.451
    1STR   C16064734   4.369   6.644   3.575
    1STR   H16164735   4.443   6.711   3.618
    1STR   C16264736   4.246   6.638   3.666
    1STR   H16364737   4.170   6.570   3.628
    1STR   H16464738   4.200   6.736   3.676
    1STR   H16564739   4.271   6.609   3.768
    1STR   C16664740   4.436   6.509   3.556
    1STR   H16764741   4.402   6.446   3.638
    1STR   H16864742   4.400   6.459   3.467
    1STR   O16964743   4.580   6.523   3.556
    1STR   C17064744   4.653   6.416   3.616
    1STR   H17164745   4.596   6.400   3.704
    1STR   C17264746   4.640   6.280   3.547
    1STR   H17364747   4.735   6.245   3.508
    1STR   H17464748   4.565   6.281   3.468
    1STR   H17564749   4.608   6.203   3.618
    1STR   C17664750   4.795   6.453   3.667
    1STR   H17764751   4.811   6.413   3.765
    1STR   H17864752   4.872   6.406   3.607
    1STR   O17964753   4.818   6.591   3.681
    1STR   C18064754   4.902   6.641   3.785
    1STR   H18164755   4.839   6.640   3.874
    1STR   C18264756   5.033   6.566   3.809
    1STR   H18364757   5.111   6.588   3.737
    1STR   H18464758   5.022   6.459   3.809
    1STR   H18564759   5.074   6.593   3.906
    1STR   C18664760   4.940   6.787   3.754
    1STR   H18764761   4.982   6.838   3.840
    1STR   H18864762   5.029   6.788   3.693
    1STR   O18964763   4.833   6.862   3.693
    1STR   C19064764   4.707   6.866   3.757
    1STR   H19164765   4.667   6.767   3.760
    1STR   C19264766   4.753   6.917   3.892
    1STR   H19364767   4.807   7.012   3.890
    1STR   H19464768   4.806   6.844   3.948
    1STR   H19564769   4.672   6.922   3.955
    1STR   C19664770   4.603   6.960   3.688
    1STR   H19764771   4.635   7.056   3.725
    1STR   H19864772   4.623   6.967   3.581
    1STR   O19964773   4.458   6.934   3.702
    1STR   C20064774   4.362   7.047   3.703
    1STR   H20164775   4.334   7.065   3.804
    1STR   C20264776   4.432   7.163   3.636
    1STR   H20364777   4.466   7.128   3.539
    1STR   H20464778   4.513   7.207   3.693
    1STR   H20564779   4.363   7.244   3.618
    1STR   C20664780   4.219   7.053   3.639
    1STR   H20764781   4.173   7.148   3.669
    1STR   H20864782   4.237   7.062   3.535
    1STR   O20964783   4.117   6.955   3.657
    1STR   C21064784   4.006   6.966   3.565
    1STR   H21164785   4.036   7.017   3.475
    1STR   C21264786   3.961   6.823   3.527
    1STR   H21364787   3.921   6.770   3.611
    1STR   H21464788   4.044   6.762   3.492
    1STR   H21564789   3.885   6.825   3.448
    1STR   C21664790   3.889   7.061   3.595
    1STR   H21764791   3.925   7.162   3.579
    1STR   H21864792   3.810   7.050   3.522
    1STR   O21964793   3.842   7.060   3.727
    1STR   C22064794   3.746   6.966   3.771
    1STR   H22164795   3.708   7.023   3.854
    1STR   C22264796   3.634   6.940   3.670
    1STR   H22364797   3.669   6.881   3.585
    1STR   H22464798   3.593   7.034   3.632
    1STR   H22564799   3.551   6.884   3.713
    1STR   C22664800   3.808   6.840   3.834
    1STR   H22764801   3.764   6.814   3.930
    1STR   H22864802   3.785   6.753   3.772
    1STR   O22964803   3.948   6.851   3.843
    1STR   C23064804   4.003   6.903   3.963
    1STR   H23164805   3.936   6.888   4.047
    1STR   C23264806   4.122   6.810   3.980
    1STR   H23364807   4.091   6.707   3.987
    1STR   H23464808   4.174   6.836   4.070
    1STR   H23564809   4.192   6.820   3.897
    1STR   C23664810   4.050   7.050   3.956
    1STR   H23764811   4.116   7.069   4.040
    1STR   H23864812   4.114   7.060   3.869
    1STR   O23964813   3.948   7.151   3.955
    1STR   C24064814   3.974   7.266   3.872
    1STR   H24164815   3.995   7.233   3.771
    1STR   C24264816   3.848   7.352   3.868
    1STR   H24364817   3.830   7.400   3.963
    1STR   H24464818   3.761   7.292   3.842
    1STR   H24564819   3.858   7.431   3.793
    1STR   C24664820   4.095   7.346   3.916
    1STR   H24764821   4.080   7.383   4.016
    1STR   H24864822   4.177   7.277   3.920
    1STR   O24964823   4.121   7.464   3.841
    1STR   C25064824   4.248   7.483   3.778
    1STR   H25164825   4.229   7.456   3.674
    1STR   C25264826   4.278   7.633   3.780
    1STR   H25364827   4.193   7.691   3.743
    1STR   H25464828   4.365   7.657   3.720
    1STR   H25564829   4.298   7.666   3.881
    1STR   C25664830   4.371   7.399   3.819
    1STR   H25764831   4.350   7.294   3.822
    1STR   H25864832   4.442   7.414   3.738
    1STR   O25964833   4.453   7.427   3.931
    1STR   C26064834   4.414   7.390   4.063
    1STR   H26164835   4.502   7.401   4.124
    1STR   C26264836   4.332   7.501   4.114
    1STR   H26364837   4.320   7.491   4.221
    1STR   H26464838   4.236   7.507   4.065
    1STR   H26564839   4.383   7.592   4.092
    1STR   C26664840   4.358   7.252   4.100
    1STR   H26764841   4.395   7.225   4.198
    1STR   H26864842   4.253   7.262   4.119
    1STR   O26964843   4.373   7.148   4.005
    1STR   C27064844   4.489   7.066   4.000
    1STR   H27164845   4.512   7.058   3.896
    1STR   C27264846   4.618   7.138   4.046
    1STR   H27364847   4.604   7.213   4.122
    1STR   H27464848   4.664   7.186   3.960
    1STR   H27564849   4.692   7.072   4.090
    1STR   C27664850   4.461   6.917   4.042
    1STR   H27764851   4.530   6.890   4.121
    1STR   H27864852   4.361   6.916   4.078
    1STR   O27964853   4.466   6.809   3.947
    1STR   C28064854   4.538   6.690   3.988
    1STR   H28164855   4.643   6.711   4.002
    1STR   C28264856   4.488   6.629   4.116
    1STR   H28364857   4.389   6.588   4.101
    1STR   H28464858   4.494   6.695   4.202
    1STR   H28564859   4.552   6.545   4.138
    1STR   C28664860   4.527   6.576   3.886
    1STR   H28764861   4.426   6.539   3.887
    1STR   H28864862   4.541   6.613   3.786
    1STR   O28964863   4.626   6.474   3.909
    1STR   C29064864   4.588   6.339   3.941
    1STR   H29164865   4.582   6.344   4.048
    1STR   C29264866   4.448   6.296   3.893
    1STR   H29364867   4.426   6.315   3.790
    1STR   H29464868   4.370   6.340   3.955
    1STR   H29564869   4.436   6.189   3.903
    1STR   C29664870   4.695   6.231   3.900
    1STR   H29764871   4.641   6.137   3.890
    1STR   H29864872   4.737   6.236   3.801
    1STR   O29964873   4.793   6.192   3.996
    1STR   C30064874   4.913   6.262   4.023
    1STR   H30164875   4.953   6.221   4.115
    1STR   C30264876   5.017   6.227   3.916
    1STR   H30364877   5.110   6.281   3.933
    1STR   H30464878   4.981   6.246   3.816
    1STR   H30564879   5.040   6.120   3.922
    1STR   C30664880   4.891   6.410   4.052
    1STR   H30764881   4.984   6.459   4.080
    1STR   H30864882   4.859   6.455   3.961
    1STR   O30964883   4.783   6.437   4.140
    1STR    H1R64884   4.916   6.513   4.273
    1STR    H1S64885   4.748   6.611   4.422
    1STR    H1T64886   4.617   6.530   4.348
    1STR    H1U64887   4.707   6.645   4.255
    1STR    H1V64888   4.752   6.271   4.316
    1STR    H1W64889   4.785   6.364   4.455
    1STR    H1X64890   5.161   6.200   4.563
    1STR    H1Y64891   5.368   6.110   4.492
    1STR    H1Z64892   5.555   6.122   4.334
    1STR    H2064893   5.551   6.240   4.008
    1STR    H2164894   5.611   6.377   4.103
    1STR    H2264895   5.661   6.213   4.143
    1STR    H2364896   5.407   6.411   3.995
    1STR    H2764897   5.138   6.373   4.241
    1STR    H2864898   5.092   6.241   2.908
    1STR    H2964899   4.884   6.175   3.015
    1STR    H2A64900   4.640   6.233   3.082
    1STR    H2B64901   4.570   6.208   2.926
    1STR    H2C64902   4.556   6.361   2.997
    1STR   BCK164903   4.889   7.039   5.001
    1STR    O0364904   4.880   7.050   4.881
    1STR    N0464905   4.825   7.115   5.087
    1STR    C0564906   4.764   7.234   5.052
    1STR    C0664907   4.623   7.248   5.029
    1STR    C0764908   4.568   7.375   4.999
    1STR    N0864909   4.431   7.396   4.975
    1STR    C0964910   4.344   7.490   5.019
    1STR    O0A64911   4.234   7.501   4.967
    1STR    O0B64912   4.378   7.564   5.122
    1STR    C0C64913   4.289   7.594   5.231
    1STR    C0D64914   4.158   7.667   5.199
    1STR    C0E64915   4.270   7.469   5.315
    1STR    O0F64916   4.389   7.434   5.383
    1STR    C0G64917   4.493   7.380   5.304
    1STR    C0H64918   4.601   7.486   5.290
    1STR    C0I64919   4.540   7.237   5.331
    1STR    O0J64920   4.451   7.149   5.264
    1STR    C0K64921   5.355   7.565   6.341
    1STR    C0M64922   5.281   7.698   6.362
    1STR    C0N64923   5.373   7.478   6.467
    1STR    O0O64924   5.344   7.541   6.590
    1STR    C0P64925   5.320   7.469   6.703
    1STR    O0Q64926   5.365   7.506   6.809
    1STR    N0R64927   5.237   7.364   6.702
    1STR    C0S64928   5.110   7.356   6.644
    1STR    C0T64929   5.065   7.458   6.561
    1STR    C0U64930   4.931   7.467   6.528
    1STR    C0V64931   4.839   7.375   6.574
    1STR    C0W64932   4.694   7.398   6.546
    1STR    C0X64933   4.885   7.258   6.629
    1STR    N0Y64934   4.794   7.154   6.618
    1STR   BCK264935   4.808   7.050   6.537
    1STR    O1064936   4.716   6.994   6.483
    1STR    C1364937   5.019   7.252   6.675
    1STR    C1464938   4.656   7.482   4.991
    1STR    C1564939   4.792   7.467   5.013
    1STR    C1664940   4.849   7.344   5.038
    1STR    C1764941   5.001   7.336   5.035
    1STR    H1B64942   4.844   7.091   5.183
    1STR    H1C64943   4.556   7.164   5.033
    1STR    H1D64944   4.381   7.318   4.937
    1STR    H1E64945   4.340   7.658   5.301
    1STR    H1F64946   4.089   7.605   5.142
    1STR    H1G64947   4.107   7.697   5.290
    1STR    H1H64948   4.179   7.758   5.144
    1STR    H1I64949   4.240   7.386   5.254
    1STR    H1J64950   4.192   7.488   5.388
    1STR    H1K64951   4.449   7.362   5.208
    1STR    H1M64952   4.602   7.553   5.374
    1STR    H1N64953   4.581   7.554   5.210
    1STR    H1O64954   4.700   7.445   5.271
    1STR    H1P64955   4.637   7.224   5.287
    1STR    H1Q64956   4.554   7.216   5.436
    1STR   C01064957   4.475   7.013   5.290
    1STR   H01164958   4.519   7.002   5.387
    1STR   C01264959   4.342   6.948   5.295
    1STR   H01364960   4.306   6.957   5.194
    1STR   H01464961   4.275   7.002   5.359
    1STR   H01564962   4.346   6.845   5.324
    1STR   C01664963   4.554   6.937   5.186
    1STR   H01764964   4.488   6.895   5.111
    1STR   H01864965   4.623   6.999   5.131
    1STR   O01964966   4.619   6.830   5.251
    1STR   C02064967   4.755   6.854   5.278
    1STR   H02164968   4.791   6.876   5.181
    1STR   C02264969   4.778   6.973   5.370
    1STR   H02364970   4.872   6.963   5.418
    1STR   H02464971   4.709   6.977   5.452
    1STR   H02564972   4.774   7.069   5.323
    1STR   C02664973   4.832   6.729   5.322
    1STR   H02764974   4.813   6.705   5.426
    1STR   H02864975   4.793   6.644   5.267
    1STR   O02964976   4.971   6.741   5.288
    1STR   C03064977   5.060   6.791   5.385
    1STR   H03164978   5.002   6.807   5.473
    1STR   C03264979   5.157   6.676   5.413
    1STR   H03364980   5.217   6.652   5.325
    1STR   H03464981   5.102   6.586   5.440
    1STR   H03564982   5.225   6.700   5.495
    1STR   C03664983   5.137   6.923   5.353
    1STR   H03764984   5.209   6.941   5.432
    1STR   H03864985   5.197   6.902   5.267
    1STR   O03964986   5.058   7.042   5.330
    1STR   C04064987   5.116   7.168   5.366
    1STR   H04164988   5.135   7.165   5.471
    1STR   C04264989   5.246   7.193   5.290
    1STR   H04364990   5.310   7.107   5.298
    1STR   H04464991   5.300   7.277   5.332
    1STR   H04564992   5.231   7.212   5.184
    1STR   C04664993   5.023   7.288   5.343
    1STR   H04764994   5.076   7.365   5.287
    1STR   H04864995   4.939   7.258   5.281
    1STR   O04964996   4.986   7.359   5.461
    1STR   C05064997   4.850   7.340   5.495
    1STR   H05164998   4.791   7.312   5.409
    1STR   C05264999   4.841   7.219   5.588
    1STR   H05365000   4.876   7.133   5.535
    1STR   H05465001   4.738   7.198   5.619
    1STR   H05565002   4.905   7.220   5.675
    1STR   C05665003   4.785   7.473   5.540
    1STR   H05765004   4.830   7.527   5.621
    1STR   H05865005   4.793   7.545   5.459
    1STR   O05965006   4.650   7.436   5.564
    1STR   C06065007   4.567   7.513   5.649
    1STR   H06165008   4.615   7.518   5.745
    1STR   C06265009   4.538   7.656   5.600
    1STR   H06365010   4.470   7.656   5.515
    1STR   H06465011   4.628   7.708   5.570
    1STR   H06565012   4.491   7.714   5.679
    1STR   C06665013   4.438   7.432   5.665
    1STR   H06765014   4.411   7.440   5.769
    1STR   H06865015   4.355   7.476   5.610
    1STR   O06965016   4.460   7.298   5.623
    1STR   C07065017   4.352   7.205   5.616
    1STR   H07165018   4.293   7.220   5.702
    1STR   C07265019   4.244   7.231   5.515
    1STR   H07365020   4.277   7.217   5.413
    1STR   H07465021   4.201   7.330   5.526
    1STR   H07565022   4.164   7.162   5.537
    1STR   C07665023   4.398   7.058   5.615
    1STR   H07765024   4.349   7.017   5.701
    1STR   H07865025   4.347   7.001   5.541
    1STR   O07965026   4.539   7.029   5.612
    1STR   C08065027   4.573   6.893   5.642
    1STR   H08165028   4.507   6.860   5.715
    1STR   C08265029   4.534   6.788   5.542
    1STR   H08365030   4.605   6.787   5.463
    1STR   H08465031   4.433   6.800   5.505
    1STR   H08565032   4.539   6.688   5.582
    1STR   C08665033   4.707   6.866   5.710
    1STR   H08765034   4.703   6.900   5.812
    1STR   H08865035   4.714   6.758   5.713
    1STR   O08965036   4.825   6.914   5.652
    1STR   C09065037   4.940   6.864   5.720
    1STR   H09165038   4.929   6.873   5.827
    1STR   C09265039   4.954   6.713   5.699
    1STR   H09365040   4.918   6.675   5.604
    1STR   H09465041   4.896   6.659   5.773
    1STR   H09565042   5.057   6.685   5.711
    1STR   C09665043   5.063   6.941   5.669
    1STR   H09765044   5.147   6.872   5.656
    1STR   H09865045   5.037   6.984   5.573
    1STR   O09965046   5.107   7.054   5.741
    1STR   C10065047   5.236   7.097   5.699
    1STR   H10165048   5.264   7.058   5.601
    1STR   C10265049   5.236   7.250   5.684
    1STR   H10365050   5.285   7.301   5.767
    1STR   H10465051   5.134   7.288   5.673
    1STR   H10565052   5.285   7.282   5.592
    1STR   C10665053   5.333   7.037   5.801
    1STR   H10765054   5.414   7.106   5.823
    1STR   H10865055   5.279   7.015   5.893
    1STR   O10965056   5.385   6.916   5.745
    1STR   C11065057   5.460   6.830   5.830
    1STR   H11165058   5.521   6.768   5.764
    1STR   C11265059   5.558   6.906   5.921
    1STR   H11365060   5.507   6.961   5.998
    1STR   H11465061   5.619   6.976   5.862
    1STR   H11565062   5.627   6.837   5.970
    1STR   C11665063   5.368   6.733   5.904
    1STR   H11765064   5.427   6.672   5.973
    1STR   H11865065   5.294   6.788   5.961
    1STR   O11965066   5.305   6.648   5.808
    1STR   C12065067   5.241   6.533   5.862
    1STR   H12165068   5.314   6.471   5.915
    1STR   C12265069   5.132   6.574   5.963
    1STR   H12365070   5.064   6.649   5.923
    1STR   H12465071   5.172   6.618   6.053
    1STR   H12565072   5.072   6.489   5.994
    1STR   C12665073   5.189   6.449   5.743
    1STR   H12765074   5.155   6.513   5.662
    1STR   H12865075   5.272   6.393   5.699
    1STR   O12965076   5.085   6.361   5.783
    1STR   C13065077   5.010   6.304   5.677
    1STR   H13165078   4.986   6.380   5.603
    1STR   C13265079   5.092   6.192   5.611
    1STR   H13365080   5.124   6.118   5.685
    1STR   H13465081   5.181   6.231   5.561
    1STR   H13565082   5.033   6.140   5.535
    1STR   C13665083   4.878   6.250   5.735
    1STR   H13765084   4.873   6.142   5.723
    1STR   H13865085   4.873   6.270   5.842
    1STR   O13965086   4.769   6.314   5.668
    1STR   C14065087   4.636   6.271   5.698
    1STR   H14165088   4.575   6.331   5.630
    1STR   C14265089   4.615   6.123   5.663
    1STR   H14365090   4.671   6.057   5.729
    1STR   H14465091   4.646   6.103   5.561
    1STR   H14565092   4.510   6.095   5.673
    1STR   C14665093   4.584   6.306   5.839
    1STR   H14765094   4.484   6.349   5.836
    1STR   H14865095   4.578   6.217   5.900
    1STR   O14965096   4.678   6.391   5.900
    1STR   C15065097   4.637   6.517   5.950
    1STR   H15165098   4.579   6.506   6.039
    1STR   C15265099   4.775   6.572   5.990
    1STR   H15365100   4.854   6.530   5.928
    1STR   H15465101   4.800   6.542   6.092
    1STR   H15565102   4.781   6.680   5.987
    1STR   C15665103   4.556   6.609   5.856
    1STR   H15765104   4.589   6.711   5.874
    1STR   H15865105   4.577   6.581   5.753
    1STR   O15965106   4.415   6.611   5.884
    1STR   C16065107   4.334   6.715   5.825
    1STR   H16165108   4.359   6.725   5.720
    1STR   C16265109   4.198   6.647   5.818
    1STR   H16365110   4.203   6.558   5.755
    1STR   H16465111   4.123   6.713   5.775
    1STR   H16565112   4.163   6.614   5.916
    1STR   C16665113   4.326   6.858   5.896
    1STR   H16765114   4.238   6.912   5.862
    1STR   H16865115   4.313   6.838   5.999
    1STR   O16965116   4.437   6.949   5.889
    1STR   C17065117   4.446   7.085   5.937
    1STR   H17165118   4.466   7.085   6.042
    1STR   C17265119   4.575   7.151   5.886
    1STR   H17365120   4.571   7.181   5.782
    1STR   H17465121   4.661   7.086   5.890
    1STR   H17565122   4.599   7.241   5.941
    1STR   C17665123   4.335   7.190   5.933
    1STR   H17765124   4.334   7.228   6.032
    1STR   H17865125   4.371   7.276   5.880
    1STR   O17965126   4.200   7.162   5.900
    1STR   C18065127   4.117   7.277   5.925
    1STR   H18165128   4.152   7.329   6.013
    1STR   C18265129   4.115   7.385   5.816
    1STR   H18365130   4.093   7.344   5.718
    1STR   H18465131   4.209   7.439   5.813
    1STR   H18565132   4.039   7.460   5.839
    1STR   C18665133   3.978   7.227   5.958
    1STR   H18765134   3.901   7.280   5.902
    1STR   H18865135   3.972   7.122   5.929
    1STR   O18965136   3.965   7.254   6.097
    1STR   C19065137   3.890   7.161   6.172
    1STR   H19165138   3.892   7.197   6.275
    1STR   C19265139   3.746   7.163   6.122
    1STR   H19365140   3.684   7.100   6.185
    1STR   H19465141   3.736   7.127   6.019
    1STR   H19565142   3.706   7.265   6.124
    1STR   C19665143   3.954   7.021   6.170
    1STR   H19765144   3.902   6.958   6.242
    1STR   H19865145   3.934   6.974   6.074
    1STR   O19965146   4.095   7.028   6.193
    1STR   C20065147   4.157   6.901   6.217
    1STR   H20165148   4.115   6.861   6.307
    1STR   C20265149   4.111   6.794   6.117
    1STR   H20365150   4.096   6.836   6.017
    1STR   H20465151   4.017   6.749   6.147
    1STR   H20565152   4.185   6.717   6.110
    1STR   C20665153   4.307   6.909   6.262
    1STR   H20765154   4.313   6.995   6.328
    1STR   H20865155   4.327   6.819   6.319
    1STR   O20965156   4.414   6.925   6.171
    1STR   C21065157   4.547   6.875   6.200
    1STR   H21165158   4.576   6.889   6.304
    1STR   C21265159   4.531   6.731   6.164
    1STR   H21365160   4.488   6.725   6.067
    1STR   H21465161   4.465   6.676   6.228
    1STR   H21565162   4.626   6.681   6.162
    1STR   C21665163   4.657   6.936   6.105
    1STR   H21765164   4.626   6.909   6.006
    1STR   H21865165   4.662   7.044   6.108
    1STR   O21965166   4.790   6.886   6.103
    1STR   C22065167   4.899   6.978   6.116
    1STR   H22165168   4.887   7.030   6.211
    1STR   C22265169   5.021   6.883   6.120
    1STR   H22365170   5.103   6.927   6.177
    1STR   H22465171   5.059   6.862   6.020
    1STR   H22565172   4.997   6.785   6.161
    1STR   C22665173   4.936   7.084   6.009
    1STR   H22765174   5.028   7.121   6.052
    1STR   H22865175   4.969   7.040   5.918
    1STR   O22965176   4.853   7.194   5.969
    1STR   C23065177   4.917   7.321   5.938
    1STR   H23165178   4.888   7.386   6.017
    1STR   C23265179   5.070   7.323   5.930
    1STR   H23365180   5.110   7.229   5.895
    1STR   H23465181   5.116   7.340   6.025
    1STR   H23565182   5.109   7.400   5.864
    1STR   C23665183   4.851   7.407   5.834
    1STR   H23765184   4.923   7.416   5.753
    1STR   H23865185   4.764   7.352   5.797
    1STR   O23965186   4.803   7.533   5.882
    1STR   C24065187   4.882   7.653   5.890
    1STR   H24165188   4.887   7.680   5.995
    1STR   C24265189   5.027   7.648   5.840
    1STR   H24365190   5.037   7.602   5.742
    1STR   H24465191   5.090   7.598   5.913
    1STR   H24565192   5.068   7.749   5.833
    1STR   C24665193   4.806   7.766   5.818
    1STR   H24765194   4.866   7.857   5.812
    1STR   H24865195   4.791   7.736   5.714
    1STR   O24965196   4.677   7.800   5.870
    1STR   C25065197   4.670   7.849   6.004
    1STR   H25165198   4.701   7.772   6.074
    1STR   C25265199   4.760   7.973   6.023
    1STR   H25365200   4.738   8.050   5.949
    1STR   H25465201   4.866   7.947   6.015
    1STR   H25565202   4.747   8.016   6.122
    1STR   C25665203   4.522   7.885   6.033
    1STR   H25765204   4.519   7.971   6.100
    1STR   H25865205   4.470   7.916   5.943
    1STR   O25965206   4.448   7.786   6.104
    1STR   C26065207   4.398   7.674   6.030
    1STR   H26165208   4.360   7.704   5.932
    1STR   C26265209   4.509   7.572   6.015
    1STR   H26365210   4.555   7.563   6.112
    1STR   H26465211   4.586   7.602   5.945
    1STR   H26565212   4.474   7.474   5.984
    1STR   C26665213   4.286   7.609   6.112
    1STR   H26765214   4.201   7.676   6.123
    1STR   H26865215   4.253   7.519   6.062
    1STR   O26965216   4.339   7.580   6.241
    1STR   C27065217   4.285   7.471   6.312
    1STR   H27165218   4.333   7.481   6.409
    1STR   C27265219   4.132   7.480   6.330
    1STR   H27365220   4.080   7.474   6.235
    1STR   H27465221   4.104   7.573   6.378
    1STR   H27565222   4.094   7.398   6.391
    1STR   C27665223   4.330   7.335   6.258
    1STR   H27765224   4.331   7.260   6.336
    1STR   H27865225   4.249   7.298   6.196
    1STR   O27965226   4.455   7.340   6.187
    1STR   C28065227   4.569   7.322   6.269
    1STR   H28165228   4.549   7.391   6.349
    1STR   C28265229   4.570   7.175   6.310
    1STR   H28365230   4.494   7.120   6.259
    1STR   H28465231   4.558   7.159   6.414
    1STR   H28565232   4.667   7.130   6.291
    1STR   C28665233   4.708   7.350   6.207
    1STR   H28765234   4.717   7.282   6.124
    1STR   H28865235   4.713   7.450   6.165
    1STR   O28965236   4.817   7.330   6.300
    1STR   C29065237   4.950   7.347   6.248
    1STR   H29165238   4.943   7.278   6.168
    1STR   C29265239   4.980   7.495   6.212
    1STR   H29365240   5.061   7.504   6.140
    1STR   H29465241   5.013   7.553   6.296
    1STR   H29565242   4.896   7.547   6.168
    1STR   C29665243   5.071   7.280   6.314
    1STR   H29765244   5.129   7.354   6.364
    1STR   H29865245   5.038   7.207   6.388
    1STR   O29965246   5.157   7.221   6.218
    1STR   C30065247   5.297   7.242   6.232
    1STR   H30165248   5.325   7.224   6.336
    1STR   C30265249   5.361   7.133   6.148
    1STR   H30365250   5.339   7.152   6.044
    1STR   H30465251   5.322   7.035   6.173
    1STR   H30565252   5.470   7.132   6.160
    1STR   C30665253   5.347   7.381   6.183
    1STR   H30765254   5.455   7.387   6.194
    1STR   H30865255   5.329   7.388   6.076
    1STR   O30965256   5.282   7.492   6.243
    1STR    H1R65257   5.453   7.590   6.301
    1STR    H1S65258   5.327   7.756   6.442
    1STR    H1T65259   5.176   7.684   6.387
    1STR    H1U65260   5.284   7.757   6.271
    1STR    H1V65261   5.477   7.448   6.471
    1STR    H1W65262   5.314   7.388   6.462
    1STR    H1X65263   5.236   7.323   6.795
    1STR    H1Y65264   5.127   7.537   6.525
    1STR    H1Z65265   4.896   7.548   6.468
    1STR    H2065266   4.685   7.478   6.476
    1STR    H2165267   4.661   7.310   6.498
    1STR    H2265268   4.632   7.417   6.632
    1STR    H2365269   4.700   7.183   6.636
    1STR    H2765270   5.045   7.171   6.737
    1STR    H2865271   4.621   7.579   4.967
    1STR    H2965272   4.854   7.551   5.009
    1STR    H2A65273   5.040   7.246   5.082
    1STR    H2B65274   5.047   7.423   5.080
    1STR    H2C65275   5.036   7.332   4.932
    1STR   BCK165276   4.925   6.847   7.413
    1STR    O0365277   5.045   6.848   7.408
    1STR    N0465278   4.866   6.745   7.472
    1STR    C0565279   4.738   6.698   7.470
    1STR    C0665280   4.677   6.643   7.583
    1STR    C0765281   4.547   6.596   7.587
    1STR    N0865282   4.489   6.531   7.695
    1STR    C0965283   4.539   6.432   7.768
    1STR    O0A65284   4.471   6.384   7.859
    1STR    O0B65285   4.665   6.389   7.735
    1STR    C0C65286   4.761   6.358   7.837
    1STR    C0D65287   4.715   6.254   7.941
    1STR    C0E65288   4.909   6.337   7.784
    1STR    O0F65289   4.945   6.382   7.653
    1STR    C0G65290   4.991   6.515   7.631
    1STR    C0H65291   4.941   6.609   7.736
    1STR    C0I65292   5.142   6.542   7.622
    1STR    O0J65293   5.167   6.681   7.591
    1STR    C0K65294   4.052   6.719   8.672
    1STR    C0M65295   3.918   6.778   8.628
    1STR    C0N65296   4.088   6.592   8.593
    1STR    O0O65297   4.075   6.472   8.665
    1STR    C0P65298   3.960   6.405   8.674
    1STR    O0Q65299   3.849   6.451   8.649
    1STR    N0R65300   3.976   6.277   8.711
    1STR    C0S65301   4.098   6.212   8.717
    1STR    C0T65302   4.120   6.099   8.636
    1STR    C0U65303   4.251   6.056   8.612
    1STR    C0V65304   4.361   6.127   8.663
    1STR    C0W65305   4.497   6.086   8.612
    1STR    C0X65306   4.340   6.237   8.751
    1STR    N0Y65307   4.447   6.317   8.794
    1STR   BCK265308   4.441   6.447   8.829
    1STR    O1065309   4.339   6.514   8.829
    1STR    C1365310   4.207   6.269   8.785
    1STR    C1465311   4.472   6.618   7.474
    1STR    C1565312   4.532   6.657   7.354
    1STR    C1665313   4.665   6.694   7.351
    1STR    C1765314   4.730   6.719   7.219
    1STR    H1B65315   4.928   6.711   7.545
    1STR    H1C65316   4.718   6.646   7.678
    1STR    H1D65317   4.397   6.563   7.724
    1STR    H1E65318   4.762   6.447   7.899
    1STR    H1F65319   4.647   6.301   8.013
    1STR    H1G65320   4.659   6.173   7.896
    1STR    H1H65321   4.798   6.215   7.999
    1STR    H1I65322   4.933   6.233   7.782
    1STR    H1J65323   4.981   6.378   7.852
    1STR    H1K65324   4.949   6.533   7.533
    1STR    H1M65325   4.851   6.577   7.780
    1STR    H1N65326   4.929   6.713   7.707
    1STR    H1O65327   5.007   6.603   7.819
    1STR    H1P65328   5.194   6.511   7.713
    1STR    H1Q65329   5.179   6.479   7.542
    1STR   C01065330   5.193   6.777   7.697
    1STR   H01165331   5.120   6.763   7.771
    1STR   C01265332   5.329   6.750   7.765
    1STR   H01365333   5.386   6.673   7.716
    1STR   H01465334   5.313   6.715   7.867
    1STR   H01565335   5.389   6.840   7.772
    1STR   C01665336   5.167   6.927   7.667
    1STR   H01765337   5.212   6.988   7.744
    1STR   H01865338   5.208   6.955   7.573
    1STR   O01965339   5.030   6.964   7.653
    1STR   C02065340   4.999   7.104   7.655
    1STR   H02165341   5.006   7.127   7.759
    1STR   C02265342   5.099   7.199   7.590
    1STR   H02365343   5.133   7.161   7.494
    1STR   H02465344   5.186   7.216   7.653
    1STR   H02565345   5.054   7.297   7.574
    1STR   C02665346   4.853   7.133   7.615
    1STR   H02765347   4.811   7.213   7.676
    1STR   H02865348   4.843   7.173   7.515
    1STR   O02965349   4.782   7.012   7.631
    1STR   C03065350   4.641   7.015   7.629
    1STR   H03165351   4.608   7.113   7.658
    1STR   C03265352   4.580   6.992   7.496
    1STR   H03365353   4.623   6.909   7.446
    1STR   H03465354   4.590   7.077   7.430
    1STR   H03565355   4.480   6.959   7.512
    1STR   C03665356   4.589   6.909   7.727
    1STR   H03765357   4.532   6.956   7.806
    1STR   H03865358   4.520   6.839   7.682
    1STR   O03965359   4.700   6.838   7.779
    1STR   C04065360   4.688   6.807   7.914
    1STR   H04165361   4.668   6.905   7.952
    1STR   C04265362   4.576   6.705   7.939
    1STR   H04365363   4.614   6.605   7.931
    1STR   H04465364   4.493   6.717   7.871
    1STR   H04565365   4.530   6.712   8.037
    1STR   C04665366   4.825   6.775   7.970
    1STR   H04765367   4.894   6.818   7.898
    1STR   H04865368   4.839   6.833   8.060
    1STR   O04965369   4.853   6.637   7.995
    1STR   C05065370   4.962   6.610   8.082
    1STR   H05165371   4.928   6.654   8.173
    1STR   C05265372   4.963   6.460   8.117
    1STR   H05365373   5.020   6.400   8.047
    1STR   H05465374   4.861   6.422   8.123
    1STR   H05565375   5.010   6.442   8.213
    1STR   C05665376   5.100   6.668   8.040
    1STR   H05765377   5.174   6.659   8.118
    1STR   H05865378   5.143   6.601   7.966
    1STR   O05965379   5.099   6.799   7.982
    1STR   C06065380   5.112   6.914   8.063
    1STR   H06165381   5.058   6.895   8.152
    1STR   C06265382   5.263   6.926   8.088
    1STR   H06365383   5.318   6.934   7.994
    1STR   H06465384   5.303   6.840   8.142
    1STR   H06565385   5.286   7.015   8.147
    1STR   C06665386   5.055   7.049   8.008
    1STR   H06765387   5.065   7.120   8.090
    1STR   H06865388   5.122   7.084   7.930
    1STR   O06965389   4.919   7.058   7.959
    1STR   C07065390   4.854   7.187   7.968
    1STR   H07165391   4.845   7.191   8.076
    1STR   C07265392   4.940   7.306   7.917
    1STR   H07365393   5.046   7.295   7.933
    1STR   H07465394   4.914   7.400   7.965
    1STR   H07565395   4.925   7.327   7.811
    1STR   C07665396   4.706   7.187   7.912
    1STR   H07765397   4.709   7.115   7.835
    1STR   H07865398   4.649   7.136   7.987
    1STR   O07965399   4.637   7.313   7.870
    1STR   C08065400   4.507   7.313   7.798
    1STR   H08165401   4.534   7.301   7.694
    1STR   C08265402   4.420   7.194   7.834
    1STR   H08365403   4.315   7.220   7.843
    1STR   H08465404   4.452   7.144   7.923
    1STR   H08565405   4.423   7.121   7.755
    1STR   C08665406   4.416   7.443   7.796
    1STR   H08765407   4.415   7.500   7.884
    1STR   H08865408   4.469   7.517   7.740
    1STR   O08965409   4.279   7.427   7.747
    1STR   C09065410   4.162   7.486   7.811
    1STR   H09165411   4.161   7.473   7.916
    1STR   C09265412   4.143   7.638   7.807
    1STR   H09365413   4.113   7.677   7.710
    1STR   H09465414   4.231   7.691   7.844
    1STR   H09565415   4.062   7.667   7.874
    1STR   C09665416   4.034   7.412   7.770
    1STR   H09765417   3.946   7.474   7.790
    1STR   H09865418   4.031   7.395   7.663
    1STR   O09965419   4.024   7.287   7.840
    1STR   C10065420   3.930   7.283   7.947
    1STR   H10165421   3.833   7.319   7.911
    1STR   C10265422   3.914   7.136   7.984
    1STR   H10365423   4.007   7.095   8.025
    1STR   H10465424   3.887   7.076   7.897
    1STR   H10565425   3.837   7.122   8.060
    1STR   C10665426   3.973   7.367   8.070
    1STR   H10765427   3.913   7.337   8.155
    1STR   H10865428   4.077   7.343   8.094
    1STR   O10965429   3.956   7.506   8.044
    1STR   C11065430   3.988   7.599   8.148
    1STR   H11165431   3.968   7.698   8.105
    1STR   C11265432   3.894   7.579   8.268
    1STR   H11365433   3.917   7.487   8.322
    1STR   H11465434   3.790   7.575   8.235
    1STR   H11565435   3.904   7.661   8.339
    1STR   C11665436   4.135   7.599   8.193
    1STR   H11765437   4.149   7.668   8.276
    1STR   H11865438   4.156   7.500   8.233
    1STR   O11965439   4.228   7.636   8.091
    1STR   C12065440   4.357   7.580   8.112
    1STR   H12165441   4.369   7.587   8.219
    1STR   C12265442   4.353   7.425   8.088
    1STR   H12365443   4.288   7.380   8.016
    1STR   H12465444   4.326   7.365   8.173
    1STR   H12565445   4.448   7.389   8.051
    1STR   C12665446   4.485   7.663   8.062
    1STR   H12765447   4.490   7.755   8.121
    1STR   H12865448   4.576   7.611   8.088
    1STR   O12965449   4.505   7.706   7.926
    1STR   C13065450   4.639   7.689   7.874
    1STR   H13165451   4.659   7.581   7.868
    1STR   C13265452   4.640   7.744   7.732
    1STR   H13365453   4.607   7.847   7.730
    1STR   H13465454   4.574   7.688   7.668
    1STR   H13565455   4.740   7.737   7.688
    1STR   C13665456   4.757   7.754   7.951
    1STR   H13765457   4.812   7.825   7.890
    1STR   H13865458   4.718   7.812   8.034
    1STR   O13965459   4.848   7.650   7.987
    1STR   C14065460   4.957   7.677   8.076
    1STR   H14165461   4.990   7.578   8.107
    1STR   C14265462   5.078   7.736   8.003
    1STR   H14365463   5.057   7.835   7.963
    1STR   H14465464   5.106   7.671   7.920
    1STR   H14565465   5.163   7.742   8.070
    1STR   C14665466   4.916   7.750   8.206
    1STR   H14765467   4.982   7.720   8.287
    1STR   H14865468   4.922   7.858   8.195
    1STR   O14965469   4.782   7.712   8.231
    1STR   C15065470   4.732   7.721   8.361
    1STR   H15165471   4.809   7.704   8.435
    1STR   C15265472   4.674   7.862   8.375
    1STR   H15365473   4.600   7.881   8.297
    1STR   H15465474   4.752   7.938   8.364
    1STR   H15565475   4.625   7.877   8.471
    1STR   C15665476   4.623   7.613   8.372
    1STR   H15765477   4.590   7.617   8.475
    1STR   H15865478   4.536   7.640   8.316
    1STR   O15965479   4.666   7.477   8.351
    1STR   C16065480   4.628   7.398   8.240
    1STR   H16165481   4.548   7.455   8.206
    1STR   C16265482   4.750   7.408   8.160
    1STR   H16365483   4.825   7.342   8.199
    1STR   H16465484   4.794   7.505   8.163
    1STR   H16565485   4.725   7.392   8.057
    1STR   C16665486   4.580   7.250   8.254
    1STR   H16765487   4.661   7.182   8.280
    1STR   H16865488   4.508   7.250   8.332
    1STR   O16965489   4.502   7.192   8.148
    1STR   C17065490   4.419   7.079   8.181
    1STR   H17165491   4.416   7.062   8.289
    1STR   C17265492   4.276   7.096   8.125
    1STR   H17365493   4.220   7.004   8.131
    1STR   H17465494   4.271   7.122   8.021
    1STR   H17565495   4.219   7.173   8.176
    1STR   C17665496   4.477   6.948   8.131
    1STR   H17765497   4.425   6.863   8.176
    1STR   H17865498   4.460   6.940   8.024
    1STR   O17965499   4.615   6.946   8.157
    1STR   C18065500   4.658   6.876   8.271
    1STR   H18165501   4.586   6.907   8.345
    1STR   C18265502   4.654   6.723   8.257
    1STR   H18365503   4.715   6.674   8.332
    1STR   H18465504   4.698   6.686   8.166
    1STR   H18565505   4.553   6.683   8.262
    1STR   C18665506   4.799   6.931   8.300
    1STR   H18765507   4.825   7.007   8.227
    1STR   H18865508   4.804   6.984   8.395
    1STR   O18965509   4.899   6.829   8.290
    1STR   C19065510   4.997   6.815   8.391
    1STR   H19165511   4.935   6.802   8.476
    1STR   C19265512   5.075   6.685   8.383
    1STR   H19365513   5.157   6.690   8.313
    1STR   H19465514   5.009   6.604   8.360
    1STR   H19565515   5.122   6.660   8.478
    1STR   C19665516   5.096   6.932   8.398
    1STR   H19765517   5.148   6.934   8.492
    1STR   H19865518   5.176   6.919   8.328
    1STR   O19965519   5.031   7.053   8.368
    1STR   C20065520   5.088   7.164   8.430
    1STR   H20165521   5.104   7.143   8.536
    1STR   C20265522   5.218   7.202   8.359
    1STR   H20365523   5.199   7.223   8.253
    1STR   H20465524   5.292   7.121   8.363
    1STR   H20565525   5.263   7.290   8.403
    1STR   C20665526   4.987   7.277   8.421
    1STR   H20765527   5.025   7.348   8.493
    1STR   H20865528   4.994   7.326   8.325
    1STR   O20965529   4.849   7.236   8.439
    1STR   C21065530   4.777   7.298   8.545
    1STR   H21165531   4.820   7.244   8.627
    1STR   C21265532   4.820   7.448   8.559
    1STR   H21365533   4.852   7.491   8.465
    1STR   H21465534   4.909   7.462   8.618
    1STR   H21565535   4.740   7.510   8.601
    1STR   C21665536   4.621   7.266   8.548
    1STR   H21765537   4.599   7.177   8.490
    1STR   H21865538   4.582   7.225   8.638
    1STR   O21965539   4.536   7.381   8.531
    1STR   C22065540   4.395   7.381   8.555
    1STR   H22165541   4.369   7.323   8.643
    1STR   C22265542   4.364   7.530   8.575
    1STR   H22365543   4.357   7.586   8.481
    1STR   H22465544   4.445   7.578   8.629
    1STR   H22565545   4.271   7.544   8.629
    1STR   C22665546   4.307   7.349   8.435
    1STR   H22765547   4.211   7.399   8.441
    1STR   H22865548   4.359   7.403   8.358
    1STR   O22965549   4.287   7.214   8.393
    1STR   C23065550   4.216   7.122   8.475
    1STR   H23165551   4.287   7.077   8.542
    1STR   C23265552   4.109   7.199   8.550
    1STR   H23365553   4.051   7.258   8.480
    1STR   H23465554   4.154   7.263   8.624
    1STR   H23565555   4.041   7.131   8.601
    1STR   C23665556   4.141   7.010   8.400
    1STR   H23765557   4.073   6.964   8.471
    1STR   H23865558   4.078   7.056   8.324
    1STR   O23965559   4.220   6.906   8.342
    1STR   C24065560   4.141   6.790   8.313
    1STR   H24165561   4.104   6.758   8.409
    1STR   C24265562   4.018   6.817   8.224
    1STR   H24365563   4.046   6.857   8.127
    1STR   H24465564   3.947   6.885   8.270
    1STR   H24565565   3.962   6.725   8.207
    1STR   C24665566   4.223   6.672   8.256
    1STR   H24765567   4.152   6.593   8.232
    1STR   H24865568   4.272   6.699   8.163
    1STR   O24965569   4.319   6.623   8.349
    1STR   C25065570   4.332   6.480   8.349
    1STR   H25165571   4.235   6.439   8.377
    1STR   C25265572   4.373   6.425   8.212
    1STR   H25365573   4.465   6.470   8.177
    1STR   H25465574   4.297   6.442   8.135
    1STR   H25565575   4.389   6.317   8.217
    1STR   C25665576   4.431   6.434   8.458
    1STR   H25765577   4.412   6.484   8.553
    1STR   H25865578   4.413   6.328   8.475
    1STR   O25965579   4.567   6.453   8.417
    1STR   C26065580   4.661   6.379   8.493
    1STR   H26165581   4.612   6.331   8.577
    1STR   C26265582   4.718   6.276   8.395
    1STR   H26365583   4.767   6.327   8.312
    1STR   H26465584   4.640   6.213   8.354
    1STR   H26565585   4.792   6.212   8.443
    1STR   C26665586   4.771   6.466   8.555
    1STR   H26765587   4.832   6.513   8.478
    1STR   H26865588   4.725   6.547   8.610
    1STR   O26965589   4.844   6.387   8.649
    1STR   C27065590   4.985   6.406   8.658
    1STR   H27165591   5.020   6.337   8.735
    1STR   C27265592   5.056   6.359   8.531
    1STR   H27365593   5.164   6.371   8.539
    1STR   H27465594   5.024   6.413   8.443
    1STR   H27565595   5.035   6.255   8.511
    1STR   C27665596   5.029   6.542   8.711
    1STR   H27765597   5.021   6.541   8.819
    1STR   H27865598   5.133   6.560   8.684
    1STR   O27965599   4.954   6.649   8.660
    1STR   C28065600   4.966   6.771   8.731
    1STR   H28165601   4.952   6.757   8.837
    1STR   C28265602   5.103   6.833   8.718
    1STR   H28365603   5.164   6.780   8.647
    1STR   H28465604   5.152   6.829   8.814
    1STR   H28565605   5.102   6.938   8.690
    1STR   C28665606   4.853   6.861   8.688
    1STR   H28765607   4.823   6.910   8.777
    1STR   H28865608   4.878   6.937   8.615
    1STR   O28965609   4.746   6.778   8.651
    1STR   C29065610   4.635   6.845   8.601
    1STR   H29165611   4.665   6.912   8.524
    1STR   C29265612   4.538   6.739   8.554
    1STR   H29365613   4.585   6.672   8.486
    1STR   H29465614   4.450   6.780   8.505
    1STR   H29565615   4.510   6.675   8.636
    1STR   C29665616   4.575   6.933   8.705
    1STR   H29765617   4.590   6.887   8.802
    1STR   H29865618   4.626   7.027   8.703
    1STR   O29965619   4.442   6.958   8.667
    1STR   C30065620   4.351   6.926   8.768
    1STR   H30165621   4.399   6.908   8.862
    1STR   C30265622   4.283   7.055   8.795
    1STR   H30365623   4.192   7.055   8.737
    1STR   H30465624   4.343   7.141   8.766
    1STR   H30565625   4.260   7.066   8.899
    1STR   C30665626   4.266   6.802   8.736
    1STR   H30765627   4.323   6.725   8.687
    1STR   H30865628   4.243   6.755   8.831
    1STR   O30965629   4.148   6.823   8.659
    1STR    H1R65630   4.045   6.693   8.777
    1STR    H1S65631   3.834   6.715   8.659
    1STR    H1T65632   3.911   6.793   8.521
    1STR    H1U65633   3.904   6.877   8.674
    1STR    H1V65634   4.192   6.597   8.562
    1STR    H1W65635   4.029   6.582   8.501
    1STR    H1X65636   3.890   6.225   8.715
    1STR    H1Y65637   4.037   6.051   8.586
    1STR    H1Z65638   4.267   5.971   8.547
    1STR    H2065639   4.516   5.981   8.632
    1STR    H2165640   4.504   6.102   8.505
    1STR    H2265641   4.578   6.142   8.658
    1STR    H2365642   4.540   6.280   8.781
    1STR    H2765643   4.185   6.350   8.853
    1STR    H2865644   4.370   6.591   7.477
    1STR    H2965645   4.477   6.650   7.262
    1STR    H2A65646   4.741   6.820   7.190
    1STR    H2B65647   4.669   6.679   7.142
    1STR    H2C65648   4.830   6.678   7.218
    1STR   BCK165649   7.203   8.808   0.632
    1STR    O0365650   7.185   8.752   0.740
    1STR    N0465651   7.316   8.868   0.597
    1STR    C0565652   7.420   8.898   0.683
    1STR    C0665653   7.422   9.028   0.730
    1STR    C0765654   7.528   9.077   0.806
    1STR    N0865655   7.530   9.212   0.839
    1STR    C0965656   7.484   9.307   0.758
    1STR    O0A65657   7.442   9.292   0.645
    1STR    O0B65658   7.485   0.099   0.818
    1STR    C0C65659   7.392   0.201   0.788
    1STR    C0D65660   7.467   0.333   0.812
    1STR    C0E65661   7.251   0.195   0.713
    1STR    O0F65662   7.234   0.181   0.573
    1STR    C0G65663   7.111   0.120   0.523
    1STR    C0H65664   7.132   9.292   0.536
    1STR    C0I65665   6.968   0.149   0.579
    1STR    O0J65666   6.858   0.092   0.503
    1STR    C0K65667   7.546   8.454   1.915
    1STR    C0M65668   7.501   8.540   2.034
    1STR    C0N65669   7.698   8.442   1.894
    1STR    O0O65670   7.736   8.529   1.788
    1STR    C0P65671   7.737   8.658   1.812
    1STR    O0Q65672   7.733   8.709   1.922
    1STR    N0R65673   7.739   8.725   1.697
    1STR    C0S65674   7.729   8.862   1.678
    1STR    C0T65675   7.800   8.915   1.571
    1STR    C0U65676   7.797   9.052   1.546
    1STR    C0V65677   7.729   9.139   1.632
    1STR    C0W65678   7.754   9.288   1.617
    1STR    C0X65679   7.638   9.087   1.725
    1STR    N0Y65680   7.545   9.178   1.774
    1STR   BCK265681   7.433   9.175   1.843
    1STR    O1065682   7.369   9.277   1.859
    1STR    C1365683   7.641   8.947   1.751
    1STR    C1465684   7.633   8.991   0.842
    1STR    C1565685   7.633   8.858   0.795
    1STR    C1665686   7.527   8.811   0.713
    1STR    C1765687   7.531   8.673   0.653
    1STR    H1B65688   7.312   8.929   0.517
    1STR    H1C65689   7.339   9.090   0.701
    1STR    H1D65690   7.567   9.245   0.926
    1STR    H1E65691   7.349   0.171   0.882
    1STR    H1F65692   7.538   0.354   0.732
    1STR    H1G65693   7.401   0.419   0.820
    1STR    H1H65694   7.528   0.329   0.902
    1STR    H1I65695   7.191   0.280   0.745
    1STR    H1J65696   7.195   0.112   0.751
    1STR    H1K65697   7.108   0.148   0.418
    1STR    H1M65698   7.177   9.259   0.626
    1STR    H1N65699   7.198   9.260   0.458
    1STR    H1O65700   7.037   9.241   0.530
    1STR    H1P65701   6.965   0.108   0.679
    1STR    H1Q65702   6.950   0.254   0.588
    1STR   C01065703   6.728   0.097   0.566
    1STR   H01165704   6.743   0.085   0.672
    1STR   C01265705   6.663   0.235   0.553
    1STR   H01365706   6.735   0.307   0.517
    1STR   H01465707   6.613   0.272   0.640
    1STR   H01565708   6.577   0.233   0.486
    1STR   C01665709   6.623   9.313   0.517
    1STR   H01765710   6.536   0.009   0.580
    1STR   H01865711   6.592   0.011   0.415
    1STR   O01965712   6.652   9.175   0.523
    1STR   C02065713   6.547   9.088   0.483
    1STR   H02165714   6.449   9.127   0.509
    1STR   C02265715   6.554   9.061   0.332
    1STR   H02365716   6.640   8.998   0.311
    1STR   H02465717   6.568   9.151   0.273
    1STR   H02565718   6.466   9.008   0.296
    1STR   C02665719   6.566   8.956   0.557
    1STR   H02765720   6.669   8.929   0.549
    1STR   H02865721   6.547   8.968   0.664
    1STR   O02965722   6.483   8.855   0.501
    1STR   C03065723   6.511   8.722   0.541
    1STR   H03165724   6.492   8.709   0.646
    1STR   C03265725   6.408   8.636   0.467
    1STR   H03365726   6.422   8.646   0.359
    1STR   H03465727   6.307   8.668   0.491
    1STR   H03565728   6.419   8.531   0.493
    1STR   C03665729   6.652   8.674   0.503
    1STR   H03765730   6.655   8.566   0.511
    1STR   H03865731   6.668   8.701   0.399
    1STR   O03965732   6.762   8.726   0.576
    1STR   C04065733   6.767   8.699   0.715
    1STR   H04165734   6.670   8.704   0.762
    1STR   C04265735   6.839   8.571   0.749
    1STR   H04365736   6.798   8.523   0.837
    1STR   H04465737   6.945   8.588   0.766
    1STR   H04565738   6.836   8.504   0.667
    1STR   C04665739   6.846   8.811   0.772
    1STR   H04765740   6.880   8.788   0.870
    1STR   H04865741   6.936   8.826   0.716
    1STR   O04965742   6.768   8.925   0.782
    1STR   C05065743   6.845   9.040   0.766
    1STR   H05165744   6.876   9.052   0.667
    1STR   C05265745   6.750   9.150   0.796
    1STR   H05365746   6.655   9.138   0.747
    1STR   H05465747   6.796   9.238   0.757
    1STR   H05565748   6.732   9.162   0.900
    1STR   C05665749   6.973   9.052   0.845
    1STR   H05765750   6.943   9.043   0.948
    1STR   H05865751   7.049   8.977   0.824
    1STR   O05965752   7.022   9.179   0.808
    1STR   C06065753   7.074   9.247   0.917
    1STR   H06165754   7.051   9.196   1.008
    1STR   C06265755   7.224   9.237   0.903
    1STR   H06365756   7.255   9.253   0.804
    1STR   H06465757   7.256   9.136   0.920
    1STR   H06565758   7.281   9.302   0.968
    1STR   C06665759   7.012   0.064   0.938
    1STR   H06765760   7.004   0.076   1.044
    1STR   H06865761   7.074   0.145   0.903
    1STR   O06965762   6.882   0.080   0.887
    1STR   C07065763   6.820   0.198   0.932
    1STR   H07165764   6.832   0.196   1.038
    1STR   C07265765   6.894   0.325   0.886
    1STR   H07365766   6.921   0.319   0.782
    1STR   H07465767   6.987   0.341   0.942
    1STR   H07565768   6.835   0.415   0.900
    1STR   C07665769   6.669   0.198   0.902
    1STR   H07765770   6.618   0.242   0.985
    1STR   H07865771   6.652   0.273   0.827
    1STR   O07965772   6.608   0.072   0.868
    1STR   C08065773   6.469   0.057   0.899
    1STR   H08165774   6.462   0.054   1.008
    1STR   C08265775   6.389   0.179   0.848
    1STR   H08365776   6.403   0.192   0.741
    1STR   H08465777   6.417   0.272   0.898
    1STR   H08565778   6.283   0.165   0.866
    1STR   C08665779   6.400   9.248   0.842
    1STR   H08765780   6.298   9.247   0.880
    1STR   H08865781   6.393   9.255   0.733
    1STR   O08965782   6.460   9.122   0.870
    1STR   C09065783   6.375   9.008   0.889
    1STR   H09165784   6.321   9.026   0.982
    1STR   C09265785   6.273   8.989   0.776
    1STR   H09365786   6.322   8.978   0.679
    1STR   H09465787   6.203   9.072   0.768
    1STR   H09565788   6.215   8.899   0.793
    1STR   C09665789   6.460   8.879   0.907
    1STR   H09765790   6.468   8.825   0.814
    1STR   H09865791   6.563   8.903   0.933
    1STR   O09965792   6.398   8.797   1.007
    1STR   C10065793   6.457   8.670   1.039
    1STR   H10165794   6.387   8.633   1.114
    1STR   C10265795   6.453   8.567   0.925
    1STR   H10365796   6.482   8.469   0.962
    1STR   H10465797   6.522   8.591   0.845
    1STR   H10565798   6.353   8.560   0.881
    1STR   C10665799   6.592   8.679   1.111
    1STR   H10765800   6.594   8.771   1.170
    1STR   H10865801   6.597   8.596   1.183
    1STR   O10965802   6.705   8.668   1.026
    1STR   C11065803   6.825   8.694   1.098
    1STR   H11165804   6.810   8.659   1.199
    1STR   C11265805   6.949   8.613   1.052
    1STR   H11365806   6.996   8.649   0.961
    1STR   H11465807   6.927   8.507   1.040
    1STR   H11565808   7.029   8.623   1.125
    1STR   C11665809   6.852   8.846   1.102
    1STR   H11765810   6.869   8.860   1.204
    1STR   H11865811   6.949   8.871   1.059
    1STR   O11965812   6.746   8.935   1.064
    1STR   C12065813   6.718   9.044   1.153
    1STR   H12165814   6.696   8.998   1.247
    1STR   C12265815   6.829   9.149   1.159
    1STR   H12365816   6.925   9.105   1.178
    1STR   H12465817   6.806   9.221   1.237
    1STR   H12565818   6.837   9.208   1.069
    1STR   C12665819   6.586   9.114   1.130
    1STR   H12765820   6.592   9.184   1.048
    1STR   H12865821   6.513   9.037   1.108
    1STR   O12965822   6.549   9.186   1.247
    1STR   C13065823   6.410   9.207   1.253
    1STR   H13165824   6.367   9.212   1.153
    1STR   C13265825   6.352   9.086   1.329
    1STR   H13365826   6.399   9.076   1.427
    1STR   H13465827   6.370   8.993   1.275
    1STR   H13565828   6.244   9.095   1.343
    1STR   C13665829   6.379   0.020   1.323
    1STR   H13765830   6.271   0.033   1.324
    1STR   H13865831   6.413   0.017   1.426
    1STR   O13965832   6.442   0.129   1.255
    1STR   C14065833   6.384   0.259   1.269
    1STR   H14165834   6.296   0.259   1.205
    1STR   C14265835   6.342   0.290   1.413
    1STR   H14365836   6.431   0.285   1.475
    1STR   H14465837   6.268   0.222   1.453
    1STR   H14565838   6.302   0.391   1.421
    1STR   C14665839   6.480   0.370   1.219
    1STR   H14765840   6.516   0.352   1.119
    1STR   H14865841   6.423   0.462   1.210
    1STR   O14965842   6.586   0.401   1.310
    1STR   C15065843   6.719   0.353   1.282
    1STR   H15165844   6.774   0.369   1.374
    1STR   C15265845   6.721   0.202   1.252
    1STR   H15365846   6.669   0.142   1.322
    1STR   H15465847   6.822   0.162   1.250
    1STR   H15565848   6.670   0.171   1.163
    1STR   C15665849   6.798   0.437   1.180
    1STR   H15765850   6.886   0.380   1.149
    1STR   H15865851   6.737   0.458   1.093
    1STR   O15965852   6.850   0.558   1.236
    1STR   C16065853   6.936   0.630   1.146
    1STR   H16165854   6.910   0.607   1.042
    1STR   C16265855   6.903   0.777   1.170
    1STR   H16365856   6.925   0.805   1.273
    1STR   H16465857   6.798   0.797   1.152
    1STR   H16565858   6.962   0.842   1.105
    1STR   C16665859   7.087   0.604   1.166
    1STR   H16765860   7.142   0.667   1.095
    1STR   H16865861   7.119   0.637   1.265
    1STR   O16965862   7.124   0.467   1.145
    1STR   C17065863   7.262   0.444   1.118
    1STR   H17165864   7.285   0.509   1.033
    1STR   C17265865   7.369   0.485   1.220
    1STR   H17365866   7.377   0.411   1.301
    1STR   H17465867   7.353   0.584   1.262
    1STR   H17565868   7.468   0.487   1.174
    1STR   C17665869   7.290   0.300   1.068
    1STR   H17765870   7.261   0.323   0.967
    1STR   H17865871   7.397   0.278   1.072
    1STR   O17965872   7.215   0.178   1.081
    1STR   C18065873   7.211   0.107   1.205
    1STR   H18165874   7.304   0.126   1.254
    1STR   C18265875   7.100   0.185   1.266
    1STR   H18365876   7.019   0.209   1.199
    1STR   H18465877   7.143   0.279   1.291
    1STR   H18565878   7.062   0.136   1.353
    1STR   C18665879   7.172   9.274   1.220
    1STR   H18765880   7.170   9.250   1.326
    1STR   H18865881   7.068   9.260   1.196
    1STR   O18965882   7.258   9.175   1.162
    1STR   C19065883   7.219   9.036   1.157
    1STR   H19165884   7.131   9.024   1.094
    1STR   C19265885   7.330   8.956   1.085
    1STR   H19365886   7.428   9.002   1.101
    1STR   H19465887   7.315   8.948   0.978
    1STR   H19565888   7.337   8.853   1.120
    1STR   C19665889   7.186   8.974   1.292
    1STR   H19765890   7.239   8.881   1.305
    1STR   H19865891   7.220   9.038   1.372
    1STR   O19965892   7.049   8.944   1.296
    1STR   C20065893   6.999   8.882   1.413
    1STR   H20165894   7.064   8.913   1.494
    1STR   C20265895   6.854   8.935   1.423
    1STR   H20365896   6.778   8.867   1.385
    1STR   H20465897   6.849   9.032   1.376
    1STR   H20565898   6.816   8.963   1.517
    1STR   C20665899   7.003   8.730   1.415
    1STR   H20765900   7.017   8.701   1.518
    1STR   H20865901   6.911   8.684   1.384
    1STR   O20965902   7.110   8.685   1.335
    1STR   C21065903   7.174   8.568   1.380
    1STR   H21165904   7.193   8.574   1.487
    1STR   C21265905   7.085   8.445   1.356
    1STR   H21365906   7.062   8.432   1.250
    1STR   H21465907   6.991   8.454   1.410
    1STR   H21565908   7.135   8.355   1.391
    1STR   C21665909   7.309   8.565   1.306
    1STR   H21765910   7.368   8.480   1.339
    1STR   H21865911   7.291   8.550   1.200
    1STR   O21965912   7.384   8.686   1.318
    1STR   C22065913   7.403   8.740   1.448
    1STR   H22165914   7.307   8.771   1.491
    1STR   C22265915   7.469   8.634   1.537
    1STR   H22365916   7.554   8.588   1.488
    1STR   H22465917   7.400   8.554   1.566
    1STR   H22565918   7.504   8.679   1.629
    1STR   C22665919   7.492   8.867   1.444
    1STR   H22765920   7.488   8.912   1.543
    1STR   H22865921   7.593   8.833   1.426
    1STR   O22965922   7.459   8.969   1.349
    1STR   C23065923   7.555   9.075   1.346
    1STR   H23165924   7.578   9.094   1.450
    1STR   C23265925   7.675   9.031   1.260
    1STR   H23365926   7.644   9.013   1.158
    1STR   H23465927   7.722   8.940   1.296
    1STR   H23565928   7.752   9.109   1.257
    1STR   C23665929   7.512   9.216   1.300
    1STR   H23765930   7.600   9.279   1.302
    1STR   H23865931   7.482   9.214   1.196
    1STR   O23965932   7.407   9.273   1.378
    1STR   C24065933   7.434   0.064   1.463
    1STR   H24165934   7.478   0.016   1.549
    1STR   C24265935   7.524   0.174   1.401
    1STR   H24365936   7.516   0.268   1.456
    1STR   H24465937   7.497   0.198   1.299
    1STR   H24565938   7.630   0.148   1.401
    1STR   C24665939   7.301   0.120   1.517
    1STR   H24765940   7.218   0.063   1.478
    1STR   H24865941   7.297   0.095   1.622
    1STR   O24965942   7.279   0.257   1.482
    1STR   C25065943   7.170   0.331   1.539
    1STR   H25165944   7.212   0.375   1.628
    1STR   C25265945   7.141   0.453   1.456
    1STR   H25365946   7.061   0.440   1.383
    1STR   H25465947   7.229   0.496   1.414
    1STR   H25565948   7.110   0.533   1.516
    1STR   C25665949   7.044   0.256   1.583
    1STR   H25765950   7.078   0.161   1.618
    1STR   H25865951   7.006   0.301   1.672
    1STR   O25965952   6.929   0.242   1.497
    1STR   C26065953   6.839   0.140   1.545
    1STR   H26165954   6.863   0.144   1.647
    1STR   C26265955   6.688   0.167   1.557
    1STR   H26365956   6.626   0.091   1.510
    1STR   H26465957   6.660   0.266   1.522
    1STR   H26565958   6.656   0.163   1.661
    1STR   C26665959   6.877   9.319   1.502
    1STR   H26765960   6.794   9.250   1.518
    1STR   H26865961   6.901   9.316   1.396
    1STR   O26965962   6.990   9.283   1.579
    1STR   C27065963   7.025   9.148   1.581
    1STR   H27165964   7.009   9.118   1.479
    1STR   C27265965   7.176   9.133   1.606
    1STR   H27365966   7.207   9.184   1.695
    1STR   H27465967   7.235   9.177   1.527
    1STR   H27565968   7.207   9.029   1.614
    1STR   C27665969   6.939   9.076   1.689
    1STR   H27765970   6.973   9.116   1.782
    1STR   H27865971   6.834   9.103   1.678
    1STR   O27965972   6.953   8.933   1.689
    1STR   C28065973   6.856   8.849   1.753
    1STR   H28165974   6.817   8.898   1.840
    1STR   C28265975   6.730   8.807   1.675
    1STR   H28365976   6.754   8.750   1.585
    1STR   H28465977   6.669   8.893   1.648
    1STR   H28565978   6.667   8.742   1.736
    1STR   C28665979   6.934   8.723   1.790
    1STR   H28765980   6.882   8.661   1.861
    1STR   H28865981   6.941   8.658   1.703
    1STR   O28965982   7.062   8.761   1.837
    1STR   C29065983   7.167   8.681   1.788
    1STR   H29165984   7.159   8.668   1.681
    1STR   C29265985   7.297   8.752   1.814
    1STR   H29365986   7.303   8.780   1.919
    1STR   H29465987   7.305   8.839   1.749
    1STR   H29565988   7.384   8.690   1.796
    1STR   C29665989   7.169   8.547   1.858
    1STR   H29765990   7.188   8.561   1.964
    1STR   H29865991   7.072   8.498   1.849
    1STR   O29965992   7.274   8.475   1.793
    1STR   C30065993   7.280   8.341   1.833
    1STR   H30165994   7.259   8.344   1.940
    1STR   C30265995   7.180   8.268   1.744
    1STR   H30365996   7.197   8.293   1.639
    1STR   H30465997   7.077   8.296   1.767
    1STR   H30565998   7.189   8.160   1.754
    1STR   C30665999   7.418   8.275   1.829
    1STR   H30766000   7.407   8.168   1.848
    1STR   H30866001   7.467   8.286   1.733
    1STR   O30966002   7.497   8.324   1.937
    1STR    H1R66003   7.504   8.497   1.825
    1STR    H1S66004   7.505   8.645   2.007
    1STR    H1T66005   7.562   8.525   2.123
    1STR    H1U66006   7.398   8.519   2.061
    1STR    H1V66007   7.725   8.341   1.865
    1STR    H1W66008   7.754   8.464   1.986
    1STR    H1X66009   7.750   8.666   1.617
    1STR    H1Y66010   7.860   8.852   1.507
    1STR    H1Z66011   7.849   9.093   1.463
    1STR    H2066012   7.841   9.308   1.555
    1STR    H2166013   7.674   0.019   1.568
    1STR    H2266014   7.772   0.014   1.714
    1STR    H2366015   7.561   9.277   1.751
    1STR    H2766016   7.574   8.901   1.821
    1STR    H2866017   7.717   9.027   0.900
    1STR    H2966018   7.716   8.793   0.819
    1STR    H2A66019   7.442   8.618   0.683
    1STR    H2B66020   7.619   8.618   0.684
    1STR    H2C66021   7.531   8.684   0.545
    1STR   BCK166022   6.763   0.515   2.867
    1STR    O0366023   6.760   0.394   2.873
    1STR    N0466024   6.687   0.599   2.937
    1STR    C0566025   6.567   0.579   3.006
    1STR    C0666026   6.482   0.472   2.973
    1STR    C0766027   6.361   0.452   3.044
    1STR    N0866028   6.288   0.338   3.014
    1STR    C0966029   6.246   0.248   3.102
    1STR    O0A66030   6.216   0.269   3.219
    1STR    O0B66031   6.256   0.128   3.043
    1STR    C0C66032   6.279   0.011   3.118
    1STR    C0D66033   6.146   9.257   3.122
    1STR    C0E66034   6.389   9.244   3.055
    1STR    O0F66035   6.525   9.270   3.085
    1STR    C0G66036   6.600   0.012   2.983
    1STR    C0H66037   6.566   0.158   2.991
    1STR    C0I66038   6.752   9.316   2.992
    1STR    O0J66039   6.785   9.188   2.945
    1STR    C0K66040   7.263   0.886   3.868
    1STR    C0M66041   7.116   0.932   3.864
    1STR    C0N66042   7.337   0.946   3.989
    1STR    O0O66043   7.292   0.872   4.099
    1STR    C0P66044   7.375   0.826   4.190
    1STR    O0Q66045   7.479   0.884   4.219
    1STR    N0R66046   7.339   0.710   4.245
    1STR    C0S66047   7.224   0.631   4.227
    1STR    C0T66048   7.123   0.654   4.131
    1STR    C0U66049   7.007   0.577   4.123
    1STR    C0V66050   6.988   0.468   4.210
    1STR    C0W66051   6.864   0.380   4.202
    1STR    C0X66052   7.091   0.438   4.301
    1STR    N0Y66053   7.077   0.321   4.368
    1STR   BCK266054   7.142   0.217   4.322
    1STR    O1066055   7.262   0.213   4.302
    1STR    C1366056   7.207   0.517   4.308
    1STR    C1466057   6.322   0.542   3.143
    1STR    C1566058   6.402   0.654   3.171
    1STR    C1666059   6.524   0.673   3.103
    1STR    C1766060   6.605   0.795   3.135
    1STR    H1B66061   6.724   0.692   2.935
    1STR    H1C66062   6.512   0.405   2.895
    1STR    H1D66063   6.303   0.299   2.923
    1STR    H1E66064   6.311   0.035   3.219
    1STR    H1F66065   6.108   9.237   3.022
    1STR    H1G66066   6.152   9.163   3.176
    1STR    H1H66067   6.075   9.319   3.175
    1STR    H1I66068   6.369   9.234   2.949
    1STR    H1J66069   6.379   9.148   3.103
    1STR    H1K66070   6.570   9.287   2.888
    1STR    H1M66071   6.465   0.178   2.960
    1STR    H1N66072   6.630   0.217   2.928
    1STR    H1O66073   6.580   0.196   3.090
    1STR    H1P66074   6.806   0.069   2.932
    1STR    H1Q66075   6.788   0.016   3.091
    1STR   C01066076   6.914   9.143   2.983
    1STR   H01166077   6.932   9.171   3.083
    1STR   C01266078   6.902   8.992   2.979
    1STR   H01366079   6.887   8.959   2.878
    1STR   H01466080   6.815   8.961   3.037
    1STR   H01566081   6.990   8.944   3.020
    1STR   C01666082   7.035   9.199   2.912
    1STR   H01766083   7.121   9.143   2.939
    1STR   H01866084   7.029   9.188   2.803
    1STR   O01966085   7.061   0.010   2.964
    1STR   C02066086   7.145   0.087   2.882
    1STR   H02166087   7.217   0.022   2.834
    1STR   C02266088   7.040   0.129   2.783
    1STR   H02366089   6.966   0.055   2.752
    1STR   H02466090   7.087   0.153   2.688
    1STR   H02566091   6.981   0.207   2.830
    1STR   C02666092   7.224   0.198   2.963
    1STR   H02766093   7.169   0.231   3.050
    1STR   H02866094   7.310   0.147   3.005
    1STR   O02966095   7.273   0.314   2.892
    1STR   C03066096   7.362   0.403   2.963
    1STR   H03166097   7.378   0.365   3.064
    1STR   C03266098   7.498   0.437   2.894
    1STR   H03366099   7.488   0.459   2.790
    1STR   H03466100   7.579   0.367   2.911
    1STR   H03566101   7.543   0.530   2.929
    1STR   C03666102   7.306   0.543   2.970
    1STR   H03766103   7.375   0.606   3.026
    1STR   H03866104   7.301   0.584   2.869
    1STR   O03966105   7.179   0.557   3.024
    1STR   C04066106   7.170   0.563   3.163
    1STR   H04166107   7.196   0.465   3.205
    1STR   C04266108   7.255   0.672   3.229
    1STR   H04366109   7.266   0.764   3.173
    1STR   H04466110   7.354   0.635   3.254
    1STR   H04566111   7.205   0.698   3.322
    1STR   C04666112   7.022   0.591   3.180
    1STR   H04766113   7.003   0.684   3.234
    1STR   H04866114   6.970   0.599   3.085
    1STR   O04966115   6.973   0.486   3.257
    1STR   C05066116   6.874   0.411   3.195
    1STR   H05166117   6.799   0.473   3.145
    1STR   C05266118   6.930   0.304   3.102
    1STR   H05366119   6.988   0.230   3.157
    1STR   H05466120   6.990   0.348   3.023
    1STR   H05566121   6.849   0.250   3.055
    1STR   C05666122   6.811   0.346   3.313
    1STR   H05766123   6.883   0.282   3.363
    1STR   H05866124   6.775   0.420   3.384
    1STR   O05966125   6.705   0.275   3.258
    1STR   C06066126   6.654   0.187   3.352
    1STR   H06166127   6.674   0.228   3.448
    1STR   C06266128   6.503   0.198   3.342
    1STR   H06366129   6.470   0.255   3.255
    1STR   H06466130   6.460   0.249   3.428
    1STR   H06566131   6.462   0.099   3.336
    1STR   C06666132   6.711   0.044   3.336
    1STR   H06766133   6.689   9.303   3.423
    1STR   H06866134   6.653   9.316   3.259
    1STR   O06966135   6.851   0.028   3.303
    1STR   C07066136   6.897   9.213   3.318
    1STR   H07166137   6.883   9.198   3.423
    1STR   C07266138   6.798   9.106   3.269
    1STR   H07366139   6.742   9.131   3.180
    1STR   H07466140   6.722   9.092   3.345
    1STR   H07566141   6.848   9.012   3.253
    1STR   C07666142   7.050   9.178   3.301
    1STR   H07766143   7.096   9.231   3.381
    1STR   H07866144   7.057   9.072   3.324
    1STR   O07966145   7.135   9.210   3.188
    1STR   C08066146   7.258   9.133   3.176
    1STR   H08166147   7.296   9.110   3.272
    1STR   C08266148   7.229   8.990   3.134
    1STR   H08366149   7.208   8.983   3.029
    1STR   H08466150   7.146   8.943   3.186
    1STR   H08566151   7.317   8.930   3.153
    1STR   C08666152   7.374   9.189   3.084
    1STR   H08766153   7.440   9.107   3.055
    1STR   H08866154   7.323   9.214   2.991
    1STR   O08966155   7.453   9.308   3.112
    1STR   C09066156   7.595   9.313   3.148
    1STR   H09166157   7.604   0.010   3.254
    1STR   C09266158   7.669   9.181   3.126
    1STR   H09366159   7.666   9.150   3.022
    1STR   H09466160   7.625   9.101   3.186
    1STR   H09566161   7.773   9.189   3.156
    1STR   C09666162   7.676   0.116   3.094
    1STR   H09766163   7.778   0.105   3.131
    1STR   H09866164   7.685   0.118   2.986
    1STR   O09966165   7.628   0.244   3.139
    1STR   C10066166   7.719   0.355   3.136
    1STR   H10166167   7.761   0.361   3.035
    1STR   C10266168   7.644   0.488   3.163
    1STR   H10366169   7.647   0.519   3.266
    1STR   H10466170   7.539   0.481   3.142
    1STR   H10566171   7.686   0.570   3.104
    1STR   C10666172   7.835   0.341   3.236
    1STR   H10766173   7.917   0.290   3.187
    1STR   H10866174   7.875   0.438   3.265
    1STR   O10966175   7.804   0.262   3.351
    1STR   C11066176   7.717   0.314   3.451
    1STR   H11166177   7.731   0.241   3.529
    1STR   C11266178   7.756   0.452   3.510
    1STR   H11366179   7.747   0.535   3.442
    1STR   H11466180   7.860   0.451   3.545
    1STR   H11566181   7.693   0.475   3.596
    1STR   C11666182   7.569   0.294   3.425
    1STR   H11766183   7.515   0.351   3.499
    1STR   H11866184   7.537   0.337   3.331
    1STR   O11966185   7.545   0.153   3.432
    1STR   C12066186   7.413   0.109   3.406
    1STR   H12166187   7.351   0.142   3.483
    1STR   C12266188   7.345   0.179   3.286
    1STR   H12366189   7.409   0.186   3.200
    1STR   H12466190   7.324   0.283   3.305
    1STR   H12566191   7.252   0.130   3.255
    1STR   C12666192   7.395   9.277   3.415
    1STR   H12766193   7.290   9.266   3.398
    1STR   H12866194   7.448   9.234   3.332
    1STR   O12966195   7.425   9.193   3.528
    1STR   C13066196   7.422   9.051   3.494
    1STR   H13166197   7.460   9.036   3.393
    1STR   C13266198   7.523   8.977   3.581
    1STR   H13366199   7.488   8.967   3.684
    1STR   H13466200   7.618   9.029   3.581
    1STR   H13566201   7.540   8.877   3.543
    1STR   C13666202   7.282   8.984   3.504
    1STR   H13766203   7.260   8.950   3.605
    1STR   H13866204   7.209   9.058   3.478
    1STR   O13966205   7.259   8.883   3.405
    1STR   C14066206   7.159   8.782   3.425
    1STR   H14166207   7.138   8.740   3.326
    1STR   C14266208   7.231   8.672   3.504
    1STR   H14366209   7.255   8.705   3.605
    1STR   H14466210   7.324   8.644   3.456
    1STR   H14566211   7.170   8.582   3.512
    1STR   C14666212   7.021   8.818   3.489
    1STR   H14766213   6.994   8.735   3.555
    1STR   H14866214   7.033   8.903   3.556
    1STR   O14966215   6.908   8.837   3.401
    1STR   C15066216   6.777   8.824   3.465
    1STR   H15166217   6.770   8.721   3.499
    1STR   C15266218   6.772   8.912   3.588
    1STR   H15366219   6.675   8.904   3.636
    1STR   H15466220   6.789   9.016   3.560
    1STR   H15566221   6.844   8.881   3.663
    1STR   C15666222   6.649   8.849   3.377
    1STR   H15766223   6.675   8.874   3.274
    1STR   H15866224   6.598   8.753   3.372
    1STR   O15966225   6.555   8.947   3.432
    1STR   C16066226   6.434   8.974   3.358
    1STR   H16166227   6.465   9.012   3.260
    1STR   C16266228   6.358   8.841   3.342
    1STR   H16366229   6.407   8.774   3.272
    1STR   H16466230   6.257   8.857   3.306
    1STR   H16566231   6.349   8.791   3.438
    1STR   C16666232   6.332   9.076   3.421
    1STR   H16766233   6.245   9.081   3.356
    1STR   H16866234   6.292   9.035   3.513
    1STR   O16966235   6.373   9.212   3.438
    1STR   C17066236   6.289   9.301   3.515
    1STR   H17166237   6.336   0.079   3.507
    1STR   C17266238   6.150   0.003   3.456
    1STR   H17366239   6.091   9.232   3.448
    1STR   H17466240   6.156   0.052   3.360
    1STR   H17566241   6.094   0.075   3.516
    1STR   C17666242   6.283   9.284   3.669
    1STR   H17766243   6.351   0.032   3.718
    1STR   H17866244   6.188   9.319   3.706
    1STR   O17966245   6.301   9.150   3.711
    1STR   C18066246   6.430   9.114   3.759
    1STR   H18166247   6.435   9.137   3.865
    1STR   C18266248   6.431   8.962   3.742
    1STR   H18366249   6.431   8.932   3.638
    1STR   H18466250   6.342   8.917   3.787
    1STR   H18566251   6.519   8.916   3.785
    1STR   C18666252   6.549   9.184   3.689
    1STR   H18766253   6.637   9.126   3.702
    1STR   H18866254   6.541   9.184   3.581
    1STR   O18966255   6.574   9.313   3.746
    1STR   C19066256   6.623   0.093   3.659
    1STR   H19166257   6.576   0.072   3.564
    1STR   C19266258   6.566   0.228   3.700
    1STR   H19366259   6.623   0.268   3.783
    1STR   H19466260   6.461   0.224   3.727
    1STR   H19566261   6.576   0.304   3.622
    1STR   C19666262   6.777   0.104   3.653
    1STR   H19766263   6.807   0.182   3.584
    1STR   H19866264   6.818   0.144   3.744
    1STR   O19966265   6.847   9.306   3.622
    1STR   C20066266   6.989   0.003   3.631
    1STR   H20166267   7.015   0.042   3.728
    1STR   C20266268   7.057   9.188   3.627
    1STR   H20366269   7.164   9.203   3.618
    1STR   H20466270   7.019   9.122   3.550
    1STR   H20566271   7.041   9.129   3.716
    1STR   C20666272   7.049   0.110   3.539
    1STR   H20766273   7.151   0.085   3.516
    1STR   H20866274   7.001   0.119   3.443
    1STR   O20966275   7.036   0.231   3.611
    1STR   C21066276   7.143   0.322   3.612
    1STR   H21166277   7.113   0.394   3.688
    1STR   C21266278   7.276   0.263   3.659
    1STR   H21366279   7.281   0.155   3.663
    1STR   H21466280   7.303   0.287   3.759
    1STR   H21566281   7.357   0.304   3.602
    1STR   C21666282   7.145   0.397   3.481
    1STR   H21766283   7.150   0.329   3.397
    1STR   H21866284   7.048   0.442   3.469
    1STR   O21966285   7.246   0.497   3.473
    1STR   C22066286   7.245   0.598   3.575
    1STR   H22166287   7.272   0.549   3.667
    1STR   C22266288   7.358   0.697   3.547
    1STR   H22366289   7.348   0.753   3.455
    1STR   H22466290   7.454   0.646   3.543
    1STR   H22566291   7.364   0.774   3.623
    1STR   C22666292   7.108   0.663   3.608
    1STR   H22766293   7.064   0.607   3.692
    1STR   H22866294   7.123   0.763   3.648
    1STR   O22966295   7.016   0.668   3.500
    1STR   C23066296   6.883   0.694   3.540
    1STR   H23166297   6.886   0.780   3.606
    1STR   C23266298   6.805   0.735   3.416
    1STR   H23366299   6.797   0.652   3.346
    1STR   H23466300   6.855   0.818   3.365
    1STR   H23566301   6.704   0.767   3.441
    1STR   C23666302   6.815   0.571   3.608
    1STR   H23766303   6.716   0.553   3.569
    1STR   H23866304   6.870   0.481   3.582
    1STR   O23966305   6.814   0.575   3.750
    1STR   C24066306   6.713   0.650   3.818
    1STR   H24166307   6.731   0.623   3.921
    1STR   C24266308   6.735   0.801   3.809
    1STR   H24366309   6.705   0.840   3.712
    1STR   H24466310   6.840   0.826   3.827
    1STR   H24566311   6.677   0.854   3.885
    1STR   C24666312   6.566   0.612   3.787
    1STR   H24766313   6.501   0.690   3.825
    1STR   H24866314   6.547   0.613   3.680
    1STR   O24966315   6.527   0.485   3.837
    1STR   C25066316   6.489   0.478   3.975
    1STR   H25166317   6.567   0.517   4.038
    1STR   C25266318   6.358   0.556   3.997
    1STR   H25366319   6.283   0.528   3.922
    1STR   H25466320   6.372   0.663   3.993
    1STR   H25566321   6.316   0.534   4.095
    1STR   C25666322   6.469   0.331   4.015
    1STR   H25766323   6.427   0.323   4.115
    1STR   H25866324   6.399   0.287   3.944
    1STR   O25966325   6.589   0.257   4.008
    1STR   C26066326   6.582   0.122   4.055
    1STR   H26166327   6.589   0.130   4.162
    1STR   C26266328   6.451   0.048   4.027
    1STR   H26366329   6.422   0.053   3.923
    1STR   H26466330   6.369   0.085   4.088
    1STR   H26566331   6.463   9.263   4.053
    1STR   C26666332   6.708   0.051   4.003
    1STR   H26766333   6.734   0.101   3.912
    1STR   H26866334   6.788   0.074   4.073
    1STR   O26966335   6.697   9.231   3.972
    1STR   C27066336   6.819   9.155   3.958
    1STR   H27166337   6.816   9.080   4.034
    1STR   C27266338   6.819   9.058   3.844
    1STR   H27366339   6.833   9.111   3.752
    1STR   H27466340   6.728   8.999   3.844
    1STR   H27566341   6.902   8.988   3.855
    1STR   C27666342   6.952   9.232   3.964
    1STR   H27766343   6.942   9.315   3.898
    1STR   H27866344   6.967   9.279   4.059
    1STR   O27966345   7.064   9.148   3.936
    1STR   C28066346   7.197   9.199   3.947
    1STR   H28166347   7.239   9.178   4.043
    1STR   C28266348   7.284   9.108   3.860
    1STR   H28366349   7.309   9.152   3.764
    1STR   H28466350   7.235   9.012   3.842
    1STR   H28566351   7.378   9.085   3.910
    1STR   C28666352   7.217   0.030   3.923
    1STR   H28766353   7.316   0.058   3.956
    1STR   H28866354   7.214   0.040   3.816
    1STR   O28966355   7.124   0.117   3.990
    1STR   C29066356   7.111   0.246   3.931
    1STR   H29166357   7.123   0.222   3.829
    1STR   C29266358   6.969   0.300   3.922
    1STR   H29366359   6.898   0.240   3.977
    1STR   H29466360   6.933   0.304   3.819
    1STR   H29566361   6.963   0.403   3.952
    1STR   C29666362   7.220   0.346   3.978
    1STR   H29766363   7.200   0.376   4.080
    1STR   H29866364   7.312   0.289   3.984
    1STR   O29966365   7.240   0.462   3.894
    1STR   C30066366   7.370   0.522   3.909
    1STR   H30166367   7.393   0.511   4.015
    1STR   C30266368   7.477   0.451   3.822
    1STR   H30366369   7.451   0.453   3.717
    1STR   H30466370   7.493   0.348   3.851
    1STR   H30566371   7.574   0.499   3.822
    1STR   C30666372   7.382   0.673   3.884
    1STR   H30766373   7.439   0.711   3.968
    1STR   H30866374   7.445   0.693   3.799
    1STR   O30966375   7.258   0.742   3.870
    1STR    H1R66376   7.313   0.921   3.777
    1STR    H1S66377   7.050   0.854   3.902
    1STR    H1T66378   7.084   0.955   3.763
    1STR    H1U66379   7.099   1.020   3.926
    1STR    H1V66380   7.317   1.052   4.004
    1STR    H1W66381   7.445   0.937   3.977
    1STR    H1X66382   7.404   0.675   4.313
    1STR    H1Y66383   7.127   0.734   4.061
    1STR    H1Z66384   6.935   0.600   4.047
    1STR    H2066385   6.796   0.408   4.122
    1STR    H2166386   6.890   0.277   4.182
    1STR    H2266387   6.807   0.377   4.294
    1STR    H2366388   6.981   0.301   4.386
    1STR    H2766389   7.285   0.484   4.374
    1STR    H2866390   6.230   0.527   3.198
    1STR    H2966391   6.371   0.724   3.247
    1STR    H2A66392   6.702   0.763   3.172
    1STR    H2B66393   6.559   0.856   3.212
    1STR    H2C66394   6.616   0.857   3.046
    1STR   BCK166395   6.989   0.012   5.016
    1STR    O0366396   7.103   0.052   5.027
    1STR    N0466397   6.952   9.205   5.002
    1STR    C0566398   7.033   9.094   5.005
    1STR    C0666399   7.171   9.110   5.006
    1STR    C0766400   7.253   9.017   5.064
    1STR    N0866401   7.379   9.068   5.093
    1STR    C0966402   7.483   9.021   5.158
    1STR    O0A66403   7.507   8.902   5.163
    1STR    O0B66404   7.563   9.116   5.212
    1STR    C0C66405   7.531   9.243   5.269
    1STR    C0D66406   7.669   9.302   5.298
    1STR    C0E66407   7.430   0.019   5.198
    1STR    O0F66408   7.435   0.150   5.256
    1STR    C0G66409   7.451   0.257   5.163
    1STR    C0H66410   7.330   0.284   5.076
    1STR    C0I66411   7.508   0.388   5.221
    1STR    O0J66412   7.427   0.455   5.314
    1STR    C0K66413   6.690   8.664   6.305
    1STR    C0M66414   6.670   8.601   6.169
    1STR    C0N66415   6.835   8.718   6.314
    1STR    O0O66416   6.885   8.789   6.426
    1STR    C0P66417   6.840   8.910   6.463
    1STR    O0Q66418   6.732   8.958   6.437
    1STR    N0R66419   6.929   8.982   6.532
    1STR    C0S66420   7.062   8.948   6.546
    1STR    C0T66421   7.095   8.830   6.613
    1STR    C0U66422   7.225   8.779   6.608
    1STR    C0V66423   7.321   8.847   6.534
    1STR    C0W66424   7.455   8.784   6.523
    1STR    C0X66425   7.293   8.973   6.476
    1STR    N0Y66426   7.395   9.036   6.409
    1STR   BCK266427   7.397   9.150   6.341
    1STR    O1066428   7.300   9.216   6.308
    1STR    C1366429   7.163   9.026   6.489
    1STR    C1466430   7.199   8.890   5.090
    1STR    C1566431   7.063   8.863   5.068
    1STR    C1666432   6.977   8.968   5.031
    1STR    C1766433   6.827   8.947   5.028
    1STR    H1B66434   6.850   9.193   4.996
    1STR    H1C66435   7.220   9.199   4.973
    1STR    H1D66436   7.398   9.161   5.058
    1STR    H1E66437   7.493   9.226   5.368
    1STR    H1F66438   7.741   9.297   5.218
    1STR    H1G66439   7.663   0.085   5.332
    1STR    H1H66440   7.719   9.241   5.373
    1STR    H1I66441   7.328   9.302   5.212
    1STR    H1J66442   7.442   0.021   5.090
    1STR    H1K66443   7.522   0.223   5.091
    1STR    H1M66444   7.249   0.330   5.131
    1STR    H1N66445   7.295   0.195   5.026
    1STR    H1O66446   7.361   0.354   5.000
    1STR    H1P66447   7.606   0.370   5.265
    1STR    H1Q66448   7.521   0.460   5.141
    1STR   C01066449   7.421   0.388   5.438
    1STR   H01166450   7.486   0.301   5.439
    1STR   C01266451   7.474   0.480   5.548
    1STR   H01366452   7.425   0.577   5.548
    1STR   H01466453   7.581   0.497   5.534
    1STR   H01566454   7.460   0.434   5.646
    1STR   C01666455   7.279   0.337   5.458
    1STR   H01766456   7.288   0.230   5.468
    1STR   H01866457   7.238   0.376   5.551
    1STR   O01966458   7.187   0.364   5.352
    1STR   C02066459   7.073   0.281   5.361
    1STR   H02166460   7.060   0.275   5.465
    1STR   C02266461   6.938   0.339   5.320
    1STR   H02366462   6.880   0.279   5.253
    1STR   H02466463   6.944   0.440   5.283
    1STR   H02566464   6.869   0.334   5.401
    1STR   C02666465   7.100   0.139   5.311
    1STR   H02766466   7.170   0.145   5.229
    1STR   H02866467   7.147   0.076   5.382
    1STR   O02966468   6.981   0.080   5.269
    1STR   C03066469   6.918   9.295   5.335
    1STR   H03166470   6.910   9.305   5.440
    1STR   C03266471   6.777   9.316   5.278
    1STR   H03366472   6.769   9.266   5.183
    1STR   H03466473   6.753   0.101   5.263
    1STR   H03566474   6.698   9.282   5.342
    1STR   C03666475   6.979   9.156   5.308
    1STR   H03766476   6.915   9.105   5.239
    1STR   H03866477   7.078   9.166   5.265
    1STR   O03966478   6.984   9.082   5.429
    1STR   C04066479   6.972   8.940   5.429
    1STR   H04166480   6.956   8.919   5.534
    1STR   C04266481   6.853   8.882   5.350
    1STR   H04366482   6.881   8.862   5.249
    1STR   H04466483   6.764   8.944   5.348
    1STR   H04566484   6.825   8.784   5.387
    1STR   C04666485   7.097   8.871   5.376
    1STR   H04766486   7.075   8.776   5.330
    1STR   H04866487   7.120   8.942   5.299
    1STR   O04966488   7.213   8.854   5.458
    1STR   C05066489   7.330   8.910   5.402
    1STR   H05166490   7.325   8.880   5.300
    1STR   C05266491   7.312   9.061   5.412
    1STR   H05366492   7.377   9.105   5.486
    1STR   H05466493   7.211   9.087   5.439
    1STR   H05566494   7.318   9.113   5.320
    1STR   C05666495   7.468   8.856   5.448
    1STR   H05766496   7.464   8.790   5.533
    1STR   H05866497   7.506   8.788   5.372
    1STR   O05966498   7.564   8.962   5.457
    1STR   C06066499   7.633   8.978   5.580
    1STR   H06166500   7.609   8.898   5.649
    1STR   C06266501   7.781   8.969   5.546
    1STR   H06366502   7.809   9.048   5.476
    1STR   H06466503   7.803   8.874   5.498
    1STR   H06566504   7.843   8.979   5.635
    1STR   C06666505   7.596   9.111   5.651
    1STR   H06766506   7.490   9.114   5.673
    1STR   H06866507   7.647   9.114   5.746
    1STR   O06966508   7.635   9.227   5.579
    1STR   C07066509   7.602   0.029   5.644
    1STR   H07166510   7.606   0.010   5.750
    1STR   C07266511   7.709   0.135   5.614
    1STR   H07366512   7.699   0.219   5.683
    1STR   H07466513   7.700   0.177   5.514
    1STR   H07566514   7.809   0.094   5.626
    1STR   C07666515   7.462   0.079   5.606
    1STR   H07766516   7.446   0.181   5.639
    1STR   H07866517   7.451   0.076   5.498
    1STR   O07966518   7.366   9.320   5.672
    1STR   C08066519   7.239   9.312   5.612
    1STR   H08166520   7.254   9.299   5.506
    1STR   C08266521   7.183   9.184   5.665
    1STR   H08366522   7.237   9.096   5.639
    1STR   H08466523   7.079   9.168   5.637
    1STR   H08566524   7.197   9.187   5.772
    1STR   C08666525   7.142   0.101   5.657
    1STR   H08766526   7.126   0.074   5.760
    1STR   H08866527   7.187   0.198   5.659
    1STR   O08966528   7.018   0.100   5.582
    1STR   C09066529   6.901   0.168   5.630
    1STR   H09166530   6.918   0.119   5.720
    1STR   C09266531   6.904   0.324   5.648
    1STR   H09366532   6.827   0.373   5.590
    1STR   H09466533   7.000   0.372   5.630
    1STR   H09566534   6.879   0.362   5.747
    1STR   C09666535   6.756   0.116   5.593
    1STR   H09766536   6.684   0.190   5.628
    1STR   H09866537   6.740   0.115   5.487
    1STR   O09966538   6.719   9.316   5.662
    1STR   C10066539   6.637   9.215   5.604
    1STR   H10166540   6.574   9.258   5.530
    1STR   C10266541   6.731   9.111   5.550
    1STR   H10366542   6.811   9.087   5.620
    1STR   H10466543   6.773   9.142   5.459
    1STR   H10566544   6.683   9.019   5.522
    1STR   C10666545   6.548   9.139   5.701
    1STR   H10766546   6.609   9.112   5.786
    1STR   H10866547   6.467   9.202   5.734
    1STR   O10966548   6.489   9.027   5.633
    1STR   C11066549   6.509   8.897   5.690
    1STR   H11166550   6.462   8.905   5.787
    1STR   C11266551   6.429   8.792   5.615
    1STR   H11366552   6.481   8.768   5.523
    1STR   H11466553   6.328   8.827   5.594
    1STR   H11566554   6.421   8.700   5.672
    1STR   C11666555   6.652   8.844   5.710
    1STR   H11766556   6.705   8.921   5.763
    1STR   H11866557   6.635   8.759   5.775
    1STR   O11966558   6.744   8.805   5.606
    1STR   C12066559   6.829   8.692   5.638
    1STR   H12166560   6.817   8.672   5.741
    1STR   C12266561   6.755   8.576   5.572
    1STR   H12366562   6.739   8.598   5.467
    1STR   H12466563   6.657   8.562   5.616
    1STR   H12566564   6.810   8.482   5.582
    1STR   C12666565   6.987   8.684   5.620
    1STR   H12766566   7.013   8.592   5.670
    1STR   H12866567   7.010   8.666   5.515
    1STR   O12966568   7.080   8.786   5.671
    1STR   C13066569   7.213   8.751   5.725
    1STR   H13166570   7.195   8.725   5.827
    1STR   C13266571   7.266   8.627   5.651
    1STR   H13366572   7.245   8.636   5.545
    1STR   H13466573   7.219   8.536   5.686
    1STR   H13566574   7.373   8.614   5.663
    1STR   C13666575   7.333   8.857   5.740
    1STR   H13766576   7.427   8.806   5.755
    1STR   H13866577   7.336   8.904   5.645
    1STR   O13966578   7.343   8.984   5.808
    1STR   C14066579   7.390   9.005   5.940
    1STR   H14166580   7.323   8.950   6.005
    1STR   C14266581   7.534   8.959   5.967
    1STR   H14366582   7.606   9.033   5.934
    1STR   H14466583   7.558   8.864   5.920
    1STR   H14566584   7.549   8.948   6.075
    1STR   C14666585   7.372   9.154   5.981
    1STR   H14766586   7.270   9.185   5.965
    1STR   H14866587   7.387   9.156   6.087
    1STR   O14966588   7.456   9.254   5.922
    1STR   C15066589   7.462   0.056   5.999
    1STR   H15166590   7.505   0.027   6.092
    1STR   C15266591   7.559   0.161   5.943
    1STR   H15366592   7.522   0.203   5.850
    1STR   H15466593   7.657   0.118   5.925
    1STR   H15566594   7.571   0.244   6.013
    1STR   C15666595   7.328   0.124   6.032
    1STR   H15766596   7.250   0.055   6.065
    1STR   H15866597   7.347   0.190   6.116
    1STR   O15966598   7.285   0.206   5.924
    1STR   C16066599   7.183   0.296   5.961
    1STR   H16166600   7.189   0.327   6.065
    1STR   C16266601   7.208   0.419   5.871
    1STR   H16366602   7.226   0.389   5.769
    1STR   H16466603   7.295   0.475   5.904
    1STR   H16566604   7.123   0.487   5.868
    1STR   C16666605   7.046   0.235   5.934
    1STR   H16766606   6.969   0.303   5.966
    1STR   H16866607   7.037   0.242   5.829
    1STR   O16966608   7.025   0.099   5.978
    1STR   C17066609   6.901   0.031   5.943
    1STR   H17166610   6.863   9.313   6.035
    1STR   C17266611   6.787   0.130   5.908
    1STR   H17366612   6.799   0.210   5.841
    1STR   H17466613   6.763   0.199   5.986
    1STR   H17566614   6.702   0.077   5.868
    1STR   C17666615   6.924   9.218   5.858
    1STR   H17766616   6.908   9.230   5.752
    1STR   H17866617   7.029   9.214   5.867
    1STR   O17966618   6.871   9.087   5.900
    1STR   C18066619   6.932   8.958   5.863
    1STR   H18166620   6.918   8.948   5.756
    1STR   C18266621   7.078   8.970   5.885
    1STR   H18366622   7.118   8.985   5.787
    1STR   H18466623   7.122   8.883   5.930
    1STR   H18566624   7.110   9.050   5.947
    1STR   C18666625   6.888   8.818   5.930
    1STR   H18766626   6.877   8.828   6.034
    1STR   H18866627   6.787   8.792   5.909
    1STR   O18966628   6.971   8.701   5.904
    1STR   C19066629   6.946   8.574   5.968
    1STR   H19166630   6.933   8.597   6.074
    1STR   C19266631   6.824   8.498   5.914
    1STR   H19366632   6.841   8.463   5.813
    1STR   H19466633   6.733   8.559   5.911
    1STR   H19566634   6.803   8.409   5.974
    1STR   C19666635   7.065   8.473   5.958
    1STR   H19766636   7.069   8.412   6.047
    1STR   H19866637   7.052   8.405   5.873
    1STR   O19966638   7.187   8.537   5.933
    1STR   C20066639   7.306   8.493   5.994
    1STR   H20166640   7.284   8.443   6.088
    1STR   C20266641   7.383   8.399   5.901
    1STR   H20366642   7.415   8.450   5.811
    1STR   H20466643   7.321   8.314   5.871
    1STR   H20566644   7.472   8.360   5.950
    1STR   C20666645   7.383   8.624   6.019
    1STR   H20766646   7.467   8.610   6.087
    1STR   H20866647   7.428   8.658   5.926
    1STR   O20966648   7.298   8.731   6.062
    1STR   C21066649   7.214   8.712   6.174
    1STR   H21166650   7.132   8.645   6.152
    1STR   C21266651   7.300   8.652   6.284
    1STR   H21366652   7.388   8.715   6.294
    1STR   H21466653   7.337   8.553   6.263
    1STR   H21566654   7.247   8.648   6.378
    1STR   C21666655   7.154   8.845   6.224
    1STR   H21766656   7.119   8.827   6.325
    1STR   H21866657   7.234   8.918   6.228
    1STR   O21966658   7.040   8.894   6.153
    1STR   C22066659   6.980   9.016   6.201
    1STR   H22166660   6.990   9.010   6.306
    1STR   C22266661   7.072   9.132   6.170
    1STR   H22366662   7.040   9.191   6.086
    1STR   H22466663   7.172   9.098   6.147
    1STR   H22566664   7.078   9.197   6.255
    1STR   C22666665   6.828   9.054   6.177
    1STR   H22766666   6.794   9.109   6.264
    1STR   H22866667   6.821   9.133   6.106
    1STR   O22966668   6.727   8.955   6.152
    1STR   C23066669   6.633   8.978   6.046
    1STR   H23166670   6.686   8.978   5.954
    1STR   C23266671   6.532   8.862   6.037
    1STR   H23366672   6.509   8.824   6.134
    1STR   H23466673   6.567   8.779   5.977
    1STR   H23566674   6.435   8.892   5.997
    1STR   C23666675   6.556   9.108   6.039
    1STR   H23766676   6.484   9.099   5.958
    1STR   H23866677   6.493   9.120   6.124
    1STR   O23966678   6.629   9.227   6.016
    1STR   C24066679   6.560   0.023   6.062
    1STR   H24166680   6.580   0.117   6.015
    1STR   C24266681   6.418   0.018   5.997
    1STR   H24366682   6.352   9.261   6.033
    1STR   H24466683   6.432   9.320   5.891
    1STR   H24566684   6.364   0.111   5.991
    1STR   C24666685   6.617   0.058   6.205
    1STR   H24766686   6.557   0.124   6.266
    1STR   H24866687   6.637   9.288   6.262
    1STR   O24966688   6.734   0.135   6.185
    1STR   C25066689   6.821   0.173   6.288
    1STR   H25166690   6.765   0.208   6.375
    1STR   C25266691   6.906   0.052   6.314
    1STR   H25366692   6.936   0.016   6.218
    1STR   H25466693   6.853   9.291   6.363
    1STR   H25566694   6.999   0.077   6.364
    1STR   C25666695   6.919   0.281   6.236
    1STR   H25766696   6.970   0.328   6.319
    1STR   H25866697   7.000   0.232   6.184
    1STR   O25966698   6.861   0.372   6.144
    1STR   C26066699   6.873   0.509   6.176
    1STR   H26166700   6.841   0.518   6.280
    1STR   C26266701   7.017   0.557   6.153
    1STR   H26366702   7.040   0.559   6.047
    1STR   H26466703   7.091   0.491   6.199
    1STR   H26566704   7.033   0.657   6.191
    1STR   C26666705   6.774   0.592   6.093
    1STR   H26766706   6.761   0.689   6.139
    1STR   H26866707   6.818   0.612   5.994
    1STR   O26966708   6.647   0.533   6.067
    1STR   C27066709   6.584   0.454   6.167
    1STR   H27166710   6.642   0.365   6.191
    1STR   C27266711   6.560   0.532   6.297
    1STR   H27366712   6.645   0.593   6.327
    1STR   H27466713   6.546   0.460   6.377
    1STR   H27566714   6.473   0.598   6.289
    1STR   C27666715   6.459   0.401   6.096
    1STR   H27766716   6.380   0.475   6.092
    1STR   H27866717   6.487   0.388   5.992
    1STR   O27966718   6.419   0.269   6.131
    1STR   C28066719   6.334   0.239   6.241
    1STR   H28166720   6.390   0.263   6.330
    1STR   C28266721   6.208   0.326   6.227
    1STR   H28366722   6.155   0.303   6.134
    1STR   H28466723   6.228   0.433   6.228
    1STR   H28566724   6.141   0.309   6.310
    1STR   C28666725   6.291   0.087   6.246
    1STR   H28766726   6.210   0.088   6.314
    1STR   H28866727   6.236   0.065   6.156
    1STR   O28966728   6.384   9.299   6.285
    1STR   C29066729   6.343   9.163   6.316
    1STR   H29166730   6.312   9.165   6.417
    1STR   C29266731   6.231   9.113   6.223
    1STR   H29366732   6.270   9.073   6.130
    1STR   H29466733   6.162   9.191   6.198
    1STR   H29566734   6.172   9.035   6.270
    1STR   C29666735   6.447   9.052   6.348
    1STR   H29766736   6.546   9.066   6.306
    1STR   H29866737   6.468   9.049   6.453
    1STR   O29966738   6.388   8.929   6.304
    1STR   C30066739   6.370   8.826   6.399
    1STR   H30166740   6.389   8.861   6.500
    1STR   C30266741   6.224   8.780   6.387
    1STR   H30366742   6.201   8.751   6.284
    1STR   H30466743   6.155   8.858   6.416
    1STR   H30566744   6.205   8.693   6.451
    1STR   C30666745   6.465   8.712   6.365
    1STR   H30766746   6.470   8.643   6.449
    1STR   H30866747   6.425   8.656   6.280
    1STR   O30966748   6.593   8.763   6.335
    1STR    H1R66749   6.669   8.586   6.374
    1STR    H1S66750   6.568   8.570   6.146
    1STR    H1T66751   6.733   8.513   6.160
    1STR    H1U66752   6.703   8.671   6.093
    1STR    H1V66753   6.852   8.783   6.231
    1STR    H1W66754   6.905   8.637   6.299
    1STR    H1X66755   6.899   9.071   6.568
    1STR    H1Y66756   7.019   8.783   6.671
    1STR    H1Z66757   7.251   8.687   6.659
    1STR    H2066758   7.508   8.815   6.434
    1STR    H2166759   7.503   8.820   6.610
    1STR    H2266760   7.451   8.675   6.527
    1STR    H2366761   7.487   9.002   6.430
    1STR    H2766762   7.138   9.122   6.447
    1STR    H2866763   7.261   8.812   5.127
    1STR    H2966764   7.023   8.765   5.089
    1STR    H2A66765   6.782   9.010   5.102
    1STR    H2B66766   6.797   8.845   5.052
    1STR    H2C66767   6.788   8.970   4.929
    1STR   BCK166768   7.383   9.293   7.322
    1STR    O0366769   7.310   9.306   7.226
    1STR    N0466770   7.463   0.070   7.369
    1STR    C0566771   7.463   0.205   7.337
    1STR    C0666772   7.344   0.257   7.285
    1STR    C0766773   7.317   0.392   7.290
    1STR    N0866774   7.186   0.421   7.273
    1STR    C0966775   7.122   0.440   7.385
    1STR    O0A66776   7.162   0.517   7.471
    1STR    O0B66777   7.028   0.351   7.398
    1STR    C0C66778   6.980   0.308   7.523
    1STR    C0D66779   6.940   0.413   7.623
    1STR    C0E66780   6.860   0.223   7.493
    1STR    O0F66781   6.887   0.107   7.417
    1STR    C0G66782   6.953   0.006   7.488
    1STR    C0H66783   7.101   0.008   7.454
    1STR    C0I66784   6.882   9.267   7.609
    1STR    O0J66785   6.776   9.180   7.573
    1STR    C0K66786   7.682   0.990   8.614
    1STR    C0M66787   7.561   1.062   8.674
    1STR    C0N66788   7.780   0.943   8.724
    1STR    O0O66789   7.736   0.818   8.776
    1STR    C0P66790   7.810   0.708   8.756
    1STR    O0Q66791   7.926   0.707   8.716
    1STR    N0R66792   7.745   0.594   8.778
    1STR    C0S66793   7.623   0.567   8.838
    1STR    C0T66794   7.580   0.646   8.946
    1STR    C0U66795   7.479   0.598   9.031
    1STR    C0V66796   7.424   0.470   9.012
    1STR    C0W66797   7.305   0.420   9.090
    1STR    C0X66798   7.471   0.390   8.909
    1STR    N0Y66799   7.440   0.258   8.930
    1STR   BCK266800   7.419   0.154   8.855
    1STR    O1066801   7.424   0.162   8.735
    1STR    C1366802   7.559   0.443   8.812
    1STR    C1466803   7.411   0.480   7.343
    1STR    C1566804   7.540   0.435   7.372
    1STR    C1666805   7.566   0.297   7.375
    1STR    C1766806   7.696   0.263   7.445
    1STR    H1B66807   7.544   0.042   7.421
    1STR    H1C66808   7.260   0.196   7.256
    1STR    H1D66809   7.132   0.373   7.202
    1STR    H1E66810   7.057   0.250   7.569
    1STR    H1F66811   6.836   0.439   7.608
    1STR    H1G66812   6.958   0.380   7.724
    1STR    H1H66813   6.997   0.504   7.620
    1STR    H1I66814   6.791   0.284   7.438
    1STR    H1J66815   6.800   0.204   7.581
    1STR    H1K66816   6.944   9.232   7.444
    1STR    H1M66817   7.141   0.108   7.445
    1STR    H1N66818   7.111   9.292   7.352
    1STR    H1O66819   7.163   9.266   7.516
    1STR    H1P66820   6.952   9.211   7.669
    1STR    H1Q66821   6.832   0.021   7.668
    1STR   C01066822   6.744   9.093   7.680
    1STR   H01166823   6.772   9.140   7.774
    1STR   C01266824   6.592   9.082   7.684
    1STR   H01366825   6.545   9.101   7.589
    1STR   H01466826   6.551   9.156   7.753
    1STR   H01566827   6.561   8.983   7.715
    1STR   C01666828   6.822   8.960   7.670
    1STR   H01766829   6.802   8.902   7.758
    1STR   H01866830   6.784   8.900   7.588
    1STR   O01966831   6.963   8.981   7.653
    1STR   C02066832   7.052   8.891   7.718
    1STR   H02166833   7.017   8.880   7.818
    1STR   C02266834   7.049   8.750   7.663
    1STR   H02366835   7.100   8.748   7.568
    1STR   H02466836   6.947   8.713   7.652
    1STR   H02566837   7.104   8.683   7.728
    1STR   C02666838   7.196   8.949   7.714
    1STR   H02766839   7.242   8.936   7.617
    1STR   H02866840   7.199   9.056   7.731
    1STR   O02966841   7.280   8.877   7.800
    1STR   C03066842   7.381   8.949   7.870
    1STR   H03166843   7.334   9.018   7.938
    1STR   C03266844   7.440   8.832   7.951
    1STR   H03366845   7.468   8.750   7.885
    1STR   H03466846   7.365   8.794   8.021
    1STR   H03566847   7.528   8.859   8.008
    1STR   C03666848   7.492   9.020   7.785
    1STR   H03766849   7.585   9.029   7.838
    1STR   H03866850   7.521   8.945   7.714
    1STR   O03966851   7.464   9.142   7.713
    1STR   C04066852   7.518   9.269   7.761
    1STR   H04166853   7.454   9.290   7.844
    1STR   C04266854   7.664   9.275   7.807
    1STR   H04366855   7.731   9.275   7.722
    1STR   H04466856   7.693   9.201   7.880
    1STR   H04566857   7.681   0.052   7.854
    1STR   C04666858   7.503   0.064   7.660
    1STR   H04766859   7.581   0.047   7.588
    1STR   H04866860   7.414   0.042   7.606
    1STR   O04966861   7.517   0.199   7.713
    1STR   C05066862   7.432   0.311   7.670
    1STR   H05166863   7.490   0.358   7.594
    1STR   C05266864   7.302   0.269   7.610
    1STR   H05366865   7.279   0.351   7.548
    1STR   H05466866   7.223   0.266   7.683
    1STR   H05566867   7.300   0.186   7.543
    1STR   C05666868   7.399   0.433   7.764
    1STR   H05766869   7.435   0.413   7.861
    1STR   H05866870   7.456   0.520   7.730
    1STR   O05966871   7.260   0.475   7.776
    1STR   C06066872   7.211   0.511   7.907
    1STR   H06166873   7.219   0.427   7.974
    1STR   C06266874   7.292   0.629   7.963
    1STR   H06366875   7.272   0.721   7.908
    1STR   H06466876   7.399   0.613   7.961
    1STR   H06566877   7.265   0.646   8.068
    1STR   C06666878   7.061   0.549   7.910
    1STR   H06766879   7.050   0.635   7.975
    1STR   H06866880   7.033   0.580   7.810
    1STR   O06966881   6.968   0.453   7.963
    1STR   C07066882   6.831   0.494   7.975
    1STR   H07166883   6.827   0.595   8.017
    1STR   C07266884   6.754   0.495   7.844
    1STR   H07366885   6.745   0.397   7.800
    1STR   H07466886   6.810   0.555   7.776
    1STR   H07566887   6.653   0.536   7.853
    1STR   C07666888   6.754   0.401   8.067
    1STR   H07766889   6.758   0.447   8.164
    1STR   H07866890   6.648   0.396   8.044
    1STR   O07966891   6.811   0.272   8.075
    1STR   C08066892   6.793   0.182   7.967
    1STR   H08166893   6.804   0.091   8.021
    1STR   C08266894   6.649   0.163   7.910
    1STR   H08366895   6.611   0.249   7.856
    1STR   H08466896   6.577   0.141   7.988
    1STR   H08566897   6.647   0.078   7.842
    1STR   C08666898   6.905   0.167   7.861
    1STR   H08766899   6.912   0.060   7.848
    1STR   H08866900   6.865   0.206   7.770
    1STR   O08966901   7.038   0.221   7.876
    1STR   C09066902   7.148   0.128   7.866
    1STR   H09166903   7.110   0.051   7.921
    1STR   C09266904   7.148   0.037   7.748
    1STR   H09366905   7.081   0.084   7.679
    1STR   H09466906   7.117   9.256   7.770
    1STR   H09566907   7.244   0.025   7.702
    1STR   C09666908   7.291   0.148   7.921
    1STR   H09766909   7.315   0.053   7.962
    1STR   H09866910   7.348   0.155   7.835
    1STR   O09966911   7.347   0.246   8.010
    1STR   C10066912   7.491   0.243   8.024
    1STR   H10166913   7.540   0.229   7.929
    1STR   C10266914   7.541   0.380   8.075
    1STR   H10366915   7.457   0.445   8.100
    1STR   H10466916   7.601   0.432   7.999
    1STR   H10566917   7.603   0.372   8.163
    1STR   C10666918   7.545   0.132   8.112
    1STR   H10766919   7.650   0.152   8.137
    1STR   H10866920   7.488   0.138   8.201
    1STR   O10966921   7.542   0.004   8.054
    1STR   C11066922   7.457   9.222   8.103
    1STR   H11166923   7.400   9.192   8.016
    1STR   C11266924   7.551   9.103   8.127
    1STR   H11366925   7.644   9.134   8.173
    1STR   H11466926   7.585   9.063   8.035
    1STR   H11566927   7.503   9.023   8.184
    1STR   C11666928   7.345   9.248   8.206
    1STR   H11766929   7.281   9.162   8.197
    1STR   H11866930   7.378   9.245   8.306
    1STR   O11966931   7.277   0.052   8.185
    1STR   C12066932   7.140   0.073   8.220
    1STR   H12166933   7.126   0.067   8.328
    1STR   C12266934   7.119   0.219   8.181
    1STR   H12366935   7.117   0.239   8.077
    1STR   H12466936   7.202   0.280   8.207
    1STR   H12566937   7.025   0.262   8.210
    1STR   C12666938   7.049   9.308   8.128
    1STR   H12766939   6.990   0.059   8.074
    1STR   H12866940   7.129   9.267   8.071
    1STR   O12966941   6.961   9.196   8.143
    1STR   C13066942   6.942   9.117   8.023
    1STR   H13166943   6.921   9.184   7.939
    1STR   C13266944   7.080   9.053   8.000
    1STR   H13366945   7.145   9.066   8.084
    1STR   H13466946   7.130   9.102   7.918
    1STR   H13566947   7.083   8.946   7.989
    1STR   C13666948   6.831   9.006   8.022
    1STR   H13766949   6.868   8.926   7.961
    1STR   H13866950   6.819   8.961   8.118
    1STR   O13966951   6.700   9.034   7.970
    1STR   C14066952   6.598   8.942   8.012
    1STR   H14166953   6.611   8.923   8.119
    1STR   C14266954   6.462   9.011   7.993
    1STR   H14366955   6.430   9.014   7.889
    1STR   H14466956   6.463   9.114   8.028
    1STR   H14566957   6.384   8.957   8.047
    1STR   C14666958   6.594   8.805   7.942
    1STR   H14766959   6.530   8.736   7.998
    1STR   H14866960   6.547   8.814   7.845
    1STR   O14966961   6.722   8.750   7.917
    1STR   C15066962   6.762   8.643   8.000
    1STR   H15166963   6.728   8.658   8.103
    1STR   C15266964   6.700   8.513   7.947
    1STR   H15366965   6.734   8.491   7.846
    1STR   H15466966   6.591   8.518   7.945
    1STR   H15566967   6.727   8.429   8.010
    1STR   C15666968   6.916   8.638   7.993
    1STR   H15766969   6.954   8.542   8.026
    1STR   H15866970   6.945   8.642   7.888
    1STR   O15966971   6.983   8.746   8.058
    1STR   C16066972   6.971   8.753   8.200
    1STR   H16166973   6.866   8.755   8.222
    1STR   C16266974   7.035   8.626   8.260
    1STR   H16366975   7.139   8.616   8.229
    1STR   H16466976   6.981   8.535   8.233
    1STR   H16566977   7.031   8.627   8.368
    1STR   C16666978   7.031   8.883   8.263
    1STR   H16766979   7.070   8.851   8.356
    1STR   H16866980   7.122   8.911   8.211
    1STR   O16966981   6.941   8.994   8.294
    1STR   C17066982   6.970   9.084   8.404
    1STR   H17166983   6.960   9.027   8.494
    1STR   C17266984   7.114   9.124   8.401
    1STR   H17366985   7.125   9.184   8.318
    1STR   H17466986   7.184   9.046   8.377
    1STR   H17566987   7.144   9.179   8.489
    1STR   C17666988   6.893   9.222   8.425
    1STR   H17766989   6.894   9.237   8.533
    1STR   H17866990   6.952   9.306   8.393
    1STR   O17966991   6.758   9.248   8.386
    1STR   C18066992   6.735   0.009   8.271
    1STR   H18166993   6.828   0.048   8.232
    1STR   C18266994   6.668   9.238   8.170
    1STR   H18366995   6.696   9.136   8.193
    1STR   H18466996   6.694   9.254   8.067
    1STR   H18566997   6.561   9.247   8.175
    1STR   C18666998   6.645   0.132   8.293
    1STR   H18766999   6.703   0.218   8.323
    1STR   H18867000   6.606   0.160   8.196
    1STR   O18967001   6.543   0.110   8.389
    1STR   C19067002   6.411   0.150   8.356
    1STR   H19167003   6.368   0.178   8.451
    1STR   C19267004   6.398   0.279   8.273
    1STR   H19367005   6.421   0.265   8.167
    1STR   H19467006   6.465   0.356   8.312
    1STR   H19567007   6.297   0.319   8.279
    1STR   C19667008   6.329   0.029   8.307
    1STR   H19767009   6.227   0.060   8.286
    1STR   H19867010   6.369   9.310   8.214
    1STR   O19967011   6.324   9.250   8.411
    1STR   C20067012   6.332   9.111   8.380
    1STR   H20167013   6.309   9.060   8.473
    1STR   C20267014   6.227   9.071   8.275
    1STR   H20367015   6.247   9.117   8.178
    1STR   H20467016   6.128   9.103   8.307
    1STR   H20567017   6.226   8.963   8.262
    1STR   C20667018   6.475   9.066   8.348
    1STR   H20767019   6.487   9.055   8.242
    1STR   H20867020   6.540   9.148   8.376
    1STR   O20967021   6.518   8.944   8.410
    1STR   C21067022   6.661   8.940   8.431
    1STR   H21167023   6.712   8.987   8.348
    1STR   C21267024   6.686   9.017   8.558
    1STR   H21367025   6.670   9.119   8.538
    1STR   H21467026   6.785   9.025   8.595
    1STR   H21567027   6.619   8.992   8.638
    1STR   C21667028   6.713   8.796   8.439
    1STR   H21767029   6.654   8.741   8.512
    1STR   H21867030   6.686   8.749   8.345
    1STR   O21967031   6.857   8.784   8.451
    1STR   C22067032   6.924   8.784   8.577
    1STR   H22167033   6.896   8.871   8.627
    1STR   C22267034   6.866   8.662   8.648
    1STR   H22367035   6.891   8.570   8.595
    1STR   H22467036   6.759   8.657   8.659
    1STR   H22567037   6.901   8.663   8.751
    1STR   C22667038   7.082   8.793   8.589
    1STR   H22767039   7.100   8.784   8.696
    1STR   H22867040   7.122   8.708   8.537
    1STR   O22967041   7.164   8.908   8.552
    1STR   C23067042   7.309   8.898   8.544
    1STR   H23167043   7.343   8.871   8.643
    1STR   C23267044   7.347   8.786   8.443
    1STR   H23367045   7.301   8.805   8.346
    1STR   H23467046   7.320   8.686   8.474
    1STR   H23567047   7.455   8.783   8.426
    1STR   C23667048   7.400   9.021   8.499
    1STR   H23767049   7.500   8.995   8.534
    1STR   H23867050   7.406   9.019   8.390
    1STR   O23967051   7.375   9.160   8.530
    1STR   C24067052   7.484   9.258   8.522
    1STR   H24167053   7.522   9.275   8.622
    1STR   C24267054   7.607   9.208   8.446
    1STR   H24367055   7.573   9.163   8.356
    1STR   H24467056   7.665   9.132   8.496
    1STR   H24567057   7.676   9.288   8.417
    1STR   C24667058   7.454   0.085   8.476
    1STR   H24767059   7.517   0.154   8.531
    1STR   H24867060   7.500   0.096   8.382
    1STR   O24967061   7.321   0.140   8.466
    1STR   C25067062   7.319   0.286   8.464
    1STR   H25167063   7.357   0.316   8.560
    1STR   C25267064   7.414   0.349   8.363
    1STR   H25367065   7.401   0.457   8.357
    1STR   H25467066   7.392   0.310   8.265
    1STR   H25567067   7.518   0.329   8.386
    1STR   C25667068   7.179   0.352   8.447
    1STR   H25767069   7.172   0.436   8.512
    1STR   H25867070   7.165   0.404   8.354
    1STR   O25967071   7.076   0.259   8.475
    1STR   C26067072   6.941   0.292   8.446
    1STR   H26167073   6.915   0.219   8.370
    1STR   C26267074   6.856   0.242   8.559
    1STR   H26367075   6.865   0.297   8.652
    1STR   H26467076   6.885   0.139   8.579
    1STR   H26567077   6.752   0.246   8.530
    1STR   C26667078   6.897   0.429   8.385
    1STR   H26767079   6.946   0.440   8.288
    1STR   H26867080   6.791   0.421   8.364
    1STR   O26967081   6.919   0.553   8.449
    1STR   C27067082   6.839   0.592   8.560
    1STR   H27167083   6.836   0.701   8.554
    1STR   C27267084   6.691   0.547   8.561
    1STR   H27367085   6.680   0.440   8.574
    1STR   H27467086   6.640   0.577   8.470
    1STR   H27567087   6.638   0.592   8.645
    1STR   C27667088   6.913   0.561   8.690
    1STR   H27767089   6.968   0.649   8.722
    1STR   H27867090   6.848   0.528   8.771
    1STR   O27967091   7.013   0.468   8.665
    1STR   C28067092   7.105   0.456   8.768
    1STR   H28167093   7.058   0.476   8.864
    1STR   C28267094   7.138   0.311   8.773
    1STR   H28367095   7.185   0.267   8.687
    1STR   H28467096   7.046   0.258   8.791
    1STR   H28567097   7.206   0.301   8.856
    1STR   C28667098   7.232   0.536   8.740
    1STR   H28767099   7.286   0.554   8.831
    1STR   H28867100   7.296   0.472   8.683
    1STR   O28967101   7.212   0.664   8.682
    1STR   C29067102   7.288   0.693   8.565
    1STR   H29167103   7.242   0.642   8.479
    1STR   C29267104   7.272   0.844   8.551
    1STR   H29367105   7.308   0.893   8.641
    1STR   H29467106   7.167   0.870   8.538
    1STR   H29567107   7.329   0.882   8.467
    1STR   C29667108   7.438   0.655   8.571
    1STR   H29767109   7.485   0.713   8.651
    1STR   H29867110   7.455   0.551   8.595
    1STR   O29967111   7.502   0.671   8.445
    1STR   C30067112   7.644   0.662   8.456
    1STR   H30167113   7.670   0.613   8.549
    1STR   C30267114   7.702   0.572   8.348
    1STR   H30367115   7.679   0.468   8.370
    1STR   H30467116   7.811   0.579   8.346
    1STR   H30567117   7.663   0.597   8.250
    1STR   C30667118   7.702   0.804   8.457
    1STR   H30767119   7.807   0.800   8.486
    1STR   H30867120   7.696   0.849   8.358
    1STR   O30967121   7.623   0.880   8.548
    1STR    H1R67122   7.731   1.055   8.542
    1STR    H1S67123   7.589   1.156   8.723
    1STR    H1T67124   7.511   0.999   8.748
    1STR    H1U67125   7.488   1.085   8.597
    1STR    H1V67126   7.785   1.015   8.805
    1STR    H1W67127   7.880   0.937   8.683
    1STR    H1X67128   7.806   0.515   8.763
    1STR    H1Y67129   7.627   0.739   8.971
    1STR    H1Z67130   7.449   0.659   9.113
    1STR    H2067131   7.216   0.462   9.044
    1STR    H2167132   7.288   0.313   9.090
    1STR    H2267133   7.304   0.443   9.193
    1STR    H2367134   7.423   0.237   9.027
    1STR    H2767135   7.594   0.380   8.732
    1STR    H2867136   7.386   0.583   7.358
    1STR    H2967137   7.614   0.505   7.407
    1STR    H2A67138   7.702   0.164   7.483
    1STR    H2B67139   7.709   0.326   7.533
    1STR    H2C67140   7.781   0.282   7.380
    1STR   BCK167141   7.141   2.595   0.550
    1STR    O0367142   7.153   2.552   0.663
    1STR    N0467143   7.045   2.563   0.467
    1STR    C0567144   6.969   2.450   0.481
    1STR    C0667145   7.030   2.333   0.526
    1STR    C0767146   6.961   2.213   0.529
    1STR    N0867147   7.036   2.106   0.570
    1STR    C0967148   6.997   1.982   0.586
    1STR    O0A67149   6.889   1.941   0.547
    1STR    O0B67150   7.087   1.903   0.650
    1STR    C0C67151   7.191   1.951   0.733
    1STR    C0D67152   7.232   1.837   0.828
    1STR    C0E67153   7.309   2.003   0.656
    1STR    O0F67154   7.296   2.142   0.624
    1STR    C0G67155   7.361   2.240   0.704
    1STR    C0H67156   7.355   2.206   0.850
    1STR    C0I67157   7.504   2.288   0.672
    1STR    O0J67158   7.544   2.408   0.746
    1STR    C0K67159   6.513   3.193   1.590
    1STR    C0M67160   6.464   3.094   1.489
    1STR    C0N67161   6.437   3.179   1.722
    1STR    O0O67162   6.391   3.049   1.754
    1STR    C0P67163   6.313   3.037   1.862
    1STR    O0Q67164   6.254   3.131   1.916
    1STR    N0R67165   6.304   2.915   1.913
    1STR    C0S67166   6.361   2.798   1.865
    1STR    C0T67167   6.329   2.749   1.737
    1STR    C0U67168   6.380   2.624   1.697
    1STR    C0V67169   6.472   2.557   1.778
    1STR    C0W67170   6.534   2.429   1.733
    1STR    C0X67171   6.519   2.618   1.894
    1STR    N0Y67172   6.650   2.590   1.928
    1STR   BCK267173   6.724   2.634   2.028
    1STR    O1067174   6.676   2.680   2.129
    1STR    C1367175   6.450   2.728   1.947
    1STR    C1467176   6.825   2.211   0.491
    1STR    C1567177   6.761   2.329   0.449
    1STR    C1667178   6.835   2.447   0.441
    1STR    C1767179   6.768   2.571   0.391
    1STR    H1B67180   7.040   2.615   0.382
    1STR    H1C67181   7.133   2.333   0.555
    1STR    H1D67182   7.132   2.124   0.597
    1STR    H1E67183   7.150   2.036   0.783
    1STR    H1F67184   7.287   1.759   0.776
    1STR    H1G67185   7.297   1.872   0.908
    1STR    H1H67186   7.144   1.792   0.873
    1STR    H1I67187   7.300   1.944   0.566
    1STR    H1J67188   7.406   1.980   0.700
    1STR    H1K67189   7.297   2.325   0.686
    1STR    H1M67190   7.386   2.106   0.876
    1STR    H1N67191   7.255   2.232   0.884
    1STR    H1O67192   7.424   2.269   0.900
    1STR    H1P67193   7.573   2.209   0.699
    1STR    H1Q67194   7.519   2.299   0.566
    1STR   C01067195   7.460   2.526   0.743
    1STR   H01167196   7.398   2.521   0.657
    1STR   C01267197   7.360   2.523   0.854
    1STR   H01367198   7.422   2.494   0.933
    1STR   H01467199   7.278   2.453   0.845
    1STR   H01567200   7.312   2.618   0.876
    1STR   C01667201   7.537   2.660   0.758
    1STR   H01767202   7.563   2.681   0.862
    1STR   H01867203   7.633   2.653   0.710
    1STR   O01967204   7.466   2.770   0.699
    1STR   C02067205   7.390   2.859   0.783
    1STR   H02167206   7.374   2.815   0.879
    1STR   C02267207   7.471   2.988   0.795
    1STR   H02367208   7.489   3.032   0.697
    1STR   H02467209   7.568   2.969   0.842
    1STR   H02567210   7.418   3.062   0.856
    1STR   C02667211   7.247   2.881   0.729
    1STR   H02767212   7.252   2.921   0.628
    1STR   H02867213   7.197   2.784   0.731
    1STR   O02967214   7.166   2.967   0.806
    1STR   C03067215   7.022   2.958   0.794
    1STR   H03167216   6.980   2.902   0.877
    1STR   C03267217   6.987   3.105   0.816
    1STR   H03367218   7.032   3.168   0.740
    1STR   H03467219   7.028   3.140   0.911
    1STR   H03567220   6.880   3.121   0.819
    1STR   C03667221   6.957   2.901   0.663
    1STR   H03767222   6.881   2.970   0.630
    1STR   H03867223   7.032   2.900   0.584
    1STR   O03967224   6.901   2.769   0.663
    1STR   C04067225   6.769   2.742   0.716
    1STR   H04167226   6.770   2.776   0.818
    1STR   C04267227   6.657   2.818   0.648
    1STR   H04367228   6.640   2.782   0.549
    1STR   H04467229   6.666   2.926   0.651
    1STR   H04567230   6.564   2.787   0.693
    1STR   C04667231   6.733   2.591   0.698
    1STR   H04767232   6.659   2.576   0.619
    1STR   H04867233   6.824   2.547   0.664
    1STR   O04967234   6.684   2.515   0.808
    1STR   C05067235   6.630   2.383   0.787
    1STR   H05167236   6.562   2.386   0.703
    1STR   C05267237   6.739   2.296   0.745
    1STR   H05367238   6.790   2.265   0.830
    1STR   H05467239   6.817   2.346   0.692
    1STR   H05567240   6.700   2.206   0.697
    1STR   C05667241   6.569   2.311   0.912
    1STR   H05767242   6.636   2.324   0.997
    1STR   H05867243   6.477   2.357   0.938
    1STR   O05967244   6.538   2.172   0.895
    1STR   C06067245   6.509   2.095   1.013
    1STR   H06167246   6.581   2.123   1.090
    1STR   C06267247   6.365   2.125   1.059
    1STR   H06367248   6.291   2.088   0.990
    1STR   H06467249   6.346   2.232   1.070
    1STR   H06567250   6.343   2.075   1.152
    1STR   C06667251   6.519   1.940   0.995
    1STR   H06767252   6.514   1.893   1.093
    1STR   H06867253   6.431   1.905   0.941
    1STR   O06967254   6.628   1.880   0.925
    1STR   C07067255   6.761   1.908   0.966
    1STR   H07167256   6.763   1.945   1.068
    1STR   C07267257   6.850   1.785   0.954
    1STR   H07367258   6.945   1.801   1.004
    1STR   H07467259   6.876   1.767   0.851
    1STR   H07567260   6.804   1.696   0.995
    1STR   C07667261   6.803   2.015   0.866
    1STR   H07767262   6.769   1.992   0.765
    1STR   H07867263   6.744   2.095   0.902
    1STR   O07967264   6.939   2.056   0.861
    1STR   C08067265   6.984   2.131   0.972
    1STR   H08167266   6.908   2.109   1.041
    1STR   C08267267   7.112   2.061   1.024
    1STR   H08367268   7.090   1.955   1.035
    1STR   H08467269   7.147   2.094   1.120
    1STR   H08567270   7.202   2.062   0.969
    1STR   C08667271   6.984   2.287   0.956
    1STR   H08767272   7.077   2.329   0.991
    1STR   H08867273   6.994   2.304   0.849
    1STR   O08967274   6.868   2.358   1.015
    1STR   C09067275   6.871   2.504   1.020
    1STR   H09167276   6.933   2.521   1.108
    1STR   C09267277   6.964   2.557   0.910
    1STR   H09367278   6.951   2.505   0.816
    1STR   H09467279   7.068   2.544   0.936
    1STR   H09567280   6.949   2.662   0.887
    1STR   C09667281   6.742   2.601   1.046
    1STR   H09767282   6.768   2.639   1.144
    1STR   H09867283   6.748   2.693   0.991
    1STR   O09967284   6.599   2.570   1.062
    1STR   C10067285   6.483   2.613   0.979
    1STR   H10167286   6.489   2.568   0.882
    1STR   C10267287   6.363   2.543   1.047
    1STR   H10367288   6.310   2.608   1.116
    1STR   H10467289   6.395   2.456   1.102
    1STR   H10567290   6.289   2.510   0.974
    1STR   C10667291   6.427   2.756   0.943
    1STR   H10767292   6.357   2.735   0.862
    1STR   H10867293   6.360   2.792   1.019
    1STR   O10967294   6.509   2.861   0.894
    1STR   C11067295   6.445   2.979   0.836
    1STR   H11167296   6.528   3.031   0.789
    1STR   C11267297   6.346   2.950   0.722
    1STR   H11367298   6.245   2.943   0.761
    1STR   H11467299   6.368   2.861   0.665
    1STR   H11567300   6.344   3.033   0.652
    1STR   C11667301   6.383   3.081   0.935
    1STR   H11767302   6.450   3.166   0.955
    1STR   H11867303   6.295   3.128   0.892
    1STR   O11967304   6.344   3.017   1.055
    1STR   C12067305   6.437   3.015   1.163
    1STR   H12167306   6.425   3.112   1.212
    1STR   C12267307   6.377   2.900   1.248
    1STR   H12367308   6.268   2.900   1.243
    1STR   H12467309   6.400   2.904   1.353
    1STR   H12567310   6.412   2.802   1.217
    1STR   C12667311   6.587   2.996   1.121
    1STR   H12767312   6.610   2.892   1.107
    1STR   H12867313   6.602   3.037   1.023
    1STR   O12967314   6.683   3.066   1.199
    1STR   C13067315   6.807   3.091   1.130
    1STR   H13167316   6.802   3.069   1.024
    1STR   C13267317   6.837   3.241   1.144
    1STR   H13367318   6.843   3.270   1.249
    1STR   H13467319   6.759   3.300   1.097
    1STR   H13567320   6.932   3.266   1.097
    1STR   C13667321   6.918   3.002   1.185
    1STR   H13767322   6.929   3.018   1.292
    1STR   H13867323   6.881   2.900   1.172
    1STR   O13967324   7.045   3.015   1.118
    1STR   C14067325   7.134   2.907   1.149
    1STR   H14167326   7.117   2.886   1.252
    1STR   C14267327   7.102   2.782   1.067
    1STR   H14367328   6.996   2.761   1.066
    1STR   H14467329   7.151   2.693   1.106
    1STR   H14567330   7.139   2.788   0.965
    1STR   C14667331   7.284   2.933   1.142
    1STR   H14767332   7.314   2.952   1.039
    1STR   H14867333   7.312   3.020   1.202
    1STR   O14967334   7.338   2.813   1.198
    1STR   C15067335   7.460   2.763   1.148
    1STR   H15167336   7.475   2.792   1.046
    1STR   C15267337   7.573   2.830   1.226
    1STR   H15367338   7.556   2.826   1.333
    1STR   H15467339   7.580   2.936   1.200
    1STR   H15567340   7.670   2.784   1.205
    1STR   C15667341   7.464   2.607   1.152
    1STR   H15767342   7.539   2.576   1.080
    1STR   H15867343   7.505   2.573   1.244
    1STR   O15967344   7.337   2.539   1.135
    1STR   C16067345   7.333   2.393   1.136
    1STR   H16167346   7.283   2.369   1.044
    1STR   C16267347   7.475   2.328   1.127
    1STR   H16367348   7.540   2.348   1.211
    1STR   H16467349   7.536   2.360   1.043
    1STR   H16567350   7.466   2.220   1.118
    1STR   C16667351   7.237   2.319   1.236
    1STR   H16767352   7.272   2.218   1.246
    1STR   H16867353   7.236   2.359   1.335
    1STR   O16967354   7.101   2.299   1.206
    1STR   C17067355   7.026   2.246   1.316
    1STR   H17167356   7.091   2.201   1.391
    1STR   C17267357   6.963   2.374   1.362
    1STR   H17367358   6.901   2.409   1.280
    1STR   H17467359   7.038   2.448   1.384
    1STR   H17567360   6.897   2.372   1.448
    1STR   C17667361   6.918   2.144   1.277
    1STR   H17767362   6.835   2.128   1.342
    1STR   H17867363   6.858   2.195   1.203
    1STR   O17967364   6.971   2.017   1.237
    1STR   C18067365   6.985   1.909   1.326
    1STR   H18167366   6.987   1.947   1.426
    1STR   C18267367   6.863   1.820   1.297
    1STR   H18367368   6.879   1.761   1.208
    1STR   H18467369   6.775   1.881   1.279
    1STR   H18567370   6.839   1.749   1.375
    1STR   C18667371   7.116   1.831   1.300
    1STR   H18767372   7.102   1.728   1.333
    1STR   H18867373   7.138   1.827   1.194
    1STR   O18967374   7.226   1.885   1.373
    1STR   C19067375   7.357   1.837   1.345
    1STR   H19167376   7.411   1.843   1.439
    1STR   C19267377   7.366   1.690   1.298
    1STR   H19367378   7.319   1.675   1.201
    1STR   H19467379   7.319   1.623   1.369
    1STR   H19567380   7.470   1.659   1.289
    1STR   C19667381   7.432   1.933   1.251
    1STR   H19767382   7.536   1.906   1.239
    1STR   H19867383   7.385   1.929   1.153
    1STR   O19967384   7.420   2.067   1.297
    1STR   C20067385   7.499   2.113   1.406
    1STR   H20167386   7.500   2.037   1.484
    1STR   C20267387   7.642   2.136   1.357
    1STR   H20367388   7.646   2.152   1.249
    1STR   H20467389   7.705   2.050   1.378
    1STR   H20567390   7.688   2.224   1.402
    1STR   C20667391   7.429   2.236   1.471
    1STR   H20767392   7.324   2.209   1.480
    1STR   H20867393   7.465   2.253   1.571
    1STR   O20967394   7.443   2.362   1.407
    1STR   C21067395   7.423   2.485   1.478
    1STR   H21167396   7.401   2.465   1.583
    1STR   C21267397   7.569   2.536   1.472
    1STR   H21367398   7.633   2.474   1.408
    1STR   H21467399   7.620   2.538   1.568
    1STR   H21567400   7.577   2.636   1.432
    1STR   C21667401   7.309   2.585   1.422
    1STR   H21767402   7.354   2.677   1.392
    1STR   H21867403   7.258   2.554   1.334
    1STR   O21967404   7.194   2.608   1.503
    1STR   C22067405   7.100   2.716   1.477
    1STR   H22167406   7.043   2.723   1.566
    1STR   C22267407   7.171   2.852   1.488
    1STR   H22367408   7.252   2.866   1.418
    1STR   H22467409   7.211   2.863   1.589
    1STR   H22567410   7.101   2.935   1.474
    1STR   C22667411   6.984   2.709   1.369
    1STR   H22767412   6.944   2.809   1.358
    1STR   H22867413   7.033   2.680   1.278
    1STR   O22967414   6.869   2.620   1.369
    1STR   C23067415   6.732   2.651   1.404
    1STR   H23167416   6.712   2.644   1.509
    1STR   C23267417   6.685   2.789   1.359
    1STR   H23367418   6.708   2.802   1.256
    1STR   H23467419   6.728   2.875   1.411
    1STR   H23567420   6.579   2.796   1.375
    1STR   C23667421   6.638   2.542   1.347
    1STR   H23767422   6.568   2.588   1.279
    1STR   H23867423   6.695   2.467   1.295
    1STR   O23967424   6.557   2.483   1.447
    1STR   C24067425   6.455   2.394   1.406
    1STR   H24167426   6.421   2.342   1.494
    1STR   C24267427   6.329   2.468   1.360
    1STR   H24367428   6.272   2.411   1.287
    1STR   H24467429   6.353   2.566   1.319
    1STR   H24567430   6.261   2.486   1.443
    1STR   C24667431   6.504   2.284   1.309
    1STR   H24767432   6.416   2.232   1.276
    1STR   H24867433   6.548   2.326   1.218
    1STR   O24967434   6.594   2.188   1.363
    1STR   C25067435   6.548   2.113   1.475
    1STR   H25167436   6.542   2.180   1.560
    1STR   C25267437   6.409   2.049   1.452
    1STR   H25367438   6.408   1.989   1.361
    1STR   H25467439   6.330   2.123   1.447
    1STR   H25567440   6.383   1.983   1.535
    1STR   C25667441   6.646   2.000   1.508
    1STR   H25767442   6.609   1.943   1.591
    1STR   H25867443   6.638   1.928   1.427
    1STR   O25967444   6.786   2.020   1.527
    1STR   C26067445   6.852   2.130   1.593
    1STR   H26167446   6.895   2.189   1.518
    1STR   C26267447   6.771   2.234   1.667
    1STR   H26367448   6.698   2.192   1.736
    1STR   H26467449   6.723   2.295   1.593
    1STR   H26567450   6.837   2.298   1.724
    1STR   C26667451   6.982   2.082   1.657
    1STR   H26767452   6.977   2.075   1.764
    1STR   H26867453   7.000   1.982   1.625
    1STR   O26967454   7.097   2.151   1.614
    1STR   C27067455   7.157   2.229   1.714
    1STR   H27167456   7.101   2.238   1.805
    1STR   C27267457   7.291   2.167   1.749
    1STR   H27367458   7.367   2.242   1.771
    1STR   H27467459   7.325   2.098   1.672
    1STR   H27567460   7.282   2.108   1.839
    1STR   C27667461   7.169   2.366   1.657
    1STR   H27767462   7.242   2.420   1.717
    1STR   H27867463   7.207   2.360   1.556
    1STR   O27967464   7.046   2.432   1.638
    1STR   C28067465   7.007   2.525   1.736
    1STR   H28167466   6.971   2.465   1.816
    1STR   C28267467   7.117   2.625   1.782
    1STR   H28367468   7.212   2.615   1.734
    1STR   H28467469   7.130   2.617   1.888
    1STR   H28567470   7.094   2.730   1.768
    1STR   C28667471   6.880   2.593   1.691
    1STR   H28767472   6.890   2.587   1.585
    1STR   H28867473   6.793   2.535   1.715
    1STR   O28967474   6.873   2.726   1.744
    1STR   C29067475   6.819   2.827   1.664
    1STR   H29167476   6.838   2.800   1.563
    1STR   C29267477   6.672   2.842   1.699
    1STR   H29367478   6.615   2.754   1.670
    1STR   H29467479   6.629   2.928   1.649
    1STR   H29567480   6.659   2.855   1.806
    1STR   C29667481   6.894   2.957   1.678
    1STR   H29767482   6.861   3.007   1.768
    1STR   H29867483   7.001   2.939   1.682
    1STR   O29967484   6.872   3.029   1.558
    1STR   C30067485   6.878   3.169   1.574
    1STR   H30167486   6.885   3.198   1.678
    1STR   C30267487   7.000   3.223   1.500
    1STR   H30367488   7.000   3.197   1.395
    1STR   H30467489   7.092   3.183   1.544
    1STR   H30567490   7.005   3.332   1.507
    1STR   C30667491   6.743   3.219   1.525
    1STR   H30767492   6.740   3.328   1.522
    1STR   H30867493   6.724   3.181   1.425
    1STR   O30967494   6.649   3.169   1.619
    1STR    H1R67495   6.502   3.295   1.554
    1STR    H1S67496   6.362   3.115   1.457
    1STR    H1T67497   6.465   2.993   1.531
    1STR    H1U67498   6.529   3.091   1.402
    1STR    H1V67499   6.356   3.251   1.727
    1STR    H1W67500   6.511   3.200   1.798
    1STR    H1X67501   6.260   2.910   2.003
    1STR    H1Y67502   6.262   2.803   1.672
    1STR    H1Z67503   6.353   2.582   1.602
    1STR    H2067504   6.590   2.380   1.812
    1STR    H2167505   6.459   2.358   1.698
    1STR    H2267506   6.607   2.452   1.658
    1STR    H2367507   6.706   2.544   1.859
    1STR    H2767508   6.476   2.767   2.043
    1STR    H2867509   6.764   2.123   0.494
    1STR    H2967510   6.656   2.326   0.424
    1STR    H2A67511   6.801   2.656   0.450
    1STR    H2B67512   6.661   2.561   0.399
    1STR    H2C67513   6.795   2.583   0.289
    1STR   BCK167514   7.406   1.819   2.741
    1STR    O0367515   7.395   1.726   2.819
    1STR    N0467516   7.517   1.882   2.714
    1STR    C0567517   7.580   1.953   2.813
    1STR    C0667518   7.569   2.093   2.805
    1STR    C0767519   7.662   2.176   2.868
    1STR    N0867520   7.664   2.310   2.829
    1STR    C0967521   7.755   2.406   2.845
    1STR    O0A67522   7.855   2.403   2.914
    1STR    O0B67523   7.713   2.516   2.785
    1STR    C0C67524   7.616   2.589   2.857
    1STR    C0D67525   7.674   2.725   2.898
    1STR    C0E67526   7.482   2.593   2.783
    1STR    O0F67527   7.380   2.586   2.882
    1STR    C0G67528   7.277   2.487   2.870
    1STR    C0H67529   7.349   2.353   2.859
    1STR    C0I67530   7.185   2.495   2.992
    1STR    O0J67531   7.091   2.599   3.009
    1STR    C0K67532   6.901   1.816   3.934
    1STR    C0M67533   6.789   1.879   3.850
    1STR    C0N67534   6.897   1.861   4.082
    1STR    O0O67535   6.987   1.798   4.171
    1STR    C0P67536   7.111   1.841   4.187
    1STR    O0Q67537   7.160   1.933   4.125
    1STR    N0R67538   7.174   1.762   4.273
    1STR    C0S67539   7.305   1.716   4.288
    1STR    C0T67540   7.357   1.658   4.404
    1STR    C0U67541   7.481   1.591   4.406
    1STR    C0V67542   7.570   1.611   4.301
    1STR    C0W67543   7.713   1.563   4.311
    1STR    C0X67544   7.526   1.692   4.196
    1STR    N0Y67545   7.608   1.770   4.122
    1STR   BCK267546   7.610   1.902   4.139
    1STR    O1067547   7.663   1.969   4.052
    1STR    C1367548   7.393   1.730   4.185
    1STR    C1467549   7.754   2.118   2.956
    1STR    C1567550   7.756   1.979   2.977
    1STR    C1667551   7.670   1.894   2.903
    1STR    C1767552   7.684   1.743   2.911
    1STR    H1B67553   7.503   1.936   2.630
    1STR    H1C67554   7.496   2.137   2.741
    1STR    H1D67555   7.585   2.342   2.776
    1STR    H1E67556   7.601   2.533   2.948
    1STR    H1F67557   7.687   2.789   2.812
    1STR    H1G67558   7.608   2.774   2.969
    1STR    H1H67559   7.771   2.713   2.946
    1STR    H1I67560   7.475   2.514   2.709
    1STR    H1J67561   7.475   2.684   2.724
    1STR    H1K67562   7.211   2.498   2.785
    1STR    H1M67563   7.440   2.353   2.919
    1STR    H1N67564   7.375   2.334   2.757
    1STR    H1O67565   7.289   2.271   2.893
    1STR    H1P67566   7.135   2.401   3.009
    1STR    H1Q67567   7.251   2.518   3.072
    1STR   C01067568   7.007   2.580   3.122
    1STR   H01167569   7.054   2.512   3.190
    1STR   C01267570   6.980   2.712   3.196
    1STR   H01367571   6.906   2.775   3.150
    1STR   H01467572   7.072   2.768   3.213
    1STR   H01567573   6.934   2.695   3.292
    1STR   C01667574   6.876   2.523   3.072
    1STR   H01767575   6.792   2.558   3.130
    1STR   H01867576   6.860   2.570   2.976
    1STR   O01967577   6.877   2.383   3.052
    1STR   C02067578   6.831   2.300   3.157
    1STR   H02167579   6.898   2.312   3.241
    1STR   C02267580   6.684   2.333   3.195
    1STR   H02367581   6.668   2.433   3.233
    1STR   H02467582   6.649   2.269   3.275
    1STR   H02567583   6.614   2.321   3.113
    1STR   C02667584   6.835   2.156   3.103
    1STR   H02767585   6.734   2.117   3.109
    1STR   H02867586   6.862   2.160   2.998
    1STR   O02967587   6.926   2.063   3.156
    1STR   C03067588   6.875   1.930   3.147
    1STR   H03167589   6.794   1.927   3.221
    1STR   C03267590   6.820   1.882   3.016
    1STR   H03367591   6.893   1.879   2.937
    1STR   H03467592   6.732   1.937   2.985
    1STR   H03567593   6.794   1.779   3.037
    1STR   C03667594   6.974   1.825   3.191
    1STR   H03767595   7.016   1.880   3.269
    1STR   H03867596   6.920   1.739   3.229
    1STR   O03967597   7.081   1.780   3.108
    1STR   C04067598   7.140   1.662   3.163
    1STR   H04167599   7.125   1.653   3.270
    1STR   C04267600   7.072   1.538   3.103
    1STR   H04367601   6.964   1.553   3.092
    1STR   H04467602   7.086   1.452   3.168
    1STR   H04567603   7.113   1.511   3.007
    1STR   C04667604   7.293   1.661   3.143
    1STR   H04767605   7.331   1.559   3.143
    1STR   H04867606   7.315   1.703   3.045
    1STR   O04967607   7.358   1.733   3.249
    1STR   C05067608   7.489   1.778   3.217
    1STR   H05167609   7.543   1.702   3.161
    1STR   C05267610   7.475   1.907   3.138
    1STR   H05367611   7.424   1.983   3.192
    1STR   H05467612   7.427   1.894   3.041
    1STR   H05567613   7.570   1.954   3.125
    1STR   C05667614   7.569   1.807   3.345
    1STR   H05767615   7.510   1.873   3.408
    1STR   H05867616   7.585   1.716   3.401
    1STR   O05967617   7.697   1.864   3.311
    1STR   C06067618   7.729   1.985   3.382
    1STR   H06167619   7.648   2.054   3.365
    1STR   C06267620   7.746   1.954   3.531
    1STR   H06367621   7.830   1.887   3.547
    1STR   H06467622   7.658   1.908   3.574
    1STR   H06567623   7.765   2.046   3.588
    1STR   C06667624   7.857   2.053   3.328
    1STR   H06767625   7.915   2.100   3.408
    1STR   H06867626   7.922   1.979   3.282
    1STR   O06967627   7.829   2.152   3.231
    1STR   C07067628   7.772   2.273   3.280
    1STR   H07167629   7.742   2.262   3.385
    1STR   C07267630   7.872   2.388   3.272
    1STR   H07367631   7.904   2.405   3.169
    1STR   H07467632   7.961   2.369   3.333
    1STR   H07567633   7.827   2.481   3.306
    1STR   C07667634   7.646   2.304   3.199
    1STR   H07767635   7.667   2.342   3.099
    1STR   H07867636   7.582   2.216   3.191
    1STR   O07967637   7.590   2.404   3.278
    1STR   C08067638   7.461   2.448   3.251
    1STR   H08167639   7.442   2.464   3.353
    1STR   C08267640   7.460   2.591   3.193
    1STR   H08367641   7.488   2.596   3.090
    1STR   H08467642   7.527   2.656   3.248
    1STR   H08567643   7.364   2.639   3.193
    1STR   C08667644   7.350   2.348   3.208
    1STR   H08767645   7.253   2.392   3.226
    1STR   H08867646   7.361   2.331   3.103
    1STR   O08967647   7.347   2.221   3.269
    1STR   C09067648   7.227   2.146   3.249
    1STR   H09167649   7.135   2.199   3.268
    1STR   C09267650   7.219   2.118   3.103
    1STR   H09367651   7.318   2.116   3.059
    1STR   H09467652   7.159   2.193   3.054
    1STR   H09567653   7.170   2.022   3.088
    1STR   C09667654   7.228   2.015   3.332
    1STR   H09767655   7.220   1.930   3.265
    1STR   H09867656   7.324   1.999   3.378
    1STR   O09967657   7.125   2.011   3.430
    1STR   C10067658   7.103   1.880   3.481
    1STR   H10167659   7.127   1.803   3.410
    1STR   C10267660   7.204   1.851   3.585
    1STR   H10367661   7.161   1.879   3.680
    1STR   H10467662   7.299   1.902   3.568
    1STR   H10567663   7.228   1.745   3.583
    1STR   C10667664   6.955   1.869   3.521
    1STR   H10767665   6.937   1.923   3.613
    1STR   H10867666   6.895   1.920   3.445
    1STR   O10967667   6.911   1.734   3.535
    1STR   C11067668   6.784   1.696   3.480
    1STR   H11167669   6.793   1.683   3.373
    1STR   C11267670   6.749   1.557   3.533
    1STR   H11367671   6.741   1.558   3.642
    1STR   H11467672   6.825   1.485   3.504
    1STR   H11567673   6.654   1.522   3.492
    1STR   C11667674   6.668   1.795   3.504
    1STR   H11767675   6.588   1.748   3.562
    1STR   H11867676   6.701   1.880   3.562
    1STR   O11967677   6.617   1.836   3.377
    1STR   C12067678   6.514   1.933   3.388
    1STR   H12167679   6.439   1.899   3.460
    1STR   C12267680   6.575   2.065   3.432
    1STR   H12367681   6.669   2.080   3.379
    1STR   H12467682   6.591   2.069   3.539
    1STR   H12567683   6.511   2.150   3.406
    1STR   C12667684   6.443   1.953   3.254
    1STR   H12767685   6.508   2.004   3.183
    1STR   H12867686   6.410   1.859   3.209
    1STR   O12967687   6.332   2.033   3.290
    1STR   C13067688   6.257   2.087   3.184
    1STR   H13167689   6.313   2.087   3.090
    1STR   C13267690   6.133   1.999   3.169
    1STR   H13367691   6.077   1.994   3.262
    1STR   H13467692   6.162   1.897   3.142
    1STR   H13567693   6.067   2.035   3.091
    1STR   C13667694   6.225   2.233   3.225
    1STR   H13767695   6.130   2.267   3.186
    1STR   H13867696   6.214   2.236   3.333
    1STR   O13967697   6.334   2.315   3.176
    1STR   C14067698   6.327   2.459   3.182
    1STR   H14167699   6.431   2.490   3.168
    1STR   C14267700   6.247   2.529   3.073
    1STR   H14367701   6.141   2.506   3.082
    1STR   H14467702   6.283   2.502   2.974
    1STR   H14567703   6.257   2.637   3.081
    1STR   C14667704   6.285   2.510   3.319
    1STR   H14767705   6.324   2.610   3.336
    1STR   H14867706   6.177   2.512   3.332
    1STR   O14967707   6.339   2.412   3.401
    1STR   C15067708   6.374   2.448   3.529
    1STR   H15167709   6.317   2.533   3.565
    1STR   C15267710   6.336   2.318   3.598
    1STR   H15367711   6.380   2.231   3.550
    1STR   H15467712   6.228   2.304   3.598
    1STR   H15567713   6.370   2.317   3.699
    1STR   C15667714   6.524   2.477   3.518
    1STR   H15767715   6.566   2.504   3.614
    1STR   H15867716   6.574   2.387   3.481
    1STR   O15967717   6.544   2.584   3.427
    1STR   C16067718   6.676   2.635   3.411
    1STR   H16167719   6.698   2.633   3.305
    1STR   C16267720   6.664   2.783   3.446
    1STR   H16367721   6.643   2.796   3.551
    1STR   H16467722   6.583   2.829   3.390
    1STR   H16567723   6.755   2.838   3.422
    1STR   C16667724   6.789   2.561   3.486
    1STR   H16767725   6.884   2.607   3.465
    1STR   H16867726   6.776   2.571   3.593
    1STR   O16967727   6.800   2.425   3.447
    1STR   C17067728   6.902   2.354   3.515
    1STR   H17167729   6.898   2.386   3.618
    1STR   C17267730   6.876   2.204   3.499
    1STR   H17367731   6.882   2.170   3.396
    1STR   H17467732   6.779   2.180   3.538
    1STR   H17567733   6.949   2.146   3.555
    1STR   C17667734   7.039   2.389   3.462
    1STR   H17767735   7.087   2.301   3.425
    1STR   H17867736   7.024   2.449   3.374
    1STR   O17967737   7.128   2.445   3.558
    1STR   C18067738   7.241   2.505   3.497
    1STR   H18167739   7.269   2.427   3.430
    1STR   C18267740   7.199   2.636   3.431
    1STR   H18367741   7.190   2.713   3.506
    1STR   H18467742   7.105   2.632   3.384
    1STR   H18567743   7.271   2.678   3.363
    1STR   C18667744   7.361   2.538   3.585
    1STR   H18767745   7.322   2.583   3.674
    1STR   H18867746   7.416   2.450   3.615
    1STR   O18967747   7.448   2.619   3.504
    1STR   C19067748   7.540   2.710   3.558
    1STR   H19167749   7.535   2.709   3.666
    1STR   C19267750   7.681   2.669   3.513
    1STR   H19367751   7.696   2.688   3.407
    1STR   H19467752   7.700   2.563   3.527
    1STR   H19567753   7.757   2.725   3.568
    1STR   C19667754   7.502   2.848   3.500
    1STR   H19767755   7.571   2.924   3.536
    1STR   H19867756   7.516   2.846   3.392
    1STR   O19967757   7.368   2.891   3.521
    1STR   C20067758   7.319   2.885   3.654
    1STR   H20167759   7.311   2.783   3.685
    1STR   C20267760   7.419   2.948   3.751
    1STR   H20367761   7.444   3.050   3.723
    1STR   H20467762   7.511   2.893   3.764
    1STR   H20567763   7.370   2.945   3.847
    1STR   C20667764   7.179   2.949   3.670
    1STR   H20767765   7.147   2.940   3.774
    1STR   H20867766   7.186   3.054   3.645
    1STR   O20967767   7.077   2.902   3.584
    1STR   C21067768   6.976   2.819   3.641
    1STR   H21167769   6.920   2.793   3.553
    1STR   C21267770   7.029   2.690   3.700
    1STR   H21367771   7.130   2.693   3.738
    1STR   H21467772   7.023   2.620   3.621
    1STR   H21567773   6.967   2.641   3.773
    1STR   C21667774   6.873   2.885   3.732
    1STR   H21767775   6.919   2.923   3.822
    1STR   H21867776   6.829   2.971   3.681
    1STR   O21967777   6.772   2.786   3.751
    1STR   C22067778   6.756   2.734   3.882
    1STR   H22167779   6.847   2.717   3.936
    1STR   C22267780   6.681   2.841   3.960
    1STR   H22367781   6.606   2.885   3.896
    1STR   H22467782   6.740   2.928   3.984
    1STR   H22567783   6.639   2.803   4.053
    1STR   C22667784   6.694   2.593   3.875
    1STR   H22767785   6.661   2.564   3.975
    1STR   H22867786   6.607   2.594   3.811
    1STR   O22967787   6.784   2.496   3.821
    1STR   C23067788   6.751   2.360   3.848
    1STR   H23167789   6.724   2.358   3.952
    1STR   C23267790   6.630   2.306   3.775
    1STR   H23367791   6.649   2.294   3.669
    1STR   H23467792   6.548   2.375   3.787
    1STR   H23567793   6.598   2.210   3.815
    1STR   C23667794   6.865   2.259   3.826
    1STR   H23767795   6.857   2.190   3.908
    1STR   H23867796   6.845   2.195   3.742
    1STR   O23967797   6.996   2.313   3.811
    1STR   C24067798   7.106   2.221   3.812
    1STR   H24167799   7.171   2.276   3.876
    1STR   C24267800   7.072   2.084   3.869
    1STR   H24367801   7.009   2.033   3.797
    1STR   H24467802   7.026   2.091   3.965
    1STR   H24567803   7.157   2.019   3.884
    1STR   C24667804   7.196   2.197   3.690
    1STR   H24767805   7.217   2.092   3.679
    1STR   H24867806   7.148   2.217   3.597
    1STR   O24967807   7.322   2.264   3.705
    1STR   C25067808   7.439   2.192   3.663
    1STR   H25167809   7.437   2.089   3.696
    1STR   C25267810   7.440   2.185   3.516
    1STR   H25367811   7.485   2.271   3.468
    1STR   H25467812   7.337   2.182   3.487
    1STR   H25567813   7.488   2.094   3.483
    1STR   C25667814   7.568   2.258   3.714
    1STR   H25767815   7.637   2.186   3.760
    1STR   H25867816   7.623   2.305   3.632
    1STR   O25967817   7.528   2.352   3.810
    1STR   C26067818   7.609   2.466   3.814
    1STR   H26167819   7.626   2.505   3.715
    1STR   C26267820   7.527   2.569   3.887
    1STR   H26367821   7.481   2.526   3.976
    1STR   H26467822   7.443   2.606   3.831
    1STR   H26567823   7.587   2.656   3.911
    1STR   C26667824   7.745   2.437   3.878
    1STR   H26767825   7.808   2.391   3.803
    1STR   H26867826   7.797   2.527   3.909
    1STR   O26967827   7.734   2.341   3.980
    1STR   C27067828   7.692   2.381   4.111
    1STR   H27167829   7.768   2.329   4.166
    1STR   C27267830   7.696   2.528   4.149
    1STR   H27367831   7.621   2.595   4.109
    1STR   H27467832   7.792   2.569   4.127
    1STR   H27567833   7.675   2.533   4.255
    1STR   C27667834   7.564   2.319   4.161
    1STR   H27767835   7.573   2.283   4.263
    1STR   H27867836   7.490   2.397   4.158
    1STR   O27967837   7.534   2.216   4.073
    1STR   C28067838   7.404   2.165   4.072
    1STR   H28167839   7.384   2.099   4.151
    1STR   C28267840   7.296   2.273   4.081
    1STR   H28367841   7.314   2.348   4.004
    1STR   H28467842   7.293   2.323   4.178
    1STR   H28567843   7.198   2.228   4.072
    1STR   C28667844   7.408   2.080   3.946
    1STR   H28767845   7.335   2.122   3.882
    1STR   H28867846   7.505   2.089   3.900
    1STR   O28967847   7.384   1.942   3.964
    1STR   C29067848   7.376   1.859   3.849
    1STR   H29167849   7.329   1.922   3.778
    1STR   C29267850   7.514   1.819   3.797
    1STR   H29367851   7.565   1.752   3.865
    1STR   H29467852   7.577   1.907   3.784
    1STR   H29567853   7.505   1.769   3.701
    1STR   C29667854   7.288   1.737   3.888
    1STR   H29767855   7.348   1.670   3.948
    1STR   H29867856   7.209   1.777   3.949
    1STR   O29967857   7.235   1.647   3.791
    1STR   C30067858   7.092   1.628   3.784
    1STR   H30167859   7.048   1.714   3.736
    1STR   C30267860   7.072   1.510   3.690
    1STR   H30367861   7.123   1.421   3.726
    1STR   H30467862   7.110   1.534   3.590
    1STR   H30567863   6.966   1.487   3.681
    1STR   C30667864   7.013   1.607   3.915
    1STR   H30767865   6.995   1.501   3.933
    1STR   H30867866   7.064   1.644   4.002
    1STR   O30967867   6.889   1.676   3.914
    1STR    H1R67868   6.997   1.847   3.895
    1STR    H1S67869   6.807   1.982   3.826
    1STR    H1T67870   6.692   1.879   3.900
    1STR    H1U67871   6.778   1.823   3.758
    1STR    H1V67872   6.798   1.849   4.123
    1STR    H1W67873   6.915   1.966   4.088
    1STR    H1X67874   7.109   1.704   4.323
    1STR    H1Y67875   7.300   1.669   4.492
    1STR    H1Z67876   7.510   1.534   4.493
    1STR    H2067877   7.747   1.524   4.215
    1STR    H2167878   7.779   1.646   4.339
    1STR    H2267879   7.724   1.485   4.386
    1STR    H2367880   7.657   1.736   4.041
    1STR    H2767881   7.360   1.794   4.109
    1STR    H2867882   7.825   2.180   3.006
    1STR    H2967883   7.829   1.938   3.045
    1STR    H2A67884   7.768   1.714   2.975
    1STR    H2B67885   7.699   1.703   2.811
    1STR    H2C67886   7.594   1.698   2.952
    1STR   BCK167887   7.045   2.752   5.153
    1STR    O0367888   6.974   2.710   5.063
    1STR    N0467889   6.999   2.827   5.252
    1STR    C0567890   6.869   2.865   5.284
    1STR    C0667891   6.754   2.807   5.226
    1STR    C0767892   6.626   2.827   5.281
    1STR    N0867893   6.531   2.732   5.248
    1STR    C0967894   6.442   2.677   5.331
    1STR    O0A67895   6.387   2.736   5.424
    1STR    O0B67896   6.426   2.549   5.296
    1STR    C0C67897   6.388   2.442   5.383
    1STR    C0D67898   6.278   2.467   5.490
    1STR    C0E67899   6.355   2.321   5.297
    1STR    O0F67900   6.417   2.205   5.350
    1STR    C0G67901   6.497   2.132   5.259
    1STR    C0H67902   6.618   2.214   5.221
    1STR    C0I67903   6.547   2.008   5.328
    1STR    O0J67904   6.623   1.927   5.241
    1STR    C0K67905   7.788   3.036   6.304
    1STR    C0M67906   7.903   3.126   6.349
    1STR    C0N67907   7.656   3.075   6.369
    1STR    O0O67908   7.594   2.965   6.434
    1STR    C0P67909   7.642   2.929   6.550
    1STR    O0Q67910   7.745   2.975   6.597
    1STR    N0R67911   7.567   2.842   6.617
    1STR    C0S67912   7.440   2.790   6.601
    1STR    C0T67913   7.352   2.810   6.707
    1STR    C0U67914   7.219   2.769   6.697
    1STR    C0V67915   7.169   2.711   6.582
    1STR    C0W67916   7.020   2.681   6.571
    1STR    C0X67917   7.261   2.670   6.485
    1STR    N0Y67918   7.210   2.582   6.394
    1STR   BCK267919   7.265   2.466   6.370
    1STR    O1067920   7.383   2.450   6.344
    1STR    C1367921   7.398   2.706   6.495
    1STR    C1467922   6.610   2.922   5.384
    1STR    C1567923   6.723   2.986   5.438
    1STR    C1667924   6.852   2.954   5.391
    1STR    C1767925   6.975   3.012   5.459
    1STR    H1B67926   7.070   2.861   5.314
    1STR    H1C67927   6.763   2.734   5.147
    1STR    H1D67928   6.554   2.668   5.175
    1STR    H1E67929   6.482   2.418   5.430
    1STR    H1F67930   6.182   2.495   5.447
    1STR    H1G67931   6.261   2.375   5.547
    1STR    H1H67932   6.304   2.544   5.561
    1STR    H1I67933   6.387   2.341   5.196
    1STR    H1J67934   6.248   2.303   5.289
    1STR    H1K67935   6.438   2.105   5.173
    1STR    H1M67936   6.676   2.240   5.309
    1STR    H1N67937   6.589   2.307   5.173
    1STR    H1O67938   6.684   2.161   5.152
    1STR    H1P67939   6.611   2.044   5.408
    1STR    H1Q67940   6.463   1.953   5.370
    1STR   C01067941   6.697   1.830   5.313
    1STR   H01167942   6.747   1.872   5.399
    1STR   C01267943   6.604   1.714   5.345
    1STR   H01367944   6.555   1.680   5.255
    1STR   H01467945   6.526   1.741   5.415
    1STR   H01567946   6.660   1.629   5.384
    1STR   C01667947   6.809   1.782   5.224
    1STR   H01767948   6.809   1.673   5.220
    1STR   H01867949   6.785   1.821   5.127
    1STR   O01967950   6.941   1.815   5.260
    1STR   C02067951   6.992   1.931   5.198
    1STR   H02167952   6.951   1.954   5.099
    1STR   C02267953   6.957   2.044   5.293
    1STR   H02367954   6.988   2.015   5.393
    1STR   H02467955   6.851   2.065   5.296
    1STR   H02567956   7.006   2.137   5.267
    1STR   C02667957   7.142   1.903   5.179
    1STR   H02767958   7.177   1.829   5.250
    1STR   H02867959   7.159   1.855   5.083
    1STR   O02967960   7.219   2.022   5.186
    1STR   C03067961   7.275   2.042   5.313
    1STR   H03167962   7.201   2.010   5.384
    1STR   C03267963   7.403   1.960   5.319
    1STR   H03367964   7.455   1.977   5.227
    1STR   H03467965   7.384   1.854   5.327
    1STR   H03567966   7.472   1.990   5.398
    1STR   C03667967   7.301   2.189   5.341
    1STR   H03767968   7.364   2.202   5.428
    1STR   H03867969   7.352   2.230   5.258
    1STR   O03967970   7.183   2.266   5.354
    1STR   C04067971   7.199   2.388   5.424
    1STR   H04167972   7.200   2.367   5.530
    1STR   C04267973   7.331   2.460   5.389
    1STR   H04367974   7.359   2.461   5.285
    1STR   H04467975   7.411   2.413   5.445
    1STR   H04567976   7.328   2.564   5.417
    1STR   C04667977   7.078   2.476   5.401
    1STR   H04767978   7.044   2.526   5.488
    1STR   H04867979   7.110   2.561   5.345
    1STR   O04967980   6.967   2.409   5.344
    1STR   C05067981   6.868   2.502   5.304
    1STR   H05167982   6.914   2.595   5.279
    1STR   C05267983   6.798   2.462   5.177
    1STR   H05367984   6.695   2.495   5.176
    1STR   H05467985   6.804   2.355   5.169
    1STR   H05567986   6.849   2.500   5.089
    1STR   C05667987   6.778   2.540   5.416
    1STR   H05767988   6.840   2.594   5.486
    1STR   H05867989   6.703   2.609   5.382
    1STR   O05967990   6.711   2.433   5.475
    1STR   C06067991   6.666   2.461   5.606
    1STR   H06167992   6.748   2.460   5.674
    1STR   C06267993   6.607   2.604   5.624
    1STR   H06367994   6.507   2.609   5.583
    1STR   H06467995   6.663   2.685   5.579
    1STR   H06567996   6.605   2.634   5.727
    1STR   C06667997   6.582   2.341   5.651
    1STR   H06767998   6.592   2.335   5.759
    1STR   H06867999   6.478   2.363   5.633
    1STR   O06968000   6.617   2.216   5.588
    1STR   C07068001   6.556   2.105   5.654
    1STR   H07168002   6.590   2.128   5.753
    1STR   C07268003   6.402   2.105   5.640
    1STR   H07368004   6.371   2.085   5.538
    1STR   H07468005   6.355   2.198   5.668
    1STR   H07568006   6.357   2.024   5.698
    1STR   C07668007   6.605   1.959   5.643
    1STR   H07768008   6.582   1.916   5.740
    1STR   H07868009   6.544   1.903   5.573
    1STR   O07968010   6.742   1.934   5.612
    1STR   C08068011   6.795   1.811   5.664
    1STR   H08168012   6.813   1.842   5.763
    1STR   C08268013   6.694   1.693   5.676
    1STR   H08368014   6.638   1.674   5.587
    1STR   H08468015   6.620   1.710   5.754
    1STR   H08568016   6.745   1.601   5.703
    1STR   C08668017   6.933   1.763   5.607
    1STR   H08768018   6.956   1.671   5.661
    1STR   H08868019   6.922   1.737   5.502
    1STR   O08968020   7.045   1.851   5.623
    1STR   C09068021   7.179   1.796   5.635
    1STR   H09168022   7.194   1.744   5.730
    1STR   C09268023   7.196   1.690   5.528
    1STR   H09368024   7.156   1.724   5.433
    1STR   H09468025   7.141   1.602   5.560
    1STR   H09568026   7.300   1.660   5.514
    1STR   C09668027   7.287   1.908   5.616
    1STR   H09768028   7.361   1.872   5.546
    1STR   H09868029   7.233   1.989   5.571
    1STR   O09968030   7.366   1.967   5.721
    1STR   C10068031   7.418   2.098   5.683
    1STR   H10168032   7.446   2.093   5.579
    1STR   C10268033   7.311   2.203   5.706
    1STR   H10368034   7.229   2.190   5.636
    1STR   H10468035   7.344   2.305   5.688
    1STR   H10568036   7.272   2.200   5.807
    1STR   C10668037   7.547   2.150   5.748
    1STR   H10768038   7.534   2.160   5.856
    1STR   H10868039   7.629   2.080   5.732
    1STR   O10968040   7.579   2.275   5.681
    1STR   C11068041   7.586   2.391   5.765
    1STR   H11168042   7.500   2.382   5.828
    1STR   C11268043   7.715   2.383   5.847
    1STR   H11368044   7.803   2.387   5.784
    1STR   H11468045   7.720   2.292   5.905
    1STR   H11568046   7.719   2.466   5.917
    1STR   C11668047   7.569   2.533   5.702
    1STR   H11768048   7.581   2.604   5.784
    1STR   H11868049   7.650   2.557   5.634
    1STR   O11968050   7.443   2.558   5.639
    1STR   C12068051   7.398   2.695   5.632
    1STR   H12168052   7.420   2.741   5.727
    1STR   C12268053   7.472   2.784   5.532
    1STR   H12368054   7.451   2.757   5.428
    1STR   H12468055   7.580   2.780   5.547
    1STR   H12568056   7.441   2.888   5.544
    1STR   C12668057   7.244   2.702   5.613
    1STR   H12768058   7.207   2.789   5.665
    1STR   H12868059   7.217   2.720   5.509
    1STR   O12968060   7.180   2.579   5.651
    1STR   C13068061   7.062   2.575   5.733
    1STR   H13168062   7.098   2.565   5.832
    1STR   C13268063   6.962   2.693   5.728
    1STR   H13368064   6.879   2.676   5.662
    1STR   H13468065   7.004   2.788   5.698
    1STR   H13568066   6.917   2.706   5.826
    1STR   C13668067   6.985   2.444   5.727
    1STR   H13768068   6.907   2.452   5.802
    1STR   H13868069   6.939   2.437   5.630
    1STR   O13968070   7.054   2.323   5.750
    1STR   C14068071   6.968   2.211   5.729
    1STR   H14168072   6.869   2.228   5.771
    1STR   C14268073   6.943   2.191   5.580
    1STR   H14368074   6.893   2.097   5.563
    1STR   H14468075   7.035   2.190   5.524
    1STR   H14568076   6.877   2.264   5.534
    1STR   C14668077   7.024   2.080   5.787
    1STR   H14768078   6.949   2.004   5.777
    1STR   H14868079   7.102   2.052   5.720
    1STR   O14968080   7.078   2.073   5.919
    1STR   C15068081   7.142   1.947   5.947
    1STR   H15168082   7.168   1.903   5.853
    1STR   C15268083   7.277   1.966   6.017
    1STR   H15368084   7.293   2.069   6.047
    1STR   H15468085   7.361   1.943   5.951
    1STR   H15568086   7.290   1.900   6.103
    1STR   C15668087   7.051   1.844   6.016
    1STR   H15768088   7.105   1.749   6.016
    1STR   H15868089   7.033   1.868   6.120
    1STR   O15968090   6.928   1.830   5.948
    1STR   C16068091   6.826   1.743   5.998
    1STR   H16168092   6.770   1.705   5.914
    1STR   C16268093   6.885   1.618   6.058
    1STR   H16368094   6.947   1.641   6.145
    1STR   H16468095   6.946   1.564   5.986
    1STR   H16568096   6.803   1.554   6.087
    1STR   C16668097   6.717   1.811   6.085
    1STR   H16768098   6.662   1.733   6.136
    1STR   H16868099   6.764   1.870   6.161
    1STR   O16968100   6.616   1.887   6.018
    1STR   C17068101   6.625   2.029   6.037
    1STR   H17168102   6.634   2.057   6.141
    1STR   C17268103   6.749   2.071   5.961
    1STR   H17368104   6.753   2.023   5.864
    1STR   H17468105   6.841   2.045   6.014
    1STR   H17568106   6.752   2.177   5.940
    1STR   C17668107   6.504   2.099   5.973
    1STR   H17768108   6.532   2.197   5.935
    1STR   H17868109   6.472   2.034   5.893
    1STR   O17968110   6.389   2.127   6.050
    1STR   C18068111   6.285   2.175   5.965
    1STR   H18168112   6.292   2.142   5.863
    1STR   C18268113   6.165   2.098   6.013
    1STR   H18368114   6.165   2.102   6.121
    1STR   H18468115   6.173   1.993   5.987
    1STR   H18568116   6.072   2.137   5.972
    1STR   C18668117   6.271   2.329   5.959
    1STR   H18768118   6.171   2.358   5.927
    1STR   H18868119   6.288   2.373   6.055
    1STR   O18968120   6.363   2.382   5.864
    1STR   C19068121   6.390   2.523   5.863
    1STR   H19168122   6.407   2.544   5.759
    1STR   C19268123   6.275   2.618   5.900
    1STR   H19368124   6.258   2.619   6.007
    1STR   H19468125   6.182   2.593   5.849
    1STR   H19568126   6.301   2.720   5.874
    1STR   C19668127   6.517   2.555   5.943
    1STR   H19768128   6.601   2.497   5.905
    1STR   H19868129   6.546   2.660   5.941
    1STR   O19968130   6.483   2.519   6.073
    1STR   C20068131   6.584   2.486   6.164
    1STR   H20168132   6.621   2.575   6.214
    1STR   C20268133   6.499   2.396   6.251
    1STR   H20368134   6.433   2.332   6.195
    1STR   H20468135   6.441   2.449   6.326
    1STR   H20568136   6.561   2.323   6.298
    1STR   C20668137   6.706   2.409   6.117
    1STR   H20768138   6.746   2.362   6.206
    1STR   H20868139   6.677   2.329   6.051
    1STR   O20968140   6.812   2.488   6.064
    1STR   C21068141   6.941   2.444   6.110
    1STR   H21168142   6.943   2.433   6.218
    1STR   C21268143   6.961   2.307   6.050
    1STR   H21368144   6.920   2.308   5.952
    1STR   H21468145   6.907   2.232   6.105
    1STR   H21568146   7.064   2.277   6.039
    1STR   C21668147   7.054   2.544   6.077
    1STR   H21768148   7.021   2.624   6.012
    1STR   H21868149   7.088   2.594   6.166
    1STR   O21968150   7.166   2.475   6.030
    1STR   C22068151   7.289   2.542   6.043
    1STR   H22168152   7.298   2.591   6.139
    1STR   C22268153   7.386   2.426   6.039
    1STR   H22368154   7.356   2.353   5.965
    1STR   H22468155   7.387   2.372   6.131
    1STR   H22568156   7.490   2.457   6.025
    1STR   C22668157   7.315   2.636   5.926
    1STR   H22768158   7.413   2.678   5.932
    1STR   H22868159   7.320   2.567   5.843
    1STR   O22968160   7.220   2.737   5.890
    1STR   C23068161   7.233   2.870   5.930
    1STR   H23168162   7.227   2.852   6.034
    1STR   C23268163   7.361   2.942   5.885
    1STR   H23368164   7.361   2.961   5.777
    1STR   H23468165   7.452   2.889   5.909
    1STR   H23568166   7.367   3.039   5.934
    1STR   C23668167   7.112   2.951   5.884
    1STR   H23768168   7.122   2.982   5.780
    1STR   H23868169   7.023   2.889   5.892
    1STR   O23968170   7.093   3.061   5.972
    1STR   C24068171   7.019   3.174   5.927
    1STR   H24168172   6.986   3.223   6.018
    1STR   C24268173   7.119   3.268   5.859
    1STR   H24368174   7.162   3.223   5.770
    1STR   H24468175   7.201   3.290   5.927
    1STR   H24568176   7.072   3.362   5.831
    1STR   C24668177   6.894   3.144   5.840
    1STR   H24768178   6.825   3.229   5.838
    1STR   H24868179   6.929   3.132   5.738
    1STR   O24968180   6.828   3.022   5.873
    1STR   C25068181   6.714   3.026   5.957
    1STR   H25168182   6.709   2.923   5.992
    1STR   C25268183   6.733   3.118   6.078
    1STR   H25368184   6.727   3.224   6.054
    1STR   H25468185   6.828   3.100   6.125
    1STR   H25568186   6.660   3.097   6.156
    1STR   C25668187   6.586   3.056   5.875
    1STR   H25768188   6.568   3.163   5.869
    1STR   H25868189   6.604   3.023   5.772
    1STR   O25968190   6.469   2.987   5.917
    1STR   C26068191   6.419   3.019   6.046
    1STR   H26168192   6.463   3.111   6.084
    1STR   C26268193   6.268   3.040   6.038
    1STR   H26368194   6.218   2.952   6.000
    1STR   H26468195   6.245   3.124   5.972
    1STR   H26568196   6.227   3.062   6.137
    1STR   C26668197   6.453   2.901   6.139
    1STR   H26768198   6.382   2.820   6.123
    1STR   H26868199   6.550   2.860   6.116
    1STR   O26968200   6.450   2.947   6.273
    1STR   C27068201   6.519   2.866   6.366
    1STR   H27168202   6.487   2.907   6.462
    1STR   C27268203   6.476   2.719   6.370
    1STR   H27368204   6.448   2.681   6.273
    1STR   H27468205   6.391   2.705   6.434
    1STR   H27568206   6.553   2.654   6.413
    1STR   C27668207   6.672   2.881   6.367
    1STR   H27768208   6.697   2.974   6.415
    1STR   H27868209   6.707   2.806   6.438
    1STR   O27968210   6.749   2.880   6.247
    1STR   C28068211   6.883   2.843   6.281
    1STR   H28168212   6.897   2.871   6.381
    1STR   C28268213   6.877   2.694   6.276
    1STR   H28368214   6.969   2.651   6.313
    1STR   H28468215   6.860   2.675   6.172
    1STR   H28568216   6.797   2.648   6.333
    1STR   C28668217   7.007   2.905   6.208
    1STR   H28768218   7.003   2.873   6.105
    1STR   H28868219   7.000   3.013   6.210
    1STR   O28968220   7.134   2.869   6.267
    1STR   C29068221   7.249   2.955   6.242
    1STR   H29168222   7.235   3.017   6.154
    1STR   C29268223   7.263   3.053   6.356
    1STR   H29368224   7.268   2.998   6.450
    1STR   H29468225   7.181   3.123   6.356
    1STR   H29568226   7.355   3.110   6.345
    1STR   C29668227   7.381   2.873   6.228
    1STR   H29768228   7.421   2.864   6.326
    1STR   H29868229   7.358   2.773   6.196
    1STR   O29968230   7.488   2.928   6.148
    1STR   C30068231   7.612   2.854   6.152
    1STR   H30168232   7.633   2.823   6.254
    1STR   C30268233   7.611   2.725   6.072
    1STR   H30368234   7.602   2.743   5.966
    1STR   H30468235   7.534   2.657   6.109
    1STR   H30568236   7.706   2.672   6.083
    1STR   C30668237   7.730   2.936   6.095
    1STR   H30768238   7.820   2.873   6.091
    1STR   H30868239   7.708   2.965   5.993
    1STR   O30968240   7.767   3.054   6.165
    1STR    H1R68241   7.815   2.933   6.329
    1STR    H1S68242   7.920   3.115   6.456
    1STR    H1T68243   7.882   3.230   6.328
    1STR    H1U68244   7.996   3.098   6.298
    1STR    H1V68245   7.586   3.113   6.295
    1STR    H1W68246   7.673   3.154   6.442
    1STR    H1X68247   7.623   2.804   6.695
    1STR    H1Y68248   7.386   2.856   6.797
    1STR    H1Z68249   7.153   2.789   6.777
    1STR    H2068250   6.974   2.756   6.513
    1STR    H2168251   6.997   2.584   6.529
    1STR    H2268252   6.968   2.690   6.665
    1STR    H2368253   7.111   2.577   6.398
    1STR    H2768254   7.468   2.671   6.422
    1STR    H2868255   6.513   2.941   5.427
    1STR    H2968256   6.710   3.055   5.520
    1STR    H2A68257   7.040   2.933   5.496
    1STR    H2B68258   6.945   3.071   5.544
    1STR    H2C68259   7.030   3.076   5.390
    1STR   BCK168260   6.972   2.714   7.320
    1STR    O0368261   7.080   2.764   7.289
    1STR    N0468262   6.956   2.611   7.401
    1STR    C0568263   6.999   2.479   7.388
    1STR    C0668264   7.018   2.397   7.498
    1STR    C0768265   7.052   2.261   7.490
    1STR    N0868266   7.070   2.182   7.603
    1STR    C0968267   7.183   2.123   7.635
    1STR    O0A68268   7.203   2.062   7.740
    1STR    O0B68269   7.268   2.145   7.541
    1STR    C0C68270   7.404   2.147   7.559
    1STR    C0D68271   7.443   2.004   7.528
    1STR    C0E68272   7.443   2.262   7.464
    1STR    O0F68273   7.420   2.388   7.529
    1STR    C0G68274   7.429   2.507   7.450
    1STR    C0H68275   7.297   2.524   7.380
    1STR    C0I68276   7.447   2.636   7.533
    1STR    O0J68277   7.456   2.748   7.444
    1STR    C0K68278   6.392   1.835   8.529
    1STR    C0M68279   6.287   1.768   8.439
    1STR    C0N68280   6.528   1.844   8.459
    1STR    O0O68281   6.621   1.913   8.541
    1STR    C0P68282   6.722   1.857   8.607
    1STR    O0Q68283   6.797   1.925   8.674
    1STR    N0R68284   6.730   1.723   8.604
    1STR    C0S68285   6.853   1.663   8.577
    1STR    C0T68286   6.877   1.591   8.458
    1STR    C0U68287   7.005   1.538   8.433
    1STR    C0V68288   7.113   1.566   8.521
    1STR    C0W68289   7.253   1.514   8.493
    1STR    C0X68290   7.091   1.646   8.634
    1STR    N0Y68291   7.202   1.698   8.703
    1STR   BCK268292   7.200   1.811   8.774
    1STR    O1068293   7.102   1.881   8.784
    1STR    C1368294   6.958   1.680   8.667
    1STR    C1468295   7.080   2.211   7.364
    1STR    C1568296   7.062   2.289   7.252
    1STR    C1668297   7.022   2.421   7.264
    1STR    C1768298   7.018   2.500   7.144
    1STR    H1B68299   6.930   2.650   7.492
    1STR    H1C68300   7.016   2.443   7.591
    1STR    H1D68301   6.997   2.174   7.671
    1STR    H1E68302   7.425   2.168   7.662
    1STR    H1F68303   7.436   1.988   7.421
    1STR    H1G68304   7.542   1.979   7.563
    1STR    H1H68305   7.377   1.933   7.577
    1STR    H1I68306   7.383   2.252   7.373
    1STR    H1J68307   7.545   2.252   7.431
    1STR    H1K68308   7.509   2.495   7.378
    1STR    H1M68309   7.296   2.606   7.309
    1STR    H1N68310   7.224   2.550   7.456
    1STR    H1O68311   7.265   2.433   7.332
    1STR    H1P68312   7.365   2.645   7.603
    1STR    H1Q68313   7.536   2.630   7.594
    1STR   C01068314   7.468   2.878   7.503
    1STR   H01168315   7.542   2.878   7.584
    1STR   C01268316   7.508   2.977   7.394
    1STR   H01368317   7.441   2.960   7.310
    1STR   H01468318   7.610   2.967   7.360
    1STR   H01568319   7.497   3.081   7.426
    1STR   C01668320   7.334   2.927   7.553
    1STR   H01768321   7.337   3.033   7.576
    1STR   H01868322   7.261   2.916   7.472
    1STR   O01968323   7.298   2.859   7.671
    1STR   C02068324   7.160   2.860   7.699
    1STR   H02168325   7.153   2.817   7.796
    1STR   C02268326   7.103   3.003   7.696
    1STR   H02368327   7.103   3.041   7.596
    1STR   H02468328   7.164   3.072   7.751
    1STR   H02568329   7.000   3.006   7.730
    1STR   C02668330   7.086   2.759   7.615
    1STR   H02768331   7.132   2.763   7.517
    1STR   H02868332   7.115   2.658   7.642
    1STR   O02968333   6.946   2.786   7.593
    1STR   C03068334   6.837   2.731   7.667
    1STR   H03168335   6.820   2.789   7.756
    1STR   C03268336   6.715   2.768   7.586
    1STR   H03368337   6.711   2.718   7.489
    1STR   H03468338   6.718   2.875   7.571
    1STR   H03568339   6.622   2.747   7.637
    1STR   C03668340   6.846   2.581   7.700
    1STR   H03768341   6.759   2.546   7.752
    1STR   H03868342   6.838   2.525   7.609
    1STR   O03968343   6.968   2.560   7.770
    1STR   C04068344   7.008   2.436   7.826
    1STR   H04168345   7.004   2.455   7.929
    1STR   C04268346   6.909   2.323   7.807
    1STR   H04368347   6.890   2.308   7.703
    1STR   H04468348   6.815   2.347   7.852
    1STR   H04568349   6.941   2.230   7.851
    1STR   C04668350   7.154   2.392   7.799
    1STR   H04768351   7.154   2.287   7.824
    1STR   H04868352   7.182   2.401   7.695
    1STR   O04968353   7.261   2.445   7.874
    1STR   C05068354   7.381   2.372   7.850
    1STR   H05168355   7.381   2.345   7.746
    1STR   C05268356   7.503   2.461   7.869
    1STR   H05368357   7.494   2.552   7.811
    1STR   H05468358   7.593   2.409   7.839
    1STR   H05568359   7.514   2.485   7.974
    1STR   C05668360   7.392   2.244   7.935
    1STR   H05768361   7.422   2.275   8.033
    1STR   H05868362   7.296   2.194   7.944
    1STR   O05968363   7.488   2.153   7.884
    1STR   C06068364   7.497   2.028   7.952
    1STR   H06168365   7.406   2.006   8.005
    1STR   C06268366   7.508   1.916   7.848
    1STR   H06368367   7.593   1.927   7.782
    1STR   H06468368   7.417   1.914   7.789
    1STR   H06568369   7.517   1.818   7.894
    1STR   C06668370   7.615   2.033   8.051
    1STR   H06768371   7.706   1.993   8.007
    1STR   H06868372   7.637   2.137   8.074
    1STR   O06968373   7.582   1.971   8.174
    1STR   C07068374   7.591   1.829   8.178
    1STR   H07168375   7.640   1.788   8.089
    1STR   C07268376   7.680   1.799   8.299
    1STR   H07368377   7.636   1.839   8.391
    1STR   H07468378   7.778   1.845   8.286
    1STR   H07568379   7.695   1.692   8.312
    1STR   C07668380   7.450   1.768   8.193
    1STR   H07768381   7.449   1.694   8.273
    1STR   H07868382   7.381   1.846   8.222
    1STR   O07968383   7.411   1.703   8.072
    1STR   C08068384   7.273   1.671   8.052
    1STR   H08168385   7.268   1.605   7.966
    1STR   C08268386   7.217   1.595   8.172
    1STR   H08368387   7.205   1.661   8.258
    1STR   H08468388   7.281   1.511   8.199
    1STR   H08568389   7.118   1.556   8.148
    1STR   C08668390   7.192   1.797   8.020
    1STR   H08768391   7.211   1.871   8.097
    1STR   H08868392   7.225   1.840   7.926
    1STR   O08968393   7.051   1.772   8.014
    1STR   C09068394   6.969   1.880   8.058
    1STR   H09168395   6.976   1.885   8.167
    1STR   C09268396   7.009   2.015   7.997
    1STR   H09368397   6.991   2.014   7.890
    1STR   H09468398   7.113   2.043   8.009
    1STR   H09568399   6.949   2.095   8.040
    1STR   C09668400   6.823   1.858   8.017
    1STR   H09768401   6.764   1.941   8.053
    1STR   H09868402   6.818   1.860   7.909
    1STR   O09968403   6.766   1.738   8.066
    1STR   C10068404   6.634   1.718   8.018
    1STR   H10168405   6.627   1.737   7.912
    1STR   C10268406   6.608   1.568   8.039
    1STR   H10368407   6.618   1.541   8.144
    1STR   H10468408   6.681   1.509   7.983
    1STR   H10568409   6.509   1.539   8.004
    1STR   C10668410   6.530   1.804   8.093
    1STR   H10768411   6.432   1.756   8.095
    1STR   H10868412   6.563   1.806   8.196
    1STR   O10968413   6.512   1.941   8.051
    1STR   C11068414   6.471   1.969   7.917
    1STR   H11168415   6.560   1.960   7.855
    1STR   C11268416   6.363   1.869   7.869
    1STR   H11368417   6.281   1.865   7.941
    1STR   H11468418   6.403   1.768   7.858
    1STR   H11568419   6.320   1.897   7.774
    1STR   C11668420   6.416   2.115   7.897
    1STR   H11768421   6.446   2.159   7.803
    1STR   H11868422   6.307   2.107   7.894
    1STR   O11968423   6.428   2.212   8.000
    1STR   C12068424   6.544   2.294   8.007
    1STR   H12168425   6.531   2.346   8.100
    1STR   C12268426   6.671   2.207   8.012
    1STR   H12368427   6.691   2.158   7.917
    1STR   H12468428   6.661   2.130   8.088
    1STR   H12568429   6.758   2.264   8.041
    1STR   C12668430   6.551   2.413   7.913
    1STR   H12768431   6.655   2.441   7.912
    1STR   H12868432   6.524   2.379   7.815
    1STR   O12968433   6.482   2.532   7.953
    1STR   C13068434   6.537   2.655   7.900
    1STR   H13168435   6.554   2.637   7.795
    1STR   C13268436   6.437   2.770   7.911
    1STR   H13368437   6.442   2.818   8.008
    1STR   H13468438   6.335   2.737   7.892
    1STR   H13568439   6.462   2.848   7.839
    1STR   C13668440   6.670   2.691   7.970
    1STR   H13768441   6.666   2.651   8.069
    1STR   H13868442   6.749   2.630   7.931
    1STR   O13968443   6.711   2.829   7.965
    1STR   C14068444   6.836   2.855   8.032
    1STR   H14168445   6.828   2.818   8.132
    1STR   C14268446   6.951   2.785   7.966
    1STR   H14368447   6.940   2.679   7.958
    1STR   H14468448   7.042   2.797   8.021
    1STR   H14568449   6.971   2.829   7.871
    1STR   C14668450   6.878   3.002   8.036
    1STR   H14768451   6.893   3.032   7.934
    1STR   H14868452   6.797   3.062   8.075
    1STR   O14968453   6.996   3.022   8.117
    1STR   C15068454   7.120   3.048   8.050
    1STR   H15168455   7.106   3.040   7.944
    1STR   C15268456   7.161   3.191   8.082
    1STR   H15368457   7.178   3.204   8.189
    1STR   H15468458   7.083   3.261   8.051
    1STR   H15568459   7.252   3.218   8.029
    1STR   C15668460   7.233   2.948   8.086
    1STR   H15768461   7.325   2.998   8.116
    1STR   H15868462   7.198   2.891   8.169
    1STR   O15968463   7.259   2.858   7.980
    1STR   C16068464   7.321   2.730   8.001
    1STR   H16168465   7.325   2.683   7.903
    1STR   C16268466   7.466   2.757   8.046
    1STR   H16368467   7.471   2.825   8.130
    1STR   H16468468   7.524   2.799   7.964
    1STR   H16568469   7.516   2.666   8.079
    1STR   C16668470   7.249   2.628   8.094
    1STR   H16768471   7.314   2.543   8.112
    1STR   H16868472   7.239   2.683   8.183
    1STR   O16968473   7.118   2.580   8.067
    1STR   C17068474   7.055   2.492   8.164
    1STR   H17168475   7.082   2.522   8.265
    1STR   C17268476   6.902   2.505   8.153
    1STR   H17368477   6.857   2.463   8.064
    1STR   H17468478   6.872   2.608   8.158
    1STR   H17568479   6.853   2.454   8.234
    1STR   C17668480   7.091   2.344   8.149
    1STR   H17768481   7.040   2.288   8.226
    1STR   H17868482   7.058   2.300   8.056
    1STR   O17968483   7.230   2.327   8.156
    1STR   C18068484   7.273   2.255   8.268
    1STR   H18168485   7.216   2.289   8.354
    1STR   C18268486   7.246   2.107   8.239
    1STR   H18368487   7.295   2.039   8.307
    1STR   H18468488   7.283   2.084   8.141
    1STR   H18568489   7.140   2.087   8.238
    1STR   C18668490   7.421   2.286   8.292
    1STR   H18768491   7.453   2.250   8.389
    1STR   H18868492   7.485   2.232   8.222
    1STR   O18968493   7.441   2.427   8.275
    1STR   C19068494   7.428   2.497   8.398
    1STR   H19168495   7.357   2.442   8.458
    1STR   C19268496   7.570   2.495   8.456
    1STR   H19368497   7.578   2.554   8.548
    1STR   H19468498   7.641   2.535   8.384
    1STR   H19568499   7.602   2.394   8.480
    1STR   C19668500   7.369   2.639   8.392
    1STR   H19768501   7.405   2.693   8.479
    1STR   H19868502   7.412   2.689   8.306
    1STR   O19968503   7.224   2.643   8.393
    1STR   C20068504   7.154   2.770   8.400
    1STR   H20168505   7.116   2.766   8.497
    1STR   C20268506   7.250   2.892   8.406
    1STR   H20368507   7.329   2.890   8.332
    1STR   H20468508   7.300   2.896   8.503
    1STR   H20568509   7.197   2.986   8.393
    1STR   C20668510   7.018   2.793   8.321
    1STR   H20768511   6.998   2.899   8.322
    1STR   H20868512   7.034   2.767   8.218
    1STR   O20968513   6.896   2.721   8.356
    1STR   C21068514   6.763   2.784   8.362
    1STR   H21168515   6.747   2.764   8.463
    1STR   C21268516   6.747   2.937   8.356
    1STR   H21368517   6.653   2.965   8.402
    1STR   H21468518   6.740   2.974   8.255
    1STR   H21568519   6.825   2.991   8.408
    1STR   C21668520   6.637   2.710   8.304
    1STR   H21768521   6.603   2.766   8.217
    1STR   H21868522   6.661   2.607   8.277
    1STR   O21968523   6.526   2.711   8.393
    1STR   C22068524   6.395   2.660   8.359
    1STR   H22168525   6.333   2.711   8.432
    1STR   C22268526   6.342   2.706   8.224
    1STR   H22368527   6.394   2.651   8.146
    1STR   H22468528   6.355   2.813   8.211
    1STR   H22568529   6.236   2.682   8.214
    1STR   C22668530   6.364   2.510   8.384
    1STR   H22768531   6.399   2.487   8.483
    1STR   H22868532   6.257   2.495   8.389
    1STR   O22968533   6.413   2.417   8.288
    1STR   C23068534   6.461   2.295   8.345
    1STR   H23168535   6.422   2.283   8.444
    1STR   C23268536   6.409   2.169   8.279
    1STR   H23368537   6.482   2.123   8.214
    1STR   H23468538   6.317   2.187   8.223
    1STR   H23568539   6.387   2.094   8.354
    1STR   C23668540   6.614   2.311   8.344
    1STR   H23768541   6.657   2.297   8.246
    1STR   H23868542   6.634   2.414   8.370
    1STR   O23968543   6.687   2.227   8.431
    1STR   C24068544   6.826   2.252   8.420
    1STR   H24168545   6.854   2.244   8.315
    1STR   C24268546   6.869   2.388   8.477
    1STR   H24368547   6.855   2.395   8.585
    1STR   H24468548   6.819   2.476   8.438
    1STR   H24568549   6.974   2.404   8.456
    1STR   C24668550   6.901   2.142   8.492
    1STR   H24768551   6.873   2.143   8.597
    1STR   H24868552   6.871   2.045   8.451
    1STR   O24968553   7.040   2.164   8.475
    1STR   C25068554   7.117   2.078   8.557
    1STR   H25168555   7.069   2.076   8.655
    1STR   C25268556   7.113   1.940   8.492
    1STR   H25368557   7.102   1.941   8.385
    1STR   H25468558   7.025   1.887   8.529
    1STR   H25568559   7.201   1.881   8.516
    1STR   C25668560   7.260   2.130   8.581
    1STR   H25768561   7.306   2.087   8.670
    1STR   H25868562   7.326   2.096   8.502
    1STR   O25968563   7.270   2.272   8.579
    1STR   C26068564   7.250   2.342   8.700
    1STR   H26168565   7.267   2.277   8.782
    1STR   C26268566   7.360   2.446   8.709
    1STR   H26368567   7.342   2.529   8.643
    1STR   H26468568   7.454   2.403   8.678
    1STR   H26568569   7.372   2.487   8.809
    1STR   C26668570   7.107   2.398   8.711
    1STR   H26768571   7.039   2.320   8.679
    1STR   H26868572   7.083   2.410   8.816
    1STR   O26968573   7.085   2.514   8.629
    1STR   C27068574   7.060   2.635   8.699
    1STR   H27168575   7.041   2.605   8.798
    1STR   C27268576   7.190   2.714   8.719
    1STR   H27368577   7.255   2.715   8.634
    1STR   H27468578   7.251   2.677   8.800
    1STR   H27568579   7.164   2.815   8.738
    1STR   C27668580   6.931   2.719   8.661
    1STR   H27768581   6.915   2.787   8.742
    1STR   H27868582   6.939   2.786   8.577
    1STR   O27968583   6.812   2.646   8.633
    1STR   C28068584   6.682   2.688   8.682
    1STR   H28168585   6.674   2.677   8.786
    1STR   C28268586   6.625   2.830   8.659
    1STR   H28368587   6.696   2.897   8.613
    1STR   H28468588   6.592   2.878   8.750
    1STR   H28568589   6.539   2.832   8.593
    1STR   C28668590   6.591   2.578   8.636
    1STR   H28768591   6.492   2.616   8.617
    1STR   H28868592   6.630   2.543   8.541
    1STR   O28968593   6.585   2.476   8.735
    1STR   C29068594   6.535   2.355   8.681
    1STR   H29168595   6.549   2.358   8.576
    1STR   C29268596   6.626   2.244   8.721
    1STR   H29368597   6.619   2.236   8.826
    1STR   H29468598   6.728   2.267   8.695
    1STR   H29568599   6.600   2.149   8.676
    1STR   C29668600   6.387   2.327   8.713
    1STR   H29768601   6.370   2.325   8.821
    1STR   H29868602   6.324   2.405   8.673
    1STR   O29968603   6.359   2.202   8.651
    1STR   C30068604   6.225   2.153   8.649
    1STR   H30168605   6.182   2.164   8.749
    1STR   C30268606   6.145   2.234   8.547
    1STR   H30368607   6.187   2.223   8.447
    1STR   H30468608   6.147   2.339   8.573
    1STR   H30568609   6.041   2.202   8.545
    1STR   C30668610   6.229   2.003   8.610
    1STR   H30768611   6.203   1.942   8.696
    1STR   H30868612   6.153   1.982   8.534
    1STR   O30968613   6.358   1.970   8.559
    1STR    H1R68614   6.404   1.775   8.619
    1STR    H1S68615   6.270   1.826   8.348
    1STR    H1T68616   6.193   1.755   8.491
    1STR    H1U68617   6.321   1.668   8.409
    1STR    H1V68618   6.518   1.908   8.372
    1STR    H1W68619   6.565   1.747   8.426
    1STR    H1X68620   6.712   1.705   8.702
    1STR    H1Y68621   6.798   1.576   8.386
    1STR    H1Z68622   7.022   1.481   8.344
    1STR    H2068623   7.318   1.596   8.460
    1STR    H2168624   7.296   1.471   8.583
    1STR    H2268625   7.253   1.437   8.417
    1STR    H2368626   7.288   1.648   8.699
    1STR    H2768627   6.936   1.733   8.758
    1STR    H2868628   7.117   2.113   7.348
    1STR    H2968629   7.078   2.245   7.156
    1STR    H2A68630   6.917   2.535   7.127
    1STR    H2B68631   7.050   2.439   7.064
    1STR    H2C68632   7.092   2.577   7.153
    1STR   BCK168633   6.902   4.610   0.595
    1STR    O0368634   6.943   4.512   0.538
    1STR    N0468635   6.952   4.645   0.711
    1STR    C0568636   6.981   4.775   0.745
    1STR    C0668637   6.895   4.855   0.823
    1STR    C0768638   6.930   4.985   0.860
    1STR    N0868639   6.821   5.062   0.898
    1STR    C0968640   6.804   5.193   0.914
    1STR    O0A68641   6.895   5.275   0.910
    1STR    O0B68642   6.673   5.230   0.927
    1STR    C0C68643   6.561   5.142   0.949
    1STR    C0D68644   6.450   5.236   0.998
    1STR    C0E68645   6.518   5.057   0.827
    1STR    O0F68646   6.558   4.921   0.842
    1STR    C0G68647   6.525   4.833   0.733
    1STR    C0H68648   6.589   4.698   0.754
    1STR    C0I68649   6.373   4.807   0.716
    1STR    O0J68650   6.337   4.687   0.643
    1STR    C0K68651   7.980   4.407   1.536
    1STR    C0M68652   8.010   4.511   1.645
    1STR    C0N68653   7.967   4.259   1.583
    1STR    O0O68654   7.932   4.248   1.721
    1STR    C0P68655   7.807   4.225   1.758
    1STR    O0Q68656   7.720   4.168   1.692
    1STR    N0R68657   7.789   4.292   1.871
    1STR    C0S68658   7.673   4.339   1.933
    1STR    C0T68659   7.676   4.464   1.997
    1STR    C0U68660   7.568   4.510   2.072
    1STR    C0V68661   7.449   4.439   2.071
    1STR    C0W68662   7.332   4.497   2.145
    1STR    C0X68663   7.440   4.317   2.001
    1STR    N0Y68664   7.321   4.248   2.001
    1STR   BCK268665   7.207   4.302   1.964
    1STR    O1068666   7.200   4.406   1.902
    1STR    C1368667   7.553   4.266   1.934
    1STR    C1468668   7.062   5.029   0.838
    1STR    C1568669   7.147   4.950   0.757
    1STR    C1668670   7.105   4.826   0.707
    1STR    C1768671   7.185   4.755   0.601
    1STR    H1B68672   7.013   4.575   0.748
    1STR    H1C68673   6.800   4.821   0.856
    1STR    H1D68674   6.735   5.009   0.901
    1STR    H1E68675   6.580   5.076   1.032
    1STR    H1F68676   6.427   5.311   0.923
    1STR    H1G68677   6.360   5.180   1.022
    1STR    H1H68678   6.483   5.287   1.088
    1STR    H1I68679   6.558   5.101   0.736
    1STR    H1J68680   6.409   5.060   0.817
    1STR    H1K68681   6.569   4.871   0.642
    1STR    H1M68682   6.694   4.690   0.771
    1STR    H1N68683   6.577   4.641   0.663
    1STR    H1O68684   6.539   4.648   0.833
    1STR    H1P68685   6.323   4.810   0.813
    1STR    H1Q68686   6.332   4.891   0.660
    1STR   C01068687   6.336   4.556   0.706
    1STR   H01168688   6.434   4.514   0.715
    1STR   C01268689   6.277   4.556   0.848
    1STR   H01368690   6.193   4.623   0.862
    1STR   H01468691   6.349   4.591   0.921
    1STR   H01568692   6.246   4.456   0.880
    1STR   C01668693   6.277   4.452   0.609
    1STR   H01768694   6.206   4.389   0.660
    1STR   H01868695   6.228   4.509   0.531
    1STR   O01968696   6.368   4.371   0.536
    1STR   C02068697   6.422   4.258   0.605
    1STR   H02168698   6.439   4.291   0.705
    1STR   C02268699   6.324   4.140   0.606
    1STR   H02368700   6.369   4.051   0.650
    1STR   H02468701   6.294   4.113   0.505
    1STR   H02568702   6.235   4.163   0.664
    1STR   C02668703   6.555   4.223   0.537
    1STR   H02768704   6.541   4.169   0.443
    1STR   H02868705   6.588   4.322   0.512
    1STR   O02968706   6.663   4.167   0.613
    1STR   C03068707   6.786   4.242   0.600
    1STR   H03168708   6.803   4.278   0.500
    1STR   C03268709   6.763   4.358   0.688
    1STR   H03368710   6.728   4.305   0.772
    1STR   H03468711   6.694   4.435   0.655
    1STR   H03568712   6.856   4.403   0.723
    1STR   C03668713   6.918   4.180   0.651
    1STR   H03768714   6.910   4.189   0.756
    1STR   H03868715   6.926   4.074   0.633
    1STR   O03968716   7.030   4.254   0.597
    1STR   C04068717   7.157   4.250   0.663
    1STR   H04168718   7.141   4.290   0.763
    1STR   C04268719   7.210   4.105   0.668
    1STR   H04368720   7.223   4.066   0.569
    1STR   H04468721   7.145   4.031   0.714
    1STR   H04568722   7.306   4.100   0.720
    1STR   C04668723   7.262   4.345   0.599
    1STR   H04768724   7.301   4.308   0.505
    1STR   H04868725   7.217   4.442   0.576
    1STR   O04968726   7.367   4.366   0.694
    1STR   C05068727   7.507   4.365   0.656
    1STR   H05168728   7.553   4.357   0.752
    1STR   C05268729   7.559   4.237   0.591
    1STR   H05368730   7.552   4.243   0.483
    1STR   H05468731   7.504   4.150   0.625
    1STR   H05568732   7.664   4.222   0.614
    1STR   C05668733   7.574   4.495   0.609
    1STR   H05768734   7.679   4.493   0.636
    1STR   H05868735   7.580   4.498   0.501
    1STR   O05968736   7.509   4.612   0.657
    1STR   C06068737   7.538   4.651   0.791
    1STR   H06168738   7.527   4.563   0.850
    1STR   C06268739   7.687   4.681   0.808
    1STR   H06368740   7.703   4.746   0.893
    1STR   H06468741   7.732   4.725   0.720
    1STR   H06568742   7.743   4.590   0.829
    1STR   C06668743   7.433   4.758   0.838
    1STR   H06768744   7.418   4.843   0.773
    1STR   H06868745   7.334   4.714   0.837
    1STR   O06968746   7.445   4.807   0.970
    1STR   C07068747   7.499   4.937   0.982
    1STR   H07168748   7.564   4.959   0.898
    1STR   C07268749   7.390   5.043   0.988
    1STR   H07368750   7.309   5.014   1.055
    1STR   H07468751   7.347   5.061   0.889
    1STR   H07568752   7.429   5.139   1.020
    1STR   C07668753   7.585   4.939   1.107
    1STR   H07768754   7.651   5.026   1.104
    1STR   H07868755   7.520   4.953   1.192
    1STR   O07968756   7.667   4.822   1.110
    1STR   C08068757   7.636   4.721   1.206
    1STR   H08168758   7.723   4.654   1.206
    1STR   C08268759   7.629   4.783   1.342
    1STR   H08368760   7.533   4.832   1.360
    1STR   H08468761   7.710   4.854   1.357
    1STR   H08568762   7.636   4.704   1.415
    1STR   C08668763   7.513   4.633   1.184
    1STR   H08768764   7.493   4.576   1.275
    1STR   H08868765   7.422   4.692   1.167
    1STR   O08968766   7.542   4.543   1.079
    1STR   C09068767   7.443   4.445   1.060
    1STR   H09168768   7.408   4.414   1.157
    1STR   C09268769   7.321   4.495   0.983
    1STR   H09368770   7.280   4.585   1.026
    1STR   H09468771   7.245   4.419   0.980
    1STR   H09568772   7.335   4.510   0.877
    1STR   C09668773   7.510   4.326   0.992
    1STR   H09768774   7.446   4.280   0.917
    1STR   H09868775   7.603   4.359   0.948
    1STR   O09968776   7.534   4.230   1.091
    1STR   C10068777   7.644   4.145   1.074
    1STR   H10168778   7.656   4.115   0.969
    1STR   C10268779   7.766   4.223   1.124
    1STR   H10368780   7.785   4.312   1.064
    1STR   H10468781   7.857   4.163   1.123
    1STR   H10568782   7.750   4.258   1.226
    1STR   C10668783   7.612   4.021   1.160
    1STR   H10768784   7.705   3.968   1.181
    1STR   H10868785   7.574   4.051   1.258
    1STR   O10968786   7.525   3.927   1.097
    1STR   C11068787   7.391   3.966   1.064
    1STR   H11168788   7.391   4.062   1.014
    1STR   C11268789   7.346   3.863   0.960
    1STR   H11368790   7.348   3.762   1.001
    1STR   H11468791   7.414   3.864   0.874
    1STR   H11568792   7.246   3.883   0.923
    1STR   C11668793   7.294   3.968   1.184
    1STR   H11768794   7.191   3.988   1.157
    1STR   H11868795   7.293   3.869   1.230
    1STR   O11968796   7.339   4.059   1.282
    1STR   C12068797   7.274   4.184   1.301
    1STR   H12168798   7.196   4.170   1.372
    1STR   C12268799   7.391   4.264   1.361
    1STR   H12368800   7.481   4.264   1.302
    1STR   H12468801   7.423   4.221   1.455
    1STR   H12568802   7.367   4.369   1.375
    1STR   C12668803   7.204   4.257   1.184
    1STR   H12768804   7.203   4.364   1.203
    1STR   H12868805   7.267   4.243   1.097
    1STR   O12968806   7.066   4.224   1.164
    1STR   C13068807   7.023   4.247   1.029
    1STR   H13168808   7.069   4.336   0.988
    1STR   C13268809   7.072   4.119   0.965
    1STR   H13368810   7.026   4.031   1.009
    1STR   H13468811   7.180   4.110   0.965
    1STR   H13568812   7.048   4.117   0.863
    1STR   C13668813   6.872   4.270   1.002
    1STR   H13768814   6.832   4.190   0.941
    1STR   H13868815   6.821   4.252   1.092
    1STR   O13968816   6.829   4.400   0.950
    1STR   C14068817   6.694   4.441   0.984
    1STR   H14168818   6.696   4.402   1.079
    1STR   C14268819   6.662   4.583   1.031
    1STR   H14368820   6.720   4.661   0.985
    1STR   H14468821   6.678   4.586   1.138
    1STR   H14568822   6.556   4.608   1.029
    1STR   C14668823   6.572   4.366   0.931
    1STR   H14768824   6.484   4.400   0.983
    1STR   H14868825   6.556   4.395   0.830
    1STR   O14968826   6.604   4.228   0.951
    1STR   C15068827   6.519   4.121   0.916
    1STR   H15168828   6.491   4.130   0.813
    1STR   C15268829   6.612   3.999   0.923
    1STR   H15368830   6.651   3.984   1.023
    1STR   H15468831   6.697   4.015   0.857
    1STR   H15568832   6.561   3.909   0.891
    1STR   C15668833   6.396   4.104   1.006
    1STR   H15768834   6.316   4.061   0.947
    1STR   H15868835   6.414   4.035   1.089
    1STR   O15968836   6.352   4.229   1.055
    1STR   C16068837   6.396   4.268   1.184
    1STR   H16168838   6.392   4.377   1.180
    1STR   C16268839   6.284   4.224   1.279
    1STR   H16368840   6.286   4.116   1.294
    1STR   H16468841   6.187   4.251   1.238
    1STR   H16568842   6.292   4.272   1.376
    1STR   C16668843   6.542   4.230   1.231
    1STR   H16768844   6.533   4.163   1.314
    1STR   H16868845   6.598   4.168   1.163
    1STR   O16968846   6.620   4.348   1.261
    1STR   C17068847   6.756   4.339   1.309
    1STR   H17168848   6.743   4.373   1.410
    1STR   C17268849   6.812   4.198   1.331
    1STR   H17368850   6.816   4.131   1.245
    1STR   H17468851   6.753   4.144   1.403
    1STR   H17568852   6.913   4.207   1.369
    1STR   C17668853   6.859   4.454   1.287
    1STR   H17768854   6.813   4.542   1.331
    1STR   H17868855   6.948   4.427   1.342
    1STR   O17968856   6.911   4.494   1.163
    1STR   C18068857   7.004   4.602   1.157
    1STR   H18168858   7.099   4.573   1.202
    1STR   C18268859   7.026   4.630   1.011
    1STR   H18368860   6.929   4.656   0.971
    1STR   H18468861   7.061   4.545   0.954
    1STR   H18568862   7.094   4.715   0.995
    1STR   C18668863   6.954   4.731   1.220
    1STR   H18768864   6.980   4.712   1.321
    1STR   H18868865   7.008   4.820   1.187
    1STR   O18968866   6.814   4.743   1.206
    1STR   C19068867   6.742   4.846   1.271
    1STR   H19168868   6.784   4.876   1.365
    1STR   C19268869   6.756   4.968   1.183
    1STR   H19368870   6.724   4.936   1.084
    1STR   H19468871   6.860   5.000   1.174
    1STR   H19568872   6.698   5.052   1.218
    1STR   C19668873   6.595   4.801   1.289
    1STR   H19768874   6.541   4.878   1.344
    1STR   H19868875   6.550   4.795   1.190
    1STR   O19968876   6.579   4.672   1.353
    1STR   C20068877   6.449   4.642   1.407
    1STR   H20168878   6.426   4.710   1.489
    1STR   C20268879   6.344   4.665   1.297
    1STR   H20368880   6.371   4.612   1.206
    1STR   H20468881   6.333   4.771   1.272
    1STR   H20568882   6.245   4.631   1.328
    1STR   C20668883   6.435   4.495   1.461
    1STR   H20768884   6.330   4.484   1.487
    1STR   H20868885   6.448   4.433   1.375
    1STR   O20968886   6.514   4.443   1.571
    1STR   C21068887   6.562   4.305   1.566
    1STR   H21168888   6.580   4.289   1.466
    1STR   C21268889   6.693   4.293   1.642
    1STR   H21368890   6.724   4.391   1.675
    1STR   H21468891   6.775   4.249   1.586
    1STR   H21568892   6.682   4.227   1.727
    1STR   C21668893   6.482   4.174   1.587
    1STR   H21768894   6.476   4.150   1.693
    1STR   H21868895   6.382   4.180   1.547
    1STR   O21968896   6.550   4.068   1.520
    1STR   C22068897   6.588   3.958   1.600
    1STR   H22168898   6.617   3.991   1.700
    1STR   C22268899   6.467   3.866   1.610
    1STR   H22368900   6.433   3.835   1.512
    1STR   H22468901   6.384   3.916   1.661
    1STR   H22568902   6.493   3.777   1.668
    1STR   C22668903   6.709   3.886   1.538
    1STR   H22768904   6.727   3.793   1.591
    1STR   H22868905   6.685   3.863   1.434
    1STR   O22968906   6.825   3.967   1.546
    1STR   C23068907   6.947   3.904   1.506
    1STR   H23168908   6.965   3.817   1.569
    1STR   C23268909   6.945   3.862   1.358
    1STR   H23368910   6.927   3.947   1.292
    1STR   H23468911   6.869   3.786   1.336
    1STR   H23568912   7.041   3.819   1.328
    1STR   C23668913   7.061   4.004   1.527
    1STR   H23768914   7.151   3.965   1.480
    1STR   H23868915   7.036   4.098   1.481
    1STR   O23968916   7.084   4.032   1.664
    1STR   C24068917   7.197   4.116   1.688
    1STR   H24168918   7.198   4.119   1.796
    1STR   C24268919   7.331   4.050   1.653
    1STR   H24368920   7.345   4.035   1.546
    1STR   H24468921   7.341   3.953   1.701
    1STR   H24568922   7.414   4.111   1.687
    1STR   C24668923   7.191   4.263   1.638
    1STR   H24768924   7.260   4.324   1.695
    1STR   H24868925   7.237   4.266   1.543
    1STR   O24968926   7.065   4.327   1.617
    1STR   C25068927   7.078   4.469   1.596
    1STR   H25168928   7.126   4.510   1.682
    1STR   C25268929   7.176   4.507   1.484
    1STR   H25368930   7.158   4.451   1.394
    1STR   H25468931   7.277   4.493   1.519
    1STR   H25568932   7.171   4.613   1.458
    1STR   C25668933   6.941   4.535   1.569
    1STR   H25768934   6.961   4.589   1.479
    1STR   H25868935   6.871   4.458   1.545
    1STR   O25968936   6.875   4.629   1.653
    1STR   C26068937   6.808   4.732   1.578
    1STR   H26168938   6.795   4.700   1.476
    1STR   C26268939   6.665   4.765   1.614
    1STR   H26368940   6.662   4.812   1.709
    1STR   H26468941   6.602   4.677   1.612
    1STR   H26568942   6.623   4.839   1.547
    1STR   C26668943   6.892   4.859   1.587
    1STR   H26768944   6.835   4.952   1.579
    1STR   H26868945   6.939   4.857   1.683
    1STR   O26968946   6.983   4.846   1.482
    1STR   C27068947   7.101   4.921   1.476
    1STR   H27168948   7.161   4.876   1.397
    1STR   C27268949   7.063   5.062   1.432
    1STR   H27368950   7.002   5.060   1.342
    1STR   H27468951   7.151   5.121   1.407
    1STR   H27568952   7.005   5.115   1.507
    1STR   C27668953   7.175   4.901   1.607
    1STR   H27768954   7.279   4.930   1.601
    1STR   H27868955   7.128   4.967   1.680
    1STR   O27968956   7.159   4.765   1.647
    1STR   C28068957   7.189   4.738   1.783
    1STR   H28168958   7.196   4.833   1.830
    1STR   C28268959   7.078   4.672   1.867
    1STR   H28368960   7.047   4.572   1.846
    1STR   H28468961   6.984   4.724   1.857
    1STR   H28568962   7.106   4.671   1.971
    1STR   C28668963   7.328   4.677   1.792
    1STR   H28768964   7.347   4.636   1.890
    1STR   H28868965   7.334   4.595   1.721
    1STR   O28968966   7.418   4.784   1.766
    1STR   C29068967   7.514   4.760   1.666
    1STR   H29168968   7.467   4.708   1.582
    1STR   C29268969   7.566   4.895   1.620
    1STR   H29368970   7.603   4.950   1.704
    1STR   H29468971   7.492   4.954   1.567
    1STR   H29568972   7.654   4.883   1.560
    1STR   C29668973   7.630   4.680   1.725
    1STR   H29768974   7.697   4.746   1.781
    1STR   H29868975   7.596   4.608   1.798
    1STR   O29968976   7.699   4.623   1.616
    1STR   C30068977   7.683   4.483   1.601
    1STR   H30168978   7.736   4.443   1.685
    1STR   C30268979   7.538   4.433   1.610
    1STR   H30368980   7.481   4.479   1.531
    1STR   H30468981   7.491   4.451   1.706
    1STR   H30568982   7.536   4.325   1.599
    1STR   C30668983   7.744   4.430   1.470
    1STR   H30768984   7.727   4.323   1.462
    1STR   H30868985   7.690   4.474   1.387
    1STR   O30968986   7.881   4.459   1.448
    1STR    H1R68987   8.068   4.408   1.472
    1STR    H1S68988   7.923   4.540   1.703
    1STR    H1T68989   8.047   4.603   1.601
    1STR    H1U68990   8.083   4.474   1.716
    1STR    H1V68991   8.064   4.211   1.575
    1STR    H1W68992   7.901   4.201   1.519
    1STR    H1X68993   7.876   4.331   1.904
    1STR    H1Y68994   7.757   4.534   1.995
    1STR    H1Z68995   7.579   4.601   2.129
    1STR    H2068996   7.360   4.577   2.213
    1STR    H2168997   7.262   4.545   2.078
    1STR    H2268998   7.280   4.420   2.200
    1STR    H2368999   7.321   4.151   2.027
    1STR    H2769000   7.551   4.174   1.879
    1STR    H2869001   7.095   5.127   0.867
    1STR    H2969002   7.242   4.988   0.724
    1STR    H2A69003   7.135   4.679   0.544
    1STR    H2B69004   7.276   4.709   0.636
    1STR    H2C69005   7.206   4.833   0.528
    1STR   BCK169006   6.807   5.076   2.642
    1STR    O0369007   6.785   4.959   2.627
    1STR    N0469008   6.749   5.160   2.730
    1STR    C0569009   6.644   5.134   2.821
    1STR    C0669010   6.573   5.015   2.814
    1STR    C0769011   6.467   4.982   2.898
    1STR    N0869012   6.429   4.848   2.899
    1STR    C0969013   6.413   4.790   2.781
    1STR    O0A69014   6.379   4.860   2.686
    1STR    O0B69015   6.430   4.655   2.769
    1STR    C0C69016   6.445   4.557   2.871
    1STR    C0D69017   6.315   4.539   2.951
    1STR    C0E69018   6.485   4.420   2.812
    1STR    O0F69019   6.554   4.425   2.690
    1STR    C0G69020   6.689   4.465   2.688
    1STR    C0H69021   6.719   4.602   2.742
    1STR    C0I69022   6.788   4.367   2.743
    1STR    O0J69023   6.908   4.388   2.671
    1STR    C0K69024   6.985   5.621   3.872
    1STR    C0M69025   6.907   5.617   3.741
    1STR    C0N69026   6.892   5.612   3.994
    1STR    O0O69027   6.799   5.504   4.005
    1STR    C0P69028   6.669   5.532   4.034
    1STR    O0Q69029   6.616   5.642   4.019
    1STR    N0R69030   6.595   5.433   4.084
    1STR    C0S69031   6.624   5.300   4.114
    1STR    C0T69032   6.521   5.205   4.106
    1STR    C0U69033   6.546   5.069   4.132
    1STR    C0V69034   6.676   5.022   4.153
    1STR    C0W69035   6.704   4.874   4.144
    1STR    C0X69036   6.776   5.116   4.172
    1STR    N0Y69037   6.905   5.076   4.197
    1STR   BCK269038   6.958   5.004   4.291
    1STR    O1069039   6.902   4.942   4.380
    1STR    C1369040   6.750   5.254   4.153
    1STR    C1469041   6.414   5.081   2.982
    1STR    C1569042   6.484   5.201   2.996
    1STR    C1669043   6.601   5.225   2.920
    1STR    C1769044   6.671   5.354   2.944
    1STR    H1B69045   6.788   5.252   2.734
    1STR    H1C69046   6.600   4.941   2.743
    1STR    H1D69047   6.483   4.794   2.966
    1STR    H1E69048   6.527   4.597   2.928
    1STR    H1F69049   6.237   4.490   2.894
    1STR    H1G69050   6.330   4.476   3.039
    1STR    H1H69051   6.275   4.635   2.982
    1STR    H1I69052   6.397   4.363   2.787
    1STR    H1J69053   6.531   4.351   2.881
    1STR    H1K69054   6.712   4.461   2.583
    1STR    H1M69055   6.728   4.602   2.850
    1STR    H1N69056   6.646   4.676   2.717
    1STR    H1O69057   6.810   4.636   2.696
    1STR    H1P69058   6.801   4.376   2.848
    1STR    H1Q69059   6.746   4.268   2.726
    1STR   C01069060   7.012   4.454   2.741
    1STR   H01169061   6.965   4.519   2.810
    1STR   C01269062   7.083   4.343   2.812
    1STR   H01369063   7.094   4.259   2.745
    1STR   H01469064   7.019   4.309   2.890
    1STR   H01569065   7.179   4.372   2.854
    1STR   C01669066   7.098   4.536   2.644
    1STR   H01769067   7.146   4.466   2.577
    1STR   H01869068   7.027   4.589   2.581
    1STR   O01969069   7.180   4.647   2.686
    1STR   C02069070   7.274   4.646   2.793
    1STR   H02169071   7.210   4.625   2.876
    1STR   C02269072   7.391   4.547   2.797
    1STR   H02369073   7.472   4.579   2.732
    1STR   H02469074   7.362   4.446   2.769
    1STR   H02569075   7.433   4.541   2.896
    1STR   C02669076   7.322   4.792   2.806
    1STR   H02769077   7.345   4.832   2.709
    1STR   H02869078   7.232   4.842   2.835
    1STR   O02969079   7.430   4.826   2.897
    1STR   C03069080   7.415   4.957   2.957
    1STR   H03169081   7.326   4.943   3.008
    1STR   C03269082   7.504   5.001   3.075
    1STR   H03369083   7.593   5.056   3.046
    1STR   H03469084   7.538   4.917   3.136
    1STR   H03569085   7.449   5.068   3.141
    1STR   C03669086   7.390   5.066   2.854
    1STR   H03769087   7.414   5.166   2.892
    1STR   H03869088   7.460   5.046   2.775
    1STR   O03969089   7.259   5.062   2.801
    1STR   C04069090   7.160   5.108   2.888
    1STR   H04169091   7.184   5.089   2.990
    1STR   C04269092   7.169   5.257   2.880
    1STR   H04369093   7.180   5.292   2.778
    1STR   H04469094   7.253   5.296   2.936
    1STR   H04569095   7.078   5.295   2.923
    1STR   C04669096   7.022   5.051   2.848
    1STR   H04769097   6.975   5.137   2.805
    1STR   H04869098   7.039   4.977   2.774
    1STR   O04969099   6.928   4.997   2.941
    1STR   C05069100   6.852   4.878   2.913
    1STR   H05169101   6.777   4.891   2.840
    1STR   C05269102   6.946   4.773   2.860
    1STR   H05369103   7.046   4.783   2.896
    1STR   H05469104   6.953   4.773   2.752
    1STR   H05569105   6.913   4.679   2.898
    1STR   C05669106   6.775   4.829   3.039
    1STR   H05769107   6.825   4.739   3.072
    1STR   H05869108   6.788   4.909   3.109
    1STR   O05969109   6.635   4.792   3.041
    1STR   C06069110   6.578   4.783   3.174
    1STR   H06169111   6.657   4.773   3.245
    1STR   C06269112   6.496   4.906   3.212
    1STR   H06369113   6.398   4.903   3.166
    1STR   H06469114   6.547   4.997   3.182
    1STR   H06569115   6.478   4.911   3.318
    1STR   C06669116   6.488   4.662   3.197
    1STR   H06769117   6.467   4.643   3.301
    1STR   H06869118   6.390   4.681   3.154
    1STR   O06969119   6.540   4.546   3.139
    1STR   C07069120   6.647   4.485   3.203
    1STR   H07169121   6.708   4.556   3.258
    1STR   C07269122   6.578   4.379   3.290
    1STR   H07369123   6.522   4.310   3.228
    1STR   H07469124   6.504   4.422   3.357
    1STR   H07569125   6.650   4.324   3.350
    1STR   C07669126   6.727   4.420   3.092
    1STR   H07769127   6.746   4.318   3.118
    1STR   H07869128   6.665   4.419   3.005
    1STR   O07969129   6.846   4.479   3.042
    1STR   C08069130   6.957   4.456   3.124
    1STR   H08169131   6.920   4.507   3.208
    1STR   C08269132   6.994   4.309   3.155
    1STR   H08369133   7.037   4.249   3.076
    1STR   H08469134   6.915   4.252   3.201
    1STR   H08569135   7.068   4.309   3.233
    1STR   C08669136   7.077   4.538   3.080
    1STR   H08769137   7.171   4.495   3.111
    1STR   H08869138   7.078   4.526   2.975
    1STR   O08969139   7.062   4.678   3.101
    1STR   C09069140   7.166   4.753   3.165
    1STR   H09169141   7.173   4.745   3.272
    1STR   C09269142   7.305   4.703   3.131
    1STR   H09369143   7.319   4.667   3.033
    1STR   H09469144   7.329   4.619   3.195
    1STR   H09569145   7.380   4.778   3.146
    1STR   C09669146   7.136   4.901   3.139
    1STR   H09769147   7.215   4.963   3.180
    1STR   H09869148   7.136   4.902   3.032
    1STR   O09969149   7.011   4.963   3.167
    1STR   C10069150   7.013   5.106   3.192
    1STR   H10169151   7.105   5.154   3.161
    1STR   C10269152   6.898   5.190   3.133
    1STR   H10369153   6.802   5.140   3.133
    1STR   H10469154   6.915   5.214   3.029
    1STR   H10569155   6.887   5.286   3.182
    1STR   C10669156   7.012   5.117   3.341
    1STR   H10769157   7.110   5.152   3.371
    1STR   H10869158   6.940   5.190   3.375
    1STR   O10969159   7.001   4.990   3.398
    1STR   C11069160   6.879   4.918   3.404
    1STR   H11169161   6.878   4.924   3.509
    1STR   C11269162   6.751   4.997   3.378
    1STR   H11369163   6.667   4.941   3.419
    1STR   H11469164   6.734   5.011   3.273
    1STR   H11569165   6.747   5.096   3.422
    1STR   C11669166   6.878   4.766   3.355
    1STR   H11769167   6.790   4.715   3.392
    1STR   H11869168   6.866   4.781   3.252
    1STR   O11969169   6.989   4.673   3.342
    1STR   C12069170   7.021   4.555   3.417
    1STR   H12169171   7.047   4.599   3.508
    1STR   C12269172   6.904   4.461   3.434
    1STR   H12369173   6.809   4.510   3.433
    1STR   H12469174   6.921   4.423   3.532
    1STR   H12569175   6.898   4.373   3.373
    1STR   C12669176   7.155   4.476   3.423
    1STR   H12769177   7.220   4.516   3.501
    1STR   H12869178   7.123   4.380   3.460
    1STR   O12969179   7.235   4.438   3.313
    1STR   C13069180   7.330   4.338   3.350
    1STR   H13169181   7.329   4.322   3.457
    1STR   C13269182   7.292   4.203   3.290
    1STR   H13369183   7.270   4.209   3.184
    1STR   H13469184   7.202   4.163   3.336
    1STR   H13569185   7.371   4.129   3.304
    1STR   C13669186   7.471   4.388   3.318
    1STR   H13769187   7.537   4.306   3.291
    1STR   H13869188   7.472   4.460   3.237
    1STR   O13969189   7.521   4.439   3.440
    1STR   C14069190   7.585   4.564   3.438
    1STR   H14169191   7.607   4.578   3.542
    1STR   C14269192   7.724   4.554   3.373
    1STR   H14369193   7.722   4.493   3.284
    1STR   H14469194   7.793   4.506   3.441
    1STR   H14569195   7.764   4.653   3.349
    1STR   C14669196   7.499   4.685   3.394
    1STR   H14769197   7.549   4.775   3.430
    1STR   H14869198   7.509   4.693   3.287
    1STR   O14969199   7.358   4.685   3.432
    1STR   C15069200   7.308   4.806   3.493
    1STR   H15169201   7.376   4.804   3.572
    1STR   C15269202   7.347   4.929   3.407
    1STR   H15369203   7.376   4.902   3.307
    1STR   H15469204   7.432   4.981   3.449
    1STR   H15569205   7.266   5.000   3.399
    1STR   C15669206   7.160   4.826   3.550
    1STR   H15769207   7.149   4.932   3.570
    1STR   H15869208   7.104   4.807   3.464
    1STR   O15969209   7.091   4.772   3.669
    1STR   C16069210   6.946   4.745   3.669
    1STR   H16169211   6.934   4.744   3.567
    1STR   C16269212   6.913   4.606   3.698
    1STR   H16369213   6.996   4.537   3.694
    1STR   H16469214   6.838   4.578   3.629
    1STR   H16569215   6.854   4.601   3.785
    1STR   C16669216   6.815   4.820   3.708
    1STR   H16769217   6.781   4.803   3.809
    1STR   H16869218   6.833   4.926   3.706
    1STR   O16969219   6.715   4.779   3.607
    1STR   C17069220   6.599   4.697   3.636
    1STR   H17169221   6.586   4.695   3.741
    1STR   C17269222   6.479   4.773   3.576
    1STR   H17369223   6.466   4.754   3.471
    1STR   H17469224   6.489   4.881   3.581
    1STR   H17569225   6.386   4.745   3.626
    1STR   C17669226   6.582   4.553   3.575
    1STR   H17769227   6.477   4.524   3.583
    1STR   H17869228   6.600   4.569   3.470
    1STR   O17969229   6.666   4.440   3.606
    1STR   C18069230   6.621   4.313   3.658
    1STR   H18169231   6.623   4.323   3.767
    1STR   C18269232   6.476   4.273   3.625
    1STR   H18369233   6.459   4.267   3.518
    1STR   H18469234   6.404   4.342   3.669
    1STR   H18569235   6.453   4.175   3.667
    1STR   C18669236   6.722   4.199   3.619
    1STR   H18769237   6.712   4.116   3.689
    1STR   H18869238   6.696   4.160   3.520
    1STR   O18969239   6.860   4.240   3.613
    1STR   C19069240   6.969   4.148   3.626
    1STR   H19169241   6.948   4.091   3.716
    1STR   C19269242   6.961   4.053   3.506
    1STR   H19369243   7.040   3.978   3.509
    1STR   H19469244   6.970   4.108   3.412
    1STR   H19569245   6.866   3.999   3.503
    1STR   C19669246   7.119   4.203   3.643
    1STR   H19769247   7.160   4.133   3.713
    1STR   H19869248   7.173   4.182   3.551
    1STR   O19969249   7.159   4.340   3.679
    1STR   C20069250   7.284   4.366   3.753
    1STR   H20169251   7.252   4.365   3.858
    1STR   C20269252   7.390   4.253   3.732
    1STR   H20369253   7.430   4.255   3.631
    1STR   H20469254   7.359   4.151   3.750
    1STR   H20569255   7.475   4.269   3.798
    1STR   C20669256   7.371   4.498   3.735
    1STR   H20769257   7.447   4.490   3.812
    1STR   H20869258   7.421   4.491   3.640
    1STR   O20969259   7.330   4.637   3.739
    1STR   C21069260   7.422   4.739   3.792
    1STR   H21169261   7.423   4.717   3.898
    1STR   C21269262   7.567   4.722   3.741
    1STR   H21369263   7.578   4.761   3.641
    1STR   H21469264   7.603   4.619   3.746
    1STR   H21569265   7.643   4.775   3.796
    1STR   C21669266   7.374   4.893   3.785
    1STR   H21769267   7.266   4.899   3.771
    1STR   H21869268   7.387   4.935   3.883
    1STR   O21969269   7.432   4.982   3.687
    1STR   C22069270   7.401   5.123   3.692
    1STR   H22169271   7.396   5.148   3.797
    1STR   C22269272   7.526   5.191   3.636
    1STR   H22369273   7.544   5.161   3.532
    1STR   H22469274   7.616   5.168   3.691
    1STR   H22569275   7.517   5.299   3.637
    1STR   C22669276   7.283   5.192   3.614
    1STR   H22769277   7.291   5.295   3.645
    1STR   H22869278   7.306   5.193   3.507
    1STR   O22969279   7.144   5.156   3.624
    1STR   C23069280   7.048   5.265   3.636
    1STR   H23169281   7.066   5.312   3.731
    1STR   C23269282   7.073   5.381   3.536
    1STR   H23369283   7.099   5.351   3.435
    1STR   H23469284   7.153   5.446   3.571
    1STR   H23569285   6.985   5.446   3.528
    1STR   C23669286   6.899   5.215   3.633
    1STR   H23769287   6.835   5.294   3.593
    1STR   H23869288   6.893   5.131   3.568
    1STR   O23969289   6.844   5.164   3.754
    1STR   C24069290   6.702   5.171   3.782
    1STR   H24169291   6.695   5.141   3.887
    1STR   C24269292   6.650   5.314   3.773
    1STR   H24369293   6.635   5.347   3.670
    1STR   H24469294   6.722   5.381   3.819
    1STR   H24569295   6.555   5.325   3.825
    1STR   C24669296   6.610   5.074   3.706
    1STR   H24769297   6.528   5.127   3.656
    1STR   H24869298   6.666   5.034   3.623
    1STR   O24969299   6.563   4.961   3.782
    1STR   C25069300   6.437   4.964   3.849
    1STR   H25169301   6.448   5.042   3.920
    1STR   C25269302   6.316   5.011   3.765
    1STR   H25369303   6.292   4.944   3.684
    1STR   H25469304   6.330   5.111   3.724
    1STR   H25569305   6.229   5.020   3.829
    1STR   C25669306   6.408   4.826   3.920
    1STR   H25769307   6.352   4.837   4.012
    1STR   H25869308   6.346   4.765   3.854
    1STR   O25969309   6.528   4.754   3.946
    1STR   C26069310   6.530   4.618   3.994
    1STR   H26169311   6.525   4.618   4.103
    1STR   C26269312   6.419   4.530   3.935
    1STR   H26369313   6.413   4.541   3.827
    1STR   H26469314   6.322   4.556   3.978
    1STR   H26569315   6.438   4.425   3.955
    1STR   C26669316   6.669   4.567   3.948
    1STR   H26769317   6.663   4.531   3.846
    1STR   H26869318   6.728   4.657   3.947
    1STR   O26969319   6.743   4.472   4.024
    1STR   C27069320   6.878   4.440   3.976
    1STR   H27169321   6.921   4.367   4.043
    1STR   C27269322   6.880   4.352   3.856
    1STR   H27369323   6.981   4.345   3.819
    1STR   H27469324   6.822   4.396   3.777
    1STR   H27569325   6.848   4.250   3.868
    1STR   C27669326   6.987   4.550   3.967
    1STR   H27769327   7.064   4.524   4.035
    1STR   H27869328   7.054   4.537   3.883
    1STR   O27969329   6.941   4.687   3.975
    1STR   C28069330   7.033   4.792   4.000
    1STR   H28169331   7.023   4.815   4.105
    1STR   C28269332   7.173   4.749   3.963
    1STR   H28369333   7.170   4.722   3.861
    1STR   H28469334   7.219   4.664   4.010
    1STR   H28569335   7.240   4.832   3.978
    1STR   C28669336   7.007   4.929   3.937
    1STR   H28769337   7.027   4.930   3.831
    1STR   H28869338   6.903   4.961   3.950
    1STR   O28969339   7.097   5.018   4.003
    1STR   C29069340   7.116   5.145   3.947
    1STR   H29169341   7.126   5.127   3.842
    1STR   C29269342   7.000   5.236   3.981
    1STR   H29369343   6.907   5.183   3.968
    1STR   H29469344   6.990   5.322   3.917
    1STR   H29569345   7.009   5.273   4.082
    1STR   C29669346   7.243   5.210   4.000
    1STR   H29769347   7.230   5.248   4.101
    1STR   H29869348   7.322   5.135   4.007
    1STR   O29969349   7.275   5.309   3.902
    1STR   C30069350   7.301   5.439   3.947
    1STR   H30169351   7.367   5.434   4.033
    1STR   C30269352   7.379   5.505   3.833
    1STR   H30369353   7.317   5.515   3.745
    1STR   H30469354   7.466   5.445   3.807
    1STR   H30569355   7.415   5.604   3.861
    1STR   C30669356   7.171   5.513   3.983
    1STR   H30769357   7.121   5.459   4.063
    1STR   H30869358   7.193   5.610   4.027
    1STR   O30969359   7.088   5.524   3.867
    1STR    H1R69360   7.035   5.718   3.878
    1STR    H1S69361   6.824   5.688   3.741
    1STR    H1T69362   6.865   5.518   3.724
    1STR    H1U69363   6.972   5.641   3.657
    1STR    H1V69364   6.841   5.708   4.002
    1STR    H1W69365   6.956   5.605   4.081
    1STR    H1X69366   6.500   5.461   4.095
    1STR    H1Y69367   6.423   5.238   4.076
    1STR    H1Z69368   6.469   4.994   4.130
    1STR    H2069369   6.777   4.836   4.213
    1STR    H2169370   6.613   4.817   4.162
    1STR    H2269371   6.739   4.850   4.044
    1STR    H2369372   6.974   5.097   4.125
    1STR    H2769373   6.828   5.326   4.163
    1STR    H2869374   6.326   5.061   3.041
    1STR    H2969375   6.449   5.275   3.066
    1STR    H2A69376   6.682   5.375   3.050
    1STR    H2B69377   6.607   5.430   2.899
    1STR    H2C69378   6.770   5.351   2.899
    1STR   BCK169379   6.929   4.227   5.175
    1STR    O0369380   6.963   4.280   5.073
    1STR    N0469381   6.996   4.125   5.228
    1STR    C0569382   7.125   4.103   5.183
    1STR    C0669383   7.228   4.156   5.261
    1STR    C0769384   7.360   4.174   5.213
    1STR    N0869385   7.449   4.266   5.265
    1STR    C0969386   7.577   4.251   5.301
    1STR    O0A69387   7.632   4.143   5.313
    1STR    O0B69388   7.645   4.364   5.322
    1STR    C0C69389   7.618   4.496   5.278
    1STR    C0D69390   7.758   4.547   5.244
    1STR    C0E69391   7.516   4.518   5.166
    1STR    O0F69392   7.388   4.535   5.228
    1STR    C0G69393   7.277   4.550   5.139
    1STR    C0H69394   7.200   4.425   5.124
    1STR    C0I69395   7.178   4.664   5.152
    1STR    O0J69396   7.237   4.789   5.142
    1STR    C0K69397   6.954   3.899   6.372
    1STR    C0M69398   7.009   3.799   6.269
    1STR    C0N69399   7.056   4.004   6.424
    1STR    O0O69400   7.186   3.954   6.453
    1STR    C0P69401   7.288   4.041   6.470
    1STR    O0Q69402   7.278   4.163   6.477
    1STR    N0R69403   7.404   3.974   6.477
    1STR    C0S69404   7.534   4.018   6.454
    1STR    C0T69405   7.641   3.939   6.501
    1STR    C0U69406   7.774   3.968   6.463
    1STR    C0V69407   7.802   4.076   6.377
    1STR    C0W69408   7.944   4.102   6.332
    1STR    C0X69409   7.697   4.157   6.330
    1STR    N0Y69410   7.725   4.255   6.234
    1STR   BCK269411   7.745   4.386   6.252
    1STR    O1069412   7.757   4.462   6.157
    1STR    C1369413   7.564   4.127   6.370
    1STR    C1469414   7.387   4.134   5.083
    1STR    C1569415   7.286   4.082   5.004
    1STR    C1669416   7.155   4.067   5.050
    1STR    C1769417   7.049   4.037   4.949
    1STR    H1B69418   6.974   4.095   5.321
    1STR    H1C69419   7.192   4.201   5.351
    1STR    H1D69420   7.415   4.363   5.269
    1STR    H1E69421   7.584   4.556   5.362
    1STR    H1F69422   7.815   4.468   5.196
    1STR    H1G69423   7.757   4.637   5.183
    1STR    H1H69424   7.814   4.569   5.334
    1STR    H1I69425   7.516   4.435   5.094
    1STR    H1J69426   7.543   4.605   5.109
    1STR    H1K69427   7.317   4.564   5.045
    1STR    H1M69428   7.163   4.387   5.218
    1STR    H1N69429   7.254   4.350   5.068
    1STR    H1O69430   7.114   4.446   5.062
    1STR    H1P69431   7.109   4.661   5.070
    1STR    H1Q69432   7.120   4.653   5.241
    1STR   C01069433   7.157   4.891   5.193
    1STR   H01169434   7.117   4.859   5.286
    1STR   C01269435   7.242   5.007   5.234
    1STR   H01369436   7.331   5.022   5.175
    1STR   H01469437   7.271   4.995   5.338
    1STR   H01569438   7.184   5.097   5.232
    1STR   C01669439   7.037   4.925   5.108
    1STR   H01769440   7.027   5.033   5.100
    1STR   H01869441   7.054   4.893   5.006
    1STR   O01969442   6.920   4.862   5.162
    1STR   C02069443   6.840   4.954   5.235
    1STR   H02169444   6.844   5.045   5.179
    1STR   C02269445   6.689   4.934   5.230
    1STR   H02369446   6.656   4.833   5.238
    1STR   H02469447   6.649   4.969   5.136
    1STR   H02569448   6.640   4.994   5.307
    1STR   C02669449   6.894   4.990   5.373
    1STR   H02769450   7.001   4.992   5.385
    1STR   H02869451   6.867   5.094   5.385
    1STR   O02969452   6.830   4.925   5.480
    1STR   C03069453   6.831   4.786   5.493
    1STR   H03169454   6.828   4.778   5.600
    1STR   C03269455   6.689   4.732   5.466
    1STR   H03369456   6.681   4.651   5.395
    1STR   H03469457   6.620   4.812   5.441
    1STR   H03569458   6.645   4.700   5.558
    1STR   C03669459   6.956   4.710   5.441
    1STR   H03769460   6.946   4.611   5.483
    1STR   H03869461   6.948   4.705   5.334
    1STR   O03969462   7.086   4.764   5.475
    1STR   C04069463   7.206   4.682   5.485
    1STR   H04169464   7.229   4.686   5.589
    1STR   C04269465   7.182   4.532   5.455
    1STR   H04369466   7.103   4.508   5.385
    1STR   H04469467   7.159   4.481   5.546
    1STR   H04569468   7.271   4.483   5.417
    1STR   C04669469   7.344   4.735   5.435
    1STR   H04769470   7.418   4.658   5.458
    1STR   H04869471   7.347   4.745   5.329
    1STR   O04969472   7.396   4.856   5.490
    1STR   C05069473   7.523   4.898   5.434
    1STR   H05169474   7.534   4.863   5.332
    1STR   C05269475   7.525   5.051   5.432
    1STR   H05369476   7.501   5.093   5.530
    1STR   H05469477   7.455   5.093   5.361
    1STR   H05569478   7.623   5.089   5.402
    1STR   C05669479   7.646   4.852   5.516
    1STR   H05769480   7.737   4.897   5.476
    1STR   H05869481   7.633   4.889   5.618
    1STR   O05969482   7.663   4.711   5.516
    1STR   C06069483   7.776   4.660   5.587
    1STR   H06169484   7.863   4.674   5.522
    1STR   C06269485   7.809   4.730   5.720
    1STR   H06369486   7.723   4.730   5.787
    1STR   H06469487   7.841   4.833   5.706
    1STR   H06569488   7.888   4.678   5.773
    1STR   C06669489   7.758   4.508   5.607
    1STR   H06769490   7.727   4.456   5.518
    1STR   H06869491   7.854   4.465   5.633
    1STR   O06969492   7.671   4.472   5.713
    1STR   C07069493   7.531   4.487   5.698
    1STR   H07169494   7.497   4.437   5.784
    1STR   C07269495   7.476   4.626   5.734
    1STR   H07369496   7.496   4.705   5.665
    1STR   H07469497   7.511   4.657   5.832
    1STR   H07569498   7.368   4.623   5.740
    1STR   C07669499   7.452   4.401   5.596
    1STR   H07769500   7.350   4.432   5.612
    1STR   H07869501   7.478   4.426   5.495
    1STR   O07969502   7.452   4.259   5.619
    1STR   C08069503   7.351   4.181   5.550
    1STR   H08169504   7.342   4.242   5.464
    1STR   C08269505   7.409   4.045   5.519
    1STR   H08369506   7.388   3.970   5.596
    1STR   H08469507   7.517   4.048   5.504
    1STR   H08569508   7.361   4.009   5.429
    1STR   C08669509   7.204   4.164   5.600
    1STR   H08769510   7.209   4.129   5.701
    1STR   H08869511   7.159   4.263   5.600
    1STR   O08969512   7.112   4.068   5.540
    1STR   C09069513   6.981   4.076   5.600
    1STR   H09169514   6.997   4.111   5.701
    1STR   C09269515   6.903   4.178   5.521
    1STR   H09369516   6.964   4.258   5.482
    1STR   H09469517   6.820   4.219   5.579
    1STR   H09569518   6.858   4.126   5.438
    1STR   C09669519   6.891   3.950   5.613
    1STR   H09769520   6.870   3.909   5.514
    1STR   H09869521   6.941   3.873   5.672
    1STR   O09969522   6.769   3.990   5.680
    1STR   C10069523   6.644   3.924   5.652
    1STR   H10169524   6.637   3.905   5.545
    1STR   C10269525   6.638   3.789   5.723
    1STR   H10369526   6.649   3.800   5.831
    1STR   H10469527   6.716   3.723   5.687
    1STR   H10569528   6.542   3.741   5.704
    1STR   C10669529   6.531   4.022   5.702
    1STR   H10769530   6.503   3.997   5.803
    1STR   H10869531   6.574   4.121   5.694
    1STR   O10969532   6.404   4.035   5.638
    1STR   C11069533   6.325   4.150   5.680
    1STR   H11169534   6.234   4.138   5.622
    1STR   C11269535   6.284   4.142   5.828
    1STR   H11369536   6.368   4.163   5.894
    1STR   H11469537   6.244   4.044   5.853
    1STR   H11569538   6.208   4.216   5.851
    1STR   C11669539   6.380   4.291   5.641
    1STR   H11769540   6.468   4.279   5.579
    1STR   H11869541   6.306   4.344   5.582
    1STR   O11969542   6.412   4.374   5.754
    1STR   C12069543   6.486   4.496   5.733
    1STR   H12169544   6.512   4.521   5.835
    1STR   C12269545   6.619   4.468   5.662
    1STR   H12369546   6.609   4.466   5.554
    1STR   H12469547   6.664   4.375   5.695
    1STR   H12569548   6.687   4.548   5.688
    1STR   C12669549   6.409   4.622   5.684
    1STR   H12769550   6.393   4.618   5.577
    1STR   H12869551   6.311   4.618   5.732
    1STR   O12969552   6.473   4.747   5.720
    1STR   C13069553   6.410   4.867   5.667
    1STR   H13169554   6.399   4.853   5.559
    1STR   C13269555   6.271   4.884   5.731
    1STR   H13369556   6.281   4.894   5.839
    1STR   H13469557   6.203   4.802   5.709
    1STR   H13569558   6.223   4.975   5.695
    1STR   C13669559   6.484   5.003   5.686
    1STR   H13769560   6.424   5.079   5.636
    1STR   H13869561   6.486   5.034   5.790
    1STR   O13969562   6.615   5.011   5.630
    1STR   C14069563   6.681   5.140   5.625
    1STR   H14169564   6.766   5.127   5.559
    1STR   C14269565   6.599   5.245   5.554
    1STR   H14369566   6.557   5.202   5.464
    1STR   H14469567   6.667   5.324   5.525
    1STR   H14569568   6.520   5.287   5.616
    1STR   C14669569   6.754   5.195   5.749
    1STR   H14769570   6.862   5.177   5.746
    1STR   H14869571   6.745   5.304   5.755
    1STR   O14969572   6.697   5.140   5.864
    1STR   C15069573   6.765   5.029   5.919
    1STR   H15169574   6.834   5.067   5.994
    1STR   C15269575   6.648   4.957   5.982
    1STR   H15369576   6.597   4.891   5.912
    1STR   H15469577   6.574   5.026   6.023
    1STR   H15569578   6.688   4.897   6.061
    1STR   C15669579   6.840   4.930   5.825
    1STR   H15769580   6.809   4.829   5.848
    1STR   H15869581   6.810   4.945   5.723
    1STR   O15969582   6.981   4.942   5.832
    1STR   C16069583   7.054   4.860   5.739
    1STR   H16169584   7.009   4.890   5.646
    1STR   C16269585   7.196   4.916   5.725
    1STR   H16369586   7.215   4.997   5.795
    1STR   H16469587   7.210   4.957   5.625
    1STR   H16569588   7.274   4.841   5.738
    1STR   C16669589   7.032   4.703   5.760
    1STR   H16769590   6.969   4.690   5.845
    1STR   H16869591   6.968   4.670   5.682
    1STR   O16969592   7.133   4.599   5.765
    1STR   C17069593   7.080   4.466   5.790
    1STR   H17169594   7.030   4.484   5.882
    1STR   C17269595   6.958   4.426   5.708
    1STR   H17369596   6.969   4.433   5.601
    1STR   H17469597   6.876   4.491   5.735
    1STR   H17569598   6.924   4.327   5.733
    1STR   C17669599   7.161   4.343   5.844
    1STR   H17769600   7.150   4.344   5.950
    1STR   H17869601   7.104   4.256   5.820
    1STR   O17969602   7.298   4.313   5.813
    1STR   C18069603   7.365   4.211   5.893
    1STR   H18169604   7.294   4.188   5.969
    1STR   C18269605   7.406   4.070   5.844
    1STR   H18369606   7.482   4.076   5.767
    1STR   H18469607   7.323   4.007   5.812
    1STR   H18569608   7.452   4.015   5.925
    1STR   C18669609   7.492   4.267   5.957
    1STR   H18769610   7.524   4.205   6.041
    1STR   H18869611   7.575   4.264   5.885
    1STR   O18969612   7.474   4.401   5.994
    1STR   C19069613   7.365   4.423   6.078
    1STR   H19169614   7.291   4.345   6.087
    1STR   C19269615   7.431   4.413   6.209
    1STR   H19369616   7.487   4.502   6.227
    1STR   H19469617   7.500   4.333   6.207
    1STR   H19569618   7.360   4.384   6.284
    1STR   C19669619   7.296   4.551   6.031
    1STR   H19769620   7.350   4.638   6.064
    1STR   H19869621   7.305   4.555   5.924
    1STR   O19969622   7.156   4.551   6.058
    1STR   C20069623   7.089   4.676   6.076
    1STR   H20169624   7.099   4.697   6.178
    1STR   C20269625   7.160   4.797   6.017
    1STR   H20369626   7.200   4.772   5.922
    1STR   H20469627   7.249   4.825   6.069
    1STR   H20569628   7.098   4.886   6.015
    1STR   C20669629   6.935   4.669   6.082
    1STR   H20769630   6.903   4.671   6.186
    1STR   H20869631   6.891   4.755   6.035
    1STR   O20969632   6.887   4.549   6.026
    1STR   C21069633   6.755   4.512   6.057
    1STR   H21169634   6.748   4.499   6.165
    1STR   C21269635   6.661   4.621   6.013
    1STR   H21369636   6.678   4.655   5.911
    1STR   H21469637   6.673   4.702   6.082
    1STR   H21569638   6.558   4.591   6.024
    1STR   C21669639   6.730   4.380   5.986
    1STR   H21769640   6.626   4.372   5.957
    1STR   H21869641   6.788   4.374   5.895
    1STR   O21969642   6.769   4.280   6.077
    1STR   C22069643   6.774   4.145   6.034
    1STR   H22169644   6.781   4.088   6.125
    1STR   C22269645   6.648   4.108   5.962
    1STR   H22369646   6.555   4.124   6.014
    1STR   H22469647   6.654   4.003   5.938
    1STR   H22569648   6.642   4.169   5.873
    1STR   C22669649   6.888   4.101   5.940
    1STR   H22769650   6.876   3.995   5.917
    1STR   H22869651   6.869   4.154   5.848
    1STR   O22969652   7.025   4.116   5.974
    1STR   C23069653   7.057   4.107   6.110
    1STR   H23169654   6.987   4.038   6.154
    1STR   C23269655   7.197   4.047   6.131
    1STR   H23369656   7.231   3.996   6.041
    1STR   H23469657   7.199   3.971   6.208
    1STR   H23569658   7.270   4.121   6.163
    1STR   C23669659   7.028   4.245   6.169
    1STR   H23769660   7.002   4.316   6.091
    1STR   H23869661   6.937   4.227   6.223
    1STR   O23969662   7.120   4.307   6.256
    1STR   C24069663   7.062   4.428   6.306
    1STR   H24169664   7.011   4.482   6.229
    1STR   C24269665   6.957   4.390   6.408
    1STR   H24369666   6.925   4.479   6.459
    1STR   H24469667   6.995   4.318   6.480
    1STR   H24569668   6.866   4.353   6.362
    1STR   C24669669   7.164   4.520   6.372
    1STR   H24769670   7.113   4.584   6.442
    1STR   H24869671   7.221   4.446   6.425
    1STR   O24969672   7.250   4.601   6.292
    1STR   C25069673   7.295   4.729   6.338
    1STR   H25169674   7.332   4.700   6.433
    1STR   C25269675   7.421   4.779   6.266
    1STR   H25369676   7.402   4.862   6.200
    1STR   H25469677   7.473   4.705   6.207
    1STR   H25569678   7.496   4.813   6.337
    1STR   C25669679   7.189   4.843   6.345
    1STR   H25769680   7.216   4.919   6.416
    1STR   H25869681   7.192   4.897   6.252
    1STR   O25969682   7.055   4.803   6.365
    1STR   C26069683   6.953   4.902   6.358
    1STR   H26169684   6.971   4.975   6.437
    1STR   C26269685   6.936   4.979   6.227
    1STR   H26369686   6.880   4.922   6.155
    1STR   H26469687   7.028   5.005   6.178
    1STR   H26569688   6.883   5.072   6.244
    1STR   C26669689   6.827   4.823   6.394
    1STR   H26769690   6.866   4.724   6.418
    1STR   H26869691   6.785   4.863   6.485
    1STR   O26969692   6.729   4.798   6.292
    1STR   C27069693   6.600   4.852   6.321
    1STR   H27169694   6.577   4.825   6.423
    1STR   C27269695   6.615   5.004   6.304
    1STR   H27369696   6.668   5.034   6.215
    1STR   H27469697   6.676   5.048   6.381
    1STR   H27569698   6.519   5.054   6.299
    1STR   C27669699   6.480   4.800   6.236
    1STR   H27769700   6.391   4.851   6.271
    1STR   H27869701   6.492   4.833   6.134
    1STR   O27969702   6.453   4.659   6.235
    1STR   C28069703   6.329   4.618   6.172
    1STR   H28169704   6.251   4.627   6.248
    1STR   C28269705   6.285   4.710   6.056
    1STR   H28369706   6.361   4.715   5.979
    1STR   H28469707   6.262   4.811   6.089
    1STR   H28569708   6.193   4.673   6.010
    1STR   C28669709   6.328   4.471   6.118
    1STR   H28769710   6.229   4.454   6.077
    1STR   H28869711   6.393   4.459   6.032
    1STR   O28969712   6.343   4.363   6.211
    1STR   C29069713   6.466   4.292   6.209
    1STR   H29169714   6.510   4.301   6.112
    1STR   C29269715   6.558   4.361   6.309
    1STR   H29369716   6.518   4.361   6.409
    1STR   H29469717   6.575   4.465   6.283
    1STR   H29569718   6.655   4.311   6.306
    1STR   C29669719   6.445   4.141   6.236
    1STR   H29769720   6.390   4.128   6.328
    1STR   H29869721   6.379   4.100   6.159
    1STR   O29969722   6.572   4.071   6.234
    1STR   C30069723   6.582   3.929   6.259
    1STR   H30169724   6.539   3.906   6.355
    1STR   C30269725   6.498   3.848   6.160
    1STR   H30369726   6.526   3.866   6.057
    1STR   H30469727   6.392   3.873   6.171
    1STR   H30569728   6.507   3.742   6.181
    1STR   C30669729   6.731   3.878   6.265
    1STR   H30769730   6.729   3.778   6.308
    1STR   H30869731   6.768   3.866   6.163
    1STR   O30969732   6.826   3.959   6.337
    1STR    H1R69733   6.943   3.839   6.460
    1STR    H1S69734   7.111   3.772   6.295
    1STR    H1T69735   7.011   3.834   6.166
    1STR    H1U69736   6.952   3.707   6.268
    1STR    H1V69737   7.021   4.045   6.516
    1STR    H1W69738   7.065   4.091   6.360
    1STR    H1X69739   7.389   3.877   6.492
    1STR    H1Y69740   7.623   3.854   6.565
    1STR    H1Z69741   7.854   3.905   6.497
    1STR    H2069742   7.965   4.209   6.333
    1STR    H2169743   8.016   4.053   6.396
    1STR    H2269744   7.957   4.068   6.230
    1STR    H2369745   7.718   4.232   6.136
    1STR    H2769746   7.480   4.184   6.334
    1STR    H2869747   7.481   4.158   5.038
    1STR    H2969748   7.313   4.071   4.903
    1STR    H2A69749   6.958   3.994   4.993
    1STR    H2B69750   7.090   3.972   4.874
    1STR    H2C69751   7.023   4.129   4.897
    1STR   BCK169752   7.215   4.935   7.294
    1STR    O0369753   7.106   4.903   7.250
    1STR    N0469754   7.244   5.042   7.365
    1STR    C0569755   7.162   5.145   7.405
    1STR    C0669756   7.023   5.141   7.391
    1STR    C0769757   6.944   5.253   7.419
    1STR    N0869758   6.808   5.234   7.409
    1STR    C0969759   6.714   5.284   7.488
    1STR    O0A69760   6.728   5.375   7.568
    1STR    O0B69761   6.606   5.209   7.477
    1STR    C0C69762   6.530   5.184   7.595
    1STR    C0D69763   6.422   5.290   7.622
    1STR    C0E69764   6.473   5.044   7.583
    1STR    O0F69765   6.552   4.930   7.620
    1STR    C0G69766   6.651   4.879   7.532
    1STR    C0H69767   6.775   4.957   7.569
    1STR    C0I69768   6.692   4.729   7.549
    1STR    O0J69769   6.609   4.626   7.496
    1STR    C0K69770   7.916   5.437   8.662
    1STR    C0M69771   7.856   5.567   8.605
    1STR    C0N69772   7.937   5.447   8.815
    1STR    O0O69773   7.823   5.503   8.878
    1STR    C0P69774   7.715   5.429   8.899
    1STR    O0Q69775   7.708   5.307   8.892
    1STR    N0R69776   7.615   5.510   8.927
    1STR    C0S69777   7.482   5.478   8.907
    1STR    C0T69778   7.415   5.554   8.811
    1STR    C0U69779   7.283   5.522   8.776
    1STR    C0V69780   7.218   5.417   8.842
    1STR    C0W69781   7.079   5.383   8.797
    1STR    C0X69782   7.282   5.342   8.943
    1STR    N0Y69783   7.205   5.253   9.016
    1STR   BCK269784   7.209   5.121   9.026
    1STR    O1069785   7.106   5.059   9.046
    1STR    C1369786   7.418   5.368   8.971
    1STR    C1469787   7.006   5.371   7.461
    1STR    C1569788   7.141   5.367   7.499
    1STR    C1669789   7.219   5.254   7.471
    1STR    C1769790   7.357   5.239   7.527
    1STR    H1B69791   7.340   5.047   7.396
    1STR    H1C69792   6.975   5.051   7.359
    1STR    H1D69793   6.781   5.152   7.359
    1STR    H1E69794   6.595   5.182   7.680
    1STR    H1F69795   6.467   5.387   7.640
    1STR    H1G69796   6.350   5.298   7.541
    1STR    H1H69797   6.366   5.266   7.712
    1STR    H1I69798   6.432   5.036   7.483
    1STR    H1J69799   6.389   5.040   7.652
    1STR    H1K69800   6.622   4.898   7.430
    1STR    H1M69801   6.797   4.934   7.672
    1STR    H1N69802   6.762   5.062   7.575
    1STR    H1O69803   6.861   4.935   7.507
    1STR    H1P69804   6.785   4.719   7.496
    1STR    H1Q69805   6.722   4.708   7.649
    1STR   C01069806   6.641   4.491   7.535
    1STR   H01169807   6.620   4.482   7.640
    1STR   C01269808   6.541   4.394   7.480
    1STR   H01369809   6.536   4.400   7.371
    1STR   H01469810   6.446   4.414   7.528
    1STR   H01569811   6.562   4.291   7.502
    1STR   C01669812   6.781   4.440   7.497
    1STR   H01769813   6.777   4.337   7.464
    1STR   H01869814   6.810   4.493   7.408
    1STR   O01969815   6.876   4.449   7.605
    1STR   C02069816   7.011   4.449   7.562
    1STR   H02169817   7.021   4.360   7.507
    1STR   C02269818   7.025   4.584   7.495
    1STR   H02369819   6.968   4.656   7.547
    1STR   H02469820   6.995   4.585   7.392
    1STR   H02569821   7.124   4.621   7.497
    1STR   C02669822   7.129   4.421   7.654
    1STR   H02769823   7.146   4.512   7.706
    1STR   H02869824   7.111   4.336   7.717
    1STR   O02969825   7.246   4.382   7.587
    1STR   C03069826   7.358   4.347   7.669
    1STR   H03169827   7.324   4.291   7.756
    1STR   C03269828   7.450   4.253   7.592
    1STR   H03369829   7.500   4.307   7.512
    1STR   H03469830   7.397   4.170   7.547
    1STR   H03569831   7.529   4.215   7.656
    1STR   C03669832   7.435   4.471   7.712
    1STR   H03769833   7.376   4.516   7.788
    1STR   H03869834   7.531   4.445   7.757
    1STR   O03969835   7.456   4.564   7.607
    1STR   C04069836   7.443   4.702   7.642
    1STR   H04169837   7.481   4.709   7.742
    1STR   C04269838   7.544   4.771   7.557
    1STR   H04369839   7.534   4.745   7.452
    1STR   H04469840   7.644   4.741   7.589
    1STR   H04569841   7.528   4.877   7.570
    1STR   C04669842   7.299   4.762   7.620
    1STR   H04769843   7.274   4.765   7.516
    1STR   H04869844   7.235   4.689   7.664
    1STR   O04969845   7.264   4.894   7.665
    1STR   C05069846   7.126   4.934   7.651
    1STR   H05169847   7.099   4.932   7.546
    1STR   C05269848   7.030   4.841   7.726
    1STR   H05369849   7.072   4.749   7.761
    1STR   H05469850   6.951   4.809   7.663
    1STR   H05569851   6.978   4.888   7.808
    1STR   C05669852   7.103   5.076   7.711
    1STR   H05769853   7.122   5.059   7.814
    1STR   H05869854   7.180   5.147   7.687
    1STR   O05969855   6.974   5.137   7.689
    1STR   C06069856   6.936   5.237   7.786
    1STR   H06169857   7.001   5.217   7.866
    1STR   C06269858   6.977   5.384   7.767
    1STR   H06369859   6.923   5.434   7.688
    1STR   H06469860   7.084   5.393   7.751
    1STR   H06569861   6.952   5.442   7.855
    1STR   C06669862   6.791   5.223   7.840
    1STR   H06769863   6.789   5.253   7.943
    1STR   H06869864   6.726   5.296   7.792
    1STR   O06969865   6.736   5.091   7.830
    1STR   C07069866   6.651   5.047   7.936
    1STR   H07169867   6.714   5.035   8.023
    1STR   C07269868   6.539   5.147   7.970
    1STR   H07369869   6.473   5.161   7.885
    1STR   H07469870   6.577   5.245   8.000
    1STR   H07569871   6.479   5.110   8.052
    1STR   C07669872   6.590   4.908   7.908
    1STR   H07769873   6.553   4.872   8.004
    1STR   H07869874   6.501   4.917   7.846
    1STR   O07969875   6.678   4.813   7.847
    1STR   C08069876   6.654   4.677   7.883
    1STR   H08169877   6.642   4.684   7.988
    1STR   C08269878   6.516   4.631   7.833
    1STR   H08369879   6.504   4.651   7.727
    1STR   H08469880   6.436   4.685   7.883
    1STR   H08569881   6.501   4.525   7.851
    1STR   C08669882   6.767   4.569   7.865
    1STR   H08769883   6.744   4.492   7.938
    1STR   H08869884   6.751   4.519   7.774
    1STR   O08969885   6.909   4.593   7.858
    1STR   C09069886   6.993   4.493   7.922
    1STR   H09169887   6.949   4.494   8.019
    1STR   C09269888   6.955   4.346   7.897
    1STR   H09369889   6.926   4.325   7.795
    1STR   H09469890   6.867   4.320   7.954
    1STR   H09569891   7.034   4.277   7.926
    1STR   C09669892   7.152   4.518   7.937
    1STR   H09769893   7.183   4.524   8.037
    1STR   H09869894   7.207   4.430   7.906
    1STR   O09969895   7.219   4.637   7.891
    1STR   C10069896   7.318   4.700   7.976
    1STR   H10169897   7.272   4.719   8.070
    1STR   C10269898   7.444   4.617   8.008
    1STR   H10369899   7.516   4.616   7.927
    1STR   H10469900   7.419   4.514   8.034
    1STR   H10569901   7.497   4.658   8.093
    1STR   C10669902   7.343   4.844   7.931
    1STR   H10769903   7.396   4.852   7.839
    1STR   H10869904   7.249   4.895   7.916
    1STR   O10969905   7.428   4.916   8.016
    1STR   C11069906   7.436   5.055   7.989
    1STR   H11169907   7.528   5.085   8.038
    1STR   C11269908   7.455   5.099   7.845
    1STR   H11369909   7.367   5.076   7.787
    1STR   H11469910   7.540   5.049   7.799
    1STR   H11569911   7.472   5.207   7.838
    1STR   C11669912   7.324   5.125   8.064
    1STR   H11769913   7.307   5.062   8.150
    1STR   H11869914   7.367   5.218   8.096
    1STR   O11969915   7.201   5.154   8.001
    1STR   C12069916   7.085   5.153   8.087
    1STR   H12169917   7.112   5.138   8.190
    1STR   C12269918   7.029   5.296   8.091
    1STR   H12369919   7.074   5.359   8.014
    1STR   H12469920   7.053   5.346   8.183
    1STR   H12569921   6.922   5.302   8.084
    1STR   C12669922   6.998   5.033   8.034
    1STR   H12769923   6.935   5.050   7.949
    1STR   H12869924   7.072   4.967   7.994
    1STR   O12969925   6.917   4.957   8.123
    1STR   C13069926   6.882   4.822   8.086
    1STR   H13169927   6.840   4.829   7.989
    1STR   C13269928   7.008   4.752   8.066
    1STR   H13369929   6.998   4.657   8.109
    1STR   H13469930   7.092   4.792   8.114
    1STR   H13569931   7.034   4.749   7.963
    1STR   C13669932   6.787   4.736   8.180
    1STR   H13769933   6.822   4.736   8.282
    1STR   H13869934   6.693   4.787   8.175
    1STR   O13969935   6.765   4.595   8.147
    1STR   C14069936   6.662   4.521   8.217
    1STR   H14169937   6.692   4.516   8.321
    1STR   C14269938   6.525   4.590   8.208
    1STR   H14369939   6.446   4.526   8.244
    1STR   H14469940   6.494   4.612   8.107
    1STR   H14569941   6.521   4.683   8.265
    1STR   C14669942   6.640   4.374   8.167
    1STR   H14769943   6.570   4.326   8.235
    1STR   H14869944   6.593   4.375   8.069
    1STR   O14969945   6.755   4.292   8.158
    1STR   C15069946   6.741   4.148   8.155
    1STR   H15169947   6.749   4.112   8.255
    1STR   C15269948   6.606   4.090   8.109
    1STR   H15369949   6.565   4.132   8.018
    1STR   H15469950   6.530   4.103   8.186
    1STR   H15569951   6.616   3.982   8.093
    1STR   C15669952   6.863   4.092   8.080
    1STR   H15769953   6.847   4.103   7.974
    1STR   H15869954   6.952   4.151   8.102
    1STR   O15969955   6.886   3.954   8.104
    1STR   C16069956   6.998   3.923   8.186
    1STR   H16169957   6.992   3.979   8.278
    1STR   C16269958   6.977   3.778   8.229
    1STR   H16369959   6.980   3.710   8.144
    1STR   H16469960   6.879   3.767   8.277
    1STR   H16569961   7.052   3.747   8.302
    1STR   C16669962   7.135   3.945   8.113
    1STR   H16769963   7.208   3.873   8.150
    1STR   H16869964   7.123   3.919   8.007
    1STR   O16969965   7.194   4.077   8.118
    1STR   C17069966   7.221   4.129   8.249
    1STR   H17169967   7.121   4.139   8.286
    1STR   C17269968   7.303   4.032   8.336
    1STR   H17369969   7.396   4.003   8.285
    1STR   H17469970   7.248   3.942   8.361
    1STR   H17569971   7.332   4.078   8.430
    1STR   C17669972   7.284   4.271   8.254
    1STR   H17769973   7.309   4.301   8.355
    1STR   H17869974   7.378   4.267   8.200
    1STR   O17969975   7.205   4.372   8.193
    1STR   C18069976   7.114   4.461   8.261
    1STR   H18169977   7.060   4.487   8.176
    1STR   C18269978   6.988   4.407   8.314
    1STR   H18369979   6.998   4.394   8.418
    1STR   H18469980   6.963   4.316   8.261
    1STR   H18569981   6.907   4.478   8.303
    1STR   C18669982   7.157   4.602   8.309
    1STR   H18769983   7.215   4.593   8.395
    1STR   H18869984   7.228   4.639   8.239
    1STR   O18969985   7.051   4.699   8.334
    1STR   C19069986   7.086   4.833   8.383
    1STR   H19169987   7.142   4.822   8.472
    1STR   C19269988   7.186   4.904   8.299
    1STR   H19369989   7.138   4.947   8.216
    1STR   H19469990   7.267   4.844   8.264
    1STR   H19569991   7.223   4.986   8.357
    1STR   C19669992   6.979   4.937   8.429
    1STR   H19769993   6.947   4.914   8.528
    1STR   H19869994   7.022   5.036   8.433
    1STR   O19969995   6.863   4.949   8.353
    1STR   C20069996   6.776   5.058   8.375
    1STR   H20169997   6.782   5.087   8.479
    1STR   C20269998   6.804   5.177   8.285
    1STR   H20369999   6.796   5.150   8.181
    1STR   H20470000   6.904   5.213   8.300
    1STR   H20570001   6.732   5.257   8.299
    1STR   C20670002   6.638   5.004   8.341
    1STR   H20770003   6.559   5.063   8.386
    1STR   H20870004   6.622   5.007   8.233
    1STR   O20970005   6.634   4.868   8.376
    1STR   C21070006   6.640   4.842   8.513
    1STR   H21170007   6.678   4.926   8.572
    1STR   C21270008   6.487   4.829   8.530
    1STR   H21370009   6.451   4.740   8.479
    1STR   H21470010   6.433   4.913   8.487
    1STR   H21570011   6.453   4.826   8.632
    1STR   C21670012   6.727   4.717   8.546
    1STR   H21770013   6.725   4.717   8.653
    1STR   H21870014   6.675   4.632   8.507
    1STR   O21970015   6.870   4.699   8.520
    1STR   C22070016   6.941   4.609   8.610
    1STR   H22170017   6.938   4.662   8.703
    1STR   C22270018   6.862   4.478   8.611
    1STR   H22370019   6.832   4.440   8.514
    1STR   H22470020   6.766   4.500   8.654
    1STR   H22570021   6.909   4.400   8.670
    1STR   C22670022   7.094   4.576   8.616
    1STR   H22770023   7.111   4.519   8.707
    1STR   H22870024   7.114   4.501   8.541
    1STR   O22970025   7.191   4.682   8.618
    1STR   C23070026   7.333   4.660   8.594
    1STR   H23170027   7.379   4.692   8.687
    1STR   C23270028   7.370   4.512   8.574
    1STR   H23370029   7.311   4.455   8.503
    1STR   H23470030   7.363   4.457   8.667
    1STR   H23570031   7.471   4.502   8.534
    1STR   C23670032   7.407   4.747   8.486
    1STR   H23770033   7.513   4.725   8.495
    1STR   H23870034   7.384   4.707   8.389
    1STR   O23970035   7.395   4.891   8.480
    1STR   C24070036   7.489   4.962   8.392
    1STR   H24170037   7.577   4.963   8.455
    1STR   C24270038   7.542   4.873   8.280
    1STR   H24370039   7.464   4.823   8.225
    1STR   H24470040   7.614   4.799   8.313
    1STR   H24570041   7.591   4.937   8.211
    1STR   C24670042   7.469   5.116   8.344
    1STR   H24770043   7.529   5.181   8.406
    1STR   H24870044   7.516   5.134   8.249
    1STR   O24970045   7.336   5.175   8.343
    1STR   C25070046   7.312   5.317   8.357
    1STR   H25170047   7.381   5.361   8.427
    1STR   C25270048   7.335   5.408   8.236
    1STR   H25370049   7.265   5.390   8.155
    1STR   H25470050   7.436   5.400   8.198
    1STR   H25570051   7.319   5.512   8.264
    1STR   C25670052   7.170   5.329   8.415
    1STR   H25770053   7.110   5.247   8.378
    1STR   H25870054   7.177   5.312   8.522
    1STR   O25970055   7.102   5.453   8.390
    1STR   C26070056   7.002   5.491   8.485
    1STR   H26170057   7.054   5.512   8.578
    1STR   C26270058   6.940   5.622   8.438
    1STR   H26370059   6.891   5.609   8.342
    1STR   H26470060   7.016   5.699   8.428
    1STR   H26570061   6.865   5.657   8.510
    1STR   C26670062   6.891   5.386   8.511
    1STR   H26770063   6.812   5.398   8.438
    1STR   H26870064   6.931   5.286   8.500
    1STR   O26970065   6.837   5.399   8.642
    1STR   C27070066   6.757   5.291   8.691
    1STR   H27170067   6.722   5.330   8.787
    1STR   C27270068   6.628   5.272   8.609
    1STR   H27370069   6.646   5.257   8.504
    1STR   H27470070   6.564   5.360   8.618
    1STR   H27570071   6.570   5.187   8.644
    1STR   C27670072   6.831   5.160   8.731
    1STR   H27770073   6.853   5.164   8.837
    1STR   H27870074   6.763   5.075   8.723
    1STR   O27970075   6.950   5.129   8.659
    1STR   C28070076   7.047   5.055   8.732
    1STR   H28170077   7.067   5.111   8.821
    1STR   C28270078   6.991   4.918   8.776
    1STR   H28370079   6.895   4.893   8.731
    1STR   H28470080   6.977   4.912   8.883
    1STR   H28570081   7.059   4.838   8.748
    1STR   C28670082   7.183   5.054   8.656
    1STR   H28770083   7.210   4.953   8.628
    1STR   H28870084   7.170   5.106   8.563
    1STR   O28970085   7.292   5.116   8.728
    1STR   C29070086   7.412   5.140   8.654
    1STR   H29170087   7.383   5.109   8.557
    1STR   C29270088   7.440   5.287   8.649
    1STR   H29370089   7.488   5.310   8.741
    1STR   H29470090   7.349   5.342   8.634
    1STR   H29570091   7.513   5.320   8.575
    1STR   C29670092   7.547   5.075   8.690
    1STR   H29770093   7.570   5.103   8.793
    1STR   H29870094   7.540   4.967   8.683
    1STR   O29970095   7.641   5.133   8.595
    1STR   C30070096   7.778   5.100   8.577
    1STR   H30170097   7.799   4.997   8.607
    1STR   C30270098   7.809   5.112   8.427
    1STR   H30370099   7.778   5.210   8.390
    1STR   H30470100   7.758   5.037   8.367
    1STR   H30570101   7.915   5.101   8.407
    1STR   C30670102   7.869   5.201   8.650
    1STR   H30770103   7.865   5.187   8.757
    1STR   H30870104   7.972   5.185   8.622
    1STR   O30970105   7.827   5.334   8.621
    1STR    H1R70106   8.012   5.419   8.615
    1STR    H1S70107   7.916   5.654   8.631
    1STR    H1T70108   7.755   5.582   8.643
    1STR    H1U70109   7.849   5.561   8.496
    1STR    H1V70110   8.020   5.514   8.837
    1STR    H1W70111   7.962   5.352   8.862
    1STR    H1X70112   7.641   5.607   8.928
    1STR    H1Y70113   7.464   5.635   8.759
    1STR    H1Z70114   7.233   5.578   8.698
    1STR    H2070115   7.031   5.310   8.859
    1STR    H2170116   7.016   5.471   8.793
    1STR    H2270117   7.084   5.335   8.701
    1STR    H2370118   7.115   5.284   9.053
    1STR    H2770119   7.471   5.307   9.043
    1STR    H2870120   6.946   5.459   7.477
    1STR    H2970121   7.186   5.450   7.551
    1STR    H2A70122   7.362   5.150   7.588
    1STR    H2B70123   7.388   5.323   7.589
    1STR    H2C70124   7.424   5.221   7.445
    1STR   BCK170125   7.233   7.189   0.357
    1STR    O0370126   7.289   7.085   0.385
    1STR    N0470127   7.107   7.206   0.319
    1STR    C0570128   6.993   7.128   0.304
    1STR    C0670129   6.982   6.990   0.295
    1STR    C0770130   6.856   6.927   0.293
    1STR    N0870131   6.848   6.791   0.285
    1STR    C0970132   6.787   6.725   0.380
    1STR    O0A70133   6.674   6.751   0.415
    1STR    O0B70134   6.863   6.636   0.438
    1STR    C0C70135   6.850   6.624   0.577
    1STR    C0D70136   6.859   6.482   0.630
    1STR    C0E70137   6.956   6.714   0.637
    1STR    O0F70138   7.005   6.816   0.548
    1STR    C0G70139   7.105   6.917   0.576
    1STR    C0H70140   7.042   7.051   0.578
    1STR    C0I70141   7.220   6.909   0.676
    1STR    O0J70142   7.292   7.034   0.669
    1STR    C0K70143   6.467   7.644   1.510
    1STR    C0M70144   6.435   7.552   1.393
    1STR    C0N70145   6.394   7.603   1.642
    1STR    O0O70146   6.363   7.464   1.666
    1STR    C0P70147   6.431   7.397   1.760
    1STR    O0Q70148   6.526   7.443   1.817
    1STR    N0R70149   6.393   7.272   1.783
    1STR    C0S70150   6.461   7.165   1.844
    1STR    C0T70151   6.401   7.038   1.832
    1STR    C0U70152   6.479   6.922   1.824
    1STR    C0V70153   6.618   6.934   1.835
    1STR    C0W70154   6.705   6.826   1.780
    1STR    C0X70155   6.678   7.052   1.877
    1STR    N0Y70156   6.816   7.058   1.882
    1STR   BCK270157   6.902   7.090   1.978
    1STR    O1070158   6.872   7.102   2.096
    1STR    C1370159   6.598   7.168   1.877
    1STR    C1470160   6.739   7.003   0.294
    1STR    C1570161   6.748   7.140   0.299
    1STR    C1670162   6.873   7.199   0.306
    1STR    C1770163   6.878   7.343   0.298
    1STR    H1B70164   7.085   7.303   0.317
    1STR    H1C70165   7.069   6.931   0.299
    1STR    H1D70166   6.922   6.750   0.229
    1STR    H1E70167   6.753   6.661   0.609
    1STR    H1F70168   6.962   6.448   0.638
    1STR    H1G70169   6.818   6.482   0.728
    1STR    H1H70170   6.802   6.409   0.573
    1STR    H1I70171   7.041   6.655   0.669
    1STR    H1J70172   6.899   6.747   0.721
    1STR    H1K70173   7.158   6.928   0.484
    1STR    H1M70174   6.945   7.060   0.531
    1STR    H1N70175   7.107   7.132   0.551
    1STR    H1O70176   7.029   7.075   0.675
    1STR    H1P70177   7.199   6.888   0.779
    1STR    H1Q70178   7.275   6.822   0.645
    1STR   C01070179   7.309   7.113   0.787
    1STR   H01170180   7.236   7.091   0.864
    1STR   C01270181   7.443   7.074   0.844
    1STR   H01370182   7.523   7.080   0.773
    1STR   H01470183   7.439   6.974   0.886
    1STR   H01570184   7.468   7.146   0.920
    1STR   C01670185   7.308   7.268   0.771
    1STR   H01770186   7.299   7.314   0.869
    1STR   H01870187   7.405   7.299   0.736
    1STR   O01970188   7.211   7.321   0.682
    1STR   C02070189   7.171   7.458   0.688
    1STR   H02170190   7.124   7.481   0.782
    1STR   C02270191   7.293   7.552   0.682
    1STR   H02370192   7.339   7.553   0.583
    1STR   H02470193   7.370   7.523   0.753
    1STR   H02570194   7.264   7.653   0.709
    1STR   C02670195   7.071   7.469   0.568
    1STR   H02770196   7.124   7.515   0.485
    1STR   H02870197   7.056   7.369   0.530
    1STR   O02970198   6.946   7.540   0.573
    1STR   C03070199   6.825   7.489   0.635
    1STR   H03170200   6.854   7.482   0.736
    1STR   C03270201   6.736   7.612   0.656
    1STR   H03370202   6.665   7.625   0.575
    1STR   H03470203   6.798   7.701   0.666
    1STR   H03570204   6.680   7.605   0.748
    1STR   C03670205   6.734   7.368   0.580
    1STR   H03770206   6.646   7.366   0.642
    1STR   H03870207   6.690   7.391   0.484
    1STR   O03970208   6.774   7.228   0.571
    1STR   C04070209   6.679   7.123   0.610
    1STR   H04170210   6.648   7.135   0.711
    1STR   C04270211   6.557   7.135   0.530
    1STR   H04370212   6.554   7.059   0.454
    1STR   H04470213   6.546   7.231   0.482
    1STR   H04570214   6.476   7.115   0.597
    1STR   C04670215   6.720   6.973   0.612
    1STR   H04770216   6.743   6.945   0.514
    1STR   H04870217   6.815   6.951   0.651
    1STR   O04970218   6.627   6.875   0.659
    1STR   C05070219   6.615   6.855   0.799
    1STR   H05170220   6.704   6.883   0.852
    1STR   C05270221   6.500   6.949   0.838
    1STR   H05370222   6.542   7.037   0.883
    1STR   H05470223   6.425   6.906   0.904
    1STR   H05570224   6.448   6.991   0.754
    1STR   C05670225   6.595   6.706   0.834
    1STR   H05770226   6.505   6.692   0.894
    1STR   H05870227   6.587   6.650   0.742
    1STR   O05970228   6.707   6.646   0.899
    1STR   C06070229   6.686   6.518   0.962
    1STR   H06170230   6.633   6.538   1.055
    1STR   C06270231   6.595   6.422   0.883
    1STR   H06370232   6.634   6.402   0.783
    1STR   H06470233   6.494   6.460   0.871
    1STR   H06570234   6.587   6.326   0.933
    1STR   C06670235   6.823   6.454   0.998
    1STR   H06770236   6.842   6.467   1.105
    1STR   H06870237   6.819   6.346   0.986
    1STR   O06970238   6.930   6.506   0.920
    1STR   C07070239   7.055   6.520   0.985
    1STR   H07170240   7.034   6.561   1.081
    1STR   C07270241   7.130   6.388   1.006
    1STR   H07370242   7.157   6.336   0.917
    1STR   H07470243   7.071   6.322   1.069
    1STR   H07570244   7.228   6.398   1.051
    1STR   C07670245   7.140   6.629   0.920
    1STR   H07770246   7.220   6.662   0.987
    1STR   H07870247   7.191   6.588   0.834
    1STR   O07970248   7.066   6.742   0.872
    1STR   C08070249   6.981   6.830   0.945
    1STR   H08170250   6.885   6.784   0.963
    1STR   C08270251   7.062   6.855   1.067
    1STR   H08370252   7.164   6.882   1.041
    1STR   H08470253   7.064   6.771   1.133
    1STR   H08570254   7.014   6.934   1.118
    1STR   C08670255   6.963   6.963   0.865
    1STR   H08770256   7.057   7.011   0.859
    1STR   H08870257   6.965   6.919   0.771
    1STR   O08970258   6.846   7.050   0.840
    1STR   C09070259   6.839   7.198   0.837
    1STR   H09170260   6.879   7.209   0.927
    1STR   C09270261   6.958   7.264   0.779
    1STR   H09370262   6.960   7.269   0.673
    1STR   H09470263   7.049   7.215   0.809
    1STR   H09570264   6.969   7.361   0.819
    1STR   C09670265   6.723   7.296   0.892
    1STR   H09770266   6.721   7.295   1.000
    1STR   H09870267   6.749   7.400   0.879
    1STR   O09970268   6.587   7.280   0.855
    1STR   C10070269   6.498   7.393   0.857
    1STR   H10170270   6.527   7.460   0.777
    1STR   C10270271   6.364   7.335   0.814
    1STR   H10370272   6.381   7.239   0.766
    1STR   H10470273   6.311   7.401   0.747
    1STR   H10570274   6.297   7.317   0.896
    1STR   C10670275   6.490   7.480   0.983
    1STR   H10770276   6.575   7.547   0.982
    1STR   H10870277   6.402   7.544   0.981
    1STR   O10970278   6.499   7.413   1.108
    1STR   C11070279   6.394   7.330   1.154
    1STR   H11170280   6.423   7.326   1.258
    1STR   C11270281   6.252   7.391   1.156
    1STR   H11370282   6.207   7.401   1.058
    1STR   H11470283   6.253   7.491   1.199
    1STR   H11570284   6.185   7.330   1.216
    1STR   C11670285   6.404   7.183   1.109
    1STR   H11770286   6.365   7.118   1.187
    1STR   H11870287   6.344   7.161   1.022
    1STR   O11970288   6.538   7.157   1.073
    1STR   C12070289   6.615   7.063   1.145
    1STR   H12170290   6.597   7.099   1.244
    1STR   C12270291   6.547   6.926   1.142
    1STR   H12370292   6.439   6.926   1.144
    1STR   H12470293   6.580   6.869   1.228
    1STR   H12570294   6.577   6.869   1.055
    1STR   C12670295   6.768   7.059   1.094
    1STR   H12770296   6.806   6.959   1.091
    1STR   H12870297   6.724   7.071   1.000
    1STR   O12970298   6.882   7.156   1.127
    1STR   C13070299   7.027   7.182   1.088
    1STR   H13170300   7.051   7.128   1.003
    1STR   C13270301   7.044   7.327   1.044
    1STR   H13370302   7.109   7.380   1.104
    1STR   H13470303   6.953   7.384   1.032
    1STR   H13570304   7.111   7.335   0.960
    1STR   C13670305   7.158   7.150   1.165
    1STR   H13770306   7.160   7.185   1.268
    1STR   H13870307   7.170   7.046   1.166
    1STR   O13970308   7.280   7.188   1.098
    1STR   C14070309   7.401   7.175   1.175
    1STR   H14170310   7.376   7.192   1.280
    1STR   C14270311   7.469   7.038   1.159
    1STR   H14370312   7.534   7.027   1.074
    1STR   H14470313   7.398   6.955   1.153
    1STR   H14570314   7.539   7.025   1.241
    1STR   C14670315   7.504   7.283   1.138
    1STR   H14770316   7.561   7.314   1.225
    1STR   H14870317   7.580   7.245   1.070
    1STR   O14970318   7.439   7.388   1.070
    1STR   C15070319   7.423   7.507   1.144
    1STR   H15170320   7.522   7.545   1.168
    1STR   C15270321   7.359   7.602   1.043
    1STR   H15370322   7.267   7.559   1.004
    1STR   H15470323   7.426   7.617   0.959
    1STR   H15570324   7.338   7.700   1.087
    1STR   C15670325   7.345   7.491   1.277
    1STR   H15770326   7.406   7.425   1.338
    1STR   H15870327   7.339   7.585   1.331
    1STR   O15970328   7.222   7.420   1.275
    1STR   C16070329   7.102   7.493   1.305
    1STR   H16170330   7.120   7.535   1.400
    1STR   C16270331   7.082   7.614   1.212
    1STR   H16370332   7.074   7.587   1.107
    1STR   H16470333   7.161   7.687   1.223
    1STR   H16570334   6.989   7.663   1.237
    1STR   C16670335   6.969   7.412   1.325
    1STR   H16770336   6.920   7.455   1.412
    1STR   H16870337   6.907   7.439   1.240
    1STR   O16970338   6.966   7.268   1.336
    1STR   C17070339   6.839   7.200   1.359
    1STR   H17170340   6.847   7.205   1.459
    1STR   C17270341   6.721   7.293   1.312
    1STR   H17370342   6.714   7.302   1.205
    1STR   H17470343   6.726   7.395   1.347
    1STR   H17570344   6.626   7.261   1.349
    1STR   C17670345   6.817   7.035   1.364
    1STR   H17770346   6.818   7.005   1.465
    1STR   H17870347   6.716   7.004   1.354
    1STR   O17970348   6.897   6.932   1.302
    1STR   C18070349   6.858   6.793   1.321
    1STR   H18170350   6.786   6.795   1.400
    1STR   C18270351   6.794   6.717   1.204
    1STR   H18370352   6.869   6.677   1.140
    1STR   H18470353   6.735   6.773   1.136
    1STR   H18570354   6.736   6.632   1.240
    1STR   C18670355   6.966   6.699   1.375
    1STR   H18770356   7.033   6.753   1.439
    1STR   H18870357   6.918   6.626   1.434
    1STR   O18970358   7.023   6.600   1.292
    1STR   C19070359   7.129   6.528   1.351
    1STR   H19170360   7.137   6.550   1.457
    1STR   C19270361   7.110   6.376   1.340
    1STR   H19370362   7.171   6.333   1.261
    1STR   H19470363   7.006   6.350   1.321
    1STR   H19570364   7.141   6.327   1.432
    1STR   C19670365   7.254   6.578   1.278
    1STR   H19770366   7.342   6.535   1.326
    1STR   H19870367   7.258   6.542   1.177
    1STR   O19970368   7.252   6.719   1.259
    1STR   C20070369   7.279   6.792   1.375
    1STR   H20170370   7.232   6.741   1.456
    1STR   C20270371   7.432   6.778   1.382
    1STR   H20370372   7.486   6.844   1.318
    1STR   H20470373   7.474   6.681   1.357
    1STR   H20570374   7.463   6.793   1.483
    1STR   C20670375   7.210   6.932   1.377
    1STR   H20770376   7.277   6.992   1.320
    1STR   H20870377   7.118   6.923   1.323
    1STR   O20970378   7.191   7.015   1.495
    1STR   C21070379   7.065   7.067   1.539
    1STR   H21170380   7.027   7.079   1.442
    1STR   C21270381   6.981   6.973   1.628
    1STR   H21370382   6.952   6.883   1.577
    1STR   H21470383   6.889   7.025   1.651
    1STR   H21570384   7.023   6.943   1.722
    1STR   C21670385   7.069   7.209   1.603
    1STR   H21770386   7.117   7.211   1.699
    1STR   H21870387   7.133   7.261   1.533
    1STR   O21970388   6.963   7.306   1.600
    1STR   C22070389   6.843   7.304   1.678
    1STR   H22170390   6.862   7.253   1.769
    1STR   C22270391   6.838   7.451   1.711
    1STR   H22370392   6.750   7.476   1.769
    1STR   H22470393   6.831   7.513   1.622
    1STR   H22570394   6.925   7.480   1.769
    1STR   C22670395   6.701   7.269   1.615
    1STR   H22770396   6.627   7.292   1.682
    1STR   H22870397   6.678   7.346   1.543
    1STR   O22970398   6.670   7.134   1.569
    1STR   C23070399   6.535   7.094   1.536
    1STR   H23170400   6.510   7.078   1.635
    1STR   C23270401   6.431   7.196   1.489
    1STR   H23370402   6.465   7.298   1.497
    1STR   H23470403   6.340   7.191   1.548
    1STR   H23570404   6.400   7.174   1.389
    1STR   C23670405   6.502   6.954   1.482
    1STR   H23770406   6.411   6.923   1.532
    1STR   H23870407   6.471   6.961   1.378
    1STR   O23970408   6.599   6.851   1.497
    1STR   C24070409   6.553   6.717   1.514
    1STR   H24170410   6.492   6.721   1.604
    1STR   C24270411   6.467   6.673   1.394
    1STR   H24370412   6.523   6.675   1.302
    1STR   H24470413   6.378   6.735   1.381
    1STR   H24570414   6.433   6.570   1.405
    1STR   C24670415   6.664   6.610   1.543
    1STR   H24770416   6.619   6.536   1.610
    1STR   H24870417   6.688   6.557   1.451
    1STR   O24970418   6.789   6.656   1.598
    1STR   C25070419   6.874   6.562   1.667
    1STR   H25170420   6.825   6.555   1.764
    1STR   C25270421   6.868   6.420   1.607
    1STR   H25370422   6.903   6.418   1.504
    1STR   H25470423   6.768   6.377   1.606
    1STR   H25570424   6.930   6.351   1.664
    1STR   C25670425   7.025   6.601   1.699
    1STR   H25770426   7.021   6.609   1.806
    1STR   H25870427   7.085   6.514   1.675
    1STR   O25970428   7.104   6.716   1.656
    1STR   C26070429   7.238   6.738   1.716
    1STR   H26170430   7.224   6.733   1.823
    1STR   C26270431   7.339   6.630   1.664
    1STR   H26370432   7.337   6.611   1.558
    1STR   H26470433   7.327   6.531   1.703
    1STR   H26570434   7.440   6.661   1.685
    1STR   C26670435   7.294   6.885   1.692
    1STR   H26770436   7.317   6.879   1.591
    1STR   H26870437   7.221   6.960   1.717
    1STR   O26970438   7.418   6.949   1.725
    1STR   C27070439   7.464   7.066   1.644
    1STR   H27170440   7.553   7.101   1.694
    1STR   C27270441   7.522   7.040   1.507
    1STR   H27370442   7.443   7.027   1.436
    1STR   H27470443   7.589   6.957   1.503
    1STR   H27570444   7.579   7.126   1.474
    1STR   C27670445   7.386   7.198   1.627
    1STR   H27770446   7.322   7.190   1.541
    1STR   H27870447   7.324   7.218   1.714
    1STR   O27970448   7.473   7.307   1.591
    1STR   C28070449   7.434   7.442   1.618
    1STR   H28170450   7.452   7.454   1.723
    1STR   C28270451   7.539   7.534   1.553
    1STR   H28370452   7.551   7.522   1.446
    1STR   H28470453   7.637   7.514   1.595
    1STR   H28570454   7.516   7.639   1.572
    1STR   C28670455   7.285   7.477   1.587
    1STR   H28770456   7.259   7.422   1.500
    1STR   H28870457   7.221   7.429   1.660
    1STR   O28970458   7.245   7.617   1.578
    1STR   C29070459   7.106   7.646   1.607
    1STR   H29170460   7.050   7.553   1.596
    1STR   C29270461   7.082   7.695   1.749
    1STR   H29370462   7.141   7.782   1.775
    1STR   H29470463   7.094   7.618   1.823
    1STR   H29570464   6.978   7.721   1.758
    1STR   C29670465   7.039   7.749   1.513
    1STR   H29770466   7.029   7.846   1.563
    1STR   H29870467   7.102   7.768   1.426
    1STR   O29970468   6.911   7.698   1.473
    1STR   C30070469   6.808   7.792   1.440
    1STR   H30170470   6.792   7.858   1.525
    1STR   C30270471   6.849   7.882   1.322
    1STR   H30370472   6.856   7.827   1.228
    1STR   H30470473   6.945   7.931   1.339
    1STR   H30570474   6.776   7.960   1.306
    1STR   C30670475   6.675   7.717   1.408
    1STR   H30770476   6.608   7.789   1.362
    1STR   H30870477   6.694   7.640   1.333
    1STR   O30970478   6.610   7.657   1.521
    1STR    H1R70479   6.429   7.743   1.487
    1STR    H1S70480   6.337   7.506   1.405
    1STR    H1T70481   6.510   7.474   1.389
    1STR    H1U70482   6.439   7.604   1.298
    1STR    H1V70483   6.298   7.654   1.645
    1STR    H1W70484   6.451   7.647   1.723
    1STR    H1X70485   6.303   7.246   1.744
    1STR    H1Y70486   6.298   7.026   1.806
    1STR    H1Z70487   6.433   6.829   1.798
    1STR    H2070488   6.727   6.860   1.680
    1STR    H2170489   6.805   6.814   1.820
    1STR    H2270490   6.654   6.730   1.780
    1STR    H2370491   6.862   7.031   1.796
    1STR    H2770492   6.651   7.260   1.879
    1STR    H2870493   6.643   6.955   0.292
    1STR    H2970494   6.660   7.200   0.301
    1STR    H2A70495   6.917   7.383   0.389
    1STR    H2B70496   6.776   7.375   0.280
    1STR    H2C70497   6.943   7.365   0.215
    1STR   BCK170498   7.288   6.671   2.822
    1STR    O0370499   7.284   6.565   2.883
    1STR    N0470500   7.389   6.713   2.749
    1STR    C0570501   7.513   6.754   2.793
    1STR    C0670502   7.543   6.887   2.760
    1STR    C0770503   7.658   6.951   2.807
    1STR    N0870504   7.669   7.089   2.816
    1STR    C0970505   7.600   7.182   2.747
    1STR    O0A70506   7.528   7.152   2.653
    1STR    O0B70507   7.622   7.312   2.779
    1STR    C0C70508   7.703   7.362   2.885
    1STR    C0D70509   7.848   7.342   2.846
    1STR    C0E70510   7.676   7.513   2.901
    1STR    O0F70511   7.608   7.546   3.021
    1STR    C0G70512   7.466   7.548   3.010
    1STR    C0H70513   7.412   7.406   3.015
    1STR    C0I70514   7.415   7.630   3.128
    1STR    O0J70515   7.273   7.623   3.129
    1STR    C0K70516   7.398   6.372   4.193
    1STR    C0M70517   7.445   6.365   4.337
    1STR    C0N70518   7.482   6.278   4.103
    1STR    O0O70519   7.517   6.346   3.985
    1STR    C0P70520   7.624   6.422   3.983
    1STR    O0Q70521   7.719   6.416   4.060
    1STR    N0R70522   7.609   6.511   3.888
    1STR    C0S70523   7.683   6.626   3.869
    1STR    C0T70524   7.744   6.648   3.745
    1STR    C0U70525   7.796   6.775   3.716
    1STR    C0V70526   7.780   6.881   3.808
    1STR    C0W70527   7.820   7.020   3.760
    1STR    C0X70528   7.716   6.859   3.933
    1STR    N0Y70529   7.689   6.968   4.013
    1STR   BCK270530   7.590   7.001   4.096
    1STR    O1070531   7.576   7.120   4.116
    1STR    C1370532   7.673   6.729   3.964
    1STR    C1470533   7.757   6.870   2.866
    1STR    C1570534   7.731   6.735   2.897
    1STR    C1670535   7.605   6.679   2.869
    1STR    C1770536   7.573   6.539   2.919
    1STR    H1B70537   7.355   6.769   2.669
    1STR    H1C70538   7.469   6.942   2.705
    1STR    H1D70539   7.726   7.124   2.891
    1STR    H1E70540   7.681   7.311   2.979
    1STR    H1F70541   7.865   7.394   2.752
    1STR    H1G70542   7.914   7.381   2.924
    1STR    H1H70543   7.874   7.238   2.833
    1STR    H1I70544   7.627   7.554   2.812
    1STR    H1J70545   7.770   7.567   2.907
    1STR    H1K70546   7.433   7.599   2.920
    1STR    H1M70547   7.443   7.356   3.106
    1STR    H1N70548   7.440   7.343   2.931
    1STR    H1O70549   7.304   7.409   3.012
    1STR    H1P70550   7.460   7.595   3.221
    1STR    H1Q70551   7.444   7.734   3.115
    1STR   C01070552   7.219   7.547   3.235
    1STR   H01170553   7.277   7.456   3.252
    1STR   C01270554   7.227   7.638   3.357
    1STR   H01370555   7.192   7.738   3.338
    1STR   H01470556   7.328   7.644   3.398
    1STR   H01570557   7.163   7.596   3.432
    1STR   C01670558   7.075   7.507   3.201
    1STR   H01770559   7.004   7.566   3.258
    1STR   H01870560   7.054   7.530   3.098
    1STR   O01970561   7.041   7.372   3.229
    1STR   C02070562   7.087   7.269   3.141
    1STR   H02170563   7.131   7.305   3.050
    1STR   C02270564   7.188   7.185   3.214
    1STR   H02370565   7.261   7.243   3.269
    1STR   H02470566   7.235   7.114   3.148
    1STR   H02570567   7.133   7.120   3.280
    1STR   C02670568   6.970   7.174   3.116
    1STR   H02770569   6.915   7.186   3.206
    1STR   H02870570   6.902   7.197   3.036
    1STR   O02970571   7.014   7.040   3.104
    1STR   C03070572   6.926   6.940   3.147
    1STR   H03170573   6.899   6.952   3.250
    1STR   C03270574   6.809   6.936   3.054
    1STR   H03370575   6.747   6.851   3.078
    1STR   H03470576   6.840   6.927   2.951
    1STR   H03570577   6.748   7.024   3.055
    1STR   C03670578   6.997   6.808   3.143
    1STR   H03770579   6.944   6.738   3.206
    1STR   H03870580   6.994   6.773   3.041
    1STR   O03970581   7.128   6.829   3.189
    1STR   C04070582   7.213   6.716   3.196
    1STR   H04170583   7.227   6.697   3.301
    1STR   C04270584   7.153   6.588   3.134
    1STR   H04370585   7.226   6.509   3.120
    1STR   H04470586   7.110   6.603   3.036
    1STR   H04570587   7.072   6.553   3.197
    1STR   C04670588   7.348   6.759   3.136
    1STR   H04770589   7.422   6.683   3.151
    1STR   H04870590   7.337   6.763   3.031
    1STR   O04970591   7.390   6.889   3.175
    1STR   C05070592   7.495   6.946   3.096
    1STR   H05170593   7.491   6.902   2.998
    1STR   C05270594   7.470   7.094   3.075
    1STR   H05370595   7.388   7.112   3.006
    1STR   H05470596   7.555   7.144   3.032
    1STR   H05570597   7.451   7.145   3.169
    1STR   C05670598   7.634   6.920   3.155
    1STR   H05770599   7.632   6.938   3.261
    1STR   H05870600   7.660   6.816   3.138
    1STR   O05970601   7.735   7.004   3.103
    1STR   C06070602   7.856   7.004   3.178
    1STR   H06170603   7.835   7.025   3.283
    1STR   C06270604   7.930   6.870   3.170
    1STR   H06370605   7.955   6.843   3.068
    1STR   H06470606   7.871   6.789   3.212
    1STR   H06570607   8.022   6.875   3.227
    1STR   C06670608   7.939   7.120   3.121
    1STR   H06770609   8.036   7.129   3.169
    1STR   H06870610   7.959   7.101   3.015
    1STR   O06970611   7.864   7.240   3.130
    1STR   C07070612   7.868   7.305   3.256
    1STR   H07170613   7.931   7.252   3.328
    1STR   C07270614   7.928   7.443   3.227
    1STR   H07370615   7.865   7.499   3.158
    1STR   H07470616   8.027   7.433   3.182
    1STR   H07570617   7.939   7.502   3.319
    1STR   C07670618   7.727   7.317   3.315
    1STR   H07770619   7.732   7.378   3.405
    1STR   H07870620   7.662   7.368   3.244
    1STR   O07970621   7.673   7.189   3.346
    1STR   C08070622   7.571   7.186   3.444
    1STR   H08170623   7.618   7.201   3.541
    1STR   C08270624   7.471   7.301   3.422
    1STR   H08370625   7.451   7.315   3.317
    1STR   H08470626   7.506   7.396   3.460
    1STR   H08570627   7.375   7.281   3.469
    1STR   C08670628   7.501   7.048   3.445
    1STR   H08770629   7.413   7.051   3.508
    1STR   H08870630   7.458   7.028   3.347
    1STR   O08970631   7.588   6.941   3.487
    1STR   C09070632   7.536   6.806   3.496
    1STR   H09170633   7.570   6.768   3.590
    1STR   C09270634   7.383   6.797   3.493
    1STR   H09370635   7.341   6.840   3.402
    1STR   H09470636   7.338   6.854   3.573
    1STR   H09570637   7.349   6.694   3.502
    1STR   C09670638   7.600   6.711   3.394
    1STR   H09770639   7.552   6.731   3.301
    1STR   H09870640   7.705   6.734   3.383
    1STR   O09970641   7.583   6.572   3.425
    1STR   C10070642   7.594   6.486   3.311
    1STR   H10170643   7.525   6.524   3.236
    1STR   C10270644   7.735   6.491   3.249
    1STR   H10370645   7.811   6.469   3.324
    1STR   H10470646   7.756   6.588   3.205
    1STR   H10570647   7.744   6.418   3.169
    1STR   C10670648   7.548   6.341   3.338
    1STR   H10770649   7.633   6.272   3.339
    1STR   H10870650   7.498   6.332   3.434
    1STR   O10970651   7.458   6.309   3.232
    1STR   C11070652   7.404   6.178   3.218
    1STR   H11170653   7.333   6.191   3.136
    1STR   C11270654   7.514   6.083   3.170
    1STR   H11370655   7.587   6.063   3.248
    1STR   H11470656   7.568   6.126   3.085
    1STR   H11570657   7.472   5.988   3.137
    1STR   C11670658   7.319   6.117   3.331
    1STR   H11770659   7.232   6.065   3.291
    1STR   H11870660   7.377   6.039   3.380
    1STR   O11970661   7.280   6.202   3.437
    1STR   C12070662   7.184   6.304   3.415
    1STR   H12170663   7.141   6.312   3.512
    1STR   C12270664   7.248   6.442   3.397
    1STR   H12370665   7.295   6.454   3.301
    1STR   H12470666   7.325   6.463   3.469
    1STR   H12570667   7.174   6.521   3.410
    1STR   C12670668   7.057   6.281   3.332
    1STR   H12770669   7.028   6.381   3.305
    1STR   H12870670   7.076   6.225   3.240
    1STR   O12970671   6.944   6.231   3.403
    1STR   C13070672   6.820   6.250   3.333
    1STR   H13170673   6.834   6.314   3.249
    1STR   C13270674   6.776   6.116   3.284
    1STR   H13370675   6.754   6.046   3.364
    1STR   H13470676   6.853   6.075   3.219
    1STR   H13570677   6.687   6.134   3.226
    1STR   C13670678   6.710   6.324   3.408
    1STR   H13770679   6.660   6.260   3.482
    1STR   H13870680   6.762   6.400   3.462
    1STR   O13970681   6.613   6.385   3.320
    1STR   C14070682   6.607   6.528   3.331
    1STR   H14170683   6.623   6.551   3.433
    1STR   C14270684   6.724   6.589   3.254
    1STR   H14370685   6.736   6.549   3.154
    1STR   H14470686   6.818   6.572   3.306
    1STR   H14570687   6.712   6.695   3.243
    1STR   C14670688   6.467   6.591   3.309
    1STR   H14770689   6.427   6.588   3.210
    1STR   H14870690   6.396   6.530   3.366
    1STR   O14970691   6.455   6.721   3.367
    1STR   C15070692   6.468   6.841   3.291
    1STR   H15170693   6.473   6.818   3.185
    1STR   C15270694   6.341   6.919   3.323
    1STR   H15370695   6.331   6.934   3.430
    1STR   H15470696   6.252   6.865   3.289
    1STR   H15570697   6.341   7.018   3.276
    1STR   C15670698   6.597   6.919   3.329
    1STR   H15770699   6.635   6.877   3.418
    1STR   H15870700   6.675   6.895   3.260
    1STR   O15970701   6.585   7.061   3.340
    1STR   C16070702   6.704   7.141   3.322
    1STR   H16170703   6.750   7.090   3.243
    1STR   C16270704   6.659   7.271   3.255
    1STR   H16370705   6.562   7.305   3.290
    1STR   H16470706   6.650   7.257   3.148
    1STR   H16570707   6.731   7.351   3.270
    1STR   C16670708   6.819   7.162   3.430
    1STR   H16770709   6.874   7.253   3.404
    1STR   H16870710   6.784   7.184   3.529
    1STR   O16970711   6.919   7.062   3.440
    1STR   C17070712   7.012   7.082   3.547
    1STR   H17170713   6.955   7.118   3.632
    1STR   C17270714   7.068   6.946   3.585
    1STR   H17370715   7.163   6.957   3.635
    1STR   H17470716   7.085   6.882   3.499
    1STR   H17570717   7.006   6.895   3.659
    1STR   C17670718   7.134   7.175   3.522
    1STR   H17770719   7.200   7.176   3.608
    1STR   H17870720   7.204   7.127   3.457
    1STR   O17970721   7.103   7.310   3.486
    1STR   C18070722   7.086   7.392   3.599
    1STR   H18170723   7.044   7.326   3.671
    1STR   C18270724   7.223   7.443   3.650
    1STR   H18370725   7.266   7.524   3.592
    1STR   H18470726   7.300   7.366   3.649
    1STR   H18570727   7.216   7.478   3.751
    1STR   C18670728   6.975   7.498   3.596
    1STR   H18770729   6.958   7.522   3.701
    1STR   H18870730   7.002   7.592   3.551
    1STR   O18970731   6.854   7.451   3.539
    1STR   C19070732   6.737   7.493   3.609
    1STR   H19170733   6.744   7.452   3.710
    1STR   C19270734   6.733   7.648   3.616
    1STR   H19370735   6.738   7.690   3.515
    1STR   H19470736   6.814   7.690   3.674
    1STR   H19570737   6.641   7.683   3.662
    1STR   C19670738   6.608   7.441   3.542
    1STR   H19770739   6.521   7.483   3.591
    1STR   H19870740   6.607   7.483   3.441
    1STR   O19970741   6.593   7.299   3.525
    1STR   C20070742   6.562   7.217   3.637
    1STR   H20170743   6.635   7.243   3.711
    1STR   C20270744   6.420   7.258   3.675
    1STR   H20370745   6.360   7.277   3.585
    1STR   H20470746   6.419   7.348   3.737
    1STR   H20570747   6.369   7.179   3.728
    1STR   C20670748   6.567   7.059   3.622
    1STR   H20770749   6.525   7.018   3.712
    1STR   H20870750   6.494   7.030   3.547
    1STR   O20970751   6.690   6.983   3.606
    1STR   C21070752   6.694   6.843   3.648
    1STR   H21170753   6.726   6.847   3.751
    1STR   C21270754   6.562   6.765   3.641
    1STR   H21370755   6.560   6.697   3.559
    1STR   H21470756   6.472   6.824   3.628
    1STR   H21570757   6.553   6.699   3.726
    1STR   C21670758   6.802   6.753   3.582
    1STR   H21770759   6.764   6.689   3.503
    1STR   H21870760   6.870   6.816   3.526
    1STR   O21970761   6.870   6.674   3.680
    1STR   C22070762   6.858   6.531   3.688
    1STR   H22170763   6.894   6.496   3.783
    1STR   C22270764   6.717   6.467   3.696
    1STR   H22370765   6.646   6.504   3.625
    1STR   H22470766   6.671   6.482   3.793
    1STR   H22570767   6.724   6.358   3.687
    1STR   C22670768   6.962   6.466   3.600
    1STR   H22770769   6.941   6.360   3.595
    1STR   H22870770   6.954   6.507   3.500
    1STR   O22970771   7.096   6.487   3.645
    1STR   C23070772   7.148   6.409   3.753
    1STR   H23170773   7.095   6.439   3.842
    1STR   C23270774   7.124   6.256   3.752
    1STR   H23370775   7.176   6.201   3.674
    1STR   H23470776   7.018   6.231   3.748
    1STR   H23570777   7.162   6.213   3.843
    1STR   C23670778   7.301   6.438   3.761
    1STR   H23770779   7.346   6.358   3.820
    1STR   H23870780   7.346   6.423   3.664
    1STR   O23970781   7.354   6.560   3.816
    1STR   C24070782   7.283   6.682   3.802
    1STR   H24170783   7.226   6.687   3.709
    1STR   C24270784   7.194   6.687   3.923
    1STR   H24370785   7.252   6.698   4.014
    1STR   H24470786   7.128   6.604   3.938
    1STR   H24570787   7.131   6.772   3.905
    1STR   C24670788   7.372   6.808   3.819
    1STR   H24770789   7.421   6.799   3.915
    1STR   H24870790   7.455   6.804   3.751
    1STR   O24970791   7.300   6.933   3.809
    1STR   C25070792   7.372   7.050   3.852
    1STR   H25170793   7.416   7.016   3.940
    1STR   C25270794   7.486   7.089   3.760
    1STR   H25370795   7.449   7.156   3.683
    1STR   H25470796   7.535   7.003   3.716
    1STR   H25570797   7.562   7.145   3.816
    1STR   C25670798   7.302   7.180   3.898
    1STR   H25770799   7.371   7.224   3.970
    1STR   H25870800   7.296   7.253   3.820
    1STR   O25970801   7.178   7.174   3.965
    1STR   C26070802   7.066   7.170   3.879
    1STR   H26170803   7.100   7.165   3.778
    1STR   C26270804   7.000   7.041   3.901
    1STR   H26370805   6.955   7.039   4.001
    1STR   H26470806   7.071   6.962   3.888
    1STR   H26570807   6.920   7.026   3.829
    1STR   C26670808   6.962   7.281   3.900
    1STR   H26770809   6.966   7.299   4.005
    1STR   H26870810   6.995   7.377   3.862
    1STR   O26970811   6.832   7.244   3.846
    1STR   C27070812   6.729   7.228   3.945
    1STR   H27170813   6.785   7.203   4.032
    1STR   C27270814   6.660   7.363   3.962
    1STR   H27370815   6.615   7.398   3.870
    1STR   H27470816   6.734   7.435   3.994
    1STR   H27570817   6.580   7.360   4.035
    1STR   C27670818   6.620   7.117   3.939
    1STR   H27770819   6.572   7.121   4.036
    1STR   H27870820   6.539   7.145   3.876
    1STR   O27970821   6.660   6.981   3.915
    1STR   C28070822   6.570   6.879   3.962
    1STR   H28170823   6.552   6.911   4.063
    1STR   C28270824   6.428   6.877   3.902
    1STR   H28370825   6.409   6.807   3.823
    1STR   H28470826   6.392   6.974   3.868
    1STR   H28570827   6.358   6.840   3.977
    1STR   C28670828   6.621   6.732   3.982
    1STR   H28770829   6.655   6.726   4.083
    1STR   H28870830   6.536   6.666   3.971
    1STR   O28970831   6.725   6.665   3.912
    1STR   C29070832   6.851   6.656   3.978
    1STR   H29170833   6.928   6.642   3.904
    1STR   C29270834   6.885   6.796   4.010
    1STR   H29370835   6.866   6.847   3.917
    1STR   H29470836   6.987   6.809   4.036
    1STR   H29570837   6.825   6.847   4.084
    1STR   C29670838   6.878   6.545   4.083
    1STR   H29770839   6.951   6.584   4.153
    1STR   H29870840   6.789   6.522   4.142
    1STR   O29970841   6.937   6.426   4.028
    1STR   C30070842   7.032   6.354   4.110
    1STR   H30170843   7.002   6.359   4.213
    1STR   C30270844   7.026   6.206   4.071
    1STR   H30370845   7.125   6.165   4.052
    1STR   H30470846   6.965   6.190   3.982
    1STR   H30570847   6.984   6.146   4.151
    1STR   C30670848   7.177   6.407   4.107
    1STR   H30770849   7.220   6.401   4.008
    1STR   H30870850   7.179   6.511   4.136
    1STR   O30970851   7.260   6.334   4.195
    1STR    H1R70852   7.408   6.476   4.161
    1STR    H1S70853   7.504   6.277   4.360
    1STR    H1T70854   7.359   6.362   4.401
    1STR    H1U70855   7.505   6.453   4.363
    1STR    H1V70856   7.427   6.190   4.072
    1STR    H1W70857   7.571   6.241   4.153
    1STR    H1X70858   7.517   6.510   3.844
    1STR    H1Y70859   7.746   6.570   3.670
    1STR    H1Z70860   7.840   6.794   3.619
    1STR    H2070861   7.755   7.052   3.680
    1STR    H2170862   7.818   7.096   3.838
    1STR    H2270863   7.921   7.016   3.718
    1STR    H2370864   7.746   7.050   3.997
    1STR    H2770865   7.624   6.708   4.058
    1STR    H2870866   7.850   6.915   2.896
    1STR    H2970867   7.806   6.677   2.948
    1STR    H2A70868   7.506   6.543   3.004
    1STR    H2B70869   7.663   6.486   2.950
    1STR    H2C70870   7.523   6.482   2.842
    1STR   BCK170871   7.050   7.483   5.083
    1STR    O0370872   7.091   7.597   5.100
    1STR    N0470873   6.924   7.446   5.058
    1STR    C0570874   6.800   7.481   5.110
    1STR    C0670875   6.710   7.373   5.112
    1STR    C0770876   6.595   7.375   5.192
    1STR    N0870877   6.554   7.251   5.237
    1STR    C0970878   6.457   7.210   5.316
    1STR    O0A70879   6.361   7.278   5.351
    1STR    O0B70880   6.473   7.078   5.326
    1STR    C0C70881   6.383   6.986   5.387
    1STR    C0D70882   6.234   7.024   5.394
    1STR    C0E70883   6.399   6.855   5.307
    1STR    O0F70884   6.533   6.811   5.286
    1STR    C0G70885   6.614   6.799   5.403
    1STR    C0H70886   6.542   6.713   5.507
    1STR    C0I70887   6.750   6.737   5.365
    1STR    O0J70888   6.859   6.818   5.406
    1STR    C0K70889   7.501   7.818   6.416
    1STR    C0M70890   7.395   7.927   6.437
    1STR    C0N70891   7.481   7.697   6.507
    1STR    O0O70892   7.372   7.713   6.596
    1STR    C0P70893   7.381   7.646   6.708
    1STR    O0Q70894   7.448   7.684   6.803
    1STR    N0R70895   7.317   7.530   6.711
    1STR    C0S70896   7.224   7.467   6.628
    1STR    C0T70897   7.162   7.529   6.518
    1STR    C0U70898   7.039   7.480   6.472
    1STR    C0V70899   6.985   7.364   6.526
    1STR    C0W70900   6.841   7.330   6.507
    1STR    C0X70901   7.063   7.283   6.606
    1STR    N0Y70902   7.041   7.147   6.596
    1STR   BCK270903   7.118   7.083   6.508
    1STR    O1070904   7.209   7.135   6.447
    1STR    C1370905   7.177   7.338   6.664
    1STR    C1470906   6.550   7.496   5.245
    1STR    C1570907   6.634   7.608   5.239
    1STR    C1670908   6.763   7.597   5.181
    1STR    C1770909   6.860   7.708   5.210
    1STR    H1B70910   6.924   7.356   5.008
    1STR    H1C70911   6.738   7.278   5.071
    1STR    H1D70912   6.615   7.173   5.219
    1STR    H1E70913   6.419   6.973   5.490
    1STR    H1F70914   6.193   7.057   5.300
    1STR    H1G70915   6.175   6.940   5.430
    1STR    H1H70916   6.215   7.106   5.462
    1STR    H1I70917   6.359   6.869   5.207
    1STR    H1J70918   6.339   6.775   5.350
    1STR    H1K70919   6.631   6.898   5.443
    1STR    H1M70920   6.525   6.611   5.473
    1STR    H1N70921   6.448   6.755   5.543
    1STR    H1O70922   6.605   6.710   5.594
    1STR    H1P70923   6.757   6.640   5.413
    1STR    H1Q70924   6.752   6.722   5.258
    1STR   C01070925   6.995   6.771   5.413
    1STR   H01170926   7.033   6.842   5.484
    1STR   C01270927   7.028   6.632   5.473
    1STR   H01370928   7.125   6.597   5.439
    1STR   H01470929   6.954   6.555   5.455
    1STR   H01570930   7.046   6.630   5.579
    1STR   C01670931   7.073   6.798   5.284
    1STR   H01770932   7.127   6.710   5.255
    1STR   H01870933   7.002   6.818   5.204
    1STR   O01970934   7.165   6.906   5.291
    1STR   C02070935   7.274   6.904   5.382
    1STR   H02170936   7.240   6.876   5.479
    1STR   C02270937   7.384   6.805   5.346
    1STR   H02370938   7.437   6.827   5.255
    1STR   H02470939   7.347   6.703   5.342
    1STR   H02570940   7.466   6.807   5.415
    1STR   C02670941   7.313   7.051   5.389
    1STR   H02770942   7.317   7.096   5.291
    1STR   H02870943   7.231   7.099   5.443
    1STR   O02970944   7.437   7.083   5.448
    1STR   C03070945   7.442   7.216   5.501
    1STR   H03170946   7.377   7.208   5.586
    1STR   C03270947   7.584   7.245   5.550
    1STR   H03370948   7.646   7.284   5.470
    1STR   H03470949   7.633   7.155   5.587
    1STR   H03570950   7.584   7.319   5.630
    1STR   C03670951   7.391   7.332   5.413
    1STR   H03770952   7.427   7.425   5.459
    1STR   H03870953   7.435   7.328   5.314
    1STR   O03970954   7.249   7.333   5.402
    1STR   C04070955   7.179   7.453   5.437
    1STR   H04170956   7.199   7.467   5.543
    1STR   C04270957   7.239   7.572   5.359
    1STR   H04370958   7.271   7.543   5.260
    1STR   H04470959   7.327   7.614   5.408
    1STR   H04570960   7.167   7.653   5.348
    1STR   C04670961   7.024   7.441   5.423
    1STR   H04770962   6.976   7.503   5.499
    1STR   H04870963   6.993   7.481   5.328
    1STR   O04970964   6.973   7.308   5.428
    1STR   C05070965   6.831   7.287   5.416
    1STR   H05170966   6.794   7.360   5.346
    1STR   C05270967   6.811   7.144   5.363
    1STR   H05370968   6.797   7.144   5.256
    1STR   H05470969   6.723   7.097   5.405
    1STR   H05570970   6.895   7.079   5.386
    1STR   C05670971   6.750   7.308   5.544
    1STR   H05770972   6.788   7.244   5.622
    1STR   H05870973   6.762   7.411   5.576
    1STR   O05970974   6.614   7.272   5.526
    1STR   C06070975   6.524   7.328   5.620
    1STR   H06170976   6.586   7.354   5.704
    1STR   C06270977   6.472   7.462   5.568
    1STR   H06370978   6.392   7.452   5.495
    1STR   H06470979   6.551   7.522   5.525
    1STR   H06570980   6.426   7.520   5.646
    1STR   C06670981   6.406   7.235   5.661
    1STR   H06770982   6.343   7.290   5.731
    1STR   H06870983   6.342   7.220   5.576
    1STR   O06970984   6.438   7.107   5.715
    1STR   C07070985   6.338   7.051   5.800
    1STR   H07170986   6.311   7.126   5.874
    1STR   C07270987   6.212   7.008   5.725
    1STR   H07370988   6.237   6.933   5.650
    1STR   H07470989   6.162   7.091   5.676
    1STR   H07570990   6.140   6.961   5.792
    1STR   C07670991   6.393   6.932   5.881
    1STR   H07770992   6.491   6.958   5.920
    1STR   H07870993   6.329   6.915   5.968
    1STR   O07970994   6.398   6.812   5.805
    1STR   C08070995   6.457   6.704   5.877
    1STR   H08170996   6.438   6.714   5.984
    1STR   C08270997   6.391   6.575   5.827
    1STR   H08370998   6.404   6.563   5.720
    1STR   H08470999   6.284   6.576   5.848
    1STR   H08571000   6.433   6.488   5.876
    1STR   C08671001   6.610   6.699   5.855
    1STR   H08771002   6.659   6.661   5.944
    1STR   H08871003   6.631   6.625   5.779
    1STR   O08971004   6.657   6.829   5.816
    1STR   C09071005   6.791   6.846   5.771
    1STR   H09171006   6.860   6.873   5.849
    1STR   C09271007   6.854   6.719   5.719
    1STR   H09371008   6.814   6.685   5.624
    1STR   H09471009   6.855   6.637   5.790
    1STR   H09571010   6.956   6.746   5.707
    1STR   C09671011   6.801   6.968   5.680
    1STR   H09771012   6.823   6.944   5.578
    1STR   H09871013   6.702   7.014   5.671
    1STR   O09971014   6.895   7.062   5.732
    1STR   C10071015   7.019   7.070   5.662
    1STR   H10171016   7.014   7.041   5.558
    1STR   C10271017   7.059   7.215   5.664
    1STR   H10371018   7.081   7.240   5.762
    1STR   H10471019   6.983   7.288   5.645
    1STR   H10571020   7.145   7.236   5.600
    1STR   C10671021   7.130   6.995   5.736
    1STR   H10771022   7.223   7.048   5.722
    1STR   H10871023   7.107   6.993   5.842
    1STR   O10971024   7.142   6.867   5.681
    1STR   C11071025   7.246   6.782   5.723
    1STR   H11171026   7.236   6.694   5.660
    1STR   C11271027   7.387   6.833   5.697
    1STR   H11371028   7.398   6.940   5.684
    1STR   H11471029   7.425   6.787   5.607
    1STR   H11571030   7.457   6.798   5.772
    1STR   C11671031   7.226   6.738   5.867
    1STR   H11771032   7.317   6.694   5.906
    1STR   H11871033   7.207   6.827   5.923
    1STR   O11971034   7.115   6.650   5.878
    1STR   C12071035   7.148   6.519   5.923
    1STR   H12171036   7.216   6.526   6.008
    1STR   C12271037   7.017   6.458   5.974
    1STR   H12371038   6.943   6.452   5.895
    1STR   H12471039   6.975   6.518   6.055
    1STR   H12571040   7.033   6.357   6.013
    1STR   C12671041   7.209   6.436   5.809
    1STR   H12771042   7.232   6.335   5.843
    1STR   H12871043   7.135   6.426   5.731
    1STR   O12971044   7.321   6.500   5.749
    1STR   C13071045   7.450   6.444   5.766
    1STR   H13171046   7.441   6.336   5.768
    1STR   C13271047   7.526   6.482   5.640
    1STR   H13371048   7.473   6.453   5.550
    1STR   H13471049   7.623   6.432   5.641
    1STR   H13571050   7.543   6.590   5.633
    1STR   C13671051   7.521   6.494   5.895
    1STR   H13771052   7.450   6.491   5.977
    1STR   H13871053   7.600   6.423   5.918
    1STR   O13971054   7.581   6.624   5.882
    1STR   C14071055   7.611   6.690   6.005
    1STR   H14171056   7.518   6.699   6.059
    1STR   C14271057   7.704   6.604   6.093
    1STR   H14371058   7.797   6.580   6.040
    1STR   H14471059   7.657   6.511   6.123
    1STR   H14571060   7.730   6.657   6.185
    1STR   C14671061   7.671   6.833   5.985
    1STR   H14771062   7.694   6.875   6.083
    1STR   H14871063   7.765   6.826   5.931
    1STR   O14971064   7.585   6.922   5.915
    1STR   C15071065   7.593   7.062   5.942
    1STR   H15171066   7.575   7.079   6.048
    1STR   C15271067   7.732   7.116   5.905
    1STR   H15371068   7.756   7.091   5.801
    1STR   H15471069   7.809   7.074   5.969
    1STR   H15571070   7.735   7.224   5.915
    1STR   C15671071   7.480   7.132   5.861
    1STR   H15771072   7.502   7.121   5.756
    1STR   H15871073   7.388   7.075   5.874
    1STR   O15971074   7.458   7.270   5.892
    1STR   C16071075   7.332   7.324   5.847
    1STR   H16171076   7.308   7.283   5.750
    1STR   C16271077   7.217   7.285   5.938
    1STR   H16371078   7.230   7.310   6.040
    1STR   H16471079   7.188   7.180   5.933
    1STR   H16571080   7.133   7.347   5.916
    1STR   C16671081   7.327   7.476   5.829
    1STR   H16771082   7.337   7.521   5.927
    1STR   H16871083   7.410   7.510   5.767
    1STR   O16971084   7.201   7.512   5.768
    1STR   C17071085   7.169   7.651   5.768
    1STR   H17171086   7.219   7.690   5.853
    1STR   C17271087   7.224   7.724   5.647
    1STR   H17371088   7.159   7.707   5.562
    1STR   H17471089   7.325   7.692   5.624
    1STR   H17571090   7.225   7.832   5.665
    1STR   C17671091   7.020   7.686   5.792
    1STR   H17771092   6.983   7.631   5.877
    1STR   H17871093   7.014   7.790   5.822
    1STR   O17971094   6.937   7.664   5.678
    1STR   C18071095   6.803   7.710   5.693
    1STR   H18171096   6.801   7.812   5.734
    1STR   C18271097   6.746   7.715   5.552
    1STR   H18371098   6.755   7.619   5.502
    1STR   H18471099   6.801   7.787   5.493
    1STR   H18571100   6.641   7.743   5.552
    1STR   C18671101   6.725   7.618   5.787
    1STR   H18771102   6.751   7.515   5.763
    1STR   H18871103   6.760   7.635   5.889
    1STR   O18971104   6.582   7.633   5.779
    1STR   C19071105   6.510   7.590   5.896
    1STR   H19171106   6.547   7.657   5.971
    1STR   C19271107   6.361   7.624   5.883
    1STR   H19371108   6.308   7.557   5.816
    1STR   H19471109   6.348   7.726   5.846
    1STR   H19571110   6.312   7.618   5.980
    1STR   C19671111   6.531   7.443   5.940
    1STR   H19771112   6.471   7.421   6.026
    1STR   H19871113   6.486   7.374   5.870
    1STR   O19971114   6.670   7.420   5.963
    1STR   C20071115   6.734   7.293   5.967
    1STR   H20171116   6.742   7.251   6.064
    1STR   C20271117   6.668   7.180   5.891
    1STR   H20371118   6.678   7.190   5.785
    1STR   H20471119   6.562   7.172   5.912
    1STR   H20571120   6.714   7.084   5.915
    1STR   C20671121   6.879   7.319   5.927
    1STR   H20771122   6.939   7.229   5.940
    1STR   H20871123   6.877   7.337   5.821
    1STR   O20971124   6.937   7.439   5.982
    1STR   C21071125   6.981   7.454   6.118
    1STR   H21171126   6.902   7.510   6.167
    1STR   C21271127   6.997   7.322   6.191
    1STR   H21371128   7.028   7.238   6.131
    1STR   H21471129   6.903   7.301   6.240
    1STR   H21571130   7.068   7.326   6.272
    1STR   C21671131   7.109   7.537   6.141
    1STR   H21771132   7.111   7.564   6.245
    1STR   H21871133   7.199   7.480   6.127
    1STR   O21971134   7.130   7.655   6.067
    1STR   C22071135   7.222   7.745   6.132
    1STR   H22171136   7.280   7.694   6.209
    1STR   C22271137   7.322   7.809   6.035
    1STR   H22371138   7.272   7.865   5.956
    1STR   H22471139   7.387   7.733   5.990
    1STR   H22571140   7.387   7.879   6.086
    1STR   C22671141   7.135   7.852   6.194
    1STR   H22771142   7.079   7.810   6.279
    1STR   H22871143   7.195   7.934   6.231
    1STR   O22971144   7.047   7.892   6.091
    1STR   C23071145   6.956   7.992   6.128
    1STR   H23171146   6.937   7.989   6.235
    1STR   C23271147   7.020   8.126   6.092
    1STR   H23371148   7.046   8.130   5.986
    1STR   H23471149   7.112   8.142   6.148
    1STR   H23571150   6.953   8.209   6.114
    1STR   C23671151   6.826   7.965   6.049
    1STR   H23771152   6.751   8.041   6.071
    1STR   H23871153   6.847   7.972   5.943
    1STR   O23971154   6.769   7.835   6.070
    1STR   C24071155   6.753   7.786   6.203
    1STR   H24171156   6.852   7.761   6.243
    1STR   C24271157   6.682   7.889   6.291
    1STR   H24371158   6.577   7.901   6.263
    1STR   H24471159   6.727   7.988   6.290
    1STR   H24571160   6.687   7.854   6.392
    1STR   C24671161   6.668   7.659   6.194
    1STR   H24771162   6.569   7.694   6.168
    1STR   H24871163   6.707   7.597   6.114
    1STR   O24971164   6.659   7.585   6.314
    1STR   C25071165   6.571   7.471   6.319
    1STR   H25171166   6.572   7.444   6.424
    1STR   C25271167   6.426   7.504   6.275
    1STR   H25371168   6.420   7.549   6.177
    1STR   H25471169   6.376   7.576   6.340
    1STR   H25571170   6.364   7.416   6.271
    1STR   C25671171   6.631   7.348   6.250
    1STR   H25771172   6.564   7.318   6.171
    1STR   H25871173   6.723   7.385   6.208
    1STR   O25971174   6.654   7.232   6.331
    1STR   C26071175   6.684   7.101   6.274
    1STR   H26171176   6.668   7.039   6.362
    1STR   C26271177   6.582   7.048   6.170
    1STR   H26371178   6.530   7.125   6.115
    1STR   H26471179   6.503   6.988   6.213
    1STR   H26571180   6.627   6.982   6.098
    1STR   C26671181   6.831   7.065   6.239
    1STR   H26771182   6.860   7.085   6.137
    1STR   H26871183   6.901   7.112   6.307
    1STR   O26971184   6.852   6.932   6.275
    1STR   C27071185   6.917   6.840   6.191
    1STR   H27171186   6.915   6.749   6.249
    1STR   C27271187   6.823   6.804   6.082
    1STR   H27371188   6.797   6.895   6.030
    1STR   H27471189   6.731   6.763   6.123
    1STR   H27571190   6.867   6.731   6.014
    1STR   C27671191   7.066   6.853   6.155
    1STR   H27771192   7.117   6.806   6.236
    1STR   H27871193   7.085   6.783   6.076
    1STR   O27971194   7.132   6.979   6.136
    1STR   C28071195   7.268   6.983   6.188
    1STR   H28171196   7.270   6.963   6.292
    1STR   C28271197   7.361   6.885   6.122
    1STR   H28371198   7.376   6.911   6.018
    1STR   H28471199   7.324   6.783   6.124
    1STR   H28571200   7.459   6.888   6.171
    1STR   C28671201   7.319   7.125   6.175
    1STR   H28771202   7.340   7.133   6.071
    1STR   H28871203   7.234   7.187   6.205
    1STR   O28971204   7.438   7.175   6.236
    1STR   C29071205   7.445   7.318   6.214
    1STR   H29171206   7.404   7.343   6.118
    1STR   C29271207   7.364   7.395   6.318
    1STR   H29371208   7.267   7.352   6.336
    1STR   H29471209   7.350   7.498   6.288
    1STR   H29571210   7.410   7.400   6.415
    1STR   C29671211   7.584   7.376   6.193
    1STR   H29771212   7.648   7.357   6.278
    1STR   H29871213   7.632   7.329   6.107
    1STR   O29971214   7.566   7.515   6.166
    1STR   C30071215   7.660   7.601   6.229
    1STR   H30171216   7.658   7.581   6.335
    1STR   C30271217   7.799   7.576   6.172
    1STR   H30371218   7.801   7.592   6.064
    1STR   H30471219   7.833   7.474   6.191
    1STR   H30571220   7.873   7.642   6.218
    1STR   C30671221   7.617   7.748   6.214
    1STR   H30771222   7.696   7.815   6.247
    1STR   H30871223   7.603   7.768   6.108
    1STR   O30971224   7.494   7.778   6.280
    1STR    H1R71225   7.598   7.862   6.437
    1STR    H1S71226   7.402   7.969   6.538
    1STR    H1T71227   7.294   7.887   6.427
    1STR    H1U71228   7.407   8.009   6.366
    1STR    H1V71229   7.571   7.678   6.564
    1STR    H1W71230   7.462   7.607   6.450
    1STR    H1X71231   7.343   7.479   6.795
    1STR    H1Y71232   7.200   7.621   6.476
    1STR    H1Z71233   6.980   7.531   6.398
    1STR    H2071234   6.800   7.395   6.432
    1STR    H2171235   6.828   7.225   6.482
    1STR    H2271236   6.789   7.351   6.600
    1STR    H2371237   6.952   7.109   6.619
    1STR    H2771238   7.220   7.281   6.743
    1STR    H2871239   6.458   7.502   5.301
    1STR    H2971240   6.603   7.698   5.290
    1STR    H2A71241   6.943   7.676   5.271
    1STR    H2B71242   6.810   7.780   5.272
    1STR    H2C71243   6.899   7.752   5.119
    1STR   BCK171244   6.890   6.868   7.353
    1STR    O0371245   6.987   6.908   7.412
    1STR    N0471246   6.851   6.740   7.356
    1STR    C0571247   6.916   6.641   7.427
    1STR    C0671248   6.859   6.587   7.544
    1STR    C0771249   6.923   6.488   7.620
    1STR    N0871250   6.889   6.458   7.753
    1STR    C0971251   6.978   6.442   7.852
    1STR    O0A71252   6.946   6.433   7.970
    1STR    O0B71253   7.105   6.432   7.807
    1STR    C0C71254   7.222   6.484   7.865
    1STR    C0D71255   7.304   6.361   7.908
    1STR    C0E71256   7.300   6.558   7.753
    1STR    O0F71257   7.247   6.679   7.699
    1STR    C0G71258   7.327   6.762   7.612
    1STR    C0H71259   7.221   6.815   7.524
    1STR    C0I71260   7.409   6.885   7.661
    1STR    O0J71261   7.410   7.000   7.577
    1STR    C0K71262   6.578   6.262   8.560
    1STR    C0M71263   6.529   6.120   8.534
    1STR    C0N71264   6.694   6.300   8.464
    1STR    O0O71265   6.820   6.322   8.529
    1STR    C0P71266   6.827   6.424   8.613
    1STR    O0Q71267   6.730   6.487   8.652
    1STR    N0R71268   6.945   6.476   8.643
    1STR    C0S71269   7.075   6.469   8.596
    1STR    C0T71270   7.137   6.355   8.542
    1STR    C0U71271   7.276   6.358   8.522
    1STR    C0V71272   7.353   6.475   8.548
    1STR    C0W71273   7.504   6.463   8.546
    1STR    C0X71274   7.286   6.596   8.583
    1STR    N0Y71275   7.354   6.718   8.603
    1STR   BCK271276   7.300   6.841   8.607
    1STR    O1071277   7.183   6.869   8.590
    1STR    C1371278   7.151   6.585   8.617
    1STR    C1471279   7.035   6.429   7.563
    1STR    C1571280   7.102   6.492   7.460
    1STR    C1671281   7.042   6.594   7.389
    1STR    C1771282   7.115   6.644   7.270
    1STR    H1B71283   6.774   6.710   7.298
    1STR    H1C71284   6.772   6.634   7.576
    1STR    H1D71285   6.792   6.460   7.782
    1STR    H1E71286   7.198   6.546   7.951
    1STR    H1F71287   7.328   6.302   7.822
    1STR    H1G71288   7.402   6.386   7.947
    1STR    H1H71289   7.249   6.300   7.980
    1STR    H1I71290   7.301   6.490   7.669
    1STR    H1J71291   7.400   6.580   7.788
    1STR    H1K71292   7.391   6.698   7.556
    1STR    H1M71293   7.129   6.762   7.537
    1STR    H1N71294   7.253   6.806   7.422
    1STR    H1O71295   7.196   6.919   7.543
    1STR    H1P71296   7.361   6.921   7.749
    1STR    H1Q71297   7.511   6.859   7.685
    1STR   C01071298   7.407   7.126   7.646
    1STR   H01171299   7.360   7.122   7.743
    1STR   C01271300   7.546   7.178   7.666
    1STR   H01371301   7.600   7.154   7.577
    1STR   H01471302   7.602   7.133   7.747
    1STR   H01571303   7.547   7.286   7.683
    1STR   C01671304   7.327   7.230   7.570
    1STR   H01771305   7.323   7.325   7.623
    1STR   H01871306   7.379   7.247   7.477
    1STR   O01971307   7.198   7.180   7.542
    1STR   C02071308   7.097   7.226   7.627
    1STR   H02171309   7.135   7.253   7.725
    1STR   C02271310   7.042   7.351   7.571
    1STR   H02371311   7.012   7.329   7.469
    1STR   H02471312   7.114   7.432   7.575
    1STR   H02571313   6.953   7.378   7.627
    1STR   C02671314   6.987   7.123   7.639
    1STR   H02771315   7.021   7.022   7.620
    1STR   H02871316   6.954   7.132   7.740
    1STR   O02971317   6.876   7.146   7.557
    1STR   C03071318   6.752   7.126   7.620
    1STR   H03171319   6.760   7.117   7.727
    1STR   C03271320   6.682   7.253   7.588
    1STR   H03371321   6.686   7.263   7.481
    1STR   H03471322   6.736   7.337   7.631
    1STR   H03571323   6.578   7.258   7.621
    1STR   C03671324   6.683   7.001   7.572
    1STR   H03771325   6.588   6.985   7.621
    1STR   H03871326   6.662   7.006   7.467
    1STR   O03971327   6.770   6.894   7.595
    1STR   C04071328   6.767   6.844   7.725
    1STR   H04171329   6.743   6.922   7.793
    1STR   C04271330   6.644   6.750   7.728
    1STR   H04371331   6.599   6.749   7.630
    1STR   H04471332   6.567   6.787   7.795
    1STR   H04571333   6.668   6.648   7.757
    1STR   C04671334   6.912   6.799   7.760
    1STR   H04771335   6.914   6.714   7.827
    1STR   H04871336   6.969   6.774   7.671
    1STR   O04971337   6.973   6.913   7.821
    1STR   C05071338   7.112   6.925   7.848
    1STR   H05171339   7.156   6.927   7.751
    1STR   C05271340   7.124   7.064   7.910
    1STR   H05371341   7.034   7.123   7.917
    1STR   H05471342   7.195   7.120   7.855
    1STR   H05571343   7.162   7.067   8.009
    1STR   C05671344   7.181   6.811   7.927
    1STR   H05771345   7.149   6.787   8.025
    1STR   H05871346   7.131   6.727   7.882
    1STR   O05971347   7.322   6.789   7.912
    1STR   C06071348   7.430   6.846   7.987
    1STR   H06171349   7.407   6.845   8.091
    1STR   C06271350   7.545   6.748   7.955
    1STR   H06371351   7.570   6.748   7.850
    1STR   H06471352   7.522   6.646   7.982
    1STR   H06571353   7.636   6.774   8.007
    1STR   C06671354   7.482   6.988   7.962
    1STR   H06771355   7.562   7.005   8.032
    1STR   H06871356   7.531   6.991   7.866
    1STR   O06971357   7.389   7.094   7.970
    1STR   C07071358   7.428   7.207   8.045
    1STR   H07171359   7.456   7.167   8.141
    1STR   C07271360   7.550   7.280   7.988
    1STR   H07371361   7.524   7.336   7.899
    1STR   H07471362   7.632   7.212   7.965
    1STR   H07571363   7.589   7.351   8.061
    1STR   C07671364   7.310   7.304   8.073
    1STR   H07771365   7.251   7.259   8.153
    1STR   H07871366   7.355   7.392   8.116
    1STR   O07971367   7.221   7.344   7.967
    1STR   C08071368   7.106   7.415   8.016
    1STR   H08171369   7.056   7.352   8.089
    1STR   C08271370   7.154   7.548   8.078
    1STR   H08371371   7.228   7.597   8.014
    1STR   H08471372   7.198   7.532   8.176
    1STR   H08571373   7.073   7.618   8.094
    1STR   C08671374   7.000   7.449   7.907
    1STR   H08771375   6.970   7.553   7.912
    1STR   H08871376   7.054   7.441   7.814
    1STR   O08971377   6.879   7.374   7.893
    1STR   C09071378   6.765   7.387   7.981
    1STR   H09171379   6.785   7.318   8.062
    1STR   C09271380   6.725   7.523   8.041
    1STR   H09371381   6.643   7.571   7.989
    1STR   H09471382   6.806   7.595   8.049
    1STR   H09571383   6.684   7.507   8.141
    1STR   C09671384   6.647   7.333   7.899
    1STR   H09771385   6.624   7.402   7.819
    1STR   H09871386   6.689   7.247   7.854
    1STR   O09971387   6.525   7.295   7.963
    1STR   C10071388   6.422   7.249   7.874
    1STR   H10171389   6.409   7.326   7.797
    1STR   C10271390   6.461   7.116   7.810
    1STR   H10371391   6.411   7.031   7.855
    1STR   H10471392   6.565   7.093   7.815
    1STR   H10571393   6.437   7.118   7.705
    1STR   C10671394   6.289   7.234   7.950
    1STR   H10771395   6.294   7.151   8.018
    1STR   H10871396   6.280   7.322   8.014
    1STR   O10971397   6.168   7.227   7.873
    1STR   C11071398   6.119   7.106   7.812
    1STR   H11171399   6.021   7.141   7.783
    1STR   C11271400   6.184   7.075   7.679
    1STR   H11371401   6.112   7.035   7.608
    1STR   H11471402   6.263   7.000   7.686
    1STR   H11571403   6.227   7.167   7.642
    1STR   C11671404   6.088   6.980   7.898
    1STR   H11771405   6.104   6.999   8.003
    1STR   H11871406   5.983   6.957   7.894
    1STR   O11971407   6.157   6.866   7.846
    1STR   C12071408   6.119   6.737   7.891
    1STR   H12171409   6.010   6.730   7.889
    1STR   C12271410   6.178   6.643   7.787
    1STR   H12371411   6.287   6.648   7.789
    1STR   H12471412   6.144   6.674   7.688
    1STR   H12571413   6.149   6.540   7.802
    1STR   C12671414   6.168   6.688   8.029
    1STR   H12771415   6.090   6.628   8.074
    1STR   H12871416   6.252   6.619   8.022
    1STR   O12971417   6.199   6.790   8.121
    1STR   C13071418   6.311   6.873   8.093
    1STR   H13171419   6.302   6.923   7.999
    1STR   C13271420   6.295   6.982   8.197
    1STR   H13371421   6.304   6.946   8.299
    1STR   H13471422   6.200   7.034   8.192
    1STR   H13571423   6.374   7.053   8.183
    1STR   C13671424   6.453   6.814   8.078
    1STR   H13771425   6.509   6.882   8.016
    1STR   H13871426   6.503   6.816   8.173
    1STR   O13971427   6.470   6.685   8.023
    1STR   C14071428   6.590   6.621   8.068
    1STR   H14171429   6.585   6.599   8.174
    1STR   C14271430   6.591   6.485   7.998
    1STR   H14371431   6.582   6.495   7.890
    1STR   H14471432   6.506   6.425   8.032
    1STR   H14571433   6.681   6.429   8.021
    1STR   C14671434   6.718   6.703   8.043
    1STR   H14771435   6.807   6.641   8.043
    1STR   H14871436   6.713   6.740   7.945
    1STR   O14971437   6.740   6.819   8.123
    1STR   C15071438   6.833   6.910   8.068
    1STR   H15171439   6.891   6.849   8.003
    1STR   C15271440   6.758   7.029   8.009
    1STR   H15371441   6.731   7.102   8.083
    1STR   H15471442   6.665   6.998   7.965
    1STR   H15571443   6.818   7.081   7.935
    1STR   C15671444   6.942   6.969   8.154
    1STR   H15771445   6.979   7.058   8.107
    1STR   H15871446   6.893   6.999   8.243
    1STR   O15971447   7.049   6.883   8.180
    1STR   C16071448   7.175   6.933   8.226
    1STR   H16171449   7.241   6.961   8.146
    1STR   C16271450   7.163   7.049   8.317
    1STR   H16371451   7.101   7.023   8.401
    1STR   H16471452   7.121   7.131   8.261
    1STR   H16571453   7.260   7.074   8.355
    1STR   C16671454   7.251   6.823   8.295
    1STR   H16771455   7.345   6.864   8.333
    1STR   H16871456   7.194   6.786   8.378
    1STR   O16971457   7.273   6.717   8.206
    1STR   C17071458   7.350   6.617   8.264
    1STR   H17171459   7.289   6.586   8.346
    1STR   C17271460   7.342   6.500   8.173
    1STR   H17371461   7.380   6.537   8.079
    1STR   H17471462   7.238   6.470   8.161
    1STR   H17571463   7.400   6.415   8.208
    1STR   C17671464   7.495   6.657   8.304
    1STR   H17771465   7.493   6.689   8.407
    1STR   H17871466   7.557   6.569   8.297
    1STR   O17971467   7.558   6.764   8.236
    1STR   C18071468   7.684   6.804   8.287
    1STR   H18171469   7.673   6.816   8.394
    1STR   C18271470   7.788   6.693   8.263
    1STR   H18371471   7.790   6.664   8.158
    1STR   H18471472   7.768   6.604   8.323
    1STR   H18571473   7.888   6.727   8.290
    1STR   C18671474   7.733   6.937   8.222
    1STR   H18771475   7.834   6.961   8.257
    1STR   H18871476   7.748   6.923   8.115
    1STR   O18971477   7.652   7.055   8.239
    1STR   C19071478   7.602   7.083   8.369
    1STR   H19171479   7.522   7.012   8.388
    1STR   C19271480   7.713   7.065   8.472
    1STR   H19371481   7.778   7.153   8.475
    1STR   H19471482   7.779   6.980   8.465
    1STR   H19571483   7.662   7.051   8.567
    1STR   C19671484   7.547   7.228   8.382
    1STR   H19771485   7.566   7.261   8.484
    1STR   H19871486   7.604   7.297   8.319
    1STR   O19971487   7.407   7.243   8.355
    1STR   C20071488   7.338   7.341   8.432
    1STR   H20171489   7.371   7.321   8.534
    1STR   C20271490   7.384   7.484   8.399
    1STR   H20371491   7.379   7.505   8.293
    1STR   H20471492   7.487   7.501   8.431
    1STR   H20571493   7.322   7.558   8.449
    1STR   C20671494   7.183   7.323   8.442
    1STR   H20771495   7.159   7.229   8.490
    1STR   H20871496   7.146   7.396   8.511
    1STR   O20971497   7.099   7.346   8.328
    1STR   C21071498   6.957   7.357   8.357
    1STR   H21171499   6.941   7.367   8.463
    1STR   C21271500   6.916   7.487   8.294
    1STR   H21371501   6.911   7.471   8.188
    1STR   H21471502   6.991   7.564   8.306
    1STR   H21571503   6.819   7.522   8.329
    1STR   C21671504   6.874   7.238   8.301
    1STR   H21771505   6.918   7.221   8.204
    1STR   H21871506   6.891   7.152   8.361
    1STR   O21971507   6.733   7.245   8.273
    1STR   C22071508   6.631   7.158   8.331
    1STR   H22171509   6.641   7.162   8.436
    1STR   C22271510   6.508   7.236   8.283
    1STR   H22371511   6.497   7.225   8.176
    1STR   H22471512   6.517   7.343   8.303
    1STR   H22571513   6.417   7.200   8.330
    1STR   C22671514   6.612   7.004   8.305
    1STR   H22771515   6.582   6.997   8.202
    1STR   H22871516   6.706   6.952   8.310
    1STR   O22971517   6.515   6.937   8.395
    1STR   C23071518   6.497   6.791   8.416
    1STR   H23171519   6.459   6.793   8.516
    1STR   C23271520   6.385   6.702   8.354
    1STR   H23371521   6.407   6.655   8.260
    1STR   H23471522   6.287   6.747   8.343
    1STR   H23571523   6.370   6.614   8.415
    1STR   C23671524   6.616   6.703   8.444
    1STR   H23771525   6.654   6.730   8.541
    1STR   H23871526   6.584   6.599   8.458
    1STR   O23971527   6.709   6.707   8.339
    1STR   C24071528   6.829   6.638   8.363
    1STR   H24171529   6.813   6.588   8.454
    1STR   C24271530   6.864   6.522   8.269
    1STR   H24371531   6.927   6.449   8.320
    1STR   H24471532   6.925   6.555   8.185
    1STR   H24571533   6.777   6.471   8.230
    1STR   C24671534   6.946   6.730   8.386
    1STR   H24771535   7.008   6.691   8.462
    1STR   H24871536   7.010   6.713   8.301
    1STR   O24971537   6.925   6.870   8.414
    1STR   C25071538   6.850   6.915   8.524
    1STR   H25171539   6.744   6.921   8.504
    1STR   C25271540   6.866   6.813   8.628
    1STR   H25371541   6.844   6.710   8.610
    1STR   H25471542   6.794   6.841   8.699
    1STR   H25571543   6.968   6.819   8.662
    1STR   C25671544   6.892   7.053   8.582
    1STR   H25771545   6.940   7.035   8.675
    1STR   H25871546   6.973   7.102   8.531
    1STR   O25971547   6.780   7.139   8.601
    1STR   C26071548   6.790   7.266   8.666
    1STR   H26171549   6.737   7.255   8.759
    1STR   C26271550   6.931   7.290   8.726
    1STR   H26371551   7.009   7.306   8.653
    1STR   H26471552   6.964   7.209   8.790
    1STR   H26571553   6.933   7.370   8.799
    1STR   C26671554   6.718   7.382   8.582
    1STR   H26771555   6.777   7.473   8.589
    1STR   H26871556   6.721   7.360   8.477
    1STR   O26971557   6.580   7.427   8.606
    1STR   C27071558   6.475   7.330   8.592
    1STR   H27171559   6.496   7.264   8.514
    1STR   C27271560   6.487   7.247   8.714
    1STR   H27371561   6.395   7.230   8.767
    1STR   H27471562   6.548   7.300   8.783
    1STR   H27571563   6.533   7.152   8.690
    1STR   C27671564   6.330   7.378   8.562
    1STR   H27771565   6.289   7.430   8.647
    1STR   H27871566   6.337   7.452   8.482
    1STR   O27971567   6.238   7.276   8.516
    1STR   C28071568   6.212   7.164   8.603
    1STR   H28171569   6.307   7.117   8.619
    1STR   C28271570   6.146   7.210   8.732
    1STR   H28371571   6.049   7.249   8.706
    1STR   H28471572   6.198   7.289   8.786
    1STR   H28571573   6.135   7.127   8.801
    1STR   C28671574   6.126   7.051   8.541
    1STR   H28771575   6.028   7.089   8.518
    1STR   H28871576   6.169   7.021   8.446
    1STR   O28971577   6.109   6.937   8.629
    1STR   C29071578   6.213   6.839   8.623
    1STR   H29171579   6.239   6.831   8.519
    1STR   C29271580   6.336   6.884   8.701
    1STR   H29371581   6.305   6.949   8.780
    1STR   H29471582   6.407   6.942   8.643
    1STR   H29571583   6.392   6.800   8.743
    1STR   C29671584   6.173   6.697   8.668
    1STR   H29771585   6.164   6.693   8.777
    1STR   H29871586   6.078   6.667   8.626
    1STR   O29971587   6.277   6.611   8.621
    1STR   C30071588   6.283   6.478   8.669
    1STR   H30171589   6.256   6.481   8.775
    1STR   C30271590   6.185   6.389   8.593
    1STR   H30371591   6.207   6.390   8.487
    1STR   H30471592   6.082   6.422   8.607
    1STR   H30571593   6.192   6.286   8.628
    1STR   C30671594   6.428   6.425   8.661
    1STR   H30771595   6.495   6.511   8.670
    1STR   H30871596   6.444   6.366   8.751
    1STR   O30971597   6.463   6.348   8.545
    1STR    H1R71598   6.616   6.266   8.662
    1STR    H1S71599   6.610   6.048   8.548
    1STR    H1T71600   6.492   6.110   8.432
    1STR    H1U71601   6.448   6.094   8.601
    1STR    H1V71602   6.666   6.392   8.412
    1STR    H1W71603   6.708   6.226   8.386
    1STR    H1X71604   6.926   6.552   8.707
    1STR    H1Y71605   7.079   6.265   8.525
    1STR    H1Z71606   7.326   6.267   8.490
    1STR    H2071607   7.555   6.556   8.567
    1STR    H2171608   7.532   6.392   8.623
    1STR    H2271609   7.538   6.422   8.452
    1STR    H2371610   7.452   6.718   8.621
    1STR    H2771611   7.104   6.668   8.667
    1STR    H2871612   7.077   6.341   7.608
    1STR    H2971613   7.197   6.456   7.427
    1STR    H2A71614   7.099   6.749   7.263
    1STR    H2B71615   7.082   6.595   7.180
    1STR    H2C71616   7.222   6.629   7.286
    1HEX    C0171617   0.324   9.297   8.843
    1HEX    C0271618   0.194   0.061   8.862
    1HEX    C0371619   0.070   9.315   8.916
    1HEX    O0471620   0.076   9.230   9.002
    1HEX    O0571621   9.279   0.045   8.861
    1HEX    C0671622   9.151   9.304   8.871
    1HEX    C0771623   9.044   0.060   8.949
    1HEX    C0871624   9.094   0.203   8.981
    1HEX    O0971625   9.096   0.303   8.881
    1HEX    C0A71626   9.214   0.368   8.873
    1HEX    O0B71627   0.002   0.312   8.858
    1HEX    C0C71628   9.208   0.517   8.895
    1HEX    C0D71629   9.135   0.560   9.023
    1HEX    C0F71630   8.908   0.053   8.881
    1HEX    O0G71631   8.870   9.236   8.872
    1HEX    C0H71632   8.759   9.195   8.815
    1HEX    O0I71633   8.687   9.267   8.748
    1HEX    C0J71634   8.739   9.045   8.821
    1HEX    C0K71635   8.790   8.983   8.949
    1HEX    C0N71636   9.012   9.308   9.079
    1HEX    O0O71637   9.120   9.243   9.133
    1HEX    C0P71638   9.205   0.000   9.208
    1HEX    C0Q71639   9.148   0.057   0.018
    1HEX    C0R71640   9.256   0.023   0.116
    1HEX    O0S71641   0.061   0.054   0.063
    1HEX    C0T71642   0.166   0.049   0.136
    1HEX    O0U71643   0.172   0.048   0.258
    1HEX    C0V71644   0.287   0.053   0.051
    1HEX    C0W71645   0.272   9.313   9.230
    1HEX    C0Y71646   9.117   0.207   0.013
    1HEX    O0Z71647   9.087   0.251   0.145
    1HEX    C1071648   9.189   0.282   0.218
    1HEX    O1171649   9.303   0.280   0.177
    1HEX    C1271650   9.162   0.288   0.365
    1HEX    C1371651   9.221   0.168   0.429
    1HEX    C1571652   9.017   9.318   0.066
    1HEX    O1671653   9.008   9.181   0.050
    1HEX    C1771654   8.888   9.135   0.037
    1HEX    O1871655   8.812   9.159   9.263
    1HEX    C1971656   8.852   9.046   0.152
    1HEX    C1A71657   8.920   9.089   0.280
    1HEX    H1D71658   0.386   0.033   8.775
    1HEX    H1E71659   0.383   9.290   8.932
    1HEX    H1F71660   0.163   0.112   8.772
    1HEX    H1G71661   0.213   0.143   8.931
    1HEX    H1H71662   9.159   9.203   8.910
    1HEX    H1I71663   9.120   9.298   8.768
    1HEX    H1J71664   9.193   0.194   9.022
    1HEX    H1K71665   9.044   0.247   9.064
    1HEX    H1M71666   9.169   0.564   8.807
    1HEX    H1N71667   9.311   0.548   8.902
    1HEX    H1O71668   9.193   0.625   9.087
    1HEX    H1P71669   9.101   0.476   9.084
    1HEX    H1R71670   8.911   0.104   8.786
    1HEX    H1S71671   8.835   0.103   8.942
    1HEX    H1T71672   8.777   8.993   8.735
    1HEX    H1U71673   8.636   9.026   8.814
    1HEX    H1V71674   8.744   8.889   8.974
    1HEX    H1W71675   8.780   9.052   9.032
    1HEX    H1Y71676   8.946   9.223   9.073
    1HEX    H1Z71677   8.958   0.053   9.145
    1HEX    H2071678   9.268   0.070   9.154
    1HEX    H2171679   9.277   9.242   9.228
    1HEX    H2271680   9.253   9.244   0.144
    1HEX    H2371681   9.241   0.054   0.215
    1HEX    H2471682   0.362   0.005   0.113
    1HEX    H2571683   0.305   0.158   0.044
    1HEX    H2671684   0.262   0.075   9.159
    1HEX    H2771685   0.179   9.259   9.221
    1HEX    H2971686   9.030   0.228   9.274
    1HEX    H2A71687   9.194   0.267   9.290
    1HEX    H2B71688   9.057   0.303   0.385
    1HEX    H2C71689   9.219   0.368   0.409
    1HEX    H2D71690   9.263   0.197   0.524
    1HEX    H2E71691   9.311   0.130   0.382
    1HEX    H2G71692   8.931   0.043   0.019
    1HEX    H2H71693   9.004   0.022   0.170
    1HEX    H2I71694   8.890   8.953   0.121
    1HEX    H2J71695   8.745   9.039   0.167
    1HEX    H2K71696   9.017   9.137   0.267
    1HEX    H2M71697   8.946   9.002   0.339
    1STR    S0071698   0.325   9.131   8.775
    1STR    S0E71699   8.996   0.655   8.965
    1STR    S0M71700   8.958   8.940   8.911
    1STR    S0X71701   0.404   9.202   9.169
    1STR    S1471702   9.081   0.053   0.420
    1STR    S1B71703   8.814   9.202   0.368
    1HEX    C0171704   0.364   9.102   1.686
    1HEX    C0271705   0.399   9.041   1.816
    1HEX    C0371706   0.272   8.999   1.892
    1HEX    O0471707   0.226   8.896   1.846
    1HEX    O0571708   0.211   9.081   1.994
    1HEX    C0671709   0.114   9.023   2.089
    1HEX    C0771710   0.001   9.084   2.186
    1HEX    C0871711   0.066   9.204   2.256
    1HEX    O0971712   0.092   9.303   2.158
    1HEX    C0A71713   0.020   0.092   2.156
    1HEX    O0B71714   9.234   0.107   2.216
    1HEX    C0C71715   0.078   0.198   2.065
    1HEX    C0D71716   0.156   0.310   2.122
    1HEX    C0F71717   9.186   9.142   2.142
    1HEX    O0G71718   9.078   9.058   2.098
    1HEX    C0H71719   8.951   9.109   2.109
    1HEX    O0I71720   8.914   9.191   2.191
    1HEX    C0J71721   8.860   9.067   1.996
    1HEX    C0K71722   8.715   9.103   2.014
    1HEX    C0N71723   9.260   8.975   2.281
    1HEX    O0O71724   0.030   8.886   2.340
    1HEX    C0P71725   0.104   8.952   2.437
    1HEX    C0Q71726   0.189   8.866   2.528
    1HEX    C0R71727   0.316   8.812   2.458
    1HEX    O0S71728   0.444   8.866   2.475
    1HEX    C0T71729   0.533   8.818   2.386
    1HEX    O0U71730   0.606   8.721   2.404
    1HEX    C0V71731   0.519   8.879   2.247
    1HEX    C0W71732   0.454   9.017   2.248
    1HEX    C0Y71733   0.217   8.958   2.649
    1HEX    O0Z71734   0.186   9.095   2.633
    1HEX    C1071735   0.271   9.169   2.567
    1HEX    O1171736   0.365   9.129   2.503
    1HEX    C1271737   0.237   9.312   2.573
    1HEX    C1371738   0.193   0.037   2.713
    1HEX    C1571739   0.105   8.740   2.554
    1HEX    O1671740   0.141   8.660   2.664
    1HEX    C1771741   0.237   8.694   2.748
    1HEX    O1871742   0.356   8.695   2.725
    1HEX    C1971743   0.183   8.747   2.877
    1HEX    C1A71744   0.030   8.771   2.871
    1HEX    H1D71745   0.426   9.066   1.604
    1HEX    H1E71746   0.261   9.082   1.665
    1HEX    H1F71747   0.472   9.108   1.858
    1HEX    H1G71748   0.456   8.950   1.799
    1HEX    H1H71749   0.178   8.975   2.161
    1HEX    H1I71750   0.074   8.944   2.033
    1HEX    H1J71751   0.163   9.186   2.298
    1HEX    H1K71752   0.008   9.242   2.339
    1HEX    H1M71753   9.312   0.251   2.024
    1HEX    H1N71754   0.142   0.153   1.989
    1HEX    H1O71755   0.151   0.388   2.049
    1HEX    H1P71756   0.259   0.287   2.140
    1HEX    H1R71757   9.202   9.225   2.078
    1HEX    H1S71758   9.146   9.192   2.229
    1HEX    H1T71759   8.885   8.963   1.975
    1HEX    H1U71760   8.874   9.118   1.902
    1HEX    H1V71761   8.693   9.201   1.973
    1HEX    H1W71762   8.683   9.099   2.117
    1HEX    H1Y71763   9.190   8.910   2.229
    1HEX    H1Z71764   9.195   9.021   2.357
    1HEX    H2071765   0.032   9.009   2.496
    1HEX    H2171766   0.173   9.017   2.390
    1HEX    H2271767   0.296   8.830   2.354
    1HEX    H2371768   0.327   8.704   2.471
    1HEX    H2471769   0.464   8.812   2.184
    1HEX    H2571770   0.617   8.885   2.203
    1HEX    H2671771   0.495   9.084   2.320
    1HEX    H2771772   0.348   9.018   2.267
    1HEX    H2971773   0.318   8.945   2.686
    1HEX    H2A71774   0.147   8.941   2.729
    1HEX    H2B71775   0.160   0.001   2.498
    1HEX    H2C71776   0.319   0.049   2.535
    1HEX    H2D71777   0.125   9.287   2.760
    1HEX    H2E71778   0.141   0.133   2.706
    1HEX    H2G71779   0.103   8.675   2.467
    1HEX    H2H71780   0.003   8.772   2.562
    1HEX    H2I71781   0.234   8.841   2.894
    1HEX    H2J71782   0.219   8.684   2.958
    1HEX    H2K71783   9.316   8.798   2.774
    1HEX    H2M71784   0.003   8.859   2.926
    1STR    S0071785   0.372   9.279   1.710
    1STR    S0E71786   0.075   0.356   2.270
    1STR    S0M71787   8.641   8.973   1.916
    1STR    S0X71788   0.488   9.098   2.096
    1STR    S1471789   0.341   0.062   2.813
    1STR    S1B71790   9.251   8.630   2.923
    1HEX    C0171791   0.381   9.239   4.415
    1HEX    C0271792   0.237   9.282   4.406
    1HEX    C0371793   0.168   9.209   4.294
    1HEX    O0471794   0.228   9.146   4.207
    1HEX    O0571795   0.040   9.213   4.311
    1HEX    C0671796   9.281   9.116   4.248
    1HEX    C0771797   9.147   9.119   4.318
    1HEX    C0871798   9.085   9.242   4.251
    1HEX    O0971799   8.967   9.300   4.294
    1HEX    C0A71800   8.912   0.074   4.217
    1HEX    O0B71801   8.903   0.072   4.095
    1HEX    C0C71802   8.866   0.192   4.296
    1HEX    C0D71803   8.954   0.236   4.412
    1HEX    C0F71804   9.053   9.005   4.277
    1HEX    O0G71805   9.095   8.872   4.263
    1HEX    C0H71806   9.140   8.834   4.146
    1HEX    O0I71807   9.170   8.909   4.055
    1HEX    C0J71808   9.152   8.683   4.131
    1HEX    C0K71809   9.289   8.626   4.170
    1HEX    C0N71810   9.169   9.106   4.471
    1HEX    O0O71811   9.272   9.166   4.556
    1HEX    C0P71812   9.271   9.298   4.606
    1HEX    C0Q71813   9.306   0.017   4.755
    1HEX    C0R71814   0.109   9.284   4.835
    1HEX    O0S71815   0.238   9.300   4.779
    1HEX    C0T71816   0.354   9.268   4.846
    1HEX    O0U71817   0.378   9.181   4.927
    1HEX    C0V71818   0.464   0.043   4.817
    1HEX    C0W71819   0.423   0.137   4.707
    1HEX    C0Y71820   0.013   0.162   4.745
    1HEX    O0Z71821   0.042   0.223   4.869
    1HEX    C1071822   9.275   0.298   4.933
    1HEX    O1171823   9.163   0.325   4.894
    1HEX    C1271824   0.003   0.344   5.065
    1HEX    C1371825   0.041   0.490   5.066
    1HEX    C1571826   9.181   0.010   4.845
    1HEX    O1671827   9.129   9.200   4.857
    1HEX    C1771828   9.049   9.145   4.767
    1HEX    O1871829   9.054   9.025   4.744
    1HEX    C1971830   8.935   9.231   4.715
    1HEX    C1A71831   8.914   9.260   4.566
    1HEX    H1D71832   0.389   9.140   4.373
    1HEX    H1E71833   0.404   9.224   4.519
    1HEX    H1F71834   0.223   0.069   4.402
    1HEX    H1G71835   0.190   9.245   4.497
    1HEX    H1H71836   0.004   9.019   4.249
    1HEX    H1I71837   9.271   9.136   4.144
    1HEX    H1J71838   9.069   9.220   4.145
    1HEX    H1K71839   9.157   9.320   4.255
    1HEX    H1M71840   8.762   0.182   4.326
    1HEX    H1N71841   8.869   0.273   4.225
    1HEX    H1O71842   8.909   0.212   4.507
    1HEX    H1P71843   8.947   0.344   4.405
    1HEX    H1R71844   9.003   9.031   4.186
    1HEX    H1S71845   8.975   8.996   4.350
    1HEX    H1T71846   9.132   8.654   4.030
    1HEX    H1U71847   9.069   8.636   4.184
    1HEX    H1V71848   9.313   8.550   4.097
    1HEX    H1W71849   9.283   8.573   4.264
    1HEX    H1Y71850   9.198   9.003   4.466
    1HEX    H1Z71851   9.078   9.089   4.522
    1HEX    H2071852   9.172   0.015   4.595
    1HEX    H2171853   0.010   0.036   4.535
    1HEX    H2271854   0.092   9.186   4.860
    1HEX    H2371855   0.110   0.008   4.934
    1HEX    H2471856   0.555   9.309   4.804
    1HEX    H2571857   0.490   0.096   4.908
    1HEX    H2671858   0.364   0.090   4.629
    1HEX    H2771859   0.505   0.175   4.650
    1HEX    H2971860   9.244   0.204   4.700
    1HEX    H2A71861   0.095   0.178   4.677
    1HEX    H2B71862   0.091   0.284   5.083
    1HEX    H2C71863   9.256   0.317   5.145
    1HEX    H2D71864   0.086   0.515   4.971
    1HEX    H2E71865   0.128   0.498   5.127
    1HEX    H2G71866   9.106   0.084   4.817
    1HEX    H2H71867   9.208   0.040   4.945
    1HEX    H2I71868   8.929   0.005   4.768
    1HEX    H2J71869   8.853   9.169   4.747
    1HEX    H2K71870   9.003   9.280   4.512
    1HEX    H2M71871   8.852   0.023   4.540
    1STR    S0071872   0.494   0.025   4.322
    1STR    S0E71873   9.134   0.191   4.412
    1STR    S0M71874   0.111   8.742   4.179
    1STR    S0X71875   0.324   0.267   4.779
    1STR    S1471876   9.233   0.613   5.117
    1STR    S1B71877   8.817   9.130   4.495
    1HEX    C0171878   0.317   9.225   6.791
    1HEX    C0271879   0.298   9.088   6.735
    1HEX    C0371880   0.179   9.070   6.645
    1HEX    O0471881   0.186   8.995   6.552
    1HEX    O0571882   0.071   9.132   6.682
    1HEX    C0671883   9.271   9.105   6.614
    1HEX    C0771884   9.156   9.176   6.685
    1HEX    C0871885   9.203   9.316   6.718
    1HEX    O0971886   9.106   0.082   6.771
    1HEX    C0A71887   9.144   0.193   6.835
    1HEX    O0B71888   9.105   0.223   6.947
    1HEX    C0C71889   9.240   0.281   6.760
    1HEX    C0D71890   0.043   0.300   6.840
    1HEX    C0F71891   9.044   9.193   6.584
    1HEX    O0G71892   8.950   9.088   6.574
    1HEX    C0H71893   8.965   8.987   6.490
    1HEX    O0I71894   9.070   8.943   6.448
    1HEX    C0J71895   8.831   8.930   6.446
    1HEX    C0K71896   8.738   8.918   6.565
    1HEX    C0N71897   9.110   9.101   6.810
    1HEX    O0O71898   9.210   9.030   6.880
    1HEX    C0P71899   9.312   9.096   6.953
    1HEX    C0Q71900   9.274   9.165   7.083
    1HEX    C0R71901   0.076   9.151   7.172
    1HEX    O0S71902   0.179   9.249   7.145
    1HEX    C0T71903   0.298   9.232   7.201
    1HEX    O0U71904   0.341   9.125   7.237
    1HEX    C0V71905   0.384   0.034   7.226
    1HEX    C0W71906   0.321   0.133   7.323
    1HEX    C0Y71907   9.243   9.315   7.069
    1HEX    O0Z71908   9.166   0.045   7.178
    1HEX    C1071909   9.222   0.066   7.295
    1HEX    O1171910   0.022   0.085   7.317
    1HEX    C1271911   9.126   0.054   7.410
    1HEX    C1371912   9.179   9.265   7.503
    1HEX    C1571913   9.145   9.107   7.141
    1HEX    O1671914   9.136   8.969   7.151
    1HEX    C1771915   9.020   8.919   7.118
    1HEX    O1871916   8.973   8.924   7.006
    1HEX    C1971917   8.960   8.835   7.227
    1HEX    C1A71918   8.829   8.872   7.306
    1HEX    H1D71919   0.383   9.219   6.876
    1HEX    H1E71920   0.226   9.259   6.838
    1HEX    H1F71921   0.284   9.021   6.818
    1HEX    H1G71922   0.388   9.057   6.681
    1HEX    H1H71923   9.253   8.999   6.605
    1HEX    H1I71924   9.285   9.139   6.512
    1HEX    H1J71925   9.239   0.037   6.626
    1HEX    H1K71926   9.283   9.313   6.791
    1HEX    H1M71927   9.199   0.376   6.730
    1HEX    H1N71928   9.270   0.234   6.671
    1HEX    H1O71929   0.123   0.334   6.778
    1HEX    H1P71930   0.062   0.207   6.891
    1HEX    H1R71931   9.086   9.223   6.491
    1HEX    H1S71932   8.990   9.284   6.600
    1HEX    H1T71933   8.851   8.835   6.399
    1HEX    H1U71934   8.785   8.992   6.370
    1HEX    H1V71935   8.678   9.007   6.574
    1HEX    H1W71936   8.793   8.917   6.659
    1HEX    H1Y71937   9.039   9.024   6.781
    1HEX    H1Z71938   9.053   9.165   6.876
    1HEX    H2071939   0.053   9.164   6.899
    1HEX    H2171940   0.059   9.015   6.978
    1HEX    H2271941   0.114   9.048   7.177
    1HEX    H2371942   0.034   9.167   7.269
    1HEX    H2471943   0.423   0.076   7.136
    1HEX    H2571944   0.472   0.002   7.277
    1HEX    H2671945   0.283   0.081   7.408
    1HEX    H2771946   0.234   0.177   7.283
    1HEX    H2971947   9.177   9.319   6.985
    1HEX    H2A71948   0.008   0.059   7.048
    1HEX    H2B71949   9.024   0.038   7.376
    1HEX    H2C71950   9.130   0.149   7.460
    1HEX    H2D71951   9.178   9.299   7.605
    1HEX    H2E71952   9.281   9.242   7.483
    1HEX    H2G71953   9.061   9.146   7.085
    1HEX    H2H71954   9.126   9.145   7.240
    1HEX    H2I71955   9.044   8.810   7.287
    1HEX    H2J71956   8.940   8.745   7.172
    1HEX    H2K71957   8.813   8.788   7.372
    1HEX    H2M71958   8.746   8.866   7.239
    1STR    S0071959   0.380   0.014   6.659
    1STR    S0E71960   0.007   0.417   6.964
    1STR    S0M71961   8.634   8.772   6.555
    1STR    S0X71962   0.442   0.257   7.371
    1STR    S1471963   9.085   9.113   7.497
    1STR    S1B71964   8.803   9.008   7.430
    1HEX    C0171965   0.032   2.105   8.701
    1HEX    C0271966   0.093   2.034   8.818
    1HEX    C0371967   9.295   1.977   8.894
    1HEX    O0471968   9.217   1.896   8.844
    1HEX    O0571969   9.271   2.047   9.001
    1HEX    C0671970   9.137   2.054   9.036
    1HEX    C0771971   9.096   2.110   9.170
    1HEX    C0871972   9.119   2.260   9.195
    1HEX    O0971973   9.040   2.314   9.299
    1HEX    C0A71974   9.068   2.306   0.107
    1HEX    O0B71975   9.161   2.248   0.160
    1HEX    C0C71976   8.974   2.388   0.190
    1HEX    C0D71977   9.041   2.513   0.236
    1HEX    C0F71978   8.948   2.072   9.179
    1HEX    O0G71979   8.878   2.061   9.055
    1HEX    C0H71980   8.866   2.155   8.960
    1HEX    O0I71981   8.892   2.274   8.970
    1HEX    C0J71982   8.843   2.091   8.825
    1HEX    C0K71983   8.710   2.014   8.806
    1HEX    C0N71984   9.176   2.034   9.269
    1HEX    O0O71985   9.314   2.057   9.240
    1HEX    C0P71986   0.086   2.117   0.007
    1HEX    C0Q71987   0.141   2.004   0.092
    1HEX    C0R71988   0.230   1.915   0.006
    1HEX    O0S71989   0.328   1.954   9.234
    1HEX    C0T71990   0.328   1.897   9.113
    1HEX    O0U71991   0.254   1.933   9.024
    1HEX    C0V71992   0.434   1.791   9.085
    1HEX    C0W71993   0.539   1.813   8.974
    1HEX    C0Y71994   0.222   2.054   0.202
    1HEX    O0Z71995   0.295   1.961   0.279
    1HEX    C1071996   0.304   1.983   0.409
    1HEX    O1171997   0.222   2.043   0.477
    1HEX    C1271998   0.429   1.925   0.468
    1HEX    C1371999   0.507   2.028   0.551
    1HEX    C1572000   0.019   1.938   0.162
    1HEX    O1672001   0.022   1.903   0.296
    1HEX    C1772002   9.224   1.876   0.348
    1HEX    O1872003   9.145   1.793   0.307
    1HEX    C1972004   9.179   1.979   0.445
    1HEX    C1A72005   9.079   2.070   0.373
    1HEX    H1D72006   9.312   2.029   8.634
    1HEX    H1E72007   0.102   2.165   8.644
    1HEX    H1F72008   0.144   2.104   8.885
    1HEX    H1G72009   0.166   1.961   8.787
    1HEX    H1H72010   9.089   1.958   9.025
    1HEX    H1I72011   9.095   2.118   8.963
    1HEX    H1J72012   9.080   2.313   9.110
    1HEX    H1K72013   9.224   2.288   9.205
    1HEX    H1M72014   8.943   2.332   0.278
    1HEX    H1N72015   8.889   2.414   0.130
    1HEX    H1O72016   9.118   2.485   0.305
    1HEX    H1P72017   8.968   2.574   0.288
    1HEX    H1R72018   8.902   2.139   9.245
    1HEX    H1S72019   8.936   1.974   9.226
    1HEX    H1T72020   8.928   2.024   8.809
    1HEX    H1U72021   8.853   2.169   8.750
    1HEX    H1V72022   8.718   1.954   8.716
    1HEX    H1W72023   8.630   2.086   8.790
    1HEX    H1Y72024   9.154   1.930   9.254
    1HEX    H1Z72025   9.134   2.054   0.046
    1HEX    H2072026   0.045   2.201   0.062
    1HEX    H2172027   0.166   2.160   9.266
    1HEX    H2272028   0.159   1.856   9.275
    1HEX    H2372029   0.293   1.858   0.071
    1HEX    H2472030   0.382   1.700   9.060
    1HEX    H2572031   0.484   1.776   9.180
    1HEX    H2672032   0.620   1.745   8.987
    1HEX    H2772033   0.593   1.905   8.988
    1HEX    H2972034   0.155   2.106   0.265
    1HEX    H2A72035   0.284   2.124   0.152
    1HEX    H2B72036   0.488   1.878   0.393
    1HEX    H2C72037   0.396   1.847   0.535
    1HEX    H2D72038   0.577   1.973   0.613
    1HEX    H2E72039   0.432   2.073   0.614
    1HEX    H2G72040   9.288   1.863   0.103
    1HEX    H2H72041   9.274   2.023   0.177
    1HEX    H2I72042   9.268   2.029   0.483
    1HEX    H2J72043   9.133   1.925   0.527
    1HEX    H2K72044   9.070   2.044   0.268
    1HEX    H2M72045   9.111   2.172   0.374
    1STR    S0072046   9.220   2.210   8.771
    1STR    S0E72047   9.112   2.608   0.102
    1STR    S0M72048   8.657   1.902   8.940
    1STR    S0X72049   0.497   1.809   8.797
    1STR    S1472050   0.595   2.170   0.482
    1STR    S1B72051   8.916   2.064   0.447
    1HEX    C0172052   0.140   1.836   1.825
    1HEX    C0272053   0.219   1.943   1.899
    1HEX    C0372054   0.139   2.025   1.998
    1HEX    O0472055   0.185   2.044   2.110
    1HEX    O0572056   0.013   2.061   1.962
    1HEX    C0672057   9.273   2.157   2.047
    1HEX    C0772058   9.122   2.200   2.056
    1HEX    C0872059   9.104   2.353   2.028
    1HEX    O0972060   9.043   2.379   1.904
    1HEX    C0A72061   9.003   2.500   1.866
    1HEX    O0B72062   8.924   2.515   1.776
    1HEX    C0C72063   9.061   2.620   1.936
    1HEX    C0D72064   9.038   2.751   1.858
    1HEX    C0F72065   9.027   2.111   1.972
    1HEX    O0G72066   9.081   1.984   1.956
    1HEX    C0H72067   9.059   1.919   1.845
    1HEX    O0I72068   8.991   1.951   1.751
    1HEX    C0J72069   9.126   1.787   1.835
    1HEX    C0K72070   9.167   1.723   1.965
    1HEX    C0N72071   9.075   2.181   2.202
    1HEX    O0O72072   9.115   2.278   2.294
    1HEX    C0P72073   9.254   2.288   2.307
    1HEX    C0Q72074   9.288   2.397   2.401
    1HEX    C0R72075   9.261   2.339   2.539
    1HEX    O0S72076   0.048   2.255   2.572
    1HEX    C0T72077   0.149   2.308   2.637
    1HEX    O0U72078   0.143   2.406   2.707
    1HEX    C0V72079   0.277   2.238   2.609
    1HEX    C0W72080   0.402   2.307   2.665
    1HEX    C0Y72081   0.114   2.433   2.373
    1HEX    O0Z72082   0.151   2.532   2.462
    1HEX    C1072083   0.274   2.552   2.500
    1HEX    O1172084   0.372   2.504   2.449
    1HEX    C1272085   0.286   2.642   2.621
    1HEX    C1372086   0.158   2.687   2.697
    1HEX    C1572087   9.207   2.519   2.366
    1HEX    O1672088   9.078   2.514   2.421
    1HEX    C1772089   8.985   2.558   2.341
    1HEX    O1872090   8.989   2.661   2.274
    1HEX    C1972091   8.876   2.458   2.326
    1HEX    C1A72092   8.756   2.521   2.260
    1HEX    H1D72093   0.132   1.744   1.882
    1HEX    H1E72094   0.042   1.879   1.817
    1HEX    H1F72095   0.269   2.012   1.831
    1HEX    H1G72096   0.294   1.896   1.960
    1HEX    H1H72097   0.018   2.243   2.034
    1HEX    H1I72098   9.293   2.115   2.143
    1HEX    H1J72099   9.199   2.406   2.035
    1HEX    H1K72100   9.041   2.400   2.102
    1HEX    H1M72101   9.168   2.600   1.939
    1HEX    H1N72102   9.023   2.627   2.037
    1HEX    H1O72103   9.107   2.753   1.776
    1HEX    H1P72104   9.079   2.832   1.908
    1HEX    H1R72105   9.001   2.157   1.878
    1HEX    H1S72106   8.931   2.095   2.019
    1HEX    H1T72107   9.199   1.789   1.758
    1HEX    H1U72108   9.046   1.730   1.793
    1HEX    H1V72109   9.210   1.625   1.949
    1HEX    H1W72110   9.077   1.724   2.020
    1HEX    H1Y72111   9.099   2.087   2.246
    1HEX    H1Z72112   8.968   2.179   2.204
    1HEX    H2072113   9.301   2.319   2.216
    1HEX    H2172114   9.293   2.194   2.341
    1HEX    H2272115   9.166   2.285   2.543
    1HEX    H2372116   9.254   2.419   2.609
    1HEX    H2472117   0.280   2.234   2.504
    1HEX    H2572118   0.270   2.136   2.640
    1HEX    H2672119   0.383   2.398   2.716
    1HEX    H2772120   0.471   2.324   2.586
    1HEX    H2972121   0.125   2.472   2.273
    1HEX    H2A72122   0.175   2.345   2.376
    1HEX    H2B72123   0.350   2.722   2.592
    1HEX    H2C72124   0.343   2.588   2.692
    1HEX    H2D72125   0.171   2.788   2.730
    1HEX    H2E72126   0.155   2.625   2.786
    1HEX    H2G72127   9.202   2.517   2.258
    1HEX    H2H72128   9.256   2.612   2.390
    1HEX    H2I72129   8.855   2.417   2.424
    1HEX    H2J72130   8.910   2.373   2.272
    1HEX    H2K72131   8.751   2.619   2.301
    1HEX    H2M72132   8.669   2.469   2.293
    1STR    S0072133   0.194   1.796   1.658
    1STR    S0E72134   8.865   2.799   1.822
    1STR    S0M72135   9.279   1.796   2.078
    1STR    S0X72136   0.492   2.208   2.779
    1STR    S1472137   9.310   2.683   2.627
    1STR    S1B72138   8.758   2.540   2.079
    1HEX    C0172139   9.249   2.303   4.216
    1HEX    C0272140   9.244   2.157   4.246
    1HEX    C0372141   9.107   2.105   4.213
    1HEX    O0472142   9.046   2.150   4.117
    1HEX    O0572143   9.050   2.062   4.320
    1HEX    C0672144   9.003   2.172   4.395
    1HEX    C0772145   8.965   2.147   4.535
    1HEX    C0872146   8.995   2.268   4.629
    1HEX    O0972147   8.986   2.387   4.558
    1HEX    C0A72148   9.034   2.500   4.607
    1HEX    O0B72149   8.971   2.602   4.588
    1HEX    C0C72150   9.182   2.502   4.644
    1HEX    C0D72151   9.239   2.603   4.744
    1HEX    C0F72152   8.819   2.131   4.531
    1HEX    O0G72153   8.776   2.001   4.486
    1HEX    C0H72154   8.771   1.970   4.355
    1HEX    O0I72155   8.793   2.045   4.261
    1HEX    C0J72156   8.709   1.837   4.324
    1HEX    C0K72157   8.664   1.756   4.446
    1HEX    C0N72158   9.028   2.020   4.582
    1HEX    O0O72159   9.164   1.996   4.554
    1HEX    C0P72160   9.267   2.087   4.586
    1HEX    C0Q72161   0.025   2.051   4.712
    1HEX    C0R72162   0.137   1.949   4.663
    1HEX    O0S72163   0.248   2.004   4.595
    1HEX    C0T72164   0.237   2.074   4.485
    1HEX    O0U72165   0.201   2.032   4.376
    1HEX    C0V72166   0.285   2.215   4.509
    1HEX    C0W72167   0.204   2.323   4.448
    1HEX    C0Y72168   0.123   2.149   4.778
    1HEX    O0Z72169   0.103   2.280   4.738
    1HEX    C1072170   0.060   2.347   4.835
    1HEX    O1172171   9.262   2.339   4.867
    1HEX    C1272172   0.171   2.406   4.919
    1HEX    C1372173   0.301   2.444   4.846
    1HEX    C1572174   9.222   2.042   4.817
    1HEX    O1672175   9.166   1.928   4.882
    1HEX    C1772176   9.044   1.872   4.865
    1HEX    O1872177   8.997   1.821   4.764
    1HEX    C1972178   8.971   1.850   4.994
    1HEX    C1A72179   8.827   1.892   4.989
    1HEX    H1D72180   0.030   2.326   4.201
    1HEX    H1E72181   9.186   2.335   4.133
    1HEX    H1F72182   9.264   2.147   4.349
    1HEX    H1G72183   0.006   2.102   4.207
    1HEX    H1H72184   8.933   2.233   4.339
    1HEX    H1I72185   9.084   2.233   4.415
    1HEX    H1J72186   9.090   2.262   4.678
    1HEX    H1K72187   8.925   2.279   4.711
    1HEX    H1M72188   9.224   2.549   4.556
    1HEX    H1N72189   9.229   2.406   4.641
    1HEX    H1O72190   9.211   2.693   4.697
    1HEX    H1P72191   0.028   2.601   4.737
    1HEX    H1R72192   8.782   2.216   4.474
    1HEX    H1S72193   8.779   2.159   4.626
    1HEX    H1T72194   8.778   1.797   4.255
    1HEX    H1U72195   8.626   1.847   4.255
    1HEX    H1V72196   8.624   1.819   4.524
    1HEX    H1W72197   8.746   1.700   4.491
    1HEX    H1Y72198   8.981   1.932   4.540
    1HEX    H1Z72199   8.996   2.025   4.684
    1HEX    H2072200   9.248   2.192   4.569
    1HEX    H2172201   0.006   2.055   4.504
    1HEX    H2272202   0.107   1.876   4.592
    1HEX    H2372203   0.192   1.901   4.742
    1HEX    H2472204   0.380   2.225   4.467
    1HEX    H2572205   0.300   2.236   4.613
    1HEX    H2672206   0.218   2.416   4.503
    1HEX    H2772207   0.101   2.292   4.456
    1HEX    H2972208   0.228   2.130   4.769
    1HEX    H2A72209   0.123   2.133   4.886
    1HEX    H2B72210   0.190   2.338   5.002
    1HEX    H2C72211   0.131   2.495   4.960
    1HEX    H2D72212   0.290   2.547   4.813
    1HEX    H2E72213   0.319   2.387   4.756
    1HEX    H2G72214   9.142   2.106   4.789
    1HEX    H2H72215   9.243   2.105   4.900
    1HEX    H2I72216   9.027   1.896   5.072
    1HEX    H2J72217   8.973   1.746   5.011
    1HEX    H2K72218   8.760   1.813   5.022
    1HEX    H2M72219   8.806   1.918   4.887
    1STR    S0072220   9.225   2.410   4.350
    1STR    S0E72221   9.193   2.617   4.919
    1STR    S0M72222   8.531   1.647   4.390
    1STR    S0X72223   0.270   2.328   4.280
    1STR    S1472224   0.444   2.421   4.959
    1STR    S1B72225   8.801   2.039   5.086
    1HEX    C0172226   0.330   2.325   6.527
    1HEX    C0272227   0.217   2.281   6.616
    1HEX    C0372228   0.086   2.257   6.550
    1HEX    O0472229   0.018   2.162   6.588
    1HEX    O0572230   0.049   2.354   6.465
    1HEX    C0672231   9.240   2.353   6.407
    1HEX    C0772232   9.117   2.380   6.499
    1HEX    C0872233   9.029   2.497   6.441
    1HEX    O0972234   8.934   2.562   6.520
    1HEX    C0A72235   8.854   2.659   6.472
    1HEX    O0B72236   8.784   2.653   6.374
    1HEX    C0C72237   8.848   2.783   6.559
    1HEX    C0D72238   8.893   2.761   6.703
    1HEX    C0F72239   9.018   2.265   6.473
    1HEX    O0G72240   9.082   2.146   6.497
    1HEX    C0H72241   9.021   2.039   6.464
    1HEX    O0I72242   8.905   2.031   6.423
    1HEX    C0J72243   9.105   1.922   6.501
    1HEX    C0K72244   9.025   1.851   6.606
    1HEX    C0N72245   9.157   2.380   6.653
    1HEX    O0O72246   9.281   2.433   6.707
    1HEX    C0P72247   9.270   2.489   6.839
    1HEX    C0Q72248   0.016   2.428   6.961
    1HEX    C0R72249   0.019   2.276   6.936
    1HEX    O0S72250   0.106   2.214   7.030
    1HEX    C0T72251   0.082   2.092   7.065
    1HEX    O0U72252   9.299   2.031   7.039
    1HEX    C0V72253   0.177   2.025   7.160
    1HEX    C0W72254   0.326   2.036   7.167
    1HEX    C0Y72255   0.158   2.472   6.993
    1HEX    O0Z72256   0.176   2.476   7.134
    1HEX    C1072257   0.250   2.568   7.197
    1HEX    O1172258   0.322   2.653   7.147
    1HEX    C1272259   0.235   2.560   7.346
    1HEX    C1372260   0.288   2.675   7.434
    1HEX    C1572261   9.241   2.480   7.073
    1HEX    O1672262   9.178   2.610   7.057
    1HEX    C1772263   9.044   2.614   7.080
    1HEX    O1872264   8.982   2.525   7.130
    1HEX    C1972265   8.965   2.732   7.030
    1HEX    C1A72266   8.863   2.800   7.125
    1HEX    H1D72267   0.374   2.413   6.570
    1HEX    H1E72268   0.294   2.357   6.430
    1HEX    H1F72269   0.200   2.356   6.693
    1HEX    H1G72270   0.239   2.184   6.660
    1HEX    H1H72271   9.231   2.256   6.361
    1HEX    H1I72272   9.240   2.422   6.323
    1HEX    H1J72273   8.972   2.461   6.359
    1HEX    H1K72274   9.086   2.572   6.394
    1HEX    H1M72275   8.746   2.820   6.557
    1HEX    H1N72276   8.909   2.860   6.513
    1HEX    H1O72277   8.822   2.697   6.752
    1HEX    H1P72278   8.881   2.854   6.757
    1HEX    H1R72279   8.984   2.260   6.369
    1HEX    H1S72280   8.926   2.266   6.531
    1HEX    H1T72281   9.201   1.954   6.542
    1HEX    H1U72282   9.128   1.861   6.416
    1HEX    H1V72283   9.082   1.765   6.634
    1HEX    H1W72284   8.928   1.821   6.567
    1HEX    H1Y72285   9.148   2.279   6.693
    1HEX    H1Z72286   9.081   2.435   6.699
    1HEX    H2072287   9.164   2.491   6.861
    1HEX    H2172288   9.299   2.594   6.845
    1HEX    H2272289   0.058   2.251   6.839
    1HEX    H2372290   9.238   2.234   6.933
    1HEX    H2472291   0.162   1.932   7.120
    1HEX    H2572292   0.137   2.015   7.257
    1HEX    H2672293   0.373   2.021   7.074
    1HEX    H2772294   0.373   1.958   7.225
    1HEX    H2972295   0.176   2.563   6.940
    1HEX    H2A72296   0.231   2.402   6.953
    1HEX    H2B72297   0.285   2.468   7.374
    1HEX    H2C72298   0.129   2.540   7.360
    1HEX    H2D72299   0.396   2.672   7.436
    1HEX    H2E72300   0.259   2.659   7.537
    1HEX    H2G72301   9.270   2.460   7.176
    1HEX    H2H72302   9.161   2.414   7.050
    1HEX    H2I72303   8.910   2.690   6.948
    1HEX    H2J72304   9.037   2.798   6.986
    1HEX    H2K72305   8.831   2.895   7.084
    1HEX    H2M72306   8.904   2.818   7.222
    1STR    S0072307   0.457   2.194   6.523
    1STR    S0E72308   9.060   2.688   6.731
    1STR    S0M72309   9.004   1.954   6.751
    1STR    S0X72310   0.356   2.189   7.248
    1STR    S1472311   0.245   2.845   7.390
    1STR    S1B72312   8.714   2.705   7.159
    1HEX    C0172313   0.284   4.744   8.929
    1HEX    C0272314   0.249   4.865   9.018
    1HEX    C0372315   0.174   4.827   9.144
    1HEX    O0472316   0.224   4.759   9.232
    1HEX    O0572317   0.047   4.859   9.138
    1HEX    C0672318   9.303   4.803   9.027
    1HEX    C0772319   9.155   4.786   9.032
    1HEX    C0872320   9.092   4.923   9.073
    1HEX    O0972321   9.044   5.011   8.974
    1HEX    C0A72322   9.122   5.075   8.894
    1HEX    O0B72323   9.243   5.064   8.895
    1HEX    C0C72324   9.048   5.163   8.793
    1HEX    C0D72325   8.968   5.280   8.846
    1HEX    C0F72326   9.122   4.734   8.891
    1HEX    O0G72327   9.012   4.647   8.896
    1HEX    C0H72328   8.965   4.589   8.787
    1HEX    O0I72329   8.988   4.622   8.671
    1HEX    C0J72330   8.885   4.467   8.825
    1HEX    C0K72331   8.953   4.390   8.939
    1HEX    C0N72332   9.133   4.672   9.134
    1HEX    O0O72333   9.194   4.697   9.256
    1HEX    C0P72334   9.124   4.786   0.021
    1HEX    C0Q72335   9.174   4.761   0.162
    1HEX    C0R72336   0.007   4.768   0.146
    1HEX    O0S72337   0.074   4.821   0.257
    1HEX    C0T72338   0.201   4.794   0.272
    1HEX    O0U72339   0.263   4.710   0.209
    1HEX    C0V72340   0.261   4.861   0.392
    1HEX    C0W72341   0.367   4.961   0.353
    1HEX    C0Y72342   9.118   4.875   0.248
    1HEX    O0Z72343   9.067   4.839   0.374
    1HEX    C1072344   9.142   4.796   0.474
    1HEX    O1172345   9.260   4.766   0.474
    1HEX    C1272346   9.064   4.787   0.599
    1HEX    C1372347   9.090   4.659   0.677
    1HEX    C1572348   9.122   4.628   0.215
    1HEX    O1672349   9.109   4.536   0.110
    1HEX    C1772350   9.008   4.454   0.110
    1HEX    O1872351   8.934   4.440   0.014
    1HEX    C1972352   9.004   4.367   0.232
    1HEX    C1A72353   8.900   4.260   0.248
    1HEX    H1D72354   0.358   4.773   8.856
    1HEX    H1E72355   0.329   4.676   8.997
    1HEX    H1F72356   0.196   4.946   8.969
    1HEX    H1G72357   0.340   4.910   9.055
    1HEX    H1H72358   0.020   4.701   9.027
    1HEX    H1I72359   0.012   4.851   8.934
    1HEX    H1J72360   9.162   4.980   9.132
    1HEX    H1K72361   9.006   4.906   9.138
    1HEX    H1M72362   8.977   5.110   8.733
    1HEX    H1N72363   9.124   5.200   8.724
    1HEX    H1O72364   8.973   5.349   8.763
    1HEX    H1P72365   9.017   5.320   8.933
    1HEX    H1R72366   9.204   4.675   8.850
    1HEX    H1S72367   9.108   4.815   8.821
    1HEX    H1T72368   8.864   4.406   8.739
    1HEX    H1U72369   8.788   4.503   8.861
    1HEX    H1V72370   8.907   4.296   8.961
    1HEX    H1W72371   8.944   4.450   9.029
    1HEX    H1Y72372   9.181   4.581   9.098
    1HEX    H1Z72373   9.032   4.640   9.149
    1HEX    H2072374   9.017   4.774   0.017
    1HEX    H2172375   9.149   4.888   9.316
    1HEX    H2272376   0.037   4.834   0.065
    1HEX    H2372377   0.044   4.670   0.116
    1HEX    H2472378   0.301   4.788   0.460
    1HEX    H2572379   0.183   4.911   0.446
    1HEX    H2672380   0.401   5.015   0.441
    1HEX    H2772381   0.325   5.029   0.283
    1HEX    H2972382   9.031   4.918   0.201
    1HEX    H2A72383   9.193   4.953   0.253
    1HEX    H2B72384   8.964   4.798   0.566
    1HEX    H2C72385   9.090   4.877   0.654
    1HEX    H2D72386   9.045   4.661   0.775
    1HEX    H2E72387   9.196   4.655   0.695
    1HEX    H2G72388   9.023   4.641   0.260
    1HEX    H2H72389   9.186   4.588   0.293
    1HEX    H2I72390   9.032   4.415   0.325
    1HEX    H2J72391   9.085   4.309   0.199
    1HEX    H2K72392   8.951   4.168   0.227
    1HEX    H2M72393   8.823   4.272   0.173
    1STR    S0072394   0.169   4.635   8.839
    1STR    S0E72395   8.788   5.270   8.871
    1STR    S0M72396   9.129   4.351   8.919
    1STR    S0X72397   0.508   4.881   0.279
    1STR    S1472398   9.039   4.508   0.593
    1STR    S1B72399   8.831   4.254   0.415
    1HEX    C0172400   0.241   4.790   1.788
    1HEX    C0272401   0.113   4.711   1.807
    1HEX    C0372402   0.116   4.627   1.931
    1HEX    O0472403   0.108   4.506   1.919
    1HEX    O0572404   0.132   4.696   2.044
    1HEX    C0672405   0.137   4.622   2.165
    1HEX    C0772406   0.023   4.658   2.263
    1HEX    C0872407   0.052   4.788   2.341
    1HEX    O0972408   9.295   4.898   2.298
    1HEX    C0A72409   9.166   4.908   2.330
    1HEX    O0B72410   9.114   4.866   2.432
    1HEX    C0C72411   9.081   4.963   2.217
    1HEX    C0D72412   9.160   5.036   2.112
    1HEX    C0F72413   9.223   4.678   2.176
    1HEX    O0G72414   9.213   4.576   2.085
    1HEX    C0H72415   9.115   4.580   2.006
    1HEX    O0I72416   9.024   4.664   2.007
    1HEX    C0J72417   9.104   4.446   1.945
    1HEX    C0K72418   8.990   4.388   2.023
    1HEX    C0N72419   9.303   4.543   2.358
    1HEX    O0O72420   0.087   4.512   2.448
    1HEX    C0P72421   0.045   4.449   2.568
    1HEX    C0Q72422   0.024   4.294   2.560
    1HEX    C0R72423   0.108   4.232   2.454
    1HEX    O0S72424   0.240   4.273   2.462
    1HEX    C0T72425   0.340   4.206   2.516
    1HEX    O0U72426   0.348   4.089   2.545
    1HEX    C0V72427   0.456   4.297   2.536
    1HEX    C0W72428   0.405   4.440   2.536
    1HEX    C0Y72429   0.061   4.225   2.693
    1HEX    O0Z72430   0.100   4.089   2.683
    1HEX    C1072431   0.186   4.036   2.774
    1HEX    O1172432   0.216   4.084   2.881
    1HEX    C1272433   0.237   3.900   2.737
    1HEX    C1372434   0.387   3.864   2.736
    1HEX    C1572435   9.204   4.258   2.516
    1HEX    O1672436   9.113   4.349   2.562
    1HEX    C1772437   9.068   4.339   2.683
    1HEX    O1872438   9.067   4.240   2.757
    1HEX    C1972439   9.025   4.474   2.725
    1HEX    C1A72440   8.911   4.523   2.639
    1HEX    H1D72441   0.246   4.815   1.683
    1HEX    H1E72442   0.236   4.884   1.843
    1HEX    H1F72443   0.102   4.642   1.724
    1HEX    H1G72444   0.026   4.775   1.811
    1HEX    H1H72445   0.234   4.642   2.203
    1HEX    H1I72446   0.140   4.515   2.152
    1HEX    H1J72447   0.155   4.819   2.327
    1HEX    H1K72448   0.041   4.771   2.446
    1HEX    H1M72449   9.006   5.026   2.260
    1HEX    H1N72450   9.030   4.881   2.168
    1HEX    H1O72451   9.260   5.051   2.145
    1HEX    H1P72452   9.131   5.138   2.100
    1HEX    H1R72453   9.234   4.767   2.117
    1HEX    H1S72454   9.132   4.680   2.235
    1HEX    H1T72455   9.197   4.391   1.959
    1HEX    H1U72456   9.084   4.447   1.839
    1HEX    H1V72457   8.955   4.297   1.979
    1HEX    H1W72458   8.913   4.459   2.006
    1HEX    H1Y72459   9.278   4.453   2.301
    1HEX    H1Z72460   9.213   4.570   2.413
    1HEX    H2072461   9.282   4.502   2.612
    1HEX    H2172462   0.121   4.470   2.641
    1HEX    H2272463   0.077   4.267   2.356
    1HEX    H2372464   0.092   4.126   2.459
    1HEX    H2472465   0.526   4.285   2.457
    1HEX    H2572466   0.508   4.269   2.626
    1HEX    H2672467   0.467   4.503   2.593
    1HEX    H2772468   0.311   4.450   2.585
    1HEX    H2972469   9.299   4.229   2.763
    1HEX    H2A72470   0.142   4.281   2.736
    1HEX    H2B72471   0.195   3.886   2.640
    1HEX    H2C72472   0.190   3.838   2.810
    1HEX    H2D72473   0.448   3.928   2.672
    1HEX    H2E72474   0.397   3.764   2.695
    1HEX    H2G72475   9.181   4.161   2.557
    1HEX    H2H72476   9.191   4.257   2.408
    1HEX    H2I72477   9.111   4.538   2.722
    1HEX    H2J72478   8.996   4.468   2.826
    1HEX    H2K72479   8.907   4.475   2.542
    1HEX    H2M72480   8.922   4.630   2.629
    1STR    S0072481   0.389   4.701   1.844
    1STR    S0E72482   9.151   4.951   1.953
    1STR    S0M72483   9.019   4.388   2.205
    1STR    S0X72484   0.392   4.507   2.371
    1STR    S1472485   0.466   3.855   2.897
    1STR    S1B72486   8.760   4.492   2.730
    1HEX    C0172487   0.249   4.659   4.346
    1HEX    C0272488   0.204   4.551   4.443
    1HEX    C0372489   0.147   4.430   4.372
    1HEX    O0472490   0.211   4.325   4.374
    1HEX    O0572491   0.028   4.442   4.310
    1HEX    C0672492   9.278   4.563   4.296
    1HEX    C0772493   9.127   4.574   4.315
    1HEX    C0872494   9.096   4.711   4.257
    1HEX    O0972495   8.970   4.759   4.292
    1HEX    C0A72496   8.925   4.874   4.250
    1HEX    O0B72497   8.807   4.903   4.246
    1HEX    C0C72498   9.030   4.974   4.216
    1HEX    C0D72499   9.084   5.028   4.349
    1HEX    C0F72500   9.046   4.473   4.231
    1HEX    O0G72501   9.089   4.341   4.245
    1HEX    C0H72502   9.013   4.239   4.205
    1HEX    O0I72503   8.925   4.239   4.119
    1HEX    C0J72504   9.057   4.111   4.269
    1HEX    C0K72505   9.010   4.095   4.414
    1HEX    C0N72506   9.092   4.577   4.463
    1HEX    O0O72507   9.201   4.608   4.548
    1HEX    C0P72508   9.226   4.745   4.559
    1HEX    C0Q72509   9.273   4.783   4.699
    1HEX    C0R72510   0.052   4.683   4.767
    1HEX    O0S72511   0.189   4.648   4.733
    1HEX    C0T72512   0.271   4.600   4.838
    1HEX    O0U72513   0.246   4.616   4.953
    1HEX    C0V72514   0.408   4.536   4.816
    1HEX    C0W72515   0.485   4.482   4.939
    1HEX    C0Y72516   0.023   4.912   4.678
    1HEX    O0Z72517   0.059   4.966   4.802
    1HEX    C1072518   0.158   5.049   4.798
    1HEX    O1172519   0.216   5.084   4.696
    1HEX    C1272520   0.217   5.080   4.930
    1HEX    C1372521   0.126   5.135   5.036
    1HEX    C1572522   9.151   4.816   4.793
    1HEX    O1672523   9.022   4.791   4.739
    1HEX    C1772524   8.980   4.665   4.737
    1HEX    O1872525   9.043   4.571   4.775
    1HEX    C1972526   8.844   4.640   4.681
    1HEX    C1A72527   8.803   4.748   4.582
    1HEX    H1D72528   0.353   4.670   4.344
    1HEX    H1E72529   0.231   4.626   4.246
    1HEX    H1F72530   0.131   4.587   4.515
    1HEX    H1G72531   0.290   4.513   4.495
    1HEX    H1H72532   9.283   4.589   4.196
    1HEX    H1I72533   0.007   4.646   4.341
    1HEX    H1J72534   9.104   4.710   4.148
    1HEX    H1K72535   9.171   4.779   4.293
    1HEX    H1M72536   8.983   5.047   4.154
    1HEX    H1N72537   9.105   4.935   4.148
    1HEX    H1O72538   9.045   4.979   4.438
    1HEX    H1P72539   9.069   5.133   4.362
    1HEX    H1R72540   9.036   4.502   4.128
    1HEX    H1S72541   8.947   4.469   4.268
    1HEX    H1T72542   9.165   4.114   4.264
    1HEX    H1U72543   9.025   4.027   4.208
    1HEX    H1V72544   9.062   4.016   4.467
    1HEX    H1W72545   8.909   4.061   4.407
    1HEX    H1Y72546   9.049   4.485   4.495
    1HEX    H1Z72547   9.008   4.641   4.481
    1HEX    H2072548   9.139   4.805   4.533
    1HEX    H2172549   9.301   4.774   4.488
    1HEX    H2272550   9.314   4.596   4.792
    1HEX    H2372551   0.066   4.735   4.858
    1HEX    H2472552   0.461   4.626   4.814
    1HEX    H2572553   0.423   4.484   4.723
    1HEX    H2672554   0.448   4.528   5.029
    1HEX    H2772555   0.590   4.511   4.934
    1HEX    H2972556   9.279   4.978   4.620
    1HEX    H2A72557   0.110   4.892   4.618
    1HEX    H2B72558   0.307   5.136   4.911
    1HEX    H2C72559   0.255   4.988   4.971
    1HEX    H2D72560   0.204   5.132   5.109
    1HEX    H2E72561   0.051   5.061   5.061
    1HEX    H2G72562   9.151   4.919   4.826
    1HEX    H2H72563   9.160   4.761   4.887
    1HEX    H2I72564   8.785   4.640   4.771
    1HEX    H2J72565   8.841   4.540   4.639
    1HEX    H2K72566   8.885   4.809   4.543
    1HEX    H2M72567   8.733   4.810   4.632
    1STR    S0072568   0.221   4.830   4.388
    1STR    S0E72569   9.259   5.015   4.336
    1STR    S0M72570   9.019   4.241   4.524
    1STR    S0X72571   0.488   4.305   4.968
    1STR    S1472572   0.051   5.302   5.046
    1STR    S1B72573   8.692   4.708   4.453
    1HEX    C0172574   0.217   4.605   6.575
    1HEX    C0272575   0.170   4.467   6.615
    1HEX    C0372576   0.028   4.428   6.596
    1HEX    O0472577   9.309   4.405   6.483
    1HEX    O0572578   9.276   4.422   6.706
    1HEX    C0672579   9.136   4.421   6.683
    1HEX    C0772580   9.050   4.472   6.796
    1HEX    C0872581   9.102   4.598   6.864
    1HEX    O0972582   9.075   4.730   6.828
    1HEX    C0A72583   9.094   4.814   6.930
    1HEX    O0B72584   9.140   4.783   7.041
    1HEX    C0C72585   9.040   4.952   6.902
    1HEX    C0D72586   9.150   5.053   6.885
    1HEX    C0F72587   8.915   4.514   6.745
    1HEX    O0G72588   8.854   4.402   6.684
    1HEX    C0H72589   8.769   4.407   6.582
    1HEX    O0I72590   8.729   4.506   6.523
    1HEX    C0J72591   8.719   4.269   6.544
    1HEX    C0K72592   8.813   4.159   6.588
    1HEX    C0N72593   9.032   4.352   6.893
    1HEX    O0O72594   9.149   4.296   6.949
    1HEX    C0P72595   9.212   4.391   7.029
    1HEX    C0Q72596   9.240   4.362   7.173
    1HEX    C0R72597   0.024   4.250   7.171
    1HEX    O0S72598   0.154   4.304   7.153
    1HEX    C0T72599   0.202   4.327   7.030
    1HEX    O0U72600   0.158   4.283   6.924
    1HEX    C0V72601   0.317   4.424   7.029
    1HEX    C0W72602   0.340   4.493   7.164
    1HEX    C0Y72603   9.301   4.497   7.216
    1HEX    O0Z72604   0.017   4.496   7.351
    1HEX    C1072605   9.251   4.552   7.435
    1HEX    O1172606   9.156   4.621   7.403
    1HEX    C1272607   9.280   4.523   7.577
    1HEX    C1372608   0.027   4.391   7.603
    1HEX    C1572609   9.106   4.341   7.251
    1HEX    O1672610   9.052   4.213   7.279
    1HEX    C1772611   8.936   4.182   7.223
    1HEX    O1872612   8.914   4.203   7.106
    1HEX    C1972613   8.828   4.120   7.313
    1HEX    C1A72614   8.866   4.110   7.463
    1HEX    H1D72615   0.298   4.584   6.506
    1HEX    H1E72616   0.260   4.650   6.662
    1HEX    H1F72617   0.203   4.442   6.716
    1HEX    H1G72618   0.213   4.402   6.542
    1HEX    H1H72619   9.104   4.324   6.658
    1HEX    H1I72620   9.114   4.474   6.592
    1HEX    H1J72621   9.209   4.594   6.883
    1HEX    H1K72622   9.041   4.595   6.955
    1HEX    H1M72623   8.979   4.984   6.985
    1HEX    H1N72624   8.974   4.941   6.819
    1HEX    H1O72625   9.115   5.149   6.849
    1HEX    H1P72626   9.229   5.015   6.823
    1HEX    H1R72627   8.919   4.604   6.690
    1HEX    H1S72628   8.861   4.556   6.826
    1HEX    H1T72629   8.695   4.264   6.439
    1HEX    H1U72630   8.627   4.255   6.601
    1HEX    H1V72631   8.751   4.074   6.607
    1HEX    H1W72632   8.858   4.183   6.683
    1HEX    H1Y72633   8.979   4.269   6.847
    1HEX    H1Z72634   8.972   4.384   6.976
    1HEX    H2072635   9.146   4.471   7.051
    1HEX    H2172636   9.297   4.432   6.974
    1HEX    H2272637   0.003   4.183   7.088
    1HEX    H2372638   0.017   4.186   7.257
    1HEX    H2472639   0.295   4.496   6.950
    1HEX    H2572640   0.405   4.369   7.000
    1HEX    H2672641   0.398   4.428   7.227
    1HEX    H2772642   0.249   4.510   7.220
    1HEX    H2972643   9.236   4.582   7.194
    1HEX    H2A72644   0.063   4.523   7.153
    1HEX    H2B72645   9.187   4.530   7.630
    1HEX    H2C72646   0.025   4.602   7.612
    1HEX    H2D72647   0.025   4.373   7.710
    1HEX    H2E72648   0.129   4.400   7.578
    1HEX    H2G72649   9.028   4.405   7.209
    1HEX    H2H72650   9.110   4.379   7.352
    1HEX    H2I72651   8.797   4.025   7.269
    1HEX    H2J72652   8.739   4.180   7.301
    1HEX    H2K72653   8.973   4.117   7.479
    1HEX    H2M72654   8.835   4.015   7.504
    1STR    S0072655   0.121   4.727   6.483
    1STR    S0E72656   9.202   5.064   7.054
    1STR    S0M72657   8.947   4.129   6.468
    1STR    S0X72658   0.419   4.654   7.140
    1STR    S1472659   9.285   4.250   7.510
    1STR    S1B72660   8.792   4.242   7.564
    1HEX    C0172661   0.116   7.262   9.049
    1HEX    C0272662   0.091   7.114   9.039
    1HEX    C0372663   9.264   7.088   9.039
    1HEX    O0472664   9.209   7.015   8.957
    1HEX    O0572665   9.210   7.158   9.134
    1HEX    C0672666   9.074   7.159   9.155
    1HEX    C0772667   9.028   7.081   9.277
    1HEX    C0872668   8.989   7.184   0.063
    1HEX    O0972669   8.909   7.295   0.027
    1HEX    C0A72670   8.861   7.374   0.122
    1HEX    O0B72671   8.858   7.348   0.242
    1HEX    C0C72672   8.816   7.510   0.068
    1HEX    C0D72673   8.889   7.631   0.130
    1HEX    C0F72674   8.923   6.985   9.229
    1HEX    O0G72675   8.971   6.872   9.154
    1HEX    C0H72676   8.954   6.875   9.025
    1HEX    O0I72677   8.894   6.963   8.971
    1HEX    C0J72678   9.010   6.767   8.939
    1HEX    C0K72679   9.069   6.657   9.014
    1HEX    C0N72680   9.119   6.984   0.031
    1HEX    O0O72681   9.248   7.004   9.312
    1HEX    C0P72682   0.013   6.970   0.092
    1HEX    C0Q72683   0.031   6.821   0.114
    1HEX    C0R72684   0.021   6.749   9.298
    1HEX    O0S72685   0.136   6.747   9.221
    1HEX    C0T72686   0.131   6.772   9.091
    1HEX    O0U72687   0.035   6.757   9.016
    1HEX    C0V72688   0.263   6.817   9.039
    1HEX    C0W72689   0.361   6.837   9.153
    1HEX    C0Y72690   0.152   6.829   0.207
    1HEX    O0Z72691   0.222   6.717   0.246
    1HEX    C1072692   0.214   6.680   0.372
    1HEX    O1172693   0.121   6.706   0.447
    1HEX    C1272694   0.340   6.616   0.421
    1HEX    C1372695   0.444   6.725   0.431
    1HEX    C1572696   9.246   6.754   0.202
    1HEX    O1672697   9.214   6.844   0.303
    1HEX    C1772698   9.115   6.814   0.376
    1HEX    O1872699   9.060   6.705   0.378
    1HEX    C1972700   9.066   6.933   0.451
    1HEX    C1A72701   8.932   6.986   0.400
    1HEX    H1D72702   0.220   7.282   9.066
    1HEX    H1E72703   0.061   7.302   9.131
    1HEX    H1F72704   0.127   7.064   9.128
    1HEX    H1G72705   0.140   7.074   8.953
    1HEX    H1H72706   9.022   7.135   9.064
    1HEX    H1I72707   9.048   7.263   9.171
    1HEX    H1J72708   9.080   7.222   0.108
    1HEX    H1K72709   8.941   7.131   0.140
    1HEX    H1M72710   8.709   7.521   0.079
    1HEX    H1N72711   8.840   7.508   9.282
    1HEX    H1O72712   8.822   7.686   0.195
    1HEX    H1P72713   8.921   7.698   0.050
    1HEX    H1R72714   8.852   7.042   9.172
    1HEX    H1S72715   8.877   6.950   9.316
    1HEX    H1T72716   9.092   6.813   8.885
    1HEX    H1U72717   8.937   6.730   8.868
    1HEX    H1V72718   9.134   6.703   9.089
    1HEX    H1W72719   9.130   6.606   8.941
    1HEX    H1Y72720   9.097   6.880   0.015
    1HEX    H1Z72721   9.104   6.994   0.138
    1HEX    H2072722   9.306   7.018   0.183
    1HEX    H2172723   0.100   7.021   0.057
    1HEX    H2272724   9.262   6.792   9.238
    1HEX    H2372725   9.304   6.650   9.311
    1HEX    H2472726   0.257   6.909   8.984
    1HEX    H2572727   0.295   6.741   8.970
    1HEX    H2672728   0.379   6.747   9.206
    1HEX    H2772729   0.455   6.855   9.112
    1HEX    H2972730   0.118   6.883   0.295
    1HEX    H2A72731   0.223   6.902   0.181
    1HEX    H2B72732   0.377   6.540   0.353
    1HEX    H2C72733   0.319   6.559   0.509
    1HEX    H2D72734   0.432   6.787   0.342
    1HEX    H2E72735   0.541   6.678   0.426
    1HEX    H2G72736   9.282   6.660   0.242
    1HEX    H2H72737   9.155   6.731   0.149
    1HEX    H2I72738   9.142   7.010   0.448
    1HEX    H2J72739   9.062   6.898   0.551
    1HEX    H2K72740   8.950   7.021   0.301
    1HEX    H2M72741   8.899   7.072   0.456
    1STR    S0072742   0.058   7.357   8.910
    1STR    S0E72743   9.036   7.587   0.226
    1STR    S0M72744   8.947   6.548   9.089
    1STR    S0X72745   0.320   6.962   9.275
    1STR    S1472746   0.445   6.838   0.574
    1STR    S1B72747   8.797   6.863   0.390
    1HEX    C0172748   0.337   7.012   1.700
    1HEX    C0272749   0.334   6.863   1.715
    1HEX    C0372750   0.196   6.813   1.754
    1HEX    O0472751   0.166   6.697   1.733
    1HEX    O0572752   0.114   6.908   1.800
    1HEX    C0672753   9.294   6.886   1.801
    1HEX    C0772754   9.221   6.926   1.932
    1HEX    C0872755   9.172   7.070   1.904
    1HEX    O0972756   9.135   7.147   2.015
    1HEX    C0A72757   9.044   7.242   2.006
    1HEX    O0B72758   8.958   7.253   1.919
    1HEX    C0C72759   9.079   7.354   2.101
    1HEX    C0D72760   8.980   7.394   2.205
    1HEX    C0F72761   9.096   6.836   1.967
    1HEX    O0G72762   9.065   6.714   1.900
    1HEX    C0H72763   9.027   6.721   1.777
    1HEX    O0I72764   9.035   6.821   1.709
    1HEX    C0J72765   8.993   6.591   1.709
    1HEX    C0K72766   8.959   6.454   1.770
    1HEX    C0N72767   0.005   6.924   2.045
    1HEX    O0O72768   0.106   7.021   2.046
    1HEX    C0P72769   0.097   7.123   2.142
    1HEX    C0Q72770   0.095   7.091   2.295
    1HEX    C0R72771   0.157   6.955   2.333
    1HEX    O0S72772   0.264   6.957   2.427
    1HEX    C0T72773   0.317   6.841   2.466
    1HEX    O0U72774   0.270   6.735   2.430
    1HEX    C0V72775   0.409   6.859   2.587
    1HEX    C0W72776   0.469   6.740   2.666
    1HEX    C0Y72777   0.179   7.205   2.358
    1HEX    O0Z72778   0.085   7.307   2.380
    1HEX    C1072779   0.089   7.388   2.482
    1HEX    O1172780   0.179   7.398   2.563
    1HEX    C1272781   9.275   7.450   2.505
    1HEX    C1372782   9.212   7.365   2.616
    1HEX    C1572783   9.267   7.096   2.347
    1HEX    O1672784   9.205   6.971   2.375
    1HEX    C1772785   9.104   6.937   2.302
    1HEX    O1872786   9.082   6.983   2.194
    1HEX    C1972787   8.995   6.869   2.375
    1HEX    C1A72788   8.929   6.987   2.444
    1HEX    H1D72789   0.419   7.043   1.636
    1HEX    H1E72790   0.243   7.034   1.653
    1HEX    H1F72791   0.414   6.829   1.778
    1HEX    H1G72792   0.353   6.820   1.617
    1HEX    H1H72793   9.269   6.789   1.762
    1HEX    H1I72794   9.256   6.954   1.727
    1HEX    H1J72795   9.094   7.070   1.828
    1HEX    H1K72796   9.258   7.125   1.866
    1HEX    H1M72797   9.085   7.434   2.029
    1HEX    H1N72798   9.176   7.338   2.147
    1HEX    H1O72799   9.010   7.359   2.304
    1HEX    H1P72800   8.884   7.352   2.180
    1HEX    H1R72801   9.005   6.897   1.969
    1HEX    H1S72802   9.104   6.798   2.068
    1HEX    H1T72803   9.088   6.575   1.661
    1HEX    H1U72804   8.916   6.621   1.638
    1HEX    H1V72805   8.889   6.404   1.704
    1HEX    H1W72806   8.913   6.456   1.866
    1HEX    H1Y72807   0.065   6.838   2.030
    1HEX    H1Z72808   9.288   6.908   2.144
    1HEX    H2072809   0.020   7.193   2.115
    1HEX    H2172810   0.187   7.177   2.115
    1HEX    H2272811   0.180   6.903   2.243
    1HEX    H2372812   0.085   6.886   2.373
    1HEX    H2472813   0.365   6.930   2.654
    1HEX    H2572814   0.491   6.922   2.557
    1HEX    H2672815   0.452   6.761   2.772
    1HEX    H2772816   0.575   6.754   2.656
    1HEX    H2972817   0.261   7.236   2.294
    1HEX    H2A72818   0.235   7.180   2.447
    1HEX    H2B72819   9.218   7.446   2.413
    1HEX    H2C72820   9.291   7.554   2.530
    1HEX    H2D72821   9.213   7.403   2.716
    1HEX    H2E72822   9.277   7.284   2.635
    1HEX    H2G72823   9.207   7.159   2.282
    1HEX    H2H72824   9.254   7.147   2.440
    1HEX    H2I72825   9.039   6.797   2.444
    1HEX    H2J72826   8.929   6.818   2.306
    1HEX    H2K72827   9.011   7.030   2.495
    1HEX    H2M72828   8.859   6.964   2.522
    1STR    S0072829   0.332   7.119   1.845
    1STR    S0E72830   8.962   7.573   2.206
    1STR    S0M72831   9.099   6.341   1.785
    1STR    S0X72832   0.432   6.561   2.644
    1STR    S1472833   9.049   7.299   2.579
    1STR    S1B72834   8.868   7.125   2.342
    1HEX    C0172835   0.201   7.012   4.182
    1HEX    C0272836   0.186   6.928   4.308
    1HEX    C0372837   0.049   6.867   4.311
    1HEX    O0472838   0.004   6.821   4.208
    1HEX    O0572839   9.298   6.879   4.423
    1HEX    C0672840   9.160   6.874   4.395
    1HEX    C0772841   9.050   6.876   4.499
    1HEX    C0872842   9.049   6.999   4.587
    1HEX    O0972843   9.064   7.113   4.508
    1HEX    C0A72844   8.973   7.200   4.491
    1HEX    O0B72845   8.860   7.179   4.451
    1HEX    C0C72846   9.026   7.338   4.508
    1HEX    C0D72847   9.139   7.364   4.607
    1HEX    C0F72848   8.923   6.896   4.417
    1HEX    O0G72849   8.898   6.806   4.314
    1HEX    C0H72850   8.790   6.837   4.243
    1HEX    O0I72851   8.727   6.941   4.250
    1HEX    C0J72852   8.738   6.719   4.170
    1HEX    C0K72853   8.627   6.657   4.254
    1HEX    C0N72854   9.049   6.747   4.579
    1HEX    O0O72855   9.175   6.685   4.588
    1HEX    C0P72856   9.269   6.746   4.673
    1HEX    C0Q72857   9.296   6.660   4.794
    1HEX    C0R72858   0.036   6.534   4.739
    1HEX    O0S72859   0.164   6.545   4.685
    1HEX    C0T72860   0.267   6.516   4.760
    1HEX    O0U72861   0.265   6.468   4.872
    1HEX    C0V72862   0.394   6.554   4.693
    1HEX    C0W72863   0.410   6.704   4.682
    1HEX    C0Y72864   0.079   6.723   4.887
    1HEX    O0Z72865   0.042   6.820   4.982
    1HEX    C1072866   0.056   6.947   4.953
    1HEX    O1172867   0.030   6.999   4.846
    1HEX    C1272868   0.102   7.035   5.066
    1HEX    C1372869   0.252   7.055   5.069
    1HEX    C1572870   9.168   6.620   4.868
    1HEX    O1672871   9.177   6.513   4.960
    1HEX    C1772872   9.111   6.515   5.076
    1HEX    O1872873   9.052   6.419   5.124
    1HEX    C1972874   9.134   6.641   5.155
    1HEX    C1A72875   9.027   6.745   5.137
    1HEX    H1D72876   0.305   7.001   4.163
    1HEX    H1E72877   0.140   6.976   4.100
    1HEX    H1F72878   0.212   6.990   4.390
    1HEX    H1G72879   0.257   6.847   4.312
    1HEX    H1H72880   9.138   6.784   4.338
    1HEX    H1I72881   9.145   6.962   4.333
    1HEX    H1J72882   9.136   7.000   4.650
    1HEX    H1K72883   8.961   7.006   4.651
    1HEX    H1M72884   8.947   7.410   4.521
    1HEX    H1N72885   9.069   7.361   4.412
    1HEX    H1O72886   9.106   7.438   4.678
    1HEX    H1P72887   9.218   7.402   4.544
    1HEX    H1R72888   8.935   6.986   4.360
    1HEX    H1S72889   8.835   6.908   4.480
    1HEX    H1T72890   8.824   6.656   4.163
    1HEX    H1U72891   8.705   6.744   4.070
    1HEX    H1V72892   8.580   6.567   4.218
    1HEX    H1W72893   8.550   6.729   4.263
    1HEX    H1Y72894   8.978   6.678   4.534
    1HEX    H1Z72895   9.017   6.765   4.679
    1HEX    H2072896   9.250   6.848   4.699
    1HEX    H2172897   0.039   6.750   4.613
    1HEX    H2272898   9.296   6.496   4.658
    1HEX    H2372899   0.036   6.469   4.825
    1HEX    H2472900   0.398   6.506   4.597
    1HEX    H2572901   0.474   6.517   4.755
    1HEX    H2672902   0.504   6.722   4.637
    1HEX    H2772903   0.412   6.745   4.782
    1HEX    H2972904   0.168   6.756   4.835
    1HEX    H2A72905   0.115   6.641   4.945
    1HEX    H2B72906   0.059   7.016   5.162
    1HEX    H2C72907   0.056   7.127   5.040
    1HEX    H2D72908   0.274   7.156   5.101
    1HEX    H2E72909   0.294   7.048   4.972
    1HEX    H2G72910   9.087   6.597   4.800
    1HEX    H2H72911   9.140   6.706   4.922
    1HEX    H2I72912   9.232   6.674   5.124
    1HEX    H2J72913   9.138   6.614   5.259
    1HEX    H2K72914   8.965   6.743   5.225
    1HEX    H2M72915   8.960   6.704   5.067
    1STR    S0072916   0.190   7.189   4.181
    1STR    S0E72917   9.222   7.245   4.712
    1STR    S0M72918   8.680   6.644   4.424
    1STR    S0X72919   0.288   6.791   4.585
    1STR    S1472920   0.338   6.945   5.180
    1STR    S1B72921   9.077   6.921   5.103
    1HEX    C0172922   0.333   6.794   6.547
    1HEX    C0272923   0.237   6.682   6.528
    1HEX    C0372924   0.090   6.716   6.547
    1HEX    O0472925   0.008   6.631   6.521
    1HEX    O0572926   0.063   6.838   6.596
    1HEX    C0672927   0.007   6.936   6.511
    1HEX    C0772928   9.185   6.992   6.533
    1HEX    C0872929   9.162   7.117   6.444
    1HEX    O0972930   9.035   7.172   6.474
    1HEX    C0A72931   8.997   7.294   6.435
    1HEX    O0B72932   8.996   7.337   6.320
    1HEX    C0C72933   8.943   7.377   6.551
    1HEX    C0D72934   9.023   7.371   6.685
    1HEX    C0F72935   9.068   6.905   6.483
    1HEX    O0G72936   9.077   6.767   6.504
    1HEX    C0H72937   8.998   6.684   6.435
    1HEX    O0I72938   8.936   6.712   6.333
    1HEX    C0J72939   8.974   6.553   6.505
    1HEX    C0K72940   9.054   6.528   6.633
    1HEX    C0N72941   9.184   7.033   6.681
    1HEX    O0O72942   9.168   6.929   6.773
    1HEX    C0P72943   9.282   6.897   6.850
    1HEX    C0Q72944   9.260   6.925   7.002
    1HEX    C0R72945   0.041   6.847   7.087
    1HEX    O0S72946   0.146   6.819   7.000
    1HEX    C0T72947   0.204   6.703   6.987
    1HEX    O0U72948   0.195   6.605   7.058
    1HEX    C0V72949   0.297   6.703   6.871
    1HEX    C0W72950   0.341   6.846   6.837
    1HEX    C0Y72951   9.266   7.078   7.012
    1HEX    O0Z72952   9.276   7.124   7.145
    1HEX    C1072953   0.003   7.241   7.179
    1HEX    O1172954   0.066   7.318   7.109
    1HEX    C1272955   9.312   7.259   7.326
    1HEX    C1372956   9.309   7.403   7.384
    1HEX    C1572957   9.127   6.874   7.051
    1HEX    O1672958   9.048   6.972   7.108
    1HEX    C1772959   9.058   6.996   7.234
    1HEX    O1872960   9.142   6.950   7.309
    1HEX    C1972961   8.966   7.104   7.276
    1HEX    C1A72962   8.990   7.230   7.188
    1HEX    H1D72963   0.420   6.756   6.597
    1HEX    H1E72964   0.289   6.878   6.598
    1HEX    H1F72965   0.263   6.598   6.591
    1HEX    H1G72966   0.252   6.650   6.427
    1HEX    H1H72967   0.008   6.892   6.415
    1HEX    H1I72968   0.077   7.019   6.511
    1HEX    H1J72969   9.164   7.094   6.338
    1HEX    H1K72970   9.240   7.190   6.459
    1HEX    H1M72971   8.839   7.352   6.565
    1HEX    H1N72972   8.935   7.479   6.516
    1HEX    H1O72973   8.986   7.303   6.760
    1HEX    H1P72974   9.018   7.466   6.735
    1HEX    H1R72975   9.052   6.920   6.376
    1HEX    H1S72976   8.977   6.941   6.532
    1HEX    H1T72977   8.993   6.466   6.450
    1HEX    H1U72978   8.867   6.541   6.507
    1HEX    H1V72979   9.153   6.506   6.600
    1HEX    H1W72980   9.011   6.439   6.673
    1HEX    H1Y72981   9.103   7.098   6.706
    1HEX    H1Z72982   9.274   7.090   6.702
    1HEX    H2072983   0.051   6.949   6.815
    1HEX    H2172984   9.306   6.794   6.828
    1HEX    H2272985   0.008   6.753   7.131
    1HEX    H2372986   0.065   6.905   7.175
    1HEX    H2472987   0.240   6.662   6.790
    1HEX    H2572988   0.376   6.632   6.892
    1HEX    H2672989   0.257   6.896   6.793
    1HEX    H2772990   0.424   6.850   6.770
    1HEX    H2972991   9.174   7.113   6.967
    1HEX    H2A72992   0.023   7.119   6.951
    1HEX    H2B72993   0.081   7.207   7.358
    1HEX    H2C72994   9.231   7.194   7.358
    1HEX    H2D72995   0.064   7.458   7.332
    1HEX    H2E72996   0.030   7.400   7.482
    1HEX    H2G72997   9.129   6.789   7.118
    1HEX    H2H72998   9.080   6.838   6.963
    1HEX    H2I72999   8.994   7.105   7.378
    1HEX    H2J73000   8.865   7.068   7.279
    1HEX    H2K73001   9.007   7.203   7.084
    1HEX    H2M73002   9.078   7.285   7.216
    1STR    S0073003   0.393   6.866   6.399
    1STR    S0E73004   9.200   7.337   6.668
    1STR    S0M73005   9.081   6.654   6.761
    1STR    S0X73006   0.406   6.950   6.964
    1STR    S1473007   9.154   7.503   7.404
    1STR    S1B73008   8.856   7.350   7.188
    1HEX    C0173009   2.621   0.467   8.870
    1HEX    C0273010   2.512   0.377   8.823
    1HEX    C0373011   2.450   0.284   8.921
    1HEX    O0473012   2.518   0.210   8.990
    1HEX    O0573013   2.318   0.290   8.910
    1HEX    C0673014   2.246   0.176   8.867
    1HEX    C0773015   2.106   0.168   8.931
    1HEX    C0873016   2.042   0.306   8.915
    1HEX    O0973017   1.902   0.304   8.882
    1HEX    C0A73018   1.831   0.405   8.822
    1HEX    O0B73019   1.730   0.388   8.754
    1HEX    C0C73020   1.881   0.547   8.835
    1HEX    C0D73021   1.948   0.577   8.965
    1HEX    C0F73022   2.026   0.063   8.855
    1HEX    O0G73023   2.111   9.286   8.801
    1HEX    C0H73024   2.063   9.166   8.780
    1HEX    O0I73025   1.946   9.135   8.769
    1HEX    C0J73026   2.163   9.064   8.815
    1HEX    C0K73027   2.127   9.039   8.959
    1HEX    C0N73028   2.107   0.132   9.082
    1HEX    O0O73029   2.228   0.184   9.135
    1HEX    C0P73030   2.228   0.229   9.269
    1HEX    C0Q73031   2.308   0.142   0.042
    1HEX    C0R73032   2.455   0.133   0.000
    1HEX    O0S73033   2.546   0.224   0.061
    1HEX    C0T73034   2.632   0.180   0.153
    1HEX    O0U73035   2.642   0.065   0.194
    1HEX    C0V73036   2.710   0.292   0.217
    1HEX    C0W73037   2.628   0.345   0.332
    1HEX    C0Y73038   2.308   0.195   0.182
    1HEX    O0Z73039   2.379   0.099   0.255
    1HEX    C1073040   2.356   0.096   0.379
    1HEX    O1173041   2.391   0.185   0.455
    1HEX    C1273042   2.258   9.307   0.409
    1HEX    C1373043   2.307   9.164   0.417
    1HEX    C1573044   2.235   0.008   0.048
    1HEX    O1673045   2.109   0.025   0.109
    1HEX    C1773046   2.051   9.238   0.156
    1HEX    O1873047   2.082   9.123   0.130
    1HEX    C1973048   1.949   9.270   0.260
    1HEX    C1A73049   1.828   0.010   0.198
    1HEX    H1D73050   2.578   0.544   8.932
    1HEX    H1E73051   2.685   0.405   8.931
    1HEX    H1F73052   2.564   0.305   8.765
    1HEX    H1G73053   2.437   0.432   8.768
    1HEX    H1H73054   2.304   0.086   8.880
    1HEX    H1I73055   2.232   0.187   8.760
    1HEX    H1J73056   2.098   0.366   8.845
    1HEX    H1K73057   2.060   0.354   9.011
    1HEX    H1M73058   1.792   0.609   8.825
    1HEX    H1N73059   1.944   0.574   8.751
    1HEX    H1O73060   1.943   0.683   8.982
    1HEX    H1P73061   2.053   0.554   8.961
    1HEX    H1R73062   1.965   0.107   8.779
    1HEX    H1S73063   1.959   0.013   8.922
    1HEX    H1T73064   2.262   9.110   8.806
    1HEX    H1U73065   2.156   8.977   8.752
    1HEX    H1V73066   2.036   8.985   8.978
    1HEX    H1W73067   2.108   9.133   9.011
    1HEX    H1Y73068   2.101   0.025   9.099
    1HEX    H1Z73069   2.018   0.172   9.132
    1HEX    H2073070   2.128   0.234   9.310
    1HEX    H2173071   2.272   0.327   9.265
    1HEX    H2273072   2.468   0.146   9.214
    1HEX    H2373073   2.484   0.033   0.028
    1HEX    H2473074   2.725   0.363   0.138
    1HEX    H2573075   2.809   0.267   0.252
    1HEX    H2673076   2.638   0.281   0.419
    1HEX    H2773077   2.526   0.333   0.303
    1HEX    H2973078   2.208   0.212   0.221
    1HEX    H2A73079   2.361   0.287   0.187
    1HEX    H2B73080   2.202   9.309   0.319
    1HEX    H2C73081   2.180   0.014   0.476
    1HEX    H2D73082   2.358   9.143   0.511
    1HEX    H2E73083   2.373   9.141   0.333
    1HEX    H2G73084   2.294   9.256   0.104
    1HEX    H2H73085   2.216   9.285   9.271
    1HEX    H2I73086   1.989   0.021   0.332
    1HEX    H2J73087   1.925   9.179   0.314
    1HEX    H2K73088   1.857   0.090   0.131
    1HEX    H2M73089   1.771   0.046   0.281
    1STR    S0073090   2.705   0.545   8.729
    1STR    S0E73091   1.858   0.500   9.099
    1STR    S0M73092   2.263   8.962   9.040
    1STR    S0X73093   2.660   0.518   0.377
    1STR    S1473094   2.158   9.064   0.405
    1STR    S1B73095   1.725   9.211   0.111
    1HEX    C0173096   2.859   9.206   1.763
    1HEX    C0273097   2.759   9.319   1.790
    1HEX    C0373098   2.652   9.279   1.887
    1HEX    O0473099   2.653   9.169   1.942
    1HEX    O0573100   2.559   0.053   1.901
    1HEX    C0673101   2.467   0.035   2.005
    1HEX    C0773102   2.326   0.095   1.989
    1HEX    C0873103   2.331   0.248   1.985
    1HEX    O0973104   2.392   0.307   1.870
    1HEX    C0A73105   2.340   0.424   1.826
    1HEX    O0B73106   2.247   0.480   1.882
    1HEX    C0C73107   2.390   0.486   1.695
    1HEX    C0D73108   2.523   0.449   1.624
    1HEX    C0F73109   2.249   0.034   1.873
    1HEX    O0G73110   2.109   0.024   1.890
    1HEX    C0H73111   2.041   9.274   1.800
    1HEX    O0I73112   2.082   9.239   1.689
    1HEX    C0J73113   1.911   9.223   1.854
    1HEX    C0K73114   1.940   9.140   1.977
    1HEX    C0N73115   2.249   0.050   2.111
    1HEX    O0O73116   2.300   0.114   2.224
    1HEX    C0P73117   2.388   0.036   2.301
    1HEX    C0Q73118   2.319   9.250   2.384
    1HEX    C0R73119   2.265   9.126   2.312
    1HEX    O0S73120   2.353   9.058   2.230
    1HEX    C0T73121   2.385   8.936   2.268
    1HEX    O0U73122   2.346   8.879   2.369
    1HEX    C0V73123   2.503   8.883   2.190
    1HEX    C0W73124   2.618   8.880   2.285
    1HEX    C0Y73125   2.415   9.222   2.500
    1HEX    O0Z73126   2.462   9.092   2.516
    1HEX    C1073127   2.421   9.022   2.618
    1HEX    O1173128   2.306   9.010   2.657
    1HEX    C1273129   2.532   8.945   2.683
    1HEX    C1373130   2.638   9.008   2.770
    1HEX    C1573131   2.194   9.312   2.436
    1HEX    O1673132   2.156   9.233   2.544
    1HEX    C1773133   2.060   9.144   2.539
    1HEX    O1873134   2.001   9.097   2.443
    1HEX    C1973135   2.022   9.115   2.677
    1HEX    C1A73136   1.963   9.240   2.738
    1HEX    H1D73137   2.956   9.248   1.751
    1HEX    H1E73138   2.867   9.140   1.845
    1HEX    H1F73139   2.717   0.039   1.699
    1HEX    H1G73140   2.809   0.080   1.841
    1HEX    H1H73141   2.518   0.085   2.086
    1HEX    H1I73142   2.457   9.250   2.034
    1HEX    H1J73143   2.380   0.285   2.074
    1HEX    H1K73144   2.229   0.282   1.996
    1HEX    H1M73145   2.387   0.593   1.711
    1HEX    H1N73146   2.309   0.474   1.626
    1HEX    H1O73147   2.596   0.527   1.638
    1HEX    H1P73148   2.507   0.453   1.516
    1HEX    H1R73149   2.287   9.254   1.853
    1HEX    H1S73150   2.264   0.096   1.788
    1HEX    H1T73151   1.867   9.165   1.775
    1HEX    H1U73152   1.844   9.305   1.877
    1HEX    H1V73153   1.954   9.208   2.060
    1HEX    H1W73154   2.037   9.095   1.976
    1HEX    H1Y73155   2.251   9.262   2.111
    1HEX    H1Z73156   2.144   0.075   2.107
    1HEX    H2073157   2.428   0.112   2.368
    1HEX    H2173158   2.472   9.308   2.253
    1HEX    H2273159   2.175   9.143   2.255
    1HEX    H2373160   2.228   9.061   2.390
    1HEX    H2473161   2.528   8.947   2.107
    1HEX    H2573162   2.478   8.789   2.145
    1HEX    H2673163   2.703   8.819   2.258
    1HEX    H2773164   2.590   8.852   2.386
    1HEX    H2973165   2.374   9.257   2.594
    1HEX    H2A73166   2.505   9.280   2.490
    1HEX    H2B73167   2.582   8.899   2.601
    1HEX    H2C73168   2.479   8.875   2.746
    1HEX    H2D73169   2.714   9.057   2.713
    1HEX    H2E73170   2.690   8.935   2.831
    1HEX    H2G73171   2.119   9.316   2.359
    1HEX    H2H73172   2.210   0.094   2.469
    1HEX    H2I73173   2.111   9.091   2.730
    1HEX    H2J73174   1.961   9.026   2.682
    1HEX    H2K73175   2.011   9.247   2.830
    1HEX    H2M73176   1.864   9.219   2.773
    1STR    S0073177   2.828   9.107   1.619
    1STR    S0E73178   2.604   0.293   1.662
    1STR    S0M73179   1.823   9.008   2.020
    1STR    S0X73180   2.644   9.053   2.286
    1STR    S1473181   2.552   9.120   2.873
    1STR    S1B73182   1.990   0.093   2.678
    1HEX    C0173183   2.666   9.292   4.021
    1HEX    C0273184   2.603   9.195   4.117
    1HEX    C0373185   2.461   9.154   4.082
    1HEX    O0473186   2.432   9.035   4.078
    1HEX    O0573187   2.379   9.256   4.054
    1HEX    C0673188   2.252   9.226   4.001
    1HEX    C0773189   2.130   9.302   4.050
    1HEX    C0873190   2.122   0.127   3.995
    1HEX    O0973191   1.984   0.159   4.013
    1HEX    C0A73192   1.914   0.257   3.954
    1HEX    O0B73193   1.792   0.251   3.942
    1HEX    C0C73194   1.987   0.386   3.920
    1HEX    C0D73195   1.916   0.506   3.984
    1HEX    C0F73196   2.015   9.215   3.986
    1HEX    O0G73197   1.997   9.081   4.029
    1HEX    C0H73198   1.880   9.013   4.020
    1HEX    O0I73199   1.773   9.053   3.974
    1HEX    C0J73200   1.888   8.873   4.082
    1HEX    C0K73201   1.945   8.878   4.223
    1HEX    C0N73202   2.131   9.315   4.204
    1HEX    O0O73203   2.251   0.052   4.258
    1HEX    C0P73204   2.245   0.144   4.368
    1HEX    C0Q73205   2.241   0.095   4.514
    1HEX    C0R73206   2.351   9.313   4.531
    1HEX    O0S73207   2.485   0.037   4.542
    1HEX    C0T73208   2.559   9.301   4.640
    1HEX    O0U73209   2.522   9.227   4.727
    1HEX    C0V73210   2.701   0.015   4.643
    1HEX    C0W73211   2.750   0.066   4.780
    1HEX    C0Y73212   2.258   0.217   4.607
    1HEX    O0Z73213   2.275   0.184   4.743
    1HEX    C1073214   2.393   0.182   4.800
    1HEX    O1173215   2.495   0.229   4.754
    1HEX    C1273216   2.397   0.125   4.938
    1HEX    C1373217   2.453   0.227   5.032
    1HEX    C1573218   2.104   0.026   4.535
    1HEX    O1673219   2.080   9.256   4.641
    1HEX    C1773220   2.030   9.300   4.755
    1HEX    O1873221   2.091   0.049   4.835
    1HEX    C1973222   1.892   9.250   4.793
    1HEX    C1A73223   1.813   9.176   4.689
    1HEX    H1D73224   2.740   9.245   3.957
    1HEX    H1E73225   2.590   0.022   3.962
    1HEX    H1F73226   2.593   9.238   4.216
    1HEX    H1G73227   2.666   9.107   4.123
    1HEX    H1H73228   2.230   9.122   4.020
    1HEX    H1I73229   2.256   9.238   3.893
    1HEX    H1J73230   2.154   0.136   3.892
    1HEX    H1K73231   2.189   0.192   4.052
    1HEX    H1M73232   1.990   0.396   3.812
    1HEX    H1N73233   2.090   0.382   3.955
    1HEX    H1O73234   1.820   0.524   3.937
    1HEX    H1P73235   1.975   0.597   3.973
    1HEX    H1R73236   2.041   9.198   3.882
    1HEX    H1S73237   1.918   9.263   3.986
    1HEX    H1T73238   1.947   8.808   4.021
    1HEX    H1U73239   1.789   8.828   4.080
    1HEX    H1V73240   1.930   8.787   4.280
    1HEX    H1W73241   1.901   8.961   4.278
    1HEX    H1Y73242   2.117   9.217   4.245
    1HEX    H1Z73243   2.045   0.051   4.237
    1HEX    H2073244   2.157   0.203   4.361
    1HEX    H2173245   2.332   0.209   4.357
    1HEX    H2273246   2.349   9.253   4.442
    1HEX    H2373247   2.322   9.254   4.617
    1HEX    H2473248   2.715   0.091   4.568
    1HEX    H2573249   2.747   9.242   4.612
    1HEX    H2673250   2.708   0.162   4.795
    1HEX    H2773251   2.857   0.076   4.786
    1HEX    H2973252   2.169   0.278   4.603
    1HEX    H2A73253   2.339   0.281   4.573
    1HEX    H2B73254   2.461   0.038   4.938
    1HEX    H2C73255   2.301   0.089   4.969
    1HEX    H2D73256   2.554   0.251   5.001
    1HEX    H2E73257   2.460   0.185   5.130
    1HEX    H2G73258   2.095   9.278   4.452
    1HEX    H2H73259   2.023   0.098   4.529
    1HEX    H2I73260   1.831   0.015   4.809
    1HEX    H2J73261   1.893   9.209   4.891
    1HEX    H2K73262   1.840   9.229   4.600
    1HEX    H2M73263   1.705   9.186   4.697
    1STR    S0073264   2.755   0.097   4.111
    1STR    S0E73265   1.883   0.481   4.160
    1STR    S0M73266   2.122   8.907   4.205
    1STR    S0X73267   2.717   9.302   4.933
    1STR    S1473268   2.351   0.376   5.027
    1STR    S1B73269   1.867   9.005   4.684
    1HEX    C0173270   2.475   0.324   6.758
    1HEX    C0273271   2.487   0.172   6.739
    1HEX    C0373272   2.361   0.098   6.760
    1HEX    O0473273   2.257   0.159   6.766
    1HEX    O0573274   2.380   9.289   6.767
    1HEX    C0673275   2.273   9.204   6.734
    1HEX    C0773276   2.202   9.130   6.845
    1HEX    C0873277   2.203   9.211   6.977
    1HEX    O0973278   2.177   0.028   6.965
    1HEX    C0A73279   2.070   0.085   7.014
    1HEX    O0B73280   1.978   0.027   7.067
    1HEX    C0C73281   2.075   0.235   7.008
    1HEX    C0D73282   2.144   0.293   7.131
    1HEX    C0F73283   2.054   9.101   6.806
    1HEX    O0G73284   2.028   8.986   6.723
    1HEX    C0H73285   1.990   8.868   6.775
    1HEX    O0I73286   1.979   8.845   6.893
    1HEX    C0J73287   1.955   8.756   6.679
    1HEX    C0K73288   2.037   8.631   6.703
    1HEX    C0N73289   2.270   8.994   6.858
    1HEX    O0O73290   2.412   8.979   6.868
    1HEX    C0P73291   2.496   9.053   6.955
    1HEX    C0Q73292   2.496   9.035   7.111
    1HEX    C0R73293   2.589   8.922   7.160
    1HEX    O0S73294   2.722   8.934   7.117
    1HEX    C0T73295   2.821   8.878   7.189
    1HEX    O0U73296   2.813   8.791   7.274
    1HEX    C0V73297   2.954   8.940   7.160
    1HEX    C0W73298   2.964   9.077   7.228
    1HEX    C0Y73299   2.557   9.165   7.160
    1HEX    O0Z73300   2.465   9.263   7.196
    1HEX    C1073301   2.490   0.031   7.291
    1HEX    O1173302   2.594   0.050   7.352
    1HEX    C1273303   2.367   0.099   7.333
    1HEX    C1373304   2.330   0.035   7.460
    1HEX    C1573305   2.353   9.019   7.170
    1HEX    O1673306   2.316   8.941   7.283
    1HEX    C1773307   2.188   8.946   7.323
    1HEX    O1873308   2.109   9.026   7.276
    1HEX    C1973309   2.147   8.850   7.435
    1HEX    C1A73310   2.038   8.903   7.526
    1HEX    H1D73311   2.567   0.362   6.801
    1HEX    H1E73312   2.395   0.354   6.825
    1HEX    H1F73313   2.561   0.125   6.800
    1HEX    H1G73314   2.515   0.148   6.640
    1HEX    H1H73315   2.321   9.127   6.676
    1HEX    H1I73316   2.202   9.256   6.671
    1HEX    H1J73317   2.305   9.217   7.012
    1HEX    H1K73318   2.143   9.164   7.055
    1HEX    H1M73319   1.974   0.271   7.000
    1HEX    H1N73320   2.124   0.270   6.918
    1HEX    H1O73321   2.147   0.399   7.117
    1HEX    H1P73322   2.247   0.264   7.141
    1HEX    H1R73323   2.011   9.190   6.761
    1HEX    H1S73324   1.999   9.090   6.898
    1HEX    H1T73325   1.956   8.786   6.576
    1HEX    H1U73326   1.852   8.731   6.704
    1HEX    H1V73327   1.985   8.547   6.659
    1HEX    H1W73328   2.048   8.610   6.809
    1HEX    H1Y73329   2.254   8.937   6.767
    1HEX    H1Z73330   2.213   8.934   6.926
    1HEX    H2073331   2.486   9.157   6.926
    1HEX    H2173332   2.597   9.029   6.924
    1HEX    H2273333   2.560   8.827   7.123
    1HEX    H2373334   2.583   8.913   7.269
    1HEX    H2473335   2.966   8.944   7.052
    1HEX    H2573336   3.024   8.869   7.200
    1HEX    H2673337   3.063   9.119   7.237
    1HEX    H2773338   2.924   9.069   7.328
    1HEX    H2973339   2.614   9.210   7.080
    1HEX    H2A73340   2.629   9.145   7.237
    1HEX    H2B73341   2.287   0.080   7.261
    1HEX    H2C73342   2.384   0.206   7.345
    1HEX    H2D73343   2.226   0.064   7.466
    1HEX    H2E73344   2.386   0.076   7.543
    1HEX    H2G73345   2.300   8.971   7.094
    1HEX    H2H73346   2.305   9.114   7.187
    1HEX    H2I73347   2.233   8.828   7.496
    1HEX    H2J73348   2.105   8.762   7.389
    1HEX    H2K73349   1.986   8.979   7.475
    1HEX    H2M73350   2.084   8.959   7.605
    1STR    S0073351   2.438   0.399   6.601
    1STR    S0E73352   2.054   0.250   7.284
    1STR    S0M73353   2.200   8.649   6.630
    1STR    S0X73354   2.860   9.185   7.131
    1STR    S1473355   2.331   9.174   7.453
    1STR    S1B73356   1.920   8.776   7.585
    1HEX    C0173357   2.783   2.174   8.915
    1HEX    C0273358   2.704   2.049   8.912
    1HEX    C0373359   2.555   2.075   8.912
    1HEX    O0473360   2.492   2.028   8.820
    1HEX    O0573361   2.505   2.160   9.005
    1HEX    C0673362   2.363   2.162   9.024
    1HEX    C0773363   2.292   2.283   9.093
    1HEX    C0873364   2.371   2.411   9.080
    1HEX    O0973365   2.294   2.522   9.124
    1HEX    C0A73366   2.302   2.556   9.251
    1HEX    O0B73367   2.211   2.543   0.012
    1HEX    C0C73368   2.434   2.618   9.288
    1HEX    C0D73369   2.470   2.603   0.114
    1HEX    C0F73370   2.157   2.299   9.024
    1HEX    O0G73371   2.101   2.170   9.023
    1HEX    C0H73372   2.003   2.141   8.945
    1HEX    O0I73373   1.945   2.218   8.872
    1HEX    C0J73374   1.964   1.996   8.949
    1HEX    C0K73375   1.930   1.947   9.088
    1HEX    C0N73376   2.246   2.258   9.238
    1HEX    O0O73377   2.332   2.284   0.025
    1HEX    C0P73378   2.272   2.270   0.154
    1HEX    C0Q73379   2.184   2.144   0.183
    1HEX    C0R73380   2.268   2.019   0.152
    1HEX    O0S73381   2.359   2.031   0.046
    1HEX    C0T73382   2.490   2.041   0.066
    1HEX    O0U73383   2.557   2.016   0.165
    1HEX    C0V73384   2.554   2.097   9.266
    1HEX    C0W73385   2.686   2.159   9.295
    1HEX    C0Y73386   2.154   2.128   0.333
    1HEX    O0Z73387   2.118   1.995   0.368
    1HEX    C1073388   2.195   1.910   0.442
    1HEX    O1173389   2.204   1.790   0.423
    1HEX    C1273390   2.270   1.963   0.558
    1HEX    C1373391   2.420   1.948   0.539
    1HEX    C1573392   2.045   2.162   0.114
    1HEX    O1673393   1.935   2.110   0.185
    1HEX    C1773394   1.811   2.128   0.139
    1HEX    O1873395   1.781   2.154   0.023
    1HEX    C1973396   1.706   2.110   0.246
    1HEX    C1A73397   1.740   2.177   0.378
    1HEX    H1D73398   2.888   2.151   8.922
    1HEX    H1E73399   2.747   2.223   9.003
    1HEX    H1F73400   2.730   1.997   9.000
    1HEX    H1G73401   2.733   1.989   8.826
    1HEX    H1H73402   2.335   2.069   9.074
    1HEX    H1I73403   2.320   2.153   8.925
    1HEX    H1J73404   2.398   2.429   8.977
    1HEX    H1K73405   2.464   2.398   9.134
    1HEX    H1M73406   2.423   2.721   9.259
    1HEX    H1N73407   2.513   2.575   9.229
    1HEX    H1O73408   2.447   2.502   0.147
    1HEX    H1P73409   2.405   2.668   0.172
    1HEX    H1R73410   2.168   2.343   8.927
    1HEX    H1S73411   2.091   2.368   9.074
    1HEX    H1T73412   2.042   1.938   8.903
    1HEX    H1U73413   1.878   1.984   8.885
    1HEX    H1V73414   1.883   1.849   9.078
    1HEX    H1W73415   1.858   2.011   9.139
    1HEX    H1Y73416   2.216   2.155   9.239
    1HEX    H1Z73417   2.157   2.318   9.259
    1HEX    H2073418   2.215   2.360   0.174
    1HEX    H2173419   2.357   2.269   0.220
    1HEX    H2273420   2.201   1.937   0.135
    1HEX    H2373421   2.326   1.992   0.239
    1HEX    H2473422   2.492   2.177   9.232
    1HEX    H2573423   2.553   2.023   9.189
    1HEX    H2673424   2.754   2.093   0.030
    1HEX    H2773425   2.728   2.182   9.200
    1HEX    H2973426   2.073   2.193   0.359
    1HEX    H2A73427   2.238   2.159   0.390
    1HEX    H2B73428   2.240   1.901   0.642
    1HEX    H2C73429   2.237   2.062   0.583
    1HEX    H2D73430   2.444   1.852   0.494
    1HEX    H2E73431   2.468   1.946   0.635
    1HEX    H2G73432   2.037   2.133   0.012
    1HEX    H2H73433   2.028   2.268   0.100
    1HEX    H2I73434   1.687   2.004   0.260
    1HEX    H2J73435   1.615   2.151   0.210
    1HEX    H2K73436   1.846   2.170   0.397
    1HEX    H2M73437   1.689   2.129   0.460
    1STR    S0073438   2.752   2.273   8.772
    1STR    S0E73439   2.644   2.640   0.156
    1STR    S0M73440   2.074   1.933   9.195
    1STR    S0X73441   2.651   2.312   0.059
    1STR    S1473442   2.491   2.077   0.433
    1STR    S1B73443   1.694   2.351   0.376
    1HEX    C0173444   2.637   2.207   1.875
    1HEX    C0273445   2.572   2.134   1.759
    1HEX    C0373446   2.429   2.101   1.793
    1HEX    O0473447   2.374   2.003   1.746
    1HEX    O0573448   2.374   2.194   1.871
    1HEX    C0673449   2.234   2.208   1.880
    1HEX    C0773450   2.161   2.160   2.004
    1HEX    C0873451   2.088   2.273   2.077
    1HEX    O0973452   2.032   2.375   1.997
    1HEX    C0A73453   2.027   2.507   2.032
    1HEX    O0B73454   1.982   2.589   1.954
    1HEX    C0C73455   2.067   2.556   2.174
    1HEX    C0D73456   2.029   2.470   2.297
    1HEX    C0F73457   2.056   2.051   1.966
    1HEX    O0G73458   2.012   2.033   1.831
    1HEX    C0H73459   1.936   1.924   1.805
    1HEX    O0I73460   1.877   1.857   1.889
    1HEX    C0J73461   1.933   1.884   1.658
    1HEX    C0K73462   1.939   1.730   1.643
    1HEX    C0N73463   2.266   2.099   2.101
    1HEX    O0O73464   2.393   2.169   2.120
    1HEX    C0P73465   2.409   2.311   2.134
    1HEX    C0Q73466   2.430   2.360   2.280
    1HEX    C0R73467   2.575   2.330   2.311
    1HEX    O0S73468   2.604   2.351   2.446
    1HEX    C0T73469   2.641   2.246   2.516
    1HEX    O0U73470   2.580   2.143   2.539
    1HEX    C0V73471   2.782   2.261   2.555
    1HEX    C0W73472   2.866   2.222   2.434
    1HEX    C0Y73473   2.401   2.511   2.295
    1HEX    O0Z73474   2.462   2.583   2.402
    1HEX    C1073475   2.570   2.657   2.379
    1HEX    O1173476   2.643   2.645   2.280
    1HEX    C1273477   2.588   2.770   2.480
    1HEX    C1373478   2.731   2.793   2.530
    1HEX    C1573479   2.339   2.272   2.365
    1HEX    O1673480   2.285   2.319   2.485
    1HEX    C1773481   2.244   2.221   2.563
    1HEX    O1873482   2.317   2.141   2.616
    1HEX    C1973483   2.095   2.201   2.569
    1HEX    C1A73484   2.034   2.143   2.440
    1HEX    H1D73485   2.740   2.184   1.888
    1HEX    H1E73486   2.594   2.181   1.971
    1HEX    H1F73487   2.625   2.046   1.728
    1HEX    H1G73488   2.569   2.195   1.669
    1HEX    H1H73489   2.197   2.155   1.795
    1HEX    H1I73490   2.217   2.314   1.867
    1HEX    H1J73491   2.163   2.322   2.135
    1HEX    H1K73492   2.014   2.235   2.148
    1HEX    H1M73493   2.015   2.649   2.185
    1HEX    H1N73494   2.171   2.587   2.168
    1HEX    H1O73495   2.094   2.385   2.303
    1HEX    H1P73496   1.936   2.420   2.287
    1HEX    H1R73497   1.965   2.071   2.020
    1HEX    H1S73498   2.092   1.954   1.999
    1HEX    H1T73499   2.017   1.931   1.607
    1HEX    H1U73500   1.841   1.924   1.617
    1HEX    H1V73501   1.877   1.699   1.559
    1HEX    H1W73502   1.899   1.679   1.731
    1HEX    H1Y73503   2.294   2.004   2.057
    1HEX    H1Z73504   2.223   2.069   2.195
    1HEX    H2073505   2.340   2.369   2.075
    1HEX    H2173506   2.501   2.334   2.082
    1HEX    H2273507   2.639   2.393   2.250
    1HEX    H2373508   2.598   2.228   2.282
    1HEX    H2473509   2.798   2.204   2.645
    1HEX    H2573510   2.795   2.364   2.584
    1HEX    H2673511   2.968   2.247   2.452
    1HEX    H2773512   2.831   2.278   2.349
    1HEX    H2973513   2.297   2.523   2.315
    1HEX    H2A73514   2.420   2.564   2.203
    1HEX    H2B73515   2.524   2.746   2.563
    1HEX    H2C73516   2.549   2.859   2.434
    1HEX    H2D73517   2.796   2.846   2.460
    1HEX    H2E73518   2.774   2.697   2.542
    1HEX    H2G73519   2.388   2.178   2.384
    1HEX    H2H73520   2.254   2.249   2.306
    1HEX    H2I73521   2.044   2.286   2.612
    1HEX    H2J73522   2.094   2.123   2.643
    1HEX    H2K73523   2.111   2.121   2.369
    1HEX    H2M73524   1.961   2.210   2.394
    1STR    S0073525   2.628   2.381   1.838
    1STR    S0E73526   2.076   2.514   2.466
    1STR    S0M73527   2.107   1.663   1.616
    1STR    S0X73528   2.855   2.050   2.379
    1STR    S1473529   2.754   2.851   2.700
    1STR    S1B73530   1.959   1.982   2.469
    1HEX    C0173531   2.616   2.028   4.310
    1HEX    C0273532   2.553   2.062   4.440
    1HEX    C0373533   2.406   2.052   4.440
    1HEX    O0473534   2.348   1.981   4.362
    1HEX    O0573535   2.352   2.129   4.524
    1HEX    C0673536   2.230   2.186   4.486
    1HEX    C0773537   2.214   2.308   4.575
    1HEX    C0873538   2.340   2.391   4.548
    1HEX    O0973539   2.368   2.438   4.417
    1HEX    C0A73540   2.312   2.549   4.375
    1HEX    O0B73541   2.220   2.605   4.433
    1HEX    C0C73542   2.379   2.609   4.251
    1HEX    C0D73543   2.460   2.738   4.269
    1HEX    C0F73544   2.083   2.378   4.537
    1HEX    O0G73545   1.984   2.288   4.578
    1HEX    C0H73546   1.917   2.220   4.491
    1HEX    O0I73547   1.885   2.257   4.380
    1HEX    C0J73548   1.886   2.083   4.542
    1HEX    C0K73549   1.799   2.085   4.667
    1HEX    C0N73550   2.209   2.268   4.726
    1HEX    O0O73551   2.316   2.329   4.797
    1HEX    C0P73552   2.349   2.298   4.933
    1HEX    C0Q73553   2.422   2.166   4.949
    1HEX    C0R73554   2.511   2.162   4.825
    1HEX    O0S73555   2.574   2.285   4.785
    1HEX    C0T73556   2.655   2.273   4.682
    1HEX    O0U73557   2.689   2.164   4.642
    1HEX    C0V73558   2.725   2.397   4.631
    1HEX    C0W73559   2.670   2.495   4.527
    1HEX    C0Y73560   2.516   2.153   5.070
    1HEX    O0Z73561   2.607   2.045   5.057
    1HEX    C1073562   2.585   1.923   5.101
    1HEX    O1173563   2.484   1.885   5.157
    1HEX    C1273564   2.697   1.822   5.074
    1HEX    C1373565   2.845   1.855   5.110
    1HEX    C1573566   2.318   2.054   4.964
    1HEX    O1673567   2.239   2.049   5.080
    1HEX    C1773568   2.119   2.098   5.075
    1HEX    O1873569   2.087   2.194   5.008
    1HEX    C1973570   2.023   2.031   5.170
    1HEX    C1A73571   1.949   2.132   5.257
    1HEX    H1D73572   2.718   1.996   4.320
    1HEX    H1E73573   2.559   1.954   4.258
    1HEX    H1F73574   2.566   2.166   4.463
    1HEX    H1G73575   2.594   2.000   4.515
    1HEX    H1H73576   2.156   2.109   4.496
    1HEX    H1I73577   2.232   2.216   4.380
    1HEX    H1J73578   2.428   2.336   4.579
    1HEX    H1K73579   2.339   2.472   4.614
    1HEX    H1M73580   2.299   2.637   4.186
    1HEX    H1N73581   2.435   2.536   4.195
    1HEX    H1O73582   2.452   2.800   4.181
    1HEX    H1P73583   2.566   2.719   4.281
    1HEX    H1R73584   2.078   2.401   4.431
    1HEX    H1S73585   2.067   2.471   4.591
    1HEX    H1T73586   1.981   2.040   4.565
    1HEX    H1U73587   1.847   2.023   4.461
    1HEX    H1V73588   1.732   2.003   4.682
    1HEX    H1W73589   1.734   2.169   4.673
    1HEX    H1Y73590   2.212   2.161   4.727
    1HEX    H1Z73591   2.115   2.296   4.775
    1HEX    H2073592   2.272   2.325   5.003
    1HEX    H2173593   2.430   2.364   4.958
    1HEX    H2273594   2.453   2.123   4.741
    1HEX    H2373595   2.592   2.093   4.840
    1HEX    H2473596   2.821   2.363   4.598
    1HEX    H2573597   2.739   2.453   4.722
    1HEX    H2673598   2.722   2.583   4.557
    1HEX    H2773599   2.564   2.508   4.542
    1HEX    H2973600   2.458   2.137   5.158
    1HEX    H2A73601   2.574   2.244   5.083
    1HEX    H2B73602   2.690   1.798   4.970
    1HEX    H2C73603   2.669   1.730   5.123
    1HEX    H2D73604   2.904   1.848   5.020
    1HEX    H2E73605   2.883   1.781   5.179
    1HEX    H2G73606   2.364   1.958   4.970
    1HEX    H2H73607   2.250   2.052   4.881
    1HEX    H2I73608   2.080   1.961   5.225
    1HEX    H2J73609   1.956   1.966   5.118
    1HEX    H2K73610   2.009   2.217   5.286
    1HEX    H2M73611   1.908   2.088   5.347
    1STR    S0073612   2.600   2.183   4.230
    1STR    S0E73613   2.402   2.831   4.410
    1STR    S0M73614   1.912   2.088   4.802
    1STR    S0X73615   2.702   2.493   4.348
    1STR    S1473616   2.886   2.017   5.179
    1STR    S1B73617   1.817   2.181   5.151
    1HEX    C0173618   2.411   1.852   6.605
    1HEX    C0273619   2.271   1.890   6.656
    1HEX    C0373620   2.172   1.927   6.549
    1HEX    O0473621   2.131   1.846   6.466
    1HEX    O0573622   2.139   2.055   6.562
    1HEX    C0673623   2.030   2.113   6.493
    1HEX    C0773624   1.949   2.194   6.594
    1HEX    C0873625   1.974   2.344   6.583
    1HEX    O0973626   1.938   2.419   6.470
    1HEX    C0A73627   1.940   2.556   6.472
    1HEX    O0B73628   1.885   2.623   6.385
    1HEX    C0C73629   1.993   2.629   6.596
    1HEX    C0D73630   2.141   2.656   6.627
    1HEX    C0F73631   1.801   2.152   6.577
    1HEX    O0G73632   1.785   2.011   6.573
    1HEX    C0H73633   1.665   1.956   6.559
    1HEX    O0I73634   1.557   2.014   6.556
    1HEX    C0J73635   1.676   1.806   6.538
    1HEX    C0K73636   1.660   1.720   6.666
    1HEX    C0N73637   1.996   2.171   6.739
    1HEX    O0O73638   2.121   2.229   6.783
    1HEX    C0P73639   2.120   2.348   6.865
    1HEX    C0Q73640   2.258   2.386   6.938
    1HEX    C0R73641   2.356   2.315   6.848
    1HEX    O0S73642   2.476   2.383   6.841
    1HEX    C0T73643   2.575   2.339   6.908
    1HEX    O0U73644   2.578   2.238   6.977
    1HEX    C0V73645   2.694   2.425   6.883
    1HEX    C0W73646   2.676   2.570   6.848
    1HEX    C0Y73647   2.290   2.541   6.951
    1HEX    O0Z73648   2.323   2.574   7.086
    1HEX    C1073649   2.338   2.698   7.131
    1HEX    O1173650   2.330   2.798   7.062
    1HEX    C1273651   2.353   2.703   7.283
    1HEX    C1373652   2.392   2.838   7.343
    1HEX    C1573653   2.277   2.324   7.079
    1HEX    O1673654   2.180   2.230   7.095
    1HEX    C1773655   2.069   2.248   7.160
    1HEX    O1873656   2.003   2.148   7.173
    1HEX    C1973657   2.027   2.387   7.218
    1HEX    C1A73658   2.013   2.509   7.121
    1HEX    H1D73659   2.424   1.891   6.506
    1HEX    H1E73660   2.415   1.745   6.588
    1HEX    H1F73661   2.277   1.976   6.720
    1HEX    H1G73662   2.221   1.812   6.709
    1HEX    H1H73663   1.974   2.033   6.445
    1HEX    H1I73664   2.061   2.180   6.414
    1HEX    H1J73665   2.080   2.358   6.598
    1HEX    H1K73666   1.925   2.387   6.668
    1HEX    H1M73667   1.953   2.592   6.687
    1HEX    H1N73668   1.948   2.728   6.586
    1HEX    H1O73669   2.131   2.680   6.731
    1HEX    H1P73670   2.186   2.740   6.576
    1HEX    H1R73671   1.759   2.195   6.487
    1HEX    H1S73672   1.736   2.185   6.656
    1HEX    H1T73673   1.773   1.787   6.492
    1HEX    H1U73674   1.602   1.777   6.464
    1HEX    H1V73675   1.700   1.620   6.647
    1HEX    H1W73676   1.554   1.709   6.690
    1HEX    H1Y73677   1.999   2.065   6.758
    1HEX    H1Z73678   1.917   2.211   6.795
    1HEX    H2073679   2.042   2.332   6.935
    1HEX    H2173680   2.085   2.434   6.809
    1HEX    H2273681   2.326   2.309   6.745
    1HEX    H2373682   2.365   2.210   6.878
    1HEX    H2473683   2.738   2.374   6.801
    1HEX    H2573684   2.761   2.420   6.967
    1HEX    H2673685   2.620   2.580   6.757
    1HEX    H2773686   2.775   2.613   6.835
    1HEX    H2973687   2.208   2.603   6.920
    1HEX    H2A73688   2.369   2.576   6.886
    1HEX    H2B73689   2.432   2.633   7.306
    1HEX    H2C73690   2.268   2.660   7.334
    1HEX    H2D73691   2.487   2.869   7.300
    1HEX    H2E73692   2.411   2.827   7.447
    1HEX    H2G73693   2.274   2.384   7.169
    1HEX    H2H73694   2.371   2.271   7.090
    1HEX    H2I73695   2.092   2.413   7.301
    1HEX    H2J73696   1.931   2.367   7.263
    1HEX    H2K73697   1.920   2.512   7.068
    1HEX    H2M73698   2.080   2.504   7.042
    1STR    S0073699   2.551   1.909   6.711
    1STR    S0E73700   2.267   2.533   6.644
    1STR    S0M73701   1.742   1.781   6.816
    1STR    S0X73702   2.595   2.660   6.976
    1STR    S1473703   2.275   2.976   7.328
    1STR    S1B73704   2.050   2.675   7.186
    1HEX    C0173705   2.517   5.081   8.706
    1HEX    C0273706   2.415   5.075   8.817
    1HEX    C0373707   2.362   4.938   8.833
    1HEX    O0473708   2.383   4.854   8.748
    1HEX    O0573709   2.286   4.921   8.940
    1HEX    C0673710   2.199   4.811   8.928
    1HEX    C0773711   2.083   4.811   9.026
    1HEX    C0873712   2.010   4.943   9.008
    1HEX    O0973713   1.937   4.967   8.888
    1HEX    C0A73714   1.805   4.954   8.890
    1HEX    O0B73715   1.743   4.850   8.884
    1HEX    C0C73716   1.729   5.082   8.910
    1HEX    C0D73717   1.759   5.133   9.049
    1HEX    C0F73718   1.986   4.693   8.996
    1HEX    O0G73719   2.041   4.562   8.992
    1HEX    C0H73720   1.978   4.467   8.921
    1HEX    O0I73721   1.877   4.486   8.858
    1HEX    C0J73722   2.034   4.327   8.920
    1HEX    C0K73723   2.129   4.286   9.034
    1HEX    C0N73724   2.146   4.808   9.166
    1HEX    O0O73725   2.109   4.910   9.255
    1HEX    C0P73726   2.210   4.943   0.028
    1HEX    C0Q73727   2.251   4.845   0.137
    1HEX    C0R73728   2.337   4.729   0.085
    1HEX    O0S73729   2.463   4.780   0.038
    1HEX    C0T73730   2.571   4.758   0.116
    1HEX    O0U73731   2.588   4.661   0.186
    1HEX    C0V73732   2.666   4.875   0.128
    1HEX    C0W73733   2.694   4.920   0.270
    1HEX    C0Y73734   2.343   4.928   0.225
    1HEX    O0Z73735   2.407   4.849   0.319
    1HEX    C1073736   2.341   4.820   0.422
    1HEX    O1173737   2.257   4.893   0.468
    1HEX    C1273738   2.359   4.679   0.461
    1HEX    C1373739   2.504   4.664   0.503
    1HEX    C1573740   2.119   4.807   0.203
    1HEX    O1673741   2.111   4.709   0.306
    1HEX    C1773742   1.993   4.680   0.370
    1HEX    O1873743   1.968   4.575   0.426
    1HEX    C1973744   1.882   4.783   0.367
    1HEX    C1A73745   1.820   4.806   0.231
    1HEX    H1D73746   2.541   5.184   8.685
    1HEX    H1E73747   2.476   5.037   8.615
    1HEX    H1F73748   2.328   5.138   8.799
    1HEX    H1G73749   2.461   5.104   8.909
    1HEX    H1H73750   2.253   4.718   8.923
    1HEX    H1I73751   2.158   4.824   8.831
    1HEX    H1J73752   2.084   5.021   9.012
    1HEX    H1K73753   1.948   4.956   9.095
    1HEX    H1M73754   1.623   5.062   8.900
    1HEX    H1N73755   1.752   5.151   8.830
    1HEX    H1O73756   1.701   5.221   9.069
    1HEX    H1P73757   1.864   5.160   9.062
    1HEX    H1R73758   1.946   4.713   8.900
    1HEX    H1S73759   1.893   4.694   9.051
    1HEX    H1T73760   2.069   4.310   8.821
    1HEX    H1U73761   1.950   4.259   8.914
    1HEX    H1V73762   2.139   4.178   9.039
    1HEX    H1W73763   2.090   4.315   9.129
    1HEX    H1Y73764   2.254   4.810   9.158
    1HEX    H1Z73765   2.116   4.720   9.219
    1HEX    H2073766   2.169   5.032   0.076
    1HEX    H2173767   2.301   4.968   9.296
    1HEX    H2273768   2.287   4.669   0.013
    1HEX    H2373769   2.353   4.661   0.167
    1HEX    H2473770   2.630   4.955   0.070
    1HEX    H2573771   2.761   4.852   0.084
    1HEX    H2673772   2.798   4.923   0.291
    1HEX    H2773773   2.649   4.857   0.344
    1HEX    H2973774   2.290   5.009   0.270
    1HEX    H2A73775   2.424   4.970   0.169
    1HEX    H2B73776   2.337   4.627   0.371
    1HEX    H2C73777   2.281   4.646   0.527
    1HEX    H2D73778   2.529   4.735   0.580
    1HEX    H2E73779   2.560   4.695   0.418
    1HEX    H2G73780   2.059   4.768   0.123
    1HEX    H2H73781   2.074   4.899   0.239
    1HEX    H2I73782   1.913   4.872   0.417
    1HEX    H2J73783   1.804   4.745   0.433
    1HEX    H2K73784   1.873   4.873   0.164
    1HEX    H2M73785   1.725   4.850   0.253
    1STR    S0073786   2.664   4.988   8.756
    1STR    S0E73787   1.716   5.014   9.175
    1STR    S0M73788   2.292   4.360   9.024
    1STR    S0X73789   2.646   5.087   0.302
    1STR    S1473790   2.562   4.496   0.534
    1STR    S1B73791   1.807   4.650   0.148
    1HEX    C0173792   2.740   4.592   1.947
    1HEX    C0273793   2.591   4.560   1.955
    1HEX    C0373794   2.542   4.418   1.966
    1HEX    O0473795   2.610   4.317   1.988
    1HEX    O0573796   2.412   4.419   1.955
    1HEX    C0673797   2.338   4.346   2.047
    1HEX    C0773798   2.237   4.438   2.112
    1HEX    C0873799   2.303   4.572   2.137
    1HEX    O0973800   2.227   4.653   2.220
    1HEX    C0A73801   2.286   4.714   2.322
    1HEX    O0B73802   2.395   4.694   2.373
    1HEX    C0C73803   2.198   4.820   2.372
    1HEX    C0D73804   2.236   4.945   2.300
    1HEX    C0F73805   2.108   4.446   2.032
    1HEX    O0G73806   2.056   4.316   2.046
    1HEX    C0H73807   1.934   4.287   2.015
    1HEX    O0I73808   1.858   4.364   1.956
    1HEX    C0J73809   1.906   4.140   2.043
    1HEX    C0K73810   1.759   4.100   2.023
    1HEX    C0N73811   2.195   4.381   2.245
    1HEX    O0O73812   2.286   4.418   2.344
    1HEX    C0P73813   2.217   4.462   2.458
    1HEX    C0Q73814   2.153   4.345   2.534
    1HEX    C0R73815   2.212   4.210   2.502
    1HEX    O0S73816   2.349   4.222   2.487
    1HEX    C0T73817   2.426   4.123   2.518
    1HEX    O0U73818   2.388   4.012   2.555
    1HEX    C0V73819   2.569   4.162   2.497
    1HEX    C0W73820   2.579   4.242   2.367
    1HEX    C0Y73821   2.172   4.366   2.682
    1HEX    O0Z73822   2.304   4.399   2.713
    1HEX    C1073823   2.399   4.314   2.746
    1HEX    O1173824   2.391   4.194   2.770
    1HEX    C1273825   2.529   4.384   2.750
    1HEX    C1373826   2.536   4.474   2.627
    1HEX    C1573827   2.004   4.339   2.499
    1HEX    O1673828   1.950   4.465   2.526
    1HEX    C1773829   1.895   4.485   2.642
    1HEX    O1873830   1.843   4.402   2.715
    1HEX    C1973831   1.903   4.627   2.682
    1HEX    C1A73832   1.963   4.722   2.580
    1HEX    H1D73833   2.759   4.695   1.919
    1HEX    H1E73834   2.782   4.576   2.046
    1HEX    H1F73835   2.531   4.600   1.875
    1HEX    H1G73836   2.557   4.610   2.044
    1HEX    H1H73837   2.403   4.311   2.127
    1HEX    H1I73838   2.292   4.262   1.994
    1HEX    H1J73839   2.321   4.622   2.044
    1HEX    H1K73840   2.401   4.555   2.180
    1HEX    H1M73841   2.213   4.834   2.478
    1HEX    H1N73842   2.096   4.791   2.350
    1HEX    H1O73843   2.331   4.982   2.339
    1HEX    H1P73844   2.157   5.014   2.321
    1HEX    H1R73845   2.122   4.479   1.929
    1HEX    H1S73846   2.041   4.517   2.080
    1HEX    H1T73847   1.941   4.114   2.143
    1HEX    H1U73848   1.970   4.082   1.978
    1HEX    H1V73849   1.757   4.010   1.965
    1HEX    H1W73850   1.710   4.170   1.958
    1HEX    H1Y73851   2.186   4.273   2.240
    1HEX    H1Z73852   2.096   4.421   2.265
    1HEX    H2073853   2.145   4.538   2.433
    1HEX    H2173854   2.285   4.519   2.519
    1HEX    H2273855   2.169   4.165   2.414
    1HEX    H2373856   2.196   4.143   2.585
    1HEX    H2473857   2.620   4.068   2.502
    1HEX    H2573858   2.610   4.216   2.580
    1HEX    H2673859   2.522   4.333   2.380
    1HEX    H2773860   2.531   4.197   2.282
    1HEX    H2973861   2.134   4.280   2.734
    1HEX    H2A73862   2.122   4.455   2.715
    1HEX    H2B73863   2.607   4.310   2.758
    1HEX    H2C73864   2.537   4.441   2.841
    1HEX    H2D73865   2.469   4.448   2.547
    1HEX    H2E73866   2.633   4.463   2.583
    1HEX    H2G73867   1.953   4.263   2.555
    1HEX    H2H73868   1.987   4.312   2.396
    1HEX    H2I73869   1.963   4.629   2.773
    1HEX    H2J73870   1.798   4.648   2.702
    1HEX    H2K73871   1.935   4.701   2.477
    1HEX    H2M73872   2.070   4.717   2.583
    1STR    S0073873   2.829   4.474   1.849
    1STR    S0E73874   2.246   4.929   2.120
    1STR    S0M73875   1.657   4.067   2.171
    1STR    S0X73876   2.747   4.284   2.326
    1STR    S1473877   2.512   4.642   2.689
    1STR    S1B73878   1.903   4.881   2.637
    1HEX    C0173879   2.585   4.569   4.177
    1HEX    C0273880   2.502   4.444   4.205
    1HEX    C0373881   2.391   4.432   4.104
    1HEX    O0473882   2.409   4.377   3.997
    1HEX    O0573883   2.281   4.491   4.140
    1HEX    C0673884   2.162   4.478   4.069
    1HEX    C0773885   2.046   4.507   4.165
    1HEX    C0873886   2.065   4.652   4.218
    1HEX    O0973887   1.957   4.741   4.223
    1HEX    C0A73888   1.972   4.873   4.199
    1HEX    O0B73889   1.894   4.934   4.126
    1HEX    C0C73890   2.088   4.944   4.267
    1HEX    C0D73891   2.054   4.977   4.411
    1HEX    C0F73892   1.914   4.479   4.086
    1HEX    O0G73893   1.875   4.341   4.062
    1HEX    C0H73894   1.771   4.311   3.975
    1HEX    O0I73895   1.703   4.393   3.916
    1HEX    C0J73896   1.737   4.164   3.942
    1HEX    C0K73897   1.783   4.057   4.038
    1HEX    C0N73898   2.056   4.408   4.282
    1HEX    O0O73899   2.109   4.447   4.408
    1HEX    C0P73900   2.245   4.486   4.423
    1HEX    C0Q73901   2.269   4.562   4.555
    1HEX    C0R73902   2.296   4.455   4.653
    1HEX    O0S73903   2.417   4.388   4.629
    1HEX    C0T73904   2.518   4.416   4.707
    1HEX    O0U73905   2.574   4.524   4.719
    1HEX    C0V73906   2.562   4.293   4.778
    1HEX    C0W73907   2.691   4.313   4.852
    1HEX    C0Y73908   2.377   4.667   4.547
    1HEX    O0Z73909   2.387   4.748   4.662
    1HEX    C1073910   2.475   4.844   4.658
    1HEX    O1173911   2.546   4.867   4.562
    1HEX    C1273912   2.482   4.929   4.783
    1HEX    C1373913   2.617   4.909   4.849
    1HEX    C1573914   2.144   4.636   4.593
    1HEX    O1673915   2.146   4.706   4.716
    1HEX    C1773916   2.065   4.658   4.806
    1HEX    O1873917   2.067   4.543   4.848
    1HEX    C1973918   1.951   4.751   4.829
    1HEX    C1A73919   1.876   4.760   4.695
    1HEX    H1D73920   2.684   4.548   4.138
    1HEX    H1E73921   2.534   4.617   4.099
    1HEX    H1F73922   2.470   4.443   4.308
    1HEX    H1G73923   2.561   4.355   4.191
    1HEX    H1H73924   2.152   4.377   4.031
    1HEX    H1I73925   2.164   4.545   3.984
    1HEX    H1J73926   2.140   4.696   4.157
    1HEX    H1K73927   2.105   4.658   4.317
    1HEX    H1M73928   2.117   5.032   4.210
    1HEX    H1N73929   2.174   4.881   4.267
    1HEX    H1O73930   2.140   4.958   4.476
    1HEX    H1P73931   1.975   4.911   4.444
    1HEX    H1R73932   1.912   4.531   3.991
    1HEX    H1S73933   1.838   4.526   4.145
    1HEX    H1T73934   1.771   4.140   3.842
    1HEX    H1U73935   1.628   4.160   3.933
    1HEX    H1V73936   1.726   3.965   4.026
    1HEX    H1W73937   1.772   4.088   4.142
    1HEX    H1Y73938   2.112   4.326   4.244
    1HEX    H1Z73939   1.956   4.371   4.300
    1HEX    H2073940   2.278   4.552   4.347
    1HEX    H2173941   2.304   4.395   4.415
    1HEX    H2273942   2.210   4.392   4.640
    1HEX    H2373943   2.289   4.483   4.755
    1HEX    H2473944   2.579   4.223   4.698
    1HEX    H2573945   2.481   4.261   4.843
    1HEX    H2673946   2.697   4.409   4.903
    1HEX    H2773947   2.772   4.306   4.782
    1HEX    H2973948   2.346   4.738   4.472
    1HEX    H2A73949   2.472   4.624   4.521
    1HEX    H2B73950   2.400   4.906   4.849
    1HEX    H2C73951   2.470   5.029   4.748
    1HEX    H2D73952   2.700   4.948   4.792
    1HEX    H2E73953   2.628   4.802   4.842
    1HEX    H2G73954   2.072   4.557   4.603
    1HEX    H2H73955   2.113   4.703   4.515
    1HEX    H2I73956   1.987   4.848   4.862
    1HEX    H2J73957   1.890   4.708   4.908
    1HEX    H2K73958   1.940   4.779   4.610
    1HEX    H2M73959   1.809   4.845   4.692
    1STR    S0073960   2.585   4.703   4.298
    1STR    S0E73961   2.002   5.150   4.432
    1STR    S0M73962   1.952   4.027   3.989
    1STR    S0X73963   2.723   4.182   4.966
    1STR    S1473964   2.631   4.955   5.024
    1STR    S1B73965   1.794   4.601   4.671
    1HEX    C0173966   2.687   4.273   6.373
    1HEX    C0273967   2.718   4.224   6.514
    1HEX    C0373968   2.586   4.201   6.578
    1HEX    O0473969   2.503   4.146   6.509
    1HEX    O0573970   2.562   4.266   6.693
    1HEX    C0673971   2.429   4.271   6.741
    1HEX    C0773972   2.381   4.385   6.827
    1HEX    C0873973   2.431   4.512   6.760
    1HEX    O0973974   2.335   4.595   6.703
    1HEX    C0A73975   2.285   4.687   6.776
    1HEX    O0B73976   2.243   4.669   6.887
    1HEX    C0C73977   2.294   4.820   6.712
    1HEX    C0D73978   2.299   4.933   6.808
    1HEX    C0F73979   2.228   4.368   6.827
    1HEX    O0G73980   2.196   4.267   6.919
    1HEX    C0H73981   2.140   4.154   6.884
    1HEX    O0I73982   2.087   4.131   6.776
    1HEX    C0J73983   2.137   4.053   6.994
    1HEX    C0K73984   2.239   4.081   7.105
    1HEX    C0N73985   2.440   4.371   6.968
    1HEX    O0O73986   2.425   4.482   7.054
    1HEX    C0P73987   2.303   4.517   7.117
    1HEX    C0Q73988   2.282   4.473   7.262
    1HEX    C0R73989   2.396   4.384   7.305
    1HEX    O0S73990   2.506   4.467   7.333
    1HEX    C0T73991   2.609   4.467   7.251
    1HEX    O0U73992   2.654   4.370   7.190
    1HEX    C0V73993   2.679   4.598   7.246
    1HEX    C0W73994   2.607   4.718   7.186
    1HEX    C0Y73995   2.267   4.598   7.355
    1HEX    O0Z73996   2.264   4.553   7.488
    1HEX    C1073997   2.243   4.634   7.592
    1HEX    O1173998   2.232   4.755   7.594
    1HEX    C1273999   2.242   4.558   7.721
    1HEX    C1374000   2.371   4.479   7.728
    1HEX    C1574001   2.152   4.393   7.262
    1HEX    O1674002   2.128   4.305   7.370
    1HEX    C1774003   2.030   4.219   7.350
    1HEX    O1874004   1.996   4.175   7.241
    1HEX    C1974005   1.953   4.184   7.473
    1HEX    C1A74006   1.902   4.310   7.538
    1HEX    H1D74007   2.775   4.289   6.314
    1HEX    H1E74008   2.628   4.201   6.317
    1HEX    H1F74009   2.776   4.295   6.571
    1HEX    H1G74010   2.771   4.130   6.514
    1HEX    H1H74011   2.406   4.183   6.799
    1HEX    H1I74012   2.366   4.275   6.654
    1HEX    H1J74013   2.503   4.492   6.681
    1HEX    H1K74014   2.488   4.569   6.829
    1HEX    H1M74015   2.214   4.842   6.646
    1HEX    H1N74016   2.386   4.821   6.655
    1HEX    H1O74017   2.307   5.015   6.741
    1HEX    H1P74018   2.390   4.933   6.864
    1HEX    H1R74019   2.187   4.350   6.727
    1HEX    H1S74020   2.175   4.456   6.857
    1HEX    H1T74021   2.153   3.955   6.951
    1HEX    H1U74022   2.036   4.056   7.035
    1HEX    H1V74023   2.208   4.044   7.201
    1HEX    H1W74024   2.251   4.186   7.126
    1HEX    H1Y74025   2.548   4.358   6.960
    1HEX    H1Z74026   2.408   4.282   7.018
    1HEX    H2074027   2.221   4.496   7.053
    1HEX    H2174028   2.304   4.624   7.120
    1HEX    H2274029   2.419   4.312   7.228
    1HEX    H2374030   2.367   4.323   7.390
    1HEX    H2474031   2.773   4.574   7.203
    1HEX    H2574032   2.698   4.620   7.348
    1HEX    H2674033   2.663   4.808   7.205
    1HEX    H2774034   2.509   4.729   7.232
    1HEX    H2974035   2.179   4.657   7.331
    1HEX    H2A74036   2.350   4.667   7.345
    1HEX    H2B74037   2.154   4.494   7.724
    1HEX    H2C74038   2.235   4.631   7.800
    1HEX    H2D74039   2.400   4.468   7.831
    1HEX    H2E74040   2.452   4.532   7.679
    1HEX    H2G74041   2.137   4.345   7.167
    1HEX    H2H74042   2.069   4.461   7.267
    1HEX    H2I74043   2.021   4.137   7.544
    1HEX    H2J74044   1.875   4.111   7.455
    1HEX    H2K74045   1.988   4.362   7.578
    1HEX    H2M74046   1.831   4.281   7.612
    1STR    S0074047   2.604   4.433   6.391
    1STR    S0E74048   2.161   4.952   6.924
    1STR    S0M74049   2.402   4.022   7.059
    1STR    S0X74050   2.583   4.705   7.010
    1STR    S1474051   2.348   4.320   7.646
    1STR    S1B74052   1.794   4.428   7.459
    1HEX    C0174053   2.524   6.681   8.898
    1HEX    C0274054   2.615   6.620   9.003
    1HEX    C0374055   2.559   6.642   9.139
    1HEX    O0474056   2.517   6.550   9.204
    1HEX    O0574057   2.547   6.767   9.174
    1HEX    C0674058   2.417   6.818   9.171
    1HEX    C0774059   2.347   6.876   9.290
    1HEX    C0874060   2.399   7.016   0.010
    1HEX    O0974061   2.346   7.115   9.243
    1HEX    C0A74062   2.406   7.158   9.132
    1HEX    O0B74063   2.342   7.194   9.034
    1HEX    C0C74064   2.556   7.176   9.138
    1HEX    C0D74065   2.631   7.054   9.090
    1HEX    C0F74066   2.202   6.885   9.244
    1HEX    O0G74067   2.144   6.756   9.240
    1HEX    C0H74068   2.014   6.741   9.251
    1HEX    O0I74069   1.930   6.828   9.238
    1HEX    C0J74070   1.985   6.606   9.306
    1HEX    C0K74071   1.838   6.567   0.004
    1HEX    C0N74072   2.350   6.775   0.082
    1HEX    O0O74073   2.472   6.777   0.146
    1HEX    C0P74074   2.468   6.733   0.280
    1HEX    C0Q74075   2.405   6.600   0.323
    1HEX    C0R74076   2.454   6.499   0.221
    1HEX    O0S74077   2.558   6.535   0.134
    1HEX    C0T74078   2.682   6.495   0.149
    1HEX    O0U74079   2.728   6.438   0.247
    1HEX    C0V74080   2.770   6.530   0.032
    1HEX    C0W74081   2.791   6.679   0.023
    1HEX    C0Y74082   2.478   6.574   0.457
    1HEX    O0Z74083   2.422   6.483   0.549
    1HEX    C1074084   2.493   6.466   0.661
    1HEX    O1174085   2.600   6.406   0.669
    1HEX    C1274086   2.437   6.539   0.783
    1HEX    C1374087   2.400   6.688   0.755
    1HEX    C1574088   2.248   6.616   0.324
    1HEX    O1674089   2.153   6.565   0.419
    1HEX    C1774090   2.025   6.616   0.402
    1HEX    O1874091   1.990   6.671   0.299
    1HEX    C1974092   1.923   6.600   0.515
    1HEX    C1A74093   1.793   6.684   0.501
    1HEX    H1D74094   2.562   6.661   8.800
    1HEX    H1E74095   2.532   6.787   8.911
    1HEX    H1F74096   2.712   6.665   9.003
    1HEX    H1G74097   2.634   6.514   8.988
    1HEX    H1H74098   2.352   6.736   9.145
    1HEX    H1I74099   2.414   6.893   9.093
    1HEX    H1J74100   2.507   7.018   0.022
    1HEX    H1K74101   2.360   7.039   0.108
    1HEX    H1M74102   2.588   7.204   9.237
    1HEX    H1N74103   2.583   7.259   9.075
    1HEX    H1O74104   2.605   6.972   9.151
    1HEX    H1P74105   2.732   7.061   9.119
    1HEX    H1R74106   2.202   6.932   9.148
    1HEX    H1S74107   2.141   6.952   9.298
    1HEX    H1T74108   2.035   6.613   0.081
    1HEX    H1U74109   2.041   6.534   9.248
    1HEX    H1V74110   1.817   6.499   9.243
    1HEX    H1W74111   1.771   6.652   9.313
    1HEX    H1Y74112   2.334   6.674   0.046
    1HEX    H1Z74113   2.270   6.796   0.149
    1HEX    H2074114   2.429   6.811   0.339
    1HEX    H2174115   2.572   6.720   0.303
    1HEX    H2274116   2.372   6.467   0.157
    1HEX    H2374117   2.493   6.419   0.279
    1HEX    H2474118   2.733   6.487   9.260
    1HEX    H2574119   2.863   6.480   0.044
    1HEX    H2674120   2.695   6.728   0.017
    1HEX    H2774121   2.852   6.706   9.259
    1HEX    H2974122   2.492   6.669   0.508
    1HEX    H2A74123   2.582   6.542   0.439
    1HEX    H2B74124   2.514   6.530   0.859
    1HEX    H2C74125   2.352   6.482   0.820
    1HEX    H2D74126   2.475   6.742   0.697
    1HEX    H2E74127   2.382   6.749   0.843
    1HEX    H2G74128   2.210   6.588   0.226
    1HEX    H2H74129   2.228   6.722   0.332
    1HEX    H2I74130   1.971   6.613   0.611
    1HEX    H2J74131   1.890   6.498   0.509
    1HEX    H2K74132   1.738   6.679   0.595
    1HEX    H2M74133   1.729   6.634   0.429
    1STR    S0074134   2.347   6.640   8.914
    1STR    S0E74135   2.628   7.021   8.911
    1STR    S0M74136   1.795   6.485   0.163
    1STR    S0X74137   2.862   6.739   0.174
    1STR    S1474138   2.240   6.678   0.678
    1STR    S1B74139   1.806   6.862   0.457
    1HEX    C0174140   2.614   6.902   1.928
    1HEX    C0274141   2.499   6.881   2.023
    1HEX    C0374142   2.374   6.859   1.946
    1HEX    O0474143   2.374   6.769   1.866
    1HEX    O0574144   2.281   6.949   1.953
    1HEX    C0674145   2.154   6.912   1.909
    1HEX    C0774146   2.062   6.880   2.024
    1HEX    C0874147   2.010   7.016   2.073
    1HEX    O0974148   1.933   7.091   1.985
    1HEX    C0A74149   1.902   7.219   2.017
    1HEX    O0B74150   1.854   7.294   1.933
    1HEX    C0C74151   1.937   7.279   2.157
    1HEX    C0D74152   1.916   7.226   2.306
    1HEX    C0F74153   1.949   6.787   1.976
    1HEX    O0G74154   1.989   6.665   1.917
    1HEX    C0H74155   1.898   6.569   1.895
    1HEX    O0I74156   1.799   6.549   1.964
    1HEX    C0J74157   1.930   6.475   1.778
    1HEX    C0K74158   2.066   6.408   1.794
    1HEX    C0N74159   2.129   6.800   2.138
    1HEX    O0O74160   2.254   6.838   2.195
    1HEX    C0P74161   2.287   6.972   2.226
    1HEX    C0Q74162   2.260   7.031   2.360
    1HEX    C0R74163   2.366   6.982   2.464
    1HEX    O0S74164   2.493   7.046   2.475
    1HEX    C0T74165   2.600   7.015   2.401
    1HEX    O0U74166   2.601   6.955   2.296
    1HEX    C0V74167   2.734   7.060   2.457
    1HEX    C0W74168   2.732   7.192   2.529
    1HEX    C0Y74169   2.263   7.180   2.333
    1HEX    O0Z74170   2.240   7.250   2.452
    1HEX    C1074171   2.346   7.299   2.508
    1HEX    O1174172   2.454   7.308   2.453
    1HEX    C1274173   2.329   7.337   2.650
    1HEX    C1374174   2.462   7.323   2.721
    1HEX    C1574175   2.122   6.989   2.393
    1HEX    O1674176   2.063   7.054   2.501
    1HEX    C1774177   2.041   6.980   2.603
    1HEX    O1874178   2.112   6.885   2.634
    1HEX    C1974179   1.901   7.004   2.653
    1HEX    C1A74180   1.806   6.913   2.573
    1HEX    H1D74181   2.602   6.848   1.834
    1HEX    H1E74182   2.711   6.874   1.964
    1HEX    H1F74183   2.502   6.961   2.089
    1HEX    H1G74184   2.500   6.803   2.096
    1HEX    H1H74185   2.159   6.823   1.851
    1HEX    H1I74186   2.116   6.991   1.845
    1HEX    H1J74187   2.092   7.080   2.100
    1HEX    H1K74188   1.944   7.005   2.155
    1HEX    H1M74189   1.889   7.375   2.150
    1HEX    H1N74190   2.043   7.290   2.144
    1HEX    H1O74191   2.009   7.238   2.359
    1HEX    H1P74192   1.890   7.122   2.314
    1HEX    H1R74193   1.883   6.839   1.907
    1HEX    H1S74194   1.892   6.756   2.063
    1HEX    H1T74195   1.917   6.524   1.683
    1HEX    H1U74196   1.852   6.399   1.781
    1HEX    H1V74197   2.054   6.302   1.777
    1HEX    H1W74198   2.085   6.421   1.899
    1HEX    H1Y74199   2.149   6.698   2.102
    1HEX    H1Z74200   2.054   6.788   2.215
    1HEX    H2074201   2.279   7.044   2.147
    1HEX    H2174202   2.390   6.966   2.237
    1HEX    H2274203   2.391   6.879   2.443
    1HEX    H2374204   2.322   6.987   2.563
    1HEX    H2474205   2.812   7.061   2.384
    1HEX    H2574206   2.760   6.985   2.529
    1HEX    H2674207   2.805   7.194   2.608
    1HEX    H2774208   2.635   7.204   2.569
    1HEX    H2974209   2.193   7.212   2.258
    1HEX    H2A74210   2.357   7.203   2.286
    1HEX    H2B74211   2.250   7.275   2.690
    1HEX    H2C74212   2.297   7.437   2.655
    1HEX    H2D74213   2.464   7.384   2.807
    1HEX    H2E74214   2.547   7.357   2.664
    1HEX    H2G74215   2.113   6.882   2.401
    1HEX    H2H74216   2.060   7.009   2.311
    1HEX    H2I74217   1.880   7.108   2.632
    1HEX    H2J74218   1.892   6.993   2.760
    1HEX    H2K74219   1.830   6.916   2.467
    1HEX    H2M74220   1.703   6.945   2.582
    1STR    S0074221   2.617   7.076   1.901
    1STR    S0E74222   1.800   7.312   2.420
    1STR    S0M74223   2.213   6.467   1.698
    1STR    S0X74224   2.755   7.338   2.434
    1STR    S1474225   2.459   7.149   2.760
    1STR    S1B74226   1.811   6.741   2.627
    1HEX    C0174227   2.718   6.951   4.150
    1HEX    C0274228   2.592   6.899   4.218
    1HEX    C0374229   2.597   6.901   4.371
    1HEX    O0474230   2.704   6.919   4.426
    1HEX    O0574231   2.482   6.881   4.443
    1HEX    C0674232   2.354   6.836   4.396
    1HEX    C0774233   2.249   6.948   4.390
    1HEX    C0874234   2.309   7.043   4.287
    1HEX    O0974235   2.250   7.163   4.248
    1HEX    C0A74236   2.296   7.271   4.302
    1HEX    O0B74237   2.306   7.281   4.422
    1HEX    C0C74238   2.358   7.372   4.204
    1HEX    C0D74239   2.505   7.399   4.231
    1HEX    C0F74240   2.114   6.901   4.337
    1HEX    O0G74241   2.046   6.793   4.397
    1HEX    C0H74242   1.936   6.819   4.468
    1HEX    O0I74243   1.913   6.923   4.529
    1HEX    C0J74244   1.830   6.713   4.449
    1HEX    C0K74245   1.749   6.675   4.569
    1HEX    C0N74246   2.230   7.007   4.529
    1HEX    O0O74247   2.164   6.914   4.613
    1HEX    C0P74248   2.173   6.927   4.755
    1HEX    C0Q74249   2.124   6.800   4.828
    1HEX    C0R74250   2.156   6.684   4.737
    1HEX    O0S74251   2.293   6.704   4.703
    1HEX    C0T74252   2.391   6.630   4.746
    1HEX    O0U74253   2.382   6.511   4.776
    1HEX    C0V74254   2.522   6.699   4.724
    1HEX    C0W74255   2.550   6.822   4.811
    1HEX    C0Y74256   2.203   6.776   4.959
    1HEX    O0Z74257   2.275   6.655   4.980
    1HEX    C1074258   2.221   6.539   5.018
    1HEX    O1174259   2.102   6.508   5.018
    1HEX    C1274260   2.327   6.437   5.057
    1HEX    C1374261   2.436   6.493   5.147
    1HEX    C1574262   1.975   6.817   4.864
    1HEX    O1674263   1.932   6.709   4.946
    1HEX    C1774264   1.805   6.696   4.985
    1HEX    O1874265   1.711   6.742   4.923
    1HEX    C1974266   1.785   6.614   5.112
    1HEX    C1A74267   1.671   6.654   5.212
    1HEX    H1D74268   2.698   6.994   4.054
    1HEX    H1E74269   2.753   7.033   4.206
    1HEX    H1F74270   2.573   6.798   4.188
    1HEX    H1G74271   2.516   6.963   4.179
    1HEX    H1H74272   2.316   6.767   4.471
    1HEX    H1I74273   2.360   6.782   4.303
    1HEX    H1J74274   2.316   6.988   4.194
    1HEX    H1K74275   2.409   7.069   4.321
    1HEX    H1M74276   2.309   7.467   4.199
    1HEX    H1N74277   2.342   7.340   4.106
    1HEX    H1O74278   2.511   7.456   4.319
    1HEX    H1P74279   2.547   7.463   4.154
    1HEX    H1R74280   2.127   6.873   4.235
    1HEX    H1S74281   2.050   6.989   4.340
    1HEX    H1T74282   1.876   6.625   4.412
    1HEX    H1U74283   1.761   6.744   4.372
    1HEX    H1V74284   1.671   6.608   4.536
    1HEX    H1W74285   1.712   6.762   4.621
    1HEX    H1Y74286   2.171   7.099   4.527
    1HEX    H1Z74287   2.332   7.027   4.560
    1HEX    H2074288   2.126   7.019   4.789
    1HEX    H2174289   2.279   6.929   4.778
    1HEX    H2274290   2.097   6.689   4.646
    1HEX    H2374291   2.135   6.588   4.783
    1HEX    H2474292   2.519   6.732   4.621
    1HEX    H2574293   2.596   6.620   4.733
    1HEX    H2674294   2.620   6.790   4.886
    1HEX    H2774295   2.463   6.858   4.864
    1HEX    H2974296   2.138   6.776   5.041
    1HEX    H2A74297   2.270   6.858   4.978
    1HEX    H2B74298   2.367   6.387   4.970
    1HEX    H2C74299   2.280   6.358   5.113
    1HEX    H2D74300   2.484   6.411   5.197
    1HEX    H2E74301   2.391   6.549   5.227
    1HEX    H2G74302   1.914   6.833   4.775
    1HEX    H2H74303   1.960   6.908   4.922
    1HEX    H2I74304   1.882   6.597   5.153
    1HEX    H2J74305   1.763   6.514   5.078
    1HEX    H2K74306   1.660   6.571   5.283
    1HEX    H2M74307   1.583   6.647   5.154
    1STR    S0074308   2.837   6.817   4.135
    1STR    S0E74309   2.603   7.248   4.251
    1STR    S0M74310   1.834   6.597   4.700
    1STR    S0X74311   2.627   6.957   4.716
    1STR    S1474312   2.560   6.597   5.066
    1STR    S1B74313   1.645   6.809   5.312
    1HEX    C0174314   2.429   6.640   6.483
    1HEX    C0274315   2.287   6.680   6.520
    1HEX    C0374316   2.182   6.641   6.417
    1HEX    O0474317   2.180   6.529   6.366
    1HEX    O0574318   2.093   6.738   6.396
    1HEX    C0674319   1.957   6.703   6.383
    1HEX    C0774320   1.860   6.805   6.449
    1HEX    C0874321   1.863   6.937   6.372
    1HEX    O0974322   1.729   6.976   6.340
    1HEX    C0A74323   1.689   7.099   6.302
    1HEX    O0B74324   1.578   7.120   6.253
    1HEX    C0C74325   1.783   7.217   6.326
    1HEX    C0D74326   1.737   7.286   6.451
    1HEX    C0F74327   1.718   6.739   6.448
    1HEX    O0G74328   1.727   6.618   6.522
    1HEX    C0H74329   1.688   6.501   6.474
    1HEX    O0I74330   1.601   6.485   6.388
    1HEX    C0J74331   1.775   6.386   6.522
    1HEX    C0K74332   1.765   6.339   6.670
    1HEX    C0N74333   1.894   6.844   6.595
    1HEX    O0O74334   2.034   6.834   6.624
    1HEX    C0P74335   2.104   6.950   6.665
    1HEX    C0Q74336   2.130   6.949   6.817
    1HEX    C0R74337   2.214   6.826   6.857
    1HEX    O0S74338   2.341   6.836   6.926
    1HEX    C0T74339   2.433   6.740   6.901
    1HEX    O0U74340   2.426   6.663   6.807
    1HEX    C0V74341   2.546   6.720   6.999
    1HEX    C0W74342   2.515   6.751   7.148
    1HEX    C0Y74343   2.219   7.067   6.849
    1HEX    O0Z74344   2.224   7.091   6.985
    1HEX    C1074345   2.289   7.192   7.025
    1HEX    O1174346   2.323   7.286   6.957
    1HEX    C1274347   2.336   7.177   7.165
    1HEX    C1374348   2.483   7.209   7.163
    1HEX    C1574349   1.987   6.957   6.880
    1HEX    O1674350   1.964   6.911   7.010
    1HEX    C1774351   2.047   6.938   7.106
    1HEX    O1874352   2.146   6.873   7.138
    1HEX    C1974353   2.012   7.062   7.179
    1HEX    C1A74354   1.960   7.186   7.105
    1HEX    H1D74355   2.444   6.534   6.502
    1HEX    H1E74356   2.440   6.649   6.375
    1HEX    H1F74357   2.280   6.786   6.534
    1HEX    H1G74358   2.254   6.637   6.613
    1HEX    H1H74359   1.945   6.605   6.429
    1HEX    H1I74360   1.935   6.688   6.277
    1HEX    H1J74361   1.925   6.922   6.284
    1HEX    H1K74362   1.919   7.012   6.428
    1HEX    H1M74363   1.772   7.284   6.242
    1HEX    H1N74364   1.888   7.193   6.333
    1HEX    H1O74365   1.633   7.266   6.460
    1HEX    H1P74366   1.734   7.392   6.441
    1HEX    H1R74367   1.684   6.721   6.346
    1HEX    H1S74368   1.643   6.803   6.495
    1HEX    H1T74369   1.876   6.416   6.499
    1HEX    H1U74370   1.755   6.302   6.456
    1HEX    H1V74371   1.826   6.252   6.687
    1HEX    H1W74372   1.665   6.298   6.684
    1HEX    H1Y74373   1.839   6.781   6.664
    1HEX    H1Z74374   1.853   6.941   6.621
    1HEX    H2074375   2.054   7.037   6.628
    1HEX    H2174376   2.200   6.953   6.615
    1HEX    H2274377   2.218   6.760   6.772
    1HEX    H2374378   2.160   6.776   6.932
    1HEX    H2474379   2.633   6.767   6.956
    1HEX    H2574380   2.574   6.615   6.990
    1HEX    H2674381   2.414   6.789   7.159
    1HEX    H2774382   2.584   6.823   7.190
    1HEX    H2974383   2.210   7.155   6.790
    1HEX    H2A74384   2.319   7.039   6.827
    1HEX    H2B74385   2.322   7.074   7.198
    1HEX    H2C74386   2.278   7.245   7.225
    1HEX    H2D74387   2.516   7.183   7.064
    1HEX    H2E74388   2.540   7.152   7.231
    1HEX    H2G74389   1.918   6.891   6.831
    1HEX    H2H74390   1.943   7.056   6.865
    1HEX    H2I74391   2.108   7.086   7.221
    1HEX    H2J74392   1.951   7.025   7.260
    1HEX    H2K74393   2.009   7.201   7.009
    1HEX    H2M74394   1.984   7.272   7.166
    1STR    S0074395   2.567   6.730   6.566
    1STR    S0E74396   1.821   7.218   6.598
    1STR    S0M74397   1.805   6.451   6.811
    1STR    S0X74398   2.533   6.600   7.246
    1STR    S1474399   2.518   7.380   7.193
    1STR    S1B74400   1.781   7.189   7.088
    1HEX    C0174401   4.897   0.316   8.833
    1HEX    C0274402   4.813   0.324   8.963
    1HEX    C0374403   4.768   0.187   9.006
    1HEX    O0474404   4.849   0.099   9.031
    1HEX    O0574405   4.635   0.171   8.999
    1HEX    C0674406   4.579   0.042   9.021
    1HEX    C0774407   4.429   0.027   9.058
    1HEX    C0874408   4.331   0.128   8.998
    1HEX    O0974409   4.346   0.257   9.055
    1HEX    C0A74410   4.324   0.363   8.979
    1HEX    O0B74411   4.301   0.363   8.859
    1HEX    C0C74412   4.327   0.494   9.052
    1HEX    C0D74413   4.366   0.500   9.196
    1HEX    C0F74414   4.391   9.203   9.021
    1HEX    O0G74415   4.456   9.117   9.111
    1HEX    C0H74416   4.397   9.009   9.149
    1HEX    O0I74417   4.300   8.960   9.091
    1HEX    C0J74418   4.453   8.955   9.281
    1HEX    C0K74419   4.530   9.052   0.047
    1HEX    C0N74420   4.404   0.037   9.207
    1HEX    O0O74421   4.523   0.066   9.264
    1HEX    C0P74422   4.546   0.204   9.270
    1HEX    C0Q74423   4.642   0.206   0.061
    1HEX    C0R74424   4.751   0.098   0.047
    1HEX    O0S74425   4.876   0.124   0.106
    1HEX    C0T74426   4.967   0.033   0.090
    1HEX    O0U74427   4.958   9.259   0.011
    1HEX    C0V74428   5.093   0.045   0.172
    1HEX    C0W74429   5.166   0.174   0.205
    1HEX    C0Y74430   4.701   0.344   0.060
    1HEX    O0Z74431   4.681   0.398   0.187
    1HEX    C1074432   4.764   0.367   0.279
    1HEX    O1174433   4.875   0.322   0.262
    1HEX    C1274434   4.717   0.411   0.411
    1HEX    C1374435   4.798   0.355   0.523
    1HEX    C1574436   4.542   0.175   0.172
    1HEX    O1674437   4.596   0.107   0.279
    1HEX    C1774438   4.516   0.017   0.327
    1HEX    O1874439   4.490   9.228   0.279
    1HEX    C1974440   4.450   0.067   0.450
    1HEX    C1A74441   4.412   0.217   0.454
    1HEX    H1D74442   4.829   0.300   8.750
    1HEX    H1E74443   4.963   0.230   8.841
    1HEX    H1F74444   4.719   0.377   8.948
    1HEX    H1G74445   4.869   0.370   9.044
    1HEX    H1H74446   4.639   9.309   9.094
    1HEX    H1I74447   4.600   9.304   8.935
    1HEX    H1J74448   4.232   0.092   9.023
    1HEX    H1K74449   4.329   0.137   8.892
    1HEX    H1M74450   4.235   0.545   9.033
    1HEX    H1N74451   4.407   0.545   9.004
    1HEX    H1O74452   4.394   0.603   9.219
    1HEX    H1P74453   4.456   0.443   9.211
    1HEX    H1R74454   4.432   9.169   8.928
    1HEX    H1S74455   4.283   9.189   9.017
    1HEX    H1T74456   4.516   8.871   9.260
    1HEX    H1U74457   4.372   8.920   0.024
    1HEX    H1V74458   4.544   9.011   0.146
    1HEX    H1W74459   4.472   9.142   0.061
    1HEX    H1Y74460   4.371   9.267   9.253
    1HEX    H1Z74461   4.331   0.110   9.236
    1HEX    H2074462   4.455   0.259   9.296
    1HEX    H2174463   4.582   0.256   9.184
    1HEX    H2274464   4.766   0.073   9.262
    1HEX    H2374465   4.714   0.010   0.096
    1HEX    H2474466   5.161   9.301   0.118
    1HEX    H2574467   5.077   9.316   0.263
    1HEX    H2674468   5.163   0.243   0.123
    1HEX    H2774469   5.271   0.147   0.216
    1HEX    H2974470   4.654   0.409   9.309
    1HEX    H2A74471   4.805   0.341   0.030
    1HEX    H2B74472   4.612   0.398   0.427
    1HEX    H2C74473   4.731   0.515   0.401
    1HEX    H2D74474   4.783   0.420   0.607
    1HEX    H2E74475   4.903   0.351   0.500
    1HEX    H2G74476   4.452   0.121   0.141
    1HEX    H2H74477   4.495   0.267   0.199
    1HEX    H2I74478   4.524   0.042   0.521
    1HEX    H2J74479   4.369   0.002   0.473
    1HEX    H2K74480   4.460   0.279   0.384
    1HEX    H2M74481   4.439   0.267   0.546
    1STR    S0074482   5.005   0.452   8.782
    1STR    S0E74483   4.231   0.456   9.307
    1STR    S0M74484   4.690   9.103   9.302
    1STR    S0X74485   5.135   0.249   0.367
    1STR    S1474486   4.724   0.197   0.560
    1STR    S1B74487   4.239   0.237   0.421
    1HEX    C0174488   5.053   8.997   2.058
    1HEX    C0274489   4.910   8.979   2.111
    1HEX    C0374490   4.836   9.105   2.151
    1HEX    O0474491   4.884   9.181   2.234
    1HEX    O0574492   4.719   9.112   2.087
    1HEX    C0674493   4.597   9.167   2.135
    1HEX    C0774494   4.565   0.001   2.147
    1HEX    C0874495   4.677   0.077   2.092
    1HEX    O0974496   4.666   0.216   2.103
    1HEX    C0A74497   4.730   0.282   2.010
    1HEX    O0B74498   4.747   0.244   1.895
    1HEX    C0C74499   4.806   0.397   2.066
    1HEX    C0D74500   4.873   0.364   2.197
    1HEX    C0F74501   4.443   0.066   2.068
    1HEX    O0G74502   4.323   9.314   2.055
    1HEX    C0H74503   4.321   9.220   1.962
    1HEX    O0I74504   4.414   9.193   1.888
    1HEX    C0J74505   4.190   9.147   1.951
    1HEX    C0K74506   4.097   9.160   2.068
    1HEX    C0N74507   4.557   0.037   2.293
    1HEX    O0O74508   4.662   9.295   2.365
    1HEX    C0P74509   4.752   0.063   2.429
    1HEX    C0Q74510   4.715   0.085   2.578
    1HEX    C0R74511   4.728   9.274   2.664
    1HEX    O0S74512   4.771   9.169   2.580
    1HEX    C0T74513   4.852   9.078   2.626
    1HEX    O0U74514   4.842   9.017   2.732
    1HEX    C0V74515   4.965   9.054   2.529
    1HEX    C0W74516   5.063   9.171   2.521
    1HEX    C0Y74517   4.792   0.209   2.628
    1HEX    O0Z74518   4.821   0.200   2.764
    1HEX    C1074519   4.898   0.291   2.820
    1HEX    O1174520   4.962   0.378   2.762
    1HEX    C1274521   4.897   0.275   2.971
    1HEX    C1374522   4.803   0.374   3.041
    1HEX    C1574523   4.571   0.122   2.580
    1HEX    O1674524   4.521   0.139   2.709
    1HEX    C1774525   4.432   0.055   2.756
    1HEX    O1874526   4.446   9.308   2.856
    1HEX    C1974527   4.304   0.046   2.678
    1HEX    C1A74528   4.290   0.121   2.549
    1HEX    H1D74529   5.090   9.095   2.082
    1HEX    H1E74530   5.102   8.917   2.111
    1HEX    H1F74531   4.918   8.923   2.203
    1HEX    H1G74532   4.847   8.918   2.050
    1HEX    H1H74533   4.588   9.121   2.232
    1HEX    H1I74534   4.523   9.113   2.078
    1HEX    H1J74535   4.664   0.054   1.989
    1HEX    H1K74536   4.773   0.041   2.125
    1HEX    H1M74537   4.730   0.468   2.071
    1HEX    H1N74538   4.877   0.442   1.999
    1HEX    H1O74539   4.805   0.349   2.280
    1HEX    H1P74540   4.945   0.440   2.224
    1HEX    H1R74541   4.468   0.096   1.966
    1HEX    H1S74542   4.418   0.162   2.111
    1HEX    H1T74543   4.213   9.046   1.926
    1HEX    H1U74544   4.139   9.191   1.866
    1HEX    H1V74545   4.004   9.115   2.036
    1HEX    H1W74546   4.081   9.265   2.091
    1HEX    H1Y74547   4.464   0.001   2.329
    1HEX    H1Z74548   4.556   0.145   2.305
    1HEX    H2074549   4.761   0.157   2.374
    1HEX    H2174550   4.850   0.018   2.420
    1HEX    H2274551   4.637   9.240   2.710
    1HEX    H2374552   4.791   9.286   2.752
    1HEX    H2474553   4.921   9.041   2.431
    1HEX    H2574554   5.017   8.962   2.556
    1HEX    H2674555   5.164   9.138   2.542
    1HEX    H2774556   5.062   9.214   2.421
    1HEX    H2974557   4.738   0.301   2.610
    1HEX    H2A74558   4.884   0.221   2.574
    1HEX    H2B74559   4.997   0.282   3.012
    1HEX    H2C74560   4.864   0.174   2.992
    1HEX    H2D74561   4.860   0.446   3.099
    1HEX    H2E74562   4.745   0.318   3.114
    1HEX    H2G74563   4.525   0.035   2.539
    1HEX    H2H74564   4.551   0.209   2.517
    1HEX    H2I74565   4.226   0.082   2.740
    1HEX    H2J74566   4.282   9.261   2.663
    1HEX    H2K74567   4.197   0.086   2.519
    1HEX    H2M74568   4.347   0.081   2.468
    1STR    S0074569   5.093   8.965   1.885
    1STR    S0E74570   4.967   0.218   2.159
    1STR    S0M74571   4.124   9.070   2.220
    1STR    S0X74572   5.027   9.309   2.631
    1STR    S1474573   4.689   0.463   2.930
    1STR    S1B74574   4.295   0.304   2.551
    1HEX    C0174575   4.850   0.176   4.140
    1HEX    C0274576   4.811   0.133   4.278
    1HEX    C0374577   4.759   9.319   4.275
    1HEX    O0474578   4.828   9.228   4.316
    1HEX    O0574579   4.639   9.317   4.222
    1HEX    C0674580   4.558   9.204   4.238
    1HEX    C0774581   4.426   9.241   4.294
    1HEX    C0874582   4.376   0.053   4.231
    1HEX    O0974583   4.391   0.166   4.312
    1HEX    C0A74584   4.335   0.278   4.272
    1HEX    O0B74585   4.239   0.291   4.196
    1HEX    C0C74586   4.401   0.395   4.337
    1HEX    C0D74587   4.356   0.407   4.480
    1HEX    C0F74588   4.329   9.124   4.256
    1HEX    O0G74589   4.336   9.065   4.126
    1HEX    C0H74590   4.222   9.023   4.065
    1HEX    O0I74591   4.110   9.057   4.097
    1HEX    C0J74592   4.237   8.936   3.940
    1HEX    C0K74593   4.232   8.785   3.964
    1HEX    C0N74594   4.446   9.252   4.449
    1HEX    O0O74595   4.576   9.279   4.495
    1HEX    C0P74596   4.600   0.092   4.538
    1HEX    C0Q74597   4.582   0.116   4.688
    1HEX    C0R74598   4.681   0.022   4.754
    1HEX    O0S74599   4.813   0.068   4.740
    1HEX    C0T74600   4.894   0.044   4.841
    1HEX    O0U74601   4.879   9.279   4.928
    1HEX    C0V74602   5.009   0.138   4.847
    1HEX    C0W74603   5.130   0.078   4.793
    1HEX    C0Y74604   4.609   0.264   4.723
    1HEX    O0Z74605   4.629   0.282   4.861
    1HEX    C1074606   4.752   0.303   4.909
    1HEX    O1174607   4.841   0.359   4.848
    1HEX    C1274608   4.777   0.258   5.051
    1HEX    C1374609   4.652   0.239   5.132
    1HEX    C1574610   4.442   0.085   4.741
    1HEX    O1674611   4.429   9.274   4.797
    1HEX    C1774612   4.332   9.195   4.758
    1HEX    O1874613   4.262   9.213   4.660
    1HEX    C1974614   4.304   9.079   4.848
    1HEX    C1A74615   4.214   8.978   4.776
    1HEX    H1D74616   4.950   0.151   4.113
    1HEX    H1E74617   4.788   0.131   4.065
    1HEX    H1F74618   4.727   0.190   4.315
    1HEX    H1G74619   4.890   0.130   4.351
    1HEX    H1H74620   4.604   9.135   4.305
    1HEX    H1I74621   4.544   9.154   4.146
    1HEX    H1J74622   4.272   0.046   4.202
    1HEX    H1K74623   4.430   0.078   4.141
    1HEX    H1M74624   4.378   0.481   4.275
    1HEX    H1N74625   4.508   0.380   4.337
    1HEX    H1O74626   4.422   0.464   4.543
    1HEX    H1P74627   4.364   0.309   4.526
    1HEX    H1R74628   4.229   9.158   4.270
    1HEX    H1S74629   4.336   9.041   4.325
    1HEX    H1T74630   4.326   8.964   3.886
    1HEX    H1U74631   4.152   8.961   3.877
    1HEX    H1V74632   4.191   8.734   3.877
    1HEX    H1W74633   4.168   8.761   4.049
    1HEX    H1Y74634   4.420   9.157   4.494
    1HEX    H1Z74635   4.385   0.007   4.494
    1HEX    H2074636   4.554   0.167   4.475
    1HEX    H2174637   4.707   0.097   4.520
    1HEX    H2274638   4.665   9.241   4.718
    1HEX    H2374639   4.657   0.014   4.857
    1HEX    H2474640   5.022   0.172   4.949
    1HEX    H2574641   4.990   0.219   4.779
    1HEX    H2674642   5.206   0.149   4.763
    1HEX    H2774643   5.090   0.022   4.709
    1HEX    H2974644   4.529   0.330   4.691
    1HEX    H2A74645   4.698   0.296   4.672
    1HEX    H2B74646   4.841   0.329   5.103
    1HEX    H2C74647   4.831   0.165   5.054
    1HEX    H2D74648   4.603   0.334   5.148
    1HEX    H2E74649   4.691   0.207   5.226
    1HEX    H2G74650   4.365   0.111   4.669
    1HEX    H2H74651   4.421   0.153   4.823
    1HEX    H2I74652   4.266   9.107   4.943
    1HEX    H2J74653   4.396   9.040   4.879
    1HEX    H2K74654   4.262   8.961   4.681
    1HEX    H2M74655   4.115   9.018   4.755
    1STR    S0074656   4.834   0.351   4.144
    1STR    S0E74657   4.194   0.485   4.474
    1STR    S0M74658   4.401   8.730   3.991
    1STR    S0X74659   5.197   9.303   4.924
    1STR    S1474660   4.538   0.115   5.063
    1STR    S1B74661   4.193   8.823   4.863
    1HEX    C0174662   5.083   9.013   6.268
    1HEX    C0274663   5.015   9.137   6.342
    1HEX    C0374664   4.928   9.118   6.465
    1HEX    O0474665   4.949   9.021   6.533
    1HEX    O0574666   4.837   9.217   6.498
    1HEX    C0674667   4.724   9.179   6.579
    1HEX    C0774668   4.669   9.265   6.697
    1HEX    C0874669   4.654   0.091   6.651
    1HEX    O0974670   4.566   0.109   6.544
    1HEX    C0A74671   4.445   0.149   6.574
    1HEX    O0B74672   4.353   0.079   6.611
    1HEX    C0C74673   4.427   0.296   6.562
    1HEX    C0D74674   4.453   0.354   6.698
    1HEX    C0F74675   4.536   9.199   6.743
    1HEX    O0G74676   4.555   9.106   6.850
    1HEX    C0H74677   4.480   8.997   6.869
    1HEX    O0I74678   4.394   8.961   6.793
    1HEX    C0J74679   4.514   8.908   6.988
    1HEX    C0K74680   4.442   8.949   7.115
    1HEX    C0N74681   4.756   9.270   6.823
    1HEX    O0O74682   4.721   0.041   6.926
    1HEX    C0P74683   4.611   0.016   7.012
    1HEX    C0Q74684   4.630   9.266   7.145
    1HEX    C0R74685   4.707   9.141   7.120
    1HEX    O0S74686   4.844   9.161   7.088
    1HEX    C0T74687   4.913   9.053   7.060
    1HEX    O0U74688   4.871   8.940   7.079
    1HEX    C0V74689   5.047   9.075   6.995
    1HEX    C0W74690   5.064   9.206   6.919
    1HEX    C0Y74691   4.724   0.031   7.224
    1HEX    O0Z74692   4.764   9.286   7.338
    1HEX    C1074693   4.702   9.313   7.449
    1HEX    O1174694   4.620   0.081   7.467
    1HEX    C1274695   4.739   9.220   7.556
    1HEX    C1374696   4.851   9.121   7.520
    1HEX    C1574697   4.486   9.255   7.214
    1HEX    O1674698   4.453   9.167   7.325
    1HEX    C1774699   4.322   9.119   7.340
    1HEX    O1874700   4.240   9.111   7.254
    1HEX    C1974701   4.275   9.062   7.470
    1HEX    C1A74702   4.124   9.034   7.492
    1HEX    H1D74703   5.130   9.055   6.180
    1HEX    H1E74704   5.176   8.985   6.314
    1HEX    H1F74705   4.963   9.206   6.277
    1HEX    H1G74706   5.098   9.191   6.384
    1HEX    H1H74707   4.734   9.077   6.614
    1HEX    H1I74708   4.643   9.170   6.508
    1HEX    H1J74709   4.748   0.134   6.618
    1HEX    H1K74710   4.625   0.153   6.736
    1HEX    H1M74711   4.329   0.320   6.522
    1HEX    H1N74712   4.498   0.336   6.490
    1HEX    H1O74713   4.400   0.445   6.699
    1HEX    H1P74714   4.559   0.373   6.709
    1HEX    H1R74715   4.480   9.156   6.663
    1HEX    H1S74716   4.474   9.280   6.776
    1HEX    H1T74717   4.619   8.907   7.008
    1HEX    H1U74718   4.496   8.806   6.960
    1HEX    H1V74719   4.388   9.040   7.096
    1HEX    H1W74720   4.518   8.979   7.185
    1HEX    H1Y74721   4.847   9.313   6.796
    1HEX    H1Z74722   4.784   9.174   6.860
    1HEX    H2074723   4.515   0.000   6.966
    1HEX    H2174724   4.602   0.114   7.048
    1HEX    H2274725   4.667   9.095   7.035
    1HEX    H2374726   4.695   9.073   7.201
    1HEX    H2474727   5.064   8.991   6.929
    1HEX    H2574728   5.119   9.071   7.077
    1HEX    H2674729   5.164   9.239   6.930
    1HEX    H2774730   5.001   9.281   6.962
    1HEX    H2974731   4.669   0.115   7.254
    1HEX    H2A74732   4.808   0.067   7.165
    1HEX    H2B74733   4.645   9.172   7.579
    1HEX    H2C74734   4.768   9.285   7.638
    1HEX    H2D74735   4.908   9.074   7.598
    1HEX    H2E74736   4.918   9.189   7.477
    1HEX    H2G74737   4.412   9.242   7.137
    1HEX    H2H74738   4.461   0.034   7.250
    1HEX    H2I74739   4.303   9.136   7.538
    1HEX    H2J74740   4.332   8.972   7.484
    1HEX    H2K74741   4.112   8.932   7.528
    1HEX    H2M74742   4.065   9.039   7.401
    1STR    S0074743   5.008   8.854   6.204
    1STR    S0E74744   4.380   0.280   6.846
    1STR    S0M74745   4.361   8.826   7.221
    1STR    S0X74746   5.061   9.195   6.740
    1STR    S1474747   4.789   8.993   7.411
    1STR    S1B74748   4.046   9.135   7.621
    1HEX    C0174749   5.110   1.991   9.037
    1HEX    C0274750   5.033   2.092   9.123
    1HEX    C0374751   4.893   2.059   9.155
    1HEX    O0474752   4.850   1.947   9.146
    1HEX    O0574753   4.831   2.160   9.201
    1HEX    C0674754   4.693   2.149   9.219
    1HEX    C0774755   4.638   2.286   9.251
    1HEX    C0874756   4.720   2.412   9.207
    1HEX    O0974757   4.861   2.416   9.183
    1HEX    C0A74758   4.907   2.517   9.103
    1HEX    O0B74759   4.839   2.602   9.046
    1HEX    C0C74760   5.054   2.519   9.078
    1HEX    C0D74761   5.094   2.512   8.930
    1HEX    C0F74762   4.493   2.308   9.198
    1HEX    O0G74763   4.410   2.205   9.141
    1HEX    C0H74764   4.305   2.244   9.064
    1HEX    O0I74765   4.276   2.360   9.052
    1HEX    C0J74766   4.223   2.146   8.977
    1HEX    C0K74767   4.242   1.994   8.981
    1HEX    C0N74768   4.634   2.288   0.080
    1HEX    O0O74769   4.762   2.263   0.134
    1HEX    C0P74770   4.842   2.376   0.164
    1HEX    C0Q74771   4.829   2.419   0.310
    1HEX    C0R74772   4.864   2.300   0.400
    1HEX    O0S74773   4.922   2.191   0.334
    1HEX    C0T74774   4.863   2.077   0.347
    1HEX    O0U74775   4.766   2.051   0.414
    1HEX    C0V74776   4.934   1.969   0.278
    1HEX    C0W74777   4.962   2.007   0.134
    1HEX    C0Y74778   4.932   2.531   0.336
    1HEX    O0Z74779   4.883   2.663   0.321
    1HEX    C1074780   4.960   2.764   0.369
    1HEX    O1174781   5.075   2.751   0.407
    1HEX    C1274782   4.893   2.900   0.380
    1HEX    C1374783   4.739   2.899   0.375
    1HEX    C1574784   4.684   2.465   0.343
    1HEX    O1674785   4.605   2.346   0.340
    1HEX    C1774786   4.472   2.332   0.338
    1HEX    O1874787   4.421   2.222   0.325
    1HEX    C1974788   4.388   2.448   0.384
    1HEX    C1A74789   4.307   2.524   0.281
    1HEX    H1D74790   5.211   2.002   9.070
    1HEX    H1E74791   5.086   1.889   9.062
    1HEX    H1F74792   5.034   2.195   9.091
    1HEX    H1G74793   5.072   2.092   9.221
    1HEX    H1H74794   4.674   2.075   9.297
    1HEX    H1I74795   4.647   2.106   9.134
    1HEX    H1J74796   4.694   2.487   9.278
    1HEX    H1K74797   4.677   2.459   9.124
    1HEX    H1M74798   5.092   2.437   9.138
    1HEX    H1N74799   5.089   2.610   9.122
    1HEX    H1O74800   5.025   2.451   8.875
    1HEX    H1P74801   5.183   2.453   8.917
    1HEX    H1R74802   4.500   2.376   9.118
    1HEX    H1S74803   4.441   2.379   9.260
    1HEX    H1T74804   4.236   2.180   8.875
    1HEX    H1U74805   4.118   2.167   8.992
    1HEX    H1V74806   4.338   1.962   8.949
    1HEX    H1W74807   4.170   1.943   8.919
    1HEX    H1Y74808   4.565   2.211   0.115
    1HEX    H1Z74809   4.592   2.381   0.113
    1HEX    H2074810   4.825   2.464   0.105
    1HEX    H2174811   4.945   2.348   0.143
    1HEX    H2274812   4.782   2.273   0.464
    1HEX    H2374813   4.948   2.318   0.462
    1HEX    H2474814   4.866   1.887   0.287
    1HEX    H2574815   5.020   1.951   0.341
    1HEX    H2674816   4.953   2.113   0.114
    1HEX    H2774817   4.893   1.954   0.069
    1HEX    H2974818   5.023   2.512   0.279
    1HEX    H2A74819   4.972   2.524   0.435
    1HEX    H2B74820   4.933   2.957   0.298
    1HEX    H2C74821   4.930   2.950   0.470
    1HEX    H2D74822   4.701   2.810   0.325
    1HEX    H2E74823   4.708   2.985   0.317
    1HEX    H2G74824   4.649   2.540   0.273
    1HEX    H2H74825   4.683   2.510   0.440
    1HEX    H2I74826   4.453   2.512   0.438
    1HEX    H2J74827   4.315   2.406   0.450
    1HEX    H2K74828   4.200   2.524   0.303
    1HEX    H2M74829   4.326   2.488   0.183
    1STR    S0074830   5.108   2.013   8.855
    1STR    S0E74831   5.112   2.670   8.840
    1STR    S0M74832   4.228   1.928   9.144
    1STR    S0X74833   5.132   1.959   0.106
    1STR    S1474834   4.650   2.927   0.531
    1STR    S1B74835   4.356   2.690   0.259
    1HEX    C0174836   4.846   2.557   1.873
    1HEX    C0274837   4.923   2.465   1.964
    1HEX    C0374838   4.872   2.323   1.969
    1HEX    O0474839   4.943   2.226   1.944
    1HEX    O0574840   4.748   2.322   2.007
    1HEX    C0674841   4.662   2.216   1.979
    1HEX    C0774842   4.539   2.213   2.067
    1HEX    C0874843   4.510   2.361   2.110
    1HEX    O0974844   4.430   2.446   2.030
    1HEX    C0A74845   4.305   2.454   2.067
    1HEX    O0B74846   4.226   2.365   2.047
    1HEX    C0C74847   4.265   2.575   2.148
    1HEX    C0D74848   4.322   2.709   2.116
    1HEX    C0F74849   4.417   2.160   1.988
    1HEX    O0G74850   4.428   2.031   1.925
    1HEX    C0H74851   4.325   1.992   1.847
    1HEX    O0I74852   4.225   2.059   1.831
    1HEX    C0J74853   4.339   1.862   1.767
    1HEX    C0K74854   4.287   1.732   1.832
    1HEX    C0N74855   4.565   2.113   2.183
    1HEX    O0O74856   4.691   2.122   2.250
    1HEX    C0P74857   4.724   2.250   2.301
    1HEX    C0Q74858   4.781   2.252   2.441
    1HEX    C0R74859   4.920   2.188   2.443
    1HEX    O0S74860   5.024   2.282   2.433
    1HEX    C0T74861   5.135   2.255   2.498
    1HEX    O0U74862   5.173   2.142   2.524
    1HEX    C0V74863   5.212   2.374   2.549
    1HEX    C0W74864   5.126   2.495   2.583
    1HEX    C0Y74865   4.794   2.401   2.476
    1HEX    O0Z74866   4.823   2.423   2.610
    1HEX    C1074867   4.831   2.544   2.654
    1HEX    O1174868   4.857   2.641   2.583
    1HEX    C1274869   4.802   2.559   2.800
    1HEX    C1374870   4.836   2.455   2.903
    1HEX    C1574871   4.683   2.180   2.536
    1HEX    O1674872   4.614   2.284   2.600
    1HEX    C1774873   4.506   2.265   2.664
    1HEX    O1874874   4.459   2.155   2.693
    1HEX    C1974875   4.425   2.393   2.657
    1HEX    C1A74876   4.403   2.435   2.514
    1HEX    H1D74877   4.849   2.509   1.780
    1HEX    H1E74878   4.900   2.650   1.861
    1HEX    H1F74879   4.913   2.506   2.061
    1HEX    H1G74880   5.028   2.463   1.937
    1HEX    H1H74881   4.717   2.123   1.992
    1HEX    H1I74882   4.626   2.231   1.879
    1HEX    H1J74883   4.597   2.420   2.134
    1HEX    H1K74884   4.461   2.360   2.203
    1HEX    H1M74885   4.301   2.559   2.248
    1HEX    H1N74886   4.156   2.576   2.150
    1HEX    H1O74887   4.277   2.782   2.181
    1HEX    H1P74888   4.315   2.737   2.012
    1HEX    H1R74889   4.390   2.233   1.912
    1HEX    H1S74890   4.333   2.155   2.055
    1HEX    H1T74891   4.443   1.856   1.736
    1HEX    H1U74892   4.280   1.874   1.676
    1HEX    H1V74893   4.221   1.678   1.765
    1HEX    H1W74894   4.231   1.754   1.922
    1HEX    H1Y74895   4.562   2.012   2.143
    1HEX    H1Z74896   4.483   2.111   2.254
    1HEX    H2074897   4.635   2.309   2.311
    1HEX    H2174898   4.793   2.301   2.234
    1HEX    H2274899   4.931   2.107   2.373
    1HEX    H2374900   4.932   2.149   2.542
    1HEX    H2474901   5.292   2.398   2.479
    1HEX    H2574902   5.251   2.335   2.642
    1HEX    H2674903   5.085   2.490   2.682
    1HEX    H2774904   5.045   2.500   2.514
    1HEX    H2974905   4.703   2.456   2.453
    1HEX    H2A74906   4.874   2.445   2.422
    1HEX    H2B74907   4.695   2.575   2.802
    1HEX    H2C74908   4.856   2.645   2.834
    1HEX    H2D74909   4.786   2.474   2.995
    1HEX    H2E74910   4.940   2.457   2.931
    1HEX    H2G74911   4.729   2.121   2.614
    1HEX    H2H74912   4.614   2.115   2.483
    1HEX    H2I74913   4.475   2.472   2.713
    1HEX    H2J74914   4.326   2.379   2.696
    1HEX    H2K74915   4.488   2.489   2.475
    1HEX    H2M74916   4.312   2.495   2.506
    1STR    S0074917   4.670   2.586   1.916
    1STR    S0E74918   4.487   2.715   2.174
    1STR    S0M74919   4.431   1.630   1.872
    1STR    S0X74920   5.208   2.653   2.584
    1STR    S1474921   4.773   2.297   2.855
    1STR    S1B74922   4.386   2.286   2.419
    1HEX    C0174923   5.153   2.528   4.324
    1HEX    C0274924   5.018   2.476   4.364
    1HEX    C0374925   5.022   2.327   4.382
    1HEX    O0474926   5.094   2.257   4.316
    1HEX    O0574927   4.961   2.281   4.485
    1HEX    C0674928   4.825   2.308   4.496
    1HEX    C0774929   4.791   2.291   4.643
    1HEX    C0874930   4.872   2.398   4.718
    1HEX    O0974931   4.832   2.527   4.671
    1HEX    C0A74932   4.795   2.621   4.757
    1HEX    O0B74933   4.870   2.700   4.811
    1HEX    C0C74934   4.647   2.644   4.765
    1HEX    C0D74935   4.596   2.734   4.652
    1HEX    C0F74936   4.647   2.331   4.665
    1HEX    O0G74937   4.564   2.232   4.617
    1HEX    C0H74938   4.532   2.237   4.492
    1HEX    O0I74939   4.541   2.333   4.416
    1HEX    C0J74940   4.473   2.110   4.451
    1HEX    C0K74941   4.332   2.116   4.508
    1HEX    C0N74942   4.814   2.139   4.674
    1HEX    O0O74943   4.799   2.079   4.802
    1HEX    C0P74944   4.686   2.102   4.883
    1HEX    C0Q74945   4.592   1.985   4.903
    1HEX    C0R74946   4.582   1.906   4.771
    1HEX    O0S74947   4.698   1.848   4.712
    1HEX    C0T74948   4.750   1.739   4.762
    1HEX    O0U74949   4.715   1.683   4.863
    1HEX    C0V74950   4.863   1.681   4.685
    1HEX    C0W74951   4.991   1.731   4.744
    1HEX    C0Y74952   4.639   1.900   5.022
    1HEX    O0Z74953   4.776   1.878   5.014
    1HEX    C1074954   4.837   1.801   5.104
    1HEX    O1174955   4.783   1.721   5.179
    1HEX    C1274956   4.987   1.825   5.104
    1HEX    C1374957   5.024   1.952   5.030
    1HEX    C1574958   4.455   2.053   4.934
    1HEX    O1674959   4.358   1.980   5.008
    1HEX    C1774960   4.244   2.045   5.037
    1HEX    O1874961   4.210   2.152   4.989
    1HEX    C1974962   4.156   1.976   5.140
    1HEX    C1A74963   4.006   1.995   5.110
    1HEX    H1D74964   5.175   2.597   4.404
    1HEX    H1E74965   5.227   2.453   4.334
    1HEX    H1F74966   4.943   2.515   4.297
    1HEX    H1G74967   4.995   2.516   4.463
    1HEX    H1H74968   4.775   2.237   4.430
    1HEX    H1I74969   4.796   2.407   4.460
    1HEX    H1J74970   4.978   2.388   4.704
    1HEX    H1K74971   4.852   2.389   4.823
    1HEX    H1M74972   4.626   2.682   4.864
    1HEX    H1N74973   4.592   2.553   4.772
    1HEX    H1O74974   4.654   2.824   4.639
    1HEX    H1P74975   4.494   2.763   4.673
    1HEX    H1R74976   4.629   2.422   4.612
    1HEX    H1S74977   4.626   2.356   4.768
    1HEX    H1T74978   4.533   2.026   4.485
    1HEX    H1U74979   4.481   2.113   4.344
    1HEX    H1V74980   4.254   2.089   4.444
    1HEX    H1W74981   4.307   2.217   4.537
    1HEX    H1Y74982   4.918   2.118   4.650
    1HEX    H1Z74983   4.758   2.077   4.604
    1HEX    H2074984   4.630   2.187   4.854
    1HEX    H2174985   4.723   2.129   4.980
    1HEX    H2274986   4.558   1.980   4.697
    1HEX    H2374987   4.502   1.835   4.778
    1HEX    H2474988   4.857   1.708   4.583
    1HEX    H2574989   4.855   1.573   4.695
    1HEX    H2674990   5.067   1.655   4.740
    1HEX    H2774991   4.976   1.749   4.850
    1HEX    H2974992   4.583   1.807   5.037
    1HEX    H2A74993   4.634   1.953   5.114
    1HEX    H2B74994   5.040   1.740   5.063
    1HEX    H2C74995   5.018   1.832   5.207
    1HEX    H2D74996   4.986   1.953   4.928
    1HEX    H2E74997   5.131   1.967   5.030
    1HEX    H2G74998   4.410   2.094   4.844
    1HEX    H2H74999   4.468   2.147   4.987
    1HEX    H2I75000   4.182   2.020   5.236
    1HEX    H2J75001   4.180   1.870   5.146
    1HEX    H2K75002   3.949   1.904   5.119
    1HEX    H2M75003   3.996   2.028   5.007
    1STR    S0075004   5.171   2.596   4.156
    1STR    S0E75005   4.586   2.644   4.497
    1STR    S0M75006   4.314   1.992   4.634
    1STR    S0X75007   5.049   1.882   4.662
    1STR    S1475008   4.949   2.090   5.111
    1STR    S1B75009   3.931   2.119   5.218
    1HEX    C0175010   4.932   2.028   6.546
    1HEX    C0275011   4.794   1.956   6.541
    1HEX    C0375012   4.669   2.026   6.491
    1HEX    O0475013   4.611   1.981   6.394
    1HEX    O0575014   4.616   2.109   6.580
    1HEX    C0675015   4.543   2.224   6.544
    1HEX    C0775016   4.412   2.249   6.617
    1HEX    C0875017   4.349   2.379   6.560
    1HEX    O0975018   4.298   2.385   6.426
    1HEX    C0A75019   4.165   2.379   6.406
    1HEX    O0B75020   4.083   2.326   6.477
    1HEX    C0C75021   4.112   2.452   6.286
    1HEX    C0D75022   3.981   2.528   6.314
    1HEX    C0F75023   4.318   2.129   6.587
    1HEX    O0G75024   4.346   2.045   6.477
    1HEX    C0H75025   4.253   1.957   6.440
    1HEX    O0I75026   4.131   1.968   6.456
    1HEX    C0J75027   4.309   1.829   6.381
    1HEX    C0K75028   4.332   1.731   6.496
    1HEX    C0N75029   4.427   2.277   6.772
    1HEX    O0O75030   4.549   2.273   6.840
    1HEX    C0P75031   4.640   2.378   6.837
    1HEX    C0Q75032   4.677   2.448   6.972
    1HEX    C0R75033   4.735   2.371   7.092
    1HEX    O0S75034   4.857   2.304   7.057
    1HEX    C0T75035   4.943   2.253   7.146
    1HEX    O0U75036   4.932   2.264   7.267
    1HEX    C0V75037   5.053   2.169   7.080
    1HEX    C0W75038   5.147   2.086   7.173
    1HEX    C0Y75039   4.792   2.535   6.937
    1HEX    O0Z75040   4.864   2.587   7.045
    1HEX    C1075041   4.990   2.559   7.053
    1HEX    O1175042   5.050   2.486   6.978
    1HEX    C1275043   5.059   2.634   7.162
    1HEX    C1375044   5.019   2.595   7.304
    1HEX    C1575045   4.559   2.532   7.017
    1HEX    O1675046   4.447   2.452   7.042
    1HEX    C1775047   4.330   2.510   7.067
    1HEX    O1875048   4.305   2.629   7.053
    1HEX    C1975049   4.233   2.414   7.129
    1HEX    C1A75050   4.181   2.458   7.267
    1HEX    H1D75051   4.998   1.967   6.604
    1HEX    H1E75052   4.981   2.032   6.451
    1HEX    H1F75053   4.759   1.933   6.638
    1HEX    H1G75054   4.804   1.861   6.490
    1HEX    H1H75055   4.514   2.218   6.441
    1HEX    H1I75056   4.607   2.309   6.559
    1HEX    H1J75057   4.418   2.461   6.574
    1HEX    H1K75058   4.267   2.406   6.623
    1HEX    H1M75059   4.091   2.376   6.211
    1HEX    H1N75060   4.192   2.516   6.253
    1HEX    H1O75061   3.908   2.462   6.361
    1HEX    H1P75062   3.935   2.562   6.221
    1HEX    H1R75063   4.222   2.168   6.564
    1HEX    H1S75064   4.303   2.066   6.675
    1HEX    H1T75065   4.401   1.850   6.327
    1HEX    H1U75066   4.237   1.790   6.311
    1HEX    H1V75067   4.345   1.629   6.461
    1HEX    H1W75068   4.249   1.734   6.565
    1HEX    H1Y75069   4.375   2.199   6.827
    1HEX    H1Z75070   4.377   2.367   6.807
    1HEX    H2075071   4.597   2.448   6.769
    1HEX    H2175072   4.728   2.341   6.784
    1HEX    H2275073   4.655   2.313   7.132
    1HEX    H2375074   4.755   2.436   7.177
    1HEX    H2475075   5.111   2.240   7.023
    1HEX    H2575076   5.009   2.105   7.004
    1HEX    H2675077   5.134   2.111   7.277
    1HEX    H2775078   5.250   2.109   7.151
    1HEX    H2975079   4.756   2.618   6.883
    1HEX    H2A75080   4.856   2.479   6.870
    1HEX    H2B75081   5.030   2.732   7.145
    1HEX    H2C75082   5.164   2.635   7.142
    1HEX    H2D75083   5.099   2.558   7.364
    1HEX    H2E75084   4.941   2.519   7.303
    1HEX    H2G75085   4.533   2.609   6.944
    1HEX    H2H75086   4.587   2.581   7.110
    1HEX    H2I75087   4.291   2.322   7.131
    1HEX    H2J75088   4.151   2.390   7.065
    1HEX    H2K75089   4.212   2.559   7.291
    1HEX    H2M75090   4.222   2.396   7.347
    1STR    S0075091   4.946   2.193   6.619
    1STR    S0E75092   4.010   2.671   6.422
    1STR    S0M75093   4.482   1.783   6.582
    1STR    S0X75094   5.127   1.907   7.147
    1STR    S1475095   4.961   2.743   7.385
    1STR    S1B75096   4.002   2.438   7.277
    1HEX    C0175097   4.656   4.903   8.877
    1HEX    C0275098   4.542   4.838   8.802
    1HEX    C0375099   4.467   4.713   8.840
    1HEX    O0475100   4.360   4.680   8.791
    1HEX    O0575101   4.537   4.638   8.909
    1HEX    C0675102   4.537   4.661   9.044
    1HEX    C0775103   4.418   4.591   9.110
    1HEX    C0875104   4.336   4.712   9.162
    1HEX    O0975105   4.284   4.766   9.042
    1HEX    C0A75106   4.275   4.892   8.997
    1HEX    O0B75107   4.243   4.921   8.882
    1HEX    C0C75108   4.303   5.006   9.089
    1HEX    C0D75109   4.268   5.016   9.237
    1HEX    C0F75110   4.334   4.498   9.016
    1HEX    O0G75111   4.388   4.442   8.899
    1HEX    C0H75112   4.335   4.337   8.837
    1HEX    O0I75113   4.250   4.259   8.879
    1HEX    C0J75114   4.400   4.312   8.706
    1HEX    C0K75115   4.513   4.211   8.714
    1HEX    C0N75116   4.465   4.500   9.223
    1HEX    O0O75117   4.590   4.541   9.271
    1HEX    C0P75118   4.609   4.666   0.011
    1HEX    C0Q75119   4.569   4.668   0.156
    1HEX    C0R75120   4.634   4.548   0.221
    1HEX    O0S75121   4.771   4.538   0.194
    1HEX    C0T75122   4.816   4.446   0.112
    1HEX    O0U75123   4.750   4.371   0.042
    1HEX    C0V75124   4.965   4.440   0.106
    1HEX    C0W75125   5.025   4.577   0.118
    1HEX    C0Y75126   4.620   4.803   0.204
    1HEX    O0Z75127   4.633   4.809   0.342
    1HEX    C1075128   4.752   4.798   0.397
    1HEX    O1175129   4.862   4.791   0.343
    1HEX    C1275130   4.738   4.787   0.545
    1HEX    C1375131   4.822   4.674   0.601
    1HEX    C1575132   4.417   4.661   0.182
    1HEX    O1675133   4.386   4.705   0.314
    1HEX    C1775134   4.394   4.616   0.413
    1HEX    O1875135   4.414   4.497   0.395
    1HEX    C1975136   4.364   4.668   0.552
    1HEX    C1A75137   4.315   4.812   0.562
    1HEX    H1D75138   4.744   4.910   8.814
    1HEX    H1E75139   4.683   4.858   8.971
    1HEX    H1F75140   4.595   4.790   8.722
    1HEX    H1G75141   4.470   4.913   8.772
    1HEX    H1H75142   4.533   4.768   9.062
    1HEX    H1I75143   4.637   4.637   9.077
    1HEX    H1J75144   4.394   4.786   9.213
    1HEX    H1K75145   4.261   4.686   9.235
    1HEX    H1M75146   4.259   5.090   9.039
    1HEX    H1N75147   4.410   5.012   9.080
    1HEX    H1O75148   4.287   5.121   9.250
    1HEX    H1P75149   4.341   4.964   9.296
    1HEX    H1R75150   4.249   4.550   8.975
    1HEX    H1S75151   4.304   4.412   9.074
    1HEX    H1T75152   4.428   4.408   8.661
    1HEX    H1U75153   4.322   4.267   8.649
    1HEX    H1V75154   4.525   4.161   8.619
    1HEX    H1W75155   4.491   4.134   8.787
    1HEX    H1Y75156   4.485   4.399   9.187
    1HEX    H1Z75157   4.390   4.485   9.299
    1HEX    H2075158   4.579   4.755   9.278
    1HEX    H2175159   4.717   4.675   0.006
    1HEX    H2275160   4.582   4.456   0.196
    1HEX    H2375161   4.624   4.558   0.326
    1HEX    H2475162   4.992   4.402   0.011
    1HEX    H2575163   5.002   4.371   0.180
    1HEX    H2675164   5.124   4.567   0.158
    1HEX    H2775165   4.971   4.641   0.185
    1HEX    H2975166   4.544   4.876   0.179
    1HEX    H2A75167   4.712   4.832   0.156
    1HEX    H2B75168   4.633   4.768   0.562
    1HEX    H2C75169   4.764   4.882   0.591
    1HEX    H2D75170   4.810   4.662   0.707
    1HEX    H2E75171   4.925   4.697   0.585
    1HEX    H2G75172   4.377   4.561   0.168
    1HEX    H2H75173   4.366   4.722   0.109
    1HEX    H2I75174   4.456   4.654   0.604
    1HEX    H2J75175   4.292   4.599   0.594
    1HEX    H2K75176   4.243   4.840   0.486
    1HEX    H2M75177   4.406   4.866   0.543
    1STR    S0075178   4.611   5.065   8.918
    1STR    S0E75179   4.107   5.017   0.002
    1STR    S0M75180   4.661   4.301   8.764
    1STR    S0X75181   5.004   4.667   9.289
    1STR    S1475182   4.776   4.521   0.519
    1STR    S1B75183   4.261   4.865   0.729
    1HEX    C0175184   5.091   4.582   1.835
    1HEX    C0275185   4.989   4.533   1.937
    1HEX    C0375186   4.869   4.468   1.871
    1HEX    O0475187   4.879   4.364   1.807
    1HEX    O0575188   4.756   4.534   1.897
    1HEX    C0675189   4.732   4.644   1.812
    1HEX    C0775190   4.611   4.740   1.823
    1HEX    C0875191   4.666   4.881   1.842
    1HEX    O0975192   4.695   4.925   1.972
    1HEX    C0A75193   4.815   4.908   2.025
    1HEX    O0B75194   4.908   4.845   1.975
    1HEX    C0C75195   4.826   4.975   2.159
    1HEX    C0D75196   4.944   4.927   2.239
    1HEX    C0F75197   4.537   4.745   1.686
    1HEX    O0G75198   4.525   4.618   1.630
    1HEX    C0H75199   4.435   4.540   1.677
    1HEX    O0I75200   4.316   4.569   1.690
    1HEX    C0J75201   4.498   4.411   1.719
    1HEX    C0K75202   4.439   4.335   1.836
    1HEX    C0N75203   4.505   4.710   1.929
    1HEX    O0O75204   4.547   4.619   2.027
    1HEX    C0P75205   4.636   4.676   2.120
    1HEX    C0Q75206   4.610   4.612   2.254
    1HEX    C0R75207   4.674   4.473   2.238
    1HEX    O0S75208   4.813   4.458   2.219
    1HEX    C0T75209   4.850   4.347   2.154
    1HEX    O0U75210   4.786   4.291   2.067
    1HEX    C0V75211   4.974   4.282   2.207
    1HEX    C0W75212   4.994   4.309   2.356
    1HEX    C0Y75213   4.664   4.714   2.361
    1HEX    O0Z75214   4.803   4.704   2.385
    1HEX    C1075215   4.860   4.743   2.501
    1HEX    O1175216   4.975   4.784   2.508
    1HEX    C1275217   4.785   4.723   2.630
    1HEX    C1375218   4.754   4.851   2.711
    1HEX    C1575219   4.457   4.582   2.265
    1HEX    O1675220   4.395   4.555   2.391
    1HEX    C1775221   4.463   4.524   2.500
    1HEX    O1875222   4.581   4.500   2.510
    1HEX    C1975223   4.387   4.543   2.626
    1HEX    C1A75224   4.411   4.684   2.670
    1HEX    H1D75225   5.053   4.589   1.734
    1HEX    H1E75226   5.128   4.681   1.860
    1HEX    H1F75227   4.952   4.613   2.000
    1HEX    H1G75228   5.033   4.462   2.005
    1HEX    H1H75229   4.721   4.588   1.723
    1HEX    H1I75230   4.825   4.700   1.801
    1HEX    H1J75231   4.593   4.949   1.800
    1HEX    H1K75232   4.755   4.896   1.782
    1HEX    H1M75233   4.733   4.962   2.213
    1HEX    H1N75234   4.837   5.081   2.149
    1HEX    H1O75235   4.954   4.819   2.232
    1HEX    H1P75236   4.929   4.952   2.343
    1HEX    H1R75237   4.590   4.806   1.615
    1HEX    H1S75238   4.438   4.787   1.691
    1HEX    H1T75239   4.602   4.425   1.743
    1HEX    H1U75240   4.502   4.353   1.629
    1HEX    H1V75241   4.522   4.310   1.902
    1HEX    H1W75242   4.399   4.244   1.793
    1HEX    H1Y75243   4.416   4.668   1.888
    1HEX    H1Z75244   4.470   4.802   1.972
    1HEX    H2075245   4.618   4.780   2.129
    1HEX    H2175246   4.740   4.666   2.092
    1HEX    H2275247   4.627   4.436   2.147
    1HEX    H2375248   4.645   4.402   2.315
    1HEX    H2475249   5.058   4.295   2.141
    1HEX    H2575250   4.957   4.176   2.194
    1HEX    H2675251   4.899   4.298   2.405
    1HEX    H2775252   5.061   4.237   2.401
    1HEX    H2975253   4.605   4.720   2.450
    1HEX    H2A75254   4.647   4.816   2.329
    1HEX    H2B75255   4.857   4.668   2.687
    1HEX    H2C75256   4.705   4.653   2.623
    1HEX    H2D75257   4.849   4.897   2.735
    1HEX    H2E75258   4.716   4.823   2.808
    1HEX    H2G75259   4.430   4.498   2.202
    1HEX    H2H75260   4.403   4.663   2.216
    1HEX    H2I75261   4.431   4.477   2.698
    1HEX    H2J75262   4.285   4.510   2.620
    1HEX    H2K75263   4.514   4.713   2.663
    1HEX    H2M75264   4.387   4.689   2.774
    1STR    S0075265   5.223   4.459   1.830
    1STR    S0E75266   5.097   5.005   2.184
    1STR    S0M75267   4.314   4.414   1.939
    1STR    S0X75268   5.040   4.473   2.408
    1STR    S1475269   4.639   4.974   2.641
    1STR    S1B75270   4.312   4.806   2.582
    1HEX    C0175271   4.970   4.523   4.032
    1HEX    C0275272   4.828   4.543   4.081
    1HEX    C0375273   4.706   4.524   3.995
    1HEX    O0475274   4.690   4.434   3.913
    1HEX    O0575275   4.617   4.611   4.035
    1HEX    C0675276   4.480   4.585   4.027
    1HEX    C0775277   4.414   4.606   4.163
    1HEX    C0875278   4.432   4.749   4.215
    1HEX    O0975279   4.355   4.864   4.195
    1HEX    C0A75280   4.408   4.964   4.266
    1HEX    O0B75281   4.523   5.000   4.251
    1HEX    C0C75282   4.334   5.003   4.391
    1HEX    C0D75283   4.422   4.993   4.519
    1HEX    C0F75284   4.269   4.561   4.151
    1HEX    O0G75285   4.246   4.436   4.086
    1HEX    C0H75286   4.123   4.414   4.037
    1HEX    O0I75287   4.040   4.503   4.023
    1HEX    C0J75288   4.083   4.272   3.997
    1HEX    C0K75289   4.169   4.149   4.029
    1HEX    C0N75290   4.480   4.526   4.276
    1HEX    O0O75291   4.622   4.545   4.287
    1HEX    C0P75292   4.675   4.662   4.351
    1HEX    C0Q75293   4.761   4.626   4.468
    1HEX    C0R75294   4.880   4.537   4.430
    1HEX    O0S75295   4.933   4.495   4.553
    1HEX    C0T75296   5.040   4.425   4.566
    1HEX    O0U75297   5.090   4.351   4.482
    1HEX    C0V75298   5.103   4.452   4.701
    1HEX    C0W75299   5.131   4.601   4.718
    1HEX    C0Y75300   4.826   4.750   4.526
    1HEX    O0Z75301   4.734   4.842   4.580
    1HEX    C1075302   4.759   4.892   4.700
    1HEX    O1175303   4.868   4.892   4.759
    1HEX    C1275304   4.635   4.956   4.753
    1HEX    C1375305   4.635   5.004   4.898
    1HEX    C1575306   4.665   4.554   4.562
    1HEX    O1675307   4.568   4.637   4.623
    1HEX    C1775308   4.503   4.578   4.722
    1HEX    O1875309   4.529   4.468   4.765
    1HEX    C1975310   4.386   4.652   4.775
    1HEX    C1A75311   4.275   4.552   4.805
    1HEX    H1D75312   4.979   4.449   3.953
    1HEX    H1E75313   5.028   4.488   4.117
    1HEX    H1F75314   4.820   4.643   4.119
    1HEX    H1G75315   4.813   4.479   4.166
    1HEX    H1H75316   4.459   4.487   3.984
    1HEX    H1I75317   4.439   4.661   3.964
    1HEX    H1J75318   4.534   4.775   4.190
    1HEX    H1K75319   4.420   4.742   4.322
    1HEX    H1M75320   4.243   4.945   4.397
    1HEX    H1N75321   4.303   5.105   4.380
    1HEX    H1O75322   4.527   4.986   4.491
    1HEX    H1P75323   4.400   4.905   4.578
    1HEX    H1R75324   4.212   4.642   4.106
    1HEX    H1S75325   4.232   4.545   4.250
    1HEX    H1T75326   4.066   4.277   3.892
    1HEX    H1U75327   3.984   4.254   4.038
    1HEX    H1V75328   4.131   4.066   3.969
    1HEX    H1W75329   4.155   4.117   4.132
    1HEX    H1Y75330   4.456   4.425   4.251
    1HEX    H1Z75331   4.433   4.538   4.373
    1HEX    H2075332   4.603   4.730   4.395
    1HEX    H2175333   4.731   4.720   4.281
    1HEX    H2275334   4.958   4.587   4.374
    1HEX    H2375335   4.845   4.459   4.368
    1HEX    H2475336   5.194   4.394   4.712
    1HEX    H2575337   5.035   4.421   4.778
    1HEX    H2675338   5.139   4.633   4.821
    1HEX    H2775339   5.059   4.668   4.676
    1HEX    H2975340   4.892   4.795   4.452
    1HEX    H2A75341   4.889   4.719   4.605
    1HEX    H2B75342   4.553   4.888   4.735
    1HEX    H2C75343   4.625   5.037   4.686
    1HEX    H2D75344   4.583   5.098   4.909
    1HEX    H2E75345   4.736   5.017   4.937
    1HEX    H2G75346   4.717   4.489   4.631
    1HEX    H2H75347   4.606   4.483   4.507
    1HEX    H2I75348   4.358   4.721   4.697
    1HEX    H2J75349   4.406   4.711   4.861
    1HEX    H2K75350   4.261   4.496   4.714
    1HEX    H2M75351   4.189   4.612   4.820
    1STR    S0075352   5.043   4.680   3.983
    1STR    S0E75353   4.403   5.147   4.617
    1STR    S0M75354   4.344   4.164   3.984
    1STR    S0X75355   5.277   4.623   4.622
    1STR    S1475356   4.533   4.890   4.992
    1STR    S1B75357   4.292   4.425   4.938
    1HEX    C0175358   5.137   4.624   6.594
    1HEX    C0275359   5.102   4.684   6.729
    1HEX    C0375360   4.969   4.627   6.775
    1HEX    O0475361   4.964   4.508   6.776
    1HEX    O0575362   4.858   4.706   6.804
    1HEX    C0675363   4.732   4.638   6.827
    1HEX    C0775364   4.612   4.707   6.895
    1HEX    C0875365   4.603   4.850   6.846
    1HEX    O0975366   4.596   4.872   6.708
    1HEX    C0A75367   4.544   4.986   6.664
    1HEX    O0B75368   4.468   5.061   6.724
    1HEX    C0C75369   4.594   5.020   6.526
    1HEX    C0D75370   4.732   5.079   6.526
    1HEX    C0F75371   4.480   4.638   6.857
    1HEX    O0G75372   4.471   4.494   6.859
    1HEX    C0H75373   4.357   4.439   6.909
    1HEX    O0I75374   4.262   4.505   6.949
    1HEX    C0J75375   4.361   4.288   6.934
    1HEX    C0K75376   4.249   4.217   7.015
    1HEX    C0N75377   4.627   4.712   7.049
    1HEX    O0O75378   4.508   4.736   7.123
    1HEX    C0P75379   4.499   4.683   7.257
    1HEX    C0Q75380   4.398   4.561   7.260
    1HEX    C0R75381   4.471   4.463   7.176
    1HEX    O0S75382   4.600   4.438   7.229
    1HEX    C0T75383   4.688   4.394   7.147
    1HEX    O0U75384   4.659   4.358   7.035
    1HEX    C0V75385   4.828   4.403   7.199
    1HEX    C0W75386   4.882   4.544   7.213
    1HEX    C0Y75387   4.357   4.464   7.374
    1HEX    O0Z75388   4.461   4.386   7.435
    1HEX    C1075389   4.475   4.256   7.406
    1HEX    O1175390   4.404   4.194   7.328
    1HEX    C1275391   4.589   4.188   7.480
    1HEX    C1375392   4.698   4.131   7.386
    1HEX    C1575393   4.261   4.616   7.214
    1HEX    O1675394   4.188   4.674   7.322
    1HEX    C1775395   4.211   4.797   7.372
    1HEX    O1875396   4.281   4.885   7.322
    1HEX    C1975397   4.133   4.821   7.500
    1HEX    C1A75398   4.183   4.937   7.585
    1HEX    H1D75399   5.236   4.641   6.560
    1HEX    H1E75400   5.119   4.519   6.594
    1HEX    H1F75401   5.118   4.788   6.734
    1HEX    H1G75402   5.175   4.650   6.801
    1HEX    H1H75403   4.743   4.547   6.881
    1HEX    H1I75404   4.699   4.600   6.735
    1HEX    H1J75405   4.694   4.897   6.879
    1HEX    H1K75406   4.515   4.892   6.893
    1HEX    H1M75407   4.521   5.076   6.470
    1HEX    H1N75408   4.611   4.925   6.478
    1HEX    H1O75409   4.765   5.102   6.425
    1HEX    H1P75410   4.795   5.000   6.558
    1HEX    H1R75411   4.455   4.673   6.760
    1HEX    H1S75412   4.405   4.683   6.920
    1HEX    H1T75413   4.457   4.262   6.972
    1HEX    H1U75414   4.352   4.242   6.840
    1HEX    H1V75415   4.152   4.235   6.975
    1HEX    H1W75416   4.248   4.239   7.121
    1HEX    H1Y75417   4.705   4.782   7.077
    1HEX    H1Z75418   4.666   4.618   7.078
    1HEX    H2075419   4.472   4.764   7.322
    1HEX    H2175420   4.599   4.660   7.293
    1HEX    H2275421   4.486   4.512   7.083
    1HEX    H2375422   4.418   4.371   7.160
    1HEX    H2475423   4.897   4.341   7.143
    1HEX    H2575424   4.820   4.362   7.297
    1HEX    H2675425   4.980   4.537   7.254
    1HEX    H2775426   4.817   4.611   7.269
    1HEX    H2975427   4.279   4.397   7.338
    1HEX    H2A75428   4.305   4.521   7.447
    1HEX    H2B75429   4.546   4.106   7.536
    1HEX    H2C75430   4.622   4.264   7.551
    1HEX    H2D75431   4.693   4.182   7.292
    1HEX    H2E75432   4.671   4.029   7.369
    1HEX    H2G75433   4.198   4.535   7.177
    1HEX    H2H75434   4.270   4.683   7.131
    1HEX    H2I75435   4.141   4.732   7.560
    1HEX    H2J75436   4.030   4.836   7.471
    1HEX    H2K75437   4.251   4.999   7.527
    1HEX    H2M75438   4.247   4.893   7.661
    1STR    S0075439   5.036   4.683   6.464
    1STR    S0E75440   4.750   5.230   6.620
    1STR    S0M75441   4.271   4.041   6.983
    1STR    S0X75442   4.927   4.614   7.062
    1STR    S1475443   4.874   4.113   7.429
    1STR    S1B75444   4.052   5.043   7.659
    1HEX    C0175445   4.704   6.461   8.955
    1HEX    C0275446   4.805   6.570   8.992
    1HEX    C0375447   4.747   6.676   9.085
    1HEX    O0475448   4.732   6.655   9.204
    1HEX    O0575449   4.703   6.787   9.026
    1HEX    C0675450   4.572   6.824   9.067
    1HEX    C0775451   4.544   6.958   9.139
    1HEX    C0875452   4.600   7.073   9.067
    1HEX    O0975453   4.561   7.199   9.125
    1HEX    C0A75454   4.643   7.277   9.197
    1HEX    O0B75455   4.605   7.326   9.303
    1HEX    C0C75456   4.782   7.303   9.134
    1HEX    C0D75457   4.909   7.348   9.205
    1HEX    C0F75458   4.393   6.990   9.146
    1HEX    O0G75459   4.323   6.883   9.089
    1HEX    C0H75460   4.281   6.790   9.169
    1HEX    O0I75461   4.268   6.806   9.290
    1HEX    C0J75462   4.256   6.662   9.092
    1HEX    C0K75463   4.210   6.542   9.171
    1HEX    C0N75464   4.608   6.955   9.275
    1HEX    O0O75465   4.748   6.961   9.265
    1HEX    C0P75466   4.817   7.069   0.009
    1HEX    C0Q75467   4.892   7.034   0.135
    1HEX    C0R75468   4.937   6.888   0.109
    1HEX    O0S75469   4.993   6.886   9.299
    1HEX    C0T75470   5.010   6.776   9.225
    1HEX    O0U75471   4.992   6.659   9.259
    1HEX    C0V75472   5.066   6.811   9.088
    1HEX    C0W75473   5.203   6.885   9.084
    1HEX    C0Y75474   5.016   7.127   0.153
    1HEX    O0Z75475   5.067   7.142   0.285
    1HEX    C1075476   5.195   7.182   0.301
    1HEX    O1175477   5.286   7.162   0.221
    1HEX    C1275478   5.224   7.246   0.434
    1HEX    C1375479   5.319   7.370   0.433
    1HEX    C1575480   4.800   7.068   0.254
    1HEX    O1675481   4.660   7.051   0.236
    1HEX    C1775482   4.615   6.927   0.241
    1HEX    O1875483   4.688   6.832   0.247
    1HEX    C1975484   4.466   6.906   0.234
    1HEX    C1A75485   4.388   7.034   0.239
    1HEX    H1D75486   4.750   6.382   8.897
    1HEX    H1E75487   4.657   6.419   9.043
    1HEX    H1F75488   4.832   6.616   8.899
    1HEX    H1G75489   4.893   6.529   9.041
    1HEX    H1H75490   4.531   6.750   9.133
    1HEX    H1I75491   4.513   6.805   8.979
    1HEX    H1J75492   4.557   7.060   8.969
    1HEX    H1K75493   4.706   7.053   9.064
    1HEX    H1M75494   4.763   7.380   9.065
    1HEX    H1N75495   4.814   7.214   9.085
    1HEX    H1O75496   4.899   7.333   9.311
    1HEX    H1P75497   4.931   7.452   9.189
    1HEX    H1R75498   4.365   7.079   9.090
    1HEX    H1S75499   4.362   7.013   9.247
    1HEX    H1T75500   4.348   6.639   9.040
    1HEX    H1U75501   4.184   6.681   9.013
    1HEX    H1V75502   4.223   6.452   9.111
    1HEX    H1W75503   4.106   6.552   9.194
    1HEX    H1Y75504   4.583   6.860   0.001
    1HEX    H1Z75505   4.569   7.038   0.014
    1HEX    H2075506   4.756   7.152   0.036
    1HEX    H2175507   4.891   7.099   9.255
    1HEX    H2275508   4.856   6.817   0.102
    1HEX    H2375509   5.003   6.857   0.187
    1HEX    H2475510   4.987   6.868   9.041
    1HEX    H2575511   5.076   6.718   9.033
    1HEX    H2675512   5.207   6.949   8.997
    1HEX    H2775513   5.284   6.814   9.070
    1HEX    H2975514   4.990   7.229   0.130
    1HEX    H2A75515   5.092   7.103   0.081
    1HEX    H2B75516   5.269   7.166   0.491
    1HEX    H2C75517   5.128   7.264   0.482
    1HEX    H2D75518   5.383   7.370   0.345
    1HEX    H2E75519   5.385   7.367   0.518
    1HEX    H2G75520   4.809   7.175   0.270
    1HEX    H2H75521   4.830   7.020   0.346
    1HEX    H2I75522   4.441   6.842   0.315
    1HEX    H2J75523   4.437   6.847   0.148
    1HEX    H2K75524   4.402   7.076   0.142
    1HEX    H2M75525   4.422   7.109   0.309
    1STR    S0075526   4.580   6.541   8.852
    1STR    S0E75527   5.062   7.290   9.133
    1STR    S0M75528   4.291   6.526   0.010
    1STR    S0X75529   5.246   6.988   9.230
    1STR    S1475530   5.241   7.533   0.449
    1STR    S1B75531   4.218   6.990   0.274
    1HEX    C0175532   4.812   7.116   1.825
    1HEX    C0275533   4.810   6.968   1.798
    1HEX    C0375534   4.702   6.896   1.872
    1HEX    O0475535   4.601   6.858   1.817
    1HEX    O0575536   4.730   6.880   2.000
    1HEX    C0675537   4.645   6.796   2.073
    1HEX    C0775538   4.521   6.868   2.131
    1HEX    C0875539   4.491   7.003   2.064
    1HEX    O0975540   4.394   7.077   2.136
    1HEX    C0A75541   4.430   7.188   2.202
    1HEX    O0B75542   4.410   7.213   2.320
    1HEX    C0C75543   4.502   7.287   2.120
    1HEX    C0D75544   4.648   7.298   2.162
    1HEX    C0F75545   4.405   6.772   2.110
    1HEX    O0G75546   4.391   6.749   1.971
    1HEX    C0H75547   4.407   6.627   1.920
    1HEX    O0I75548   4.422   6.525   1.986
    1HEX    C0J75549   4.388   6.626   1.769
    1HEX    C0K75550   4.392   6.488   1.704
    1HEX    C0N75551   4.546   6.898   2.278
    1HEX    O0O75552   4.671   6.963   2.283
    1HEX    C0P75553   4.688   7.063   2.381
    1HEX    C0Q75554   4.708   7.021   2.525
    1HEX    C0R75555   4.759   6.879   2.525
    1HEX    O0S75556   4.881   6.876   2.452
    1HEX    C0T75557   4.987   6.816   2.502
    1HEX    O0U75558   4.991   6.732   2.592
    1HEX    C0V75559   5.111   6.861   2.432
    1HEX    C0W75560   5.136   7.009   2.454
    1HEX    C0Y75561   4.820   7.112   2.583
    1HEX    O0Z75562   4.912   7.051   2.669
    1HEX    C1075563   4.897   7.081   2.793
    1HEX    O1175564   4.949   7.176   2.849
    1HEX    C1275565   4.791   6.996   2.854
    1HEX    C1375566   4.830   6.851   2.876
    1HEX    C1575567   4.569   7.041   2.595
    1HEX    O1675568   4.519   6.937   2.676
    1HEX    C1775569   4.432   6.965   2.774
    1HEX    O1875570   4.418   7.074   2.827
    1HEX    C1975571   4.352   6.845   2.825
    1HEX    C1A75572   4.239   6.882   2.920
    1HEX    H1D75573   4.913   7.156   1.812
    1HEX    H1E75574   4.775   7.135   1.925
    1HEX    H1F75575   4.899   6.919   1.830
    1HEX    H1G75576   4.802   6.954   1.692
    1HEX    H1H75577   4.699   6.756   2.156
    1HEX    H1I75578   4.626   6.706   2.015
    1HEX    H1J75579   4.459   6.990   1.961
    1HEX    H1K75580   4.585   7.057   2.057
    1HEX    H1M75581   4.447   7.381   2.120
    1HEX    H1N75582   4.488   7.247   2.023
    1HEX    H1O75583   4.707   7.347   2.089
    1HEX    H1P75584   4.694   7.202   2.177
    1HEX    H1R75585   4.315   6.816   2.146
    1HEX    H1S75586   4.420   6.680   2.168
    1HEX    H1T75587   4.468   6.688   1.729
    1HEX    H1U75588   4.297   6.677   1.745
    1HEX    H1V75589   4.293   6.452   1.677
    1HEX    H1W75590   4.435   6.421   1.777
    1HEX    H1Y75591   4.548   6.807   2.334
    1HEX    H1Z75592   4.467   6.956   2.325
    1HEX    H2075593   4.614   7.140   2.377
    1HEX    H2175594   4.774   7.116   2.347
    1HEX    H2275595   4.684   6.812   2.489
    1HEX    H2375596   4.776   6.851   2.627
    1HEX    H2475597   5.094   6.847   2.325
    1HEX    H2575598   5.193   6.796   2.461
    1HEX    H2675599   5.154   7.039   2.557
    1HEX    H2775600   5.047   7.061   2.426
    1HEX    H2975601   4.780   7.202   2.626
    1HEX    H2A75602   4.888   7.147   2.508
    1HEX    H2B75603   4.710   7.003   2.786
    1HEX    H2C75604   4.748   7.045   2.937
    1HEX    H2D75605   4.882   6.834   2.971
    1HEX    H2E75606   4.887   6.807   2.796
    1HEX    H2G75607   4.488   7.064   2.526
    1HEX    H2H75608   4.580   7.129   2.657
    1HEX    H2I75609   4.420   6.788   2.885
    1HEX    H2J75610   4.324   6.776   2.747
    1HEX    H2K75611   4.272   6.958   2.991
    1HEX    H2M75612   4.204   6.793   2.969
    1STR    S0075613   4.704   7.191   1.705
    1STR    S0E75614   4.630   7.400   2.305
    1STR    S0M75615   4.509   6.471   1.566
    1STR    S0X75616   5.263   7.056   2.338
    1STR    S1475617   4.671   6.773   2.876
    1STR    S1B75618   4.086   6.942   2.853
    1HEX    C0175619   5.143   6.789   4.137
    1HEX    C0275620   4.993   6.815   4.106
    1HEX    C0375621   4.902   6.815   4.228
    1HEX    O0475622   4.931   6.741   4.320
    1HEX    O0575623   4.800   6.906   4.233
    1HEX    C0675624   4.723   6.907   4.356
    1HEX    C0775625   4.634   7.026   4.400
    1HEX    C0875626   4.706   7.158   4.371
    1HEX    O0975627   4.611   7.260   4.354
    1HEX    C0A75628   4.559   7.327   4.455
    1HEX    O0B75629   4.440   7.332   4.476
    1HEX    C0C75630   4.655   7.407   4.538
    1HEX    C0D75631   4.629   7.391   4.686
    1HEX    C0F75632   4.497   7.025   4.336
    1HEX    O0G75633   4.435   6.900   4.341
    1HEX    C0H75634   4.308   6.893   4.310
    1HEX    O0I75635   4.234   6.986   4.278
    1HEX    C0J75636   4.263   6.750   4.309
    1HEX    C0K75637   4.117   6.746   4.333
    1HEX    C0N75638   4.602   7.023   4.551
    1HEX    O0O75639   4.504   6.930   4.593
    1HEX    C0P75640   4.554   6.801   4.603
    1HEX    C0Q75641   4.561   6.755   4.747
    1HEX    C0R75642   4.646   6.628   4.732
    1HEX    O0S75643   4.775   6.646   4.676
    1HEX    C0T75644   4.860   6.543   4.672
    1HEX    O0U75645   4.854   6.441   4.739
    1HEX    C0V75646   4.966   6.562   4.569
    1HEX    C0W75647   5.104   6.512   4.604
    1HEX    C0Y75648   4.630   6.857   4.841
    1HEX    O0Z75649   4.761   6.816   4.874
    1HEX    C1075650   4.779   6.727   4.971
    1HEX    O1175651   4.690   6.682   5.042
    1HEX    C1275652   4.923   6.681   4.983
    1HEX    C1375653   5.020   6.791   4.949
    1HEX    C1575654   4.414   6.733   4.794
    1HEX    O1675655   4.387   6.716   4.933
    1HEX    C1775656   4.267   6.667   4.976
    1HEX    O1875657   4.187   6.598   4.914
    1HEX    C1975658   4.230   6.712   5.115
    1HEX    C1A75659   4.108   6.644   5.181
    1HEX    H1D75660   5.204   6.820   4.053
    1HEX    H1E75661   5.175   6.845   4.224
    1HEX    H1F75662   4.958   6.735   4.042
    1HEX    H1G75663   4.982   6.911   4.057
    1HEX    H1H75664   4.794   6.892   4.437
    1HEX    H1I75665   4.660   6.820   4.353
    1HEX    H1J75666   4.767   7.153   4.281
    1HEX    H1K75667   4.775   7.180   4.451
    1HEX    H1M75668   4.646   7.511   4.513
    1HEX    H1N75669   4.757   7.382   4.510
    1HEX    H1O75670   4.525   7.372   4.711
    1HEX    H1P75671   4.663   7.478   4.741
    1HEX    H1R75672   4.508   7.057   4.237
    1HEX    H1S75673   4.432   7.101   4.375
    1HEX    H1T75674   4.320   6.698   4.386
    1HEX    H1U75675   4.277   6.706   4.213
    1HEX    H1V75676   4.065   6.786   4.247
    1HEX    H1W75677   4.109   6.811   4.416
    1HEX    H1Y75678   4.560   7.117   4.583
    1HEX    H1Z75679   4.691   7.013   4.609
    1HEX    H2075680   4.653   6.794   4.561
    1HEX    H2175681   4.492   6.736   4.542
    1HEX    H2275682   4.601   6.565   4.659
    1HEX    H2375683   4.651   6.573   4.825
    1HEX    H2475684   4.964   6.665   4.539
    1HEX    H2575685   4.939   6.510   4.482
    1HEX    H2675686   5.100   6.417   4.656
    1HEX    H2775687   5.168   6.504   4.516
    1HEX    H2975688   4.573   6.867   4.932
    1HEX    H2A75689   4.632   6.958   4.804
    1HEX    H2B75690   4.939   6.597   4.917
    1HEX    H2C75691   4.944   6.645   5.082
    1HEX    H2D75692   5.006   6.822   4.847
    1HEX    H2E75693   5.119   6.750   4.960
    1HEX    H2G75694   4.365   6.656   4.735
    1HEX    H2H75695   4.363   6.825   4.769
    1HEX    H2I75696   4.211   6.816   5.100
    1HEX    H2J75697   4.321   6.705   5.173
    1HEX    H2K75698   4.118   6.537   5.167
    1HEX    H2M75699   4.015   6.671   5.132
    1STR    S0075700   5.185   6.618   4.180
    1STR    S0E75701   4.728   7.252   4.732
    1STR    S0M75702   4.046   6.590   4.373
    1STR    S0X75703   5.173   6.629   4.714
    1STR    S1475704   4.999   6.928   5.063
    1STR    S1B75705   4.094   6.687   5.360
    1HEX    C0175706   4.958   6.836   6.416
    1HEX    C0275707   4.917   6.714   6.495
    1HEX    C0375708   4.780   6.684   6.447
    1HEX    O0475709   4.765   6.637   6.335
    1HEX    O0575710   4.688   6.722   6.531
    1HEX    C0675711   4.557   6.678   6.513
    1HEX    C0775712   4.445   6.739   6.599
    1HEX    C0875713   4.421   6.891   6.577
    1HEX    O0975714   4.381   6.963   6.695
    1HEX    C0A75715   4.409   7.093   6.722
    1HEX    O0B75716   4.424   7.137   6.834
    1HEX    C0C75717   4.409   7.192   6.607
    1HEX    C0D75718   4.300   7.297   6.622
    1HEX    C0F75719   4.324   6.648   6.555
    1HEX    O0G75720   4.321   6.614   6.415
    1HEX    C0H75721   4.217   6.553   6.352
    1HEX    O0I75722   4.102   6.548   6.396
    1HEX    C0J75723   4.247   6.495   6.212
    1HEX    C0K75724   4.278   6.344   6.202
    1HEX    C0N75725   4.485   6.718   6.747
    1HEX    O0O75726   4.623   6.740   6.776
    1HEX    C0P75727   4.690   6.865   6.758
    1HEX    C0Q75728   4.753   6.906   6.890
    1HEX    C0R75729   4.825   6.776   6.931
    1HEX    O0S75730   4.931   6.772   7.028
    1HEX    C0T75731   5.008   6.660   7.036
    1HEX    O0U75732   4.993   6.561   6.965
    1HEX    C0V75733   5.120   6.665   7.137
    1HEX    C0W75734   5.120   6.569   7.258
    1HEX    C0Y75735   4.856   7.015   6.870
    1HEX    O0Z75736   4.929   7.026   6.987
    1HEX    C1075737   4.952   7.143   7.036
    1HEX    O1175738   5.012   7.235   6.984
    1HEX    C1275739   4.883   7.153   7.166
    1HEX    C1375740   4.960   7.093   7.278
    1HEX    C1575741   4.627   6.964   6.961
    1HEX    O1675742   4.586   6.938   7.091
    1HEX    C1775743   4.484   6.855   7.106
    1HEX    O1875744   4.462   6.752   7.042
    1HEX    C1975745   4.391   6.905   7.210
    1HEX    C1A75746   4.252   6.844   7.199
    1HEX    H1D75747   5.058   6.820   6.376
    1HEX    H1E75748   4.889   6.853   6.334
    1HEX    H1F75749   4.924   6.725   6.603
    1HEX    H1G75750   4.978   6.629   6.466
    1HEX    H1H75751   4.557   6.572   6.533
    1HEX    H1I75752   4.536   6.693   6.410
    1HEX    H1J75753   4.345   6.906   6.506
    1HEX    H1K75754   4.508   6.936   6.534
    1HEX    H1M75755   4.389   7.138   6.516
    1HEX    H1N75756   4.505   7.239   6.608
    1HEX    H1O75757   4.243   7.262   6.706
    1HEX    H1P75758   4.236   7.297   6.535
    1HEX    H1R75759   4.228   6.686   6.585
    1HEX    H1S75760   4.333   6.555   6.610
    1HEX    H1T75761   4.322   6.552   6.158
    1HEX    H1U75762   4.155   6.510   6.156
    1HEX    H1V75763   4.213   6.301   6.127
    1HEX    H1W75764   4.255   6.291   6.293
    1HEX    H1Y75765   4.467   6.615   6.777
    1HEX    H1Z75766   4.424   6.776   6.815
    1HEX    H2075767   4.631   6.944   6.714
    1HEX    H2175768   4.773   6.850   6.691
    1HEX    H2275769   4.865   6.726   6.843
    1HEX    H2375770   4.742   6.717   6.962
    1HEX    H2475771   5.112   6.763   7.182
    1HEX    H2575772   5.215   6.662   7.084
    1HEX    H2675773   5.029   6.585   7.315
    1HEX    H2775774   5.195   6.601   7.327
    1HEX    H2975775   4.810   7.111   6.849
    1HEX    H2A75776   4.922   6.990   6.789
    1HEX    H2B75777   4.785   7.108   7.147
    1HEX    H2C75778   4.865   7.254   7.188
    1HEX    H2D75779   4.986   7.169   7.350
    1HEX    H2E75780   5.047   7.038   7.247
    1HEX    H2G75781   4.538   6.945   6.903
    1HEX    H2H75782   4.634   7.071   6.956
    1HEX    H2I75783   4.386   7.012   7.194
    1HEX    H2J75784   4.436   6.889   7.307
    1HEX    H2K75785   4.228   6.806   7.099
    1HEX    H2M75786   4.179   6.915   7.233
    1STR    S0075787   4.957   6.986   6.510
    1STR    S0E75788   4.329   7.469   6.669
    1STR    S0M75789   4.448   6.301   6.148
    1STR    S0X75790   5.145   6.388   7.236
    1STR    S1475791   4.846   6.977   7.342
    1STR    S1B75792   4.232   6.719   7.319
    1HEX    C0175793   7.354   9.216   8.803
    1HEX    C0275794   7.257   9.108   8.836
    1HEX    C0375795   7.122   9.140   8.781
    1HEX    O0475796   7.042   9.053   8.751
    1HEX    O0575797   7.098   9.268   8.790
    1HEX    C0675798   6.978   9.311   8.846
    1HEX    C0775799   6.989   0.017   8.999
    1HEX    C0875800   7.089   0.131   9.020
    1HEX    O0975801   7.028   0.257   9.038
    1HEX    C0A75802   7.034   0.314   9.156
    1HEX    O0B75803   7.106   0.278   9.249
    1HEX    C0C75804   6.955   0.440   9.162
    1HEX    C0D75805   6.984   0.517   9.290
    1HEX    C0F75806   6.841   0.056   9.038
    1HEX    O0G75807   6.778   9.288   9.129
    1HEX    C0H75808   6.760   9.166   9.086
    1HEX    O0I75809   6.770   9.131   8.970
    1HEX    C0J75810   6.761   9.060   9.191
    1HEX    C0K75811   6.698   9.073   0.008
    1HEX    C0N75812   7.047   9.216   9.079
    1HEX    O0O75813   7.171   9.217   9.151
    1HEX    C0P75814   7.179   9.259   9.291
    1HEX    C0Q75815   7.062   9.240   0.068
    1HEX    C0R75816   7.032   9.088   0.059
    1HEX    O0S75817   7.140   9.004   0.103
    1HEX    C0T75818   7.111   8.889   0.164
    1HEX    O0U75819   7.002   8.859   0.208
    1HEX    C0V75820   7.222   8.787   0.174
    1HEX    C0W75821   7.336   8.826   0.265
    1HEX    C0Y75822   7.081   9.275   0.218
    1HEX    O0Z75823   7.045   9.167   0.300
    1HEX    C1075824   6.919   9.140   0.333
    1HEX    O1175825   6.821   9.204   0.296
    1HEX    C1275826   6.909   9.015   0.418
    1HEX    C1375827   7.045   8.978   0.484
    1HEX    C1575828   6.967   0.034   0.026
    1HEX    O1675829   6.836   0.033   0.070
    1HEX    C1775830   6.765   0.140   0.039
    1HEX    O1875831   6.786   0.226   9.276
    1HEX    C1975832   6.650   0.156   0.126
    1HEX    C1A75833   6.689   0.236   0.244
    1HEX    H1D75834   7.444   9.167   8.776
    1HEX    H1E75835   7.317   9.274   8.719
    1HEX    H1F75836   7.250   9.109   8.944
    1HEX    H1G75837   7.289   9.011   8.801
    1HEX    H1H75838   6.900   9.241   8.818
    1HEX    H1I75839   6.954   0.082   8.795
    1HEX    H1J75840   7.155   0.129   8.936
    1HEX    H1K75841   7.160   0.114   9.099
    1HEX    H1M75842   6.849   0.424   9.147
    1HEX    H1N75843   6.988   0.496   9.077
    1HEX    H1O75844   6.962   0.621   9.270
    1HEX    H1P75845   7.089   0.512   9.312
    1HEX    H1R75846   6.773   0.056   8.954
    1HEX    H1S75847   6.829   0.158   9.068
    1HEX    H1T75848   6.856   9.012   9.191
    1HEX    H1U75849   6.701   8.991   9.137
    1HEX    H1V75850   6.591   9.086   0.015
    1HEX    H1W75851   6.747   9.139   0.078
    1HEX    H1Y75852   7.040   9.127   9.018
    1HEX    H1Z75853   6.979   9.194   9.155
    1HEX    H2075854   7.210   0.043   9.299
    1HEX    H2175855   7.259   9.197   0.006
    1HEX    H2275856   7.027   9.057   9.279
    1HEX    H2375857   6.938   9.060   0.103
    1HEX    H2475858   7.258   8.767   0.075
    1HEX    H2575859   7.180   8.695   0.214
    1HEX    H2675860   7.403   8.741   0.280
    1HEX    H2775861   7.299   8.857   0.360
    1HEX    H2975862   7.021   0.038   0.254
    1HEX    H2A75863   7.182   9.305   0.239
    1HEX    H2B75864   6.862   8.934   0.364
    1HEX    H2C75865   6.830   9.040   0.485
    1HEX    H2D75866   7.065   9.034   0.575
    1HEX    H2E75867   7.125   9.001   0.418
    1HEX    H2G75868   6.972   0.061   9.244
    1HEX    H2H75869   7.007   0.125   0.069
    1HEX    H2I75870   6.617   0.056   0.149
    1HEX    H2J75871   6.581   0.215   0.069
    1HEX    H2K75872   6.795   0.250   0.246
    1HEX    H2M75873   6.684   0.166   0.324
    1STR    S0075874   7.388   0.009   8.937
    1STR    S0E75875   6.890   0.453   0.110
    1STR    S0M75876   6.707   8.904   0.055
    1STR    S0X75877   7.423   8.960   0.186
    1STR    S1475878   7.079   8.804   0.513
    1STR    S1B75879   6.591   0.389   0.271
    1HEX    C0175880   7.193   9.053   1.919
    1HEX    C0275881   7.127   8.994   2.041
    1HEX    C0375882   6.982   9.022   2.033
    1HEX    O0475883   6.904   8.930   2.041
    1HEX    O0575884   6.948   9.151   2.015
    1HEX    C0675885   6.813   9.168   1.979
    1HEX    C0775886   6.758   9.306   1.952
    1HEX    C0875887   6.849   0.072   1.867
    1HEX    O0975888   6.952   0.153   1.920
    1HEX    C0A75889   7.080   0.131   1.887
    1HEX    O0B75890   7.119   0.042   1.814
    1HEX    C0C75891   7.175   0.235   1.944
    1HEX    C0D75892   7.287   0.286   1.852
    1HEX    C0F75893   6.629   9.280   1.865
    1HEX    O0G75894   6.571   9.156   1.900
    1HEX    C0H75895   6.483   9.092   1.825
    1HEX    O0I75896   6.415   9.138   1.734
    1HEX    C0J75897   6.488   8.943   1.857
    1HEX    C0K75898   6.393   8.890   1.966
    1HEX    C0N75899   6.726   0.060   2.083
    1HEX    O0O75900   6.828   0.055   2.182
    1HEX    C0P75901   6.934   0.147   2.186
    1HEX    C0Q75902   6.971   0.169   2.332
    1HEX    C0R75903   7.013   0.037   2.396
    1HEX    O0S75904   7.108   9.296   2.312
    1HEX    C0T75905   7.172   9.188   2.352
    1HEX    O0U75906   7.138   9.116   2.445
    1HEX    C0V75907   7.300   9.164   2.277
    1HEX    C0W75908   7.319   9.266   2.163
    1HEX    C0Y75909   7.082   0.270   2.344
    1HEX    O0Z75910   7.112   0.302   2.477
    1HEX    C1075911   7.059   0.413   2.530
    1HEX    O1175912   7.008   0.507   2.470
    1HEX    C1275913   7.045   0.397   2.676
    1HEX    C1375914   7.036   0.515   2.766
    1HEX    C1575915   6.849   0.231   2.397
    1HEX    O1675916   6.837   0.202   2.533
    1HEX    C1775917   6.754   0.107   2.560
    1HEX    O1875918   6.710   0.028   2.479
    1HEX    C1975919   6.696   0.113   2.694
    1HEX    C1A75920   6.545   0.125   2.674
    1HEX    H1D75921   7.166   9.157   1.912
    1HEX    H1E75922   7.154   9.002   1.831
    1HEX    H1F75923   7.149   9.044   2.132
    1HEX    H1G75924   7.145   8.887   2.052
    1HEX    H1H75925   6.749   9.123   2.052
    1HEX    H1I75926   6.795   9.104   1.894
    1HEX    H1J75927   6.781   0.146   1.827
    1HEX    H1K75928   6.885   0.006   1.789
    1HEX    H1M75929   7.209   0.206   2.042
    1HEX    H1N75930   7.108   0.317   1.951
    1HEX    H1O75931   7.268   0.387   1.821
    1HEX    H1P75932   7.290   0.225   1.765
    1HEX    H1R75933   6.654   9.273   1.759
    1HEX    H1S75934   6.557   0.040   1.872
    1HEX    H1T75935   6.590   8.921   1.887
    1HEX    H1U75936   6.469   8.889   1.764
    1HEX    H1V75937   6.425   8.792   1.996
    1HEX    H1W75938   6.295   8.881   1.922
    1HEX    H1Y75939   6.639   0.015   2.130
    1HEX    H1Z75940   6.703   0.161   2.059
    1HEX    H2075941   6.906   0.242   2.140
    1HEX    H2175942   7.019   0.104   2.135
    1HEX    H2275943   6.926   9.296   2.406
    1HEX    H2375944   7.050   0.049   2.497
    1HEX    H2475945   7.308   9.062   2.242
    1HEX    H2575946   7.382   9.167   2.348
    1HEX    H2675947   7.232   9.275   2.099
    1HEX    H2775948   7.401   9.240   2.101
    1HEX    H2975949   7.039   0.355   2.300
    1HEX    H2A75950   7.169   0.249   2.286
    1HEX    H2B75951   7.133   0.345   2.708
    1HEX    H2C75952   6.953   0.341   2.685
    1HEX    H2D75953   7.111   0.587   2.738
    1HEX    H2E75954   7.050   0.478   2.865
    1HEX    H2G75955   6.757   0.210   2.342
    1HEX    H2H75956   6.855   0.338   2.390
    1HEX    H2I75957   6.741   0.195   2.749
    1HEX    H2J75958   6.723   0.019   2.740
    1HEX    H2K75959   6.488   0.115   2.764
    1HEX    H2M75960   6.513   0.043   2.611
    1STR    S0075961   7.371   9.036   1.916
    1STR    S0E75962   7.456   0.297   1.910
    1STR    S0M75963   6.375   8.984   2.121
    1STR    S0X75964   7.365   0.108   2.223
    1STR    S1475965   6.873   0.583   2.760
    1STR    S1B75966   6.502   0.281   2.599
    1HEX    C0175967   7.148   9.262   4.272
    1HEX    C0275968   7.088   9.122   4.242
    1HEX    C0375969   6.941   9.093   4.235
    1HEX    O0475970   6.904   8.977   4.224
    1HEX    O0575971   6.862   9.199   4.244
    1HEX    C0675972   6.724   9.189   4.259
    1HEX    C0775973   6.667   9.160   4.398
    1HEX    C0875974   6.636   9.293   4.481
    1HEX    O0975975   6.588   0.078   4.400
    1HEX    C0A75976   6.588   0.214   4.421
    1HEX    O0B75977   6.548   0.288   4.331
    1HEX    C0C75978   6.639   0.283   4.549
    1HEX    C0D75979   6.588   0.253   4.692
    1HEX    C0F75980   6.532   9.096   4.369
    1HEX    O0G75981   6.536   8.989   4.275
    1HEX    C0H75982   6.458   8.996   4.166
    1HEX    O0I75983   6.359   9.067   4.153
    1HEX    C0J75984   6.501   8.908   4.051
    1HEX    C0K75985   6.574   8.779   4.088
    1HEX    C0N75986   6.752   9.048   4.466
    1HEX    O0O75987   6.885   9.073   4.512
    1HEX    C0P75988   6.943   9.201   4.517
    1HEX    C0Q75989   6.946   9.282   4.644
    1HEX    C0R75990   7.084   9.262   4.710
    1HEX    O0S75991   7.190   9.313   4.631
    1HEX    C0T75992   7.303   0.028   4.691
    1HEX    O0U75993   7.346   9.305   4.798
    1HEX    C0V75994   7.369   0.143   4.619
    1HEX    C0W75995   7.373   0.267   4.708
    1HEX    C0Y75996   6.940   0.110   4.596
    1HEX    O0Z75997   6.897   0.195   4.696
    1HEX    C1075998   6.984   0.243   4.777
    1HEX    O1175999   7.105   0.226   4.775
    1HEX    C1276000   6.922   0.329   4.878
    1HEX    C1376001   6.961   0.281   5.010
    1HEX    C1576002   6.829   9.230   4.731
    1HEX    O1676003   6.725   9.316   4.777
    1HEX    C1776004   6.654   9.273   4.882
    1HEX    O1876005   6.695   9.189   4.960
    1HEX    C1976006   6.516   0.012   4.904
    1HEX    C1A76007   6.403   9.249   4.839
    1HEX    H1D76008   7.221   9.294   4.200
    1HEX    H1E76009   7.200   9.255   4.366
    1HEX    H1F76010   7.105   9.066   4.330
    1HEX    H1G76011   7.137   9.062   4.167
    1HEX    H1H76012   6.689   9.120   4.184
    1HEX    H1I76013   6.684   9.283   4.229
    1HEX    H1J76014   6.719   0.012   4.534
    1HEX    H1K76015   6.562   9.274   4.558
    1HEX    H1M76016   6.610   0.386   4.529
    1HEX    H1N76017   6.746   0.287   4.545
    1HEX    H1O76018   6.669   0.212   4.750
    1HEX    H1P76019   6.509   0.179   4.684
    1HEX    H1R76020   6.463   9.175   4.338
    1HEX    H1S76021   6.495   9.054   4.462
    1HEX    H1T76022   6.564   8.972   3.989
    1HEX    H1U76023   6.411   8.884   3.995
    1HEX    H1V76024   6.533   8.693   4.036
    1HEX    H1W76025   6.563   8.760   4.195
    1HEX    H1Y76026   6.756   8.964   4.398
    1HEX    H1Z76027   6.702   8.997   4.546
    1HEX    H2076028   6.897   9.262   4.443
    1HEX    H2176029   7.045   9.189   4.488
    1HEX    H2276030   7.108   9.162   4.742
    1HEX    H2376031   7.088   9.316   4.801
    1HEX    H2476032   7.310   0.167   4.531
    1HEX    H2576033   7.466   0.112   4.584
    1HEX    H2676034   7.357   0.240   4.812
    1HEX    H2776035   7.292   0.333   4.679
    1HEX    H2976036   6.878   0.130   4.510
    1HEX    H2A76037   7.037   0.144   4.560
    1HEX    H2B76038   6.815   0.330   4.870
    1HEX    H2C76039   6.957   0.427   4.863
    1HEX    H2D76040   6.925   0.351   5.079
    1HEX    H2E76041   7.068   0.274   5.022
    1HEX    H2G76042   6.864   9.152   4.796
    1HEX    H2H76043   6.765   9.167   4.674
    1HEX    H2I76044   6.516   0.116   4.881
    1HEX    H2J76045   6.499   0.013   5.011
    1HEX    H2K76046   6.401   9.257   4.731
    1HEX    H2M76047   6.305   9.280   4.873
    1STR    S0076048   7.044   0.087   4.286
    1STR    S0E76049   6.530   0.399   4.791
    1STR    S0M76050   6.751   8.790   4.048
    1STR    S0X76051   7.525   0.358   4.690
    1STR    S1476052   6.869   0.129   5.015
    1STR    S1B76053   6.419   9.077   4.891
    1HEX    C0176054   7.543   0.075   6.359
    1HEX    C0276055   7.408   0.135   6.401
    1HEX    C0376056   7.345   0.072   6.525
    1HEX    O0476057   7.404   9.303   6.584
    1HEX    O0576058   7.224   0.120   6.559
    1HEX    C0676059   7.169   0.067   6.679
    1HEX    C0776060   7.023   0.101   6.714
    1HEX    C0876061   6.987   0.249   6.719
    1HEX    O0976062   7.042   0.331   6.617
    1HEX    C0A76063   6.960   0.415   6.552
    1HEX    O0B76064   6.839   0.400   6.534
    1HEX    C0C76065   7.026   0.541   6.498
    1HEX    C0D76066   7.174   0.561   6.517
    1HEX    C0F76067   6.931   0.030   6.611
    1HEX    O0G76068   6.835   9.257   6.662
    1HEX    C0H76069   6.713   9.247   6.607
    1HEX    O0I76070   6.665   9.317   6.519
    1HEX    C0J76071   6.632   9.135   6.668
    1HEX    C0K76072   6.491   9.177   6.712
    1HEX    C0N76073   6.992   0.044   6.853
    1HEX    O0O76074   7.031   0.107   6.975
    1HEX    C0P76075   7.010   0.027   7.095
    1HEX    C0Q76076   6.877   9.263   7.105
    1HEX    C0R76077   6.877   9.147   7.002
    1HEX    O0S76078   6.999   9.075   7.010
    1HEX    C0T76079   7.034   9.003   6.909
    1HEX    O0U76080   6.981   9.012   6.800
    1HEX    C0V76081   7.140   8.900   6.942
    1HEX    C0W76082   7.269   8.973   6.966
    1HEX    C0Y76083   6.859   9.175   7.228
    1HEX    O0Z76084   6.984   9.117   7.259
    1HEX    C1076085   6.994   9.020   7.346
    1HEX    O1176086   6.900   8.954   7.387
    1HEX    C1276087   7.136   8.997   7.396
    1HEX    C1376088   7.251   9.042   7.304
    1HEX    C1576089   6.764   0.050   7.100
    1HEX    O1676090   6.709   0.092   7.226
    1HEX    C1776091   6.603   0.030   7.281
    1HEX    O1876092   6.535   9.265   7.225
    1HEX    C1976093   6.581   0.056   7.429
    1HEX    C1A76094   6.475   0.160   7.466
    1HEX    H1D76095   7.585   0.136   6.279
    1HEX    H1E76096   7.613   0.086   6.442
    1HEX    H1F76097   7.333   0.137   6.323
    1HEX    H1G76098   7.430   0.237   6.426
    1HEX    H1H76099   7.236   0.095   6.760
    1HEX    H1I76100   7.177   9.279   6.674
    1HEX    H1J76101   7.012   0.290   6.817
    1HEX    H1K76102   6.879   0.252   6.717
    1HEX    H1M76103   6.980   0.621   6.552
    1HEX    H1N76104   7.001   0.556   6.396
    1HEX    H1O76105   7.200   0.551   6.622
    1HEX    H1P76106   7.200   0.662   6.486
    1HEX    H1R76107   6.993   9.291   6.543
    1HEX    H1S76108   6.881   0.107   6.553
    1HEX    H1T76109   6.693   9.088   6.745
    1HEX    H1U76110   6.618   9.058   6.596
    1HEX    H1V76111   6.425   9.185   6.626
    1HEX    H1W76112   6.490   9.273   6.761
    1HEX    H1Y76113   7.033   9.263   6.851
    1HEX    H1Z76114   6.885   0.045   6.859
    1HEX    H2076115   7.015   0.096   7.180
    1HEX    H2176116   7.094   9.281   7.109
    1HEX    H2276117   6.846   9.174   6.902
    1HEX    H2376118   6.806   9.069   7.022
    1HEX    H2476119   7.151   8.826   6.864
    1HEX    H2576120   7.110   8.848   7.032
    1HEX    H2676121   7.350   8.916   7.009
    1HEX    H2776122   7.250   9.047   7.040
    1HEX    H2976123   6.781   9.100   7.218
    1HEX    H2A76124   6.813   9.228   7.309
    1HEX    H2B76125   7.148   8.893   7.423
    1HEX    H2C76126   7.136   9.057   7.485
    1HEX    H2D76127   7.208   9.105   7.228
    1HEX    H2E76128   7.295   8.958   7.253
    1HEX    H2G76129   6.689   0.021   7.031
    1HEX    H2H76130   6.801   0.142   7.055
    1HEX    H2I76131   6.672   0.071   7.482
    1HEX    H2J76132   6.549   9.281   7.469
    1HEX    H2K76133   6.447   0.146   7.569
    1HEX    H2M76134   6.387   0.147   7.405
    1STR    S0076135   7.546   9.218   6.308
    1STR    S0E76136   7.274   0.451   6.420
    1STR    S0M76137   6.425   9.058   6.829
    1STR    S0X76138   7.314   9.054   6.812
    1STR    S1476139   7.382   9.137   7.391
    1STR    S1B76140   6.528   0.332   7.463
    1HEX    C0176141   7.275   1.983   8.983
    1HEX    C0276142   7.180   2.098   8.946
    1HEX    C0376143   7.036   2.079   8.985
    1HEX    O0476144   6.987   1.969   9.008
    1HEX    O0576145   6.970   2.194   8.980
    1HEX    C0676146   6.830   2.188   8.961
    1HEX    C0776147   6.741   2.214   9.085
    1HEX    C0876148   6.735   2.362   9.113
    1HEX    O0976149   6.672   2.396   9.234
    1HEX    C0A76150   6.706   2.500   9.311
    1HEX    O0B76151   6.674   2.512   0.107
    1HEX    C0C76152   6.782   2.611   9.245
    1HEX    C0D76153   6.933   2.607   9.275
    1HEX    C0F76154   6.595   2.173   9.059
    1HEX    O0G76155   6.582   2.064   8.973
    1HEX    C0H76156   6.466   2.035   8.918
    1HEX    O0I76157   6.367   2.107   8.915
    1HEX    C0J76158   6.464   1.896   8.860
    1HEX    C0K76159   6.447   1.784   8.963
    1HEX    C0N76160   6.780   2.141   9.213
    1HEX    O0O76161   6.914   2.127   9.256
    1HEX    C0P76162   6.992   2.241   9.282
    1HEX    C0Q76163   7.054   2.255   0.103
    1HEX    C0R76164   7.109   2.122   0.157
    1HEX    O0S76165   7.234   2.067   0.116
    1HEX    C0T76166   7.306   2.125   0.025
    1HEX    O0U76167   7.277   2.132   9.227
    1HEX    C0V76168   7.427   2.198   0.076
    1HEX    C0W76169   7.487   2.167   0.214
    1HEX    C0Y76170   7.162   2.362   0.112
    1HEX    O0Z76171   7.222   2.367   0.241
    1HEX    C1076172   7.334   2.437   0.257
    1HEX    O1176173   7.397   2.494   0.168
    1HEX    C1276174   7.378   2.451   0.399
    1HEX    C1376175   7.399   2.599   0.433
    1HEX    C1576176   6.943   2.307   0.193
    1HEX    O1676177   6.812   2.266   0.164
    1HEX    C1776178   6.770   2.148   0.205
    1HEX    O1876179   6.840   2.070   0.264
    1HEX    C1976180   6.624   2.120   0.182
    1HEX    C1A76181   6.542   2.250   0.163
    1HEX    H1D76182   7.361   2.034   9.024
    1HEX    H1E76183   7.232   1.923   9.063
    1HEX    H1F76184   7.175   2.109   8.840
    1HEX    H1G76185   7.213   2.192   8.990
    1HEX    H1H76186   6.804   2.096   8.908
    1HEX    H1I76187   6.816   2.268   8.890
    1HEX    H1J76188   6.678   2.405   9.033
    1HEX    H1K76189   6.836   2.396   9.110
    1HEX    H1M76190   6.739   2.702   9.285
    1HEX    H1N76191   6.750   2.613   9.144
    1HEX    H1O76192   6.935   2.557   0.050
    1HEX    H1P76193   6.973   2.704   9.296
    1HEX    H1R76194   6.535   2.255   9.019
    1HEX    H1S76195   6.550   2.144   9.153
    1HEX    H1T76196   6.554   1.886   8.802
    1HEX    H1U76197   6.381   1.893   8.792
    1HEX    H1V76198   6.476   1.689   8.920
    1HEX    H1W76199   6.343   1.774   8.993
    1HEX    H1Y76200   6.732   2.046   9.215
    1HEX    H1Z76201   6.725   2.189   9.290
    1HEX    H2076202   6.924   2.324   9.276
    1HEX    H2176203   7.066   2.249   9.204
    1HEX    H2276204   7.032   2.056   0.126
    1HEX    H2376205   7.108   2.120   0.266
    1HEX    H2476206   7.415   2.302   0.061
    1HEX    H2576207   7.502   2.187   0.002
    1HEX    H2676208   7.557   2.243   0.248
    1HEX    H2776209   7.542   2.078   0.201
    1HEX    H2976210   7.115   2.455   0.099
    1HEX    H2A76211   7.228   2.362   0.027
    1HEX    H2B76212   7.474   2.402   0.398
    1HEX    H2C76213   7.313   2.398   0.467
    1HEX    H2D76214   7.445   2.640   0.345
    1HEX    H2E76215   7.475   2.619   0.505
    1HEX    H2G76216   6.937   2.414   0.200
    1HEX    H2H76217   6.970   2.276   0.292
    1HEX    H2I76218   6.604   2.067   0.274
    1HEX    H2J76219   6.607   2.049   0.102
    1HEX    H2K76220   6.545   2.282   0.060
    1HEX    H2M76221   6.582   2.329   0.225
    1STR    S0076222   7.337   1.872   8.851
    1STR    S0E76223   7.057   2.514   9.178
    1STR    S0M76224   6.542   1.806   9.115
    1STR    S0X76225   7.382   2.122   0.351
    1STR    S1476226   7.258   2.695   0.487
    1STR    S1B76227   6.369   2.238   0.203
    1HEX    C0176228   6.990   2.522   2.104
    1HEX    C0276229   7.029   2.391   2.037
    1HEX    C0376230   6.915   2.309   1.993
    1HEX    O0476231   6.928   2.197   1.948
    1HEX    O0576232   6.807   2.370   2.018
    1HEX    C0676233   6.693   2.300   2.040
    1HEX    C0776234   6.689   2.234   2.176
    1HEX    C0876235   6.700   2.336   2.291
    1HEX    O0976236   6.698   2.477   2.297
    1HEX    C0A76237   6.754   2.533   2.410
    1HEX    O0B76238   6.784   2.476   2.513
    1HEX    C0C76239   6.786   2.678   2.405
    1HEX    C0D76240   6.929   2.702   2.361
    1HEX    C0F76241   6.561   2.149   2.168
    1HEX    O0G76242   6.551   2.065   2.053
    1HEX    C0H76243   6.493   2.110   1.940
    1HEX    O0I76244   6.449   2.222   1.922
    1HEX    C0J76245   6.484   2.013   1.826
    1HEX    C0K76246   6.579   1.899   1.843
    1HEX    C0N76247   6.805   2.139   2.212
    1HEX    O0O76248   6.936   2.192   2.240
    1HEX    C0P76249   6.980   2.265   2.356
    1HEX    C0Q76250   7.032   2.181   2.467
    1HEX    C0R76251   7.124   2.080   2.393
    1HEX    O0S76252   7.214   2.152   2.306
    1HEX    C0T76253   7.213   2.141   2.173
    1HEX    O0U76254   7.141   2.065   2.108
    1HEX    C0V76255   7.308   2.235   2.098
    1HEX    C0W76256   7.323   2.384   2.141
    1HEX    C0Y76257   7.114   2.269   2.564
    1HEX    O0Z76258   7.160   2.182   2.666
    1HEX    C1076259   7.092   2.178   2.779
    1HEX    O1176260   7.035   2.271   2.833
    1HEX    C1276261   7.085   2.039   2.837
    1HEX    C1376262   7.216   1.963   2.845
    1HEX    C1576263   6.909   2.128   2.545
    1HEX    O1676264   6.839   2.219   2.632
    1HEX    C1776265   6.777   2.168   2.743
    1HEX    O1876266   6.791   2.053   2.780
    1HEX    C1976267   6.682   2.257   2.823
    1HEX    C1A76268   6.706   2.405   2.808
    1HEX    H1D76269   7.080   2.577   2.133
    1HEX    H1E76270   6.930   2.500   2.190
    1HEX    H1F76271   7.074   2.331   2.112
    1HEX    H1G76272   7.098   2.399   1.955
    1HEX    H1H76273   6.693   2.230   1.957
    1HEX    H1I76274   6.609   2.368   2.032
    1HEX    H1J76275   6.796   2.363   2.257
    1HEX    H1K76276   6.704   2.287   2.388
    1HEX    H1M76277   6.767   2.722   2.501
    1HEX    H1N76278   6.718   2.729   2.341
    1HEX    H1O76279   6.963   2.795   2.397
    1HEX    H1P76280   6.920   2.717   2.255
    1HEX    H1R76281   6.477   2.216   2.164
    1HEX    H1S76282   6.552   2.087   2.257
    1HEX    H1T76283   6.502   2.069   1.735
    1HEX    H1U76284   6.383   1.974   1.820
    1HEX    H1V76285   6.552   1.821   1.773
    1HEX    H1W76286   6.562   1.863   1.941
    1HEX    H1Y76287   6.820   2.081   2.124
    1HEX    H1Z76288   6.773   2.069   2.285
    1HEX    H2076289   6.916   2.333   2.405
    1HEX    H2176290   7.062   2.327   2.323
    1HEX    H2276291   7.064   2.009   2.336
    1HEX    H2376292   7.181   2.022   2.463
    1HEX    H2476293   7.264   2.236   1.999
    1HEX    H2576294   7.404   2.187   2.085
    1HEX    H2676295   7.417   2.397   2.189
    1HEX    H2776296   7.248   2.418   2.212
    1HEX    H2976297   7.053   2.350   2.604
    1HEX    H2A76298   7.196   2.318   2.512
    1HEX    H2B76299   7.014   1.982   2.780
    1HEX    H2C76300   7.036   2.047   2.933
    1HEX    H2D76301   7.209   1.880   2.915
    1HEX    H2E76302   7.296   2.028   2.877
    1HEX    H2G76303   6.939   2.038   2.596
    1HEX    H2H76304   6.833   2.098   2.476
    1HEX    H2I76305   6.685   2.233   2.927
    1HEX    H2J76306   6.581   2.230   2.801
    1HEX    H2K76307   6.696   2.429   2.705
    1HEX    H2M76308   6.809   2.426   2.831
    1STR    S0076309   6.893   2.636   2.008
    1STR    S0E76310   7.061   2.581   2.397
    1STR    S0M76311   6.753   1.942   1.815
    1STR    S0X76312   7.333   2.485   1.989
    1STR    S1476313   7.275   1.905   2.688
    1STR    S1B76314   6.580   2.507   2.895
    1HEX    C0176315   7.401   1.981   4.361
    1HEX    C0276316   7.338   2.111   4.413
    1HEX    C0376317   7.189   2.092   4.404
    1HEX    O0476318   7.132   2.009   4.474
    1HEX    O0576319   7.137   2.163   4.306
    1HEX    C0676320   7.002   2.149   4.266
    1HEX    C0776321   6.918   2.275   4.292
    1HEX    C0876322   7.012   2.393   4.315
    1HEX    O0976323   6.935   2.505   4.356
    1HEX    C0A76324   6.976   2.568   4.463
    1HEX    O0B76325   7.064   2.527   4.534
    1HEX    C0C76326   6.906   2.692   4.500
    1HEX    C0D76327   6.870   2.697   4.652
    1HEX    C0F76328   6.837   2.319   4.169
    1HEX    O0G76329   6.701   2.283   4.171
    1HEX    C0H76330   6.655   2.168   4.125
    1HEX    O0I76331   6.717   2.085   4.061
    1HEX    C0J76332   6.510   2.151   4.156
    1HEX    C0K76333   6.478   2.192   4.298
    1HEX    C0N76334   6.821   2.242   4.406
    1HEX    O0O76335   6.873   2.183   4.524
    1HEX    C0P76336   6.940   2.277   4.603
    1HEX    C0Q76337   6.915   2.270   4.753
    1HEX    C0R76338   6.947   2.129   4.803
    1HEX    O0S76339   7.055   2.080   4.729
    1HEX    C0T76340   7.153   2.035   4.794
    1HEX    O0U76341   7.152   1.931   4.859
    1HEX    C0V76342   7.266   2.133   4.796
    1HEX    C0W76343   7.309   2.148   4.941
    1HEX    C0Y76344   6.990   2.390   4.814
    1HEX    O0Z76345   7.102   2.364   4.890
    1HEX    C1076346   7.078   2.350   5.016
    1HEX    O1176347   7.000   2.272   5.066
    1HEX    C1276348   7.156   2.445   5.099
    1HEX    C1376349   7.215   2.568   5.032
    1HEX    C1576350   6.769   2.293   4.777
    1HEX    O1676351   6.745   2.345   4.904
    1HEX    C1776352   6.623   2.375   4.923
    1HEX    O1876353   6.535   2.291   4.918
    1HEX    C1976354   6.596   2.522   4.906
    1HEX    C1A76355   6.509   2.531   4.781
    1HEX    H1D76356   7.390   1.906   4.437
    1HEX    H1E76357   7.339   1.954   4.279
    1HEX    H1F76358   7.367   2.197   4.353
    1HEX    H1G76359   7.359   2.134   4.516
    1HEX    H1H76360   6.957   2.059   4.307
    1HEX    H1I76361   7.010   2.134   4.160
    1HEX    H1J76362   7.067   2.417   4.225
    1HEX    H1K76363   7.091   2.366   4.385
    1HEX    H1M76364   6.821   2.699   4.434
    1HEX    H1N76365   6.974   2.769   4.469
    1HEX    H1O76366   6.822   2.605   4.682
    1HEX    H1P76367   6.803   2.778   4.670
    1HEX    H1R76368   6.891   2.295   4.079
    1HEX    H1S76369   6.829   2.428   4.164
    1HEX    H1T76370   6.474   2.051   4.132
    1HEX    H1U76371   6.459   2.219   4.091
    1HEX    H1V76372   6.374   2.222   4.300
    1HEX    H1W76373   6.534   2.278   4.334
    1HEX    H1Y76374   6.754   2.164   4.371
    1HEX    H1Z76375   6.757   2.329   4.426
    1HEX    H2076376   6.899   2.373   4.577
    1HEX    H2176377   7.046   2.276   4.580
    1HEX    H2276378   6.865   2.065   4.781
    1HEX    H2376379   6.959   2.117   4.910
    1HEX    H2476380   7.233   2.227   4.754
    1HEX    H2576381   7.341   2.093   4.731
    1HEX    H2676382   7.221   2.153   5.003
    1HEX    H2776383   7.356   2.055   4.972
    1HEX    H2976384   6.929   2.461   4.869
    1HEX    H2A76385   7.028   2.454   4.738
    1HEX    H2B76386   7.224   2.386   5.156
    1HEX    H2C76387   7.075   2.478   5.159
    1HEX    H2D76388   7.157   2.597   4.945
    1HEX    H2E76389   7.313   2.546   4.995
    1HEX    H2G76390   6.712   2.202   4.766
    1HEX    H2H76391   6.731   2.364   4.703
    1HEX    H2I76392   6.690   2.575   4.893
    1HEX    H2J76393   6.548   2.563   4.994
    1HEX    H2K76394   6.412   2.490   4.797
    1HEX    H2M76395   6.545   2.464   4.703
    1STR    S0076396   7.570   1.982   4.292
    1STR    S0E76397   7.003   2.721   4.770
    1STR    S0M76398   6.508   2.050   4.402
    1STR    S0X76399   7.409   2.296   4.976
    1STR    S1476400   7.209   2.701   5.156
    1STR    S1B76401   6.486   2.698   4.724
    1HEX    C0176402   7.207   2.210   6.268
    1HEX    C0276403   7.110   2.094   6.245
    1HEX    C0376404   6.969   2.083   6.302
    1HEX    O0476405   6.915   1.973   6.294
    1HEX    O0576406   6.911   2.192   6.352
    1HEX    C0676407   6.775   2.179   6.387
    1HEX    C0776408   6.720   2.260   6.505
    1HEX    C0876409   6.742   2.415   6.492
    1HEX    O0976410   6.733   2.502   6.608
    1HEX    C0A76411   6.634   2.493   6.698
    1HEX    O0B76412   6.557   2.402   6.708
    1HEX    C0C76413   6.617   2.606   6.795
    1HEX    C0D76414   6.552   2.572   6.935
    1HEX    C0F76415   6.568   2.221   6.514
    1HEX    O0G76416   6.531   2.113   6.430
    1HEX    C0H76417   6.408   2.096   6.385
    1HEX    O0I76418   6.314   2.173   6.401
    1HEX    C0J76419   6.392   1.965   6.312
    1HEX    C0K76420   6.445   1.845   6.391
    1HEX    C0N76421   6.786   2.205   6.630
    1HEX    O0O76422   6.929   2.201   6.639
    1HEX    C0P76423   6.999   2.319   6.675
    1HEX    C0Q76424   7.015   2.351   6.826
    1HEX    C0R76425   7.127   2.264   6.888
    1HEX    O0S76426   7.223   2.335   6.960
    1HEX    C0T76427   7.303   2.286   7.053
    1HEX    O0U76428   7.305   2.173   7.101
    1HEX    C0V76429   7.404   2.389   7.094
    1HEX    C0W76430   7.374   2.532   7.048
    1HEX    C0Y76431   7.049   2.501   6.833
    1HEX    O0Z76432   6.943   2.588   6.871
    1HEX    C1076433   6.973   2.699   6.942
    1HEX    O1176434   7.086   2.732   6.978
    1HEX    C1276435   6.853   2.779   6.984
    1HEX    C1376436   6.877   2.862   7.108
    1HEX    C1576437   6.882   2.318   6.892
    1HEX    O1676438   6.871   2.308   7.030
    1HEX    C1776439   6.762   2.260   7.088
    1HEX    O1876440   6.755   2.232   7.206
    1HEX    C1976441   6.639   2.244   7.003
    1HEX    C1A76442   6.606   2.102   6.958
    1HEX    H1D76443   7.227   2.255   6.172
    1HEX    H1E76444   7.302   2.171   6.301
    1HEX    H1F76445   7.162   2.001   6.259
    1HEX    H1G76446   7.087   2.095   6.141
    1HEX    H1H76447   6.760   2.077   6.420
    1HEX    H1I76448   6.716   2.182   6.297
    1HEX    H1J76449   6.675   2.458   6.419
    1HEX    H1K76450   6.840   2.430   6.447
    1HEX    H1M76451   6.550   2.669   6.738
    1HEX    H1N76452   6.715   2.654   6.801
    1HEX    H1O76453   6.625   2.562   7.016
    1HEX    H1P76454   6.505   2.475   6.931
    1HEX    H1R76455   6.503   2.306   6.497
    1HEX    H1S76456   6.544   2.188   6.615
    1HEX    H1T76457   6.442   1.969   6.216
    1HEX    H1U76458   6.286   1.952   6.289
    1HEX    H1V76459   6.407   1.755   6.345
    1HEX    H1W76460   6.414   1.847   6.495
    1HEX    H1Y76461   6.752   2.103   6.640
    1HEX    H1Z76462   6.737   2.251   6.713
    1HEX    H2076463   6.955   2.403   6.625
    1HEX    H2176464   7.100   2.312   6.634
    1HEX    H2276465   7.177   2.211   6.807
    1HEX    H2376466   7.084   2.194   6.957
    1HEX    H2476467   7.492   2.352   7.045
    1HEX    H2576468   7.421   2.383   7.201
    1HEX    H2676469   7.413   2.605   7.117
    1HEX    H2776470   7.268   2.552   7.047
    1HEX    H2976471   7.092   2.529   6.739
    1HEX    H2A76472   7.136   2.523   6.892
    1HEX    H2B76473   6.769   2.714   7.004
    1HEX    H2C76474   6.828   2.844   6.902
    1HEX    H2D76475   6.817   2.951   7.104
    1HEX    H2E76476   6.980   2.893   7.117
    1HEX    H2G76477   6.860   2.215   6.865
    1HEX    H2H76478   6.810   2.389   6.854
    1HEX    H2I76479   6.634   2.312   6.921
    1HEX    H2J76480   6.573   2.280   7.077
    1HEX    H2K76481   6.697   2.052   6.939
    1HEX    H2M76482   6.547   2.093   6.867
    1STR    S0076483   7.153   2.340   6.375
    1STR    S0E76484   6.409   2.675   6.986
    1STR    S0M76485   6.626   1.838   6.391
    1STR    S0X76486   7.444   2.560   6.883
    1STR    S1476487   6.829   2.773   7.255
    1STR    S1B76488   6.523   2.015   7.087
    1HEX    C0176489   7.297   4.885   8.906
    1HEX    C0276490   7.374   4.764   8.948
    1HEX    C0376491   7.291   4.642   8.957
    1HEX    O0476492   7.291   4.558   8.869
    1HEX    O0576493   7.245   4.630   9.076
    1HEX    C0676494   7.209   4.503   9.122
    1HEX    C0776495   7.061   4.512   9.144
    1HEX    C0876496   7.036   4.612   9.258
    1HEX    O0976497   6.955   4.714   9.217
    1HEX    C0A76498   6.827   4.697   9.205
    1HEX    O0B76499   6.762   4.598   9.239
    1HEX    C0C76500   6.773   4.811   9.125
    1HEX    C0D76501   6.845   4.943   9.146
    1HEX    C0F76502   7.000   4.553   9.006
    1HEX    O0G76503   6.879   4.485   8.990
    1HEX    C0H76504   6.794   4.522   8.903
    1HEX    O0I76505   6.789   4.635   8.859
    1HEX    C0J76506   6.688   4.417   8.873
    1HEX    C0K76507   6.667   4.324   8.986
    1HEX    C0N76508   7.000   4.377   9.181
    1HEX    O0O76509   7.063   4.294   9.275
    1HEX    C0P76510   7.143   4.345   0.058
    1HEX    C0Q76511   7.083   4.322   0.196
    1HEX    C0R76512   7.141   4.193   0.256
    1HEX    O0S76513   7.272   4.173   0.210
    1HEX    C0T76514   7.371   4.126   0.282
    1HEX    O0U76515   7.373   4.109   0.402
    1HEX    C0V76516   7.485   4.079   0.194
    1HEX    C0W76517   7.584   4.187   0.166
    1HEX    C0Y76518   7.129   4.433   0.291
    1HEX    O0Z76519   7.134   4.561   0.231
    1HEX    C1076520   7.072   4.663   0.280
    1HEX    O1176521   7.124   4.772   0.298
    1HEX    C1276522   6.923   4.646   0.280
    1HEX    C1376523   6.854   4.748   0.366
    1HEX    C1576524   6.929   4.319   0.172
    1HEX    O1676525   6.845   4.332   0.282
    1HEX    C1776526   6.715   4.316   0.260
    1HEX    O1876527   6.661   4.218   0.210
    1HEX    C1976528   6.633   4.433   0.306
    1HEX    C1A76529   6.620   4.538   0.199
    1HEX    H1D76530   7.317   4.897   8.801
    1HEX    H1E76531   7.192   4.867   8.922
    1HEX    H1F76532   7.417   4.779   9.044
    1HEX    H1G76533   7.448   4.733   8.879
    1HEX    H1H76534   7.268   4.482   9.208
    1HEX    H1I76535   7.238   4.423   9.057
    1HEX    H1J76536   7.125   4.658   9.298
    1HEX    H1K76537   6.989   4.564   0.023
    1HEX    H1M76538   6.668   4.818   9.144
    1HEX    H1N76539   6.791   4.784   9.024
    1HEX    H1O76540   6.834   5.008   9.061
    1HEX    H1P76541   6.950   4.933   9.169
    1HEX    H1R76542   7.059   4.516   8.923
    1HEX    H1S76543   6.996   4.660   8.991
    1HEX    H1T76544   6.705   4.361   8.782
    1HEX    H1U76545   6.593   4.461   8.862
    1HEX    H1V76546   6.571   4.277   8.977
    1HEX    H1W76547   6.681   4.376   9.080
    1HEX    H1Y76548   7.000   4.319   9.091
    1HEX    H1Z76549   6.895   4.387   9.208
    1HEX    H2076550   7.168   4.448   0.049
    1HEX    H2176551   7.239   4.301   0.039
    1HEX    H2276552   7.085   4.109   0.219
    1HEX    H2376553   7.137   4.194   0.365
    1HEX    H2476554   7.445   4.038   0.102
    1HEX    H2576555   7.535   4.000   0.247
    1HEX    H2676556   7.663   4.154   0.100
    1HEX    H2776557   7.630   4.218   0.260
    1HEX    H2976558   7.231   4.415   0.323
    1HEX    H2A76559   7.073   4.427   0.382
    1HEX    H2B76560   6.894   4.547   0.307
    1HEX    H2C76561   6.895   4.664   0.178
    1HEX    H2D76562   6.774   4.791   0.309
    1HEX    H2E76563   6.925   4.821   0.401
    1HEX    H2G76564   6.901   4.232   0.114
    1HEX    H2H76565   6.900   4.402   0.110
    1HEX    H2I76566   6.680   4.474   0.395
    1HEX    H2J76567   6.533   4.399   0.331
    1HEX    H2K76568   6.578   4.501   0.106
    1HEX    H2M76569   6.715   4.577   0.166
    1STR    S0076570   7.348   5.030   9.001
    1STR    S0E76571   6.760   5.011   9.284
    1STR    S0M76572   6.794   4.209   8.952
    1STR    S0X76573   7.495   4.319   0.084
    1STR    S1476574   6.782   4.697   0.517
    1STR    S1B76575   6.521   4.668   0.275
    1HEX    C0176576   6.944   4.279   1.882
    1HEX    C0276577   6.815   4.276   1.961
    1HEX    C0376578   6.715   4.379   1.924
    1HEX    O0476579   6.597   4.349   1.926
    1HEX    O0576580   6.769   4.495   1.896
    1HEX    C0676581   6.688   4.608   1.874
    1HEX    C0776582   6.595   4.657   1.987
    1HEX    C0876583   6.617   4.804   2.019
    1HEX    O0976584   6.606   4.878   1.902
    1HEX    C0A76585   6.567   5.002   1.905
    1HEX    O0B76586   6.455   5.042   1.931
    1HEX    C0C76587   6.682   5.093   1.870
    1HEX    C0D76588   6.797   5.067   1.970
    1HEX    C0F76589   6.447   4.651   1.937
    1HEX    O0G76590   6.400   4.520   1.913
    1HEX    C0H76591   6.312   4.495   1.815
    1HEX    O0I76592   6.237   4.577   1.762
    1HEX    C0J76593   6.326   4.356   1.758
    1HEX    C0K76594   6.244   4.235   1.801
    1HEX    C0N76595   6.621   4.588   2.121
    1HEX    O0O76596   6.740   4.512   2.150
    1HEX    C0P76597   6.874   4.565   2.138
    1HEX    C0Q76598   6.933   4.585   2.279
    1HEX    C0R76599   6.930   4.445   2.346
    1HEX    O0S76600   7.036   4.360   2.298
    1HEX    C0T76601   7.083   4.265   2.380
    1HEX    O0U76602   7.030   4.230   2.483
    1HEX    C0V76603   7.212   4.199   2.334
    1HEX    C0W76604   7.227   4.056   2.389
    1HEX    C0Y76605   7.078   4.637   2.280
    1HEX    O0Z76606   7.099   4.728   2.386
    1HEX    C1076607   7.168   4.836   2.362
    1HEX    O1176608   7.275   4.839   2.306
    1HEX    C1276609   7.094   4.963   2.393
    1HEX    C1376610   7.044   4.969   2.533
    1HEX    C1576611   6.844   4.691   2.344
    1HEX    O1676612   6.771   4.641   2.450
    1HEX    C1776613   6.642   4.651   2.441
    1HEX    O1876614   6.570   4.556   2.415
    1HEX    C1976615   6.590   4.786   2.482
    1HEX    C1A76616   6.578   4.902   2.383
    1HEX    H1D76617   6.967   4.379   1.848
    1HEX    H1E76618   6.941   4.215   1.794
    1HEX    H1F76619   6.830   4.291   2.067
    1HEX    H1G76620   6.762   4.187   1.942
    1HEX    H1H76621   6.630   4.581   1.787
    1HEX    H1I76622   6.759   4.686   1.849
    1HEX    H1J76623   6.716   4.815   2.062
    1HEX    H1K76624   6.544   4.841   2.091
    1HEX    H1M76625   6.647   5.195   1.878
    1HEX    H1N76626   6.712   5.073   1.768
    1HEX    H1O76627   6.762   5.012   2.056
    1HEX    H1P76628   6.822   5.162   2.014
    1HEX    H1R76629   6.437   4.710   1.846
    1HEX    H1S76630   6.383   4.699   2.009
    1HEX    H1T76631   6.430   4.336   1.774
    1HEX    H1U76632   6.307   4.366   1.653
    1HEX    H1V76633   6.272   4.144   1.749
    1HEX    H1W76634   6.141   4.248   1.771
    1HEX    H1Y76635   6.535   4.526   2.133
    1HEX    H1Z76636   6.607   4.659   2.200
    1HEX    H2076637   6.875   4.654   2.076
    1HEX    H2176638   6.937   4.494   2.086
    1HEX    H2276639   6.835   4.395   2.329
    1HEX    H2376640   6.935   4.456   2.452
    1HEX    H2476641   7.292   4.262   2.367
    1HEX    H2576642   7.213   4.199   2.227
    1HEX    H2676643   7.265   3.987   2.315
    1HEX    H2776644   7.129   4.023   2.414
    1HEX    H2976645   7.106   4.679   2.184
    1HEX    H2A76646   7.147   4.557   2.298
    1HEX    H2B76647   7.007   4.968   2.330
    1HEX    H2C76648   7.157   5.047   2.369
    1HEX    H2D76649   7.131   4.970   2.598
    1HEX    H2E76650   6.991   4.877   2.557
    1HEX    H2G76651   6.783   4.737   2.268
    1HEX    H2H76652   6.890   4.779   2.385
    1HEX    H2I76653   6.633   4.814   2.574
    1HEX    H2J76654   6.492   4.764   2.515
    1HEX    H2K76655   6.516   4.976   2.434
    1HEX    H2M76656   6.525   4.869   2.296
    1STR    S0076657   7.065   4.220   2.001
    1STR    S0E76658   6.939   4.972   1.908
    1STR    S0M76659   6.269   4.204   1.975
    1STR    S0X76660   7.329   4.029   2.537
    1STR    S1476661   6.938   5.119   2.547
    1STR    S1B76662   6.725   4.988   2.324
    1HEX    C0176663   7.173   4.859   4.370
    1HEX    C0276664   7.229   4.766   4.263
    1HEX    C0376665   7.143   4.644   4.246
    1HEX    O0476666   7.193   4.538   4.211
    1HEX    O0576667   7.015   4.666   4.271
    1HEX    C0676668   6.919   4.567   4.246
    1HEX    C0776669   6.870   4.501   4.367
    1HEX    C0876670   6.796   4.605   4.442
    1HEX    O0976671   6.679   4.660   4.386
    1HEX    C0A76672   6.630   4.771   4.445
    1HEX    O0B76673   6.544   4.842   4.394
    1HEX    C0C76674   6.681   4.802   4.588
    1HEX    C0D76675   6.712   4.948   4.605
    1HEX    C0F76676   6.781   4.381   4.333
    1HEX    O0G76677   6.818   4.296   4.227
    1HEX    C0H76678   6.751   4.182   4.212
    1HEX    O0I76679   6.742   4.096   4.298
    1HEX    C0J76680   6.680   4.168   4.076
    1HEX    C0K76681   6.687   4.030   4.010
    1HEX    C0N76682   6.987   4.452   4.450
    1HEX    O0O76683   7.068   4.553   4.512
    1HEX    C0P76684   7.046   4.638   4.625
    1HEX    C0Q76685   7.047   4.572   4.763
    1HEX    C0R76686   7.193   4.554   4.807
    1HEX    O0S76687   7.274   4.672   4.830
    1HEX    C0T76688   7.407   4.653   4.859
    1HEX    O0U76689   7.457   4.544   4.874
    1HEX    C0V76690   7.495   4.774   4.883
    1HEX    C0W76691   7.462   4.854   5.009
    1HEX    C0Y76692   6.960   4.660   4.854
    1HEX    O0Z76693   6.917   4.600   4.975
    1HEX    C1076694   6.790   4.617   5.013
    1HEX    O1176695   6.700   4.666   4.944
    1HEX    C1276696   6.758   4.574   5.154
    1HEX    C1376697   6.851   4.481   5.231
    1HEX    C1576698   6.981   4.437   4.741
    1HEX    O1676699   6.920   4.371   4.845
    1HEX    C1776700   6.829   4.281   4.810
    1HEX    O1876701   6.817   4.233   4.698
    1HEX    C1976702   6.713   4.286   4.903
    1HEX    C1A76703   6.631   4.400   4.848
    1HEX    H1D76704   7.244   4.894   4.442
    1HEX    H1E76705   7.093   4.815   4.429
    1HEX    H1F76706   7.327   4.725   4.273
    1HEX    H1G76707   7.248   4.823   4.175
    1HEX    H1H76708   6.964   4.483   4.199
    1HEX    H1I76709   6.838   4.609   4.187
    1HEX    H1J76710   6.862   4.691   4.444
    1HEX    H1K76711   6.782   4.566   4.541
    1HEX    H1M76712   6.768   4.751   4.620
    1HEX    H1N76713   6.615   4.762   4.662
    1HEX    H1O76714   6.634   5.007   4.649
    1HEX    H1P76715   6.731   4.993   4.510
    1HEX    H1R76716   6.687   4.423   4.299
    1HEX    H1S76717   6.768   4.320   4.423
    1HEX    H1T76718   6.713   4.245   4.012
    1HEX    H1U76719   6.576   4.192   4.085
    1HEX    H1V76720   6.628   4.028   3.919
    1HEX    H1W76721   6.646   3.955   4.078
    1HEX    H1Y76722   7.053   4.412   4.375
    1HEX    H1Z76723   6.963   4.362   4.506
    1HEX    H2076724   6.967   4.709   4.611
    1HEX    H2176725   7.130   4.706   4.626
    1HEX    H2276726   7.237   4.502   4.724
    1HEX    H2376727   7.203   4.479   4.883
    1HEX    H2476728   7.489   4.831   4.792
    1HEX    H2576729   7.598   4.737   4.888
    1HEX    H2676730   7.460   4.791   5.097
    1HEX    H2776731   7.363   4.896   4.997
    1HEX    H2976732   6.873   4.691   4.798
    1HEX    H2A76733   7.013   4.752   4.873
    1HEX    H2B76734   6.656   4.543   5.161
    1HEX    H2C76735   6.767   4.670   5.202
    1HEX    H2D76736   6.848   4.510   5.334
    1HEX    H2E76737   6.954   4.492   5.199
    1HEX    H2G76738   7.049   4.365   4.695
    1HEX    H2H76739   6.897   4.459   4.676
    1HEX    H2I76740   6.746   4.313   5.001
    1HEX    H2J76741   6.663   4.190   4.909
    1HEX    H2K76742   6.696   4.470   4.796
    1HEX    H2M76743   6.580   4.464   4.917
    1STR    S0076744   7.123   5.004   4.283
    1STR    S0E76745   6.850   4.964   4.713
    1STR    S0M76746   6.858   3.992   3.973
    1STR    S0X76747   7.573   4.991   5.051
    1STR    S1476748   6.804   4.309   5.250
    1STR    S1B76749   6.520   4.323   4.736
    1HEX    C0176750   7.621   4.570   6.445
    1HEX    C0276751   7.497   4.493   6.496
    1HEX    C0376752   7.423   4.527   6.626
    1HEX    O0476753   7.474   4.532   6.737
    1HEX    O0576754   7.294   4.536   6.606
    1HEX    C0676755   7.201   4.471   6.688
    1HEX    C0776756   7.128   4.572   6.776
    1HEX    C0876757   7.232   4.641   6.868
    1HEX    O0976758   7.161   4.720   6.960
    1HEX    C0A76759   7.175   4.848   6.956
    1HEX    O0B76760   7.282   4.907   6.962
    1HEX    C0C76761   7.041   4.913   6.937
    1HEX    C0D76762   7.018   4.995   6.811
    1HEX    C0F76763   7.041   4.665   6.691
    1HEX    O0G76764   6.924   4.604   6.643
    1HEX    C0H76765   6.806   4.662   6.654
    1HEX    O0I76766   6.780   4.765   6.718
    1HEX    C0J76767   6.703   4.591   6.568
    1HEX    C0K76768   6.565   4.601   6.625
    1HEX    C0N76769   7.029   4.501   6.865
    1HEX    O0O76770   7.110   4.405   6.926
    1HEX    C0P76771   7.135   4.425   7.061
    1HEX    C0Q76772   7.048   4.328   7.134
    1HEX    C0R76773   7.096   4.188   7.096
    1HEX    O0S76774   7.215   4.158   7.165
    1HEX    C0T76775   7.306   4.067   7.135
    1HEX    O0U76776   7.381   4.023   7.220
    1HEX    C0V76777   7.313   4.018   6.990
    1HEX    C0W76778   7.405   4.092   6.892
    1HEX    C0Y76779   7.066   4.334   7.282
    1HEX    O0Z76780   7.149   4.440   7.311
    1HEX    C1076781   7.278   4.426   7.325
    1HEX    O1176782   7.342   4.322   7.328
    1HEX    C1276783   7.335   4.562   7.346
    1HEX    C1376784   7.266   4.669   7.260
    1HEX    C1576785   6.901   4.372   7.106
    1HEX    O1676786   6.887   4.509   7.142
    1HEX    C1776787   6.767   4.559   7.166
    1HEX    O1876788   6.661   4.497   7.156
    1HEX    C1976789   6.775   4.696   7.230
    1HEX    C1A76790   6.812   4.813   7.139
    1HEX    H1D76791   7.605   4.622   6.352
    1HEX    H1E76792   7.653   4.647   6.513
    1HEX    H1F76793   7.508   4.385   6.490
    1HEX    H1G76794   7.422   4.517   6.425
    1HEX    H1H76795   7.252   4.394   6.745
    1HEX    H1I76796   7.130   4.416   6.628
    1HEX    H1J76797   7.309   4.698   6.816
    1HEX    H1K76798   7.292   4.568   6.920
    1HEX    H1M76799   7.017   4.971   7.025
    1HEX    H1N76800   6.967   4.833   6.934
    1HEX    H1O76801   7.008   5.098   6.841
    1HEX    H1P76802   6.916   4.973   6.778
    1HEX    H1R76803   7.092   4.705   6.605
    1HEX    H1S76804   7.014   4.749   6.750
    1HEX    H1T76805   6.737   4.489   6.557
    1HEX    H1U76806   6.697   4.624   6.465
    1HEX    H1V76807   6.493   4.627   6.547
    1HEX    H1W76808   6.557   4.672   6.706
    1HEX    H1Y76809   6.949   4.452   6.810
    1HEX    H1Z76810   6.977   4.570   6.931
    1HEX    H2076811   7.113   4.527   7.091
    1HEX    H2176812   7.240   4.406   7.079
    1HEX    H2276813   7.114   4.185   6.992
    1HEX    H2376814   7.024   4.116   7.126
    1HEX    H2476815   7.212   4.009   6.953
    1HEX    H2576816   7.354   3.919   6.994
    1HEX    H2676817   7.384   4.075   6.787
    1HEX    H2776818   7.506   4.057   6.908
    1HEX    H2976819   7.103   4.245   7.334
    1HEX    H2A76820   6.967   4.350   7.323
    1HEX    H2B76821   7.442   4.562   7.351
    1HEX    H2C76822   7.309   4.574   7.448
    1HEX    H2D76823   7.161   4.676   7.285
    1HEX    H2E76824   7.266   4.642   7.156
    1HEX    H2G76825   6.832   4.318   7.168
    1HEX    H2H76826   6.870   4.357   7.003
    1HEX    H2I76827   6.853   4.695   7.304
    1HEX    H2J76828   6.684   4.710   7.284
    1HEX    H2K76829   6.771   4.802   7.039
    1HEX    H2M76830   6.920   4.806   7.132
    1STR    S0076831   7.753   4.452   6.407
    1STR    S0E76832   7.121   4.977   6.660
    1STR    S0M76833   6.532   4.436   6.681
    1STR    S0X76834   7.401   4.269   6.916
    1STR    S1476835   7.343   4.829   7.278
    1STR    S1B76836   6.768   4.970   7.221
    1HEX    C0176837   7.345   7.063   8.783
    1HEX    C0276838   7.196   7.067   8.809
    1HEX    C0376839   7.142   6.935   8.864
    1HEX    O0476840   7.216   6.845   8.903
    1HEX    O0576841   7.010   6.934   8.859
    1HEX    C0676842   6.929   6.827   8.906
    1HEX    C0776843   6.783   6.877   8.934
    1HEX    C0876844   6.740   7.010   8.867
    1HEX    O0976845   6.677   7.107   8.949
    1HEX    C0A76846   6.548   7.115   8.959
    1HEX    O0B76847   6.471   7.035   8.909
    1HEX    C0C76848   6.497   7.243   9.023
    1HEX    C0D76849   6.593   7.313   9.112
    1HEX    C0F76850   6.672   6.772   8.902
    1HEX    O0G76851   6.641   6.691   9.012
    1HEX    C0H76852   6.563   6.586   8.998
    1HEX    O0I76853   6.480   6.568   8.910
    1HEX    C0J76854   6.593   6.482   9.102
    1HEX    C0K76855   6.665   6.366   9.037
    1HEX    C0N76856   6.790   6.903   9.079
    1HEX    O0O76857   6.913   6.962   9.118
    1HEX    C0P76858   6.949   7.094   9.090
    1HEX    C0Q76859   6.984   7.153   9.221
    1HEX    C0R76860   7.071   7.057   9.301
    1HEX    O0S76861   7.207   7.035   9.265
    1HEX    C0T76862   7.276   6.989   0.049
    1HEX    O0U76863   7.229   6.967   0.158
    1HEX    C0V76864   7.421   6.964   0.035
    1HEX    C0W76865   7.481   6.963   0.178
    1HEX    C0Y76866   7.069   7.279   9.200
    1HEX    O0Z76867   7.081   7.359   9.319
    1HEX    C1076868   7.190   7.352   0.076
    1HEX    O1176869   7.280   7.270   0.066
    1HEX    C1276870   7.201   7.461   0.181
    1HEX    C1376871   7.325   7.445   0.267
    1HEX    C1576872   6.857   7.193   9.297
    1HEX    O1676873   6.737   7.115   9.309
    1HEX    C1776874   6.727   6.987   0.019
    1HEX    O1876875   6.819   6.909   0.032
    1HEX    C1976876   6.585   6.935   0.024
    1HEX    C1A76877   6.590   6.783   0.040
    1HEX    H1D76878   7.383   7.164   8.778
    1HEX    H1E76879   7.390   7.016   8.870
    1HEX    H1F76880   7.145   7.092   8.717
    1HEX    H1G76881   7.176   7.145   8.881
    1HEX    H1H76882   6.978   6.789   8.995
    1HEX    H1I76883   6.933   6.739   8.845
    1HEX    H1J76884   6.683   6.998   8.775
    1HEX    H1K76885   6.828   7.065   8.841
    1HEX    H1M76886   6.418   7.216   9.086
    1HEX    H1N76887   6.448   7.313   8.957
    1HEX    H1O76888   6.624   7.237   9.178
    1HEX    H1P76889   6.543   7.384   9.174
    1HEX    H1R76890   6.699   6.704   8.821
    1HEX    H1S76891   6.581   6.820   8.868
    1HEX    H1T76892   6.503   6.445   9.148
    1HEX    H1U76893   6.651   6.527   9.182
    1HEX    H1V76894   6.590   6.317   8.977
    1HEX    H1W76895   6.697   6.292   9.110
    1HEX    H1Y76896   6.792   6.810   9.134
    1HEX    H1Z76897   6.700   6.954   9.109
    1HEX    H2076898   6.877   7.154   9.038
    1HEX    H2176899   7.039   7.092   9.032
    1HEX    H2276900   7.032   6.958   9.314
    1HEX    H2376901   7.071   7.104   0.077
    1HEX    H2476902   7.454   7.047   9.296
    1HEX    H2576903   7.441   6.875   9.296
    1HEX    H2676904   7.459   7.058   0.226
    1HEX    H2776905   7.584   6.963   0.172
    1HEX    H2976906   7.031   7.335   9.116
    1HEX    H2A76907   7.165   7.248   9.163
    1HEX    H2B76908   7.112   7.480   0.240
    1HEX    H2C76909   7.216   7.549   0.122
    1HEX    H2D76910   7.362   7.540   0.304
    1HEX    H2E76911   7.404   7.401   0.209
    1HEX    H2G76912   6.825   7.288   9.257
    1HEX    H2H76913   6.888   7.217   0.075
    1HEX    H2I76914   6.532   6.967   9.256
    1HEX    H2J76915   6.532   6.978   0.109
    1HEX    H2K76916   6.650   6.758   0.127
    1HEX    H2M76917   6.639   6.734   9.276
    1STR    S0076918   7.397   6.977   8.630
    1STR    S0E76919   6.733   7.381   9.023
    1STR    S0M76920   6.799   6.412   8.923
    1STR    S0X76921   7.463   6.824   0.297
    1STR    S1476922   7.311   7.332   0.403
    1STR    S1B76923   6.428   6.717   0.069
    1HEX    C0176924   7.178   6.998   2.017
    1HEX    C0276925   7.104   6.920   2.125
    1HEX    C0376926   7.008   6.823   2.063
    1HEX    O0476927   7.020   6.787   1.947
    1HEX    O0576928   6.905   6.799   2.139
    1HEX    C0676929   6.786   6.768   2.073
    1HEX    C0776930   6.662   6.754   2.157
    1HEX    C0876931   6.614   6.893   2.195
    1HEX    O0976932   6.508   6.942   2.117
    1HEX    C0A76933   6.461   7.065   2.142
    1HEX    O0B76934   6.347   7.098   2.119
    1HEX    C0C76935   6.562   7.170   2.178
    1HEX    C0D76936   6.607   7.174   2.321
    1HEX    C0F76937   6.556   6.683   2.069
    1HEX    O0G76938   6.597   6.550   2.047
    1HEX    C0H76939   6.580   6.488   1.931
    1HEX    O0I76940   6.504   6.521   1.841
    1HEX    C0J76941   6.667   6.364   1.924
    1HEX    C0K76942   6.772   6.356   2.037
    1HEX    C0N76943   6.694   6.674   2.284
    1HEX    O0O76944   6.802   6.709   2.368
    1HEX    C0P76945   6.803   6.842   2.415
    1HEX    C0Q76946   6.899   6.863   2.529
    1HEX    C0R76947   7.032   6.791   2.492
    1HEX    O0S76948   7.114   6.878   2.415
    1HEX    C0T76949   7.238   6.905   2.456
    1HEX    O0U76950   7.295   6.847   2.548
    1HEX    C0V76951   7.311   7.011   2.375
    1HEX    C0W76952   7.259   7.152   2.389
    1HEX    C0Y76953   6.923   7.017   2.538
    1HEX    O0Z76954   6.960   7.058   2.668
    1HEX    C1076955   7.086   7.072   2.707
    1HEX    O1176956   7.184   7.106   2.645
    1HEX    C1276957   7.103   7.044   2.851
    1HEX    C1376958   7.208   6.938   2.878
    1HEX    C1576959   6.831   6.824   2.664
    1HEX    O1676960   6.752   6.705   2.687
    1HEX    C1776961   6.684   6.703   2.807
    1HEX    O1876962   6.666   6.802   2.873
    1HEX    C1976963   6.636   6.573   2.871
    1HEX    C1A76964   6.531   6.584   2.983
    1HEX    H1D76965   7.262   7.054   2.057
    1HEX    H1E76966   7.223   6.929   1.946
    1HEX    H1F76967   7.055   6.985   2.197
    1HEX    H1G76968   7.172   6.862   2.181
    1HEX    H1H76969   6.797   6.688   2.001
    1HEX    H1I76970   6.770   6.857   2.016
    1HEX    H1J76971   6.698   6.961   2.192
    1HEX    H1K76972   6.575   6.895   2.296
    1HEX    H1M76973   6.521   7.264   2.146
    1HEX    H1N76974   6.649   7.152   2.118
    1HEX    H1O76975   6.716   7.167   2.328
    1HEX    H1P76976   6.568   7.090   2.376
    1HEX    H1R76977   6.546   6.734   1.974
    1HEX    H1S76978   6.455   6.687   2.108
    1HEX    H1T76979   6.715   6.358   1.827
    1HEX    H1U76980   6.600   6.278   1.930
    1HEX    H1V76981   6.802   6.252   2.046
    1HEX    H1W76982   6.728   6.378   2.134
    1HEX    H1Y76983   6.704   6.569   2.261
    1HEX    H1Z76984   6.610   6.686   2.348
    1HEX    H2076985   6.705   6.870   2.451
    1HEX    H2176986   6.835   6.908   2.335
    1HEX    H2276987   7.019   6.701   2.433
    1HEX    H2376988   7.081   6.755   2.581
    1HEX    H2476989   7.321   6.980   2.272
    1HEX    H2576990   7.409   7.011   2.421
    1HEX    H2676991   7.321   7.198   2.465
    1HEX    H2776992   7.159   7.153   2.426
    1HEX    H2976993   6.830   7.066   2.517
    1HEX    H2A76994   6.985   7.059   2.460
    1HEX    H2B76995   7.007   7.013   2.884
    1HEX    H2C76996   7.132   7.136   2.900
    1HEX    H2D76997   7.226   6.938   2.985
    1HEX    H2E76998   7.300   6.965   2.829
    1HEX    H2G76999   6.767   6.909   2.688
    1HEX    H2H77000   6.904   6.830   2.743
    1HEX    H2I77001   6.723   6.542   2.926
    1HEX    H2J77002   6.613   6.497   2.800
    1HEX    H2K77003   6.543   6.679   3.035
    1HEX    H2M77004   6.553   6.505   3.054
    1STR    S0077005   7.066   7.109   1.930
    1STR    S0E77006   6.550   7.326   2.399
    1STR    S0M77007   6.918   6.466   2.014
    1STR    S0X77008   7.239   7.248   2.238
    1STR    S1477009   7.152   6.773   2.826
    1STR    S1B77010   6.354   6.560   2.951
    1HEX    C0177011   7.320   6.996   4.209
    1HEX    C0277012   7.185   6.943   4.159
    1HEX    C0377013   7.100   6.843   4.240
    1HEX    O0477014   7.124   6.724   4.223
    1HEX    O0577015   6.985   6.888   4.300
    1HEX    C0677016   6.885   6.791   4.340
    1HEX    C0777017   6.757   6.832   4.420
    1HEX    C0877018   6.751   6.985   4.451
    1HEX    O0977019   6.660   7.060   4.376
    1HEX    C0A77020   6.706   7.109   4.271
    1HEX    O0B77021   6.748   7.041   4.180
    1HEX    C0C77022   6.719   7.259   4.282
    1HEX    C0D77023   6.857   7.308   4.241
    1HEX    C0F77024   6.628   6.801   4.345
    1HEX    O0G77025   6.602   6.668   4.307
    1HEX    C0H77026   6.492   6.651   4.232
    1HEX    O0I77027   6.423   6.739   4.187
    1HEX    C0J77028   6.464   6.512   4.188
    1HEX    C0K77029   6.354   6.450   4.273
    1HEX    C0N77030   6.743   6.751   4.551
    1HEX    O0O77031   6.864   6.729   4.622
    1HEX    C0P77032   6.935   6.849   4.637
    1HEX    C0Q77033   7.001   6.868   4.767
    1HEX    C0R77034   7.123   6.780   4.779
    1HEX    O0S77035   7.136   6.677   4.686
    1HEX    C0T77036   7.245   6.603   4.693
    1HEX    O0U77037   7.309   6.579   4.794
    1HEX    C0V77038   7.285   6.544   4.562
    1HEX    C0W77039   7.250   6.631   4.445
    1HEX    C0Y77040   7.036   7.019   4.768
    1HEX    O0Z77041   7.073   7.046   4.899
    1HEX    C1077042   6.998   7.119   4.975
    1HEX    O1177043   6.907   7.194   4.944
    1HEX    C1277044   7.038   7.099   5.115
    1HEX    C1377045   7.074   7.228   5.183
    1HEX    C1577046   6.908   6.833   4.880
    1HEX    O1677047   6.799   6.919   4.883
    1HEX    C1777048   6.738   6.933   4.996
    1HEX    O1877049   6.782   6.905   5.107
    1HEX    C1977050   6.599   6.980   4.980
    1HEX    C1A77051   6.539   6.970   4.839
    1HEX    H1D77052   7.321   7.009   4.316
    1HEX    H1E77053   7.333   7.096   4.169
    1HEX    H1F77054   7.203   6.903   4.061
    1HEX    H1G77055   7.122   7.025   4.135
    1HEX    H1H77056   6.938   6.716   4.397
    1HEX    H1I77057   6.850   6.736   4.255
    1HEX    H1J77058   6.850   7.029   4.447
    1HEX    H1K77059   6.714   7.005   4.550
    1HEX    H1M77060   6.709   7.284   4.386
    1HEX    H1N77061   6.637   7.310   4.232
    1HEX    H1O77062   6.893   7.376   4.312
    1HEX    H1P77063   6.856   7.368   4.152
    1HEX    H1R77064   6.626   6.859   4.255
    1HEX    H1S77065   6.544   6.833   4.406
    1HEX    H1T77066   6.562   6.466   4.189
    1HEX    H1U77067   6.433   6.512   4.083
    1HEX    H1V77068   6.373   6.345   4.276
    1HEX    H1W77069   6.259   6.466   4.224
    1HEX    H1Y77070   6.701   6.654   4.531
    1HEX    H1Z77071   6.669   6.797   4.616
    1HEX    H2077072   6.864   6.928   4.645
    1HEX    H2177073   7.001   6.870   4.553
    1HEX    H2277074   7.142   6.746   4.880
    1HEX    H2377075   7.200   6.846   4.751
    1HEX    H2477076   7.234   6.450   4.554
    1HEX    H2577077   7.391   6.524   4.559
    1HEX    H2677078   7.156   6.684   4.456
    1HEX    H2777079   7.248   6.571   4.354
    1HEX    H2977080   6.955   7.086   4.737
    1HEX    H2A77081   7.118   7.045   4.702
    1HEX    H2B77082   7.118   7.028   5.115
    1HEX    H2C77083   6.961   7.046   5.170
    1HEX    H2D77084   7.122   7.203   5.276
    1HEX    H2E77085   6.979   7.271   5.208
    1HEX    H2G77086   6.964   6.832   4.973
    1HEX    H2H77087   6.865   6.736   4.864
    1HEX    H2I77088   6.601   7.083   5.016
    1HEX    H2J77089   6.544   6.917   5.050
    1HEX    H2K77090   6.457   6.900   4.831
    1HEX    H2M77091   6.611   6.941   4.764
    1STR    S0077092   7.463   6.896   4.153
    1STR    S0E77093   6.992   7.194   4.254
    1STR    S0M77094   6.340   6.510   4.446
    1STR    S0X77095   7.379   6.751   4.430
    1STR    S1477096   7.163   7.356   5.089
    1STR    S1B77097   6.477   7.128   4.783
    1HEX    C0177098   7.241   6.823   6.498
    1HEX    C0277099   7.261   6.695   6.416
    1HEX    C0377100   7.130   6.622   6.400
    1HEX    O0477101   7.101   6.565   6.295
    1HEX    O0577102   7.055   6.640   6.509
    1HEX    C0677103   6.919   6.608   6.502
    1HEX    C0777104   6.822   6.685   6.593
    1HEX    C0877105   6.806   6.839   6.571
    1HEX    O0977106   6.692   6.922   6.597
    1HEX    C0A77107   6.652   6.955   6.720
    1HEX    O0B77108   6.626   6.874   6.807
    1HEX    C0C77109   6.637   7.107   6.742
    1HEX    C0D77110   6.683   7.158   6.886
    1HEX    C0F77111   6.689   6.623   6.554
    1HEX    O0G77112   6.682   6.488   6.503
    1HEX    C0H77113   6.676   6.463   6.369
    1HEX    O0I77114   6.688   6.546   6.278
    1HEX    C0J77115   6.646   6.318   6.333
    1HEX    C0K77116   6.759   6.222   6.369
    1HEX    C0N77117   6.860   6.663   6.738
    1HEX    O0O77118   6.998   6.680   6.768
    1HEX    C0P77119   7.055   6.805   6.797
    1HEX    C0Q77120   7.019   6.868   6.931
    1HEX    C0R77121   7.148   6.911   7.001
    1HEX    O0S77122   7.139   6.961   7.131
    1HEX    C0T77123   7.244   6.943   7.207
    1HEX    O0U77124   7.314   6.844   7.204
    1HEX    C0V77125   7.271   7.055   7.301
    1HEX    C0W77126   7.267   7.192   7.235
    1HEX    C0Y77127   6.943   6.991   6.895
    1HEX    O0Z77128   6.912   7.063   7.010
    1HEX    C1077129   6.978   7.170   7.040
    1HEX    O1177130   7.066   7.219   6.969
    1HEX    C1277131   6.931   7.232   7.169
    1HEX    C1377132   6.897   7.140   7.285
    1HEX    C1577133   6.941   6.773   7.022
    1HEX    O1677134   6.801   6.788   7.011
    1HEX    C1777135   6.721   6.714   7.084
    1HEX    O1877136   6.749   6.608   7.138
    1HEX    C1977137   6.595   6.786   7.119
    1HEX    C1A77138   6.470   6.719   7.068
    1HEX    H1D77139   7.325   6.887   6.479
    1HEX    H1E77140   7.242   6.793   6.601
    1HEX    H1F77141   7.333   6.629   6.463
    1HEX    H1G77142   7.301   6.716   6.318
    1HEX    H1H77143   6.915   6.504   6.531
    1HEX    H1I77144   6.886   6.613   6.400
    1HEX    H1J77145   6.824   6.850   6.467
    1HEX    H1K77146   6.882   6.895   6.621
    1HEX    H1M77147   6.534   7.123   6.717
    1HEX    H1N77148   6.692   7.159   6.664
    1HEX    H1O77149   6.786   7.183   6.867
    1HEX    H1P77150   6.678   7.079   6.961
    1HEX    H1R77151   6.654   6.684   6.471
    1HEX    H1S77152   6.625   6.637   6.640
    1HEX    H1T77153   6.623   6.313   6.227
    1HEX    H1U77154   6.555   6.291   6.387
    1HEX    H1V77155   6.726   6.119   6.353
    1HEX    H1W77156   6.777   6.230   6.476
    1HEX    H1Y77157   6.841   6.561   6.761
    1HEX    H1Z77158   6.794   6.716   6.804
    1HEX    H2077159   7.048   6.875   6.718
    1HEX    H2177160   7.160   6.790   6.792
    1HEX    H2277161   7.187   6.997   6.950
    1HEX    H2377162   7.219   6.831   6.996
    1HEX    H2477163   7.362   7.039   7.357
    1HEX    H2577164   7.188   7.044   7.369
    1HEX    H2677165   7.220   7.263   7.302
    1HEX    H2777166   7.204   7.182   7.149
    1HEX    H2977167   6.853   6.958   6.848
    1HEX    H2A77168   6.994   7.053   6.822
    1HEX    H2B77169   6.848   7.299   7.148
    1HEX    H2C77170   7.006   7.296   7.212
    1HEX    H2D77171   6.831   7.199   7.346
    1HEX    H2E77172   6.987   7.126   7.344
    1HEX    H2G77173   6.962   6.799   7.124
    1HEX    H2H77174   6.976   6.672   7.009
    1HEX    H2I77175   6.602   6.887   7.080
    1HEX    H2J77176   6.592   6.792   7.227
    1HEX    H2K77177   6.473   6.708   6.961
    1HEX    H2M77178   6.386   6.781   7.096
    1STR    S0077179   7.090   6.922   6.472
    1STR    S0E77180   6.633   7.318   6.963
    1STR    S0M77181   6.913   6.245   6.269
    1STR    S0X77182   7.424   7.254   7.170
    1STR    S1477183   6.809   6.983   7.258
    1STR    S1B77184   6.437   6.565   7.152
   9.32000   9.32000   9.32000
