My System
29952
    1STR   BCK1    1   0.480   7.189   7.108
    1STR    O03    2   0.492   0.060   7.003
    1STR    N04    3   0.446   7.061   7.121
    1STR    C05    4   0.463   6.955   7.034
    1STR    C06    5   0.484   6.972   6.898
    1STR    C07    6   0.545   6.870   6.822
    1STR    N08    7   0.604   6.906   6.702
    1STR    C09    8   0.737   6.910   6.697
    1STR    O0A    9   0.812   6.817   6.727
    1STR    O0B   10   0.773   7.035   6.677
    1STR    C0C   11   0.854   7.096   6.776
    1STR    C0D   12   0.902   0.040   6.723
    1STR    C0E   13   0.771   7.113   6.904
    1STR    O0F   14   0.751   6.987   6.970
    1STR    C0G   15   0.803   6.980   7.100
    1STR    C0H   16   0.769   6.857   7.182
    1STR    C0I   17   0.950   6.980   7.084
    1STR    O0J   18   0.983   7.114   7.097
    1STR    C0K   19   0.984   7.164   0.040
    1STR    C0M   20   0.962   0.123   0.024
    1STR    C0N   21   0.921   7.100   0.167
    1STR    O0O   22   0.977   6.972   0.184
    1STR    C0P   23   0.987   6.910   0.301
    1STR    O0Q   24   0.920   6.936   0.400
    1STR    N0R   25   1.078   6.812   0.298
    1STR    C0S   26   1.161   6.795   0.189
    1STR    C0T   27   1.138   6.691   0.099
    1STR    C0U   28   1.175   6.707   7.155
    1STR    C0V   29   1.229   6.830   7.113
    1STR    C0W   30   1.231   6.864   6.967
    1STR    C0X   31   1.261   6.931   0.015
    1STR    N0Y   32   1.303   7.053   7.155
    1STR   BCK2   33   1.319   7.175   0.016
    1STR    O10   34   1.375   0.065   7.136
    1STR    C13   35   1.235   6.907   0.150
    1STR    C14   36   0.563   6.743   6.876
    1STR    C15   37   0.529   6.721   7.010
    1STR    C16   38   0.484   6.827   7.091
    1STR    C17   39   0.470   6.805   0.049
    1STR    H1B   40   0.410   7.031   0.022
    1STR    H1C   41   0.472   7.069   6.857
    1STR    H1D   42   0.561   6.986   6.659
    1STR    H1E   43   0.940   7.033   6.796
    1STR    H1F   44   0.818   0.106   6.702
    1STR    H1G   45   0.966   0.088   6.797
    1STR    H1H   46   0.959   0.026   6.632
    1STR    H1I   47   0.675   7.155   6.878
    1STR    H1J   48   0.814   7.190   6.969
    1STR    H1K   49   0.763   7.067   7.152
    1STR    H1M   50   0.741   6.773   7.121
    1STR    H1N   51   0.693   6.890   0.060
    1STR    H1O   52   0.845   6.823   0.059
    1STR    H1P   53   1.002   6.919   7.156
    1STR    H1Q   54   0.972   6.938   6.987
    1STR    H1R   55   1.084   7.138   0.054
    1STR    H1S   56   0.992   0.176   0.114
    1STR    H1T   57   0.857   0.143   0.001
    1STR    H1U   58   1.022   0.159   7.131
    1STR    H1V   59   0.813   7.094   0.167
    1STR    H1W   60   0.951   7.159   0.254
    1STR    H1X   61   1.087   6.757   0.382
    1STR    H1Y   62   1.080   6.606   0.128
    1STR    H1Z   63   1.149   6.632   7.083
    1STR    H20   64   1.170   6.951   6.946
    1STR    H21   65   1.331   6.895   6.945
    1STR    H22   66   1.197   6.781   6.905
    1STR    H23   67   1.331   7.049   7.060
    1STR    H27   68   1.247   6.984   0.223
    1STR    H28   69   0.610   6.666   6.818
    1STR    H29   70   0.548   6.624   7.052
    1STR    H2A   71   0.505   6.888   0.111
    1STR    H2B   72   0.518   6.713   0.081
    1STR    H2C   73   0.367   6.802   0.073
    1STR   BCK1   74   0.378   7.183   1.672
    1STR    O03   75   0.406   0.019   1.788
    1STR    N04   76   0.322   0.078   1.586
    1STR    C05   77   0.357   0.208   1.562
    1STR    C06   78   0.463   0.269   1.628
    1STR    C07   79   0.519   0.389   1.582
    1STR    N08   80   0.608   0.456   1.662
    1STR    C09   81   0.722   0.393   1.677
    1STR    O0A   82   0.811   0.393   1.593
    1STR    O0B   83   0.713   0.325   1.790
    1STR    C0C   84   0.785   0.205   1.806
    1STR    C0D   85   0.815   0.204   1.953
    1STR    C0E   86   0.701   0.080   1.773
    1STR    O0F   87   0.657   0.059   1.639
    1STR    C0G   88   0.744   7.179   1.552
    1STR    C0H   89   0.673   7.097   1.448
    1STR    C0I   90   0.836   0.090   1.487
    1STR    O0J   91   0.943   0.126   1.571
    1STR    C0K   92   1.033   0.028   1.617
    1STR    C0M   93   1.003   7.144   1.748
    1STR    C0N   94   1.094   7.133   1.506
    1STR    O0O   95   1.094   0.019   1.387
    1STR    C0P   96   1.203   0.051   1.323
    1STR    O0Q   97   1.246   7.180   1.226
    1STR    N0R   98   1.256   0.168   1.356
    1STR    C0S   99   1.251   0.230   1.478
    1STR    C0T  100   1.180   0.350   1.494
    1STR    C0U  101   1.177   0.413   1.618
    1STR    C0V  102   1.241   0.355   1.729
    1STR    C0W  103   1.235   0.422   1.863
    1STR    C0X  104   1.306   0.232   1.715
    1STR    N0Y  105   1.332   0.164   1.832
    1STR   BCK2  106   1.296   0.038   1.847
    1STR    O10  107   1.295   7.146   1.756
    1STR    C13  108   1.320   0.174   1.587
    1STR    C14  109   0.472   0.447   1.464
    1STR    C15  110   0.357   0.394   1.404
    1STR    C16  111   0.297   0.278   1.455
    1STR    C17  112   0.169   0.233   1.396
    1STR    H1B  113   0.261   0.034   1.518
    1STR    H1C  114   0.499   0.226   1.719
    1STR    H1D  115   0.567   0.466   1.754
    1STR    H1E  116   0.880   0.213   1.757
    1STR    H1F  117   0.723   0.210   2.010
    1STR    H1G  118   0.866   0.111   1.976
    1STR    H1H  119   0.880   0.288   1.976
    1STR    H1I  120   0.614   0.091   1.834
    1STR    H1J  121   0.744   7.179   1.813
    1STR    H1K  122   0.798   7.102   1.603
    1STR    H1M  123   0.595   7.151   1.400
    1STR    H1N  124   0.631   7.007   1.490
    1STR    H1O  125   0.742   7.065   1.369
    1STR    H1P  126   0.871   0.055   1.391
    1STR    H1Q  127   0.779   0.180   1.466
    1STR    H1R  128   1.109   0.094   1.652
    1STR    H1S  129   1.078   7.069   1.769
    1STR    H1T  130   0.914   7.085   1.756
    1STR    H1U  131   1.004   0.024   1.831
    1STR    H1V  132   1.028   7.049   1.491
    1STR    H1W  133   1.192   7.096   1.532
    1STR    H1X  134   1.295   0.215   1.277
    1STR    H1Y  135   1.129   0.395   1.411
    1STR    H1Z  136   1.123   0.505   1.627
    1STR    H20  137   1.173   0.364   1.931
    1STR    H21  138   1.337   0.427   1.903
    1STR    H22  139   1.195   0.523   1.856
    1STR    H23  140   1.335   0.219   1.918
    1STR    H27  141   1.372   0.081   1.574
    1STR    H28  142   0.517   0.537   1.427
    1STR    H29  143   0.313   0.443   1.319
    1STR    H2A  144   0.116   0.180   1.473
    1STR    H2B  145   0.184   0.168   1.310
    1STR    H2C  146   0.107   0.317   1.367
    1STR   BCK1  147   0.442   0.023   3.537
    1STR    O03  148   0.389   0.114   3.476
    1STR    N04  149   0.434   0.021   3.670
    1STR    C05  150   0.474   7.124   3.770
    1STR    C06  151   0.527   6.997   3.746
    1STR    C07  152   0.570   6.913   3.849
    1STR    N08  153   0.617   6.788   3.816
    1STR    C09  154   0.736   6.785   3.760
    1STR    O0A  155   0.840   6.814   3.817
    1STR    O0B  156   0.719   6.764   3.628
    1STR    C0C  157   0.819   6.804   3.537
    1STR    C0D  158   0.801   6.715   3.416
    1STR    C0E  159   0.813   6.951   3.498
    1STR    O0F  160   0.801   7.019   3.619
    1STR    C0G  161   0.783   7.159   3.624
    1STR    C0H  162   0.778   7.182   3.773
    1STR    C0I  163   0.886   0.051   3.547
    1STR    O0J  164   0.902   0.170   3.620
    1STR    C0K  165   1.032   0.222   3.620
    1STR    C0M  166   1.043   0.311   3.498
    1STR    C0N  167   1.058   0.292   3.754
    1STR    O0O  168   1.017   0.210   3.863
    1STR    C0P  169   1.088   0.102   3.885
    1STR    O0Q  170   1.203   0.096   3.849
    1STR    N0R  171   1.023   0.003   3.948
    1STR    C0S  172   1.056   7.063   3.915
    1STR    C0T  173   1.106   6.975   4.010
    1STR    C0U  174   1.182   6.866   3.967
    1STR    C0V  175   1.207   6.844   3.830
    1STR    C0W  176   1.327   6.763   3.788
    1STR    C0X  177   1.135   6.918   3.736
    1STR    N0Y  178   1.161   6.902   3.601
    1STR   BCK2  179   1.222   6.993   3.526
    1STR    O10  180   1.268   6.967   3.417
    1STR    C13  181   1.058   7.025   3.781
    1STR    C14  182   0.571   6.959   3.981
    1STR    C15  183   0.523   7.087   4.008
    1STR    C16  184   0.470   7.166   3.905
    1STR    C17  185   0.419   0.112   3.944
    1STR    H1B  186   0.379   0.097   3.704
    1STR    H1C  187   0.538   6.960   3.647
    1STR    H1D  188   0.550   6.731   3.767
    1STR    H1E  189   0.915   6.792   3.586
    1STR    H1F  190   0.696   6.708   3.390
    1STR    H1G  191   0.848   6.754   3.327
    1STR    H1H  192   0.836   6.614   3.435
    1STR    H1I  193   0.730   6.965   3.430
    1STR    H1J  194   0.903   6.981   3.445
    1STR    H1K  195   0.689   0.006   3.591
    1STR    H1M  196   0.789   7.090   3.831
    1STR    H1N  197   0.689   0.041   3.803
    1STR    H1O  198   0.852   0.060   3.804
    1STR    H1P  199   0.978   7.184   3.532
    1STR    H1Q  200   0.848   0.074   3.447
    1STR    H1R  201   1.104   0.143   3.612
    1STR    H1S  202   1.047   0.249   3.408
    1STR    H1T  203   1.131   0.372   3.507
    1STR    H1U  204   0.958   0.376   3.488
    1STR    H1V  205   1.008   0.386   3.760
    1STR    H1W  206   1.164   0.316   3.760
    1STR    H1X  207   0.927   0.018   3.976
    1STR    H1Y  208   1.102   7.000   4.115
    1STR    H1Z  209   1.234   6.812   4.043
    1STR    H20  210   1.353   6.773   3.683
    1STR    H21  211   1.412   6.801   3.843
    1STR    H22  212   1.318   6.658   3.807
    1STR    H23  213   1.154   6.811   3.562
    1STR    H27  214   1.013   7.089   3.709
    1STR    H28  215   0.610   6.897   4.060
    1STR    H29  216   0.523   7.125   4.109
    1STR    H2A  217   0.367   0.163   3.864
    1STR    H2B  218   0.503   0.168   3.980
    1STR    H2C  219   0.352   0.105   4.027
    1STR   BCK1  220   0.508   7.156   5.468
    1STR    O03  221   0.580   0.059   5.436
    1STR    N04  222   0.424   7.092   5.386
    1STR    C05  223   0.413   7.100   5.248
    1STR    C06  224   0.444   0.026   5.178
    1STR    C07  225   0.463   0.018   5.039
    1STR    N08  226   0.543   0.115   4.985
    1STR    C09  227   0.659   0.090   4.929
    1STR    O0A  228   0.685   0.001   4.848
    1STR    O0B  229   0.744   0.169   4.990
    1STR    C0C  230   0.827   0.119   5.094
    1STR    C0D  231   0.866   0.239   5.180
    1STR    C0E  232   0.762   0.018   5.188
    1STR    O0F  233   0.717   7.092   5.118
    1STR    C0G  234   0.736   6.970   5.186
    1STR    C0H  235   0.677   6.857   5.102
    1STR    C0I  236   0.885   6.953   5.191
    1STR    O0J  237   0.939   6.998   5.314
    1STR    C0K  238   0.930   6.919   5.431
    1STR    C0M  239   0.850   7.005   5.526
    1STR    C0N  240   0.883   6.772   5.419
    1STR    O0O  241   0.953   6.698   5.318
    1STR    C0P  242   1.085   6.701   5.321
    1STR    O0Q  243   1.149   6.701   5.426
    1STR    N0R  244   1.131   6.734   5.200
    1STR    C0S  245   1.170   6.865   5.170
    1STR    C0T  246   1.158   6.914   5.039
    1STR    C0U  247   1.174   7.052   5.013
    1STR    C0V  248   1.195   7.141   5.119
    1STR    C0W  249   1.207   0.098   5.094
    1STR    C0X  250   1.208   7.093   5.250
    1STR    N0Y  251   1.199   7.177   5.357
    1STR   BCK2  252   1.281   7.164   5.459
    1STR    O10  253   1.399   0.006   5.455
    1STR    C13  254   1.204   6.955   5.273
    1STR    C14  255   0.421   7.097   4.966
    1STR    C15  256   0.371   6.987   5.035
    1STR    C16  257   0.374   6.986   5.175
    1STR    C17  258   0.350   6.856   5.243
    1STR    H1B  259   0.358   7.026   5.427
    1STR    H1C  260   0.472   0.114   5.233
    1STR    H1D  261   0.555   0.197   5.041
    1STR    H1E  262   0.912   0.072   5.046
    1STR    H1F  263   0.788   0.263   5.252
    1STR    H1G  264   0.957   0.219   5.235
    1STR    H1H  265   0.878   0.328   5.119
    1STR    H1I  266   0.678   0.066   5.232
    1STR    H1J  267   0.827   7.188   5.272
    1STR    H1K  268   0.690   6.972   5.284
    1STR    H1M  269   0.688   6.879   4.996
    1STR    H1N  270   0.573   6.844   5.124
    1STR    H1O  271   0.724   6.762   5.124
    1STR    H1P  272   0.913   6.853   5.163
    1STR    H1Q  273   0.928   7.013   5.112
    1STR    H1R  274   1.030   6.918   5.473
    1STR    H1S  275   0.850   6.964   5.627
    1STR    H1T  276   0.748   7.014   5.492
    1STR    H1U  277   0.892   7.105   5.530
    1STR    H1V  278   0.777   6.768   5.397
    1STR    H1W  279   0.900   6.723   5.515
    1STR    H1X  280   1.090   6.682   5.126
    1STR    H1Y  281   1.135   6.848   4.957
    1STR    H1Z  282   1.166   7.089   4.913
    1STR    H20  283   1.110   0.136   5.069
    1STR    H21  284   1.242   0.151   5.183
    1STR    H22  285   1.278   0.115   5.014
    1STR    H23  286   1.103   7.186   5.384
    1STR    H27  287   1.216   6.921   5.374
    1STR    H28  288   0.436   7.093   4.859
    1STR    H29  289   0.342   6.898   4.983
    1STR    H2A  290   0.416   6.841   5.327
    1STR    H2B  291   0.367   6.775   5.174
    1STR    H2C  292   0.246   6.857   5.272
    1STR   BCK1  293   0.391   1.599   7.067
    1STR    O03  294   0.443   1.593   7.177
    1STR    N04  295   0.368   1.710   6.998
    1STR    C05  296   0.396   1.841   7.034
    1STR    C06  297   0.435   1.882   7.163
    1STR    C07  298   0.499   2.006   7.182
    1STR    N08  299   0.586   2.023   0.098
    1STR    C09  300   0.561   1.980   0.220
    1STR    O0A  301   0.471   2.027   0.286
    1STR    O0B  302   0.642   1.882   0.268
    1STR    C0C  303   0.754   1.826   0.200
    1STR    C0D  304   0.818   1.727   0.295
    1STR    C0E  305   0.719   1.755   0.068
    1STR    O0F  306   0.703   1.845   7.149
    1STR    C0G  307   0.808   1.874   7.062
    1STR    C0H  308   0.778   1.986   6.964
    1STR    C0I  309   0.935   1.897   7.136
    1STR    O0J  310   0.986   1.773   7.177
    1STR    C0K  311   1.033   1.675   7.082
    1STR    C0M  312   0.999   1.541   7.141
    1STR    C0N  313   1.021   1.687   6.930
    1STR    O0O  314   1.054   1.819   6.907
    1STR    C0P  315   1.115   1.865   6.805
    1STR    O0Q  316   1.106   1.820   6.693
    1STR    N0R  317   1.184   1.974   6.839
    1STR    C0S  318   1.207   2.009   6.972
    1STR    C0T  319   1.164   2.134   7.017
    1STR    C0U  320   1.155   2.157   7.155
    1STR    C0V  321   1.196   2.060   0.058
    1STR    C0W  322   1.179   2.084   0.206
    1STR    C0X  323   1.247   1.937   0.015
    1STR    N0Y  324   1.264   1.842   0.114
    1STR   BCK2  325   1.286   1.710   0.107
    1STR    O10  326   1.324   1.652   0.007
    1STR    C13  327   1.255   1.914   7.066
    1STR    C14  328   0.516   2.089   7.071
    1STR    C15  329   0.454   2.059   6.950
    1STR    C16  330   0.389   1.937   6.933
    1STR    C17  331   0.313   1.915   6.806
    1STR    H1B  332   0.322   1.700   6.909
    1STR    H1C  333   0.432   1.813   0.056
    1STR    H1D  334   0.673   1.986   0.061
    1STR    H1E  335   0.826   1.906   0.188
    1STR    H1F  336   0.751   1.643   0.315
    1STR    H1G  337   0.909   1.686   0.251
    1STR    H1H  338   0.844   1.775   0.389
    1STR    H1I  339   0.625   1.704   0.084
    1STR    H1J  340   0.787   1.675   0.043
    1STR    H1K  341   0.816   1.786   7.003
    1STR    H1M  342   0.767   2.082   7.014
    1STR    H1N  343   0.688   1.964   6.906
    1STR    H1O  344   0.858   1.996   6.891
    1STR    H1P  345   1.000   1.952   7.073
    1STR    H1Q  346   0.923   1.967   0.027
    1STR    H1R  347   1.138   1.684   7.090
    1STR    H1S  348   1.057   1.463   7.094
    1STR    H1T  349   0.893   1.518   7.128
    1STR    H1U  350   1.021   1.540   0.057
    1STR    H1V  351   0.925   1.666   6.886
    1STR    H1W  352   1.088   1.621   6.880
    1STR    H1X  353   1.184   2.039   6.763
    1STR    H1Y  354   1.124   2.207   6.949
    1STR    H1Z  355   1.110   2.248   7.189
    1STR    H20  356   1.105   2.016   0.248
    1STR    H21  357   1.274   2.067   0.257
    1STR    H22  358   1.147   2.185   0.229
    1STR    H23  359   1.238   1.873   0.206
    1STR    H27  360   1.286   1.817   7.033
    1STR    H28  361   0.571   2.181   7.080
    1STR    H29  362   0.455   2.129   6.868
    1STR    H2A  363   0.379   1.902   6.722
    1STR    H2B  364   0.253   2.004   6.787
    1STR    H2C  365   0.242   1.833   6.815
    1STR   BCK1  366   0.349   1.855   1.630
    1STR    O03  367   0.253   1.923   1.599
    1STR    N04  368   0.356   1.728   1.591
    1STR    C05  369   0.427   1.616   1.632
    1STR    C06  370   0.498   1.607   1.751
    1STR    C07  371   0.574   1.493   1.778
    1STR    N08  372   0.706   1.516   1.811
    1STR    C09  373   0.792   1.460   1.726
    1STR    O0A  374   0.822   1.342   1.739
    1STR    O0B  375   0.795   1.522   1.608
    1STR    C0C  376   0.839   1.655   1.587
    1STR    C0D  377   0.862   1.657   1.436
    1STR    C0E  378   0.742   1.771   1.623
    1STR    O0F  379   0.705   1.789   1.760
    1STR    C0G  380   0.788   1.867   1.842
    1STR    C0H  381   0.736   1.977   1.931
    1STR    C0I  382   0.844   1.762   1.931
    1STR    O0J  383   0.949   1.706   1.859
    1STR    C0K  384   1.058   1.794   1.848
    1STR    C0M  385   1.080   1.867   1.713
    1STR    C0N  386   1.096   1.866   1.979
    1STR    O0O  387   1.136   1.762   2.068
    1STR    C0P  388   1.058   1.690   2.145
    1STR    O0Q  389   0.990   1.740   2.235
    1STR    N0R  390   1.060   1.558   2.120
    1STR    C0S  391   1.108   1.494   2.008
    1STR    C0T  392   1.040   1.399   1.930
    1STR    C0U  393   1.095   1.363   1.806
    1STR    C0V  394   1.202   1.436   1.753
    1STR    C0W  395   1.236   1.427   1.608
    1STR    C0X  396   1.272   1.524   1.837
    1STR    N0Y  397   1.348   1.626   1.784
    1STR   BCK2  398   1.373   1.745   1.840
    1STR    O10  399   1.353   1.847   1.778
    1STR    C13  400   1.235   1.526   1.971
    1STR    C14  401   0.541   1.371   1.718
    1STR    C15  402   0.474   1.378   1.597
    1STR    C16  403   0.426   1.501   1.551
    1STR    C17  404   0.371   1.506   1.416
    1STR    H1B  405   0.291   1.710   1.516
    1STR    H1C  406   0.510   1.694   1.808
    1STR    H1D  407   0.724   1.616   1.806
    1STR    H1E  408   0.935   1.666   1.635
    1STR    H1F  409   0.768   1.642   1.383
    1STR    H1G  410   0.905   1.751   1.403
    1STR    H1H  411   0.929   1.577   1.407
    1STR    H1I  412   0.650   1.754   1.568
    1STR    H1J  413   0.779   1.865   1.583
    1STR    H1K  414   0.856   1.925   1.783
    1STR    H1M  415   0.697   1.945   2.027
    1STR    H1N  416   0.666   2.038   1.879
    1STR    H1O  417   0.821   2.039   1.960
    1STR    H1P  418   0.869   1.800   2.029
    1STR    H1Q  419   0.771   1.688   1.956
    1STR    H1R  420   1.131   1.718   1.838
    1STR    H1S  421   1.132   1.961   1.728
    1STR    H1T  422   0.994   1.885   1.651
    1STR    H1U  423   1.143   1.804   1.649
    1STR    H1V  424   1.023   1.933   2.021
    1STR    H1W  425   1.182   1.929   1.961
    1STR    H1X  426   1.032   1.489   2.191
    1STR    H1Y  427   0.947   1.357   1.963
    1STR    H1Z  428   1.046   1.289   1.745
    1STR    H20  429   1.208   1.520   1.558
    1STR    H21  430   1.343   1.411   1.599
    1STR    H22  431   1.181   1.345   1.562
    1STR    H23  432   1.357   1.627   1.683
    1STR    H27  433   1.286   1.573   2.051
    1STR    H28  434   0.591   1.279   1.744
    1STR    H29  435   0.465   1.288   1.539
    1STR    H2A  436   0.333   1.406   1.401
    1STR    H2B  437   0.450   1.530   1.345
    1STR    H2C  438   0.292   1.579   1.409
    1STR   BCK1  439   0.425   1.791   3.567
    1STR    O03  440   0.474   1.820   3.675
    1STR    N04  441   0.375   1.876   3.477
    1STR    C05  442   0.398   2.011   3.462
    1STR    C06  443   0.501   2.076   3.529
    1STR    C07  444   0.553   2.195   3.476
    1STR    N08  445   0.681   2.225   3.511
    1STR    C09  446   0.769   2.145   3.453
    1STR    O0A  447   0.757   2.102   3.339
    1STR    O0B  448   0.846   2.095   3.546
    1STR    C0C  449   0.889   1.962   3.528
    1STR    C0D  450   1.000   1.944   3.627
    1STR    C0E  451   0.775   1.863   3.553
    1STR    O0F  452   0.696   1.840   3.437
    1STR    C0G  453   0.724   1.720   3.367
    1STR    C0H  454   0.628   1.710   3.250
    1STR    C0I  455   0.866   1.720   3.313
    1STR    O0J  456   0.961   1.695   3.416
    1STR    C0K  457   0.984   1.563   3.463
    1STR    C0M  458   0.939   1.550   3.608
    1STR    C0N  459   0.935   1.445   3.378
    1STR    O0O  460   0.972   1.451   3.241
    1STR    C0P  461   1.099   1.464   3.213
    1STR    O0Q  462   1.187   1.399   3.269
    1STR    N0R  463   1.115   1.570   3.133
    1STR    C0S  464   1.162   1.692   3.179
    1STR    C0T  465   1.124   1.809   3.112
    1STR    C0U  466   1.148   1.934   3.169
    1STR    C0V  467   1.206   1.945   3.297
    1STR    C0W  468   1.220   2.081   3.358
    1STR    C0X  469   1.245   1.829   3.366
    1STR    N0Y  470   1.281   1.840   3.499
    1STR   BCK2  471   1.286   1.744   3.590
    1STR    O10  472   1.303   1.625   3.566
    1STR    C13  473   1.227   1.705   3.302
    1STR    C14  474   0.497   2.254   3.364
    1STR    C15  475   0.381   2.200   3.309
    1STR    C16  476   0.331   2.080   3.361
    1STR    C17  477   0.207   2.030   3.300
    1STR    H1B  478   0.324   1.831   3.404
    1STR    H1C  479   0.556   2.026   3.607
    1STR    H1D  480   0.706   2.258   3.603
    1STR    H1E  481   0.931   1.951   3.428
    1STR    H1F  482   0.965   1.957   3.729
    1STR    H1G  483   1.037   1.843   3.613
    1STR    H1H  484   1.079   2.014   3.605
    1STR    H1I  485   0.713   1.900   3.633
    1STR    H1J  486   0.813   1.769   3.591
    1STR    H1K  487   0.708   1.634   3.432
    1STR    H1M  488   0.643   1.795   3.182
    1STR    H1N  489   0.525   1.711   3.284
    1STR    H1O  490   0.645   1.618   3.194
    1STR    H1P  491   0.875   1.654   3.228
    1STR    H1Q  492   0.886   1.817   3.270
    1STR    H1R  493   1.092   1.555   3.468
    1STR    H1S  494   0.977   1.458   3.652
    1STR    H1T  495   0.831   1.551   3.617
    1STR    H1U  496   0.980   1.633   3.666
    1STR    H1V  497   0.827   1.435   3.384
    1STR    H1W  498   0.982   1.360   3.424
    1STR    H1X  499   1.041   1.582   3.065
    1STR    H1Y  500   1.073   1.805   3.017
    1STR    H1Z  501   1.117   2.022   3.116
    1STR    H20  502   1.121   2.123   3.379
    1STR    H21  503   1.281   2.083   3.447
    1STR    H22  504   1.270   2.141   3.283
    1STR    H23  505   1.279   1.934   3.532
    1STR    H27  506   1.258   1.615   3.351
    1STR    H28  507   0.546   2.337   3.317
    1STR    H29  508   0.333   2.246   3.225
    1STR    H2A  509   0.176   1.935   3.343
    1STR    H2B  510   0.224   2.021   3.194
    1STR    H2C  511   0.129   2.104   3.316
    1STR   BCK1  512   0.509   1.818   5.224
    1STR    O03  513   0.545   1.871   5.121
    1STR    N04  514   0.468   1.901   5.320
    1STR    C05  515   0.462   1.896   5.458
    1STR    C06  516   0.519   1.792   5.528
    1STR    C07  517   0.534   1.791   5.666
    1STR    N08  518   0.593   1.680   5.723
    1STR    C09  519   0.567   1.556   5.681
    1STR    O0A  520   0.452   1.519   5.658
    1STR    O0B  521   0.672   1.479   5.651
    1STR    C0C  522   0.803   1.528   5.623
    1STR    C0D  523   0.892   1.406   5.609
    1STR    C0E  524   0.810   1.616   5.499
    1STR    O0F  525   0.798   1.750   5.544
    1STR    C0G  526   0.814   1.849   5.446
    1STR    C0H  527   0.765   1.981   5.504
    1STR    C0I  528   0.963   1.854   5.416
    1STR    O0J  529   0.989   1.759   5.317
    1STR    C0K  530   0.991   1.803   5.183
    1STR    C0M  531   1.004   1.669   5.112
    1STR    C0N  532   0.870   1.885   5.130
    1STR    O0O  533   0.845   2.006   5.202
    1STR    C0P  534   0.935   2.101   5.196
    1STR    O0Q  535   1.023   2.103   5.110
    1STR    N0R  536   0.927   2.178   5.306
    1STR    C0S  537   1.039   2.224   5.376
    1STR    C0T  538   1.048   2.212   5.517
    1STR    C0U  539   1.174   2.192   5.577
    1STR    C0V  540   1.283   2.162   5.494
    1STR    C0W  541   1.417   2.116   5.542
    1STR    C0X  542   1.260   2.159   5.357
    1STR    N0Y  543   1.277   2.043   5.285
    1STR   BCK2  544   1.289   1.915   5.318
    1STR    O10  545   1.312   1.837   5.229
    1STR    C13  546   1.159   2.239   5.306
    1STR    C14  547   0.503   1.908   5.736
    1STR    C15  548   0.442   2.015   5.668
    1STR    C16  549   0.419   2.009   5.529
    1STR    C17  550   0.351   2.123   5.458
    1STR    H1B  551   0.453   1.993   5.283
    1STR    H1C  552   0.566   1.714   5.474
    1STR    H1D  553   0.668   1.689   5.794
    1STR    H1E  554   0.840   1.587   5.706
    1STR    H1F  555   0.852   1.336   5.536
    1STR    H1G  556   0.992   1.434   5.579
    1STR    H1H  557   0.897   1.355   5.705
    1STR    H1I  558   0.737   1.591   5.423
    1STR    H1J  559   0.907   1.600   5.452
    1STR    H1K  560   0.755   1.825   5.358
    1STR    H1M  561   0.720   1.966   5.602
    1STR    H1N  562   0.692   2.026   5.438
    1STR    H1O  563   0.845   2.050   5.519
    1STR    H1P  564   1.002   1.951   5.391
    1STR    H1Q  565   1.012   1.827   5.509
    1STR    H1R  566   1.081   1.861   5.166
    1STR    H1S  567   1.025   1.682   5.006
    1STR    H1T  568   0.912   1.611   5.122
    1STR    H1U  569   1.084   1.611   5.156
    1STR    H1V  570   0.781   1.823   5.132
    1STR    H1W  571   0.888   1.910   5.026
    1STR    H1X  572   0.843   2.159   5.357
    1STR    H1Y  573   0.961   2.208   5.580
    1STR    H1Z  574   1.182   2.183   5.684
    1STR    H20  575   1.402   2.040   5.617
    1STR    H21  576   1.476   2.071   5.464
    1STR    H22  577   1.472   2.201   5.581
    1STR    H23  578   1.256   2.051   5.186
    1STR    H27  579   1.156   2.257   5.200
    1STR    H28  580   0.522   1.913   5.842
    1STR    H29  581   0.412   2.102   5.725
    1STR    H2A  582   0.411   2.161   5.376
    1STR    H2B  583   0.330   2.204   5.528
    1STR    H2C  584   0.255   2.088   5.419
    1STR   BCK1  585   0.584   3.623   0.040
    1STR    O03  586   0.683   3.673   7.178
    1STR    N04  587   0.488   3.557   7.165
    1STR    C05  588   0.486   3.533   7.031
    1STR    C06  589   0.527   3.631   6.940
    1STR    C07  590   0.548   3.596   6.806
    1STR    N08  591   0.619   3.683   6.726
    1STR    C09  592   0.711   3.629   6.646
    1STR    O0A  593   0.692   3.610   6.526
    1STR    O0B  594   0.812   3.581   6.717
    1STR    C0C  595   0.821   3.441   6.737
    1STR    C0D  596   0.951   3.397   6.674
    1STR    C0E  597   0.806   3.415   6.887
    1STR    O0F  598   0.802   3.278   6.924
    1STR    C0G  599   0.759   3.258   7.059
    1STR    C0H  600   0.712   3.115   7.071
    1STR    C0I  601   0.871   3.287   7.156
    1STR    O0J  602   0.835   3.286   0.102
    1STR    C0K  603   0.940   3.342   0.180
    1STR    C0M  604   0.877   3.443   0.271
    1STR    C0N  605   1.021   3.234   0.250
    1STR    O0O  606   1.088   3.162   0.149
    1STR    C0P  607   1.219   3.143   0.160
    1STR    O0Q  608   1.277   3.119   0.265
    1STR    N0R  609   1.283   3.157   0.044
    1STR    C0S  610   1.241   3.265   7.161
    1STR    C0T  611   1.170   3.256   7.042
    1STR    C0U  612   1.113   3.372   6.989
    1STR    C0V  613   1.128   3.498   7.052
    1STR    C0W  614   1.060   3.622   6.998
    1STR    C0X  615   1.203   3.507   7.169
    1STR    N0Y  616   1.225   3.628   0.039
    1STR   BCK2  617   1.266   3.653   0.163
    1STR    O10  618   1.323   3.758   0.186
    1STR    C13  619   1.260   3.390   0.029
    1STR    C14  620   0.517   3.466   6.763
    1STR    C15  621   0.473   3.369   6.853
    1STR    C16  622   0.456   3.402   6.987
    1STR    C17  623   0.418   3.292   7.079
    1STR    H1B  624   0.415   3.509   0.026
    1STR    H1C  625   0.553   3.729   6.976
    1STR    H1D  626   0.655   3.762   6.776
    1STR    H1E  627   0.742   3.387   6.684
    1STR    H1F  628   1.033   3.459   6.708
    1STR    H1G  629   0.970   3.292   6.697
    1STR    H1H  630   0.945   3.409   6.566
    1STR    H1I  631   0.718   3.463   6.925
    1STR    H1J  632   0.881   3.468   6.941
    1STR    H1K  633   0.678   3.326   7.085
    1STR    H1M  634   0.793   3.046   7.050
    1STR    H1N  635   0.633   3.096   6.999
    1STR    H1O  636   0.674   3.096   7.171
    1STR    H1P  637   0.950   3.215   7.140
    1STR    H1Q  638   0.906   3.388   7.133
    1STR    H1R  639   1.011   3.400   0.121
    1STR    H1S  640   0.953   3.494   0.330
    1STR    H1T  641   0.804   3.396   0.337
    1STR    H1U  642   0.827   3.519   0.211
    1STR    H1V  643   0.959   3.167   0.309
    1STR    H1W  644   1.094   3.282   0.317
    1STR    H1X  645   1.384   3.150   0.052
    1STR    H1Y  646   1.151   3.161   6.994
    1STR    H1Z  647   1.056   3.361   6.900
    1STR    H20  648   0.970   3.642   7.055
    1STR    H21  649   1.122   3.709   7.006
    1STR    H22  650   1.034   3.612   6.892
    1STR    H23  651   1.218   3.710   7.170
    1STR    H27  652   1.317   3.392   0.117
    1STR    H28  653   0.534   3.436   6.661
    1STR    H29  654   0.457   3.268   6.821
    1STR    H2A  655   0.475   3.295   7.171
    1STR    H2B  656   0.439   3.196   7.033
    1STR    H2C  657   0.312   3.299   7.097
    1STR   BCK1  658   0.349   3.637   1.728
    1STR    O03  659   0.359   3.648   1.850
    1STR    N04  660   0.309   3.736   1.647
    1STR    C05  661   0.376   3.857   1.639
    1STR    C06  662   0.484   3.882   1.723
    1STR    C07  663   0.579   3.981   1.700
    1STR    N08  664   0.692   3.981   1.779
    1STR    C09  665   0.682   3.955   1.910
    1STR    O0A  666   0.588   3.992   1.980
    1STR    O0B  667   0.776   3.874   1.957
    1STR    C0C  668   0.825   3.758   1.889
    1STR    C0D  669   0.886   3.682   2.005
    1STR    C0E  670   0.721   3.665   1.825
    1STR    O0F  671   0.678   3.713   1.700
    1STR    C0G  672   0.708   3.646   1.581
    1STR    C0H  673   0.638   3.720   1.468
    1STR    C0I  674   0.854   3.661   1.559
    1STR    O0J  675   0.929   3.579   1.646
    1STR    C0K  676   0.958   3.447   1.602
    1STR    C0M  677   0.861   3.345   1.658
    1STR    C0N  678   0.996   3.432   1.454
    1STR    O0O  679   1.064   3.545   1.400
    1STR    C0P  680   1.152   3.607   1.474
    1STR    O0Q  681   1.234   3.550   1.544
    1STR    N0R  682   1.126   3.737   1.473
    1STR    C0S  683   1.142   3.823   1.579
    1STR    C0T  684   1.113   3.960   1.562
    1STR    C0U  685   1.133   4.049   1.667
    1STR    C0V  686   1.178   4.003   1.792
    1STR    C0W  687   1.213   4.099   1.901
    1STR    C0X  688   1.194   3.865   1.814
    1STR    N0Y  689   1.234   3.822   1.939
    1STR   BCK2  690   1.219   3.699   1.989
    1STR    O10  691   1.160   3.606   1.938
    1STR    C13  692   1.176   3.778   1.707
    1STR    C14  693   0.561   4.068   1.591
    1STR    C15  694   0.443   4.057   1.516
    1STR    C16  695   0.352   3.952   1.538
    1STR    C17  696   0.222   3.952   1.463
    1STR    H1B  697   0.240   3.714   1.577
    1STR    H1C  698   0.501   3.818   1.808
    1STR    H1D  699   0.779   3.964   1.733
    1STR    H1E  700   0.902   3.786   1.817
    1STR    H1F  701   0.812   3.662   2.083
    1STR    H1G  702   0.926   3.587   1.971
    1STR    H1H  703   0.966   3.741   2.050
    1STR    H1I  704   0.635   3.659   1.890
    1STR    H1J  705   0.760   3.564   1.814
    1STR    H1K  706   0.675   3.543   1.583
    1STR    H1M  707   0.678   3.821   1.456
    1STR    H1N  708   0.534   3.732   1.491
    1STR    H1O  709   0.649   3.667   1.374
    1STR    H1P  710   0.872   3.647   1.453
    1STR    H1Q  711   0.881   3.764   1.579
    1STR    H1R  712   1.048   3.426   1.655
    1STR    H1S  713   0.898   3.245   1.641
    1STR    H1T  714   0.764   3.352   1.610
    1STR    H1U  715   0.850   3.359   1.765
    1STR    H1V  716   0.905   3.420   1.396
    1STR    H1W  717   1.053   3.341   1.440
    1STR    H1X  718   1.072   3.766   1.393
    1STR    H1Y  719   1.078   3.996   1.467
    1STR    H1Z  720   1.117   4.154   1.652
    1STR    H20  721   1.151   4.082   1.988
    1STR    H21  722   1.318   4.086   1.928
    1STR    H22  723   1.200   4.202   1.868
    1STR    H23  724   1.277   3.893   1.996
    1STR    H27  725   1.190   3.674   1.724
    1STR    H28  726   0.630   4.148   1.573
    1STR    H29  727   0.423   4.137   1.447
    1STR    H2A  728   0.149   3.900   1.523
    1STR    H2B  729   0.233   3.905   1.367
    1STR    H2C  730   0.187   4.054   1.451
    1STR   BCK1  731   0.466   3.218   3.369
    1STR    O03  732   0.409   3.195   3.264
    1STR    N04  733   0.430   3.150   3.478
    1STR    C05  734   0.461   3.152   3.613
    1STR    C06  735   0.543   3.249   3.669
    1STR    C07  736   0.571   3.251   3.806
    1STR    N08  737   0.670   3.333   3.852
    1STR    C09  738   0.790   3.287   3.825
    1STR    O0A  739   0.865   3.243   3.911
    1STR    O0B  740   0.810   3.279   3.694
    1STR    C0C  741   0.890   3.371   3.627
    1STR    C0D  742   0.921   3.307   3.493
    1STR    C0E  743   0.834   3.513   3.608
    1STR    O0F  744   0.724   3.542   3.693
    1STR    C0G  745   0.726   3.671   3.752
    1STR    C0H  746   0.594   3.738   3.726
    1STR    C0I  747   0.748   3.652   3.902
    1STR    O0J  748   0.844   3.552   3.923
    1STR    C0K  749   0.981   3.584   3.924
    1STR    C0M  750   1.020   3.719   3.868
    1STR    C0N  751   1.034   3.563   4.066
    1STR    O0O  752   1.043   3.424   4.087
    1STR    C0P  753   1.149   3.361   4.039
    1STR    O0Q  754   1.256   3.414   4.011
    1STR    N0R  755   1.116   3.238   4.004
    1STR    C0S  756   1.163   3.176   3.890
    1STR    C0T  757   1.169   3.037   3.880
    1STR    C0U  758   1.197   2.978   3.756
    1STR    C0V  759   1.220   3.057   3.643
    1STR    C0W  760   1.242   2.992   3.509
    1STR    C0X  761   1.217   3.197   3.653
    1STR    N0Y  762   1.238   3.269   3.537
    1STR   BCK2  763   1.222   3.395   3.500
    1STR    O10  764   1.211   3.412   3.381
    1STR    C13  765   1.183   3.253   3.775
    1STR    C14  766   0.514   3.157   3.892
    1STR    C15  767   0.431   3.059   3.838
    1STR    C16  768   0.407   3.055   3.700
    1STR    C17  769   0.325   2.939   3.651
    1STR    H1B  770   0.359   3.084   3.453
    1STR    H1C  771   0.591   3.323   3.610
    1STR    H1D  772   0.664   3.424   3.807
    1STR    H1E  773   0.979   3.378   3.687
    1STR    H1F  774   0.831   3.275   3.443
    1STR    H1G  775   0.971   3.376   3.425
    1STR    H1H  776   0.983   3.219   3.507
    1STR    H1I  777   0.805   3.528   3.505
    1STR    H1J  778   0.916   3.581   3.622
    1STR    H1K  779   0.801   3.735   3.708
    1STR    H1M  780   0.514   3.683   3.773
    1STR    H1N  781   0.572   3.748   3.620
    1STR    H1O  782   0.591   3.836   3.772
    1STR    H1P  783   0.771   3.745   3.954
    1STR    H1Q  784   0.658   3.613   3.947
    1STR    H1R  785   1.028   3.510   3.860
    1STR    H1S  786   1.127   3.723   3.878
    1STR    H1T  787   0.979   3.804   3.921
    1STR    H1U  788   0.999   3.725   3.762
    1STR    H1V  789   0.968   3.608   4.140
    1STR    H1W  790   1.131   3.611   4.077
    1STR    H1X  791   1.016   3.223   4.023
    1STR    H1Y  792   1.147   2.976   3.966
    1STR    H1Z  793   1.199   2.871   3.748
    1STR    H20  794   1.151   3.000   3.450
    1STR    H21  795   1.323   3.043   3.457
    1STR    H22  796   1.269   2.888   3.521
    1STR    H23  797   1.261   3.214   3.457
    1STR    H27  798   1.167   3.358   3.785
    1STR    H28  799   0.540   3.158   3.996
    1STR    H29  800   0.388   2.986   3.904
    1STR    H2A  801   0.226   2.943   3.695
    1STR    H2B  802   0.374   2.848   3.684
    1STR    H2C  803   0.316   2.939   3.544
    1STR   BCK1  804   0.541   3.551   5.483
    1STR    O03  805   0.606   3.652   5.467
    1STR    N04  806   0.440   3.515   5.407
    1STR    C05  807   0.413   3.564   5.282
    1STR    C06  808   0.424   3.700   5.247
    1STR    C07  809   0.404   3.740   5.114
    1STR    N08  810   0.453   3.862   5.076
    1STR    C09  811   0.544   3.861   4.979
    1STR    O0A  812   0.522   3.836   4.861
    1STR    O0B  813   0.665   3.870   5.033
    1STR    C0C  814   0.753   3.762   5.010
    1STR    C0D  815   0.890   3.809   5.051
    1STR    C0E  816   0.716   3.640   5.095
    1STR    O0F  817   0.662   3.536   5.015
    1STR    C0G  818   0.694   3.405   5.060
    1STR    C0H  819   0.612   3.305   4.982
    1STR    C0I  820   0.842   3.377   5.035
    1STR    O0J  821   0.927   3.430   5.135
    1STR    C0K  822   0.930   3.373   5.264
    1STR    C0M  823   0.852   3.458   5.359
    1STR    C0N  824   0.905   3.222   5.274
    1STR    O0O  825   0.985   3.148   5.183
    1STR    C0P  826   1.114   3.164   5.189
    1STR    O0Q  827   1.184   3.157   5.291
    1STR    N0R  828   1.153   3.218   5.076
    1STR    C0S  829   1.184   3.352   5.069
    1STR    C0T  830   1.147   3.419   4.951
    1STR    C0U  831   1.153   3.558   4.945
    1STR    C0V  832   1.194   3.630   5.057
    1STR    C0W  833   1.204   3.778   5.049
    1STR    C0X  834   1.232   3.566   5.175
    1STR    N0Y  835   1.274   3.644   5.280
    1STR   BCK2  836   1.235   3.641   5.406
    1STR    O10  837   1.166   3.554   5.459
    1STR    C13  838   1.233   3.426   5.179
    1STR    C14  839   0.355   3.647   5.021
    1STR    C15  840   0.334   3.514   5.059
    1STR    C16  841   0.367   3.471   5.187
    1STR    C17  842   0.348   3.327   5.220
    1STR    H1B  843   0.381   3.437   5.434
    1STR    H1C  844   0.460   3.772   5.319
    1STR    H1D  845   0.471   3.924   5.154
    1STR    H1E  846   0.755   3.734   4.904
    1STR    H1F  847   0.891   3.846   5.154
    1STR    H1G  848   0.956   3.724   5.044
    1STR    H1H  849   0.927   3.884   4.984
    1STR    H1I  850   0.652   3.667   5.177
    1STR    H1J  851   0.804   3.610   5.148
    1STR    H1K  852   0.668   3.392   5.165
    1STR    H1M  853   0.620   3.323   4.875
    1STR    H1N  854   0.508   3.311   5.010
    1STR    H1O  855   0.646   3.203   5.003
    1STR    H1P  856   0.861   3.271   5.021
    1STR    H1Q  857   0.870   3.424   4.940
    1STR    H1R  858   1.030   3.389   5.300
    1STR    H1S  859   0.860   3.416   5.458
    1STR    H1T  860   0.747   3.467   5.336
    1STR    H1U  861   0.894   3.559   5.357
    1STR    H1V  862   0.801   3.196   5.261
    1STR    H1W  863   0.934   3.195   5.375
    1STR    H1X  864   1.097   3.187   4.998
    1STR    H1Y  865   1.112   3.366   4.863
    1STR    H1Z  866   1.124   3.609   4.854
    1STR    H20  867   1.165   3.826   5.138
    1STR    H21  868   1.309   3.791   5.037
    1STR    H22  869   1.152   3.815   4.961
    1STR    H23  870   1.338   3.718   5.260
    1STR    H27  871   1.265   3.379   5.269
    1STR    H28  872   0.339   3.676   4.919
    1STR    H29  873   0.295   3.441   4.992
    1STR    H2A  874   0.432   3.287   5.277
    1STR    H2B  875   0.338   3.268   5.129
    1STR    H2C  876   0.255   3.316   5.273
    1STR   BCK1  877   0.431   5.266   7.060
    1STR    O03  878   0.541   5.229   7.097
    1STR    N04  879   0.374   5.387   7.080
    1STR    C05  880   0.417   5.487   7.167
    1STR    C06  881   0.521   5.463   0.067
    1STR    C07  882   0.570   5.558   0.153
    1STR    N08  883   0.682   5.520   0.221
    1STR    C09  884   0.672   5.458   0.337
    1STR    O0A  885   0.596   5.498   0.425
    1STR    O0B  886   0.752   5.351   0.349
    1STR    C0C  887   0.853   5.305   0.257
    1STR    C0D  888   0.886   5.168   0.315
    1STR    C0E  889   0.821   5.290   0.106
    1STR    O0F  890   0.832   5.417   0.041
    1STR    C0G  891   0.785   5.422   7.096
    1STR    C0H  892   0.782   5.569   7.057
    1STR    C0I  893   0.849   5.325   6.997
    1STR    O0J  894   0.833   5.373   6.862
    1STR    C0K  895   0.948   5.444   6.822
    1STR    C0M  896   1.053   5.346   6.771
    1STR    C0N  897   0.926   5.566   6.731
    1STR    O0O  898   0.957   5.687   6.801
    1STR    C0P  899   1.080   5.699   6.851
    1STR    O0Q  900   1.181   5.649   6.802
    1STR    N0R  901   1.070   5.746   6.975
    1STR    C0S  902   1.136   5.691   7.083
    1STR    C0T  903   1.167   5.768   0.005
    1STR    C0U  904   1.243   5.710   0.109
    1STR    C0V  905   1.280   5.575   0.099
    1STR    C0W  906   1.400   5.527   0.171
    1STR    C0X  907   1.226   5.491   0.002
    1STR    N0Y  908   1.247   5.354   7.184
    1STR   BCK2  909   1.251   5.257   0.084
    1STR    O10  910   1.279   5.145   0.045
    1STR    C13  911   1.164   5.553   7.085
    1STR    C14  912   0.516   5.686   0.154
    1STR    C15  913   0.408   5.713   0.070
    1STR    C16  914   0.352   5.610   7.183
    1STR    C17  915   0.208   5.630   7.148
    1STR    H1B  916   0.288   5.404   7.031
    1STR    H1C  917   0.564   5.366   0.077
    1STR    H1D  918   0.748   5.471   0.158
    1STR    H1E  919   0.940   5.368   0.268
    1STR    H1F  920   0.799   5.102   0.310
    1STR    H1G  921   0.967   5.120   0.259
    1STR    H1H  922   0.915   5.176   0.419
    1STR    H1I  923   0.726   5.240   0.091
    1STR    H1J  924   0.896   5.224   0.062
    1STR    H1K  925   0.681   5.398   7.089
    1STR    H1M  926   0.877   5.616   7.078
    1STR    H1N  927   0.703   5.621   7.110
    1STR    H1O  928   0.757   5.581   6.952
    1STR    H1P  929   0.952   5.304   7.026
    1STR    H1Q  930   0.800   5.228   7.004
    1STR    H1R  931   0.981   5.487   6.913
    1STR    H1S  932   1.144   5.399   6.742
    1STR    H1T  933   1.016   5.289   6.686
    1STR    H1U  934   1.079   5.275   6.849
    1STR    H1V  935   0.822   5.569   6.698
    1STR    H1W  936   0.989   5.560   6.642
    1STR    H1X  937   0.991   5.806   6.991
    1STR    H1Y  938   1.144   5.873   0.010
    1STR    H1Z  939   1.282   5.772   0.188
    1STR    H20  940   1.366   5.481   0.259
    1STR    H21  941   1.452   5.451   0.116
    1STR    H22  942   1.467   5.608   0.195
    1STR    H23  943   1.247   5.306   7.094
    1STR    H27  944   1.144   5.489   7.003
    1STR    H28  945   0.550   5.761   0.222
    1STR    H29  946   0.361   5.808   0.077
    1STR    H2A  947   0.175   5.550   7.087
    1STR    H2B  948   0.193   5.726   7.101
    1STR    H2C  949   0.146   5.626   0.047
    1STR   BCK1  950   0.543   5.322   2.011
    1STR    O03  951   0.635   5.340   1.935
    1STR    N04  952   0.473   5.209   2.026
    1STR    C05  953   0.457   5.111   1.929
    1STR    C06  954   0.454   5.146   1.794
    1STR    C07  955   0.450   5.051   1.692
    1STR    N08  956   0.463   5.098   1.564
    1STR    C09  957   0.582   5.098   1.507
    1STR    O0A  958   0.666   5.010   1.520
    1STR    O0B  959   0.603   5.216   1.449
    1STR    C0C  960   0.720   5.286   1.490
    1STR    C0D  961   0.747   5.405   1.400
    1STR    C0E  962   0.701   5.328   1.636
    1STR    O0F  963   0.696   5.208   1.712
    1STR    C0G  964   0.806   5.153   1.779
    1STR    C0H  965   0.769   5.013   1.825
    1STR    C0I  966   0.936   5.157   1.701
    1STR    O0J  967   0.964   5.287   1.655
    1STR    C0K  968   1.025   5.375   1.747
    1STR    C0M  969   1.036   5.509   1.678
    1STR    C0N  970   0.974   5.387   1.894
    1STR    O0O  971   1.015   5.266   1.952
    1STR    C0P  972   0.992   5.228   2.077
    1STR    O0Q  973   0.930   5.291   2.161
    1STR    N0R  974   1.046   5.108   2.101
    1STR    C0S  975   1.130   5.047   2.009
    1STR    C0T  976   1.091   4.931   1.940
    1STR    C0U  977   1.147   4.905   1.814
    1STR    C0V  978   1.233   4.999   1.755
    1STR    C0W  979   1.259   4.989   1.608
    1STR    C0X  980   1.278   5.110   1.828
    1STR    N0Y  981   1.349   5.210   1.765
    1STR   BCK2  982   1.365   5.341   1.789
    1STR    O10  983   1.437   5.408   1.720
    1STR    C13  984   1.236   5.123   1.961
    1STR    C14  985   0.442   4.915   1.726
    1STR    C15  986   0.430   4.879   1.861
    1STR    C16  987   0.436   4.977   1.963
    1STR    C17  988   0.424   4.939   2.107
    1STR    H1B  989   0.406   5.210   2.103
    1STR    H1C  990   0.471   5.248   1.768
    1STR    H1D  991   0.419   5.187   1.548
    1STR    H1E  992   0.805   5.219   1.481
    1STR    H1F  993   0.666   5.477   1.403
    1STR    H1G  994   0.839   5.455   1.433
    1STR    H1H  995   0.763   5.373   1.297
    1STR    H1I  996   0.605   5.377   1.647
    1STR    H1J  997   0.771   5.400   1.676
    1STR    H1K  998   0.814   5.205   1.872
    1STR    H1M  999   0.734   4.950   1.744
    1STR    H1N 1000   0.692   5.019   1.901
    1STR    H1O 1001   0.852   4.965   1.873
    1STR    H1P 1002   1.015   5.121   1.763
    1STR    H1Q 1003   0.928   5.089   1.616
    1STR    H1R 1004   1.122   5.331   1.749
    1STR    H1S 1005   1.101   5.576   1.734
    1STR    H1T 1006   0.938   5.556   1.667
    1STR    H1U 1007   1.079   5.495   1.579
    1STR    H1V 1008   0.867   5.404   1.903
    1STR    H1W 1009   1.022   5.468   1.949
    1STR    H1X 1010   1.020   5.068   2.190
    1STR    H1Y 1011   1.009   4.872   1.976
    1STR    H1Z 1012   1.110   4.822   1.756
    1STR    H20 1013   1.239   5.086   1.561
    1STR    H21 1014   1.362   4.961   1.594
    1STR    H22 1015   1.194   4.916   1.561
    1STR    H23 1016   1.404   5.179   1.687
    1STR    H27 1017   1.260   5.208   2.019
    1STR    H28 1018   0.442   4.839   1.650
    1STR    H29 1019   0.418   4.775   1.888
    1STR    H2A 1020   0.345   4.998   2.154
    1STR    H2B 1021   0.518   4.960   2.158
    1STR    H2C 1022   0.399   4.833   2.118
    1STR   BCK1 1023   0.411   5.332   3.474
    1STR    O03 1024   0.453   5.358   3.586
    1STR    N04 1025   0.346   5.417   3.394
    1STR    C05 1026   0.374   5.552   3.380
    1STR    C06 1027   0.477   5.613   3.451
    1STR    C07 1028   0.528   5.738   3.416
    1STR    N08 1029   0.624   5.790   3.500
    1STR    C09 1030   0.745   5.737   3.495
    1STR    O0A 1031   0.811   5.720   3.393
    1STR    O0B 1032   0.780   5.701   3.617
    1STR    C0C 1033   0.851   5.579   3.632
    1STR    C0D 1034   0.908   5.577   3.772
    1STR    C0E 1035   0.756   5.460   3.608
    1STR    O0F 1036   0.703   5.465   3.476
    1STR    C0G 1037   0.741   5.362   3.390
    1STR    C0H 1038   0.665   5.364   3.258
    1STR    C0I 1039   0.886   5.386   3.361
    1STR    O0J 1040   0.967   5.320   3.455
    1STR    C0K 1041   0.977   5.178   3.451
    1STR    C0M 1042   0.925   5.129   3.584
    1STR    C0N 1043   0.924   5.100   3.327
    1STR    O0O 1044   0.963   5.157   3.202
    1STR    C0P 1045   1.090   5.183   3.189
    1STR    O0Q 1046   1.175   5.120   3.249
    1STR    N0R 1047   1.107   5.303   3.133
    1STR    C0S 1048   1.152   5.414   3.203
    1STR    C0T 1049   1.125   5.543   3.153
    1STR    C0U 1050   1.140   5.655   3.235
    1STR    C0V 1051   1.180   5.641   3.369
    1STR    C0W 1052   1.178   5.759   3.462
    1STR    C0X 1053   1.215   5.515   3.418
    1STR    N0Y 1054   1.242   5.505   3.554
    1STR   BCK2 1055   1.254   5.395   3.628
    1STR    O10 1056   1.275   5.282   3.587
    1STR    C13 1057   1.205   5.404   3.333
    1STR    C14 1058   0.465   5.811   3.315
    1STR    C15 1059   0.354   5.756   3.249
    1STR    C16 1060   0.308   5.628   3.283
    1STR    C17 1061   0.176   5.579   3.230
    1STR    H1B 1062   0.293   5.372   3.321
    1STR    H1C 1063   0.519   5.566   3.537
    1STR    H1D 1064   0.592   5.791   3.596
    1STR    H1E 1065   0.934   5.575   3.561
    1STR    H1F 1066   0.829   5.584   3.847
    1STR    H1G 1067   0.959   5.482   3.788
    1STR    H1H 1068   0.979   5.657   3.787
    1STR    H1I 1069   0.673   5.465   3.678
    1STR    H1J 1070   0.807   5.367   3.630
    1STR    H1K 1071   0.723   5.267   3.439
    1STR    H1M 1072   0.706   5.434   3.187
    1STR    H1N 1073   0.561   5.387   3.270
    1STR    H1O 1074   0.673   5.266   3.211
    1STR    H1P 1075   0.906   5.363   3.259
    1STR    H1Q 1076   0.909   5.492   3.364
    1STR    H1R 1077   1.084   5.162   3.459
    1STR    H1S 1078   0.956   5.026   3.603
    1STR    H1T 1079   0.818   5.136   3.594
    1STR    H1U 1080   0.969   5.190   3.663
    1STR    H1V 1081   0.815   5.093   3.328
    1STR    H1W 1082   0.962   4.998   3.331
    1STR    H1X 1083   1.048   5.315   3.053
    1STR    H1Y 1084   1.088   5.554   3.053
    1STR    H1Z 1085   1.114   5.752   3.196
    1STR    H20 1086   1.122   5.735   3.552
    1STR    H21 1087   1.279   5.788   3.489
    1STR    H22 1088   1.127   5.842   3.415
    1STR    H23 1089   1.231   5.589   3.606
    1STR    H27 1090   1.229   5.307   3.370
    1STR    H28 1091   0.498   5.910   3.291
    1STR    H29 1092   0.302   5.816   3.176
    1STR    H2A 1093   0.184   5.483   3.182
    1STR    H2B 1094   0.131   5.654   3.165
    1STR    H2C 1095   0.111   5.567   3.316
    1STR   BCK1 1096   0.589   5.388   5.174
    1STR    O03 1097   0.645   5.470   5.103
    1STR    N04 1098   0.524   5.435   5.280
    1STR    C05 1099   0.510   5.385   5.408
    1STR    C06 1100   0.524   5.250   5.444
    1STR    C07 1101   0.545   5.211   5.576
    1STR    N08 1102   0.583   5.080   5.599
    1STR    C09 1103   0.662   5.039   5.696
    1STR    O0A 1104   0.643   5.068   5.814
    1STR    O0B 1105   0.761   4.960   5.658
    1STR    C0C 1106   0.815   4.944   5.526
    1STR    C0D 1107   0.760   4.818   5.462
    1STR    C0E 1108   0.812   5.061   5.425
    1STR    O0F 1109   0.847   5.184   5.486
    1STR    C0G 1110   0.835   5.293   5.397
    1STR    C0H 1111   0.822   5.418   5.479
    1STR    C0I 1112   0.945   5.303   5.292
    1STR    O0J 1113   0.915   5.417   5.214
    1STR    C0K 1114   1.028   5.485   5.166
    1STR    C0M 1115   1.023   5.482   5.015
    1STR    C0N 1116   1.019   5.624   5.228
    1STR    O0O 1117   1.039   5.598   5.365
    1STR    C0P 1118   1.016   5.685   5.459
    1STR    O0Q 1119   0.957   5.789   5.442
    1STR    N0R 1120   1.064   5.651   5.579
    1STR    C0S 1121   1.114   5.530   5.624
    1STR    C0T 1122   1.101   5.493   5.759
    1STR    C0U 1123   1.114   5.357   5.794
    1STR    C0V 1124   1.134   5.258   5.697
    1STR    C0W 1125   1.122   5.112   5.733
    1STR    C0X 1126   1.170   5.300   5.569
    1STR    N0Y 1127   1.229   5.220   5.476
    1STR   BCK2 1128   1.200   5.097   5.439
    1STR    O10 1129   1.092   5.044   5.446
    1STR    C13 1130   1.162   5.434   5.536
    1STR    C14 1131   0.549   5.310   5.675
    1STR    C15 1132   0.519   5.443   5.643
    1STR    C16 1133   0.499   5.480   5.510
    1STR    C17 1134   0.467   5.624   5.479
    1STR    H1B 1135   0.525   5.535   5.280
    1STR    H1C 1136   0.531   5.175   5.369
    1STR    H1D 1137   0.590   5.025   5.515
    1STR    H1E 1138   0.919   4.925   5.547
    1STR    H1F 1139   0.652   4.823   5.446
    1STR    H1G 1140   0.809   4.800   5.366
    1STR    H1H 1141   0.781   4.732   5.526
    1STR    H1I 1142   0.715   5.068   5.377
    1STR    H1J 1143   0.879   5.040   5.343
    1STR    H1K 1144   0.745   5.283   5.341
    1STR    H1M 1145   0.747   5.406   5.554
    1STR    H1N 1146   0.797   5.505   5.418
    1STR    H1O 1147   0.911   5.436   5.533
    1STR    H1P 1148   1.039   5.310   5.343
    1STR    H1Q 1149   0.950   5.216   5.227
    1STR    H1R 1150   1.121   5.438   5.197
    1STR    H1S 1151   1.113   5.526   4.972
    1STR    H1T 1152   0.935   5.531   4.976
    1STR    H1U 1153   1.020   5.378   4.982
    1STR    H1V 1154   0.921   5.668   5.213
    1STR    H1W 1155   1.096   5.691   5.190
    1STR    H1X 1156   1.053   5.726   5.645
    1STR    H1Y 1157   1.073   5.562   5.835
    1STR    H1Z 1158   1.102   5.326   5.896
    1STR    H20 1159   1.039   5.069   5.679
    1STR    H21 1160   1.214   5.060   5.707
    1STR    H22 1161   1.102   5.099   5.839
    1STR    H23 1162   1.305   5.266   5.427
    1STR    H27 1163   1.182   5.456   5.435
    1STR    H28 1164   0.569   5.286   5.777
    1STR    H29 1165   0.517   5.515   5.721
    1STR    H2A 1166   0.557   5.681   5.459
    1STR    H2B 1167   0.411   5.667   5.561
    1STR    H2C 1168   0.400   5.625   5.395
    1STR   BCK1 1169   2.297   7.168   0.058
    1STR    O03 1170   2.371   0.070   0.025
    1STR    N04 1171   2.208   7.106   7.171
    1STR    C05 1172   2.207   7.096   7.034
    1STR    C06 1173   2.260   0.005   6.952
    1STR    C07 1174   2.301   7.160   6.822
    1STR    N08 1175   2.384   0.055   6.757
    1STR    C09 1176   2.502   0.010   6.715
    1STR    O0A 1177   2.526   7.095   6.657
    1STR    O0B 1178   2.588   0.087   6.769
    1STR    C0C 1179   2.650   0.040   6.887
    1STR    C0D 1180   2.723   0.160   6.934
    1STR    C0E 1181   2.561   7.184   7.002
    1STR    O0F 1182   2.498   7.059   6.973
    1STR    C0G 1183   2.518   6.957   7.068
    1STR    C0H 1184   2.442   6.832   7.030
    1STR    C0I 1185   2.662   6.927   7.058
    1STR    O0J 1186   2.735   6.999   7.157
    1STR    C0K 1187   2.748   6.944   0.097
    1STR    C0M 1188   2.679   7.042   0.189
    1STR    C0N 1189   2.712   6.794   0.113
    1STR    O0O 1190   2.778   6.708   0.020
    1STR    C0P 1191   2.905   6.731   7.183
    1STR    O0Q 1192   2.989   6.736   0.081
    1STR    N0R 1193   2.922   6.780   7.061
    1STR    C0S 1194   2.960   6.910   7.032
    1STR    C0T 1195   2.926   6.968   6.909
    1STR    C0U 1196   2.948   7.105   6.886
    1STR    C0V 1197   2.998   7.187   6.988
    1STR    C0W 1198   3.026   0.141   6.960
    1STR    C0X 1199   3.033   7.129   7.110
    1STR    N0Y 1200   3.080   0.009   0.028
    1STR   BCK2 1201   3.000   0.085   0.101
    1STR    O10 1202   2.897   0.135   0.058
    1STR    C13 1203   3.021   6.992   7.129
    1STR    C14 1204   2.267   7.036   6.768
    1STR    C15 1205   2.193   6.945   6.842
    1STR    C16 1206   2.168   6.974   6.976
    1STR    C17 1207   2.116   6.863   7.055
    1STR    H1B 1208   2.136   7.052   0.028
    1STR    H1C 1209   2.285   0.100   6.994
    1STR    H1D 1210   2.394   0.147   6.795
    1STR    H1E 1211   2.713   7.148   6.858
    1STR    H1F 1212   2.656   0.246   6.944
    1STR    H1G 1213   2.768   0.138   7.030
    1STR    H1H 1214   2.798   0.184   6.860
    1STR    H1I 1215   2.490   0.073   7.017
    1STR    H1J 1216   2.615   7.182   7.096
    1STR    H1K 1217   2.489   6.990   7.167
    1STR    H1M 1218   2.416   6.834   6.925
    1STR    H1N 1219   2.354   6.828   7.091
    1STR    H1O 1220   2.494   6.740   7.053
    1STR    H1P 1221   2.681   6.822   7.050
    1STR    H1Q 1222   2.693   6.959   6.960
    1STR    H1R 1223   2.852   6.956   0.123
    1STR    H1S 1224   2.695   7.019   0.294
    1STR    H1T 1225   2.573   7.044   0.168
    1STR    H1U 1226   2.716   7.143   0.169
    1STR    H1V 1227   2.605   6.781   0.101
    1STR    H1W 1228   2.738   6.762   0.214
    1STR    H1X 1229   2.876   6.728   6.983
    1STR    H1Y 1230   2.882   6.909   6.830
    1STR    H1Z 1231   2.925   7.145   6.789
    1STR    H20 1232   2.958   0.208   7.009
    1STR    H21 1233   3.120   0.165   7.004
    1STR    H22 1234   3.029   0.161   6.854
    1STR    H23 1235   3.161   7.155   0.069
    1STR    H27 1236   3.051   6.951   0.033
    1STR    H28 1237   2.298   7.008   6.670
    1STR    H29 1238   2.162   6.853   6.798
    1STR    H2A 1239   2.160   6.857   7.153
    1STR    H2B 1240   2.143   6.772   7.004
    1STR    H2C 1241   2.009   6.871   7.061
    1STR   BCK1 1242   2.163   7.038   1.756
    1STR    O03 1243   2.180   7.020   1.877
    1STR    N04 1244   2.147   7.157   1.698
    1STR    C05 1245   2.196   0.090   1.737
    1STR    C06 1246   2.272   0.107   1.854
    1STR    C07 1247   2.362   0.215   1.865
    1STR    N08 1248   2.449   0.221   1.970
    1STR    C09 1249   2.562   0.156   1.949
    1STR    O0A 1250   2.666   0.208   1.909
    1STR    O0B 1251   2.540   0.028   1.977
    1STR    C0C 1252   2.610   7.118   1.908
    1STR    C0D 1253   2.663   7.028   2.019
    1STR    C0E 1254   2.513   7.042   1.816
    1STR    O0F 1255   2.442   7.120   1.723
    1STR    C0G 1256   2.495   7.138   1.593
    1STR    C0H 1257   2.387   7.153   1.488
    1STR    C0I 1258   2.585   0.070   1.590
    1STR    O0J 1259   2.716   0.040   1.628
    1STR    C0K 1260   2.788   7.144   1.543
    1STR    C0M 1261   2.794   7.007   1.604
    1STR    C0N 1262   2.766   7.152   1.391
    1STR    O0O 1263   2.765   0.097   1.345
    1STR    C0P 1264   2.881   0.158   1.330
    1STR    O0Q 1265   2.971   0.117   1.257
    1STR    N0R 1266   2.895   0.253   1.421
    1STR    C0S 1267   2.977   0.236   1.531
    1STR    C0T 1268   2.958   0.318   1.642
    1STR    C0U 1269   3.023   0.290   1.763
    1STR    C0V 1270   3.095   0.170   1.778
    1STR    C0W 1271   3.160   0.145   1.910
    1STR    C0X 1272   3.104   0.083   1.668
    1STR    N0Y 1273   3.134   7.138   1.667
    1STR   BCK2 1274   3.079   7.036   1.733
    1STR    O10 1275   3.082   6.926   1.682
    1STR    C13 1276   3.064   0.127   1.542
    1STR    C14 1277   2.375   0.304   1.759
    1STR    C15 1278   2.290   0.294   1.649
    1STR    C16 1279   2.194   0.194   1.643
    1STR    C17 1280   2.102   0.194   1.526
    1STR    H1B 1281   2.111   7.149   1.603
    1STR    H1C 1282   2.277   0.029   1.927
    1STR    H1D 1283   2.403   0.178   2.048
    1STR    H1E 1284   2.693   7.160   1.852
    1STR    H1F 1285   2.581   6.988   2.079
    1STR    H1G 1286   2.721   6.946   1.979
    1STR    H1H 1287   2.727   7.086   2.086
    1STR    H1I 1288   2.436   6.999   1.879
    1STR    H1J 1289   2.562   6.958   1.768
    1STR    H1K 1290   2.541   7.047   1.559
    1STR    H1M 1291   2.336   0.057   1.500
    1STR    H1N 1292   2.316   7.072   1.492
    1STR    H1O 1293   2.432   7.155   1.389
    1STR    H1P 1294   2.583   0.120   1.494
    1STR    H1Q 1295   2.547   0.145   1.659
    1STR    H1R 1296   2.887   7.175   1.562
    1STR    H1S 1297   2.872   6.949   1.557
    1STR    H1T 1298   2.703   6.953   1.602
    1STR    H1U 1299   2.816   7.021   1.709
    1STR    H1V 1300   2.672   7.107   1.363
    1STR    H1W 1301   2.845   7.097   1.340
    1STR    H1X 1302   2.802   0.295   1.444
    1STR    H1Y 1303   2.890   0.399   1.635
    1STR    H1Z 1304   3.011   0.355   1.847
    1STR    H20 1305   3.189   0.041   1.920
    1STR    H21 1306   3.250   0.206   1.917
    1STR    H22 1307   3.092   0.169   1.991
    1STR    H23 1308   3.170   7.104   1.579
    1STR    H27 1309   3.078   0.062   1.458
    1STR    H28 1310   2.450   0.379   1.759
    1STR    H29 1311   2.300   0.368   1.572
    1STR    H2A 1312   2.022   0.122   1.541
    1STR    H2B 1313   2.160   0.175   1.438
    1STR    H2C 1314   2.055   0.290   1.512
    1STR   BCK1 1315   2.276   7.140   3.566
    1STR    O03 1316   2.246   0.067   3.585
    1STR    N04 1317   2.288   7.059   3.673
    1STR    C05 1318   2.341   6.933   3.699
    1STR    C06 1319   2.396   6.855   3.598
    1STR    C07 1320   2.436   6.723   3.618
    1STR    N08 1321   2.497   6.659   3.512
    1STR    C09 1322   2.619   6.707   3.491
    1STR    O0A 1323   2.718   6.664   3.550
    1STR    O0B 1324   2.612   6.816   3.414
    1STR    C0C 1325   2.710   6.917   3.425
    1STR    C0D 1326   2.798   6.905   3.302
    1STR    C0E 1327   2.644   7.056   3.435
    1STR    O0F 1328   2.555   7.074   3.545
    1STR    C0G 1329   2.603   7.154   3.650
    1STR    C0H 1330   2.512   0.032   3.752
    1STR    C0I 1331   2.697   7.065   3.726
    1STR    O0J 1332   2.822   7.121   3.699
    1STR    C0K 1333   2.851   0.057   3.757
    1STR    C0M 1334   2.836   0.177   3.665
    1STR    C0N 1335   2.835   0.074   3.909
    1STR    O0O 1336   2.830   7.133   3.959
    1STR    C0P 1337   2.889   7.093   4.068
    1STR    O0Q 1338   2.903   7.163   4.167
    1STR    N0R 1339   2.939   6.970   4.053
    1STR    C0S 1340   2.974   6.916   3.930
    1STR    C0T 1341   2.952   6.782   3.897
    1STR    C0U 1342   2.979   6.738   3.766
    1STR    C0V 1343   3.030   6.827   3.669
    1STR    C0W 1344   3.044   6.783   3.526
    1STR    C0X 1345   3.060   6.959   3.704
    1STR    N0Y 1346   3.101   7.045   3.603
    1STR   BCK2 1347   3.144   7.170   3.587
    1STR    O10 1348   3.155   0.019   3.473
    1STR    C13 1349   3.033   7.000   3.834
    1STR    C14 1350   2.423   6.665   3.744
    1STR    C15 1351   2.372   6.742   3.849
    1STR    C16 1352   2.333   6.876   3.828
    1STR    C17 1353   2.281   6.952   3.947
    1STR    H1B 1354   2.253   7.104   3.754
    1STR    H1C 1355   2.410   6.896   3.501
    1STR    H1D 1356   2.443   6.674   3.426
    1STR    H1E 1357   2.771   6.902   3.514
    1STR    H1F 1358   2.739   6.914   3.213
    1STR    H1G 1359   2.875   6.982   3.301
    1STR    H1H 1360   2.844   6.807   3.298
    1STR    H1I 1361   2.584   7.072   3.346
    1STR    H1J 1362   2.722   7.132   3.433
    1STR    H1K 1363   2.648   0.046   3.597
    1STR    H1M 1364   2.462   7.150   3.815
    1STR    H1N 1365   2.442   0.100   3.706
    1STR    H1O 1366   2.571   0.093   3.819
    1STR    H1P 1367   2.669   7.056   3.830
    1STR    H1Q 1368   2.692   6.962   3.693
    1STR    H1R 1369   2.954   0.040   3.749
    1STR    H1S 1370   2.912   0.251   3.686
    1STR    H1T 1371   2.738   0.224   3.673
    1STR    H1U 1372   2.851   0.145   3.562
    1STR    H1V 1373   2.744   0.126   3.936
    1STR    H1W 1374   2.920   0.128   3.950
    1STR    H1X 1375   2.954   6.915   4.139
    1STR    H1Y 1376   2.911   6.714   3.969
    1STR    H1Z 1377   2.957   6.637   3.738
    1STR    H20 1378   2.972   6.836   3.467
    1STR    H21 1379   3.141   6.811   3.488
    1STR    H22 1380   3.028   6.676   3.515
    1STR    H23 1381   3.094   7.000   3.514
    1STR    H27 1382   3.053   7.100   3.862
    1STR    H28 1383   2.455   6.565   3.761
    1STR    H29 1384   2.364   6.699   3.947
    1STR    H2A 1385   2.327   7.050   3.954
    1STR    H2B 1386   2.309   6.899   4.038
    1STR    H2C 1387   2.173   6.957   3.941
    1STR   BCK1 1388   2.278   0.030   5.385
    1STR    O03 1389   2.379   0.062   5.446
    1STR    N04 1390   2.191   0.116   5.333
    1STR    C05 1391   2.219   0.163   5.207
    1STR    C06 1392   2.322   0.250   5.179
    1STR    C07 1393   2.368   0.260   5.047
    1STR    N08 1394   2.480   0.334   5.027
    1STR    C09 1395   2.586   0.282   4.967
    1STR    O0A 1396   2.589   0.249   4.849
    1STR    O0B 1397   2.688   0.287   5.047
    1STR    C0C 1398   2.707   0.184   5.143
    1STR    C0D 1399   2.751   0.252   5.270
    1STR    C0E 1400   2.596   0.088   5.181
    1STR    O0F 1401   2.548   0.017   5.068
    1STR    C0G 1402   2.504   7.077   5.099
    1STR    C0H 1403   2.405   7.036   4.993
    1STR    C0I 1404   2.625   6.985   5.098
    1STR    O0J 1405   2.716   7.021   5.200
    1STR    C0K 1406   2.722   6.949   5.321
    1STR    C0M 1407   2.619   6.997   5.422
    1STR    C0N 1408   2.729   6.797   5.298
    1STR    O0O 1409   2.817   6.766   5.191
    1STR    C0P 1410   2.933   6.824   5.191
    1STR    O0Q 1411   3.010   6.823   5.286
    1STR    N0R 1412   2.940   6.905   5.087
    1STR    C0S 1413   2.974   7.039   5.092
    1STR    C0T 1414   2.952   7.115   4.978
    1STR    C0U 1415   2.986   0.061   4.975
    1STR    C0V 1416   3.024   0.126   5.093
    1STR    C0W 1417   3.036   0.275   5.087
    1STR    C0X 1418   3.033   0.053   5.213
    1STR    N0Y 1419   3.049   0.120   5.333
    1STR   BCK2 1420   2.996   0.084   5.450
    1STR    O10 1421   2.931   7.173   5.474
    1STR    C13 1422   3.017   7.104   5.209
    1STR    C14 1423   2.308   0.188   4.943
    1STR    C15 1424   2.187   0.127   4.967
    1STR    C16 1425   2.144   0.115   5.099
    1STR    C17 1426   2.016   0.053   5.126
    1STR    H1B 1427   2.102   0.070   5.326
    1STR    H1C 1428   2.373   0.298   5.261
    1STR    H1D 1429   2.486   0.405   5.100
    1STR    H1E 1430   2.782   0.119   5.103
    1STR    H1F 1431   2.660   0.289   5.314
    1STR    H1G 1432   2.793   0.180   5.338
    1STR    H1H 1433   2.821   0.333   5.253
    1STR    H1I 1434   2.516   0.133   5.236
    1STR    H1J 1435   2.636   0.024   5.258
    1STR    H1K 1436   2.455   7.073   5.196
    1STR    H1M 1437   2.444   7.055   4.893
    1STR    H1N 1438   2.313   7.092   5.006
    1STR    H1O 1439   2.381   6.930   5.001
    1STR    H1P 1440   2.597   6.880   5.098
    1STR    H1Q 1441   2.677   7.001   5.003
    1STR    H1R 1442   2.817   6.979   5.364
    1STR    H1S 1443   2.628   6.941   5.515
    1STR    H1T 1444   2.519   6.986   5.383
    1STR    H1U 1445   2.637   7.102   5.445
    1STR    H1V 1446   2.630   6.760   5.274
    1STR    H1W 1447   2.761   6.745   5.388
    1STR    H1X 1448   2.875   6.874   5.016
    1STR    H1Y 1449   2.913   7.070   4.889
    1STR    H1Z 1450   2.974   0.115   4.883
    1STR    H20 1451   2.939   0.318   5.067
    1STR    H21 1452   3.077   0.318   5.178
    1STR    H22 1453   3.100   0.301   5.003
    1STR    H23 1454   3.090   0.211   5.325
    1STR    H27 1455   3.033   7.049   5.300
    1STR    H28 1456   2.351   0.185   4.845
    1STR    H29 1457   2.130   0.087   4.885
    1STR    H2A 1458   2.028   7.136   5.138
    1STR    H2B 1459   1.952   0.080   5.043
    1STR    H2C 1460   1.977   0.099   5.215
    1STR   BCK1 1461   2.247   1.723   6.987
    1STR    O03 1462   2.367   1.710   6.965
    1STR    N04 1463   2.193   1.828   7.049
    1STR    C05 1464   2.232   1.869   7.176
    1STR    C06 1465   2.292   1.778   0.072
    1STR    C07 1466   2.334   1.818   0.199
    1STR    N08 1467   2.410   1.729   0.267
    1STR    C09 1468   2.540   1.749   0.262
    1STR    O0A 1469   2.596   1.858   0.257
    1STR    O0B 1470   2.594   1.635   0.242
    1STR    C0C 1471   2.682   1.621   0.134
    1STR    C0D 1472   2.727   1.480   0.152
    1STR    C0E 1473   2.614   1.637   7.186
    1STR    O0F 1474   2.546   1.760   7.180
    1STR    C0G 1475   2.600   1.863   7.105
    1STR    C0H 1476   2.510   1.984   7.127
    1STR    C0I 1477   2.738   1.901   7.148
    1STR    O0J 1478   2.767   2.003   7.056
    1STR    C0K 1479   2.888   2.064   7.084
    1STR    C0M 1480   2.988   1.997   6.993
    1STR    C0N 1481   2.863   2.215   7.073
    1STR    O0O 1482   2.837   2.261   0.014
    1STR    C0P 1483   2.942   2.298   0.085
    1STR    O0Q 1484   3.037   2.360   0.037
    1STR    N0R 1485   2.944   2.237   0.203
    1STR    C0S 1486   3.054   2.163   0.233
    1STR    C0T 1487   3.177   2.225   0.259
    1STR    C0U 1488   3.293   2.150   0.243
    1STR    C0V 1489   3.287   2.018   0.196
    1STR    C0W 1490   3.411   1.937   0.179
    1STR    C0X 1491   3.163   1.959   0.168
    1STR    N0Y 1492   3.156   1.871   0.063
    1STR   BCK2 1493   3.104   1.751   0.051
    1STR    O10 1494   3.087   1.705   7.130
    1STR    C13 1495   3.047   2.026   0.202
    1STR    C14 1496   2.308   1.946   0.248
    1STR    C15 1497   2.244   2.037   0.164
    1STR    C16 1498   2.211   2.000   0.033
    1STR    C17 1499   2.156   2.105   7.137
    1STR    H1B 1500   2.100   1.859   7.025
    1STR    H1C 1501   2.314   1.678   0.040
    1STR    H1D 1502   2.390   1.629   0.246
    1STR    H1E 1503   2.764   1.691   0.147
    1STR    H1F 1504   2.659   1.408   0.105
    1STR    H1G 1505   2.825   1.475   0.109
    1STR    H1H 1506   2.731   1.457   0.258
    1STR    H1I 1507   2.536   1.561   7.174
    1STR    H1J 1508   2.684   1.624   7.104
    1STR    H1K 1509   2.598   1.832   7.001
    1STR    H1M 1510   2.480   1.986   0.041
    1STR    H1N 1511   2.423   1.978   7.061
    1STR    H1O 1512   2.556   2.080   7.110
    1STR    H1P 1513   2.736   1.936   0.062
    1STR    H1Q 1514   2.809   1.818   7.141
    1STR    H1R 1515   2.918   2.043   7.185
    1STR    H1S 1516   2.965   1.891   6.981
    1STR    H1T 1517   3.082   1.997   7.044
    1STR    H1U 1518   2.997   2.043   6.896
    1STR    H1V 1519   2.777   2.237   7.010
    1STR    H1W 1520   2.949   2.265   7.028
    1STR    H1X 1521   2.862   2.198   0.251
    1STR    H1Y 1522   3.180   2.329   0.283
    1STR    H1Z 1523   3.388   2.197   0.260
    1STR    H20 1524   3.431   1.874   0.264
    1STR    H21 1525   3.394   1.867   0.099
    1STR    H22 1526   3.497   1.999   0.156
    1STR    H23 1527   3.200   1.905   7.169
    1STR    H27 1528   2.951   1.979   0.184
    1STR    H28 1529   2.337   1.974   0.347
    1STR    H29 1530   2.218   2.135   0.201
    1STR    H2A 1531   2.051   2.096   7.157
    1STR    H2B 1532   2.182   2.088   7.033
    1STR    H2C 1533   2.191   2.203   7.168
    1STR   BCK1 1534   2.313   1.838   1.735
    1STR    O03 1535   2.310   1.945   1.676
    1STR    N04 1536   2.281   1.720   1.681
    1STR    C05 1537   2.285   1.675   1.549
    1STR    C06 1538   2.315   1.761   1.444
    1STR    C07 1539   2.361   1.711   1.323
    1STR    N08 1540   2.468   1.783   1.278
    1STR    C09 1541   2.578   1.745   1.341
    1STR    O0A 1542   2.616   1.629   1.354
    1STR    O0B 1543   2.627   1.845   1.412
    1STR    C0C 1544   2.689   1.809   1.535
    1STR    C0D 1545   2.756   1.932   1.593
    1STR    C0E 1546   2.585   1.760   1.631
    1STR    O0F 1547   2.552   1.620   1.626
    1STR    C0G 1548   2.575   1.552   1.748
    1STR    C0H 1549   2.529   1.406   1.751
    1STR    C0I 1550   2.722   1.560   1.770
    1STR    O0J 1551   2.746   1.671   1.853
    1STR    C0K 1552   2.757   1.660   1.993
    1STR    C0M 1553   2.709   1.795   2.042
    1STR    C0N 1554   2.704   1.537   2.069
    1STR    O0O 1555   2.760   1.420   2.013
    1STR    C0P 1556   2.851   1.347   2.074
    1STR    O0Q 1557   2.850   1.320   2.193
    1STR    N0R 1558   2.947   1.306   1.992
    1STR    C0S 1559   2.980   1.374   1.876
    1STR    C0T 1560   2.958   1.320   1.749
    1STR    C0U 1561   2.977   1.402   1.636
    1STR    C0V 1562   3.013   1.538   1.651
    1STR    C0W 1563   3.026   1.625   1.529
    1STR    C0X 1564   3.026   1.594   1.778
    1STR    N0Y 1565   3.031   1.733   1.789
    1STR   BCK2 1566   3.031   1.822   1.889
    1STR    O10 1567   2.993   1.936   1.868
    1STR    C13 1568   3.017   1.508   1.889
    1STR    C14 1569   2.349   1.575   1.292
    1STR    C15 1570   2.305   1.488   1.391
    1STR    C16 1571   2.276   1.537   1.518
    1STR    C17 1572   2.239   1.436   1.619
    1STR    H1B 1573   2.259   1.647   1.747
    1STR    H1C 1574   2.335   1.864   1.467
    1STR    H1D 1575   2.452   1.880   1.263
    1STR    H1E 1576   2.759   1.729   1.520
    1STR    H1F 1577   2.682   2.008   1.619
    1STR    H1G 1578   2.812   1.907   1.683
    1STR    H1H 1579   2.825   1.977   1.523
    1STR    H1I 1580   2.502   1.817   1.600
    1STR    H1J 1581   2.605   1.796   1.731
    1STR    H1K 1582   2.526   1.605   1.828
    1STR    H1M 1583   2.519   1.366   1.650
    1STR    H1N 1584   2.435   1.397   1.804
    1STR    H1O 1585   2.596   1.341   1.806
    1STR    H1P 1586   2.763   1.467   1.801
    1STR    H1Q 1587   2.769   1.576   1.674
    1STR    H1R 1588   2.862   1.659   2.012
    1STR    H1S 1589   2.749   1.819   2.139
    1STR    H1T 1590   2.601   1.799   2.045
    1STR    H1U 1591   2.742   1.872   1.972
    1STR    H1V 1592   2.597   1.529   2.061
    1STR    H1W 1593   2.731   1.545   2.174
    1STR    H1X 1594   3.008   1.233   2.024
    1STR    H1Y 1595   2.927   1.217   1.736
    1STR    H1Z 1596   2.961   1.362   1.538
    1STR    H20 1597   3.120   1.676   1.532
    1STR    H21 1598   3.020   1.567   1.438
    1STR    H22 1599   2.952   1.703   1.529
    1STR    H23 1600   3.032   1.782   1.700
    1STR    H27 1601   3.029   1.545   1.989
    1STR    H28 1602   2.392   1.537   1.200
    1STR    H29 1603   2.303   1.382   1.372
    1STR    H2A 1604   2.267   1.468   1.716
    1STR    H2B 1605   2.285   1.339   1.599
    1STR    H2C 1606   2.132   1.430   1.610
    1STR   BCK1 1607   2.212   1.702   3.513
    1STR    O03 1608   2.284   1.704   3.612
    1STR    N04 1609   2.163   1.806   3.447
    1STR    C05 1610   2.209   1.937   3.448
    1STR    C06 1611   2.292   1.983   3.551
    1STR    C07 1612   2.379   2.089   3.528
    1STR    N08 1613   2.486   2.094   3.614
    1STR    C09 1614   2.610   2.112   3.572
    1STR    O0A 1615   2.643   2.197   3.490
    1STR    O0B 1616   2.697   2.033   3.632
    1STR    C0C 1617   2.677   1.897   3.673
    1STR    C0D 1618   2.670   1.887   3.824
    1STR    C0E 1619   2.572   1.803   3.609
    1STR    O0F 1620   2.515   1.848   3.489
    1STR    C0G 1621   2.567   1.809   3.365
    1STR    C0H 1622   2.493   1.896   3.267
    1STR    C0I 1623   2.711   1.847   3.359
    1STR    O0J 1624   2.794   1.763   3.436
    1STR    C0K 1625   2.832   1.635   3.392
    1STR    C0M 1626   2.748   1.529   3.458
    1STR    C0N 1627   2.848   1.618   3.240
    1STR    O0O 1628   2.904   1.733   3.176
    1STR    C0P 1629   3.000   1.796   3.241
    1STR    O0Q 1630   3.088   1.740   3.303
    1STR    N0R 1631   2.981   1.927   3.247
    1STR    C0S 1632   2.990   1.999   3.365
    1STR    C0T 1633   2.945   2.132   3.366
    1STR    C0U 1634   2.952   2.207   3.483
    1STR    C0V 1635   2.996   2.148   3.603
    1STR    C0W 1636   3.012   2.229   3.727
    1STR    C0X 1637   3.026   2.012   3.607
    1STR    N0Y 1638   3.046   1.952   3.730
    1STR   BCK2 1639   3.011   1.828   3.764
    1STR    O10 1640   2.968   1.743   3.686
    1STR    C13 1641   3.028   1.941   3.488
    1STR    C14 1642   2.367   2.168   3.412
    1STR    C15 1643   2.270   2.133   3.316
    1STR    C16 1644   2.193   2.017   3.334
    1STR    C17 1645   2.095   1.983   3.227
    1STR    H1B 1646   2.085   1.782   3.385
    1STR    H1C 1647   2.303   1.926   3.641
    1STR    H1D 1648   2.480   2.025   3.687
    1STR    H1E 1649   2.771   1.855   3.645
    1STR    H1F 1650   2.571   1.916   3.858
    1STR    H1G 1651   2.687   1.784   3.855
    1STR    H1H 1652   2.746   1.949   3.870
    1STR    H1I 1653   2.490   1.794   3.679
    1STR    H1J 1654   2.610   1.702   3.600
    1STR    H1K 1655   2.549   1.704   3.345
    1STR    H1M 1656   2.501   1.999   3.297
    1STR    H1N 1657   2.388   1.867   3.262
    1STR    H1O 1658   2.533   1.898   3.167
    1STR    H1P 1659   2.740   1.858   3.256
    1STR    H1Q 1660   2.724   1.947   3.399
    1STR    H1R 1661   2.930   1.622   3.438
    1STR    H1S 1662   2.787   1.430   3.436
    1STR    H1T 1663   2.643   1.533   3.430
    1STR    H1U 1664   2.758   1.545   3.565
    1STR    H1V 1665   2.752   1.594   3.197
    1STR    H1W 1666   2.909   1.530   3.226
    1STR    H1X 1667   2.940   1.968   3.164
    1STR    H1Y 1668   2.907   2.178   3.277
    1STR    H1Z 1669   2.924   2.311   3.481
    1STR    H20 1670   2.942   2.194   3.803
    1STR    H21 1671   3.114   2.219   3.763
    1STR    H22 1672   2.994   2.333   3.703
    1STR    H23 1673   3.081   2.010   3.804
    1STR    H27 1674   3.056   1.838   3.496
    1STR    H28 1675   2.432   2.250   3.394
    1STR    H29 1676   2.257   2.192   3.228
    1STR    H2A 1677   2.012   1.935   3.274
    1STR    H2B 1678   2.139   1.920   3.150
    1STR    H2C 1679   2.057   2.071   3.179
    1STR   BCK1 1680   2.300   1.896   5.245
    1STR    O03 1681   2.356   1.982   5.180
    1STR    N04 1682   2.277   1.921   5.374
    1STR    C05 1683   2.260   1.830   5.474
    1STR    C06 1684   2.333   1.711   5.474
    1STR    C07 1685   2.316   1.614   5.574
    1STR    N08 1686   2.411   1.515   5.577
    1STR    C09 1687   2.466   1.472   5.689
    1STR    O0A 1688   2.408   1.407   5.773
    1STR    O0B 1689   2.594   1.509   5.703
    1STR    C0C 1690   2.660   1.606   5.623
    1STR    C0D 1691   2.688   1.545   5.485
    1STR    C0E 1692   2.594   1.743   5.611
    1STR    O0F 1693   2.668   1.862   5.624
    1STR    C0G 1694   2.589   1.973   5.582
    1STR    C0H 1695   2.638   2.096   5.657
    1STR    C0I 1696   2.585   1.995   5.429
    1STR    O0J 1697   2.705   2.049   5.380
    1STR    C0K 1698   2.802   1.952   5.356
    1STR    C0M 1699   2.803   1.923   5.206
    1STR    C0N 1700   2.926   2.022   5.407
    1STR    O0O 1701   2.933   2.025   5.548
    1STR    C0P 1702   3.001   1.931   5.603
    1STR    O0Q 1703   3.123   1.927   5.609
    1STR    N0R 1704   2.921   1.830   5.626
    1STR    C0S 1705   2.961   1.701   5.614
    1STR    C0T 1706   3.005   1.628   5.722
    1STR    C0U 1707   3.052   1.498   5.707
    1STR    C0V 1708   3.058   1.441   5.579
    1STR    C0W 1709   3.130   1.311   5.563
    1STR    C0X 1710   3.013   1.514   5.469
    1STR    N0Y 1711   3.036   1.466   5.343
    1STR   BCK2 1712   3.086   1.530   5.239
    1STR    O10 1713   3.117   1.466   5.141
    1STR    C13 1714   2.958   1.642   5.488
    1STR    C14 1715   2.219   1.632   5.671
    1STR    C15 1716   2.145   1.750   5.669
    1STR    C16 1717   2.166   1.851   5.574
    1STR    C17 1718   2.078   1.974   5.572
    1STR    H1B 1719   2.280   2.021   5.401
    1STR    H1C 1720   2.404   1.694   5.395
    1STR    H1D 1721   2.478   1.525   5.503
    1STR    H1E 1722   2.749   1.620   5.681
    1STR    H1F 1723   2.607   1.493   5.435
    1STR    H1G 1724   2.719   1.621   5.413
    1STR    H1H 1725   2.767   1.473   5.494
    1STR    H1I 1726   2.509   1.749   5.678
    1STR    H1J 1727   2.561   1.747   5.509
    1STR    H1K 1728   2.485   1.960   5.613
    1STR    H1M 1729   2.743   2.116   5.640
    1STR    H1N 1730   2.622   2.084   5.764
    1STR    H1O 1731   2.583   2.184   5.624
    1STR    H1P 1732   2.554   1.908   5.372
    1STR    H1Q 1733   2.512   2.069   5.404
    1STR    H1R 1734   2.783   1.859   5.409
    1STR    H1S 1735   2.858   1.832   5.186
    1STR    H1T 1736   2.846   2.004   5.150
    1STR    H1U 1737   2.702   1.905   5.170
    1STR    H1V 1738   2.924   2.125   5.380
    1STR    H1W 1739   3.012   1.981   5.360
    1STR    H1X 1740   2.820   1.852   5.619
    1STR    H1Y 1741   3.004   1.675   5.818
    1STR    H1Z 1742   3.089   1.445   5.793
    1STR    H20 1743   3.166   1.294   5.462
    1STR    H21 1744   3.218   1.317   5.623
    1STR    H22 1745   3.072   1.226   5.596
    1STR    H23 1746   3.041   1.366   5.333
    1STR    H27 1747   2.919   1.697   5.405
    1STR    H28 1748   2.202   1.558   5.749
    1STR    H29 1749   2.070   1.763   5.741
    1STR    H2A 1750   2.132   2.059   5.613
    1STR    H2B 1751   1.987   1.960   5.628
    1STR    H2C 1752   2.049   1.997   5.470
    1STR   BCK1 1753   2.303   3.655   0.071
    1STR    O03 1754   2.406   3.618   0.019
    1STR    N04 1755   2.206   3.719   0.005
    1STR    C05 1756   2.218   3.725   7.058
    1STR    C06 1757   2.310   3.817   7.006
    1STR    C07 1758   2.381   3.782   6.890
    1STR    N08 1759   2.492   3.856   6.854
    1STR    C09 1760   2.601   3.782   6.851
    1STR    O0A 1761   2.639   3.727   6.749
    1STR    O0B 1762   2.625   3.742   6.976
    1STR    C0C 1763   2.672   3.612   7.005
    1STR    C0D 1764   2.708   3.621   7.152
    1STR    C0E 1765   2.576   3.500   6.970
    1STR    O0F 1766   2.616   3.369   7.005
    1STR    C0G 1767   2.508   3.296   7.063
    1STR    C0H 1768   2.516   3.152   7.015
    1STR    C0I 1769   2.513   3.308   0.026
    1STR    O0J 1770   2.606   3.218   0.082
    1STR    C0K 1771   2.740   3.257   0.070
    1STR    C0M 1772   2.782   3.333   0.194
    1STR    C0N 1773   2.819   3.128   0.042
    1STR    O0O 1774   2.851   3.124   7.094
    1STR    C0P 1775   2.950   3.200   7.057
    1STR    O0Q 1776   3.058   3.205   7.116
    1STR    N0R 1777   2.911   3.283   6.961
    1STR    C0S 1778   2.956   3.413   6.947
    1STR    C0T 1779   2.945   3.479   6.824
    1STR    C0U 1780   2.961   3.619   6.818
    1STR    C0V 1781   2.977   3.694   6.935
    1STR    C0W 1782   2.943   3.840   6.934
    1STR    C0X 1783   2.998   3.628   7.056
    1STR    N0Y 1784   2.994   3.699   7.174
    1STR   BCK2 1785   3.071   3.663   0.082
    1STR    O10 1786   3.188   3.638   0.063
    1STR    C13 1787   2.991   3.487   7.061
    1STR    C14 1788   2.364   3.654   6.833
    1STR    C15 1789   2.277   3.561   6.889
    1STR    C16 1790   2.195   3.604   6.991
    1STR    C17 1791   2.072   3.526   7.010
    1STR    H1B 1792   2.134   3.768   0.060
    1STR    H1C 1793   2.337   3.902   7.065
    1STR    H1D 1794   2.506   3.933   6.918
    1STR    H1E 1795   2.756   3.594   6.943
    1STR    H1F 1796   2.625   3.619   0.029
    1STR    H1G 1797   2.773   3.540   7.182
    1STR    H1H 1798   2.753   3.717   7.170
    1STR    H1I 1799   2.561   3.497   6.863
    1STR    H1J 1800   2.483   3.527   7.018
    1STR    H1K 1801   2.411   3.334   7.030
    1STR    H1M 1802   2.611   3.107   7.041
    1STR    H1N 1803   2.503   3.147   6.907
    1STR    H1O 1804   2.437   3.093   7.062
    1STR    H1P 1805   2.533   3.410   0.057
    1STR    H1Q 1806   2.416   3.282   0.066
    1STR    H1R 1807   2.755   3.325   7.177
    1STR    H1S 1808   2.718   3.420   0.208
    1STR    H1T 1809   2.883   3.369   0.181
    1STR    H1U 1810   2.777   3.270   0.283
    1STR    H1V 1811   2.760   3.041   0.069
    1STR    H1W 1812   2.910   3.124   0.103
    1STR    H1X 1813   2.818   3.265   6.927
    1STR    H1Y 1814   2.919   3.428   6.734
    1STR    H1Z 1815   2.946   3.671   6.727
    1STR    H20 1816   2.843   3.855   6.970
    1STR    H21 1817   3.010   3.897   6.997
    1STR    H22 1818   2.946   3.874   6.831
    1STR    H23 1819   2.908   3.747   0.002
    1STR    H27 1820   2.999   3.439   7.157
    1STR    H28 1821   2.426   3.620   6.752
    1STR    H29 1822   2.267   3.462   6.850
    1STR    H2A 1823   2.091   3.428   7.051
    1STR    H2B 1824   2.029   3.515   6.912
    1STR    H2C 1825   2.002   3.583   7.066
    1STR   BCK1 1826   2.202   3.494   1.628
    1STR    O03 1827   2.281   3.454   1.712
    1STR    N04 1828   2.175   3.621   1.600
    1STR    C05 1829   2.231   3.730   1.663
    1STR    C06 1830   2.365   3.728   1.696
    1STR    C07 1831   2.413   3.798   1.806
    1STR    N08 1832   2.511   3.732   1.876
    1STR    C09 1833   2.496   3.700   2.004
    1STR    O0A 1834   2.436   3.770   2.085
    1STR    O0B 1835   2.536   3.574   2.033
    1STR    C0C 1836   2.636   3.501   1.962
    1STR    C0D 1837   2.691   3.406   2.067
    1STR    C0E 1838   2.584   3.416   1.845
    1STR    O0F 1839   2.531   3.495   1.743
    1STR    C0G 1840   2.580   3.476   1.612
    1STR    C0H 1841   2.477   3.463   1.499
    1STR    C0I 1842   2.668   3.597   1.590
    1STR    O0J 1843   2.800   3.564   1.629
    1STR    C0K 1844   2.868   3.471   1.545
    1STR    C0M 1845   2.868   3.335   1.614
    1STR    C0N 1846   2.834   3.488   1.395
    1STR    O0O 1847   2.865   3.610   1.323
    1STR    C0P 1848   2.926   3.724   1.369
    1STR    O0Q 1849   3.000   3.792   1.299
    1STR    N0R 1850   2.899   3.754   1.494
    1STR    C0S 1851   2.982   3.810   1.587
    1STR    C0T 1852   2.982   3.946   1.623
    1STR    C0U 1853   3.051   3.982   1.740
    1STR    C0V 1854   3.098   3.882   1.827
    1STR    C0W 1855   3.179   3.913   1.945
    1STR    C0X 1856   3.082   3.747   1.797
    1STR    N0Y 1857   3.083   3.649   1.894
    1STR   BCK2 1858   3.092   3.517   1.877
    1STR    O10 1859   3.139   3.462   1.778
    1STR    C13 1860   3.044   3.717   1.669
    1STR    C14 1861   2.340   3.909   1.851
    1STR    C15 1862   2.214   3.932   1.796
    1STR    C16 1863   2.154   3.835   1.714
    1STR    C17 1864   2.007   3.828   1.706
    1STR    H1B 1865   2.087   3.628   1.547
    1STR    H1C 1866   2.419   3.651   1.653
    1STR    H1D 1867   2.550   3.653   1.825
    1STR    H1E 1868   2.715   3.568   1.929
    1STR    H1F 1869   2.613   3.342   2.107
    1STR    H1G 1870   2.769   3.343   2.024
    1STR    H1H 1871   2.735   3.463   2.148
    1STR    H1I 1872   2.505   3.349   1.878
    1STR    H1J 1873   2.664   3.352   1.810
    1STR    H1K 1874   2.630   3.382   1.605
    1STR    H1M 1875   2.415   3.551   1.483
    1STR    H1N 1876   2.414   3.377   1.514
    1STR    H1O 1877   2.525   3.448   1.402
    1STR    H1P 1878   2.659   3.637   1.489
    1STR    H1Q 1879   2.638   3.682   1.652
    1STR    H1R 1880   2.973   3.486   1.543
    1STR    H1S 1881   2.964   3.286   1.600
    1STR    H1T 1882   2.791   3.265   1.583
    1STR    H1U 1883   2.863   3.349   1.722
    1STR    H1V 1884   2.730   3.464   1.376
    1STR    H1W 1885   2.882   3.409   1.340
    1STR    H1X 1886   2.844   3.680   1.539
    1STR    H1Y 1887   2.933   4.019   1.561
    1STR    H1Z 1888   3.065   4.085   1.767
    1STR    H20 1889   3.122   3.883   2.033
    1STR    H21 1890   3.267   3.849   1.939
    1STR    H22 1891   3.211   4.016   1.950
    1STR    H23 1892   3.039   3.677   1.983
    1STR    H27 1893   3.054   3.617   1.641
    1STR    H28 1894   2.372   3.966   1.936
    1STR    H29 1895   2.154   4.010   1.839
    1STR    H2A 1896   1.976   3.882   1.619
    1STR    H2B 1897   1.963   3.864   1.798
    1STR    H2C 1898   1.971   3.728   1.696
    1STR   BCK1 1899   2.141   3.465   3.358
    1STR    O03 1900   2.062   3.532   3.294
    1STR    N04 1901   2.129   3.332   3.354
    1STR    C05 1902   2.190   3.227   3.421
    1STR    C06 1903   2.288   3.246   3.517
    1STR    C07 1904   2.329   3.143   3.602
    1STR    N08 1905   2.444   3.155   3.673
    1STR    C09 1906   2.559   3.162   3.606
    1STR    O0A 1907   2.654   3.095   3.638
    1STR    O0B 1908   2.554   3.238   3.497
    1STR    C0C 1909   2.607   3.369   3.499
    1STR    C0D 1910   2.593   3.421   3.356
    1STR    C0E 1911   2.542   3.466   3.603
    1STR    O0F 1912   2.473   3.407   3.713
    1STR    C0G 1913   2.533   3.420   3.841
    1STR    C0H 1914   2.433   3.383   3.949
    1STR    C0I 1915   2.656   3.331   3.850
    1STR    O0J 1916   2.743   3.363   3.744
    1STR    C0K 1917   2.818   3.483   3.749
    1STR    C0M 1918   2.853   3.543   3.612
    1STR    C0N 1919   2.806   3.582   3.868
    1STR    O0O 1920   2.800   3.522   3.998
    1STR    C0P 1921   2.913   3.498   4.062
    1STR    O0Q 1922   2.986   3.585   4.106
    1STR    N0R 1923   2.950   3.370   4.049
    1STR    C0S 1924   3.031   3.332   3.943
    1STR    C0T 1925   3.017   3.203   3.889
    1STR    C0U 1926   3.076   3.173   3.766
    1STR    C0V 1927   3.137   3.274   3.691
    1STR    C0W 1928   3.213   3.239   3.566
    1STR    C0X 1929   3.138   3.406   3.737
    1STR    N0Y 1930   3.163   3.508   3.644
    1STR   BCK2 1931   3.168   3.640   3.646
    1STR    O10 1932   3.221   3.700   3.554
    1STR    C13 1933   3.103   3.429   3.871
    1STR    C14 1934   2.259   3.023   3.604
    1STR    C15 1935   2.172   2.997   3.499
    1STR    C16 1936   2.146   3.095   3.402
    1STR    C17 1937   2.058   3.056   3.288
    1STR    H1B 1938   2.048   3.305   3.302
    1STR    H1C 1939   2.337   3.339   3.529
    1STR    H1D 1940   2.439   3.243   3.724
    1STR    H1E 1941   2.713   3.356   3.518
    1STR    H1F 1942   2.488   3.424   3.326
    1STR    H1G 1943   2.634   3.522   3.347
    1STR    H1H 1944   2.645   3.357   3.286
    1STR    H1I 1945   2.476   3.530   3.551
    1STR    H1J 1946   2.605   3.544   3.641
    1STR    H1K 1947   2.557   3.524   3.857
    1STR    H1M 1948   2.382   3.289   3.926
    1STR    H1N 1949   2.358   3.461   3.962
    1STR    H1O 1950   2.484   3.373   4.044
    1STR    H1P 1951   2.702   3.331   3.947
    1STR    H1Q 1952   2.627   3.226   3.841
    1STR    H1R 1953   2.904   3.426   3.764
    1STR    H1S 1954   2.916   3.630   3.624
    1STR    H1T 1955   2.774   3.580   3.549
    1STR    H1U 1956   2.910   3.471   3.553
    1STR    H1V 1957   2.722   3.650   3.854
    1STR    H1W 1958   2.891   3.648   3.869
    1STR    H1X 1959   2.878   3.305   4.072
    1STR    H1Y 1960   2.962   3.126   3.940
    1STR    H1Z 1961   3.076   3.071   3.732
    1STR    H20 1962   3.161   3.176   3.498
    1STR    H21 1963   3.240   3.327   3.513
    1STR    H22 1964   3.306   3.195   3.594
    1STR    H23 1965   3.196   3.477   3.555
    1STR    H27 1966   3.108   3.526   3.911
    1STR    H28 1967   2.283   2.949   3.679
    1STR    H29 1968   2.122   2.903   3.497
    1STR    H2A 1969   2.039   2.949   3.287
    1STR    H2B 1970   2.106   3.082   3.194
    1STR    H2C 1971   1.963   3.107   3.297
    1STR   BCK1 1972   2.252   3.584   5.356
    1STR    O03 1973   2.254   3.614   5.474
    1STR    N04 1974   2.228   3.669   5.257
    1STR    C05 1975   2.191   3.803   5.253
    1STR    C06 1976   2.247   3.901   5.338
    1STR    C07 1977   2.252   4.034   5.291
    1STR    N08 1978   2.372   4.099   5.302
    1STR    C09 1979   2.455   4.076   5.201
    1STR    O0A 1980   2.429   4.090   5.081
    1STR    O0B 1981   2.555   4.006   5.247
    1STR    C0C 1982   2.603   3.896   5.172
    1STR    C0D 1983   2.726   3.869   5.252
    1STR    C0E 1984   2.513   3.774   5.180
    1STR    O0F 1985   2.465   3.724   5.056
    1STR    C0G 1986   2.487   3.586   5.042
    1STR    C0H 1987   2.407   3.534   4.925
    1STR    C0I 1988   2.634   3.565   5.018
    1STR    O0J 1989   2.698   3.561   5.143
    1STR    C0K 1990   2.692   3.445   5.224
    1STR    C0M 1991   2.615   3.468   5.350
    1STR    C0N 1992   2.673   3.309   5.155
    1STR    O0O 1993   2.761   3.298   5.044
    1STR    C0P 1994   2.886   3.320   5.071
    1STR    O0Q 1995   2.955   3.247   5.142
    1STR    N0R 1996   2.918   3.441   5.026
    1STR    C0S 1997   2.970   3.545   5.101
    1STR    C0T 1998   2.959   3.675   5.048
    1STR    C0U 1999   2.987   3.786   5.127
    1STR    C0V 2000   3.013   3.770   5.265
    1STR    C0W 2001   3.014   3.888   5.358
    1STR    C0X 2002   3.018   3.641   5.318
    1STR    N0Y 2003   3.012   3.629   5.454
    1STR   BCK2 2004   2.946   3.537   5.521
    1STR    O10 2005   2.880   3.445   5.474
    1STR    C13 2006   3.012   3.530   5.234
    1STR    C14 2007   2.165   4.076   5.190
    1STR    C15 2008   2.096   3.981   5.116
    1STR    C16 2009   2.119   3.846   5.141
    1STR    C17 2010   2.083   3.752   5.032
    1STR    H1B 2011   2.226   3.628   5.165
    1STR    H1C 2012   2.315   3.868   5.414
    1STR    H1D 2013   2.419   4.113   5.393
    1STR    H1E 2014   2.626   3.922   5.069
    1STR    H1F 2015   2.707   3.873   5.359
    1STR    H1G 2016   2.763   3.770   5.231
    1STR    H1H 2017   2.797   3.947   5.228
    1STR    H1I 2018   2.430   3.805   5.236
    1STR    H1J 2019   2.552   3.699   5.247
    1STR    H1K 2020   2.454   3.530   5.129
    1STR    H1M 2021   2.415   3.600   4.839
    1STR    H1N 2022   2.306   3.527   4.960
    1STR    H1O 2023   2.439   3.434   4.896
    1STR    H1P 2024   2.653   3.478   4.956
    1STR    H1Q 2025   2.673   3.649   4.963
    1STR    H1R 2026   2.790   3.438   5.265
    1STR    H1S 2027   2.632   3.382   5.414
    1STR    H1T 2028   2.511   3.482   5.334
    1STR    H1U 2029   2.654   3.555   5.401
    1STR    H1V 2030   2.571   3.301   5.121
    1STR    H1W 2031   2.693   3.229   5.225
    1STR    H1X 2032   2.863   3.472   4.948
    1STR    H1Y 2033   2.929   3.690   4.946
    1STR    H1Z 2034   2.971   3.883   5.084
    1STR    H20 2035   2.932   3.879   5.430
    1STR    H21 2036   3.107   3.893   5.414
    1STR    H22 2037   2.999   3.978   5.301
    1STR    H23 2038   3.060   3.696   5.512
    1STR    H27 2039   3.020   3.432   5.278
    1STR    H28 2040   2.169   4.177   5.153
    1STR    H29 2041   2.039   4.012   5.030
    1STR    H2A 2042   2.074   3.649   5.065
    1STR    H2B 2043   2.162   3.760   4.959
    1STR    H2C 2044   1.988   3.783   4.989
    1STR   BCK1 2045   2.293   5.344   7.023
    1STR    O03 2046   2.294   5.381   6.907
    1STR    N04 2047   2.267   5.431   7.120
    1STR    C05 2048   2.269   5.426   0.069
    1STR    C06 2049   2.300   5.310   0.141
    1STR    C07 2050   2.332   5.315   0.277
    1STR    N08 2051   2.406   5.215   0.337
    1STR    C09 2052   2.438   5.098   0.284
    1STR    O0A 2053   2.369   5.028   0.210
    1STR    O0B 2054   2.564   5.074   0.311
    1STR    C0C 2055   2.662   5.090   0.209
    1STR    C0D 2056   2.697   4.957   0.143
    1STR    C0E 2057   2.627   5.195   0.104
    1STR    O0F 2058   2.619   5.320   0.172
    1STR    C0G 2059   2.595   5.429   0.086
    1STR    C0H 2060   2.578   5.555   0.170
    1STR    C0I 2061   2.711   5.448   7.186
    1STR    O0J 2062   2.690   5.376   7.066
    1STR    C0K 2063   2.729   5.450   6.953
    1STR    C0M 2064   2.748   5.344   6.848
    1STR    C0N 2065   2.620   5.555   6.918
    1STR    O0O 2066   2.606   5.661   7.013
    1STR    C0P 2067   2.675   5.774   6.996
    1STR    O0Q 2068   2.724   5.810   6.890
    1STR    N0R 2069   2.712   5.825   7.114
    1STR    C0S 2070   2.826   5.780   7.177
    1STR    C0T 2071   2.846   5.804   0.124
    1STR    C0U 2072   2.952   5.740   0.191
    1STR    C0V 2073   3.027   5.643   0.123
    1STR    C0W 2074   3.147   5.585   0.188
    1STR    C0X 2075   2.996   5.607   7.182
    1STR    N0Y 2076   3.046   5.495   7.119
    1STR   BCK2 2077   3.057   5.370   7.164
    1STR    O10 2078   3.108   5.288   7.093
    1STR    C13 2079   2.912   5.691   7.110
    1STR    C14 2080   2.315   5.435   0.346
    1STR    C15 2081   2.271   5.549   0.278
    1STR    C16 2082   2.252   5.546   0.139
    1STR    C17 2083   2.215   5.675   0.071
    1STR    H1B 2084   2.252   5.525   7.088
    1STR    H1C 2085   2.312   5.217   0.093
    1STR    H1D 2086   2.480   5.249   0.396
    1STR    H1E 2087   2.751   5.127   0.259
    1STR    H1F 2088   2.610   4.913   0.094
    1STR    H1G 2089   2.775   4.971   0.068
    1STR    H1H 2090   2.734   4.887   0.217
    1STR    H1I 2091   2.534   5.173   0.051
    1STR    H1J 2092   2.705   5.196   0.028
    1STR    H1K 2093   2.509   5.414   0.023
    1STR    H1M 2094   2.530   5.533   0.264
    1STR    H1N 2095   2.518   5.628   0.115
    1STR    H1O 2096   2.672   5.602   0.196
    1STR    H1P 2097   2.724   5.552   7.171
    1STR    H1Q 2098   2.799   5.417   0.047
    1STR    H1R 2099   2.827   5.493   6.967
    1STR    H1S 2100   2.781   5.387   6.754
    1STR    H1T 2101   2.658   5.286   6.836
    1STR    H1U 2102   2.826   5.277   6.883
    1STR    H1V 2103   2.524   5.505   6.915
    1STR    H1W 2104   2.639   5.596   6.819
    1STR    H1X 2105   2.637   5.853   7.174
    1STR    H1Y 2106   2.781   5.867   0.181
    1STR    H1Z 2107   2.971   5.761   0.294
    1STR    H20 2108   3.115   5.525   0.272
    1STR    H21 2109   3.203   5.522   0.121
    1STR    H22 2110   3.212   5.667   0.212
    1STR    H23 2111   3.077   5.500   7.024
    1STR    H27 2112   2.899   5.674   7.005
    1STR    H28 2113   2.341   5.442   0.450
    1STR    H29 2114   2.257   5.642   0.330
    1STR    H2A 2115   2.275   5.692   7.172
    1STR    H2B 2116   2.232   5.759   0.138
    1STR    H2C 2117   2.108   5.674   0.048
    1STR   BCK1 2118   2.296   5.422   1.789
    1STR    O03 2119   2.323   5.533   1.743
    1STR    N04 2120   2.239   5.324   1.718
    1STR    C05 2121   2.264   5.289   1.586
    1STR    C06 2122   2.345   5.367   1.503
    1STR    C07 2123   2.391   5.317   1.380
    1STR    N08 2124   2.480   5.394   1.311
    1STR    C09 2125   2.601   5.375   1.359
    1STR    O0A 2126   2.680   5.291   1.318
    1STR    O0B 2127   2.617   5.457   1.462
    1STR    C0C 2128   2.695   5.415   1.572
    1STR    C0D 2129   2.760   5.541   1.627
    1STR    C0E 2130   2.616   5.344   1.682
    1STR    O0F 2131   2.552   5.225   1.638
    1STR    C0G 2132   2.546   5.125   1.739
    1STR    C0H 2133   2.425   5.035   1.725
    1STR    C0I 2134   2.670   5.040   1.723
    1STR    O0J 2135   2.778   5.102   1.787
    1STR    C0K 2136   2.807   5.064   1.921
    1STR    C0M 2137   2.724   5.147   2.019
    1STR    C0N 2138   2.813   4.913   1.952
    1STR    O0O 2139   2.865   4.840   1.841
    1STR    C0P 2140   2.983   4.877   1.795
    1STR    O0Q 2141   3.083   4.899   1.862
    1STR    N0R 2142   2.969   4.902   1.666
    1STR    C0S 2143   2.989   5.029   1.613
    1STR    C0T 2144   2.931   5.051   1.488
    1STR    C0U 2145   2.938   5.177   1.430
    1STR    C0V 2146   2.997   5.283   1.499
    1STR    C0W 2147   3.007   5.415   1.432
    1STR    C0X 2148   3.046   5.266   1.629
    1STR    N0Y 2149   3.100   5.377   1.692
    1STR   BCK2 2150   3.091   5.419   1.817
    1STR    O10 2151   3.150   5.518   1.854
    1STR    C13 2152   3.047   5.137   1.683
    1STR    C14 2153   2.352   5.190   1.336
    1STR    C15 2154   2.262   5.116   1.413
    1STR    C16 2155   2.219   5.166   1.537
    1STR    C17 2156   2.114   5.089   1.610
    1STR    H1B 2157   2.191   5.254   1.773
    1STR    H1C 2158   2.382   5.462   1.536
    1STR    H1D 2159   2.456   5.489   1.324
    1STR    H1E 2160   2.769   5.344   1.539
    1STR    H1F 2161   2.685   5.605   1.671
    1STR    H1G 2162   2.834   5.514   1.702
    1STR    H1H 2163   2.809   5.595   1.547
    1STR    H1I 2164   2.543   5.411   1.724
    1STR    H1J 2165   2.687   5.323   1.763
    1STR    H1K 2166   2.539   5.170   1.837
    1STR    H1M 2167   2.414   5.000   1.623
    1STR    H1N 2168   2.337   5.089   1.755
    1STR    H1O 2169   2.431   4.949   1.791
    1STR    H1P 2170   2.654   4.938   1.755
    1STR    H1Q 2171   2.692   5.035   1.617
    1STR    H1R 2172   2.909   5.097   1.934
    1STR    H1S 2173   2.771   5.145   2.117
    1STR    H1T 2174   2.622   5.111   2.028
    1STR    H1U 2175   2.721   5.251   1.986
    1STR    H1V 2176   2.713   4.876   1.974
    1STR    H1W 2177   2.875   4.898   2.040
    1STR    H1X 2178   2.890   4.853   1.629
    1STR    H1Y 2179   2.881   4.973   1.433
    1STR    H1Z 2180   2.897   5.192   1.331
    1STR    H20 2181   2.997   5.499   1.501
    1STR    H21 2182   3.109   5.411   1.397
    1STR    H22 2183   2.936   5.424   1.351
    1STR    H23 2184   3.154   5.440   1.633
    1STR    H27 2185   3.089   5.122   1.781
    1STR    H28 2186   2.391   5.148   1.244
    1STR    H29 2187   2.227   5.021   1.376
    1STR    H2A 2188   2.155   5.005   1.663
    1STR    H2B 2189   2.043   5.057   1.536
    1STR    H2C 2190   2.058   5.152   1.676
    1STR   BCK1 2191   2.130   5.335   3.485
    1STR    O03 2192   2.197   5.332   3.587
    1STR    N04 2193   2.091   5.447   3.421
    1STR    C05 2194   2.156   5.570   3.423
    1STR    C06 2195   2.253   5.597   3.519
    1STR    C07 2196   2.356   5.690   3.498
    1STR    N08 2197   2.466   5.689   3.580
    1STR    C09 2198   2.455   5.653   3.708
    1STR    O0A 2199   2.361   5.686   3.779
    1STR    O0B 2200   2.549   5.570   3.752
    1STR    C0C 2201   2.619   5.481   3.667
    1STR    C0D 2202   2.705   5.401   3.763
    1STR    C0E 2203   2.522   5.394   3.582
    1STR    O0F 2204   2.514   5.450   3.451
    1STR    C0G 2205   2.451   5.376   3.347
    1STR    C0H 2206   2.425   5.475   3.236
    1STR    C0I 2207   2.528   5.259   3.287
    1STR    O0J 2208   2.628   5.212   3.370
    1STR    C0K 2209   2.739   5.298   3.387
    1STR    C0M 2210   2.813   5.211   3.485
    1STR    C0N 2211   2.798   5.351   3.253
    1STR    O0O 2212   2.734   5.475   3.217
    1STR    C0P 2213   2.763   5.589   3.283
    1STR    O0Q 2214   2.682   5.658   3.346
    1STR    N0R 2215   2.892   5.617   3.282
    1STR    C0S 2216   2.953   5.633   3.403
    1STR    C0T 2217   2.942   5.746   3.487
    1STR    C0U 2218   3.011   5.744   3.609
    1STR    C0V 2219   3.078   5.628   3.652
    1STR    C0W 2220   3.166   5.637   3.769
    1STR    C0X 2221   3.076   5.511   3.573
    1STR    N0Y 2222   3.119   5.384   3.601
    1STR   BCK2 2223   3.100   5.300   3.701
    1STR    O10 2224   3.103   5.181   3.676
    1STR    C13 2225   3.024   5.523   3.446
    1STR    C14 2226   2.359   5.764   3.381
    1STR    C15 2227   2.250   5.756   3.293
    1STR    C16 2228   2.148   5.662   3.315
    1STR    C17 2229   2.035   5.667   3.219
    1STR    H1B 2230   2.014   5.429   3.359
    1STR    H1C 2231   2.256   5.540   3.610
    1STR    H1D 2232   2.549   5.664   3.528
    1STR    H1E 2233   2.685   5.539   3.602
    1STR    H1F 2234   2.645   5.332   3.822
    1STR    H1G 2235   2.782   5.346   3.710
    1STR    H1H 2236   2.756   5.469   3.831
    1STR    H1I 2237   2.424   5.391   3.627
    1STR    H1J 2238   2.556   5.291   3.579
    1STR    H1K 2239   2.358   5.337   3.385
    1STR    H1M 2240   2.488   5.563   3.243
    1STR    H1N 2241   2.324   5.510   3.241
    1STR    H1O 2242   2.439   5.436   3.136
    1STR    H1P 2243   2.459   5.177   3.269
    1STR    H1Q 2244   2.569   5.281   3.188
    1STR    H1R 2245   2.724   5.387   3.445
    1STR    H1S 2246   2.899   5.264   3.525
    1STR    H1T 2247   2.845   5.117   3.440
    1STR    H1U 2248   2.752   5.183   3.569
    1STR    H1V 2249   2.789   5.276   3.175
    1STR    H1W 2250   2.903   5.367   3.258
    1STR    H1X 2251   2.938   5.557   3.215
    1STR    H1Y 2252   2.887   5.832   3.456
    1STR    H1Z 2253   3.013   5.833   3.671
    1STR    H20 2254   3.109   5.629   3.862
    1STR    H21 2255   3.237   5.556   3.758
    1STR    H22 2256   3.220   5.731   3.765
    1STR    H23 2257   3.124   5.323   3.517
    1STR    H27 2258   3.035   5.440   3.382
    1STR    H28 2259   2.438   5.833   3.361
    1STR    H29 2260   2.245   5.823   3.210
    1STR    H2A 2261   1.975   5.581   3.232
    1STR    H2B 2262   2.069   5.674   3.116
    1STR    H2C 2263   1.971   5.752   3.239
    1STR   BCK1 2264   2.235   5.514   5.299
    1STR    O03 2265   2.153   5.601   5.280
    1STR    N04 2266   2.262   5.482   5.425
    1STR    C05 2267   2.331   5.379   5.486
    1STR    C06 2268   2.368   5.261   5.422
    1STR    C07 2269   2.422   5.153   5.491
    1STR    N08 2270   2.478   5.052   5.418
    1STR    C09 2271   2.601   5.080   5.379
    1STR    O0A 2272   2.700   5.054   5.446
    1STR    O0B 2273   2.596   5.157   5.270
    1STR    C0C 2274   2.713   5.214   5.215
    1STR    C0D 2275   2.766   5.116   5.112
    1STR    C0E 2276   2.673   5.346   5.149
    1STR    O0F 2277   2.589   5.430   5.227
    1STR    C0G 2278   2.651   5.519   5.318
    1STR    C0H 2279   2.554   5.634   5.343
    1STR    C0I 2280   2.676   5.443   5.443
    1STR    O0J 2281   2.704   5.522   5.557
    1STR    C0K 2282   2.693   5.451   5.680
    1STR    C0M 2283   2.725   5.302   5.666
    1STR    C0N 2284   2.779   5.525   5.781
    1STR    O0O 2285   2.846   5.437   5.871
    1STR    C0P 2286   2.968   5.402   5.838
    1STR    O0Q 2287   3.057   5.482   5.806
    1STR    N0R 2288   2.974   5.270   5.832
    1STR    C0S 2289   3.010   5.198   5.719
    1STR    C0T 2290   2.959   5.068   5.708
    1STR    C0U 2291   2.964   5.002   5.585
    1STR    C0V 2292   3.011   5.067   5.470
    1STR    C0W 2293   3.016   4.992   5.340
    1STR    C0X 2294   3.048   5.201   5.478
    1STR    N0Y 2295   3.059   5.267   5.357
    1STR   BCK2 2296   3.052   5.396   5.325
    1STR    O10 2297   3.076   5.430   5.210
    1STR    C13 2298   3.063   5.260   5.604
    1STR    C14 2299   2.436   5.160   5.630
    1STR    C15 2300   2.409   5.282   5.695
    1STR    C16 2301   2.360   5.392   5.623
    1STR    C17 2302   2.351   5.528   5.689
    1STR    H1B 2303   2.209   5.537   5.490
    1STR    H1C 2304   2.360   5.251   5.317
    1STR    H1D 2305   2.428   5.032   5.331
    1STR    H1E 2306   2.788   5.228   5.292
    1STR    H1F 2307   2.690   5.098   5.039
    1STR    H1G 2308   2.856   5.154   5.065
    1STR    H1H 2309   2.785   5.020   5.159
    1STR    H1I 2310   2.611   5.323   5.063
    1STR    H1J 2311   2.761   5.400   5.113
    1STR    H1K 2312   2.745   5.555   5.279
    1STR    H1M 2313   2.478   5.605   5.416
    1STR    H1N 2314   2.503   5.665   5.253
    1STR    H1O 2315   2.607   5.718   5.386
    1STR    H1P 2316   2.589   5.381   5.459
    1STR    H1Q 2317   2.762   5.378   5.426
    1STR    H1R 2318   2.592   5.459   5.715
    1STR    H1S 2319   2.727   5.249   5.761
    1STR    H1T 2320   2.818   5.293   5.613
    1STR    H1U 2321   2.658   5.248   5.603
    1STR    H1V 2322   2.715   5.594   5.835
    1STR    H1W 2323   2.851   5.583   5.725
    1STR    H1X 2324   2.899   5.229   5.884
    1STR    H1Y 2325   2.912   5.018   5.790
    1STR    H1Z 2326   2.923   4.905   5.574
    1STR    H20 2327   3.121   4.980   5.314
    1STR    H21 2328   2.970   4.894   5.349
    1STR    H22 2329   2.967   5.048   5.262
    1STR    H23 2330   3.068   5.207   5.278
    1STR    H27 2331   3.104   5.357   5.613
    1STR    H28 2332   2.483   5.080   5.683
    1STR    H29 2333   2.434   5.292   5.799
    1STR    H2A 2334   2.256   5.577   5.670
    1STR    H2B 2335   2.428   5.593   5.647
    1STR    H2C 2336   2.367   5.521   5.796
    1STR   BCK1 2337   4.084   7.006   0.055
    1STR    O03 2338   4.110   7.095   0.135
    1STR    N04 2339   4.033   7.020   7.125
    1STR    C05 2340   3.997   7.131   7.054
    1STR    C06 2341   4.014   0.072   7.101
    1STR    C07 2342   3.976   0.180   7.020
    1STR    N08 2343   4.025   0.303   7.054
    1STR    C09 2344   4.112   0.356   6.969
    1STR    O0A 2345   4.091   0.380   6.850
    1STR    O0B 2346   4.230   0.359   7.027
    1STR    C0C 2347   4.331   0.280   6.968
    1STR    C0D 2348   4.466   0.336   7.010
    1STR    C0E 2349   4.317   0.134   7.012
    1STR    O0F 2350   4.257   0.061   6.906
    1STR    C0G 2351   4.292   7.114   6.906
    1STR    C0H 2352   4.211   7.035   6.805
    1STR    C0I 2353   4.439   7.102   6.875
    1STR    O0J 2354   4.516   7.093   6.993
    1STR    C0K 2355   4.502   6.985   7.083
    1STR    C0M 2356   4.429   7.026   0.020
    1STR    C0N 2357   4.483   6.842   7.030
    1STR    O0O 2358   4.505   6.828   6.891
    1STR    C0P 2359   4.608   6.762   6.842
    1STR    O0Q 2360   4.594   6.653   6.790
    1STR    N0R 2361   4.728   6.818   6.847
    1STR    C0S 2362   4.756   6.948   6.884
    1STR    C0T 2363   4.736   7.053   6.793
    1STR    C0U 2364   4.752   7.186   6.836
    1STR    C0V 2365   4.779   0.022   6.971
    1STR    C0W 2366   4.767   0.161   7.026
    1STR    C0X 2367   4.803   7.106   7.059
    1STR    N0Y 2368   4.808   7.138   0.003
    1STR   BCK2 2369   4.775   7.067   0.110
    1STR    O10 2370   4.744   6.948   0.115
    1STR    C13 2371   4.804   6.974   7.013
    1STR    C14 2372   3.906   0.157   6.901
    1STR    C15 2373   3.883   0.026   6.859
    1STR    C16 2374   3.934   7.108   6.932
    1STR    C17 2375   3.903   6.968   6.885
    1STR    H1B 2376   4.009   6.935   7.078
    1STR    H1C 2377   4.063   0.090   0.004
    1STR    H1D 2378   4.058   0.310   7.149
    1STR    H1E 2379   4.325   0.284   6.859
    1STR    H1F 2380   4.482   0.322   7.117
    1STR    H1G 2381   4.543   0.283   6.955
    1STR    H1H 2382   4.473   0.441   6.986
    1STR    H1I 2383   4.261   0.124   7.104
    1STR    H1J 2384   4.415   0.098   7.039
    1STR    H1K 2385   4.268   7.071   7.002
    1STR    H1M 2386   4.141   7.100   6.753
    1STR    H1N 2387   4.157   6.958   6.858
    1STR    H1O 2388   4.271   6.983   6.731
    1STR    H1P 2389   4.463   7.024   6.804
    1STR    H1Q 2390   4.471   7.191   6.822
    1STR    H1R 2391   4.599   6.979   7.126
    1STR    H1S 2392   4.446   6.954   0.099
    1STR    H1T 2393   4.323   7.037   0.005
    1STR    H1U 2394   4.467   7.122   0.053
    1STR    H1V 2395   4.381   6.811   7.049
    1STR    H1W 2396   4.549   6.775   7.086
    1STR    H1X 2397   4.804   6.763   6.813
    1STR    H1Y 2398   4.706   7.033   6.692
    1STR    H1Z 2399   4.734   0.076   6.767
    1STR    H20 2400   4.676   0.168   7.084
    1STR    H21 2401   4.850   0.181   7.094
    1STR    H22 2402   4.768   0.234   6.946
    1STR    H23 2403   4.832   0.043   0.023
    1STR    H27 2404   4.823   6.893   7.080
    1STR    H28 2405   3.875   0.240   6.840
    1STR    H29 2406   3.827   0.006   6.770
    1STR    H2A 2407   3.935   6.887   6.950
    1STR    H2B 2408   3.952   6.952   6.789
    1STR    H2C 2409   3.796   6.959   6.876
    1STR   BCK1 2410   3.947   7.161   1.704
    1STR    O03 2411   3.999   0.039   1.617
    1STR    N04 2412   3.875   0.026   1.801
    1STR    C05 2413   3.937   0.128   1.869
    1STR    C06 2414   4.054   0.090   1.930
    1STR    C07 2415   4.140   0.178   1.993
    1STR    N08 2416   4.253   0.122   2.045
    1STR    C09 2417   4.233   0.021   2.129
    1STR    O0A 2418   4.143   0.020   2.211
    1STR    O0B 2419   4.307   7.104   2.109
    1STR    C0C 2420   4.380   7.072   1.992
    1STR    C0D 2421   4.409   6.926   2.018
    1STR    C0E 2422   4.310   7.084   1.856
    1STR    O0F 2423   4.339   0.019   1.795
    1STR    C0G 2424   4.295   0.028   1.660
    1STR    C0H 2425   4.256   0.173   1.638
    1STR    C0I 2426   4.393   7.174   1.550
    1STR    O0J 2427   4.471   7.061   1.579
    1STR    C0K 2428   4.566   7.070   1.684
    1STR    C0M 2429   4.654   6.950   1.664
    1STR    C0N 2430   4.641   0.011   1.697
    1STR    O0O 2431   4.564   0.132   1.707
    1STR    C0P 2432   4.567   0.202   1.820
    1STR    O0Q 2433   4.569   0.152   1.932
    1STR    N0R 2434   4.609   0.325   1.790
    1STR    C0S 2435   4.745   0.335   1.807
    1STR    C0T 2436   4.805   0.384   1.923
    1STR    C0U 2437   4.936   0.342   1.954
    1STR    C0V 2438   4.992   0.235   1.883
    1STR    C0W 2439   5.125   0.175   1.916
    1STR    C0X 2440   4.924   0.184   1.773
    1STR    N0Y 2441   4.949   0.062   1.715
    1STR   BCK2 2442   4.938   7.132   1.770
    1STR    O10 2443   4.940   7.032   1.702
    1STR    C13 2444   4.817   0.253   1.720
    1STR    C14 2445   4.103   0.312   2.003
    1STR    C15 2446   3.977   0.349   1.956
    1STR    C16 2447   3.893   0.259   1.887
    1STR    C17 2448   3.757   0.300   1.845
    1STR    H1B 2449   3.810   7.159   1.855
    1STR    H1C 2450   4.075   7.177   1.932
    1STR    H1D 2451   4.332   0.120   1.981
    1STR    H1E 2452   4.472   7.130   1.991
    1STR    H1F 2453   4.318   6.867   2.011
    1STR    H1G 2454   4.477   6.890   1.941
    1STR    H1H 2455   4.451   6.910   2.116
    1STR    H1I 2456   4.207   7.067   1.862
    1STR    H1J 2457   4.337   7.002   1.789
    1STR    H1K 2458   4.211   7.152   1.648
    1STR    H1M 2459   4.340   0.240   1.652
    1STR    H1N 2460   4.178   0.203   1.707
    1STR    H1O 2461   4.218   0.188   1.537
    1STR    H1P 2462   4.335   7.148   1.463
    1STR    H1Q 2463   4.456   0.066   1.516
    1STR    H1R 2464   4.529   7.053   1.783
    1STR    H1S 2465   4.722   6.937   1.747
    1STR    H1T 2466   4.710   6.959   1.571
    1STR    H1U 2467   4.592   6.860   1.658
    1STR    H1V 2468   4.708   0.018   1.612
    1STR    H1W 2469   4.700   0.004   1.787
    1STR    H1X 2470   4.573   0.352   1.701
    1STR    H1Y 2471   4.751   0.450   1.989
    1STR    H1Z 2472   4.986   0.384   2.038
    1STR    H20 2473   5.111   0.095   1.987
    1STR    H21 2474   5.171   0.131   1.829
    1STR    H22 2475   5.193   0.250   1.956
    1STR    H23 2476   4.974   0.062   1.618
    1STR    H27 2477   4.771   0.218   1.630
    1STR    H28 2478   4.163   0.385   2.052
    1STR    H29 2479   3.948   0.448   1.981
    1STR    H2A 2480   3.727   0.235   1.765
    1STR    H2B 2481   3.755   0.404   1.812
    1STR    H2C 2482   3.688   0.286   1.926
    1STR   BCK1 2483   4.143   7.152   3.770
    1STR    O03 2484   4.213   0.008   3.682
    1STR    N04 2485   4.081   7.035   3.762
    1STR    C05 2486   4.063   6.962   3.647
    1STR    C06 2487   4.068   7.019   3.518
    1STR    C07 2488   4.075   6.940   3.404
    1STR    N08 2489   4.099   7.003   3.284
    1STR    C09 2490   4.223   6.991   3.240
    1STR    O0A 2491   4.280   6.884   3.220
    1STR    O0B 2492   4.281   7.110   3.246
    1STR    C0C 2493   4.407   7.118   3.310
    1STR    C0D 2494   4.469   0.064   3.294
    1STR    C0E 2495   4.393   7.084   3.456
    1STR    O0F 2496   4.405   6.944   3.464
    1STR    C0G 2497   4.411   6.896   3.595
    1STR    C0H 2498   4.369   6.751   3.583
    1STR    C0I 2499   4.557   6.907   3.637
    1STR    O0J 2500   4.597   7.039   3.671
    1STR    C0K 2501   4.578   7.090   3.803
    1STR    C0M 2502   4.520   0.038   3.787
    1STR    C0N 2503   4.516   6.999   3.911
    1STR    O0O 2504   4.587   6.877   3.930
    1STR    C0P 2505   4.717   6.878   3.949
    1STR    O0Q 2506   4.781   6.963   4.010
    1STR    N0R 2507   4.773   6.787   3.870
    1STR    C0S 2508   4.850   6.822   3.761
    1STR    C0T 2509   4.903   6.722   3.680
    1STR    C0U 2510   4.945   6.754   3.552
    1STR    C0V 2511   4.933   6.883   3.503
    1STR    C0W 2512   4.968   6.912   3.364
    1STR    C0X 2513   4.900   6.988   3.589
    1STR    N0Y 2514   4.922   7.117   3.543
    1STR   BCK2 2515   4.926   0.048   3.599
    1STR    O10 2516   4.964   0.140   3.530
    1STR    C13 2517   4.859   6.954   3.717
    1STR    C14 2518   4.080   6.802   3.418
    1STR    C15 2519   4.059   6.745   3.544
    1STR    C16 2520   4.039   6.825   3.656
    1STR    C17 2521   3.996   6.764   3.784
    1STR    H1B 2522   4.037   7.007   3.849
    1STR    H1C 2523   4.076   7.125   3.506
    1STR    H1D 2524   4.059   7.094   3.275
    1STR    H1E 2525   4.472   7.044   3.268
    1STR    H1F 2526   4.400   0.137   3.334
    1STR    H1G 2527   4.563   0.071   3.349
    1STR    H1H 2528   4.489   0.085   3.189
    1STR    H1I 2529   4.297   7.118   3.489
    1STR    H1J 2530   4.467   7.137   3.516
    1STR    H1K 2531   4.344   6.949   3.663
    1STR    H1M 2532   4.333   6.728   3.483
    1STR    H1N 2533   4.288   6.732   3.651
    1STR    H1O 2534   4.449   6.681   3.607
    1STR    H1P 2535   4.580   6.832   3.710
    1STR    H1Q 2536   4.618   6.882   3.552
    1STR    H1R 2537   4.673   7.117   3.845
    1STR    H1S 2538   4.533   0.098   3.877
    1STR    H1T 2539   4.415   0.033   3.766
    1STR    H1U 2540   4.568   0.090   3.704
    1STR    H1V 2541   4.414   6.978   3.882
    1STR    H1W 2542   4.512   7.052   4.006
    1STR    H1X 2543   4.714   6.707   3.848
    1STR    H1Y 2544   4.906   6.619   3.712
    1STR    H1Z 2545   4.988   6.678   3.490
    1STR    H20 2546   4.907   6.993   3.325
    1STR    H21 2547   5.071   6.942   3.372
    1STR    H22 2548   4.957   6.825   3.299
    1STR    H23 2549   4.949   7.123   3.447
    1STR    H27 2550   4.830   7.031   3.781
    1STR    H28 2551   4.099   6.741   3.332
    1STR    H29 2552   4.063   6.640   3.558
    1STR    H2A 2553   4.063   6.794   3.863
    1STR    H2B 2554   3.992   6.656   3.773
    1STR    H2C 2555   3.895   6.797   3.806
    1STR   BCK1 2556   3.966   7.100   5.180
    1STR    O03 2557   4.066   7.102   5.250
    1STR    N04 2558   3.909   0.016   5.120
    1STR    C05 2559   3.932   0.151   5.144
    1STR    C06 2560   3.967   0.189   5.273
    1STR    C07 2561   4.012   0.317   5.300
    1STR    N08 2562   4.072   0.331   5.422
    1STR    C09 2563   4.198   0.364   5.431
    1STR    O0A 2564   4.256   0.447   5.362
    1STR    O0B 2565   4.250   0.277   5.512
    1STR    C0C 2566   4.337   0.185   5.451
    1STR    C0D 2567   4.396   0.098   5.562
    1STR    C0E 2568   4.262   0.097   5.348
    1STR    O0F 2569   4.229   0.161   5.224
    1STR    C0G 2570   4.288   0.122   5.101
    1STR    C0H 2571   4.198   0.058   4.997
    1STR    C0I 2572   4.340   0.251   5.037
    1STR    O0J 2573   4.462   0.296   5.090
    1STR    C0K 2574   4.565   0.200   5.091
    1STR    C0M 2575   4.572   0.142   5.229
    1STR    C0N 2576   4.572   0.095   4.978
    1STR    O0O 2577   4.628   0.154   4.864
    1STR    C0P 2578   4.733   0.097   4.808
    1STR    O0Q 2579   4.734   0.059   4.692
    1STR    N0R 2580   4.838   0.075   4.886
    1STR    C0S 2581   4.866   0.108   5.016
    1STR    C0T 2582   4.884   0.242   5.050
    1STR    C0U 2583   4.887   0.277   5.185
    1STR    C0V 2584   4.873   0.181   5.285
    1STR    C0W 2585   4.840   0.225   5.425
    1STR    C0X 2586   4.867   0.046   5.251
    1STR    N0Y 2587   4.828   7.153   5.353
    1STR   BCK2 2588   4.780   7.030   5.356
    1STR    O10 2589   4.770   6.955   5.259
    1STR    C13 2590   4.865   0.009   5.116
    1STR    C14 2591   4.009   0.415   5.201
    1STR    C15 2592   3.957   0.383   5.076
    1STR    C16 2593   3.917   0.252   5.046
    1STR    C17 2594   3.866   0.226   4.908
    1STR    H1B 2595   3.819   7.187   5.075
    1STR    H1C 2596   3.977   0.115   5.350
    1STR    H1D 2597   4.051   0.259   5.490
    1STR    H1E 2598   4.416   0.245   5.405
    1STR    H1F 2599   4.319   0.039   5.612
    1STR    H1G 2600   4.472   0.031   5.523
    1STR    H1H 2601   4.444   0.162   5.636
    1STR    H1I 2602   4.172   0.065   5.398
    1STR    H1J 2603   4.314   0.005   5.331
    1STR    H1K 2604   4.361   0.045   5.119
    1STR    H1M 2605   4.121   0.127   4.967
    1STR    H1N 2606   4.155   7.156   5.031
    1STR    H1O 2607   4.255   0.034   4.907
    1STR    H1P 2608   4.353   0.241   4.929
    1STR    H1Q 2609   4.268   0.331   5.052
    1STR    H1R 2610   4.650   0.265   5.081
    1STR    H1S 2611   4.634   0.056   5.234
    1STR    H1T 2612   4.483   0.102   5.265
    1STR    H1U 2613   4.603   0.218   5.299
    1STR    H1V 2614   4.479   0.051   4.946
    1STR    H1W 2615   4.629   0.008   5.011
    1STR    H1X 2616   4.910   0.021   4.836
    1STR    H1Y 2617   4.886   0.318   4.973
    1STR    H1Z 2618   4.896   0.379   5.212
    1STR    H20 2619   4.740   0.197   5.455
    1STR    H21 2620   4.908   0.179   5.495
    1STR    H22 2621   4.845   0.334   5.433
    1STR    H23 2622   4.825   0.011   5.442
    1STR    H27 2623   4.850   7.097   5.089
    1STR    H28 2624   4.045   0.513   5.222
    1STR    H29 2625   3.949   0.461   5.001
    1STR    H2A 2626   3.769   0.181   4.910
    1STR    H2B 2627   3.936   0.166   4.851
    1STR    H2C 2628   3.853   0.320   4.855
    1STR   BCK1 2629   4.032   1.854   7.013
    1STR    O03 2630   4.065   1.939   6.932
    1STR    N04 2631   4.025   1.888   7.143
    1STR    C05 2632   4.057   1.823   0.072
    1STR    C06 2633   4.110   1.694   0.074
    1STR    C07 2634   4.179   1.641   0.185
    1STR    N08 2635   4.250   1.523   0.181
    1STR    C09 2636   4.287   1.448   0.077
    1STR    O0A 2637   4.348   1.344   0.093
    1STR    O0B 2638   4.263   1.501   7.149
    1STR    C0C 2639   4.369   1.554   7.073
    1STR    C0D 2640   4.396   1.454   6.962
    1STR    C0E 2641   4.351   1.697   7.012
    1STR    O0F 2642   4.288   1.798   7.089
    1STR    C0G 2643   4.360   1.916   7.126
    1STR    C0H 2644   4.287   2.048   7.107
    1STR    C0I 2645   4.384   1.905   0.084
    1STR    O0J 2646   4.452   1.787   0.110
    1STR    C0K 2647   4.591   1.800   0.101
    1STR    C0M 2648   4.638   1.687   0.018
    1STR    C0N 2649   4.657   1.935   0.063
    1STR    O0O 2650   4.645   2.023   0.173
    1STR    C0P 2651   4.752   2.047   0.244
    1STR    O0Q 2652   4.848   2.111   0.205
    1STR    N0R 2653   4.748   1.983   0.359
    1STR    C0S 2654   4.774   1.847   0.361
    1STR    C0T 2655   4.704   1.765   0.451
    1STR    C0U 2656   4.700   1.626   0.429
    1STR    C0V 2657   4.765   1.567   0.319
    1STR    C0W 2658   4.731   1.424   0.289
    1STR    C0X 2659   4.847   1.647   0.236
    1STR    N0Y 2660   4.912   1.608   0.119
    1STR   BCK2 2661   4.958   1.494   0.071
    1STR    O10 2662   4.961   1.477   7.140
    1STR    C13 2663   4.846   1.785   0.258
    1STR    C14 2664   4.179   1.715   0.304
    1STR    C15 2665   4.115   1.840   0.308
    1STR    C16 2666   4.055   1.895   0.194
    1STR    C17 2667   3.990   2.030   0.205
    1STR    H1B 2668   4.029   1.987   7.151
    1STR    H1C 2669   4.101   1.641   7.175
    1STR    H1D 2670   4.288   1.487   0.266
    1STR    H1E 2671   4.450   1.552   7.142
    1STR    H1F 2672   4.304   1.426   6.910
    1STR    H1G 2673   4.463   1.496   6.888
    1STR    H1H 2674   4.440   1.364   7.004
    1STR    H1I 2675   4.295   1.693   6.920
    1STR    H1J 2676   4.446   1.732   6.980
    1STR    H1K 2677   4.451   1.922   7.068
    1STR    H1M 2678   4.202   2.057   7.174
    1STR    H1N 2679   4.255   2.064   7.005
    1STR    H1O 2680   4.353   2.130   7.134
    1STR    H1P 2681   4.425   1.995   0.129
    1STR    H1Q 2682   4.291   1.894   0.135
    1STR    H1R 2683   4.611   1.773   0.202
    1STR    H1S 2684   4.742   1.697   7.183
    1STR    H1T 2685   4.589   1.693   7.114
    1STR    H1U 2686   4.622   1.591   0.066
    1STR    H1V 2687   4.618   1.981   7.164
    1STR    H1W 2688   4.762   1.919   0.037
    1STR    H1X 2689   4.665   2.009   0.407
    1STR    H1Y 2690   4.646   1.808   0.530
    1STR    H1Z 2691   4.641   1.564   0.493
    1STR    H20 2692   4.735   1.406   0.182
    1STR    H21 2693   4.800   1.359   0.341
    1STR    H22 2694   4.630   1.401   0.320
    1STR    H23 2695   4.927   1.680   0.050
    1STR    H27 2696   4.897   1.845   0.186
    1STR    H28 2697   4.230   1.678   0.391
    1STR    H29 2698   4.115   1.895   0.400
    1STR    H2A 2699   3.911   2.040   0.130
    1STR    H2B 2700   4.065   2.108   0.194
    1STR    H2C 2701   3.943   2.036   0.302
    1STR   BCK1 2702   4.173   1.883   1.878
    1STR    O03 2703   4.230   1.974   1.819
    1STR    N04 2704   4.112   1.782   1.819
    1STR    C05 2705   4.087   1.753   1.687
    1STR    C06 2706   4.088   1.852   1.589
    1STR    C07 2707   4.082   1.812   1.455
    1STR    N08 2708   4.119   1.903   1.359
    1STR    C09 2709   4.244   1.880   1.324
    1STR    O0A 2710   4.274   1.794   1.244
    1STR    O0B 2711   4.323   1.945   1.406
    1STR    C0C 2712   4.434   1.881   1.466
    1STR    C0D 2713   4.490   1.993   1.553
    1STR    C0E 2714   4.403   1.761   1.557
    1STR    O0F 2715   4.366   1.640   1.491
    1STR    C0G 2716   4.375   1.528   1.580
    1STR    C0H 2717   4.310   1.401   1.524
    1STR    C0I 2718   4.521   1.496   1.600
    1STR    O0J 2719   4.582   1.560   1.710
    1STR    C0K 2720   4.574   1.500   1.839
    1STR    C0M 2721   4.469   1.578   1.917
    1STR    C0N 2722   4.558   1.346   1.847
    1STR    O0O 2723   4.642   1.272   1.757
    1STR    C0P 2724   4.770   1.296   1.757
    1STR    O0Q 2725   4.837   1.316   1.858
    1STR    N0R 2726   4.808   1.318   1.632
    1STR    C0S 2727   4.832   1.446   1.586
    1STR    C0T 2728   4.804   1.476   1.453
    1STR    C0U 2729   4.804   1.609   1.407
    1STR    C0V 2730   4.817   1.714   1.498
    1STR    C0W 2731   4.799   1.856   1.455
    1STR    C0X 2732   4.843   1.686   1.631
    1STR    N0Y 2733   4.827   1.785   1.725
    1STR   BCK2 2734   4.910   1.789   1.826
    1STR    O10 2735   5.028   1.820   1.821
    1STR    C13 2736   4.858   1.553   1.674
    1STR    C14 2737   4.065   1.677   1.422
    1STR    C15 2738   4.038   1.583   1.520
    1STR    C16 2739   4.061   1.620   1.652
    1STR    C17 2740   4.073   1.507   1.749
    1STR    H1B 2741   4.068   1.713   1.879
    1STR    H1C 2742   4.105   1.955   1.615
    1STR    H1D 2743   4.101   1.996   1.390
    1STR    H1E 2744   4.505   1.849   1.389
    1STR    H1F 2745   4.410   2.037   1.612
    1STR    H1G 2746   4.562   1.954   1.624
    1STR    H1H 2747   4.536   2.070   1.492
    1STR    H1I 2748   4.331   1.788   1.633
    1STR    H1J 2749   4.494   1.745   1.614
    1STR    H1K 2750   4.327   1.552   1.675
    1STR    H1M 2751   4.372   1.351   1.450
    1STR    H1N 2752   4.215   1.419   1.479
    1STR    H1O 2753   4.297   1.330   1.606
    1STR    H1P 2754   4.539   1.390   1.596
    1STR    H1Q 2755   4.570   1.534   1.511
    1STR    H1R 2756   4.669   1.523   1.885
    1STR    H1S 2757   4.474   1.552   2.022
    1STR    H1T 2758   4.368   1.555   1.883
    1STR    H1U 2759   4.485   1.685   1.906
    1STR    H1V 2760   4.457   1.319   1.820
    1STR    H1W 2761   4.574   1.312   1.949
    1STR    H1X 2762   4.759   1.258   1.570
    1STR    H1Y 2763   4.784   1.398   1.382
    1STR    H1Z 2764   4.788   1.628   1.303
    1STR    H20 2765   4.739   1.910   1.526
    1STR    H21 2766   4.896   1.905   1.454
    1STR    H22 2767   4.747   1.862   1.359
    1STR    H23 2768   4.732   1.776   1.758
    1STR    H27 2769   4.877   1.533   1.777
    1STR    H28 2770   4.080   1.640   1.323
    1STR    H29 2771   4.017   1.482   1.494
    1STR    H2A 2772   4.139   1.530   1.832
    1STR    H2B 2773   4.118   1.421   1.702
    1STR    H2C 2774   3.976   1.477   1.783
    1STR   BCK1 2775   3.954   1.646   3.599
    1STR    O03 2776   4.004   1.635   3.710
    1STR    N04 2777   3.917   1.756   3.540
    1STR    C05 2778   3.970   1.881   3.548
    1STR    C06 2779   4.066   1.922   3.639
    1STR    C07 2780   4.154   2.028   3.606
    1STR    N08 2781   4.273   2.042   3.672
    1STR    C09 2782   4.277   2.026   3.803
    1STR    O0A 2783   4.263   2.120   3.879
    1STR    O0B 2784   4.280   1.897   3.840
    1STR    C0C 2785   4.368   1.802   3.782
    1STR    C0D 2786   4.394   1.707   3.897
    1STR    C0E 2787   4.326   1.720   3.656
    1STR    O0F 2788   4.275   1.795   3.547
    1STR    C0G 2789   4.351   1.803   3.430
    1STR    C0H 2790   4.276   1.861   3.312
    1STR    C0I 2791   4.472   1.888   3.465
    1STR    O0J 2792   4.587   1.810   3.475
    1STR    C0K 2793   4.646   1.760   3.358
    1STR    C0M 2794   4.609   1.612   3.371
    1STR    C0N 2795   4.620   1.832   3.222
    1STR    O0O 2796   4.604   1.975   3.225
    1STR    C0P 2797   4.705   2.054   3.259
    1STR    O0Q 2798   4.822   2.033   3.236
    1STR    N0R 2799   4.663   2.159   3.329
    1STR    C0S 2800   4.706   2.182   3.459
    1STR    C0T 2801   4.720   2.310   3.513
    1STR    C0U 2802   4.746   2.324   3.651
    1STR    C0V 2803   4.744   2.213   3.737
    1STR    C0W 2804   4.771   2.226   3.884
    1STR    C0X 2805   4.719   2.086   3.684
    1STR    N0Y 2806   4.685   1.978   3.762
    1STR   BCK2 2807   4.723   1.852   3.742
    1STR    O10 2808   4.665   1.754   3.787
    1STR    C13 2809   4.715   2.072   3.545
    1STR    C14 2810   4.145   2.088   3.480
    1STR    C15 2811   4.043   2.048   3.391
    1STR    C16 2812   3.948   1.957   3.435
    1STR    C17 2813   3.811   1.953   3.378
    1STR    H1B 2814   3.862   1.737   3.457
    1STR    H1C 2815   4.086   1.858   3.721
    1STR    H1D 2816   4.323   1.965   3.630
    1STR    H1E 2817   4.458   1.857   3.760
    1STR    H1F 2818   4.301   1.662   3.932
    1STR    H1G 2819   4.463   1.628   3.868
    1STR    H1H 2820   4.438   1.762   3.980
    1STR    H1I 2821   4.248   1.651   3.684
    1STR    H1J 2822   4.411   1.659   3.625
    1STR    H1K 2823   4.368   1.703   3.398
    1STR    H1M 2824   4.277   1.969   3.310
    1STR    H1N 2825   4.174   1.825   3.314
    1STR    H1O 2826   4.320   1.829   3.218
    1STR    H1P 2827   4.478   1.977   3.405
    1STR    H1Q 2828   4.465   1.932   3.563
    1STR    H1R 2829   4.753   1.768   3.377
    1STR    H1S 2830   4.598   1.561   3.276
    1STR    H1T 2831   4.519   1.589   3.425
    1STR    H1U 2832   4.679   1.563   3.438
    1STR    H1V 2833   4.530   1.792   3.177
    1STR    H1W 2834   4.700   1.810   3.153
    1STR    H1X 2835   4.567   2.184   3.312
    1STR    H1Y 2836   4.712   2.397   3.450
    1STR    H1Z 2837   4.763   2.422   3.693
    1STR    H20 2838   4.678   2.230   3.940
    1STR    H21 2839   4.827   2.139   3.919
    1STR    H22 2840   4.831   2.314   3.904
    1STR    H23 2841   4.637   1.991   3.851
    1STR    H27 2842   4.713   1.975   3.506
    1STR    H28 2843   4.213   2.165   3.451
    1STR    H29 2844   4.029   2.102   3.300
    1STR    H2A 2845   3.768   1.857   3.382
    1STR    H2B 2846   3.804   2.002   3.281
    1STR    H2C 2847   3.744   1.999   3.448
    1STR   BCK1 2848   3.985   1.669   5.140
    1STR    O03 2849   3.905   1.746   5.091
    1STR    N04 2850   3.962   1.538   5.147
    1STR    C05 2851   4.038   1.425   5.176
    1STR    C06 2852   4.168   1.430   5.227
    1STR    C07 2853   4.241   1.313   5.254
    1STR    N08 2854   4.372   1.314   5.294
    1STR    C09 2855   4.468   1.399   5.259
    1STR    O0A 2856   4.581   1.379   5.297
    1STR    O0B 2857   4.429   1.498   5.179
    1STR    C0C 2858   4.489   1.625   5.193
    1STR    C0D 2859   4.474   1.696   5.060
    1STR    C0E 2860   4.420   1.704   5.302
    1STR    O0F 2861   4.360   1.622   5.402
    1STR    C0G 2862   4.398   1.648   5.535
    1STR    C0H 2863   4.321   1.560   5.634
    1STR    C0I 2864   4.545   1.618   5.545
    1STR    O0J 2865   4.626   1.721   5.491
    1STR    C0K 2866   4.639   1.850   5.549
    1STR    C0M 2867   4.622   1.954   5.438
    1STR    C0N 2868   4.572   1.884   5.683
    1STR    O0O 2869   4.571   1.776   5.775
    1STR    C0P 2870   4.676   1.754   5.853
    1STR    O0Q 2871   4.754   1.843   5.886
    1STR    N0R 2872   4.702   1.624   5.865
    1STR    C0S 2873   4.766   1.548   5.768
    1STR    C0T 2874   4.747   1.409   5.757
    1STR    C0U 2875   4.785   1.344   5.638
    1STR    C0V 2876   4.842   1.416   5.532
    1STR    C0W 2877   4.873   1.350   5.402
    1STR    C0X 2878   4.865   1.552   5.543
    1STR    N0Y 2879   4.891   1.622   5.427
    1STR   BCK2 2880   4.903   1.750   5.393
    1STR    O10 2881   4.859   1.783   5.285
    1STR    C13 2882   4.827   1.613   5.661
    1STR    C14 2883   4.181   1.188   5.238
    1STR    C15 2884   4.052   1.180   5.185
    1STR    C16 2885   3.983   1.297   5.151
    1STR    C17 2886   3.847   1.280   5.092
    1STR    H1B 2887   3.867   1.523   5.118
    1STR    H1C 2888   4.216   1.523   5.245
    1STR    H1D 2889   4.405   1.245   5.358
    1STR    H1E 2890   4.595   1.615   5.220
    1STR    H1F 2891   4.369   1.703   5.032
    1STR    H1G 2892   4.514   1.798   5.067
    1STR    H1H 2893   4.528   1.643   4.982
    1STR    H1I 2894   4.349   1.772   5.262
    1STR    H1J 2895   4.486   1.780   5.338
    1STR    H1K 2896   4.380   1.752   5.560
    1STR    H1M 2897   4.289   1.466   5.589
    1STR    H1N 2898   4.235   1.611   5.676
    1STR    H1O 2899   4.380   1.536   5.723
    1STR    H1P 2900   4.567   1.593   5.646
    1STR    H1Q 2901   4.566   1.525   5.492
    1STR    H1R 2902   4.744   1.859   5.568
    1STR    H1S 2903   4.685   2.041   5.455
    1STR    H1T 2904   4.519   1.985   5.423
    1STR    H1U 2905   4.658   1.913   5.343
    1STR    H1V 2906   4.470   1.916   5.668
    1STR    H1W 2907   4.625   1.970   5.726
    1STR    H1X 2908   4.632   1.572   5.923
    1STR    H1Y 2909   4.697   1.355   5.835
    1STR    H1Z 2910   4.768   1.238   5.628
    1STR    H20 2911   4.976   1.376   5.375
    1STR    H21 2912   4.862   1.242   5.409
    1STR    H22 2913   4.811   1.388   5.322
    1STR    H23 2914   4.866   1.567   5.347
    1STR    H27 2915   4.826   1.717   5.663
    1STR    H28 2916   4.234   1.098   5.263
    1STR    H29 2917   4.007   1.084   5.170
    1STR    H2A 2918   3.797   1.194   5.137
    1STR    H2B 2919   3.855   1.263   4.985
    1STR    H2C 2920   3.785   1.367   5.110
    1STR   BCK1 2921   4.018   3.510   0.041
    1STR    O03 2922   4.001   3.570   0.147
    1STR    N04 2923   3.984   3.555   7.112
    1STR    C05 2924   3.938   3.678   7.076
    1STR    C06 2925   3.982   3.793   7.143
    1STR    C07 2926   3.978   3.915   7.075
    1STR    N08 2927   4.071   4.009   7.109
    1STR    C09 2928   4.171   4.010   7.022
    1STR    O0A 2929   4.158   4.030   6.902
    1STR    O0B 2930   4.281   3.971   7.082
    1STR    C0C 2931   4.352   3.864   7.024
    1STR    C0D 2932   4.494   3.876   7.072
    1STR    C0E 2933   4.291   3.733   7.074
    1STR    O0F 2934   4.220   3.670   6.969
    1STR    C0G 2935   4.273   3.543   6.940
    1STR    C0H 2936   4.196   3.472   6.834
    1STR    C0I 2937   4.416   3.560   6.891
    1STR    O0J 2938   4.506   3.533   6.996
    1STR    C0K 2939   4.518   3.402   7.050
    1STR    C0M 2940   4.440   3.378   7.178
    1STR    C0N 2941   4.531   3.284   6.954
    1STR    O0O 2942   4.561   3.334   6.826
    1STR    C0P 2943   4.670   3.306   6.761
    1STR    O0Q 2944   4.706   3.193   6.734
    1STR    N0R 2945   4.737   3.415   6.728
    1STR    C0S 2946   4.753   3.523   6.813
    1STR    C0T 2947   4.743   3.656   6.770
    1STR    C0U 2948   4.767   3.759   6.863
    1STR    C0V 2949   4.798   3.730   6.997
    1STR    C0W 2950   4.811   3.841   7.097
    1STR    C0X 2951   4.807   3.597   7.041
    1STR    N0Y 2952   4.821   3.569   7.176
    1STR   BCK2 2953   4.809   3.452   0.050
    1STR    O10 2954   4.808   3.339   7.190
    1STR    C13 2955   4.790   3.497   6.945
    1STR    C14 2956   3.900   3.929   6.959
    1STR    C15 2957   3.832   3.818   6.909
    1STR    C16 2958   3.863   3.692   6.958
    1STR    C17 2959   3.823   3.576   6.873
    1STR    H1B 2960   4.002   3.497   7.032
    1STR    H1C 2961   4.039   3.783   0.043
    1STR    H1D 2962   4.108   4.006   0.013
    1STR    H1E 2963   4.350   3.869   6.915
    1STR    H1F 2964   4.495   3.865   7.180
    1STR    H1G 2965   4.551   3.795   7.029
    1STR    H1H 2966   4.538   3.971   7.042
    1STR    H1I 2967   4.227   3.750   7.159
    1STR    H1J 2968   4.368   3.670   7.118
    1STR    H1K 2969   4.265   3.483   7.029
    1STR    H1M 2970   4.222   3.521   6.741
    1STR    H1N 2971   4.089   3.478   6.849
    1STR    H1O 2972   4.226   3.368   6.824
    1STR    H1P 2973   4.434   3.506   6.798
    1STR    H1Q 2974   4.432   3.662   6.857
    1STR    H1R 2975   4.615   3.414   7.091
    1STR    H1S 2976   4.492   3.305   0.050
    1STR    H1T 2977   4.340   3.340   7.159
    1STR    H1U 2978   4.434   3.471   0.045
    1STR    H1V 2979   4.437   3.230   6.947
    1STR    H1W 2980   4.609   3.216   6.988
    1STR    H1X 2981   4.809   3.407   6.657
    1STR    H1Y 2982   4.714   3.679   6.669
    1STR    H1Z 2983   4.754   3.861   6.831
    1STR    H20 2984   4.744   3.820   7.179
    1STR    H21 2985   4.911   3.845   7.139
    1STR    H22 2986   4.786   3.937   7.052
    1STR    H23 2987   4.839   3.647   0.049
    1STR    H27 2988   4.799   3.396   6.974
    1STR    H28 2989   3.893   4.023   6.909
    1STR    H29 2990   3.769   3.829   6.824
    1STR    H2A 2991   3.803   3.488   6.929
    1STR    H2B 2992   3.903   3.552   6.805
    1STR    H2C 2993   3.732   3.598   6.817
    1STR   BCK1 2994   4.001   3.583   1.597
    1STR    O03 2995   4.076   3.584   1.502
    1STR    N04 2996   3.982   3.685   1.680
    1STR    C05 2997   3.993   3.681   1.818
    1STR    C06 2998   4.047   3.568   1.881
    1STR    C07 2999   4.104   3.576   2.008
    1STR    N08 3000   4.209   3.490   2.035
    1STR    C09 3001   4.197   3.358   2.023
    1STR    O0A 3002   4.115   3.294   2.087
    1STR    O0B 3003   4.279   3.299   1.936
    1STR    C0C 3004   4.376   3.362   1.854
    1STR    C0D 3005   4.468   3.244   1.821
    1STR    C0E 3006   4.319   3.418   1.722
    1STR    O0F 3007   4.254   3.544   1.728
    1STR    C0G 3008   4.330   3.662   1.716
    1STR    C0H 3009   4.264   3.779   1.642
    1STR    C0I 3010   4.370   3.719   1.853
    1STR    O0J 3011   4.488   3.663   1.902
    1STR    C0K 3012   4.601   3.688   1.820
    1STR    C0M 3013   4.637   3.555   1.756
    1STR    C0N 3014   4.591   3.801   1.713
    1STR    O0O 3015   4.561   3.934   1.755
    1STR    C0P 3016   4.627   3.985   1.857
    1STR    O0Q 3017   4.605   3.957   1.974
    1STR    N0R 3018   4.734   4.050   1.815
    1STR    C0S 3019   4.850   3.983   1.842
    1STR    C0T 3020   4.920   3.994   1.962
    1STR    C0U 3021   5.028   3.907   1.982
    1STR    C0V 3022   5.051   3.796   1.897
    1STR    C0W 3023   5.178   3.715   1.901
    1STR    C0X 3024   4.966   3.778   1.789
    1STR    N0Y 3025   4.955   3.659   1.719
    1STR   BCK2 3026   4.934   3.540   1.774
    1STR    O10 3027   4.915   3.440   1.708
    1STR    C13 3028   4.885   3.883   1.751
    1STR    C14 3029   4.081   3.691   2.085
    1STR    C15 3030   4.020   3.803   2.026
    1STR    C16 3031   3.981   3.800   1.892
    1STR    C17 3032   3.928   3.926   1.827
    1STR    H1B 3033   3.996   3.776   1.641
    1STR    H1C 3034   4.062   3.478   1.825
    1STR    H1D 3035   4.294   3.526   1.992
    1STR    H1E 3036   4.434   3.435   1.909
    1STR    H1F 3037   4.413   3.166   1.769
    1STR    H1G 3038   4.551   3.275   1.759
    1STR    H1H 3039   4.507   3.201   1.913
    1STR    H1I 3040   4.247   3.347   1.686
    1STR    H1J 3041   4.391   3.417   1.640
    1STR    H1K 3042   4.409   3.633   1.651
    1STR    H1M 3043   4.184   3.823   1.700
    1STR    H1N 3044   4.230   3.751   1.543
    1STR    H1O 3045   4.334   3.861   1.627
    1STR    H1P 3046   4.379   3.828   1.853
    1STR    H1Q 3047   4.292   3.708   1.926
    1STR    H1R 3048   4.683   3.712   1.888
    1STR    H1S 3049   4.709   3.568   1.676
    1STR    H1T 3050   4.557   3.505   1.707
    1STR    H1U 3051   4.675   3.485   1.830
    1STR    H1V 3052   4.530   3.782   1.627
    1STR    H1W 3053   4.681   3.794   1.659
    1STR    H1X 3054   4.719   4.083   1.722
    1STR    H1Y 3055   4.896   4.072   2.032
    1STR    H1Z 3056   5.097   3.931   2.060
    1STR    H20 3057   5.224   3.715   1.998
    1STR    H21 3058   5.163   3.614   1.869
    1STR    H22 3059   5.250   3.755   1.830
    1STR    H23 3060   4.930   3.668   1.620
    1STR    H27 3061   4.842   3.885   1.654
    1STR    H28 3062   4.107   3.694   2.188
    1STR    H29 3063   4.007   3.893   2.085
    1STR    H2A 3064   3.986   3.951   1.739
    1STR    H2B 3065   3.934   4.009   1.897
    1STR    H2C 3066   3.825   3.910   1.800
    1STR   BCK1 3067   4.095   3.628   3.574
    1STR    O03 3068   4.108   3.732   3.512
    1STR    N04 3069   4.040   3.517   3.525
    1STR    C05 3070   4.030   3.470   3.396
    1STR    C06 3071   4.061   3.548   3.285
    1STR    C07 3072   4.104   3.483   3.169
    1STR    N08 3073   4.191   3.553   3.093
    1STR    C09 3074   4.317   3.517   3.100
    1STR    O0A 3075   4.364   3.406   3.073
    1STR    O0B 3076   4.377   3.616   3.158
    1STR    C0C 3077   4.451   3.588   3.274
    1STR    C0D 3078   4.546   3.705   3.294
    1STR    C0E 3079   4.361   3.566   3.395
    1STR    O0F 3080   4.310   3.432   3.403
    1STR    C0G 3081   4.358   3.359   3.515
    1STR    C0H 3082   4.292   3.226   3.546
    1STR    C0I 3083   4.503   3.334   3.487
    1STR    O0J 3084   4.574   3.436   3.550
    1STR    C0K 3085   4.579   3.438   3.692
    1STR    C0M 3086   4.531   3.574   3.739
    1STR    C0N 3087   4.543   3.317   3.781
    1STR    O0O 3088   4.589   3.197   3.722
    1STR    C0P 3089   4.680   3.121   3.780
    1STR    O0Q 3090   4.680   3.088   3.897
    1STR    N0R 3091   4.776   3.082   3.695
    1STR    C0S 3092   4.806   3.163   3.588
    1STR    C0T 3093   4.763   3.135   3.458
    1STR    C0U 3094   4.768   3.237   3.362
    1STR    C0V 3095   4.811   3.366   3.397
    1STR    C0W 3096   4.792   3.476   3.296
    1STR    C0X 3097   4.860   3.392   3.526
    1STR    N0Y 3098   4.906   3.516   3.561
    1STR   BCK2 3099   4.924   3.585   3.673
    1STR    O10 3100   5.003   3.677   3.673
    1STR    C13 3101   4.861   3.287   3.618
    1STR    C14 3102   4.094   3.344   3.152
    1STR    C15 3103   4.050   3.269   3.260
    1STR    C16 3104   4.019   3.332   3.381
    1STR    C17 3105   3.988   3.247   3.497
    1STR    H1B 3106   4.009   3.452   3.595
    1STR    H1C 3107   4.076   3.654   3.296
    1STR    H1D 3108   4.187   3.651   3.113
    1STR    H1E 3109   4.502   3.496   3.254
    1STR    H1F 3110   4.492   3.799   3.304
    1STR    H1G 3111   4.607   3.691   3.383
    1STR    H1H 3112   4.612   3.716   3.209
    1STR    H1I 3113   4.280   3.635   3.386
    1STR    H1J 3114   4.412   3.596   3.487
    1STR    H1K 3115   4.343   3.421   3.603
    1STR    H1M 3116   4.246   3.183   3.457
    1STR    H1N 3117   4.222   3.240   3.627
    1STR    H1O 3118   4.361   3.153   3.586
    1STR    H1P 3119   4.537   3.236   3.513
    1STR    H1Q 3120   4.521   3.336   3.380
    1STR    H1R 3121   4.684   3.440   3.698
    1STR    H1S 3122   4.562   3.593   3.842
    1STR    H1T 3123   4.424   3.582   3.734
    1STR    H1U 3124   4.574   3.652   3.676
    1STR    H1V 3125   4.436   3.311   3.797
    1STR    H1W 3126   4.590   3.332   3.879
    1STR    H1X 3127   4.848   3.027   3.737
    1STR    H1Y 3128   4.718   3.041   3.435
    1STR    H1Z 3129   4.730   3.220   3.262
    1STR    H20 3130   4.808   3.576   3.335
    1STR    H21 3131   4.845   3.460   3.205
    1STR    H22 3132   4.691   3.472   3.265
    1STR    H23 3133   4.945   3.572   3.483
    1STR    H27 3134   4.894   3.307   3.718
    1STR    H28 3135   4.132   3.296   3.064
    1STR    H29 3136   4.050   3.162   3.250
    1STR    H2A 3137   4.037   3.282   3.586
    1STR    H2B 3138   4.024   3.146   3.480
    1STR    H2C 3139   3.881   3.254   3.513
    1STR   BCK1 3140   3.953   3.557   5.362
    1STR    O03 3141   4.063   3.529   5.407
    1STR    N04 3142   3.917   3.674   5.308
    1STR    C05 3143   3.999   3.785   5.297
    1STR    C06 3144   4.089   3.815   5.399
    1STR    C07 3145   4.184   3.918   5.386
    1STR    N08 3146   4.265   3.937   5.493
    1STR    C09 3147   4.395   3.924   5.486
    1STR    O0A 3148   4.468   3.963   5.396
    1STR    O0B 3149   4.425   3.844   5.585
    1STR    C0C 3150   4.469   3.713   5.554
    1STR    C0D 3151   4.505   3.653   5.688
    1STR    C0E 3152   4.358   3.627   5.486
    1STR    O0F 3153   4.307   3.672   5.362
    1STR    C0G 3154   4.353   3.624   5.238
    1STR    C0H 3155   4.251   3.657   5.132
    1STR    C0I 3156   4.478   3.697   5.202
    1STR    O0J 3157   4.580   3.650   5.286
    1STR    C0K 3158   4.629   3.519   5.276
    1STR    C0M 3159   4.579   3.413   5.372
    1STR    C0N 3160   4.693   3.469   5.147
    1STR    O0O 3161   4.645   3.535   5.034
    1STR    C0P 3162   4.715   3.624   4.965
    1STR    O0Q 3163   4.724   3.608   4.845
    1STR    N0R 3164   4.764   3.735   5.020
    1STR    C0S 3165   4.780   3.786   5.148
    1STR    C0T 3166   4.730   3.914   5.176
    1STR    C0U 3167   4.754   3.972   5.302
    1STR    C0V 3168   4.820   3.901   5.402
    1STR    C0W 3169   4.837   3.959   5.540
    1STR    C0X 3170   4.865   3.771   5.377
    1STR    N0Y 3171   4.891   3.694   5.488
    1STR   BCK2 3172   4.882   3.563   5.501
    1STR    O10 3173   4.907   3.482   5.412
    1STR    C13 3174   4.857   3.720   5.246
    1STR    C14 3175   4.188   3.995   5.269
    1STR    C15 3176   4.088   3.977   5.174
    1STR    C16 3177   3.992   3.875   5.188
    1STR    C17 3178   3.877   3.872   5.095
    1STR    H1B 3179   3.825   3.675   5.266
    1STR    H1C 3180   4.091   3.753   5.486
    1STR    H1D 3181   4.229   3.904   5.579
    1STR    H1E 3182   4.559   3.722   5.494
    1STR    H1F 3183   4.421   3.654   5.756
    1STR    H1G 3184   4.540   3.551   5.677
    1STR    H1H 3185   4.586   3.711   5.733
    1STR    H1I 3186   4.272   3.630   5.552
    1STR    H1J 3187   4.383   3.523   5.481
    1STR    H1K 3188   4.366   3.517   5.238
    1STR    H1M 3189   4.247   3.765   5.114
    1STR    H1N 3190   4.155   3.626   5.168
    1STR    H1O 3191   4.273   3.608   5.038
    1STR    H1P 3192   4.499   3.692   5.097
    1STR    H1Q 3193   4.465   3.803   5.220
    1STR    H1R 3194   4.713   3.547   5.332
    1STR    H1S 3195   4.644   3.326   5.369
    1STR    H1T 3196   4.478   3.382   5.352
    1STR    H1U 3197   4.585   3.452   5.473
    1STR    H1V 3198   4.668   3.364   5.137
    1STR    H1W 3199   4.802   3.471   5.152
    1STR    H1X 3200   4.794   3.797   4.947
    1STR    H1Y 3201   4.670   3.968   5.105
    1STR    H1Z 3202   4.712   4.069   5.324
    1STR    H20 3203   4.760   3.920   5.607
    1STR    H21 3204   4.935   3.933   5.580
    1STR    H22 3205   4.830   4.067   5.537
    1STR    H23 3206   4.877   3.742   5.576
    1STR    H27 3207   4.904   3.626   5.225
    1STR    H28 3208   4.262   4.073   5.258
    1STR    H29 3209   4.085   4.047   5.092
    1STR    H2A 3210   3.794   3.832   5.152
    1STR    H2B 3211   3.897   3.809   5.009
    1STR    H2C 3212   3.851   3.972   5.062
    1STR   BCK1 3213   4.200   5.170   6.935
    1STR    O03 3214   4.282   5.177   6.845
    1STR    N04 3215   4.183   5.052   6.995
    1STR    C05 3216   4.136   5.007   7.117
    1STR    C06 3217   4.156   5.080   0.043
    1STR    C07 3218   4.138   5.023   0.170
    1STR    N08 3219   4.187   5.088   0.282
    1STR    C09 3220   4.303   5.154   0.284
    1STR    O0A 3221   4.337   5.221   0.379
    1STR    O0B 3222   4.373   5.128   0.175
    1STR    C0C 3223   4.454   5.219   0.107
    1STR    C0D 3224   4.504   5.127   7.185
    1STR    C0E 3225   4.386   5.341   0.042
    1STR    O0F 3226   4.291   5.407   0.125
    1STR    C0G 3227   4.310   5.548   0.134
    1STR    C0H 3228   4.197   5.625   0.068
    1STR    C0I 3229   4.319   5.589   0.281
    1STR    O0J 3230   4.391   5.497   0.359
    1STR    C0K 3231   4.532   5.497   0.353
    1STR    C0M 3232   4.599   5.586   0.248
    1STR    C0N 3233   4.588   5.518   0.494
    1STR    O0O 3234   4.656   5.401   0.533
    1STR    C0P 3235   4.756   5.365   0.460
    1STR    O0Q 3236   4.839   5.443   0.415
    1STR    N0R 3237   4.738   5.240   0.422
    1STR    C0S 3238   4.774   5.180   0.303
    1STR    C0T 3239   4.787   5.041   0.301
    1STR    C0U 3240   4.811   4.974   0.181
    1STR    C0V 3241   4.819   5.046   0.060
    1STR    C0W 3242   4.839   4.973   7.120
    1STR    C0X 3243   4.802   5.185   0.059
    1STR    N0Y 3244   4.805   5.242   7.123
    1STR   BCK2 3245   4.792   5.364   7.072
    1STR    O10 3246   4.797   5.380   6.951
    1STR    C13 3247   4.782   5.251   0.182
    1STR    C14 3248   4.082   4.895   0.182
    1STR    C15 3249   4.053   4.823   0.065
    1STR    C16 3250   4.085   4.877   7.128
    1STR    C17 3251   4.062   4.796   7.004
    1STR    H1B 3252   4.225   4.977   6.942
    1STR    H1C 3253   4.197   5.177   0.035
    1STR    H1D 3254   4.143   5.083   0.372
    1STR    H1E 3255   4.532   5.249   0.174
    1STR    H1F 3256   4.422   5.084   7.128
    1STR    H1G 3257   4.566   5.180   7.114
    1STR    H1H 3258   4.559   5.044   0.038
    1STR    H1I 3259   4.335   5.310   7.141
    1STR    H1J 3260   4.467   5.404   0.006
    1STR    H1K 3261   4.397   5.581   0.080
    1STR    H1M 3262   4.117   5.641   0.140
    1STR    H1N 3263   4.157   5.574   7.171
    1STR    H1O 3264   4.231   5.724   0.042
    1STR    H1P 3265   4.355   5.691   0.296
    1STR    H1Q 3266   4.220   5.587   0.325
    1STR    H1R 3267   4.550   5.395   0.323
    1STR    H1S 3268   4.707   5.584   0.258
    1STR    H1T 3269   4.567   5.689   0.248
    1STR    H1U 3270   4.578   5.541   0.152
    1STR    H1V 3271   4.509   5.536   0.566
    1STR    H1W 3272   4.656   5.603   0.497
    1STR    H1X 3273   4.674   5.193   0.484
    1STR    H1Y 3274   4.778   4.984   0.392
    1STR    H1Z 3275   4.822   4.867   0.181
    1STR    H20 3276   4.934   5.005   7.078
    1STR    H21 3277   4.843   4.867   7.136
    1STR    H22 3278   4.758   4.994   7.051
    1STR    H23 3279   4.825   5.175   7.051
    1STR    H27 3280   4.766   5.357   0.186
    1STR    H28 3281   4.067   4.850   0.278
    1STR    H29 3282   4.011   4.725   0.072
    1STR    H2A 3283   3.991   4.850   6.941
    1STR    H2B 3284   4.020   4.699   7.028
    1STR    H2C 3285   4.153   4.782   6.947
    1STR   BCK1 3286   4.048   5.354   1.949
    1STR    O03 3287   3.935   5.390   1.979
    1STR    N04 3288   4.112   5.396   1.842
    1STR    C05 3289   4.045   5.438   1.730
    1STR    C06 3290   4.061   5.569   1.685
    1STR    C07 3291   4.013   5.605   1.558
    1STR    N08 3292   4.066   5.717   1.500
    1STR    C09 3293   4.182   5.688   1.441
    1STR    O0A 3294   4.192   5.631   1.333
    1STR    O0B 3295   4.278   5.714   1.528
    1STR    C0C 3296   4.397   5.636   1.530
    1STR    C0D 3297   4.496   5.718   1.611
    1STR    C0E 3298   4.378   5.498   1.594
    1STR    O0F 3299   4.306   5.413   1.507
    1STR    C0G 3300   4.287   5.279   1.552
    1STR    C0H 3301   4.216   5.209   1.438
    1STR    C0I 3302   4.415   5.207   1.584
    1STR    O0J 3303   4.462   5.248   1.710
    1STR    C0K 3304   4.488   5.157   1.815
    1STR    C0M 3305   4.428   5.233   1.930
    1STR    C0N 3306   4.440   5.011   1.806
    1STR    O0O 3307   4.504   4.945   1.699
    1STR    C0P 3308   4.636   4.934   1.700
    1STR    O0Q 3309   4.706   4.924   1.800
    1STR    N0R 3310   4.681   4.962   1.580
    1STR    C0S 3311   4.702   5.093   1.539
    1STR    C0T 3312   4.671   5.133   1.408
    1STR    C0U 3313   4.682   5.269   1.373
    1STR    C0V 3314   4.719   5.365   1.468
    1STR    C0W 3315   4.713   5.508   1.425
    1STR    C0X 3316   4.755   5.325   1.599
    1STR    N0Y 3317   4.808   5.415   1.690
    1STR   BCK2 3318   4.805   5.402   1.823
    1STR    O10 3319   4.720   5.340   1.884
    1STR    C13 3320   4.750   5.188   1.630
    1STR    C14 3321   3.936   5.516   1.483
    1STR    C15 3322   3.917   5.386   1.530
    1STR    C16 3323   3.979   5.345   1.648
    1STR    C17 3324   3.983   5.198   1.682
    1STR    H1B 3325   4.208   5.367   1.832
    1STR    H1C 3326   4.122   5.636   1.743
    1STR    H1D 3327   4.078   5.789   1.569
    1STR    H1E 3328   4.432   5.623   1.427
    1STR    H1F 3329   4.450   5.753   1.704
    1STR    H1G 3330   4.583   5.660   1.639
    1STR    H1H 3331   4.530   5.805   1.554
    1STR    H1I 3332   4.329   5.506   1.691
    1STR    H1J 3333   4.477   5.457   1.611
    1STR    H1K 3334   4.228   5.276   1.642
    1STR    H1M 3335   4.279   5.211   1.349
    1STR    H1N 3336   4.124   5.261   1.415
    1STR    H1O 3337   4.195   5.106   1.464
    1STR    H1P 3338   4.405   5.100   1.569
    1STR    H1Q 3339   4.482   5.242   1.510
    1STR    H1R 3340   4.594   5.152   1.834
    1STR    H1S 3341   4.424   5.174   2.021
    1STR    H1T 3342   4.330   5.264   1.899
    1STR    H1U 3343   4.483   5.325   1.949
    1STR    H1V 3344   4.333   5.005   1.793
    1STR    H1W 3345   4.467   4.958   1.898
    1STR    H1X 3346   4.685   4.878   1.522
    1STR    H1Y 3347   4.638   5.062   1.335
    1STR    H1Z 3348   4.657   5.301   1.273
    1STR    H20 3349   4.616   5.527   1.380
    1STR    H21 3350   4.727   5.577   1.507
    1STR    H22 3351   4.787   5.525   1.348
    1STR    H23 3352   4.866   5.489   1.650
    1STR    H27 3353   4.784   5.156   1.727
    1STR    H28 3354   3.900   5.545   1.385
    1STR    H29 3355   3.861   5.316   1.472
    1STR    H2A 3356   4.064   5.172   1.749
    1STR    H2B 3357   4.003   5.143   1.592
    1STR    H2C 3358   3.890   5.167   1.727
    1STR   BCK1 3359   3.968   5.171   3.569
    1STR    O03 3360   4.038   5.138   3.664
    1STR    N04 3361   3.919   5.293   3.544
    1STR    C05 3362   3.963   5.414   3.595
    1STR    C06 3363   4.088   5.423   3.653
    1STR    C07 3364   4.153   5.545   3.674
    1STR    N08 3365   4.281   5.537   3.718
    1STR    C09 3366   4.289   5.483   3.838
    1STR    O0A 3367   4.211   5.516   3.928
    1STR    O0B 3368   4.376   5.380   3.851
    1STR    C0C 3369   4.457   5.329   3.746
    1STR    C0D 3370   4.549   5.230   3.814
    1STR    C0E 3371   4.380   5.258   3.634
    1STR    O0F 3372   4.350   5.356   3.537
    1STR    C0G 3373   4.267   5.317   3.428
    1STR    C0H 3374   4.238   5.446   3.353
    1STR    C0I 3375   4.324   5.209   3.336
    1STR    O0J 3376   4.416   5.266   3.245
    1STR    C0K 3377   4.532   5.319   3.303
    1STR    C0M 3378   4.618   5.204   3.351
    1STR    C0N 3379   4.591   5.411   3.197
    1STR    O0O 3380   4.591   5.543   3.248
    1STR    C0P 3381   4.694   5.572   3.321
    1STR    O0Q 3382   4.808   5.579   3.275
    1STR    N0R 3383   4.662   5.578   3.449
    1STR    C0S 3384   4.753   5.536   3.541
    1STR    C0T 3385   4.862   5.616   3.573
    1STR    C0U 3386   4.971   5.561   3.638
    1STR    C0V 3387   4.975   5.424   3.664
    1STR    C0W 3388   5.108   5.366   3.691
    1STR    C0X 3389   4.861   5.345   3.645
    1STR    N0Y 3390   4.851   5.211   3.670
    1STR   BCK2 3391   4.864   5.142   3.783
    1STR    O10 3392   4.803   5.037   3.796
    1STR    C13 3393   4.750   5.403   3.583
    1STR    C14 3394   4.089   5.664   3.653
    1STR    C15 3395   3.957   5.656   3.611
    1STR    C16 3396   3.893   5.535   3.581
    1STR    C17 3397   3.750   5.539   3.544
    1STR    H1B 3398   3.849   5.292   3.472
    1STR    H1C 3399   4.142   5.335   3.675
    1STR    H1D 3400   4.341   5.498   3.646
    1STR    H1E 3401   4.516   5.410   3.705
    1STR    H1F 3402   4.493   5.158   3.873
    1STR    H1G 3403   4.604   5.174   3.739
    1STR    H1H 3404   4.621   5.279   3.878
    1STR    H1I 3405   4.293   5.205   3.672
    1STR    H1J 3406   4.441   5.181   3.589
    1STR    H1K 3407   4.174   5.275   3.465
    1STR    H1M 3408   4.328   5.503   3.331
    1STR    H1N 3409   4.172   5.512   3.408
    1STR    H1O 3410   4.191   5.427   3.257
    1STR    H1P 3411   4.365   5.124   3.390
    1STR    H1Q 3412   4.244   5.168   3.276
    1STR    H1R 3413   4.511   5.381   3.389
    1STR    H1S 3414   4.579   5.153   3.437
    1STR    H1T 3415   4.717   5.238   3.379
    1STR    H1U 3416   4.625   5.131   3.272
    1STR    H1V 3417   4.533   5.407   3.106
    1STR    H1W 3418   4.692   5.379   3.171
    1STR    H1X 3419   4.565   5.592   3.474
    1STR    H1Y 3420   4.862   5.720   3.544
    1STR    H1Z 3421   5.055   5.622   3.659
    1STR    H20 3422   5.121   5.350   3.796
    1STR    H21 3423   5.112   5.269   3.645
    1STR    H22 3424   5.188   5.430   3.654
    1STR    H23 3425   4.808   5.154   3.598
    1STR    H27 3426   4.664   5.343   3.560
    1STR    H28 3427   4.137   5.759   3.671
    1STR    H29 3428   3.903   5.746   3.599
    1STR    H2A 3429   3.738   5.488   3.452
    1STR    H2B 3430   3.714   5.641   3.535
    1STR    H2C 3431   3.693   5.492   3.622
    1STR   BCK1 3432   4.095   5.399   5.316
    1STR    O03 3433   4.077   5.519   5.312
    1STR    N04 3434   4.033   5.325   5.226
    1STR    C05 3435   4.037   5.190   5.193
    1STR    C06 3436   4.143   5.108   5.226
    1STR    C07 3437   4.154   4.978   5.176
    1STR    N08 3438   4.279   4.927   5.165
    1STR    C09 3439   4.359   4.973   5.069
    1STR    O0A 3440   4.315   5.014   4.962
    1STR    O0B 3441   4.486   4.990   5.101
    1STR    C0C 3442   4.534   5.001   5.233
    1STR    C0D 3443   4.673   5.049   5.206
    1STR    C0E 3444   4.465   5.108   5.319
    1STR    O0F 3445   4.375   5.045   5.409
    1STR    C0G 3446   4.396   5.058   5.548
    1STR    C0H 3447   4.308   4.954   5.614
    1STR    C0I 3448   4.540   5.034   5.591
    1STR    O0J 3449   4.619   5.151   5.577
    1STR    C0K 3450   4.600   5.263   5.661
    1STR    C0M 3451   4.540   5.373   5.578
    1STR    C0N 3452   4.539   5.242   5.800
    1STR    O0O 3453   4.605   5.137   5.867
    1STR    C0P 3454   4.728   5.154   5.910
    1STR    O0Q 3455   4.776   5.262   5.946
    1STR    N0R 3456   4.801   5.046   5.886
    1STR    C0S 3457   4.849   5.023   5.758
    1STR    C0T 3458   4.851   4.893   5.708
    1STR    C0U 3459   4.881   4.872   5.573
    1STR    C0V 3460   4.901   4.981   5.488
    1STR    C0W 3461   4.933   4.952   5.346
    1STR    C0X 3462   4.894   5.113   5.536
    1STR    N0Y 3463   4.897   5.216   5.443
    1STR   BCK2 3464   4.896   5.350   5.438
    1STR    O10 3465   4.906   5.398   5.327
    1STR    C13 3466   4.882   5.130   5.674
    1STR    C14 3467   4.047   4.919   5.111
    1STR    C15 3468   3.938   4.999   5.081
    1STR    C16 3469   3.938   5.137   5.109
    1STR    C17 3470   3.835   5.224   5.044
    1STR    H1B 3471   3.964   5.374   5.175
    1STR    H1C 3472   4.224   5.147   5.280
    1STR    H1D 3473   4.314   4.859   5.237
    1STR    H1E 3474   4.536   4.905   5.283
    1STR    H1F 3475   4.674   5.135   5.139
    1STR    H1G 3476   4.714   5.077   5.302
    1STR    H1H 3477   4.729   4.968   5.160
    1STR    H1I 3478   4.415   5.176   5.253
    1STR    H1J 3479   4.536   5.170   5.371
    1STR    H1K 3480   4.362   5.155   5.579
    1STR    H1M 3481   4.349   4.854   5.599
    1STR    H1N 3482   4.208   4.951   5.571
    1STR    H1O 3483   4.301   4.971   5.721
    1STR    H1P 3484   4.545   4.995   5.692
    1STR    H1Q 3485   4.583   4.955   5.529
    1STR    H1R 3486   4.699   5.300   5.679
    1STR    H1S 3487   4.548   5.470   5.628
    1STR    H1T 3488   4.436   5.353   5.558
    1STR    H1U 3489   4.595   5.379   5.485
    1STR    H1V 3490   4.433   5.218   5.793
    1STR    H1W 3491   4.548   5.335   5.858
    1STR    H1X 3492   4.764   4.965   5.932
    1STR    H1Y 3493   4.825   4.808   5.770
    1STR    H1Z 3494   4.883   4.771   5.534
    1STR    H20 3495   4.906   5.029   5.278
    1STR    H21 3496   5.039   4.947   5.335
    1STR    H22 3497   4.886   4.860   5.313
    1STR    H23 3498   4.912   5.177   5.352
    1STR    H27 3499   4.886   5.228   5.713
    1STR    H28 3500   4.054   4.817   5.077
    1STR    H29 3501   3.855   4.953   5.034
    1STR    H2A 3502   3.841   5.209   4.937
    1STR    H2B 3503   3.843   5.329   5.065
    1STR    H2C 3504   3.740   5.190   5.078
    1STR   BCK1 3505   5.797   7.162   7.118
    1STR    O03 3506   5.860   7.176   0.032
    1STR    N04 3507   5.748   0.066   7.041
    1STR    C05 3508   5.779   0.199   7.030
    1STR    C06 3509   5.880   0.260   7.103
    1STR    C07 3510   5.924   0.388   7.068
    1STR    N08 3511   6.029   0.440   7.138
    1STR    C09 3512   6.149   0.393   7.110
    1STR    O0A 3513   6.192   0.374   6.996
    1STR    O0B 3514   6.204   0.350   0.034
    1STR    C0C 3515   6.272   0.226   0.031
    1STR    C0D 3516   6.355   0.214   0.157
    1STR    C0E 3517   6.172   0.110   0.019
    1STR    O0F 3518   6.110   0.112   7.082
    1STR    C0G 3519   6.137   0.006   6.995
    1STR    C0H 3520   6.057   0.028   6.868
    1STR    C0I 3521   6.285   0.007   6.963
    1STR    O0J 3522   6.360   7.128   7.061
    1STR    C0K 3523   6.353   6.986   7.076
    1STR    C0M 3524   6.292   6.955   0.022
    1STR    C0N 3525   6.296   6.903   6.961
    1STR    O0O 3526   6.350   6.952   6.841
    1STR    C0P 3527   6.444   6.890   6.776
    1STR    O0Q 3528   6.439   6.773   6.745
    1STR    N0R 3529   6.543   6.968   6.741
    1STR    C0S 3530   6.573   7.086   6.805
    1STR    C0T 3531   6.551   0.018   6.741
    1STR    C0U 3532   6.569   0.136   6.814
    1STR    C0V 3533   6.607   0.131   6.948
    1STR    C0W 3534   6.619   0.258   7.026
    1STR    C0X 3535   6.633   0.009   7.011
    1STR    N0Y 3536   6.653   0.012   7.147
    1STR   BCK2 3537   6.648   7.104   0.045
    1STR    O10 3538   6.652   6.984   0.020
    1STR    C13 3539   6.623   7.081   6.935
    1STR    C14 3540   5.858   0.461   6.969
    1STR    C15 3541   5.748   0.405   6.904
    1STR    C16 3542   5.711   0.273   6.934
    1STR    C17 3543   5.600   0.207   6.860
    1STR    H1B 3544   5.685   0.030   6.971
    1STR    H1C 3545   5.928   0.206   7.182
    1STR    H1D 3546   6.010   0.458   0.045
    1STR    H1E 3547   6.339   0.225   7.135
    1STR    H1F 3548   6.293   0.214   0.246
    1STR    H1G 3549   6.411   0.121   0.154
    1STR    H1H 3550   6.427   0.296   0.163
    1STR    H1I 3551   6.095   0.119   0.096
    1STR    H1J 3552   6.221   0.016   0.040
    1STR    H1K 3553   6.105   7.102   7.041
    1STR    H1M 3554   6.078   0.126   6.825
    1STR    H1N 3555   5.951   0.023   6.888
    1STR    H1O 3556   6.081   7.142   6.794
    1STR    H1P 3557   6.304   7.164   6.861
    1STR    H1Q 3558   6.319   0.110   6.959
    1STR    H1R 3559   6.456   6.955   7.085
    1STR    H1S 3560   6.308   6.851   0.049
    1STR    H1T 3561   6.185   6.976   0.025
    1STR    H1U 3562   6.342   7.016   0.098
    1STR    H1V 3563   6.188   6.911   6.957
    1STR    H1W 3564   6.322   6.798   6.976
    1STR    H1X 3565   6.606   6.939   6.664
    1STR    H1Y 3566   6.520   0.022   6.639
    1STR    H1Z 3567   6.552   0.232   6.770
    1STR    H20 3568   6.547   0.262   7.108
    1STR    H21 3569   6.720   0.260   7.066
    1STR    H22 3570   6.604   0.345   6.962
    1STR    H23 3571   6.658   0.104   7.186
    1STR    H27 3572   6.643   6.986   6.981
    1STR    H28 3573   5.893   0.560   6.945
    1STR    H29 3574   5.696   0.460   6.829
    1STR    H2A 3575   5.548   0.139   6.924
    1STR    H2B 3576   5.642   0.149   6.779
    1STR    H2C 3577   5.531   0.282   6.822
    1STR   BCK1 3578   5.921   0.027   1.686
    1STR    O03 3579   6.007   7.132   1.703
    1STR    N04 3580   5.863   0.104   1.777
    1STR    C05 3581   5.862   0.085   1.913
    1STR    C06 3582   5.904   7.153   1.968
    1STR    C07 3583   5.930   7.141   2.104
    1STR    N08 3584   6.009   7.036   2.145
    1STR    C09 3585   5.989   6.909   2.108
    1STR    O0A 3586   5.880   6.855   2.108
    1STR    O0B 3587   6.097   6.843   2.069
    1STR    C0C 3588   6.225   6.899   2.044
    1STR    C0D 3589   6.302   6.782   1.988
    1STR    C0E 3590   6.223   7.013   1.941
    1STR    O0F 3591   6.212   7.136   2.009
    1STR    C0G 3592   6.223   0.056   1.921
    1STR    C0H 3593   6.175   0.178   1.996
    1STR    C0I 3594   6.366   0.068   1.875
    1STR    O0J 3595   6.380   0.039   1.737
    1STR    C0K 3596   6.456   0.139   1.670
    1STR    C0M 3597   6.512   0.073   1.546
    1STR    C0N 3598   6.371   0.263   1.635
    1STR    O0O 3599   6.340   0.342   1.750
    1STR    C0P 3600   6.435   0.416   1.804
    1STR    O0Q 3601   6.531   0.463   1.745
    1STR    N0R 3602   6.421   0.410   1.936
    1STR    C0S 3603   6.507   0.336   2.016
    1STR    C0T 3604   6.463   0.293   2.142
    1STR    C0U 3605   6.537   0.198   2.215
    1STR    C0V 3606   6.650   0.138   2.157
    1STR    C0W 3607   6.727   0.037   2.236
    1STR    C0X 3608   6.687   0.174   2.026
    1STR    N0Y 3609   6.769   0.100   1.945
    1STR   BCK2 3610   6.740   7.170   1.897
    1STR    O10 3611   6.790   7.133   1.793
    1STR    C13 3612   6.624   0.280   1.962
    1STR    C14 3613   5.903   0.059   2.190
    1STR    C15 3614   5.846   0.176   2.138
    1STR    C16 3615   5.826   0.190   2.000
    1STR    C17 3616   5.771   0.318   1.944
    1STR    H1B 3617   5.825   0.191   1.741
    1STR    H1C 3618   5.924   7.068   1.905
    1STR    H1D 3619   6.106   7.065   2.137
    1STR    H1E 3620   6.271   6.933   2.136
    1STR    H1F 3621   6.252   6.742   1.900
    1STR    H1G 3622   6.404   6.810   1.961
    1STR    H1H 3623   6.308   6.702   2.062
    1STR    H1I 3624   6.144   7.000   1.867
    1STR    H1J 3625   6.318   7.014   1.888
    1STR    H1K 3626   6.162   0.047   1.832
    1STR    H1M 3627   6.180   0.166   2.104
    1STR    H1N 3628   6.073   0.200   1.967
    1STR    H1O 3629   6.225   0.268   1.966
    1STR    H1P 3630   6.399   0.166   1.895
    1STR    H1Q 3631   6.430   0.008   1.936
    1STR    H1R 3632   6.544   0.168   1.729
    1STR    H1S 3633   6.575   0.143   1.491
    1STR    H1T 3634   6.434   0.038   1.480
    1STR    H1U 3635   6.576   7.180   1.575
    1STR    H1V 3636   6.278   0.233   1.588
    1STR    H1W 3637   6.424   0.326   1.564
    1STR    H1X 3638   6.323   0.404   1.956
    1STR    H1Y 3639   6.371   0.329   2.184
    1STR    H1Z 3640   6.505   0.168   2.313
    1STR    H20 3641   6.661   7.146   2.266
    1STR    H21 3642   6.808   7.185   2.177
    1STR    H22 3643   6.769   0.085   2.324
    1STR    H23 3644   6.824   0.151   1.878
    1STR    H27 3645   6.658   0.306   1.863
    1STR    H28 3646   5.925   0.051   2.295
    1STR    H29 3647   5.821   0.257   2.203
    1STR    H2A 3648   5.828   0.349   1.857
    1STR    H2B 3649   5.779   0.398   2.017
    1STR    H2C 3650   5.667   0.304   1.916
    1STR   BCK1 3651   5.908   7.172   3.682
    1STR    O03 3652   5.971   0.077   3.640
    1STR    N04 3653   5.817   7.102   3.613
    1STR    C05 3654   5.806   7.086   3.477
    1STR    C06 3655   5.835   7.187   3.385
    1STR    C07 3656   5.850   7.154   3.249
    1STR    N08 3657   5.915   0.052   3.167
    1STR    C09 3658   6.038   0.021   3.130
    1STR    O0A 3659   6.078   7.099   3.097
    1STR    O0B 3660   6.111   0.122   3.166
    1STR    C0C 3661   6.214   0.098   3.260
    1STR    C0D 3662   6.288   0.230   3.268
    1STR    C0E 3663   6.158   0.058   3.398
    1STR    O0F 3664   6.092   7.120   3.397
    1STR    C0G 3665   6.139   7.030   3.494
    1STR    C0H 3666   6.061   6.906   3.526
    1STR    C0I 3667   6.268   6.984   3.440
    1STR    O0J 3668   6.363   7.058   3.507
    1STR    C0K 3669   6.385   7.029   3.643
    1STR    C0M 3670   6.359   7.152   3.726
    1STR    C0N 3671   6.357   6.894   3.710
    1STR    O0O 3672   6.391   6.789   3.623
    1STR    C0P 3673   6.512   6.736   3.626
    1STR    O0Q 3674   6.574   6.704   3.727
    1STR    N0R 3675   6.563   6.721   3.505
    1STR    C0S 3676   6.572   6.834   3.431
    1STR    C0T 3677   6.500   6.860   3.315
    1STR    C0U 3678   6.511   6.987   3.257
    1STR    C0V 3679   6.580   7.090   3.325
    1STR    C0W 3680   6.561   0.039   3.278
    1STR    C0X 3681   6.653   7.062   3.441
    1STR    N0Y 3682   6.713   7.161   3.516
    1STR   BCK2 3683   6.735   7.168   3.648
    1STR    O10 3684   6.807   0.064   3.690
    1STR    C13 3685   6.659   6.930   3.483
    1STR    C14 3686   5.831   7.023   3.206
    1STR    C15 3687   5.789   6.926   3.294
    1STR    C16 3688   5.777   6.957   3.429
    1STR    C17 3689   5.754   6.843   3.520
    1STR    H1B 3690   5.756   7.041   3.666
    1STR    H1C 3691   5.865   0.092   3.423
    1STR    H1D 3692   5.912   0.148   3.193
    1STR    H1E 3693   6.278   0.018   3.222
    1STR    H1F 3694   6.219   0.312   3.288
    1STR    H1G 3695   6.362   0.230   3.347
    1STR    H1H 3696   6.338   0.250   3.173
    1STR    H1I 3697   6.088   0.133   3.431
    1STR    H1J 3698   6.239   0.062   3.470
    1STR    H1K 3699   6.147   7.083   3.588
    1STR    H1M 3700   6.018   6.863   3.437
    1STR    H1N 3701   5.987   6.931   3.600
    1STR    H1O 3702   6.121   6.832   3.577
    1STR    H1P 3703   6.285   6.877   3.447
    1STR    H1Q 3704   6.272   7.004   3.333
    1STR    H1R 3705   6.488   7.025   3.625
    1STR    H1S 3706   6.410   7.144   3.822
    1STR    H1T 3707   6.253   7.168   3.743
    1STR    H1U 3708   6.401   0.047   3.673
    1STR    H1V 3709   6.253   6.886   3.738
    1STR    H1W 3710   6.417   6.887   3.800
    1STR    H1X 3711   6.654   6.672   3.504
    1STR    H1Y 3712   6.438   6.785   3.270
    1STR    H1Z 3713   6.456   7.011   3.168
    1STR    H20 3714   6.537   0.104   3.362
    1STR    H21 3715   6.653   0.068   3.232
    1STR    H22 3716   6.486   0.045   3.200
    1STR    H23 3717   6.767   0.039   3.464
    1STR    H27 3718   6.716   6.902   3.569
    1STR    H28 3719   5.859   6.995   3.107
    1STR    H29 3720   5.775   6.825   3.260
    1STR    H2A 3721   5.805   6.849   3.615
    1STR    H2B 3722   5.793   6.754   3.474
    1STR    H2C 3723   5.648   6.838   3.536
    1STR   BCK1 3724   5.814   7.026   5.342
    1STR    O03 3725   5.851   7.018   5.459
    1STR    N04 3726   5.794   7.138   5.276
    1STR    C05 3727   5.828   0.078   5.308
    1STR    C06 3728   5.911   0.108   5.415
    1STR    C07 3729   5.968   0.235   5.428
    1STR    N08 3730   6.049   0.256   5.537
    1STR    C09 3731   6.168   0.211   5.509
    1STR    O0A 3732   6.244   0.272   5.437
    1STR    O0B 3733   6.177   0.086   5.549
    1STR    C0C 3734   6.248   7.182   5.472
    1STR    C0D 3735   6.277   7.070   5.570
    1STR    C0E 3736   6.166   7.131   5.351
    1STR    O0F 3737   6.140   0.040   5.252
    1STR    C0G 3738   6.112   7.177   5.122
    1STR    C0H 3739   6.013   0.072   5.044
    1STR    C0I 3740   6.239   7.181   5.042
    1STR    O0J 3741   6.313   7.070   5.079
    1STR    C0K 3742   6.424   7.106   5.155
    1STR    C0M 3743   6.450   6.981   5.237
    1STR    C0N 3744   6.534   7.135   5.056
    1STR    O0O 3745   6.528   0.065   4.979
    1STR    C0P 3746   6.520   0.195   5.013
    1STR    O0Q 3747   6.520   0.277   4.925
    1STR    N0R 3748   6.519   0.246   5.135
    1STR    C0S 3749   6.560   0.202   5.257
    1STR    C0T 3750   6.508   0.259   5.372
    1STR    C0U 3751   6.543   0.212   5.499
    1STR    C0V 3752   6.637   0.109   5.510
    1STR    C0W 3753   6.697   0.082   5.644
    1STR    C0X 3754   6.687   0.051   5.392
    1STR    N0Y 3755   6.761   7.127   5.381
    1STR   BCK2 3756   6.716   7.006   5.403
    1STR    O10 3757   6.749   6.914   5.330
    1STR    C13 3758   6.659   0.106   5.269
    1STR    C14 3759   5.952   0.328   5.326
    1STR    C15 3760   5.858   0.304   5.226
    1STR    C16 3761   5.791   0.181   5.223
    1STR    C17 3762   5.683   0.165   5.124
    1STR    H1B 3763   5.745   7.123   5.188
    1STR    H1C 3764   5.943   0.033   5.483
    1STR    H1D 3765   6.015   0.206   5.617
    1STR    H1E 3766   6.342   0.035   5.437
    1STR    H1F 3767   6.185   7.032   5.615
    1STR    H1G 3768   6.329   6.987   5.523
    1STR    H1H 3769   6.340   7.107   5.651
    1STR    H1I 3770   6.073   7.087   5.385
    1STR    H1J 3771   6.217   7.047   5.307
    1STR    H1K 3772   6.073   7.076   5.127
    1STR    H1M 3773   6.025   0.178   5.068
    1STR    H1N 3774   5.914   0.038   5.066
    1STR    H1O 3775   6.023   0.060   4.937
    1STR    H1P 3776   6.221   7.168   4.936
    1STR    H1Q 3777   6.287   0.088   5.057
    1STR    H1R 3778   6.405   7.189   5.224
    1STR    H1S 3779   6.538   6.927   5.203
    1STR    H1T 3780   6.367   6.911   5.234
    1STR    H1U 3781   6.463   7.010   5.340
    1STR    H1V 3782   6.522   7.060   4.978
    1STR    H1W 3783   6.632   7.111   5.095
    1STR    H1X 3784   6.482   0.340   5.134
    1STR    H1Y 3785   6.440   0.340   5.362
    1STR    H1Z 3786   6.503   0.260   5.586
    1STR    H20 3787   6.645   0.001   5.696
    1STR    H21 3788   6.802   0.057   5.629
    1STR    H22 3789   6.694   0.171   5.706
    1STR    H23 3790   6.840   7.130   5.319
    1STR    H27 3791   6.712   0.073   5.183
    1STR    H28 3792   6.003   0.422   5.329
    1STR    H29 3793   5.834   0.378   5.153
    1STR    H2A 3794   5.707   0.210   5.029
    1STR    H2B 3795   5.599   0.217   5.169
    1STR    H2C 3796   5.653   0.062   5.113
    1STR   BCK1 3797   5.878   1.838   0.032
    1STR    O03 3798   5.862   1.957   0.051
    1STR    N04 3799   5.818   1.748   0.111
    1STR    C05 3800   5.819   1.610   0.128
    1STR    C06 3801   5.877   1.522   0.037
    1STR    C07 3802   5.883   1.384   0.060
    1STR    N08 3803   5.935   1.306   7.150
    1STR    C09 3804   6.066   1.307   7.134
    1STR    O0A 3805   6.148   1.283   0.032
    1STR    O0B 3806   6.089   1.357   7.013
    1STR    C0C 3807   6.208   1.429   6.989
    1STR    C0D 3808   6.216   1.441   6.837
    1STR    C0E 3809   6.207   1.567   7.055
    1STR    O0F 3810   6.138   1.566   7.180
    1STR    C0G 3811   6.197   1.644   0.090
    1STR    C0H 3812   6.111   1.701   0.201
    1STR    C0I 3813   6.311   1.564   0.146
    1STR    O0J 3814   6.424   1.620   0.088
    1STR    C0K 3815   6.454   1.754   0.121
    1STR    C0M 3816   6.437   1.845  -0.001
    1STR    C0N 3817   6.425   1.812   0.261
    1STR    O0O 3818   6.448   1.714   0.362
    1STR    C0P 3819   6.568   1.706   0.421
    1STR    O0Q 3820   6.641   1.803   0.439
    1STR    N0R 3821   6.611   1.580   0.427
    1STR    C0S 3822   6.650   1.520   0.309
    1STR    C0T 3823   6.594   1.398   0.268
    1STR    C0U 3824   6.599   1.361   0.133
    1STR    C0V 3825   6.656   1.448   0.039
    1STR    C0W 3826   6.631   1.424   7.083
    1STR    C0X 3827   6.721   1.565   0.082
    1STR    N0Y 3828   6.760   1.655   7.175
    1STR   BCK2 3829   6.769   1.788   7.172
    1STR    O10 3830   6.791   1.839   7.065
    1STR    C13 3831   6.726   1.594   0.218
    1STR    C14 3832   5.827   1.331   0.176
    1STR    C15 3833   5.757   1.416   0.263
    1STR    C16 3834   5.753   1.554   0.239
    1STR    C17 3835   5.672   1.642   0.330
    1STR    H1B 3836   5.750   1.793   0.169
    1STR    H1C 3837   5.920   1.559   7.138
    1STR    H1D 3838   5.887   1.318   7.063
    1STR    H1E 3839   6.293   1.373   7.029
    1STR    H1F 3840   6.117   1.432   6.792
    1STR    H1G 3841   6.253   1.538   6.804
    1STR    H1H 3842   6.279   1.363   6.796
    1STR    H1I 3843   6.158   1.639   6.991
    1STR    H1J 3844   6.310   1.602   7.066
    1STR    H1K 3845   6.224   1.734   0.039
    1STR    H1M 3846   6.032   1.635   0.225
    1STR    H1N 3847   6.072   1.798   0.175
    1STR    H1O 3848   6.166   1.718   0.292
    1STR    H1P 3849   6.316   1.563   0.255
    1STR    H1Q 3850   6.304   1.460   0.119
    1STR    H1R 3851   6.556   1.737   0.129
    1STR    H1S 3852   6.500   1.932   0.005
    1STR    H1T 3853   6.337   1.883   7.173
    1STR    H1U 3854   6.468   1.788   7.102
    1STR    H1V 3855   6.324   1.850   0.269
    1STR    H1W 3856   6.489   1.898   0.277
    1STR    H1X 3857   6.559   1.517   0.491
    1STR    H1Y 3858   6.539   1.337   0.337
    1STR    H1Z 3859   6.550   1.271   0.102
    1STR    H20 3860   6.550   1.491   7.056
    1STR    H21 3861   6.719   1.445   7.024
    1STR    H22 3862   6.599   1.322   7.067
    1STR    H23 3863   6.773   1.612   7.086
    1STR    H27 3864   6.769   1.684   0.254
    1STR    H28 3865   5.831   1.224   0.192
    1STR    H29 3866   5.705   1.374   0.347
    1STR    H2A 3867   5.594   1.692   0.273
    1STR    H2B 3868   5.738   1.715   0.377
    1STR    H2C 3869   5.623   1.582   0.406
    1STR   BCK1 3870   5.858   1.789   1.813
    1STR    O03 3871   5.859   1.852   1.918
    1STR    N04 3872   5.809   1.829   1.696
    1STR    C05 3873   5.798   1.954   1.640
    1STR    C06 3874   5.888   2.052   1.678
    1STR    C07 3875   5.927   2.151   1.586
    1STR    N08 3876   6.053   2.202   1.605
    1STR    C09 3877   6.143   2.193   1.508
    1STR    O0A 3878   6.127   2.245   1.398
    1STR    O0B 3879   6.255   2.128   1.539
    1STR    C0C 3880   6.266   2.022   1.634
    1STR    C0D 3881   6.299   2.072   1.773
    1STR    C0E 3882   6.174   1.901   1.632
    1STR    O0F 3883   6.138   1.870   1.500
    1STR    C0G 3884   6.063   1.751   1.492
    1STR    C0H 3885   5.990   1.759   1.361
    1STR    C0I 3886   6.149   1.627   1.501
    1STR    O0J 3887   6.156   1.591   1.637
    1STR    C0K 3888   6.272   1.522   1.675
    1STR    C0M 3889   6.272   1.529   1.827
    1STR    C0N 3890   6.278   1.379   1.620
    1STR    O0O 3891   6.280   1.377   1.479
    1STR    C0P 3892   6.395   1.357   1.415
    1STR    O0Q 3893   6.481   1.279   1.453
    1STR    N0R 3894   6.419   1.457   1.331
    1STR    C0S 3895   6.481   1.571   1.378
    1STR    C0T 3896   6.453   1.697   1.321
    1STR    C0U 3897   6.486   1.814   1.391
    1STR    C0V 3898   6.549   1.807   1.517
    1STR    C0W 3899   6.584   1.928   1.598
    1STR    C0X 3900   6.580   1.682   1.570
    1STR    N0Y 3901   6.636   1.675   1.695
    1STR   BCK2 3902   6.635   1.572   1.777
    1STR    O10 3903   6.579   1.465   1.764
    1STR    C13 3904   6.555   1.567   1.496
    1STR    C14 3905   5.854   2.170   1.468
    1STR    C15 3906   5.750   2.082   1.437
    1STR    C16 3907   5.726   1.971   1.520
    1STR    C17 3908   5.628   1.870   1.472
    1STR    H1B 3909   5.797   1.755   1.629
    1STR    H1C 3910   5.944   2.038   1.769
    1STR    H1D 3911   6.082   2.192   1.702
    1STR    H1E 3912   6.351   1.974   1.593
    1STR    H1F 3913   6.213   2.119   1.820
    1STR    H1G 3914   6.330   1.990   1.837
    1STR    H1H 3915   6.380   2.145   1.768
    1STR    H1I 3916   6.088   1.912   1.696
    1STR    H1J 3917   6.229   1.817   1.675
    1STR    H1K 3918   5.989   1.743   1.569
    1STR    H1M 3919   6.064   1.788   1.289
    1STR    H1N 3920   5.912   1.835   1.363
    1STR    H1O 3921   5.949   1.663   1.331
    1STR    H1P 3922   6.106   1.544   1.446
    1STR    H1Q 3923   6.245   1.648   1.456
    1STR    H1R 3924   6.357   1.580   1.641
    1STR    H1S 3925   6.361   1.482   1.868
    1STR    H1T 3926   6.184   1.479   1.867
    1STR    H1U 3927   6.271   1.634   1.858
    1STR    H1V 3928   6.193   1.320   1.654
    1STR    H1W 3929   6.367   1.332   1.660
    1STR    H1X 3930   6.337   1.470   1.269
    1STR    H1Y 3931   6.401   1.702   1.228
    1STR    H1Z 3932   6.457   1.908   1.347
    1STR    H20 3933   6.543   1.919   1.699
    1STR    H21 3934   6.690   1.939   1.602
    1STR    H22 3935   6.543   2.016   1.551
    1STR    H23 3936   6.694   1.753   1.725
    1STR    H27 3937   6.585   1.472   1.536
    1STR    H28 3938   5.883   2.246   1.398
    1STR    H29 3939   5.696   2.095   1.346
    1STR    H2A 3940   5.662   1.769   1.491
    1STR    H2B 3941   5.611   1.881   1.366
    1STR    H2C 3942   5.536   1.888   1.523
    1STR   BCK1 3943   5.794   1.699   3.654
    1STR    O03 3944   5.855   1.625   3.729
    1STR    N04 3945   5.793   1.834   3.660
    1STR    C05 3946   5.863   1.916   3.750
    1STR    C06 3947   5.960   1.864   3.835
    1STR    C07 3948   6.045   1.941   3.913
    1STR    N08 3949   6.154   1.878   3.970
    1STR    C09 3950   6.133   1.759   4.026
    1STR    O0A 3951   6.054   1.744   4.119
    1STR    O0B 3952   6.191   1.654   3.965
    1STR    C0C 3953   6.281   1.659   3.854
    1STR    C0D 3954   6.351   1.525   3.867
    1STR    C0E 3955   6.216   1.659   3.714
    1STR    O0F 3956   6.141   1.772   3.674
    1STR    C0G 3957   6.198   1.866   3.586
    1STR    C0H 3958   6.097   1.971   3.545
    1STR    C0I 3959   6.318   1.931   3.650
    1STR    O0J 3960   6.438   1.869   3.611
    1STR    C0K 3961   6.477   1.858   3.474
    1STR    C0M 3962   6.454   1.714   3.433
    1STR    C0N 3963   6.434   1.969   3.377
    1STR    O0O 3964   6.421   2.089   3.450
    1STR    C0P 3965   6.476   2.205   3.419
    1STR    O0Q 3966   6.505   2.245   3.307
    1STR    N0R 3967   6.507   2.273   3.530
    1STR    C0S 3968   6.552   2.209   3.644
    1STR    C0T 3969   6.528   2.252   3.776
    1STR    C0U 3970   6.582   2.178   3.883
    1STR    C0V 3971   6.661   2.063   3.861
    1STR    C0W 3972   6.722   1.989   3.974
    1STR    C0X 3973   6.684   2.023   3.729
    1STR    N0Y 3974   6.761   1.917   3.689
    1STR   BCK2 3975   6.712   1.796   3.675
    1STR    O10 3976   6.745   1.731   3.577
    1STR    C13 3977   6.632   2.097   3.626
    1STR    C14 3978   6.026   2.080   3.917
    1STR    C15 3979   5.921   2.135   3.843
    1STR    C16 3980   5.842   2.055   3.758
    1STR    C17 3981   5.738   2.122   3.676
    1STR    H1B 3982   5.736   1.882   3.593
    1STR    H1C 3983   5.981   1.760   3.838
    1STR    H1D 3984   6.237   1.883   3.915
    1STR    H1E 3985   6.353   1.739   3.865
    1STR    H1F 3986   6.279   1.443   3.869
    1STR    H1G 3987   6.420   1.509   3.785
    1STR    H1H 3988   6.407   1.523   3.961
    1STR    H1I 3989   6.146   1.576   3.717
    1STR    H1J 3990   6.289   1.635   3.638
    1STR    H1K 3991   6.221   1.817   3.493
    1STR    H1M 3992   6.073   2.036   3.629
    1STR    H1N 3993   6.006   1.926   3.507
    1STR    H1O 3994   6.138   2.036   3.467
    1STR    H1P 3995   6.319   2.038   3.636
    1STR    H1Q 3996   6.313   1.924   3.758
    1STR    H1R 3997   6.585   1.869   3.474
    1STR    H1S 3998   6.497   1.693   3.336
    1STR    H1T 3999   6.351   1.689   3.424
    1STR    H1U 4000   6.498   1.647   3.506
    1STR    H1V 4001   6.337   1.946   3.334
    1STR    H1W 4002   6.509   1.977   3.300
    1STR    H1X 4003   6.514   2.372   3.520
    1STR    H1Y 4004   6.468   2.339   3.795
    1STR    H1Z 4005   6.563   2.210   3.984
    1STR    H20 4006   6.646   1.970   4.049
    1STR    H21 4007   6.762   1.892   3.943
    1STR    H22 4008   6.805   2.046   4.014
    1STR    H23 4009   6.824   1.938   3.614
    1STR    H27 4010   6.650   2.063   3.528
    1STR    H28 4011   6.092   2.142   3.974
    1STR    H29 4012   5.904   2.241   3.847
    1STR    H2A 4013   5.768   2.124   3.572
    1STR    H2B 4014   5.726   2.225   3.709
    1STR    H2C 4015   5.643   2.072   3.691
    1STR   BCK1 4016   5.900   1.751   5.353
    1STR    O03 4017   5.913   1.859   5.297
    1STR    N04 4018   5.822   1.654   5.310
    1STR    C05 4019   5.803   1.615   5.179
    1STR    C06 4020   5.796   1.702   5.070
    1STR    C07 4021   5.832   1.652   4.944
    1STR    N08 4022   5.853   1.737   4.840
    1STR    C09 4023   5.975   1.742   4.789
    1STR    O0A 4024   6.032   1.651   4.728
    1STR    O0B 4025   6.029   1.848   4.836
    1STR    C0C 4026   6.134   1.834   4.928
    1STR    C0D 4027   6.173   1.978   4.948
    1STR    C0E 4028   6.100   1.764   5.059
    1STR    O0F 4029   6.093   1.620   5.049
    1STR    C0G 4030   6.164   1.550   5.151
    1STR    C0H 4031   6.120   1.411   5.191
    1STR    C0I 4032   6.308   1.538   5.109
    1STR    O0J 4033   6.354   1.667   5.098
    1STR    C0K 4034   6.410   1.717   5.216
    1STR    C0M 4035   6.451   1.850   5.164
    1STR    C0N 4036   6.327   1.735   5.347
    1STR    O0O 4037   6.276   1.622   5.420
    1STR    C0P 4038   6.331   1.504   5.455
    1STR    O0Q 4039   6.259   1.409   5.471
    1STR    N0R 4040   6.460   1.485   5.479
    1STR    C0S 4041   6.563   1.571   5.465
    1STR    C0T 4042   6.657   1.543   5.367
    1STR    C0U 4043   6.725   1.649   5.308
    1STR    C0V 4044   6.700   1.780   5.351
    1STR    C0W 4045   6.752   1.890   5.268
    1STR    C0X 4046   6.619   1.804   5.463
    1STR    N0Y 4047   6.589   1.932   5.505
    1STR   BCK2 4048   6.624   1.979   5.624
    1STR    O10 4049   6.586   2.086   5.667
    1STR    C13 4050   6.555   1.697   5.525
    1STR    C14 4051   5.863   1.517   4.928
    1STR    C15 4052   5.844   1.427   5.031
    1STR    C16 4053   5.815   1.478   5.157
    1STR    C17 4054   5.820   1.382   5.269
    1STR    H1B 4055   5.811   1.578   5.376
    1STR    H1C 4056   5.784   1.808   5.086
    1STR    H1D 4057   5.809   1.827   4.855
    1STR    H1E 4058   6.214   1.776   4.887
    1STR    H1F 4059   6.103   2.030   5.012
    1STR    H1G 4060   6.271   1.985   4.991
    1STR    H1H 4061   6.175   2.028   4.851
    1STR    H1I 4062   6.009   1.808   5.094
    1STR    H1J 4063   6.170   1.798   5.133
    1STR    H1K 4064   6.147   1.608   5.240
    1STR    H1M 4065   6.070   1.357   5.112
    1STR    H1N 4066   6.061   1.421   5.280
    1STR    H1O 4067   6.202   1.349   5.225
    1STR    H1P 4068   6.368   1.479   5.178
    1STR    H1Q 4069   6.312   1.490   5.011
    1STR    H1R 4070   6.496   1.656   5.231
    1STR    H1S 4071   6.508   1.905   5.236
    1STR    H1T 4072   6.363   1.910   5.149
    1STR    H1U 4073   6.507   1.839   5.071
    1STR    H1V 4074   6.239   1.793   5.325
    1STR    H1W 4075   6.373   1.804   5.416
    1STR    H1X 4076   6.481   1.385   5.490
    1STR    H1Y 4077   6.663   1.445   5.323
    1STR    H1Z 4078   6.785   1.630   5.223
    1STR    H20 4079   6.711   1.985   5.300
    1STR    H21 4080   6.858   1.890   5.279
    1STR    H22 4081   6.726   1.872   5.164
    1STR    H23 4082   6.523   1.992   5.452
    1STR    H27 4083   6.484   1.716   5.604
    1STR    H28 4084   5.904   1.483   4.834
    1STR    H29 4085   5.865   1.323   5.019
    1STR    H2A 4086   5.866   1.291   5.233
    1STR    H2B 4087   5.719   1.366   5.301
    1STR    H2C 4088   5.878   1.416   5.353
    1STR   BCK1 4089   5.841   3.409   7.091
    1STR    O03 4090   5.933   3.434   7.167
    1STR    N04 4091   5.772   3.496   7.019
    1STR    C05 4092   5.775   3.635   7.018
    1STR    C06 4093   5.838   3.712   7.115
    1STR    C07 4094   5.852   3.851   7.099
    1STR    N08 4095   5.924   3.920   0.003
    1STR    C09 4096   6.054   3.940   7.179
    1STR    O0A 4097   6.113   3.970   7.075
    1STR    O0B 4098   6.109   3.904   0.101
    1STR    C0C 4099   6.195   3.790   0.103
    1STR    C0D 4100   6.202   3.758   0.251
    1STR    C0E 4101   6.148   3.665   0.027
    1STR    O0F 4102   6.096   3.698   7.089
    1STR    C0G 4103   6.129   3.620   6.979
    1STR    C0H 4104   6.043   3.648   6.857
    1STR    C0I 4105   6.272   3.658   6.954
    1STR    O0J 4106   6.356   3.565   7.018
    1STR    C0K 4107   6.343   3.427   6.989
    1STR    C0M 4108   6.291   3.352   7.111
    1STR    C0N 4109   6.297   3.380   6.850
    1STR    O0O 4110   6.335   3.479   6.756
    1STR    C0P 4111   6.422   3.455   6.662
    1STR    O0Q 4112   6.417   3.360   6.586
    1STR    N0R 4113   6.521   3.544   6.661
    1STR    C0S 4114   6.565   3.606   6.776
    1STR    C0T 4115   6.542   3.742   6.800
    1STR    C0U 4116   6.575   3.793   6.926
    1STR    C0V 4117   6.628   3.712   7.026
    1STR    C0W 4118   6.665   3.774   7.157
    1STR    C0X 4119   6.644   3.574   7.005
    1STR    N0Y 4120   6.652   3.491   7.116
    1STR   BCK2 4121   6.635   3.358   7.120
    1STR    O10 4122   6.635   3.283   7.024
    1STR    C13 4123   6.622   3.526   6.875
    1STR    C14 4124   5.781   3.917   6.999
    1STR    C15 4125   5.706   3.842   6.910
    1STR    C16 4126   5.709   3.701   6.914
    1STR    C17 4127   5.643   3.621   6.808
    1STR    H1B 4128   5.702   3.454   6.961
    1STR    H1C 4129   5.884   3.664   0.009
    1STR    H1D 4130   5.896   3.908   0.098
    1STR    H1E 4131   6.293   3.818   0.063
    1STR    H1F 4132   6.103   3.755   0.295
    1STR    H1G 4133   6.249   3.661   0.266
    1STR    H1H 4134   6.261   3.834   0.303
    1STR    H1I 4135   6.071   3.613   0.082
    1STR    H1J 4136   6.231   3.595   0.022
    1STR    H1K 4137   6.113   3.516   7.002
    1STR    H1M 4138   6.011   3.752   6.853
    1STR    H1N 4139   5.955   3.585   6.857
    1STR    H1O 4140   6.093   3.622   6.764
    1STR    H1P 4141   6.294   3.672   6.849
    1STR    H1Q 4142   6.293   3.757   6.996
    1STR    H1R 4143   6.444   3.399   6.984
    1STR    H1S 4144   6.318   3.247   7.106
    1STR    H1T 4145   6.184   3.361   7.125
    1STR    H1U 4146   6.339   3.394   0.010
    1STR    H1V 4147   6.190   3.367   6.845
    1STR    H1W 4148   6.344   3.285   6.827
    1STR    H1X 4149   6.591   3.519   6.591
    1STR    H1Y 4150   6.493   3.802   6.726
    1STR    H1Z 4151   6.550   3.893   6.950
    1STR    H20 4152   6.586   3.838   0.005
    1STR    H21 4153   6.687   3.700   0.042
    1STR    H22 4154   6.758   3.826   7.143
    1STR    H23 4155   6.637   3.537   0.016
    1STR    H27 4156   6.636   3.422   6.851
    1STR    H28 4157   5.779   4.024   6.992
    1STR    H29 4158   5.642   3.896   6.843
    1STR    H2A 4159   5.604   3.528   6.846
    1STR    H2B 4160   5.714   3.603   6.728
    1STR    H2C 4161   5.560   3.677   6.771
    1STR   BCK1 4162   5.808   3.587   1.617
    1STR    O03 4163   5.723   3.625   1.539
    1STR    N04 4164   5.805   3.633   1.741
    1STR    C05 4165   5.847   3.582   1.863
    1STR    C06 4166   5.891   3.451   1.880
    1STR    C07 4167   5.936   3.406   2.004
    1STR    N08 4168   5.983   3.278   2.008
    1STR    C09 4169   6.111   3.261   2.029
    1STR    O0A 4170   6.176   3.312   2.119
    1STR    O0B 4171   6.157   3.188   1.932
    1STR    C0C 4172   6.237   3.246   1.831
    1STR    C0D 4173   6.234   3.138   1.726
    1STR    C0E 4174   6.191   3.379   1.766
    1STR    O0F 4175   6.192   3.496   1.847
    1STR    C0G 4176   6.164   3.615   1.773
    1STR    C0H 4177   6.112   3.725   1.865
    1STR    C0I 4178   6.283   3.657   1.686
    1STR    O0J 4179   6.297   3.798   1.679
    1STR    C0K 4180   6.426   3.842   1.718
    1STR    C0M 4181   6.460   3.963   1.633
    1STR    C0N 4182   6.433   3.869   1.869
    1STR    O0O 4183   6.370   3.768   1.947
    1STR    C0P 4184   6.419   3.723   2.061
    1STR    O0Q 4185   6.518   3.768   2.117
    1STR    N0R 4186   6.346   3.619   2.102
    1STR    C0S 4187   6.409   3.496   2.106
    1STR    C0T 4188   6.430   3.415   2.218
    1STR    C0U 4189   6.500   3.294   2.204
    1STR    C0V 4190   6.559   3.259   2.081
    1STR    C0W 4191   6.649   3.139   2.067
    1STR    C0X 4192   6.540   3.342   1.970
    1STR    N0Y 4193   6.617   3.328   1.856
    1STR   BCK2 4194   6.671   3.427   1.787
    1STR    O10 4195   6.774   3.410   1.728
    1STR    C13 4196   6.451   3.449   1.983
    1STR    C14 4197   5.939   3.492   2.113
    1STR    C15 4198   5.880   3.618   2.101
    1STR    C16 4199   5.830   3.662   1.977
    1STR    C17 4200   5.757   3.792   1.968
    1STR    H1B 4201   5.747   3.716   1.750
    1STR    H1C 4202   5.891   3.381   1.799
    1STR    H1D 4203   5.946   3.218   1.936
    1STR    H1E 4204   6.337   3.256   1.866
    1STR    H1F 4205   6.133   3.099   1.712
    1STR    H1G 4206   6.264   3.174   1.629
    1STR    H1H 4207   6.298   3.055   1.755
    1STR    H1I 4208   6.091   3.362   1.727
    1STR    H1J 4209   6.254   3.396   1.679
    1STR    H1K 4210   6.083   3.597   1.704
    1STR    H1M 4211   6.100   3.689   1.967
    1STR    H1N 4212   6.017   3.761   1.827
    1STR    H1O 4213   6.168   3.817   1.867
    1STR    H1P 4214   6.371   3.607   1.723
    1STR    H1Q 4215   6.270   3.620   1.584
    1STR    H1R 4216   6.499   3.771   1.684
    1STR    H1S 4217   6.470   3.929   1.530
    1STR    H1T 4218   6.555   4.005   1.663
    1STR    H1U 4219   6.382   4.039   1.636
    1STR    H1V 4220   6.376   3.959   1.883
    1STR    H1W 4221   6.535   3.886   1.900
    1STR    H1X 4222   6.264   3.610   2.043
    1STR    H1Y 4223   6.387   3.442   2.313
    1STR    H1Z 4224   6.513   3.231   2.290
    1STR    H20 4225   6.751   3.174   2.049
    1STR    H21 4226   6.648   3.079   2.158
    1STR    H22 4227   6.616   3.079   1.983
    1STR    H23 4228   6.675   3.246   1.848
    1STR    H27 4229   6.421   3.503   1.896
    1STR    H28 4230   5.979   3.458   2.207
    1STR    H29 4231   5.868   3.680   2.186
    1STR    H2A 4232   5.667   3.783   1.908
    1STR    H2B 4233   5.820   3.870   1.928
    1STR    H2C 4234   5.721   3.820   2.067
    1STR   BCK1 4235   5.851   3.558   3.691
    1STR    O03 4236   5.885   3.676   3.688
    1STR    N04 4237   5.781   3.495   3.597
    1STR    C05 4238   5.776   3.519   3.461
    1STR    C06 4239   5.811   3.644   3.409
    1STR    C07 4240   5.821   3.664   3.272
    1STR    N08 4241   5.886   3.778   3.232
    1STR    C09 4242   6.012   3.755   3.202
    1STR    O0A 4243   6.043   3.689   3.105
    1STR    O0B 4244   6.093   3.795   3.300
    1STR    C0C 4245   6.188   3.704   3.352
    1STR    C0D 4246   6.312   3.778   3.399
    1STR    C0E 4247   6.130   3.621   3.466
    1STR    O0F 4248   6.063   3.507   3.416
    1STR    C0G 4249   6.101   3.390   3.486
    1STR    C0H 4250   6.004   3.275   3.473
    1STR    C0I 4251   6.232   3.346   3.427
    1STR    O0J 4252   6.327   3.331   3.530
    1STR    C0K 4253   6.334   3.218   3.616
    1STR    C0M 4254   6.255   3.249   3.742
    1STR    C0N 4255   6.311   3.076   3.557
    1STR    O0O 4256   6.324   3.083   3.417
    1STR    C0P 4257   6.383   2.992   3.344
    1STR    O0Q 4258   6.381   2.871   3.365
    1STR    N0R 4259   6.445   3.045   3.239
    1STR    C0S 4260   6.484   3.178   3.230
    1STR    C0T 4261   6.501   3.243   3.107
    1STR    C0U 4262   6.542   3.377   3.107
    1STR    C0V 4263   6.546   3.454   3.224
    1STR    C0W 4264   6.568   3.604   3.219
    1STR    C0X 4265   6.542   3.386   3.345
    1STR    N0Y 4266   6.563   3.450   3.464
    1STR   BCK2 4267   6.639   3.400   3.559
    1STR    O10 4268   6.719   3.308   3.542
    1STR    C13 4269   6.520   3.249   3.345
    1STR    C14 4270   5.790   3.561   3.182
    1STR    C15 4271   5.747   3.438   3.233
    1STR    C16 4272   5.739   3.417   3.371
    1STR    C17 4273   5.698   3.280   3.414
    1STR    H1B 4274   5.733   3.411   3.627
    1STR    H1C 4275   5.843   3.723   3.473
    1STR    H1D 4276   5.869   3.855   3.295
    1STR    H1E 4277   6.218   3.634   3.275
    1STR    H1F 4278   6.293   3.835   3.489
    1STR    H1G 4279   6.389   3.706   3.426
    1STR    H1H 4280   6.351   3.843   3.321
    1STR    H1I 4281   6.061   3.681   3.525
    1STR    H1J 4282   6.210   3.594   3.535
    1STR    H1K 4283   6.111   3.412   3.592
    1STR    H1M 4284   5.967   3.266   3.371
    1STR    H1N 4285   5.924   3.292   3.543
    1STR    H1O 4286   6.049   3.181   3.502
    1STR    H1P 4287   6.219   3.264   3.358
    1STR    H1Q 4288   6.272   3.424   3.363
    1STR    H1R 4289   6.438   3.220   3.646
    1STR    H1S 4290   6.291   3.187   3.824
    1STR    H1T 4291   6.148   3.234   3.730
    1STR    H1U 4292   6.273   3.353   3.771
    1STR    H1V 4293   6.212   3.038   3.580
    1STR    H1W 4294   6.385   3.008   3.599
    1STR    H1X 4295   6.465   2.977   3.169
    1STR    H1Y 4296   6.489   3.190   3.015
    1STR    H1Z 4297   6.576   3.419   3.016
    1STR    H20 4298   6.489   3.655   3.168
    1STR    H21 4299   6.570   3.647   3.317
    1STR    H22 4300   6.660   3.631   3.167
    1STR    H23 4301   6.514   3.533   3.489
    1STR    H27 4302   6.525   3.198   3.440
    1STR    H28 4303   5.805   3.574   3.077
    1STR    H29 4304   5.725   3.357   3.167
    1STR    H2A 4305   5.724   3.256   3.516
    1STR    H2B 4306   5.745   3.206   3.351
    1STR    H2C 4307   5.591   3.268   3.404
    1STR   BCK1 4308   5.794   3.447   5.398
    1STR    O03 4309   5.846   3.412   5.503
    1STR    N04 4310   5.763   3.570   5.364
    1STR    C05 4311   5.820   3.691   5.395
    1STR    C06 4312   5.908   3.715   5.501
    1STR    C07 4313   5.997   3.826   5.491
    1STR    N08 4314   6.115   3.825   5.561
    1STR    C09 4315   6.120   3.769   5.679
    1STR    O0A 4316   6.071   3.824   5.777
    1STR    O0B 4317   6.170   3.645   5.680
    1STR    C0C 4318   6.238   3.577   5.573
    1STR    C0D 4319   6.288   3.457   5.651
    1STR    C0E 4320   6.155   3.523   5.453
    1STR    O0F 4321   6.109   3.619   5.360
    1STR    C0G 4322   6.165   3.618   5.232
    1STR    C0H 4323   6.087   3.700   5.131
    1STR    C0I 4324   6.302   3.676   5.250
    1STR    O0J 4325   6.391   3.573   5.287
    1STR    C0K 4326   6.438   3.486   5.185
    1STR    C0M 4327   6.368   3.350   5.189
    1STR    C0N 4328   6.450   3.551   5.044
    1STR    O0O 4329   6.510   3.681   5.045
    1STR    C0P 4330   6.610   3.699   5.128
    1STR    O0Q 4331   6.698   3.617   5.146
    1STR    N0R 4332   6.590   3.805   5.205
    1STR    C0S 4333   6.621   3.810   5.339
    1STR    C0T 4334   6.631   3.933   5.402
    1STR    C0U 4335   6.662   3.945   5.537
    1STR    C0V 4336   6.674   3.830   5.616
    1STR    C0W 4337   6.709   3.844   5.761
    1STR    C0X 4338   6.657   3.704   5.557
    1STR    N0Y 4339   6.667   3.592   5.636
    1STR   BCK2 4340   6.621   3.471   5.608
    1STR    O10 4341   6.553   3.440   5.511
    1STR    C13 4342   6.636   3.695   5.418
    1STR    C14 4343   5.993   3.912   5.382
    1STR    C15 4344   5.902   3.888   5.281
    1STR    C16 4345   5.812   3.783   5.292
    1STR    C17 4346   5.714   3.762   5.184
    1STR    H1B 4347   5.716   3.570   5.274
    1STR    H1C 4348   5.922   3.638   5.573
    1STR    H1D 4349   6.185   3.791   5.496
    1STR    H1E 4350   6.323   3.635   5.537
    1STR    H1F 4351   6.205   3.406   5.701
    1STR    H1G 4352   6.335   3.385   5.585
    1STR    H1H 4353   6.360   3.488   5.725
    1STR    H1I 4354   6.070   3.469   5.492
    1STR    H1J 4355   6.213   3.448   5.400
    1STR    H1K 4356   6.163   3.518   5.192
    1STR    H1M 4357   6.096   3.807   5.149
    1STR    H1N 4358   5.983   3.669   5.127
    1STR    H1O 4359   6.127   3.683   5.031
    1STR    H1P 4360   6.329   3.735   5.163
    1STR    H1Q 4361   6.302   3.750   5.329
    1STR    H1R 4362   6.538   3.461   5.219
    1STR    H1S 4363   6.425   3.279   5.130
    1STR    H1T 4364   6.267   3.352   5.148
    1STR    H1U 4365   6.365   3.315   5.292
    1STR    H1V 4366   6.351   3.559   4.998
    1STR    H1W 4367   6.508   3.485   4.981
    1STR    H1X 4368   6.566   3.890   5.157
    1STR    H1Y 4369   6.618   4.020   5.342
    1STR    H1Z 4370   6.679   4.042   5.578
    1STR    H20 4371   6.632   3.796   5.820
    1STR    H21 4372   6.805   3.797   5.778
    1STR    H22 4373   6.715   3.949   5.788
    1STR    H23 4374   6.717   3.600   5.723
    1STR    H27 4375   6.629   3.599   5.370
    1STR    H28 4376   6.066   3.989   5.368
    1STR    H29 4377   5.903   3.949   5.192
    1STR    H2A 4378   5.739   3.668   5.136
    1STR    H2B 4379   5.722   3.840   5.111
    1STR    H2C 4380   5.613   3.762   5.225
    1STR   BCK1 4381   5.775   5.405   7.043
    1STR    O03 4382   5.738   5.487   6.961
    1STR    N04 4383   5.727   5.280   7.038
    1STR    C05 4384   5.765   5.166   7.102
    1STR    C06 4385   5.899   5.148   7.127
    1STR    C07 4386   5.946   5.037   0.005
    1STR    N08 4387   6.080   5.017   7.191
    1STR    C09 4388   6.130   4.936   7.099
    1STR    O0A 4389   6.077   4.828   7.071
    1STR    O0B 4390   6.215   4.998   7.017
    1STR    C0C 4391   6.315   5.088   7.060
    1STR    C0D 4392   6.411   5.081   6.944
    1STR    C0E 4393   6.281   5.237   7.078
    1STR    O0F 4394   6.163   5.257   7.151
    1STR    C0G 4395   6.172   5.317   0.087
    1STR    C0H 4396   6.242   5.225   0.182
    1STR    C0I 4397   6.218   5.461   0.083
    1STR    O0J 4398   6.258   5.498   0.213
    1STR    C0K 4399   6.399   5.501   0.218
    1STR    C0M 4400   6.442   5.636   0.159
    1STR    C0N 4401   6.447   5.466   0.360
    1STR    O0O 4402   6.442   5.325   0.375
    1STR    C0P 4403   6.525   5.261   0.459
    1STR    O0Q 4404   6.557   5.300   0.569
    1STR    N0R 4405   6.577   5.147   0.412
    1STR    C0S 4406   6.587   5.105   0.280
    1STR    C0T 4407   6.611   4.972   0.244
    1STR    C0U 4408   6.640   4.942   0.110
    1STR    C0V 4409   6.656   5.045   0.016
    1STR    C0W 4410   6.705   5.016   7.069
    1STR    C0X 4411   6.638   5.177   0.054
    1STR    N0Y 4412   6.686   5.279   7.164
    1STR   BCK2 4413   6.740   5.395   0.009
    1STR    O10 4414   6.819   5.447   7.128
    1STR    C13 4415   6.594   5.202   0.182
    1STR    C14 4416   5.857   4.941   0.051
    1STR    C15 4417   5.723   4.949   0.012
    1STR    C16 4418   5.680   5.056   7.122
    1STR    C17 4419   5.553   5.039   7.045
    1STR    H1B 4420   5.644   5.274   6.976
    1STR    H1C 4421   5.966   5.219   7.085
    1STR    H1D 4422   6.134   5.104   0.009
    1STR    H1E 4423   6.361   5.051   7.152
    1STR    H1F 4424   6.360   5.089   6.848
    1STR    H1G 4425   6.481   5.164   6.949
    1STR    H1H 4426   6.465   4.987   6.946
    1STR    H1I 4427   6.264   5.286   6.983
    1STR    H1J 4428   6.366   5.288   7.122
    1STR    H1K 4429   6.073   5.321   0.126
    1STR    H1M 4430   6.345   5.207   0.153
    1STR    H1N 4431   6.190   5.131   0.189
    1STR    H1O 4432   6.241   5.269   0.281
    1STR    H1P 4433   6.295   5.476   0.008
    1STR    H1Q 4434   6.139   5.528   0.052
    1STR    H1R 4435   6.439   5.426   0.151
    1STR    H1S 4436   6.484   5.619   0.060
    1STR    H1T 4437   6.519   5.684   0.219
    1STR    H1U 4438   6.358   5.704   0.145
    1STR    H1V 4439   6.386   5.515   0.435
    1STR    H1W 4440   6.550   5.499   0.371
    1STR    H1X 4441   6.630   5.097   0.480
    1STR    H1Y 4442   6.605   4.890   0.314
    1STR    H1Z 4443   6.654   4.839   0.080
    1STR    H20 4444   6.662   5.083   6.997
    1STR    H21 4445   6.812   5.030   7.067
    1STR    H22 4446   6.680   4.915   7.041
    1STR    H23 4447   6.722   5.245   7.077
    1STR    H27 4448   6.580   5.300   0.210
    1STR    H28 4449   5.896   4.856   0.101
    1STR    H29 4450   5.657   4.868   0.035
    1STR    H2A 4451   5.519   4.936   7.051
    1STR    H2B 4452   5.567   5.062   6.940
    1STR    H2C 4453   5.477   5.101   7.084
    1STR   BCK1 4454   5.788   5.416   1.642
    1STR    O03 4455   5.759   5.504   1.724
    1STR    N04 4456   5.790   5.432   1.510
    1STR    C05 4457   5.793   5.559   1.459
    1STR    C06 4458   5.917   5.620   1.450
    1STR    C07 4459   5.928   5.760   1.455
    1STR    N08 4460   6.040   5.818   1.512
    1STR    C09 4461   6.144   5.744   1.550
    1STR    O0A 4462   6.211   5.677   1.472
    1STR    O0B 4463   6.152   5.744   1.683
    1STR    C0C 4464   6.216   5.635   1.749
    1STR    C0D 4465   6.256   5.681   1.888
    1STR    C0E 4466   6.124   5.511   1.761
    1STR    O0F 4467   6.080   5.461   1.636
    1STR    C0G 4468   6.139   5.340   1.593
    1STR    C0H 4469   6.077   5.294   1.463
    1STR    C0I 4470   6.285   5.362   1.567
    1STR    O0J 4471   6.364   5.305   1.669
    1STR    C0K 4472   6.382   5.164   1.679
    1STR    C0M 4473   6.309   5.124   1.805
    1STR    C0N 4474   6.355   5.072   1.559
    1STR    O0O 4475   6.398   5.138   1.444
    1STR    C0P 4476   6.493   5.094   1.367
    1STR    O0Q 4477   6.520   4.975   1.351
    1STR    N0R 4478   6.552   5.192   1.300
    1STR    C0S 4479   6.555   5.327   1.336
    1STR    C0T 4480   6.557   5.431   1.244
    1STR    C0U 4481   6.561   5.564   1.290
    1STR    C0V 4482   6.569   5.591   1.428
    1STR    C0W 4483   6.575   5.733   1.474
    1STR    C0X 4484   6.577   5.487   1.521
    1STR    N0Y 4485   6.586   5.509   1.658
    1STR   BCK2 4486   6.632   5.421   1.747
    1STR    O10 4487   6.689   5.318   1.716
    1STR    C13 4488   6.568   5.357   1.471
    1STR    C14 4489   5.813   5.837   1.433
    1STR    C15 4490   5.689   5.773   1.420
    1STR    C16 4491   5.677   5.635   1.446
    1STR    C17 4492   5.544   5.575   1.478
    1STR    H1B 4493   5.837   5.356   1.465
    1STR    H1C 4494   6.003   5.559   1.461
    1STR    H1D 4495   6.021   5.894   1.575
    1STR    H1E 4496   6.308   5.611   1.697
    1STR    H1F 4497   6.168   5.707   1.947
    1STR    H1G 4498   6.309   5.601   1.939
    1STR    H1H 4499   6.322   5.768   1.881
    1STR    H1I 4500   6.034   5.538   1.816
    1STR    H1J 4501   6.173   5.432   1.819
    1STR    H1K 4502   6.123   5.264   1.669
    1STR    H1M 4503   6.081   5.372   1.389
    1STR    H1N 4504   5.975   5.261   1.475
    1STR    H1O 4505   6.131   5.207   1.426
    1STR    H1P 4506   6.312   5.336   1.465
    1STR    H1Q 4507   6.308   5.467   1.560
    1STR    H1R 4508   6.488   5.153   1.697
    1STR    H1S 4509   6.353   5.034   1.847
    1STR    H1T 4510   6.203   5.109   1.788
    1STR    H1U 4511   6.316   5.202   1.880
    1STR    H1V 4512   6.249   5.051   1.548
    1STR    H1W 4513   6.407   4.977   1.573
    1STR    H1X 4514   6.611   5.163   1.223
    1STR    H1Y 4515   6.554   5.414   1.138
    1STR    H1Z 4516   6.556   5.643   1.218
    1STR    H20 4517   6.479   5.762   1.516
    1STR    H21 4518   6.652   5.738   1.551
    1STR    H22 4519   6.602   5.798   1.392
    1STR    H23 4520   6.562   5.599   1.693
    1STR    H27 4521   6.568   5.274   1.538
    1STR    H28 4522   5.818   5.944   1.433
    1STR    H29 4523   5.601   5.831   1.407
    1STR    H2A 4524   5.546   5.467   1.473
    1STR    H2B 4525   5.466   5.613   1.413
    1STR    H2C 4526   5.521   5.595   1.581
    1STR   BCK1 4527   5.874   5.293   3.407
    1STR    O03 4528   5.971   5.225   3.437
    1STR    N04 4529   5.828   5.398   3.471
    1STR    C05 4530   5.855   5.438   3.599
    1STR    C06 4531   5.909   5.348   3.692
    1STR    C07 4532   5.940   5.392   3.822
    1STR    N08 4533   6.025   5.310   3.892
    1STR    C09 4534   6.117   5.358   3.975
    1STR    O0A 4535   6.099   5.444   4.058
    1STR    O0B 4536   6.237   5.315   3.941
    1STR    C0C 4537   6.309   5.380   3.837
    1STR    C0D 4538   6.409   5.274   3.795
    1STR    C0E 4539   6.218   5.432   3.725
    1STR    O0F 4540   6.257   5.534   3.639
    1STR    C0G 4541   6.159   5.565   3.542
    1STR    C0H 4542   6.167   5.710   3.500
    1STR    C0I 4543   6.159   5.468   3.423
    1STR    O0J 4544   6.272   5.484   3.341
    1STR    C0K 4545   6.389   5.443   3.407
    1STR    C0M 4546   6.457   5.345   3.318
    1STR    C0N 4547   6.475   5.567   3.421
    1STR    O0O 4548   6.459   5.634   3.544
    1STR    C0P 4549   6.514   5.580   3.650
    1STR    O0Q 4550   6.584   5.480   3.644
    1STR    N0R 4551   6.493   5.654   3.760
    1STR    C0S 4552   6.578   5.642   3.868
    1STR    C0T 4553   6.535   5.628   4.001
    1STR    C0U 4554   6.624   5.570   4.094
    1STR    C0V 4555   6.746   5.516   4.050
    1STR    C0W 4556   6.835   5.435   4.138
    1STR    C0X 4557   6.789   5.543   3.921
    1STR    N0Y 4558   6.886   5.470   3.856
    1STR   BCK2 4559   6.842   5.367   3.785
    1STR    O10 4560   6.871   5.354   3.668
    1STR    C13 4561   6.713   5.622   3.838
    1STR    C14 4562   5.910   5.524   3.859
    1STR    C15 4563   5.859   5.614   3.767
    1STR    C16 4564   5.833   5.571   3.636
    1STR    C17 4565   5.800   5.674   3.535
    1STR    H1B 4566   5.756   5.451   3.424
    1STR    H1C 4567   5.930   5.247   3.665
    1STR    H1D 4568   6.058   5.224   3.843
    1STR    H1E 4569   6.361   5.464   3.880
    1STR    H1F 4570   6.364   5.176   3.788
    1STR    H1G 4571   6.456   5.294   3.700
    1STR    H1H 4572   6.482   5.266   3.874
    1STR    H1I 4573   6.147   5.495   3.776
    1STR    H1J 4574   6.170   5.349   3.674
    1STR    H1K 4575   6.065   5.556   3.590
    1STR    H1M 4576   6.258   5.733   3.447
    1STR    H1N 4577   6.158   5.775   3.587
    1STR    H1O 4578   6.084   5.731   3.434
    1STR    H1P 4579   6.155   5.365   3.457
    1STR    H1Q 4580   6.071   5.485   3.362
    1STR    H1R 4581   6.375   5.392   3.502
    1STR    H1S 4582   6.542   5.305   3.373
    1STR    H1T 4583   6.494   5.392   3.226
    1STR    H1U 4584   6.393   5.263   3.290
    1STR    H1V 4585   6.455   5.634   3.338
    1STR    H1W 4586   6.577   5.535   3.413
    1STR    H1X 4587   6.406   5.704   3.762
    1STR    H1Y 4588   6.436   5.656   4.032
    1STR    H1Z 4589   6.595   5.561   4.196
    1STR    H20 4590   6.790   5.414   4.234
    1STR    H21 4591   6.862   5.342   4.088
    1STR    H22 4592   6.924   5.496   4.147
    1STR    H23 4593   6.953   5.527   3.809
    1STR    H27 4594   6.748   5.634   3.738
    1STR    H28 4595   5.932   5.562   3.958
    1STR    H29 4596   5.842   5.716   3.796
    1STR    H2A 4597   5.834   5.644   3.436
    1STR    H2B 4598   5.851   5.766   3.561
    1STR    H2C 4599   5.692   5.686   3.538
    1STR   BCK1 4600   5.844   5.491   5.368
    1STR    O03 4601   5.862   5.588   5.295
    1STR    N04 4602   5.800   5.373   5.325
    1STR    C05 4603   5.812   5.315   5.201
    1STR    C06 4604   5.887   5.372   5.097
    1STR    C07 4605   5.930   5.294   4.988
    1STR    N08 4606   6.045   5.324   4.920
    1STR    C09 4607   6.154   5.325   4.994
    1STR    O0A 4608   6.232   5.230   4.995
    1STR    O0B 4609   6.156   5.435   5.069
    1STR    C0C 4610   6.233   5.445   5.185
    1STR    C0D 4611   6.271   5.593   5.189
    1STR    C0E 4612   6.154   5.408   5.311
    1STR    O0F 4613   6.079   5.286   5.303
    1STR    C0G 4614   6.130   5.180   5.380
    1STR    C0H 4615   6.041   5.057   5.384
    1STR    C0I 4616   6.260   5.141   5.316
    1STR    O0J 4617   6.367   5.218   5.363
    1STR    C0K 4618   6.421   5.194   5.491
    1STR    C0M 4619   6.369   5.287   5.599
    1STR    C0N 4620   6.466   5.051   5.533
    1STR    O0O 4621   6.413   4.941   5.459
    1STR    C0P 4622   6.462   4.892   5.342
    1STR    O0Q 4623   6.399   4.812   5.274
    1STR    N0R 4624   6.579   4.938   5.299
    1STR    C0S 4625   6.593   5.066   5.251
    1STR    C0T 4626   6.519   5.111   5.142
    1STR    C0U 4627   6.516   5.246   5.107
    1STR    C0V 4628   6.584   5.338   5.187
    1STR    C0W 4629   6.575   5.484   5.154
    1STR    C0X 4630   6.665   5.293   5.291
    1STR    N0Y 4631   6.736   5.385   5.362
    1STR   BCK2 4632   6.786   5.379   5.484
    1STR    O10 4633   6.881   5.450   5.507
    1STR    C13 4634   6.675   5.156   5.317
    1STR    C14 4635   5.883   5.165   4.971
    1STR    C15 4636   5.807   5.109   5.074
    1STR    C16 4637   5.777   5.180   5.188
    1STR    C17 4638   5.730   5.102   5.305
    1STR    H1B 4639   5.763   5.313   5.397
    1STR    H1C 4640   5.931   5.468   5.113
    1STR    H1D 4641   6.053   5.399   4.850
    1STR    H1E 4642   6.320   5.383   5.178
    1STR    H1F 4643   6.181   5.655   5.194
    1STR    H1G 4644   6.332   5.615   5.276
    1STR    H1H 4645   6.324   5.620   5.098
    1STR    H1I 4646   6.085   5.488   5.327
    1STR    H1J 4647   6.219   5.411   5.398
    1STR    H1K 4648   6.143   5.212   5.482
    1STR    H1M 4649   5.999   5.038   5.286
    1STR    H1N 4650   5.965   5.067   5.459
    1STR    H1O 4651   6.097   4.970   5.417
    1STR    H1P 4652   6.273   5.036   5.318
    1STR    H1Q 4653   6.252   5.159   5.211
    1STR    H1R 4654   6.513   5.245   5.478
    1STR    H1S 4655   6.431   5.283   5.688
    1STR    H1T 4656   6.267   5.269   5.628
    1STR    H1U 4657   6.373   5.391   5.564
    1STR    H1V 4658   6.440   5.036   5.636
    1STR    H1W 4659   6.575   5.045   5.534
    1STR    H1X 4660   6.654   4.907   5.365
    1STR    H1Y 4661   6.462   5.043   5.088
    1STR    H1Z 4662   6.459   5.279   5.022
    1STR    H20 4663   6.537   5.538   5.240
    1STR    H21 4664   6.674   5.518   5.129
    1STR    H22 4665   6.511   5.501   5.068
    1STR    H23 4666   6.768   5.467   5.313
    1STR    H27 4667   6.737   5.118   5.396
    1STR    H28 4668   5.916   5.108   4.886
    1STR    H29 4669   5.777   5.007   5.069
    1STR    H2A 4670   5.789   5.133   5.387
    1STR    H2B 4671   5.754   4.997   5.296
    1STR    H2C 4672   5.624   5.118   5.323
    1STR   BCK1 4673   0.106   0.409   0.015
    1STR    O03 4674   0.214   0.378   0.062
    1STR    N04 4675   7.189   0.404   0.094
    1STR    C05 4676   7.051   0.419   0.084
    1STR    C06 4677   6.986   0.432   7.152
    1STR    C07 4678   6.849   0.457   7.143
    1STR    N08 4679   6.799   0.523   7.035
    1STR    C09 4680   6.779   0.654   7.045
    1STR    O0A 4681   6.690   0.709   6.984
    1STR    O0B 4682   6.847   0.710   7.147
    1STR    C0C 4683   6.976   0.767   7.133
    1STR    C0D 4684   7.033   0.775   0.084
    1STR    C0E 4685   7.081   0.704   7.036
    1STR    O0F 4686   7.039   0.681   6.899
    1STR    C0G 4687   7.142   0.679   6.797
    1STR    C0H 4688   7.085   0.610   6.673
    1STR    C0I 4689   0.009   0.811   6.745
    1STR    O0J 4690   0.028   0.904   6.847
    1STR    C0K 4691   7.096   0.957   6.892
    1STR    C0M 4692   7.143   1.033   7.014
    1STR    C0N 4693   7.016   1.028   6.789
    1STR    O0O 4694   6.901   0.966   6.731
    1STR    C0P 4695   6.780   0.929   6.786
    1STR    O0Q 4696   6.699   0.874   6.714
    1STR    N0R 4697   6.742   0.951   6.914
    1STR    C0S 4698   6.766   1.040   7.015
    1STR    C0T 4699   6.755   1.011   7.152
    1STR    C0U 4700   6.806   1.103   0.055
    1STR    C0V 4701   6.874   1.218   0.011
    1STR    C0W 4702   6.939   1.308   0.112
    1STR    C0X 4703   6.881   1.245   7.062
    1STR    N0Y 4704   6.986   1.315   7.008
    1STR   BCK2 4705   7.042   1.321   6.886
    1STR    O10 4706   7.164   1.323   6.880
    1STR    C13 4707   6.805   1.166   6.979
    1STR    C14 4708   6.769   0.447   0.067
    1STR    C15 4709   6.830   0.425   0.190
    1STR    C16 4710   6.970   0.420   0.199
    1STR    C17 4711   7.024   0.421   0.336
    1STR    H1B 4712   0.028   0.366   0.184
    1STR    H1C 4713   7.041   0.435   7.063
    1STR    H1D 4714   6.773   0.480   6.945
    1STR    H1E 4715   6.956   0.868   7.105
    1STR    H1F 4716   7.051   0.676   0.125
    1STR    H1G 4717   7.128   0.830   0.086
    1STR    H1H 4718   6.963   0.826   0.150
    1STR    H1I 4719   7.116   0.617   7.084
    1STR    H1J 4720   7.171   0.763   7.038
    1STR    H1K 4721   0.037   0.624   6.836
    1STR    H1M 4722   7.006   0.540   6.699
    1STR    H1N 4723   7.164   0.560   6.619
    1STR    H1O 4724   7.037   0.680   6.605
    1STR    H1P 4725   0.107   0.793   6.701
    1STR    H1Q 4726   7.139   0.854   6.666
    1STR    H1R 4727   7.018   0.893   6.920
    1STR    H1S 4728   7.061   1.070   7.073
    1STR    H1T 4729   0.017   1.115   6.983
    1STR    H1U 4730   0.013   0.971   7.080
    1STR    H1V 4731   7.079   1.072   6.713
    1STR    H1W 4732   6.980   1.103   6.849
    1STR    H1X 4733   6.687   0.867   6.938
    1STR    H1Y 4734   6.715   0.916   7.186
    1STR    H1Z 4735   6.799   1.082   0.161
    1STR    H20 4736   7.037   1.273   0.140
    1STR    H21 4737   6.944   1.410   0.075
    1STR    H22 4738   6.879   1.310   0.203
    1STR    H23 4739   7.060   1.327   7.077
    1STR    H27 4740   6.802   1.179   6.877
    1STR    H28 4741   6.663   0.466   0.061
    1STR    H29 4742   6.770   0.421   0.280
    1STR    H2A 4743   6.987   0.329   0.380
    1STR    H2B 4744   6.979   0.503   0.392
    1STR    H2C 4745   7.132   0.431   0.341
    1STR   BCK1 4746   7.086   0.514   1.493
    1STR    O03 4747   0.002   0.528   1.434
    1STR    N04 4748   7.068   0.458   1.612
    1STR    C05 4749   7.155   0.399   1.700
    1STR    C06 4750   0.103   0.395   1.680
    1STR    C07 4751   0.190   0.384   1.789
    1STR    N08 4752   0.308   0.453   1.777
    1STR    C09 4753   0.352   0.539   1.867
    1STR    O0A 4754   0.387   0.503   1.979
    1STR    O0B 4755   0.362   0.665   1.820
    1STR    C0C 4756   0.278   0.722   1.719
    1STR    C0D 4757   0.328   0.693   1.580
    1STR    C0E 4758   0.126   0.693   1.732
    1STR    O0F 4759   0.095   0.632   1.856
    1STR    C0G 4760   0.033   0.707   1.955
    1STR    C0H 4761   0.009   0.610   2.068
    1STR    C0I 4762   0.119   0.825   1.999
    1STR    O0J 4763   0.156   0.907   1.891
    1STR    C0K 4764   0.063   0.993   1.829
    1STR    C0M 4765   0.118   1.024   1.691
    1STR    C0N 4766   7.100   0.963   1.834
    1STR    O0O 4767   7.052   0.952   1.968
    1STR    C0P 4768   6.980   1.043   2.035
    1STR    O0Q 4769   6.867   1.024   2.078
    1STR    N0R 4770   7.045   1.150   2.077
    1STR    C0S 4771   7.124   1.224   1.993
    1STR    C0T 4772   0.062   1.265   2.029
    1STR    C0U 4773   0.143   1.319   1.928
    1STR    C0V 4774   0.094   1.330   1.796
    1STR    C0W 4775   0.190   1.367   1.690
    1STR    C0X 4776   7.151   1.300   1.763
    1STR    N0Y 4777   7.106   1.300   1.631
    1STR   BCK2 4778   6.984   1.277   1.582
    1STR    O10 4779   6.884   1.262   1.651
    1STR    C13 4780   7.072   1.251   1.867
    1STR    C14 4781   0.139   0.345   1.913
    1STR    C15 4782   0.001   0.327   1.927
    1STR    C16 4783   7.104   0.358   1.824
    1STR    C17 4784   6.957   0.352   1.852
    1STR    H1B 4785   6.975   0.471   1.650
    1STR    H1C 4786   0.143   0.429   1.587
    1STR    H1D 4787   0.327   0.482   1.683
    1STR    H1E 4788   0.296   0.828   1.733
    1STR    H1F 4789   0.295   0.594   1.551
    1STR    H1G 4790   0.285   0.759   1.507
    1STR    H1H 4791   0.437   0.700   1.576
    1STR    H1I 4792   0.093   0.630   1.651
    1STR    H1J 4793   0.059   0.773   1.714
    1STR    H1K 4794   7.125   0.733   1.920
    1STR    H1M 4795   0.100   0.556   2.091
    1STR    H1N 4796   7.121   0.541   2.037
    1STR    H1O 4797   7.163   0.658   2.157
    1STR    H1P 4798   0.070   0.883   2.076
    1STR    H1Q 4799   0.211   0.785   2.041
    1STR    H1R 4800   0.084   1.078   1.887
    1STR    H1S 4801   0.064   1.104   1.644
    1STR    H1T 4802   0.112   0.941   1.623
    1STR    H1U 4803   0.223   1.052   1.697
    1STR    H1V 4804   7.075   0.872   1.781
    1STR    H1W 4805   7.042   1.033   1.775
    1STR    H1X 4806   7.001   1.198   2.153
    1STR    H1Y 4807   0.100   1.252   2.129
    1STR    H1Z 4808   0.244   1.346   1.951
    1STR    H20 4809   0.144   1.420   1.606
    1STR    H21 4810   0.262   1.433   1.737
    1STR    H22 4811   0.239   1.278   1.653
    1STR    H23 4812   7.171   1.334   1.560
    1STR    H27 4813   6.971   1.221   1.849
    1STR    H28 4814   0.204   0.340   1.999
    1STR    H29 4815   7.147   0.306   2.021
    1STR    H2A 4816   6.901   0.429   1.800
    1STR    H2B 4817   6.938   0.363   1.959
    1STR    H2C 4818   6.925   0.255   1.819
    1STR   BCK1 4819   7.047   0.357   3.564
    1STR    O03 4820   7.106   0.440   3.632
    1STR    N04 4821   7.108   0.288   3.470
    1STR    C05 4822   7.145   0.354   3.355
    1STR    C06 4823   7.047   0.426   3.290
    1STR    C07 4824   7.062   0.493   3.170
    1STR    N08 4825   6.969   0.590   3.138
    1STR    C09 4826   6.838   0.581   3.164
    1STR    O0A 4827   6.761   0.542   3.077
    1STR    O0B 4828   6.796   0.586   3.295
    1STR    C0C 4829   6.831   0.682   3.394
    1STR    C0D 4830   6.737   0.670   3.513
    1STR    C0E 4831   6.977   0.681   3.449
    1STR    O0F 4832   7.079   0.690   3.352
    1STR    C0G 4833   7.117   0.815   3.303
    1STR    C0H 4834   0.012   0.801   3.178
    1STR    C0I 4835   6.996   0.908   3.283
    1STR    O0J 4836   6.943   0.939   3.412
    1STR    C0K 4837   7.004   1.021   3.511
    1STR    C0M 4838   6.901   1.009   3.623
    1STR    C0N 4839   7.145   1.004   3.574
    1STR    O0O 4840   0.075   1.013   3.499
    1STR    C0P 4841   0.099   1.101   3.403
    1STR    O0Q 4842   0.201   1.168   3.397
    1STR    N0R 4843   0.005   1.094   3.311
    1STR    C0S 4844   7.151   1.184   3.217
    1STR    C0T 4845   0.061   1.239   3.142
    1STR    C0U 4846   0.100   1.368   3.179
    1STR    C0V 4847   0.049   1.420   3.298
    1STR    C0W 4848   0.149   1.495   3.379
    1STR    C0X 4849   7.118   1.370   3.351
    1STR    N0Y 4850   7.095   1.375   3.488
    1STR   BCK2 4851   6.992   1.339   3.565
    1STR    O10 4852   7.010   1.310   3.683
    1STR    C13 4853   7.057   1.270   3.276
    1STR    C14 4854   7.189   0.486   3.109
    1STR    C15 4855   0.104   0.419   3.175
    1STR    C16 4856   0.083   0.355   3.300
    1STR    C17 4857   0.194   0.297   3.379
    1STR    H1B 4858   7.050   0.206   3.449
    1STR    H1C 4859   6.958   0.441   3.346
    1STR    H1D 4860   7.010   0.673   3.179
    1STR    H1E 4861   6.798   0.775   3.351
    1STR    H1F 4862   6.764   0.588   3.579
    1STR    H1G 4863   6.741   0.761   3.573
    1STR    H1H 4864   6.634   0.657   3.480
    1STR    H1I 4865   6.990   0.588   3.499
    1STR    H1J 4866   6.993   0.751   3.530
    1STR    H1K 4867   7.184   0.847   3.380
    1STR    H1M 4868   7.145   0.772   3.090
    1STR    H1N 4869   0.092   0.729   3.192
    1STR    H1O 4870   0.061   0.895   3.154
    1STR    H1P 4871   7.007   0.992   3.217
    1STR    H1Q 4872   6.924   0.856   3.221
    1STR    H1R 4873   7.001   1.119   3.472
    1STR    H1S 4874   6.922   1.080   3.703
    1STR    H1T 4875   6.902   0.909   3.666
    1STR    H1U 4876   6.801   1.030   3.584
    1STR    H1V 4877   7.151   0.912   3.631
    1STR    H1W 4878   7.158   1.083   3.648
    1STR    H1X 4879   7.125   1.027   3.340
    1STR    H1Y 4880   0.122   1.173   3.085
    1STR    H1Z 4881   0.187   1.411   3.138
    1STR    H20 4882   0.198   1.574   3.324
    1STR    H21 4883   0.102   1.538   3.464
    1STR    H22 4884   0.225   1.425   3.412
    1STR    H23 4885   7.181   1.380   3.544
    1STR    H27 4886   6.965   1.224   3.305
    1STR    H28 4887   0.019   0.540   3.018
    1STR    H29 4888   0.202   0.421   3.132
    1STR    H2A 4889   0.206   0.353   3.471
    1STR    H2B 4890   0.288   0.297   3.324
    1STR    H2C 4891   0.166   0.197   3.406
    1STR   BCK1 4892   7.072   0.451   5.216
    1STR    O03 4893   7.164   0.531   5.227
    1STR    N04 4894   7.035   0.364   5.308
    1STR    C05 4895   7.045   0.387   5.444
    1STR    C06 4896   7.165   0.429   5.502
    1STR    C07 4897   7.163   0.483   5.631
    1STR    N08 4898   0.076   0.566   5.665
    1STR    C09 4899   0.038   0.689   5.691
    1STR    O0A 4900   7.160   0.725   5.787
    1STR    O0B 4901   0.064   0.761   5.587
    1STR    C0C 4902   7.148   0.827   5.523
    1STR    C0D 4903   0.036   0.890   5.409
    1STR    C0E 4904   7.042   0.729   5.476
    1STR    O0F 4905   6.926   0.783   5.414
    1STR    C0G 4906   6.896   0.718   5.293
    1STR    C0H 4907   6.748   0.696   5.263
    1STR    C0I 4908   6.976   0.798   5.192
    1STR    O0J 4909   6.901   0.838   5.081
    1STR    C0K 4910   6.908   0.978   5.063
    1STR    C0M 4911   6.978   0.998   4.929
    1STR    C0N 4912   6.767   1.037   5.072
    1STR    O0O 4913   6.667   0.999   5.167
    1STR    C0P 4914   6.661   0.981   5.303
    1STR    O0Q 4915   6.565   0.923   5.347
    1STR    N0R 4916   6.751   1.019   5.394
    1STR    C0S 4917   6.857   1.104   5.396
    1STR    C0T 4918   6.959   1.087   5.489
    1STR    C0U 4919   7.082   1.150   5.467
    1STR    C0V 4920   7.101   1.218   5.345
    1STR    C0W 4921   0.045   1.212   5.280
    1STR    C0X 4922   6.991   1.260   5.271
    1STR    N0Y 4923   7.014   1.321   5.150
    1STR   BCK2 4924   6.930   1.351   5.054
    1STR    O10 4925   6.964   1.337   4.939
    1STR    C13 4926   6.865   1.207   5.305
    1STR    C14 4927   7.047   0.475   5.711
    1STR    C15 4928   6.929   0.427   5.655
    1STR    C16 4929   6.928   0.391   5.520
    1STR    C17 4930   6.795   0.382   5.455
    1STR    H1B 4931   6.977   0.286   5.280
    1STR    H1C 4932   0.064   0.438   5.442
    1STR    H1D 4933   0.154   0.562   5.597
    1STR    H1E 4934   7.107   0.897   5.594
    1STR    H1F 4935   0.093   0.815   5.354
    1STR    H1G 4936   7.166   0.946   5.340
    1STR    H1H 4937   0.104   0.960   5.455
    1STR    H1I 4938   7.001   0.675   5.560
    1STR    H1J 4939   7.095   0.657   5.415
    1STR    H1K 4940   6.930   0.617   5.301
    1STR    H1M 4941   6.690   0.702   5.355
    1STR    H1N 4942   6.732   0.599   5.219
    1STR    H1O 4943   6.708   0.765   5.190
    1STR    H1P 4944   7.005   0.885   5.249
    1STR    H1Q 4945   7.069   0.751   5.165
    1STR    H1R 4946   6.969   1.034   5.133
    1STR    H1S 4947   6.996   1.103   4.910
    1STR    H1T 4948   6.920   0.957   4.847
    1STR    H1U 4949   7.075   0.948   4.931
    1STR    H1V 4950   6.719   1.013   4.977
    1STR    H1W 4951   6.777   1.142   5.069
    1STR    H1X 4952   6.747   0.952   5.471
    1STR    H1Y 4953   6.944   1.017   5.570
    1STR    H1Z 4954   7.166   1.126   5.530
    1STR    H20 4955   0.041   1.129   5.210
    1STR    H21 4956   0.068   1.301   5.223
    1STR    H22 4957   0.123   1.190   5.352
    1STR    H23 4958   7.110   1.335   5.120
    1STR    H27 4959   6.774   1.225   5.253
    1STR    H28 4960   7.044   0.516   5.810
    1STR    H29 4961   6.838   0.433   5.712
    1STR    H2A 4962   6.782   0.467   5.389
    1STR    H2B 4963   6.717   0.388   5.530
    1STR    H2C 4964   6.791   0.289   5.400
    1STR   BCK1 4965   7.073   2.291   7.116
    1STR    O03 4966   7.099   2.369   0.016
    1STR    N04 4967   7.158   2.200   7.067
    1STR    C05 4968   0.098   2.185   7.114
    1STR    C06 4969   0.207   2.228   7.038
    1STR    C07 4970   0.319   2.281   7.106
    1STR    N08 4971   0.395   2.383   7.052
    1STR    C09 4972   0.419   2.398   6.922
    1STR    O0A 4973   0.519   2.351   6.871
    1STR    O0B 4974   0.328   2.468   6.852
    1STR    C0C 4975   0.235   2.563   6.903
    1STR    C0D 4976   0.173   2.618   6.775
    1STR    C0E 4977   0.127   2.507   6.997
    1STR    O0F 4978   0.181   2.498   7.129
    1STR    C0G 4979   0.128   2.572   0.044
    1STR    C0H 4980   0.183   2.520   0.176
    1STR    C0I 4981   0.166   2.715   0.020
    1STR    O0J 4982   0.108   2.757   7.088
    1STR    C0K 4983   7.157   2.773   7.076
    1STR    C0M 4984   7.107   2.769   6.932
    1STR    C0N 4985   7.053   2.750   7.188
    1STR    O0O 4986   7.105   2.770   0.128
    1STR    C0P 4987   7.072   2.872   0.206
    1STR    O0Q 4988   6.976   2.869   0.283
    1STR    N0R 4989   7.157   2.973   0.203
    1STR    C0S 4990   0.027   3.024   0.090
    1STR    C0T 4991   0.165   3.017   0.073
    1STR    C0U 4992   0.221   3.047   7.138
    1STR    C0V 4993   0.139   3.088   7.031
    1STR    C0W 4994   0.199   3.113   6.896
    1STR    C0X 4995   0.000   3.100   7.049
    1STR    N0Y 4996   7.110   3.110   6.938
    1STR   BCK2 4997   6.986   3.070   6.916
    1STR    O10 4998   6.908   3.018   6.996
    1STR    C13 4999   7.137   3.070   7.175
    1STR    C14 5000   0.334   2.259   0.053
    1STR    C15 5001   0.236   2.188   0.122
    1STR    C16 5002   0.117   2.151   0.058
    1STR    C17 5003   0.008   2.081   0.131
    1STR    H1B 5004   7.117   2.115   7.026
    1STR    H1C 5005   0.193   2.247   6.933
    1STR    H1D 5006   0.338   2.461   7.086
    1STR    H1E 5007   0.290   2.643   6.952
    1STR    H1F 5008   0.095   2.552   6.739
    1STR    H1G 5009   0.133   2.717   6.792
    1STR    H1H 5010   0.249   2.627   6.698
    1STR    H1I 5011   0.086   2.416   6.958
    1STR    H1J 5012   0.035   2.560   7.001
    1STR    H1K 5013   0.021   2.562   0.049
    1STR    H1M 5014   0.291   2.514   0.174
    1STR    H1N 5015   0.142   2.421   0.195
    1STR    H1O 5016   0.152   2.583   0.259
    1STR    H1P 5017   0.139   2.774   0.106
    1STR    H1Q 5018   0.274   2.723   0.011
    1STR    H1R 5019   7.169   2.874   7.079
    1STR    H1S 5020   7.008   2.809   6.926
    1STR    H1T 5021   7.106   2.671   6.885
    1STR    H1U 5022   7.169   2.835   6.872
    1STR    H1V 5023   7.016   2.648   7.183
    1STR    H1W 5024   6.968   2.817   7.172
    1STR    H1X 5025   0.007   3.003   0.292
    1STR    H1Y 5026   0.228   2.984   0.154
    1STR    H1Z 5027   0.327   3.036   7.126
    1STR    H20 5028   0.302   3.078   6.892
    1STR    H21 5029   0.143   3.059   6.820
    1STR    H22 5030   0.195   3.220   6.874
    1STR    H23 5031   7.154   3.160   6.862
    1STR    H27 5032   7.033   3.058   7.184
    1STR    H28 5033   0.419   2.297   0.105
    1STR    H29 5034   0.252   2.176   0.226
    1STR    H2A 5035   7.131   2.152   0.180
    1STR    H2B 5036   0.046   2.009   0.201
    1STR    H2C 5037   7.144   2.023   0.057
    1STR   BCK1 5038   7.081   2.171   1.503
    1STR    O03 5039   7.134   2.247   1.427
    1STR    N04 5040   6.960   2.130   1.472
    1STR    C05 5041   6.855   2.216   1.477
    1STR    C06 5042   6.869   2.332   1.552
    1STR    C07 5043   6.759   2.389   1.613
    1STR    N08 5044   6.788   2.469   1.722
    1STR    C09 5045   6.898   2.543   1.721
    1STR    O0A 5046   6.919   2.626   1.634
    1STR    O0B 5047   6.982   2.498   1.815
    1STR    C0C 5048   7.118   2.540   1.815
    1STR    C0D 5049   7.153   2.553   1.962
    1STR    C0E 5050   0.027   2.444   1.745
    1STR    O0F 5051   0.007   2.423   1.606
    1STR    C0G 5052   0.097   2.490   1.517
    1STR    C0H 5053   0.156   2.412   1.400
    1STR    C0I 5054   0.022   2.607   1.464
    1STR    O0J 5055   0.026   2.699   1.570
    1STR    C0K 5056   7.148   2.814   1.538
    1STR    C0M 5057   7.110   2.880   1.668
    1STR    C0N 5058   0.045   2.897   1.442
    1STR    O0O 5059   7.161   2.906   1.323
    1STR    C0P 5060   7.055   2.979   1.334
    1STR    O0Q 5061   7.057   3.091   1.380
    1STR    N0R 5062   6.945   2.910   1.304
    1STR    C0S 5063   6.824   2.943   1.359
    1STR    C0T 5064   6.710   2.977   1.285
    1STR    C0U 5065   6.604   3.041   1.351
    1STR    C0V 5066   6.613   3.071   1.489
    1STR    C0W 5067   6.512   3.163   1.550
    1STR    C0X 5068   6.724   3.027   1.564
    1STR    N0Y 5069   6.752   3.066   1.693
    1STR   BCK2 5070   6.863   3.132   1.730
    1STR    O10 5071   6.898   3.127   1.847
    1STR    C13 5072   6.824   2.958   1.497
    1STR    C14 5073   6.631   2.344   1.579
    1STR    C15 5074   6.616   2.242   1.483
    1STR    C16 5075   6.729   2.172   1.438
    1STR    C17 5076   6.718   2.052   1.348
    1STR    H1B 5077   6.941   2.032   1.499
    1STR    H1C 5078   6.968   2.365   1.578
    1STR    H1D 5079   6.756   2.436   1.811
    1STR    H1E 5080   7.125   2.638   1.770
    1STR    H1F 5081   7.145   2.457   2.013
    1STR    H1G 5082   0.065   2.587   1.971
    1STR    H1H 5083   7.089   2.626   2.010
    1STR    H1I 5084   0.022   2.347   1.793
    1STR    H1J 5085   0.129   2.476   1.764
    1STR    H1K 5086   0.186   2.520   1.569
    1STR    H1M 5087   0.083   2.397   1.320
    1STR    H1N 5088   0.196   2.316   1.432
    1STR    H1O 5089   0.237   2.468   1.354
    1STR    H1P 5090   0.068   2.646   1.374
    1STR    H1Q 5091   7.110   2.577   1.439
    1STR    H1R 5092   7.054   2.782   1.492
    1STR    H1S 5093   7.095   2.986   1.654
    1STR    H1T 5094   7.187   2.861   1.740
    1STR    H1U 5095   7.020   2.837   1.710
    1STR    H1V 5096   0.141   2.851   1.421
    1STR    H1W 5097   0.066   2.997   1.481
    1STR    H1X 5098   6.964   2.819   1.264
    1STR    H1Y 5099   6.705   2.963   1.178
    1STR    H1Z 5100   6.518   3.073   1.294
    1STR    H20 5101   6.540   3.268   1.537
    1STR    H21 5102   6.418   3.148   1.497
    1STR    H22 5103   6.499   3.145   1.656
    1STR    H23 5104   6.692   3.036   1.767
    1STR    H27 5105   6.910   2.932   1.552
    1STR    H28 5106   6.542   2.383   1.624
    1STR    H29 5107   6.518   2.212   1.451
    1STR    H2A 5108   6.773   2.063   1.256
    1STR    H2B 5109   6.615   2.039   1.318
    1STR    H2C 5110   6.754   1.962   1.396
    1STR   BCK1 5111   7.140   2.351   3.308
    1STR    O03 5112   0.066   2.364   3.272
    1STR    N04 5113   7.100   2.293   3.420
    1STR    C05 5114   7.168   2.249   3.530
    1STR    C06 5115   0.118   2.257   3.545
    1STR    C07 5116   0.176   2.232   3.670
    1STR    N08 5117   0.308   2.256   3.698
    1STR    C09 5118   0.355   2.366   3.753
    1STR    O0A 5119   0.471   2.373   3.790
    1STR    O0B 5120   0.272   2.471   3.748
    1STR    C0C 5121   0.183   2.494   3.856
    1STR    C0D 5122   0.222   2.625   3.922
    1STR    C0E 5123   0.044   2.504   3.797
    1STR    O0F 5124   7.137   2.459   3.891
    1STR    C0G 5125   7.005   2.496   3.855
    1STR    C0H 5126   6.906   2.409   3.929
    1STR    C0I 5127   6.985   2.643   3.890
    1STR    O0J 5128   7.041   2.727   3.791
    1STR    C0K 5129   6.981   2.730   3.663
    1STR    C0M 5130   7.055   2.651   3.555
    1STR    C0N 5131   6.827   2.728   3.659
    1STR    O0O 5132   6.767   2.804   3.764
    1STR    C0P 5133   6.746   2.932   3.743
    1STR    O0Q 5134   6.666   2.974   3.660
    1STR    N0R 5135   6.842   3.004   3.800
    1STR    C0S 5136   6.954   3.045   3.731
    1STR    C0T 5137   7.075   3.060   3.800
    1STR    C0U 5138   0.004   3.082   3.728
    1STR    C0V 5139   0.002   3.079   3.587
    1STR    C0W 5140   0.121   3.125   3.508
    1STR    C0X 5141   7.075   3.048   3.518
    1STR    N0Y 5142   7.091   3.011   3.385
    1STR   BCK2 5143   7.022   2.937   3.299
    1STR    O10 5144   7.069   2.904   3.191
    1STR    C13 5145   6.955   3.045   3.590
    1STR    C14 5146   0.095   2.196   3.777
    1STR    C15 5147   7.148   2.180   3.762
    1STR    C16 5148   7.089   2.208   3.639
    1STR    C17 5149   6.939   2.204   3.628
    1STR    H1B 5150   7.000   2.285   3.430
    1STR    H1C 5151   0.182   2.289   3.465
    1STR    H1D 5152   0.371   2.177   3.697
    1STR    H1E 5153   0.188   2.412   3.928
    1STR    H1F 5154   0.226   2.707   3.850
    1STR    H1G 5155   0.148   2.652   3.998
    1STR    H1H 5156   0.319   2.617   3.970
    1STR    H1I 5157   0.033   2.448   3.706
    1STR    H1J 5158   0.032   2.607   3.766
    1STR    H1K 5159   6.987   2.477   3.749
    1STR    H1M 5160   6.919   2.420   4.037
    1STR    H1N 5161   6.918   2.305   3.902
    1STR    H1O 5162   6.805   2.439   3.903
    1STR    H1P 5163   6.881   2.666   3.909
    1STR    H1Q 5164   7.036   2.666   3.983
    1STR    H1R 5165   7.015   2.827   3.635
    1STR    H1S 5166   7.019   2.681   3.457
    1STR    H1T 5167   7.046   2.544   3.563
    1STR    H1U 5168   7.160   2.679   3.559
    1STR    H1V 5169   6.791   2.627   3.668
    1STR    H1W 5170   6.793   2.767   3.563
    1STR    H1X 5171   6.860   2.974   3.899
    1STR    H1Y 5172   7.077   3.057   3.908
    1STR    H1Z 5173   0.093   3.107   3.782
    1STR    H20 5174   0.090   3.207   3.445
    1STR    H21 5175   0.195   3.165   3.576
    1STR    H22 5176   0.160   3.044   3.447
    1STR    H23 5177   7.183   3.030   3.349
    1STR    H27 5178   6.862   3.025   3.543
    1STR    H28 5179   0.142   2.191   3.873
    1STR    H29 5180   7.088   2.156   3.848
    1STR    H2A 5181   6.899   2.302   3.606
    1STR    H2B 5182   6.897   2.172   3.723
    1STR    H2C 5183   6.908   2.133   3.553
    1STR   BCK1 5184   7.164   2.121   5.332
    1STR    O03 5185   0.012   2.216   5.398
    1STR    N04 5186   0.036   2.067   5.229
    1STR    C05 5187   0.101   2.144   5.135
    1STR    C06 5188   0.047   2.267   5.105
    1STR    C07 5189   0.086   2.345   4.997
    1STR    N08 5190   0.018   2.463   4.982
    1STR    C09 5191   7.081   2.463   4.941
    1STR    O0A 5192   7.036   2.382   4.860
    1STR    O0B 5193   6.999   2.548   5.006
    1STR    C0C 5194   7.036   2.636   5.112
    1STR    C0D 5195   6.914   2.722   5.133
    1STR    C0E 5196   7.062   2.564   5.245
    1STR    O0F 5197   7.183   2.493   5.247
    1STR    C0G 5198   0.103   2.547   5.313
    1STR    C0H 5199   0.219   2.448   5.310
    1STR    C0I 5200   0.144   2.674   5.242
    1STR    O0J 5201   0.070   2.785   5.288
    1STR    C0K 5202   0.086   2.829   5.423
    1STR    C0M 5203   7.140   2.813   5.489
    1STR    C0N 5204   0.202   2.775   5.512
    1STR    O0O 5205   0.325   2.756   5.443
    1STR    C0P 5206   0.392   2.861   5.407
    1STR    O0Q 5207   0.404   2.962   5.475
    1STR    N0R 5208   0.430   2.854   5.280
    1STR    C0S 5209   0.359   2.926   5.185
    1STR    C0T 5210   0.361   2.891   5.050
    1STR    C0U 5211   0.264   2.945   4.963
    1STR    C0V 5212   0.161   3.027   5.013
    1STR    C0W 5213   0.060   3.082   4.917
    1STR    C0X 5214   0.159   3.061   5.149
    1STR    N0Y 5215   0.066   3.129   5.223
    1STR   BCK2 5216   7.127   3.115   5.240
    1STR    O10 5217   7.077   3.166   5.339
    1STR    C13 5218   0.264   3.019   5.228
    1STR    C14 5219   0.193   2.301   4.918
    1STR    C15 5220   0.252   2.177   4.949
    1STR    C16 5221   0.203   2.096   5.054
    1STR    C17 5222   0.255   1.959   5.075
    1STR    H1B 5223   7.181   1.986   5.187
    1STR    H1C 5224   7.157   2.300   5.167
    1STR    H1D 5225   0.035   2.524   5.061
    1STR    H1E 5226   7.118   2.700   5.082
    1STR    H1F 5227   6.832   2.661   5.166
    1STR    H1G 5228   6.935   2.794   5.211
    1STR    H1H 5229   6.888   2.774   5.041
    1STR    H1I 5230   6.983   2.492   5.264
    1STR    H1J 5231   7.058   2.633   5.328
    1STR    H1K 5232   0.076   2.562   5.417
    1STR    H1M 5233   0.249   2.424   5.208
    1STR    H1N 5234   0.193   2.356   5.360
    1STR    H1O 5235   0.305   2.488   5.362
    1STR    H1P 5236   0.250   2.688   5.247
    1STR    H1Q 5237   0.130   2.665   5.135
    1STR    H1R 5238   0.101   2.936   5.415
    1STR    H1S 5239   7.136   2.871   5.579
    1STR    H1T 5240   7.120   2.710   5.516
    1STR    H1U 5241   7.062   2.850   5.422
    1STR    H1V 5242   0.177   2.682   5.560
    1STR    H1W 5243   0.217   2.846   5.594
    1STR    H1X 5244   0.460   2.763   5.249
    1STR    H1Y 5245   0.433   2.822   5.010
    1STR    H1Z 5246   0.267   2.921   4.859
    1STR    H20 5247   0.109   3.101   4.822
    1STR    H21 5248   7.170   3.011   4.901
    1STR    H22 5249   0.021   3.176   4.955
    1STR    H23 5250   0.106   3.178   5.301
    1STR    H27 5251   0.262   3.052   5.328
    1STR    H28 5252   0.227   2.357   4.833
    1STR    H29 5253   0.331   2.140   4.886
    1STR    H2A 5254   0.260   1.937   5.181
    1STR    H2B 5255   0.352   1.955   5.028
    1STR    H2C 5256   0.191   1.887   5.027
    1STR   BCK1 5257   0.012   3.862   7.072
    1STR    O03 5258   0.081   3.771   7.031
    1STR    N04 5259   7.095   3.841   7.150
    1STR    C05 5260   7.014   3.918   0.038
    1STR    C06 5261   7.015   4.056   0.036
    1STR    C07 5262   6.962   4.129   0.142
    1STR    N08 5263   7.012   4.253   0.152
    1STR    C09 5264   6.980   4.359   0.221
    1STR    O0A 5265   6.871   4.375   0.273
    1STR    O0B 5266   7.074   4.454   0.208
    1STR    C0C 5267   0.026   4.436   0.182
    1STR    C0D 5268   0.092   4.436   0.319
    1STR    C0E 5269   0.088   4.320   0.097
    1STR    O0F 5270   0.018   4.266   7.175
    1STR    C0G 5271   0.002   4.346   7.062
    1STR    C0H 5272   7.158   4.276   6.931
    1STR    C0I 5273   7.080   4.440   7.091
    1STR    O0J 5274   7.124   4.568   7.117
    1STR    C0K 5275   0.004   4.630   7.013
    1STR    C0M 5276   0.153   4.634   7.041
    1STR    C0N 5277   7.145   4.613   6.867
    1STR    O0O 5278   7.008   4.643   6.851
    1STR    C0P 5279   6.905   4.559   6.853
    1STR    O0Q 5280   6.890   4.473   6.768
    1STR    N0R 5281   6.822   4.570   6.961
    1STR    C0S 5282   6.840   4.649   7.073
    1STR    C0T 5283   6.825   4.610   0.017
    1STR    C0U 5284   6.884   4.690   0.117
    1STR    C0V 5285   6.963   4.802   0.083
    1STR    C0W 5286   7.052   4.859   0.188
    1STR    C0X 5287   6.967   4.845   7.138
    1STR    N0Y 5288   7.060   4.930   7.078
    1STR   BCK2 5289   7.103   4.944   6.950
    1STR    O10 5290   0.032   4.959   6.934
    1STR    C13 5291   6.893   4.772   7.051
    1STR    C14 5292   6.888   4.068   0.243
    1STR    C15 5293   6.874   3.929   0.238
    1STR    C16 5294   6.937   3.856   0.137
    1STR    C17 5295   6.932   3.709   0.142
    1STR    H1B 5296   7.087   3.744   7.171
    1STR    H1C 5297   7.068   4.104   7.149
    1STR    H1D 5298   7.098   4.266   0.097
    1STR    H1E 5299   0.053   4.528   0.132
    1STR    H1F 5300   0.065   4.347   0.376
    1STR    H1G 5301   0.201   4.438   0.310
    1STR    H1H 5302   0.061   4.524   0.375
    1STR    H1I 5303   0.102   4.233   0.162
    1STR    H1J 5304   0.188   4.348   0.065
    1STR    H1K 5305   0.096   4.390   7.043
    1STR    H1M 5306   7.115   4.336   6.854
    1STR    H1N 5307   7.085   4.198   6.949
    1STR    H1O 5308   0.060   4.237   6.887
    1STR    H1P 5309   7.012   4.433   7.011
    1STR    H1Q 5310   7.013   4.410   7.169
    1STR    H1R 5311   7.171   4.730   7.038
    1STR    H1S 5312   0.202   4.695   6.966
    1STR    H1T 5313   0.210   4.542   7.044
    1STR    H1U 5314   0.164   4.677   7.140
    1STR    H1V 5315   7.175   4.521   6.821
    1STR    H1W 5316   0.006   4.689   6.809
    1STR    H1X 5317   6.739   4.514   6.965
    1STR    H1Y 5318   6.779   4.518   0.046
    1STR    H1Z 5319   6.880   4.656   0.219
    1STR    H20 5320   7.154   4.860   0.151
    1STR    H21 5321   7.020   4.958   0.217
    1STR    H22 5322   7.051   4.796   0.277
    1STR    H23 5323   7.133   4.967   7.138
    1STR    H27 5324   6.900   4.796   6.952
    1STR    H28 5325   6.851   4.125   0.326
    1STR    H29 5326   6.824   3.877   0.317
    1STR    H2A 5327   6.856   3.678   0.213
    1STR    H2B 5328   7.032   3.682   0.174
    1STR    H2C 5329   6.909   3.669   0.043
    1STR   BCK1 5330   7.063   4.156   1.605
    1STR    O03 5331   7.147   4.148   1.516
    1STR    N04 5332   7.068   4.094   1.722
    1STR    C05 5333   7.173   4.030   1.785
    1STR    C06 5334   0.118   4.047   1.751
    1STR    C07 5335   0.219   4.021   1.845
    1STR    N08 5336   0.340   4.089   1.857
    1STR    C09 5337   0.380   4.203   1.805
    1STR    O0A 5338   0.474   4.268   1.851
    1STR    O0B 5339   0.314   4.236   1.697
    1STR    C0C 5340   0.245   4.357   1.693
    1STR    C0D 5341   0.217   4.378   1.545
    1STR    C0E 5342   0.117   4.338   1.772
    1STR    O0F 5343   0.138   4.297   1.907
    1STR    C0G 5344   0.050   4.350   2.003
    1STR    C0H 5345   0.050   4.255   2.120
    1STR    C0I 5346   0.103   4.488   2.043
    1STR    O0J 5347   0.137   4.558   1.926
    1STR    C0K 5348   0.037   4.634   1.863
    1STR    C0M 5349   0.086   4.651   1.718
    1STR    C0N 5350   7.077   4.591   1.868
    1STR    O0O 5351   7.009   4.565   1.991
    1STR    C0P 5352   6.982   4.645   2.099
    1STR    O0Q 5353   6.917   4.599   2.191
    1STR    N0R 5354   7.029   4.769   2.111
    1STR    C0S 5355   7.080   4.860   2.021
    1STR    C0T 5356   0.017   4.916   2.044
    1STR    C0U 5357   0.089   4.969   1.938
    1STR    C0V 5358   0.036   4.963   1.808
    1STR    C0W 5359   0.126   5.002   1.695
    1STR    C0X 5360   7.095   4.915   1.788
    1STR    N0Y 5361   7.058   4.880   1.659
    1STR   BCK2 5362   6.951   4.819   1.611
    1STR    O10 5363   6.851   4.784   1.672
    1STR    C13 5364   7.017   4.877   1.898
    1STR    C14 5365   0.189   3.935   1.948
    1STR    C15 5366   0.055   3.906   1.978
    1STR    C16 5367   7.142   3.961   1.903
    1STR    C17 5368   7.001   3.951   1.951
    1STR    H1B 5369   6.985   4.099   1.777
    1STR    H1C 5370   0.143   4.101   1.662
    1STR    H1D 5371   0.409   4.057   1.924
    1STR    H1E 5372   0.307   4.436   1.736
    1STR    H1F 5373   0.168   4.291   1.502
    1STR    H1G 5374   0.155   4.464   1.526
    1STR    H1H 5375   0.311   4.391   1.494
    1STR    H1I 5376   0.050   4.273   1.723
    1STR    H1J 5377   0.055   4.421   1.763
    1STR    H1K 5378   7.139   4.354   1.963
    1STR    H1M 5379   0.151   4.241   2.159
    1STR    H1N 5380   0.013   4.158   2.089
    1STR    H1O 5381   7.177   4.293   2.200
    1STR    H1P 5382   0.037   4.543   2.109
    1STR    H1Q 5383   0.197   4.475   2.096
    1STR    H1R 5384   0.056   4.725   1.913
    1STR    H1S 5385   0.071   4.750   1.680
    1STR    H1T 5386   0.030   4.589   1.648
    1STR    H1U 5387   0.192   4.632   1.710
    1STR    H1V 5388   7.064   4.499   1.814
    1STR    H1W 5389   7.015   4.656   1.808
    1STR    H1X 5390   7.048   4.788   2.209
    1STR    H1Y 5391   0.068   4.910   2.138
    1STR    H1Z 5392   0.186   5.010   1.956
    1STR    H20 5393   0.193   4.921   1.670
    1STR    H21 5394   0.068   5.028   1.609
    1STR    H22 5395   0.184   5.089   1.724
    1STR    H23 5396   7.125   4.904   1.588
    1STR    H27 5397   6.918   4.839   1.887
    1STR    H28 5398   0.269   3.900   2.008
    1STR    H29 5399   0.034   3.851   2.066
    1STR    H2A 5400   6.962   4.051   1.970
    1STR    H2B 5401   6.998   3.897   2.045
    1STR    H2C 5402   6.941   3.902   1.875
    1STR   BCK1 5403   7.131   3.910   3.402
    1STR    O03 5404   0.052   3.954   3.427
    1STR    N04 5405   7.086   3.888   3.279
    1STR    C05 5406   7.081   3.984   3.182
    1STR    C06 5407   7.061   4.113   3.227
    1STR    C07 5408   7.007   4.213   3.150
    1STR    N08 5409   6.958   4.319   3.224
    1STR    C09 5410   6.836   4.301   3.273
    1STR    O0A 5411   6.741   4.281   3.199
    1STR    O0B 5412   6.824   4.282   3.406
    1STR    C0C 5413   6.902   4.343   3.508
    1STR    C0D 5414   6.821   4.330   3.635
    1STR    C0E 5415   7.043   4.285   3.535
    1STR    O0F 5416   7.127   4.302   3.424
    1STR    C0G 5417   0.021   4.412   3.419
    1STR    C0H 5418   0.083   4.413   3.280
    1STR    C0I 5419   7.135   4.537   3.444
    1STR    O0J 5420   7.106   4.550   3.581
    1STR    C0K 5421   7.111   4.681   3.631
    1STR    C0M 5422   7.055   4.666   3.771
    1STR    C0N 5423   0.063   4.734   3.630
    1STR    O0O 5424   0.092   4.787   3.501
    1STR    C0P 5425   0.205   4.753   3.440
    1STR    O0Q 5426   0.299   4.700   3.495
    1STR    N0R 5427   0.206   4.768   3.308
    1STR    C0S 5428   0.108   4.752   3.212
    1STR    C0T 5429   0.151   4.707   3.086
    1STR    C0U 5430   0.057   4.663   2.992
    1STR    C0V 5431   7.112   4.653   3.026
    1STR    C0W 5432   7.015   4.590   2.929
    1STR    C0X 5433   7.068   4.697   3.152
    1STR    N0Y 5434   6.939   4.660   3.190
    1STR   BCK2 5435   6.859   4.695   3.290
    1STR    O10 5436   6.756   4.633   3.311
    1STR    C13 5437   7.160   4.757   3.239
    1STR    C14 5438   6.983   4.188   3.014
    1STR    C15 5439   7.008   4.058   2.963
    1STR    C16 5440   7.051   3.955   3.048
    1STR    C17 5441   7.054   3.812   3.001
    1STR    H1B 5442   7.011   3.819   3.269
    1STR    H1C 5443   7.068   4.125   3.332
    1STR    H1D 5444   7.027   4.345   3.295
    1STR    H1E 5445   6.904   4.449   3.486
    1STR    H1F 5446   6.813   4.226   3.667
    1STR    H1G 5447   6.868   4.386   3.715
    1STR    H1H 5448   6.720   4.369   3.620
    1STR    H1I 5449   7.039   4.179   3.556
    1STR    H1J 5450   7.088   4.327   3.625
    1STR    H1K 5451   0.097   4.409   3.494
    1STR    H1M 5452   0.011   4.439   3.203
    1STR    H1N 5453   0.124   4.317   3.253
    1STR    H1O 5454   0.163   4.486   3.275
    1STR    H1P 5455   0.016   4.607   3.412
    1STR    H1Q 5456   7.049   4.549   3.381
    1STR    H1R 5457   7.047   4.748   3.574
    1STR    H1S 5458   7.056   4.761   3.823
    1STR    H1T 5459   7.115   4.594   3.828
    1STR    H1U 5460   6.953   4.629   3.767
    1STR    H1V 5461   0.132   4.656   3.660
    1STR    H1W 5462   0.072   4.813   3.703
    1STR    H1X 5463   0.304   4.773   3.273
    1STR    H1Y 5464   0.256   4.704   3.062
    1STR    H1Z 5465   0.092   4.630   2.896
    1STR    H20 5466   7.007   4.484   2.950
    1STR    H21 5467   6.917   4.636   2.936
    1STR    H22 5468   7.052   4.604   2.827
    1STR    H23 5469   6.899   4.588   3.133
    1STR    H27 5470   7.130   4.796   3.334
    1STR    H28 5471   6.939   4.263   2.951
    1STR    H29 5472   6.986   4.037   2.860
    1STR    H2A 5473   6.963   3.761   3.032
    1STR    H2B 5474   7.141   3.761   3.042
    1STR    H2C 5475   7.062   3.809   2.893
    1STR   BCK1 5476   0.056   4.003   5.152
    1STR    O03 5477   0.170   3.960   5.161
    1STR    N04 5478   7.156   3.995   5.249
    1STR    C05 5479   7.182   3.982   5.384
    1STR    C06 5480   0.109   4.031   5.443
    1STR    C07 5481   0.118   4.041   5.583
    1STR    N08 5482   0.213   4.126   5.634
    1STR    C09 5483   0.176   4.219   5.723
    1STR    O0A 5484   0.150   4.196   5.840
    1STR    O0B 5485   0.152   4.334   5.663
    1STR    C0C 5486   0.018   4.381   5.665
    1STR    C0D 5487   0.022   4.522   5.616
    1STR    C0E 5488   7.123   4.296   5.572
    1STR    O0F 5489   6.995   4.347   5.549
    1STR    C0G 5490   6.925   4.269   5.454
    1STR    C0H 5491   6.780   4.308   5.473
    1STR    C0I 5492   6.972   4.291   5.309
    1STR    O0J 5493   6.924   4.414   5.260
    1STR    C0K 5494   6.998   4.522   5.308
    1STR    C0M 5495   7.104   4.551   5.203
    1STR    C0N 5496   6.896   4.631   5.335
    1STR    O0O 5497   6.865   4.636   5.474
    1STR    C0P 5498   6.823   4.749   5.526
    1STR    O0Q 5499   6.739   4.823   5.473
    1STR    N0R 5500   6.908   4.795   5.616
    1STR    C0S 5501   7.030   4.835   5.565
    1STR    C0T 5502   7.147   4.816   5.637
    1STR    C0U 5503   0.079   4.815   5.567
    1STR    C0V 5504   0.081   4.824   5.428
    1STR    C0W 5505   0.204   4.778   5.355
    1STR    C0X 5506   7.156   4.863   5.359
    1STR    N0Y 5507   7.156   4.863   5.220
    1STR   BCK2 5508   7.061   4.880   5.128
    1STR    O10 5509   7.078   4.831   5.018
    1STR    C13 5510   7.041   4.880   5.434
    1STR    C14 5511   0.013   3.994   5.664
    1STR    C15 5512   7.084   3.954   5.604
    1STR    C16 5513   7.076   3.942   5.465
    1STR    C17 5514   6.953   3.884   5.405
    1STR    H1B 5515   7.059   4.003   5.221
    1STR    H1C 5516   0.188   4.071   5.381
    1STR    H1D 5517   0.278   4.153   5.560
    1STR    H1E 5518   7.165   4.377   5.765
    1STR    H1F 5519   0.072   4.530   5.520
    1STR    H1G 5520   7.110   4.559   5.607
    1STR    H1H 5521   0.072   4.581   5.691
    1STR    H1I 5522   7.103   4.204   5.622
    1STR    H1J 5523   7.178   4.277   5.480
    1STR    H1K 5524   6.935   4.163   5.476
    1STR    H1M 5525   6.769   4.416   5.474
    1STR    H1N 5526   6.742   4.268   5.566
    1STR    H1O 5527   6.724   4.271   5.389
    1STR    H1P 5528   7.079   4.281   5.295
    1STR    H1Q 5529   6.930   4.213   5.247
    1STR    H1R 5530   7.051   4.505   5.400
    1STR    H1S 5531   7.177   4.619   5.245
    1STR    H1T 5532   7.061   4.593   5.112
    1STR    H1U 5533   7.158   4.461   5.177
    1STR    H1V 5534   6.808   4.622   5.275
    1STR    H1W 5535   6.936   4.722   5.297
    1STR    H1X 5536   6.918   4.732   5.698
    1STR    H1Y 5537   7.138   4.789   5.740
    1STR    H1Z 5538   0.168   4.787   5.619
    1STR    H20 5539   0.201   4.670   5.344
    1STR    H21 5540   0.213   4.823   5.257
    1STR    H22 5541   0.291   4.804   5.414
    1STR    H23 5542   0.051   4.829   5.179
    1STR    H27 5543   6.949   4.911   5.390
    1STR    H28 5544   0.017   4.003   5.771
    1STR    H29 5545   6.997   3.933   5.664
    1STR    H2A 5546   6.897   3.959   5.349
    1STR    H2B 5547   6.891   3.837   5.479
    1STR    H2C 5548   6.985   3.805   5.338
    1STR   BCK1 5549   7.131   5.855   6.817
    1STR    O03 5550   7.180   5.950   6.756
    1STR    N04 5551   0.013   5.751   6.861
    1STR    C05 5552   0.153   5.749   6.854
    1STR    C06 5553   0.220   5.865   6.881
    1STR    C07 5554   0.358   5.883   6.879
    1STR    N08 5555   0.413   6.007   6.908
    1STR    C09 5556   0.352   6.126   6.908
    1STR    O0A 5557   0.407   6.222   6.960
    1STR    O0B 5558   0.233   6.129   6.844
    1STR    C0C 5559   0.125   6.205   6.893
    1STR    C0D 5560   0.053   6.264   6.772
    1STR    C0E 5561   0.024   6.129   6.989
    1STR    O0F 5562   0.076   6.033   7.080
    1STR    C0G 5563   0.068   6.065   0.027
    1STR    C0H 5564   0.080   5.936   0.103
    1STR    C0I 5565   0.187   6.153   0.060
    1STR    O0J 5566   0.183   6.260   7.162
    1STR    C0K 5567   0.102   6.371   7.189
    1STR    C0M 5568   0.023   6.437   7.075
    1STR    C0N 5569   0.043   6.395   0.138
    1STR    O0O 5570   0.143   6.396   0.235
    1STR    C0P 5571   0.243   6.487   0.245
    1STR    O0Q 5572   0.326   6.478   0.332
    1STR    N0R 5573   0.250   6.595   0.165
    1STR    C0S 5574   0.188   6.647   0.053
    1STR    C0T 5575   0.257   6.635   7.121
    1STR    C0U 5576   0.212   6.697   7.006
    1STR    C0V 5577   0.091   6.765   7.007
    1STR    C0W 5578   0.056   6.836   6.880
    1STR    C0X 5579   0.013   6.767   7.125
    1STR    N0Y 5580   7.073   6.809   7.135
    1STR   BCK2 5581   6.966   6.787   7.061
    1STR    O10 5582   6.855   6.819   7.100
    1STR    C13 5583   0.066   6.716   0.054
    1STR    C14 5584   0.437   5.770   6.856
    1STR    C15 5585   0.373   5.646   6.837
    1STR    C16 5586   0.233   5.635   6.838
    1STR    C17 5587   0.171   5.501   6.831
    1STR    H1B 5588   7.156   5.679   6.913
    1STR    H1C 5589   0.158   5.944   6.908
    1STR    H1D 5590   0.508   6.012   6.938
    1STR    H1E 5591   0.173   6.288   6.941
    1STR    H1F 5592   7.181   6.190   6.721
    1STR    H1G 5593   7.178   6.347   6.799
    1STR    H1H 5594   0.125   6.299   6.699
    1STR    H1I 5595   7.138   6.081   6.931
    1STR    H1J 5596   7.149   6.193   7.045
    1STR    H1K 5597   7.164   6.112   0.052
    1STR    H1M 5598   0.172   5.886   0.079
    1STR    H1N 5599  -0.001   5.868   0.075
    1STR    H1O 5600   0.077   5.956   0.209
    1STR    H1P 5601   0.193   6.180   0.165
    1STR    H1Q 5602   0.279   6.099   0.036
    1STR    H1R 5603   0.196   6.421   7.188
    1STR    H1S 5604   7.162   6.525   7.108
    1STR    H1T 5605   7.132   6.381   7.033
    1STR    H1U 5606   0.087   6.468   6.993
    1STR    H1V 5607   7.162   6.316   0.161
    1STR    H1W 5608   7.179   6.489   0.144
    1STR    H1X 5609   0.327   6.650   0.198
    1STR    H1Y 5610   0.349   6.579   7.119
    1STR    H1Z 5611   0.271   6.693   6.916
    1STR    H20 5612   0.024   6.764   6.805
    1STR    H21 5613   7.169   6.909   6.897
    1STR    H22 5614   0.145   6.885   6.842
    1STR    H23 5615   7.044   6.850   0.035
    1STR    H27 5616   0.011   6.726   0.146
    1STR    H28 5617   0.544   5.776   6.856
    1STR    H29 5618   0.433   5.558   6.824
    1STR    H2A 5619   0.114   5.482   6.918
    1STR    H2B 5620   0.247   5.427   6.826
    1STR    H2C 5621   0.102   5.498   6.750
    1STR   BCK1 5622   0.003   5.777   1.745
    1STR    O03 5623   0.116   5.746   1.780
    1STR    N04 5624   7.091   5.781   1.832
    1STR    C05 5625   6.953   5.798   1.828
    1STR    C06 5626   6.900   5.863   1.720
    1STR    C07 5627   6.764   5.895   1.709
    1STR    N08 5628   6.730   5.983   1.610
    1STR    C09 5629   6.811   6.087   1.600
    1STR    O0A 5630   6.861   6.112   1.491
    1STR    O0B 5631   6.839   6.136   1.723
    1STR    C0C 5632   6.961   6.193   1.769
    1STR    C0D 5633   6.954   6.178   1.920
    1STR    C0E 5634   7.096   6.145   1.716
    1STR    O0F 5635   7.116   6.185   1.582
    1STR    C0G 5636   0.041   6.125   1.526
    1STR    C0H 5637   7.187   6.063   1.394
    1STR    C0I 5638   0.161   6.218   1.506
    1STR    O0J 5639   0.145   6.289   1.385
    1STR    C0K 5640   0.065   6.402   1.401
    1STR    C0M 5641   0.160   6.519   1.419
    1STR    C0N 5642   7.158   6.416   1.283
    1STR    O0O 5643   7.037   6.342   1.302
    1STR    C0P 5644   6.922   6.408   1.314
    1STR    O0Q 5645   6.897   6.518   1.266
    1STR    N0R 5646   6.843   6.351   1.403
    1STR    C0S 5647   6.833   6.406   1.529
    1STR    C0T 5648   6.718   6.399   1.608
    1STR    C0U 5649   6.721   6.453   1.739
    1STR    C0V 5650   6.834   6.520   1.787
    1STR    C0W 5651   6.834   6.574   1.927
    1STR    C0X 5652   6.946   6.533   1.705
    1STR    N0Y 5653   7.055   6.611   1.732
    1STR   BCK2 5654   7.120   6.684   1.640
    1STR    O10 5655   0.047   6.710   1.656
    1STR    C13 5656   6.946   6.466   1.583
    1STR    C14 5657   6.673   5.850   1.804
    1STR    C15 5658   6.724   5.784   1.916
    1STR    C16 5659   6.863   5.764   1.933
    1STR    C17 5660   6.902   5.720   2.070
    1STR    H1B 5661   7.133   5.774   1.928
    1STR    H1C 5662   6.967   5.905   1.649
    1STR    H1D 5663   6.694   5.946   1.524
    1STR    H1E 5664   6.957   6.297   1.750
    1STR    H1F 5665   6.960   6.072   1.947
    1STR    H1G 5666   7.038   6.228   1.967
    1STR    H1H 5667   6.862   6.219   1.959
    1STR    H1I 5668   7.106   6.039   1.733
    1STR    H1J 5669   7.175   6.191   1.775
    1STR    H1K 5670   0.082   6.051   1.593
    1STR    H1M 5671   7.161   6.138   1.320
    1STR    H1N 5672   7.098   6.002   1.407
    1STR    H1O 5673   0.078   6.002   1.355
    1STR    H1P 5674   0.176   6.281   1.593
    1STR    H1Q 5675   0.250   6.157   1.496
    1STR    H1R 5676   0.010   6.393   1.493
    1STR    H1S 5677   0.210   6.512   1.515
    1STR    H1T 5678   0.108   6.614   1.420
    1STR    H1U 5679   0.236   6.523   1.341
    1STR    H1V 5680   0.017   6.386   1.191
    1STR    H1W 5681   7.134   6.521   1.275
    1STR    H1X 5682   6.867   6.251   1.415
    1STR    H1Y 5683   6.631   6.349   1.570
    1STR    H1Z 5684   6.636   6.443   1.803
    1STR    H20 5685   6.926   6.628   1.948
    1STR    H21 5686   6.749   6.640   1.937
    1STR    H22 5687   6.824   6.492   1.997
    1STR    H23 5688   7.094   6.621   1.824
    1STR    H27 5689   7.033   6.473   1.523
    1STR    H28 5690   6.569   5.873   1.796
    1STR    H29 5691   6.657   5.755   1.995
    1STR    H2A 5692   6.829   5.648   2.106
    1STR    H2B 5693   6.905   5.806   2.136
    1STR    H2C 5694   6.998   5.673   2.076
    1STR   BCK1 5695   7.074   5.875   3.366
    1STR    O03 5696   7.119   5.977   3.416
    1STR    N04 5697   7.107   5.754   3.407
    1STR    C05 5698   0.004   5.733   3.511
    1STR    C06 5699   0.137   5.773   3.500
    1STR    C07 5700   0.225   5.757   3.608
    1STR    N08 5701   0.341   5.830   3.605
    1STR    C09 5702   0.397   5.895   3.705
    1STR    O0A 5703   0.411   5.855   3.819
    1STR    O0B 5704   0.426   6.015   3.663
    1STR    C0C 5705   0.329   6.116   3.688
    1STR    C0D 5706   0.366   6.229   3.592
    1STR    C0E 5707   0.184   6.068   3.667
    1STR    O0F 5708   0.128   6.008   3.784
    1STR    C0G 5709   0.005   6.069   3.821
    1STR    C0H 5710   7.107   5.981   3.905
    1STR    C0I 5711   0.035   6.198   3.897
    1STR    O0J 5712   0.094   6.287   3.809
    1STR    C0K 5713   0.010   6.380   3.749
    1STR    C0M 5714   0.070   6.400   3.609
    1STR    C0N 5715   7.046   6.358   3.748
    1STR    O0O 5716   6.968   6.373   3.865
    1STR    C0P 5717   6.934   6.487   3.931
    1STR    O0Q 5718   6.853   6.485   4.021
    1STR    N0R 5719   6.984   6.606   3.901
    1STR    C0S 5720   7.052   6.648   3.792
    1STR    C0T 5721   7.184   6.690   3.810
    1STR    C0U 5722   0.074   6.695   3.697
    1STR    C0V 5723   0.018   6.681   3.569
    1STR    C0W 5724   0.106   6.672   3.451
    1STR    C0X 5725   7.070   6.665   3.551
    1STR    N0Y 5726   7.023   6.663   3.421
    1STR   BCK2 5727   6.900   6.655   3.374
    1STR    O10 5728   6.800   6.636   3.443
    1STR    C13 5729   6.992   6.644   3.665
    1STR    C14 5730   0.182   5.690   3.722
    1STR    C15 5731   0.047   5.657   3.737
    1STR    C16 5732   7.147   5.684   3.633
    1STR    C17 5733   7.000   5.677   3.660
    1STR    H1B 5734   7.065   5.670   3.367
    1STR    H1C 5735   0.168   5.826   3.411
    1STR    H1D 5736   0.365   5.868   3.514
    1STR    H1E 5737   0.340   6.151   3.790
    1STR    H1F 5738   0.332   6.211   3.490
    1STR    H1G 5739   0.322   6.322   3.628
    1STR    H1H 5740   0.473   6.244   3.591
    1STR    H1I 5741   0.171   6.007   3.579
    1STR    H1J 5742   0.123   6.149   3.635
    1STR    H1K 5743   7.138   6.084   3.730
    1STR    H1M 5744   7.140   5.979   4.009
    1STR    H1N 5745   7.102   5.880   3.866
    1STR    H1O 5746   7.006   6.022   3.909
    1STR    H1P 5747   7.140   6.239   3.951
    1STR    H1Q 5748   0.109   6.185   3.973
    1STR    H1R 5749   0.032   6.461   3.814
    1STR    H1S 5750  -0.000   6.447   3.544
    1STR    H1T 5751   0.097   6.315   3.550
    1STR    H1U 5752   0.160   6.460   3.615
    1STR    H1V 5753   7.033   6.254   3.727
    1STR    H1W 5754   6.997   6.407   3.666
    1STR    H1X 5755   6.986   6.660   3.985
    1STR    H1Y 5756   0.040   6.692   3.907
    1STR    H1Z 5757   0.180   6.698   3.710
    1STR    H20 5758   0.080   6.589   3.387
    1STR    H21 5759   0.091   6.765   3.398
    1STR    H22 5760   0.209   6.661   3.482
    1STR    H23 5761   7.090   6.681   3.347
    1STR    H27 5762   6.888   6.620   3.656
    1STR    H28 5763   0.252   5.674   3.802
    1STR    H29 5764   0.013   5.621   3.832
    1STR    H2A 5765   6.950   5.758   3.608
    1STR    H2B 5766   6.983   5.692   3.766
    1STR    H2C 5767   6.959   5.583   3.625
    1STR   BCK1 5768   7.056   5.723   5.258
    1STR    O03 5769   7.059   5.832   5.311
    1STR    N04 5770   7.153   5.672   5.183
    1STR    C05 5771   0.031   5.757   5.101
    1STR    C06 5772   7.145   5.826   5.005
    1STR    C07 5773   0.010   5.933   4.934
    1STR    N08 5774   7.117   6.038   4.900
    1STR    C09 5775   6.985   6.026   4.884
    1STR    O0A 5776   6.933   5.938   4.817
    1STR    O0B 5777   6.909   6.109   4.954
    1STR    C0C 5778   6.949   6.180   5.070
    1STR    C0D 5779   6.817   6.242   5.114
    1STR    C0E 5780   7.000   6.090   5.185
    1STR    O0F 5781   7.134   6.046   5.175
    1STR    C0G 5782   0.037   6.114   5.256
    1STR    C0H 5783   0.162   6.035   5.287
    1STR    C0I 5784   0.069   6.243   5.183
    1STR    O0J 5785   7.164   6.334   5.231
    1STR    C0K 5786   7.174   6.379   5.366
    1STR    C0M 5787   7.031   6.381   5.415
    1STR    C0N 5788   0.089   6.331   5.468
    1STR    O0O 5789   0.213   6.311   5.405
    1STR    C0P 5790   0.328   6.352   5.457
    1STR    O0Q 5791   0.355   6.357   5.576
    1STR    N0R 5792   0.407   6.403   5.363
    1STR    C0S 5793   0.348   6.476   5.261
    1STR    C0T 5794   0.375   6.456   5.125
    1STR    C0U 5795   0.296   6.523   5.031
    1STR    C0V 5796   0.188   6.603   5.071
    1STR    C0W 5797   0.117   6.683   4.971
    1STR    C0X 5798   0.159   6.620   5.207
    1STR    N0Y 5799   0.058   6.694   5.264
    1STR   BCK2 5800   7.116   6.674   5.260
    1STR    O10 5801   7.056   6.687   5.364
    1STR    C13 5802   0.246   6.563   5.299
    1STR    C14 5803   0.149   5.949   4.933
    1STR    C15 5804   0.229   5.871   5.018
    1STR    C16 5805   0.169   5.785   5.112
    1STR    C17 5806   0.251   5.730   5.226
    1STR    H1B 5807   7.127   5.583   5.144
    1STR    H1C 5808   7.039   5.810   5.006
    1STR    H1D 5809   7.148   6.128   4.932
    1STR    H1E 5810   7.020   6.258   5.045
    1STR    H1F 5811   6.745   6.164   5.140
    1STR    H1G 5812   6.830   6.306   5.200
    1STR    H1H 5813   6.774   6.300   5.032
    1STR    H1I 5814   6.938   6.002   5.186
    1STR    H1J 5815   6.983   6.138   5.280
    1STR    H1K 5816   7.180   6.126   5.352
    1STR    H1M 5817   0.228   6.031   5.202
    1STR    H1N 5818   0.135   5.937   5.323
    1STR    H1O 5819   0.220   6.081   5.366
    1STR    H1P 5820   0.171   6.277   5.192
    1STR    H1Q 5821   0.056   6.230   5.076
    1STR    H1R 5822   0.013   6.479   5.356
    1STR    H1S 5823   7.020   6.446   5.501
    1STR    H1T 5824   6.994   6.282   5.436
    1STR    H1U 5825   6.968   6.422   5.337
    1STR    H1V 5826   0.062   6.238   5.515
    1STR    H1W 5827   0.099   6.409   5.543
    1STR    H1X 5828   0.502   6.419   5.391
    1STR    H1Y 5829   0.453   6.389   5.094
    1STR    H1Z 5830   0.317   6.513   4.925
    1STR    H20 5831   0.031   6.631   4.930
    1STR    H21 5832   0.087   6.776   5.017
    1STR    H22 5833   0.187   6.705   4.892
    1STR    H23 5834   0.083   6.732   5.354
    1STR    H27 5835   0.226   6.575   5.403
    1STR    H28 5836   0.194   6.028   4.875
    1STR    H29 5837   0.335   5.888   5.021
    1STR    H2A 5838   0.186   5.709   5.311
    1STR    H2B 5839   0.322   5.806   5.257
    1STR    H2C 5840   0.307   5.642   5.201
    1STR   BCK1 5841   1.770   0.372   6.957
    1STR    O03 5842   1.886   0.343   6.985
    1STR    N04 5843   1.664   0.356   7.038
    1STR    C05 5844   1.662   0.369   7.176
    1STR    C06 5845   1.777   0.413   0.053
    1STR    C07 5846   1.768   0.459   0.184
    1STR    N08 5847   1.864   0.549   0.222
    1STR    C09 5848   1.822   0.668   0.182
    1STR    O0A 5849   1.710   0.710   0.202
    1STR    O0B 5850   1.909   0.723   0.102
    1STR    C0C 5851   1.854   0.800   7.186
    1STR    C0D 5852   1.959   0.903   7.152
    1STR    C0E 5853   1.813   0.709   7.068
    1STR    O0F 5854   1.694   0.635   7.088
    1STR    C0G 5855   1.571   0.691   7.045
    1STR    C0H 5856   1.486   0.597   6.963
    1STR    C0I 5857   1.491   0.729   7.168
    1STR    O0J 5858   1.524   0.858   0.020
    1STR    C0K 5859   1.501   0.961   7.117
    1STR    C0M 5860   1.631   1.002   7.049
    1STR    C0N 5861   1.378   0.946   7.025
    1STR    O0O 5862   1.266   0.957   7.109
    1STR    C0P 5863   1.159   1.021   7.063
    1STR    O0Q 5864   1.103   0.992   6.959
    1STR    N0R 5865   1.132   1.131   7.134
    1STR    C0S 5866   1.233   1.200   0.009
    1STR    C0T 5867   1.245   1.210   0.148
    1STR    C0U 5868   1.369   1.244   0.203
    1STR    C0V 5869   1.481   1.270   0.119
    1STR    C0W 5870   1.620   1.267   0.176
    1STR    C0X 5871   1.461   1.281   7.170
    1STR    N0Y 5872   1.568   1.308   7.087
    1STR   BCK2 5873   1.603   1.291   6.960
    1STR    O10 5874   1.722   1.307   6.938
    1STR    C13 5875   1.339   1.240   7.120
    1STR    C14 5876   1.652   0.438   0.260
    1STR    C15 5877   1.538   0.389   0.196
    1STR    C16 5878   1.541   0.362   0.058
    1STR    C17 5879   1.409   0.339   7.183
    1STR    H1B 5880   1.576   0.380   6.996
    1STR    H1C 5881   1.867   0.435   0.000
    1STR    H1D 5882   1.958   0.530   0.192
    1STR    H1E 5883   1.767   0.855   0.029
    1STR    H1F 5884   2.051   0.858   7.116
    1STR    H1G 5885   1.921   0.968   7.073
    1STR    H1H 5886   1.982   0.967   0.047
    1STR    H1I 5887   1.890   0.633   7.060
    1STR    H1J 5888   1.811   0.760   6.972
    1STR    H1K 5889   1.587   0.770   6.972
    1STR    H1M 5890   1.470   0.505   7.014
    1STR    H1N 5891   1.532   0.579   6.868
    1STR    H1O 5892   1.388   0.638   6.943
    1STR    H1P 5893   1.384   0.722   7.153
    1STR    H1Q 5894   1.513   0.658   0.058
    1STR    H1R 5895   1.479   1.040   7.185
    1STR    H1S 5896   1.615   1.038   6.949
    1STR    H1T 5897   1.700   0.924   7.029
    1STR    H1U 5898   1.685   1.075   7.108
    1STR    H1V 5899   1.373   0.854   6.968
    1STR    H1W 5900   1.378   1.025   6.951
    1STR    H1X 5901   1.041   1.176   7.112
    1STR    H1Y 5902   1.162   1.182   0.211
    1STR    H1Z 5903   1.380   1.244   0.309
    1STR    H20 5904   1.690   1.218   0.108
    1STR    H21 5905   1.660   1.363   0.203
    1STR    H22 5906   1.621   1.213   0.268
    1STR    H23 5907   1.645   1.353   7.133
    1STR    H27 5908   1.330   1.223   7.017
    1STR    H28 5909   1.646   0.473   0.361
    1STR    H29 5910   1.446   0.382   0.251
    1STR    H2A 5911   1.355   0.433   7.175
    1STR    H2B 5912   1.349   0.275   0.057
    1STR    H2C 5913   1.419   0.294   7.085
    1STR   BCK1 5914   1.775   0.530   1.477
    1STR    O03 5915   1.861   0.489   1.401
    1STR    N04 5916   1.761   0.489   1.603
    1STR    C05 5917   1.854   0.429   1.684
    1STR    C06 5918   1.987   0.462   1.667
    1STR    C07 5919   2.077   0.456   1.773
    1STR    N08 5920   2.174   0.555   1.785
    1STR    C09 5921   2.224   0.622   1.681
    1STR    O0A 5922   2.335   0.601   1.638
    1STR    O0B 5923   2.141   0.705   1.616
    1STR    C0C 5924   2.054   0.798   1.676
    1STR    C0D 5925   2.024   0.897   1.564
    1STR    C0E 5926   1.920   0.744   1.728
    1STR    O0F 5927   1.936   0.670   1.848
    1STR    C0G 5928   1.914   0.728   1.974
    1STR    C0H 5929   1.859   0.613   2.055
    1STR    C0I 5930   2.046   0.773   2.042
    1STR    O0J 5931   2.110   0.894   2.003
    1STR    C0K 5932   2.036   1.015   2.012
    1STR    C0M 5933   1.983   1.022   1.873
    1STR    C0N 5934   1.931   1.021   2.125
    1STR    O0O 5935   1.849   1.135   2.112
    1STR    C0P 5936   1.743   1.135   2.031
    1STR    O0Q 5937   1.694   1.037   1.975
    1STR    N0R 5938   1.724   1.260   1.995
    1STR    C0S 5939   1.776   1.284   1.870
    1STR    C0T 5940   1.912   1.311   1.864
    1STR    C0U 5941   1.982   1.283   1.746
    1STR    C0V 5942   1.915   1.247   1.629
    1STR    C0W 5943   1.996   1.228   1.503
    1STR    C0X 5944   1.775   1.230   1.631
    1STR    N0Y 5945   1.713   1.204   1.511
    1STR   BCK2 5946   1.583   1.208   1.484
    1STR    O10 5947   1.495   1.223   1.567
    1STR    C13 5948   1.708   1.244   1.754
    1STR    C14 5949   2.044   0.373   1.881
    1STR    C15 5950   1.915   0.318   1.888
    1STR    C16 5951   1.815   0.360   1.799
    1STR    C17 5952   1.670   0.337   1.832
    1STR    H1B 5953   1.664   0.483   1.634
    1STR    H1C 5954   2.013   0.518   1.583
    1STR    H1D 5955   2.132   0.618   1.852
    1STR    H1E 5956   2.113   0.843   1.755
    1STR    H1F 5957   1.970   0.849   1.483
    1STR    H1G 5958   1.960   0.977   1.601
    1STR    H1H 5959   2.116   0.941   1.525
    1STR    H1I 5960   1.882   0.685   1.649
    1STR    H1J 5961   1.838   0.816   1.735
    1STR    H1K 5962   1.834   0.801   1.971
    1STR    H1M 5963   1.936   0.537   2.063
    1STR    H1N 5964   1.771   0.569   2.008
    1STR    H1O 5965   1.834   0.646   2.155
    1STR    H1P 5966   2.031   0.779   2.149
    1STR    H1Q 5967   2.119   0.696   2.027
    1STR    H1R 5968   2.105   1.097   2.024
    1STR    H1S 5969   1.897   1.079   1.853
    1STR    H1T 5970   1.934   0.934   1.855
    1STR    H1U 5971   2.060   1.041   1.799
    1STR    H1V 5972   1.981   1.025   2.221
    1STR    H1W 5973   1.867   0.934   2.129
    1STR    H1X 5974   1.759   1.314   2.072
    1STR    H1Y 5975   1.968   1.330   1.953
    1STR    H1Z 5976   2.089   1.286   1.750
    1STR    H20 5977   2.095   1.193   1.529
    1STR    H21 5978   1.951   1.156   1.436
    1STR    H22 5979   2.004   1.324   1.453
    1STR    H23 5980   1.771   1.205   1.429
    1STR    H27 5981   1.603   1.225   1.766
    1STR    H28 5982   2.116   0.358   1.959
    1STR    H29 5983   1.889   0.254   1.970
    1STR    H2A 5984   1.616   0.431   1.828
    1STR    H2B 5985   1.660   0.298   1.933
    1STR    H2C 5986   1.625   0.268   1.761
    1STR   BCK1 5987   1.774   0.354   3.408
    1STR    O03 5988   1.880   0.379   3.461
    1STR    N04 5989   1.763   0.369   3.276
    1STR    C05 5990   1.650   0.415   3.216
    1STR    C06 5991   1.587   0.520   3.280
    1STR    C07 5992   1.465   0.570   3.235
    1STR    N08 5993   1.416   0.673   3.308
    1STR    C09 5994   1.327   0.644   3.402
    1STR    O0A 5995   1.227   0.577   3.381
    1STR    O0B 5996   1.371   0.677   3.523
    1STR    C0C 5997   1.458   0.787   3.548
    1STR    C0D 5998   1.398   0.844   3.676
    1STR    C0E 5999   1.609   0.756   3.562
    1STR    O0F 6000   1.683   0.764   3.439
    1STR    C0G 6001   1.821   0.722   3.454
    1STR    C0H 6002   1.888   0.677   3.325
    1STR    C0I 6003   1.912   0.828   3.517
    1STR    O0J 6004   1.994   0.899   3.424
    1STR    C0K 6005   1.931   1.008   3.365
    1STR    C0M 6006   1.938   1.118   3.469
    1STR    C0N 6007   2.001   1.046   3.233
    1STR    O0O 6008   1.907   1.067   3.130
    1STR    C0P 6009   1.817   1.161   3.146
    1STR    O0Q 6010   1.828   1.260   3.217
    1STR    N0R 6011   1.703   1.122   3.092
    1STR    C0S 6012   1.584   1.111   3.161
    1STR    C0T 6013   1.459   1.107   3.097
    1STR    C0U 6014   1.343   1.093   3.175
    1STR    C0V 6015   1.351   1.083   3.316
    1STR    C0W 6016   1.228   1.090   3.400
    1STR    C0X 6017   1.476   1.086   3.379
    1STR    N0Y 6018   1.488   1.089   3.516
    1STR   BCK2 6019   1.576   1.157   3.589
    1STR    O10 6020   1.608   1.118   3.700
    1STR    C13 6021   1.590   1.092   3.300
    1STR    C14 6022   1.400   0.507   3.127
    1STR    C15 6023   1.469   0.408   3.055
    1STR    C16 6024   1.598   0.367   3.094
    1STR    C17 6025   1.676   0.275   3.006
    1STR    H1B 6026   1.853   0.381   3.231
    1STR    H1C 6027   1.630   0.559   3.370
    1STR    H1D 6028   1.488   0.733   3.346
    1STR    H1E 6029   1.443   0.859   3.469
    1STR    H1F 6030   1.390   0.766   3.751
    1STR    H1G 6031   1.456   0.924   3.719
    1STR    H1H 6032   1.297   0.880   3.659
    1STR    H1I 6033   1.622   0.661   3.612
    1STR    H1J 6034   1.651   0.833   3.627
    1STR    H1K 6035   1.823   0.636   3.521
    1STR    H1M 6036   1.905   0.758   3.254
    1STR    H1N 6037   1.835   0.600   3.273
    1STR    H1O 6038   1.987   0.637   3.349
    1STR    H1P 6039   1.860   0.890   3.589
    1STR    H1Q 6040   1.986   0.773   3.572
    1STR    H1R 6041   1.830   0.975   3.345
    1STR    H1S 6042   1.880   1.098   3.558
    1STR    H1T 6043   1.900   1.212   3.430
    1STR    H1U 6044   2.042   1.131   3.495
    1STR    H1V 6045   2.068   0.966   3.203
    1STR    H1W 6046   2.062   1.136   3.245
    1STR    H1X 6047   1.710   1.102   2.993
    1STR    H1Y 6048   1.450   1.120   2.991
    1STR    H1Z 6049   1.246   1.097   3.128
    1STR    H20 6050   1.242   1.159   3.483
    1STR    H21 6051   1.148   1.129   3.339
    1STR    H22 6052   1.204   0.991   3.438
    1STR    H23 6053   1.426   1.032   3.572
    1STR    H27 6054   1.683   1.099   3.352
    1STR    H28 6055   1.301   0.538   3.099
    1STR    H29 6056   1.423   0.365   2.968
    1STR    H2A 6057   1.765   0.237   3.055
    1STR    H2B 6058   1.708   0.328   2.916
    1STR    H2C 6059   1.612   0.193   2.977
    1STR   BCK1 6060   1.718   0.546   5.115
    1STR    O03 6061   1.782   0.648   5.139
    1STR    N04 6062   1.724   0.434   5.185
    1STR    C05 6063   1.798   0.419   5.299
    1STR    C06 6064   1.934   0.457   5.303
    1STR    C07 6065   1.995   0.484   5.427
    1STR    N08 6066   2.114   0.555   5.429
    1STR    C09 6067   2.120   0.662   5.508
    1STR    O0A 6068   2.130   0.655   5.630
    1STR    O0B 6069   2.090   0.771   5.440
    1STR    C0C 6070   1.971   0.839   5.477
    1STR    C0D 6071   1.983   0.981   5.429
    1STR    C0E 6072   1.852   0.772   5.410
    1STR    O0F 6073   1.773   0.703   5.506
    1STR    C0G 6074   1.637   0.737   5.492
    1STR    C0H 6075   1.540   0.636   5.552
    1STR    C0I 6076   1.620   0.876   5.551
    1STR    O0J 6077   1.608   0.972   5.448
    1STR    C0K 6078   1.495   0.963   5.361
    1STR    C0M 6079   1.536   0.909   5.225
    1STR    C0N 6080   1.362   0.913   5.419
    1STR    O0O 6081   1.350   0.968   5.546
    1STR    C0P 6082   1.234   1.005   5.598
    1STR    O0Q 6083   1.125   0.960   5.568
    1STR    N0R 6084   1.250   1.107   5.682
    1STR    C0S 6085   1.364   1.185   5.672
    1STR    C0T 6086   1.468   1.176   5.764
    1STR    C0U 6087   1.596   1.215   5.725
    1STR    C0V 6088   1.622   1.256   5.593
    1STR    C0W 6089   1.766   1.274   5.556
    1STR    C0X 6090   1.515   1.274   5.502
    1STR    N0Y 6091   1.533   1.292   5.365
    1STR   BCK2 6092   1.434   1.326   5.281
    1STR    O10 6093   1.343   1.402   5.311
    1STR    C13 6094   1.386   1.242   5.546
    1STR    C14 6095   1.919   0.465   5.543
    1STR    C15 6096   1.791   0.414   5.538
    1STR    C16 6097   1.729   0.388   5.417
    1STR    C17 6098   1.585   0.343   5.420
    1STR    H1B 6099   1.650   0.366   5.174
    1STR    H1C 6100   1.984   0.482   5.211
    1STR    H1D 6101   2.160   0.567   5.339
    1STR    H1E 6102   1.957   0.838   5.586
    1STR    H1F 6103   2.024   0.984   5.328
    1STR    H1G 6104   1.886   1.030   5.428
    1STR    H1H 6105   2.046   1.034   5.499
    1STR    H1I 6106   1.888   0.702   5.337
    1STR    H1J 6107   1.796   0.843   5.351
    1STR    H1K 6108   1.614   0.732   5.387
    1STR    H1M 6109   1.586   0.563   5.615
    1STR    H1N 6110   1.492   0.581   5.471
    1STR    H1O 6111   1.458   0.682   5.607
    1STR    H1P 6112   1.540   0.881   5.624
    1STR    H1Q 6113   1.708   0.901   5.610
    1STR    H1R 6114   1.474   1.066   5.341
    1STR    H1S 6115   1.478   0.955   5.146
    1STR    H1T 6116   1.529   0.801   5.215
    1STR    H1U 6117   1.640   0.936   5.209
    1STR    H1V 6118   1.354   0.805   5.426
    1STR    H1W 6119   1.282   0.953   5.358
    1STR    H1X 6120   1.171   1.135   5.736
    1STR    H1Y 6121   1.453   1.129   5.860
    1STR    H1Z 6122   1.678   1.206   5.793
    1STR    H20 6123   1.777   1.316   5.459
    1STR    H21 6124   1.813   1.341   5.627
    1STR    H22 6125   1.815   1.178   5.561
    1STR    H23 6126   1.609   1.238   5.326
    1STR    H27 6127   1.303   1.241   5.478
    1STR    H28 6128   1.952   0.497   5.640
    1STR    H29 6129   1.736   0.405   5.629
    1STR    H2A 6130   1.525   0.400   5.350
    1STR    H2B 6131   1.540   0.358   5.518
    1STR    H2C 6132   1.578   0.237   5.399
    1STR   BCK1 6133   1.761   2.029   7.132
    1STR    O03 6134   1.810   2.088   0.035
    1STR    N04 6135   1.829   1.986   7.026
    1STR    C05 6136   1.923   2.058   6.956
    1STR    C06 6137   1.919   2.196   6.965
    1STR    C07 6138   1.975   2.277   6.868
    1STR    N08 6139   1.913   2.399   6.855
    1STR    C09 6140   1.821   2.409   6.760
    1STR    O0A 6141   1.844   2.379   6.645
    1STR    O0B 6142   1.698   2.444   6.798
    1STR    C0C 6143   1.664   2.527   6.908
    1STR    C0D 6144   1.518   2.560   6.881
    1STR    C0E 6145   1.681   2.466   7.048
    1STR    O0F 6146   1.818   2.449   7.078
    1STR    C0G 6147   1.849   2.436   0.025
    1STR    C0H 6148   1.977   2.358   0.053
    1STR    C0I 6149   1.874   2.576   0.067
    1STR    O0J 6150   2.008   2.618   0.044
    1STR    C0K 6151   2.057   2.629   7.102
    1STR    C0M 6152   1.970   2.724   7.022
    1STR    C0N 6153   2.200   2.675   7.131
    1STR    O0O 6154   2.267   2.727   7.018
    1STR    C0P 6155   2.260   2.855   6.981
    1STR    O0Q 6156   2.306   2.890   6.874
    1STR    N0R 6157   2.189   2.934   7.061
    1STR    C0S 6158   2.110   3.038   7.020
    1STR    C0T 6159   2.147   3.125   6.917
    1STR    C0U 6160   2.057   3.223   6.874
    1STR    C0V 6161   1.928   3.228   6.929
    1STR    C0W 6162   1.843   3.345   6.901
    1STR    C0X 6163   1.888   3.137   7.027
    1STR    N0Y 6164   1.767   3.149   7.092
    1STR   BCK2 6165   1.643   3.138   7.048
    1STR    O10 6166   1.550   3.155   7.126
    1STR    C13 6167   1.983   3.049   7.078
    1STR    C14 6168   2.063   2.222   6.773
    1STR    C15 6169   2.079   2.083   6.770
    1STR    C16 6170   2.003   2.001   6.855
    1STR    C17 6171   1.993   1.857   6.825
    1STR    H1B 6172   1.774   1.925   6.967
    1STR    H1C 6173   1.853   2.238   7.038
    1STR    H1D 6174   1.880   2.430   6.948
    1STR    H1E 6175   1.719   2.619   6.896
    1STR    H1F 6176   1.481   2.634   6.952
    1STR    H1G 6177   1.508   2.601   6.780
    1STR    H1H 6178   1.456   2.471   6.885
    1STR    H1I 6179   1.630   2.370   7.056
    1STR    H1J 6180   1.633   2.529   7.122
    1STR    H1K 6181   1.766   2.392   0.081
    1STR    H1M 6182   2.055   2.372   7.169
    1STR    H1N 6183   1.958   2.254   0.058
    1STR    H1O 6184   2.018   2.385   0.150
    1STR    H1P 6185   1.801   2.640   0.022
    1STR    H1Q 6186   1.857   2.581   0.174
    1STR    H1R 6187   2.061   2.536   7.048
    1STR    H1S 6188   2.016   2.756   6.929
    1STR    H1T 6189   1.946   2.809   7.082
    1STR    H1U 6190   1.877   2.678   7.000
    1STR    H1V 6191   2.257   2.590   7.168
    1STR    H1W 6192   2.201   2.745   0.023
    1STR    H1X 6193   2.174   2.901   7.156
    1STR    H1Y 6194   2.245   3.121   6.873
    1STR    H1Z 6195   2.088   3.296   6.803
    1STR    H20 6196   1.742   3.313   6.885
    1STR    H21 6197   1.845   3.403   6.992
    1STR    H22 6198   1.878   3.404   6.818
    1STR    H23 6199   1.778   3.171   7.191
    1STR    H27 6200   1.958   2.992   7.165
    1STR    H28 6201   2.109   2.282   6.698
    1STR    H29 6202   2.140   2.039   6.693
    1STR    H2A 6203   1.967   1.799   6.913
    1STR    H2B 6204   2.086   1.821   6.782
    1STR    H2C 6205   1.915   1.846   6.752
    1STR   BCK1 6206   1.770   2.055   1.569
    1STR    O03 6207   1.873   2.001   1.534
    1STR    N04 6208   1.737   2.052   1.697
    1STR    C05 6209   1.631   2.110   1.761
    1STR    C06 6210   1.611   2.244   1.748
    1STR    C07 6211   1.519   2.313   1.827
    1STR    N08 6212   1.557   2.440   1.855
    1STR    C09 6213   1.653   2.433   1.948
    1STR    O0A 6214   1.626   2.401   2.062
    1STR    O0B 6215   1.779   2.433   1.901
    1STR    C0C 6216   1.822   2.522   1.801
    1STR    C0D 6217   1.897   2.625   1.882
    1STR    C0E 6218   1.909   2.459   1.692
    1STR    O0F 6219   1.837   2.397   1.586
    1STR    C0G 6220   1.758   2.478   1.500
    1STR    C0H 6221   1.795   2.444   1.360
    1STR    C0I 6222   1.608   2.450   1.516
    1STR    O0J 6223   1.562   2.533   1.616
    1STR    C0K 6224   1.533   2.662   1.572
    1STR    C0M 6225   1.589   2.748   1.687
    1STR    C0N 6226   1.572   2.704   1.426
    1STR    O0O 6227   1.474   2.796   1.387
    1STR    C0P 6228   1.482   2.904   1.450
    1STR    O0Q 6229   1.592   2.959   1.464
    1STR    N0R 6230   1.370   2.919   1.521
    1STR    C0S 6231   1.346   3.010   1.622
    1STR    C0T 6232   1.216   3.051   1.653
    1STR    C0U 6233   1.198   3.171   1.725
    1STR    C0V 6234   1.308   3.256   1.741
    1STR    C0W 6235   1.295   3.393   1.796
    1STR    C0X 6236   1.433   3.213   1.696
    1STR    N0Y 6237   1.521   3.294   1.630
    1STR   BCK2 6238   1.569   3.263   1.508
    1STR    O10 6239   1.688   3.271   1.485
    1STR    C13 6240   1.454   3.079   1.677
    1STR    C14 6241   1.429   2.243   1.907
    1STR    C15 6242   1.455   2.108   1.930
    1STR    C16 6243   1.566   2.050   1.867
    1STR    C17 6244   1.630   1.933   1.926
    1STR    H1B 6245   1.799   1.992   1.750
    1STR    H1C 6246   1.688   2.293   1.697
    1STR    H1D 6247   1.579   2.484   1.765
    1STR    H1E 6248   1.741   2.572   1.755
    1STR    H1F 6249   1.991   2.581   1.916
    1STR    H1G 6250   1.915   2.714   1.823
    1STR    H1H 6251   1.840   2.656   1.969
    1STR    H1I 6252   1.973   2.383   1.735
    1STR    H1J 6253   1.974   2.533   1.648
    1STR    H1K 6254   1.781   2.582   1.517
    1STR    H1M 6255   1.709   2.443   1.293
    1STR    H1N 6256   1.839   2.344   1.361
    1STR    H1O 6257   1.864   2.516   1.318
    1STR    H1P 6258   1.547   2.455   1.427
    1STR    H1Q 6259   1.583   2.350   1.540
    1STR    H1R 6260   1.425   2.665   1.572
    1STR    H1S 6261   1.542   2.844   1.693
    1STR    H1T 6262   1.696   2.767   1.674
    1STR    H1U 6263   1.571   2.703   1.784
    1STR    H1V 6264   1.564   2.632   1.347
    1STR    H1W 6265   1.673   2.744   1.420
    1STR    H1X 6266   1.294   2.860   1.490
    1STR    H1Y 6267   1.129   2.997   1.618
    1STR    H1Z 6268   1.099   3.202   1.753
    1STR    H20 6269   1.376   3.457   1.761
    1STR    H21 6270   1.205   3.441   1.765
    1STR    H22 6271   1.292   3.386   1.904
    1STR    H23 6272   1.558   3.383   1.664
    1STR    H27 6273   1.556   3.051   1.659
    1STR    H28 6274   1.355   2.291   1.967
    1STR    H29 6275   1.398   2.056   2.005
    1STR    H2A 6276   1.600   1.850   1.866
    1STR    H2B 6277   1.596   1.929   2.028
    1STR    H2C 6278   1.735   1.940   1.931
    1STR   BCK1 6279   1.863   2.266   3.226
    1STR    O03 6280   1.978   2.289   3.189
    1STR    N04 6281   1.827   2.216   3.344
    1STR    C05 6282   1.899   2.188   3.459
    1STR    C06 6283   2.030   2.231   3.474
    1STR    C07 6284   2.098   2.219   3.595
    1STR    N08 6285   2.206   2.302   3.612
    1STR    C09 6286   2.223   2.379   3.717
    1STR    O0A 6287   2.241   2.339   3.832
    1STR    O0B 6288   2.223   2.506   3.679
    1STR    C0C 6289   2.102   2.559   3.624
    1STR    C0D 6290   2.086   2.542   3.472
    1STR    C0E 6291   1.978   2.505   3.697
    1STR    O0F 6292   1.991   2.531   3.836
    1STR    C0G 6293   1.887   2.613   3.886
    1STR    C0H 6294   1.884   2.608   4.038
    1STR    C0I 6295   1.908   2.756   3.840
    1STR    O0J 6296   1.917   2.769   3.700
    1STR    C0K 6297   1.799   2.775   3.623
    1STR    C0M 6298   1.843   2.767   3.479
    1STR    C0N 6299   1.672   2.697   3.659
    1STR    O0O 6300   1.625   2.746   3.781
    1STR    C0P 6301   1.499   2.785   3.790
    1STR    O0Q 6302   1.403   2.719   3.756
    1STR    N0R 6303   1.491   2.908   3.840
    1STR    C0S 6304   1.580   2.999   3.791
    1STR    C0T 6305   1.707   3.015   3.849
    1STR    C0U 6306   1.813   3.062   3.771
    1STR    C0V 6307   1.788   3.104   3.639
    1STR    C0W 6308   1.902   3.140   3.555
    1STR    C0X 6309   1.662   3.084   3.579
    1STR    N0Y 6310   1.651   3.084   3.442
    1STR   BCK2 6311   1.586   2.995   3.366
    1STR    O10 6312   1.523   2.898   3.406
    1STR    C13 6313   1.558   3.037   3.659
    1STR    C14 6314   2.042   2.149   3.701
    1STR    C15 6315   1.911   2.108   3.689
    1STR    C16 6316   1.836   2.134   3.574
    1STR    C17 6317   1.688   2.114   3.583
    1STR    H1B 6318   1.729   2.236   3.366
    1STR    H1C 6319   2.076   2.284   3.394
    1STR    H1D 6320   2.230   2.345   3.525
    1STR    H1E 6321   2.110   2.665   3.645
    1STR    H1F 6322   1.993   2.490   3.447
    1STR    H1G 6323   2.077   2.639   3.424
    1STR    H1H 6324   2.167   2.488   3.426
    1STR    H1I 6325   1.962   2.400   3.683
    1STR    H1J 6326   1.888   2.543   3.651
    1STR    H1K 6327   1.791   2.574   3.853
    1STR    H1M 6328   1.984   2.606   4.079
    1STR    H1N 6329   1.828   2.523   4.074
    1STR    H1O 6330   1.831   2.695   4.078
    1STR    H1P 6331   1.829   2.815   3.882
    1STR    H1Q 6332   2.001   2.793   3.882
    1STR    H1R 6333   1.764   2.872   3.632
    1STR    H1S 6334   1.775   2.827   3.421
    1STR    H1T 6335   1.845   2.665   3.443
    1STR    H1U 6336   1.940   2.813   3.466
    1STR    H1V 6337   1.687   2.591   3.672
    1STR    H1W 6338   1.598   2.711   3.580
    1STR    H1X 6339   1.397   2.940   3.861
    1STR    H1Y 6340   1.724   2.984   3.951
    1STR    H1Z 6341   1.912   3.069   3.812
    1STR    H20 6342   1.925   3.046   3.508
    1STR    H21 6343   1.878   3.212   3.479
    1STR    H22 6344   1.985   3.176   3.614
    1STR    H23 6345   1.697   3.164   3.400
    1STR    H27 6346   1.465   3.013   3.613
    1STR    H28 6347   2.094   2.140   3.795
    1STR    H29 6348   1.864   2.066   3.776
    1STR    H2A 6349   1.632   2.186   3.525
    1STR    H2B 6350   1.656   2.125   3.686
    1STR    H2C 6351   1.660   2.016   3.554
    1STR   BCK1 6352   1.825   2.125   5.270
    1STR    O03 6353   1.823   2.110   5.391
    1STR    N04 6354   1.920   2.199   5.213
    1STR    C05 6355   1.908   2.276   5.099
    1STR    C06 6356   1.782   2.318   5.059
    1STR    C07 6357   1.761   2.424   4.972
    1STR    N08 6358   1.641   2.492   4.970
    1STR    C09 6359   1.577   2.535   5.077
    1STR    O0A 6360   1.514   2.640   5.080
    1STR    O0B 6361   1.593   2.453   5.180
    1STR    C0C 6362   1.595   2.496   5.312
    1STR    C0D 6363   1.460   2.462   5.372
    1STR    C0E 6364   1.714   2.434   5.382
    1STR    O0F 6365   1.829   2.484   5.314
    1STR    C0G 6366   1.941   2.513   5.394
    1STR    C0H 6367   2.003   2.387   5.453
    1STR    C0I 6368   2.043   2.587   5.308
    1STR    O0J 6369   1.989   2.710   5.261
    1STR    C0K 6370   1.949   2.705   5.125
    1STR    C0M 6371   1.818   2.779   5.118
    1STR    C0N 6372   2.063   2.765   5.041
    1STR    O0O 6373   2.079   2.715   4.907
    1STR    C0P 6374   2.003   2.740   4.798
    1STR    O0Q 6375   2.001   2.664   4.702
    1STR    N0R 6376   1.928   2.849   4.792
    1STR    C0S 6377   1.955   2.968   4.853
    1STR    C0T 6378   2.080   3.027   4.832
    1STR    C0U 6379   2.115   3.137   4.909
    1STR    C0V 6380   2.031   3.179   5.012
    1STR    C0W 6381   2.083   3.288   5.099
    1STR    C0X 6382   1.902   3.126   5.028
    1STR    N0Y 6383   1.824   3.174   5.132
    1STR   BCK2 6384   1.700   3.155   5.175
    1STR    O10 6385   1.657   3.222   5.267
    1STR    C13 6386   1.862   3.024   4.941
    1STR    C14 6387   1.870   2.471   4.901
    1STR    C15 6388   2.000   2.426   4.932
    1STR    C16 6389   2.020   2.332   5.035
    1STR    C17 6390   2.160   2.298   5.075
    1STR    H1B 6391   1.993   2.227   5.276
    1STR    H1C 6392   1.697   2.282   5.108
    1STR    H1D 6393   1.576   2.486   4.888
    1STR    H1E 6394   1.616   2.601   5.305
    1STR    H1F 6395   1.442   2.355   5.371
    1STR    H1G 6396   1.451   2.497   5.475
    1STR    H1H 6397   1.381   2.509   5.313
    1STR    H1I 6398   1.710   2.327   5.377
    1STR    H1J 6399   1.714   2.460   5.488
    1STR    H1K 6400   1.913   2.578   5.477
    1STR    H1M 6401   2.058   2.331   5.378
    1STR    H1N 6402   1.931   2.322   5.501
    1STR    H1O 6403   2.077   2.415   5.528
    1STR    H1P 6404   2.130   2.610   5.368
    1STR    H1Q 6405   2.078   2.523   5.227
    1STR    H1R 6406   1.926   2.603   5.098
    1STR    H1S 6407   1.828   2.880   5.156
    1STR    H1T 6408   1.744   2.728   5.178
    1STR    H1U 6409   1.778   2.778   5.016
    1STR    H1V 6410   2.155   2.734   5.088
    1STR    H1W 6411   2.063   2.873   5.051
    1STR    H1X 6412   1.853   2.844   4.725
    1STR    H1Y 6413   2.148   2.986   4.760
    1STR    H1Z 6414   2.208   3.186   4.892
    1STR    H20 6415   2.021   3.309   5.185
    1STR    H21 6416   2.181   3.254   5.130
    1STR    H22 6417   2.095   3.381   5.044
    1STR    H23 6418   1.869   3.238   5.195
    1STR    H27 6419   1.765   2.978   4.945
    1STR    H28 6420   1.851   2.549   4.831
    1STR    H29 6421   2.084   2.468   4.881
    1STR    H2A 6422   2.164   2.231   5.161
    1STR    H2B 6423   2.214   2.388   5.099
    1STR    H2C 6424   2.208   2.250   4.990
    1STR   BCK1 6425   1.720   4.051   6.837
    1STR    O03 6426   1.829   4.102   6.859
    1STR    N04 6427   1.647   3.984   6.927
    1STR    C05 6428   1.657   3.992   7.065
    1STR    C06 6429   1.770   4.042   7.133
    1STR    C07 6430   1.765   4.067   0.081
    1STR    N08 6431   1.864   4.137   0.145
    1STR    C09 6432   1.979   4.184   0.096
    1STR    O0A 6433   2.047   4.130   0.010
    1STR    O0B 6434   2.005   4.304   0.144
    1STR    C0C 6435   1.898   4.398   0.159
    1STR    C0D 6436   1.955   4.512   0.240
    1STR    C0E 6437   1.853   4.438   0.018
    1STR    O0F 6438   1.773   4.340   7.140
    1STR    C0G 6439   1.642   4.378   7.097
    1STR    C0H 6440   1.614   4.326   6.957
    1STR    C0I 6441   1.534   4.311   7.182
    1STR    O0J 6442   1.509   4.363   0.118
    1STR    C0K 6443   1.467   4.496   0.118
    1STR    C0M 6444   1.590   4.577   0.142
    1STR    C0N 6445   1.372   4.537   0.003
    1STR    O0O 6446   1.283   4.626   0.062
    1STR    C0P 6447   1.221   4.711   7.174
    1STR    O0Q 6448   1.170   4.682   7.066
    1STR    N0R 6449   1.245   4.833   0.026
    1STR    C0S 6450   1.373   4.863   0.068
    1STR    C0T 6451   1.411   4.866   0.202
    1STR    C0U 6452   1.547   4.879   0.235
    1STR    C0V 6453   1.645   4.876   0.134
    1STR    C0W 6454   1.788   4.856   0.177
    1STR    C0X 6455   1.608   4.876   7.188
    1STR    N0Y 6456   1.701   4.869   7.087
    1STR   BCK2 6457   1.701   4.883   6.954
    1STR    O10 6458   1.809   4.867   6.900
    1STR    C13 6459   1.473   4.863   7.161
    1STR    C14 6460   1.649   4.038   0.154
    1STR    C15 6461   1.539   3.984   0.089
    1STR    C16 6462   1.543   3.962   7.142
    1STR    C17 6463   1.420   3.910   7.077
    1STR    H1B 6464   1.560   3.941   6.899
    1STR    H1C 6465   1.859   4.068   7.080
    1STR    H1D 6466   1.842   4.175   0.238
    1STR    H1E 6467   1.813   4.359   0.216
    1STR    H1F 6468   2.039   4.561   0.191
    1STR    H1G 6469   1.878   4.584   0.262
    1STR    H1H 6470   1.988   4.473   0.336
    1STR    H1I 6471   1.946   4.445   7.153
    1STR    H1J 6472   1.811   4.537   0.017
    1STR    H1K 6473   1.631   4.485   7.091
    1STR    H1M 6474   1.576   4.225   6.962
    1STR    H1N 6475   1.701   4.321   6.895
    1STR    H1O 6476   1.535   4.383   6.909
    1STR    H1P 6477   1.441   4.296   7.128
    1STR    H1Q 6478   1.567   4.212   0.009
    1STR    H1R 6479   1.416   4.511   0.211
    1STR    H1S 6480   1.572   4.644   0.224
    1STR    H1T 6481   1.624   4.630   0.054
    1STR    H1U 6482   1.668   4.514   0.181
    1STR    H1V 6483   1.310   4.456   7.156
    1STR    H1W 6484   1.424   4.582   7.109
    1STR    H1X 6485   1.181   4.906   7.179
    1STR    H1Y 6486   1.337   4.855   0.279
    1STR    H1Z 6487   1.577   4.880   0.339
    1STR    H20 6488   1.858   4.841   0.096
    1STR    H21 6489   1.819   4.940   0.238
    1STR    H22 6490   1.791   4.771   0.244
    1STR    H23 6491   1.793   4.876   7.127
    1STR    H27 6492   1.446   4.841   7.063
    1STR    H28 6493   1.639   4.063   0.259
    1STR    H29 6494   1.451   3.963   0.145
    1STR    H2A 6495   1.379   3.982   7.007
    1STR    H2B 6496   1.344   3.888   7.151
    1STR    H2C 6497   1.450   3.818   7.030
    1STR   BCK1 6498   1.729   4.079   1.379
    1STR    O03 6499   1.823   4.047   1.308
    1STR    N04 6500   1.724   4.055   1.511
    1STR    C05 6501   1.830   4.070   1.599
    1STR    C06 6502   1.950   4.130   1.559
    1STR    C07 6503   2.030   4.201   1.651
    1STR    N08 6504   2.115   4.301   1.610
    1STR    C09 6505   2.145   4.310   1.482
    1STR    O0A 6506   2.233   4.240   1.434
    1STR    O0B 6507   2.062   4.384   1.406
    1STR    C0C 6508   1.954   4.467   1.449
    1STR    C0D 6509   1.934   4.550   1.324
    1STR    C0E 6510   1.818   4.400   1.475
    1STR    O0F 6511   1.790   4.342   1.601
    1STR    C0G 6512   1.733   4.421   1.701
    1STR    C0H 6513   1.651   4.334   1.796
    1STR    C0I 6514   1.847   4.496   1.767
    1STR    O0J 6515   1.867   4.457   1.901
    1STR    C0K 6516   1.879   4.568   1.986
    1STR    C0M 6517   1.744   4.581   2.051
    1STR    C0N 6518   2.003   4.545   2.073
    1STR    O0O 6519   2.117   4.541   1.987
    1STR    C0P 6520   2.160   4.655   1.936
    1STR    O0Q 6521   2.158   4.764   1.993
    1STR    N0R 6522   2.186   4.639   1.807
    1STR    C0S 6523   2.129   4.717   1.707
    1STR    C0T 6524   2.178   4.709   1.577
    1STR    C0U 6525   2.105   4.768   1.472
    1STR    C0V 6526   1.978   4.822   1.495
    1STR    C0W 6527   1.904   4.887   1.381
    1STR    C0X 6528   1.928   4.829   1.626
    1STR    N0Y 6529   1.807   4.883   1.661
    1STR   BCK2 6530   1.684   4.843   1.631
    1STR    O10 6531   1.587   4.900   1.679
    1STR    C13 6532   2.010   4.786   1.731
    1STR    C14 6533   2.001   4.193   1.788
    1STR    C15 6534   1.895   4.112   1.829
    1STR    C16 6535   1.809   4.051   1.737
    1STR    C17 6536   1.705   3.958   1.791
    1STR    H1B 6537   1.634   4.061   1.559
    1STR    H1C 6538   1.968   4.145   1.454
    1STR    H1D 6539   2.093   4.385   1.659
    1STR    H1E 6540   1.984   4.533   1.530
    1STR    H1F 6541   1.892   4.488   1.245
    1STR    H1G 6542   1.864   4.630   1.341
    1STR    H1H 6543   2.028   4.590   1.287
    1STR    H1I 6544   1.814   4.320   1.402
    1STR    H1J 6545   1.735   4.465   1.448
    1STR    H1K 6546   1.662   4.489   1.658
    1STR    H1M 6547   1.713   4.275   1.863
    1STR    H1N 6548   1.588   4.265   1.740
    1STR    H1O 6549   1.588   4.395   1.860
    1STR    H1P 6550   1.942   4.471   1.722
    1STR    H1Q 6551   1.831   4.602   1.749
    1STR    H1R 6552   1.893   4.661   1.934
    1STR    H1S 6553   1.667   4.589   1.974
    1STR    H1T 6554   1.739   4.673   2.108
    1STR    H1U 6555   1.721   4.496   2.115
    1STR    H1V 6556   1.995   4.451   2.127
    1STR    H1W 6557   2.015   4.624   2.146
    1STR    H1X 6558   2.228   4.552   1.785
    1STR    H1Y 6559   2.271   4.660   1.555
    1STR    H1Z 6560   2.146   4.767   1.372
    1STR    H20 6561   1.964   4.889   1.290
    1STR    H21 6562   1.810   4.840   1.358
    1STR    H22 6563   1.883   4.989   1.410
    1STR    H23 6564   1.808   4.953   1.733
    1STR    H27 6565   1.976   4.805   1.831
    1STR    H28 6566   2.056   4.249   1.861
    1STR    H29 6567   1.874   4.106   1.932
    1STR    H2A 6568   1.610   4.008   1.806
    1STR    H2B 6569   1.737   3.920   1.887
    1STR    H2C 6570   1.699   3.873   1.726
    1STR   BCK1 6571   1.725   3.993   3.294
    1STR    O03 6572   1.842   3.991   3.261
    1STR    N04 6573   1.641   4.086   3.251
    1STR    C05 6574   1.546   4.147   3.329
    1STR    C06 6575   1.571   4.163   3.466
    1STR    C07 6576   1.479   4.225   3.550
    1STR    N08 6577   1.501   4.234   3.686
    1STR    C09 6578   1.610   4.224   3.762
    1STR    O0A 6579   1.603   4.221   3.883
    1STR    O0B 6580   1.727   4.211   3.699
    1STR    C0C 6581   1.784   4.326   3.641
    1STR    C0D 6582   1.839   4.416   3.751
    1STR    C0E 6583   1.893   4.282   3.539
    1STR    O0F 6584   1.854   4.233   3.411
    1STR    C0G 6585   1.845   4.334   3.313
    1STR    C0H 6586   1.845   4.289   3.170
    1STR    C0I 6587   1.722   4.412   3.343
    1STR    O0J 6588   1.781   4.513   3.414
    1STR    C0K 6589   1.728   4.633   3.385
    1STR    C0M 6590   1.801   4.702   3.496
    1STR    C0N 6591   1.769   4.677   3.243
    1STR    O0O 6592   1.735   4.597   3.128
    1STR    C0P 6593   1.617   4.558   3.067
    1STR    O0Q 6594   1.625   4.496   2.962
    1STR    N0R 6595   1.494   4.577   3.115
    1STR    C0S 6596   1.440   4.647   3.221
    1STR    C0T 6597   1.334   4.599   3.297
    1STR    C0U 6598   1.294   4.670   3.412
    1STR    C0V 6599   1.367   4.782   3.455
    1STR    C0W 6600   1.333   4.851   3.584
    1STR    C0X 6601   1.470   4.833   3.375
    1STR    N0Y 6602   1.563   4.923   3.423
    1STR   BCK2 6603   1.653   4.988   3.348
    1STR    O10 6604   1.771   4.998   3.376
    1STR    C13 6605   1.494   4.770   3.251
    1STR    C14 6606   1.359   4.271   3.495
    1STR    C15 6607   1.331   4.254   3.358
    1STR    C16 6608   1.425   4.192   3.274
    1STR    C17 6609   1.391   4.170   3.129
    1STR    H1B 6610   1.682   4.143   3.179
    1STR    H1C 6611   1.663   4.124   3.505
    1STR    H1D 6612   1.414   4.235   3.743
    1STR    H1E 6613   1.705   4.386   3.597
    1STR    H1F 6614   1.907   4.364   3.817
    1STR    H1G 6615   1.889   4.503   3.709
    1STR    H1H 6616   1.757   4.452   3.814
    1STR    H1I 6617   1.939   4.194   3.579
    1STR    H1J 6618   1.969   4.358   3.530
    1STR    H1K 6619   1.935   4.395   3.320
    1STR    H1M 6620   1.746   4.269   3.128
    1STR    H1N 6621   1.908   4.203   3.161
    1STR    H1O 6622   1.885   4.368   3.106
    1STR    H1P 6623   1.661   4.432   3.259
    1STR    H1Q 6624   1.649   4.369   3.407
    1STR    H1R 6625   1.622   4.631   3.407
    1STR    H1S 6626   1.787   4.807   3.490
    1STR    H1T 6627   1.908   4.683   3.495
    1STR    H1U 6628   1.762   4.671   3.593
    1STR    H1V 6629   1.877   4.672   3.243
    1STR    H1W 6630   1.753   4.783   3.227
    1STR    H1X 6631   1.424   4.529   3.061
    1STR    H1Y 6632   1.282   4.510   3.269
    1STR    H1Z 6633   1.210   4.634   3.468
    1STR    H20 6634   1.408   4.828   3.659
    1STR    H21 6635   1.330   4.959   3.567
    1STR    H22 6636   1.235   4.821   3.620
    1STR    H23 6637   1.581   4.916   3.522
    1STR    H27 6638   1.563   4.809   3.181
    1STR    H28 6639   1.285   4.317   3.558
    1STR    H29 6640   1.237   4.286   3.318
    1STR    H2A 6641   1.478   4.145   3.069
    1STR    H2B 6642   1.347   4.260   3.088
    1STR    H2C 6643   1.319   4.089   3.121
    1STR   BCK1 6644   1.742   4.068   5.272
    1STR    O03 6645   1.835   4.090   5.196
    1STR    N04 6646   1.741   3.976   5.365
    1STR    C05 6647   1.817   3.988   5.478
    1STR    C06 6648   1.955   4.006   5.477
    1STR    C07 6649   2.022   4.044   5.595
    1STR    N08 6650   2.149   4.095   5.585
    1STR    C09 6651   2.159   4.226   5.605
    1STR    O0A 6652   2.143   4.284   5.712
    1STR    O0B 6653   2.166   4.281   5.485
    1STR    C0C 6654   2.072   4.379   5.449
    1STR    C0D 6655   2.113   4.427   5.312
    1STR    C0E 6656   1.930   4.323   5.441
    1STR    O0F 6657   1.879   4.293   5.571
    1STR    C0G 6658   1.748   4.341   5.592
    1STR    C0H 6659   1.682   4.294   5.721
    1STR    C0I 6660   1.760   4.491   5.600
    1STR    O0J 6661   1.731   4.547   5.475
    1STR    C0K 6662   1.607   4.519   5.412
    1STR    C0M 6663   1.635   4.476   5.272
    1STR    C0N 6664   1.481   4.470   5.486
    1STR    O0O 6665   1.485   4.526   5.615
    1STR    C0P 6666   1.389   4.604   5.661
    1STR    O0Q 6667   1.269   4.580   5.651
    1STR    N0R 6668   1.437   4.717   5.713
    1STR    C0S 6669   1.548   4.775   5.654
    1STR    C0T 6670   1.674   4.775   5.715
    1STR    C0U 6671   1.787   4.803   5.635
    1STR    C0V 6672   1.773   4.830   5.498
    1STR    C0W 6673   1.895   4.835   5.415
    1STR    C0X 6674   1.647   4.832   5.437
    1STR    N0Y 6675   1.633   4.838   5.297
    1STR   BCK2 6676   1.528   4.800   5.223
    1STR    O10 6677   1.431   4.737   5.265
    1STR    C13 6678   1.535   4.811   5.520
    1STR    C14 6679   1.950   4.055   5.715
    1STR    C15 6680   1.813   4.029   5.716
    1STR    C16 6681   1.746   3.994   5.598
    1STR    C17 6682   1.596   3.976   5.596
    1STR    H1B 6683   1.648   3.942   5.383
    1STR    H1C 6684   2.004   4.004   5.381
    1STR    H1D 6685   2.192   4.076   5.496
    1STR    H1E 6686   2.072   4.459   5.521
    1STR    H1F 6687   2.094   4.352   5.236
    1STR    H1G 6688   2.055   4.515   5.283
    1STR    H1H 6689   2.219   4.450   5.310
    1STR    H1I 6690   1.928   4.235   5.378
    1STR    H1J 6691   1.872   4.395   5.386
    1STR    H1K 6692   1.687   4.306   5.509
    1STR    H1M 6693   1.753   4.286   5.803
    1STR    H1N 6694   1.631   4.200   5.706
    1STR    H1O 6695   1.601   4.360   5.751
    1STR    H1P 6696   1.699   4.533   5.678
    1STR    H1Q 6697   1.861   4.519   5.627
    1STR    H1R 6698   1.572   4.615   5.392
    1STR    H1S 6699   1.547   4.469   5.209
    1STR    H1T 6700   1.698   4.389   5.266
    1STR    H1U 6701   1.696   4.555   5.231
    1STR    H1V 6702   1.476   4.362   5.493
    1STR    H1W 6703   1.393   4.505   5.432
    1STR    H1X 6704   1.366   4.772   5.758
    1STR    H1Y 6705   1.684   4.745   5.817
    1STR    H1Z 6706   1.885   4.798   5.678
    1STR    H20 6707   1.878   4.881   5.318
    1STR    H21 6708   1.973   4.889   5.468
    1STR    H22 6709   1.923   4.732   5.396
    1STR    H23 6710   1.716   4.852   5.241
    1STR    H27 6711   1.437   4.804   5.480
    1STR    H28 6712   1.999   4.089   5.804
    1STR    H29 6713   1.759   4.042   5.809
    1STR    H2A 6714   1.549   4.059   5.543
    1STR    H2B 6715   1.555   3.973   5.697
    1STR    H2C 6716   1.572   3.884   5.544
    1STR   BCK1 6717   1.773   5.723   7.141
    1STR    O03 6718   1.843   5.796   0.019
    1STR    N04 6719   1.809   5.663   7.028
    1STR    C05 6720   1.880   5.737   6.938
    1STR    C06 6721   1.817   5.849   6.889
    1STR    C07 6722   1.883   5.945   6.814
    1STR    N08 6723   1.816   6.065   6.801
    1STR    C09 6724   1.689   6.064   6.759
    1STR    O0A 6725   1.651   6.006   6.659
    1STR    O0B 6726   1.599   6.124   6.838
    1STR    C0C 6727   1.622   6.192   6.960
    1STR    C0D 6728   1.484   6.246   6.994
    1STR    C0E 6729   1.670   6.105   7.077
    1STR    O0F 6730   1.799   6.052   7.063
    1STR    C0G 6731   1.905   6.115   7.129
    1STR    C0H 6732   2.034   6.037   7.107
    1STR    C0I 6733   1.921   6.254   7.071
    1STR    O0J 6734   1.828   6.344   7.128
    1STR    C0K 6735   1.836   6.381   0.076
    1STR    C0M 6736   1.702   6.351   0.141
    1STR    C0N 6737   1.960   6.344   0.163
    1STR    O0O 6738   2.085   6.337   0.096
    1STR    C0P 6739   2.153   6.448   0.074
    1STR    O0Q 6740   2.172   6.536   0.158
    1STR    N0R 6741   2.172   6.465   7.133
    1STR    C0S 6742   2.080   6.537   7.060
    1STR    C0T 6743   2.076   6.529   6.920
    1STR    C0U 6744   1.985   6.607   6.847
    1STR    C0V 6745   1.887   6.681   6.915
    1STR    C0W 6746   1.809   6.788   6.846
    1STR    C0X 6747   1.873   6.664   7.052
    1STR    N0Y 6748   1.762   6.705   7.122
    1STR   BCK2 6749   1.638   6.663   7.098
    1STR    O10 6750   1.545   6.698   7.168
    1STR    C13 6751   1.978   6.608   7.123
    1STR    C14 6752   2.019   5.923   6.784
    1STR    C15 6753   2.080   5.801   6.820
    1STR    C16 6754   2.009   5.708   6.897
    1STR    C17 6755   2.074   5.586   6.945
    1STR    H1B 6756   1.740   5.605   6.984
    1STR    H1C 6757   1.720   5.870   6.926
    1STR    H1D 6758   1.829   6.114   6.889
    1STR    H1E 6759   1.689   6.277   6.941
    1STR    H1F 6760   1.414   6.164   7.012
    1STR    H1G 6761   1.488   6.309   7.083
    1STR    H1H 6762   1.446   6.306   6.912
    1STR    H1I 6763   1.605   6.020   7.086
    1STR    H1J 6764   1.661   6.157   7.171
    1STR    H1K 6765   1.883   6.115   0.046
    1STR    H1M 6766   2.066   6.042   7.004
    1STR    H1N 6767   2.023   5.932   7.134
    1STR    H1O 6768   2.114   6.078   7.168
    1STR    H1P 6769   2.023   6.284   7.077
    1STR    H1Q 6770   1.907   6.253   6.964
    1STR    H1R 6771   1.828   6.488   0.075
    1STR    H1S 6772   1.687   6.415   0.228
    1STR    H1T 6773   1.693   6.247   0.172
    1STR    H1U 6774   1.622   6.374   0.071
    1STR    H1V 6775   1.944   6.247   0.209
    1STR    H1W 6776   1.966   6.417   0.244
    1STR    H1X 6777   2.210   6.384   7.085
    1STR    H1Y 6778   2.143   6.465   6.868
    1STR    H1Z 6779   1.993   6.611   6.740
    1STR    H20 6780   1.779   6.755   6.748
    1STR    H21 6781   1.723   6.823   6.901
    1STR    H22 6782   1.876   6.873   6.837
    1STR    H23 6783   1.779   6.754   0.019
    1STR    H27 6784   1.976   6.615   0.040
    1STR    H28 6785   2.081   5.996   6.736
    1STR    H29 6786   2.182   5.783   6.791
    1STR    H2A 6787   2.134   5.616   7.028
    1STR    H2B 6788   2.135   5.547   6.864
    1STR    H2C 6789   2.001   5.514   6.979
    1STR   BCK1 6790   1.776   5.787   1.716
    1STR    O03 6791   1.895   5.814   1.712
    1STR    N04 6792   1.711   5.779   1.832
    1STR    C05 6793   1.576   5.785   1.865
    1STR    C06 6794   1.479   5.832   1.776
    1STR    C07 6795   1.347   5.858   1.816
    1STR    N08 6796   1.283   5.956   1.747
    1STR    C09 6797   1.340   6.076   1.746
    1STR    O0A 6798   1.305   6.155   1.661
    1STR    O0B 6799   1.432   6.094   1.846
    1STR    C0C 6800   1.557   6.161   1.833
    1STR    C0D 6801   1.625   6.148   1.969
    1STR    C0E 6802   1.649   6.103   1.725
    1STR    O0F 6803   1.575   6.093   1.606
    1STR    C0G 6804   1.642   6.081   1.484
    1STR    C0H 6805   1.528   6.026   1.402
    1STR    C0I 6806   1.690   6.209   1.417
    1STR    O0J 6807   1.742   6.300   1.508
    1STR    C0K 6808   1.640   6.371   1.576
    1STR    C0M 6809   1.718   6.424   1.696
    1STR    C0N 6810   1.574   6.472   1.482
    1STR    O0O 6811   1.464   6.426   1.403
    1STR    C0P 6812   1.341   6.381   1.442
    1STR    O0Q 6813   1.274   6.315   1.363
    1STR    N0R 6814   1.287   6.400   1.564
    1STR    C0S 6815   1.321   6.470   1.677
    1STR    C0T 6816   1.318   6.414   1.806
    1STR    C0U 6817   1.386   6.477   1.912
    1STR    C0V 6818   1.459   6.593   1.887
    1STR    C0W 6819   1.557   6.643   1.989
    1STR    C0X 6820   1.449   6.653   1.760
    1STR    N0Y 6821   1.528   6.755   1.721
    1STR   BCK2 6822   1.624   6.752   1.630
    1STR    O10 6823   1.724   6.685   1.632
    1STR    C13 6824   1.364   6.600   1.663
    1STR    C14 6825   1.304   5.824   1.944
    1STR    C15 6826   1.399   5.778   2.035
    1STR    C16 6827   1.534   5.764   1.997
    1STR    C17 6828   1.634   5.728   2.102
    1STR    H1B 6829   1.777   5.776   1.911
    1STR    H1C 6830   1.505   5.873   1.681
    1STR    H1D 6831   1.215   5.937   1.676
    1STR    H1E 6832   1.536   6.265   1.814
    1STR    H1F 6833   1.644   6.043   1.991
    1STR    H1G 6834   1.720   6.200   1.971
    1STR    H1H 6835   1.562   6.187   2.048
    1STR    H1I 6836   1.684   6.007   1.755
    1STR    H1J 6837   1.742   6.158   1.710
    1STR    H1K 6838   1.729   6.016   1.491
    1STR    H1M 6839   1.435   6.075   1.427
    1STR    H1N 6840   1.516   5.919   1.419
    1STR    H1O 6841   1.544   6.046   1.298
    1STR    H1P 6842   1.770   6.184   1.348
    1STR    H1Q 6843   1.611   6.253   1.357
    1STR    H1R 6844   1.557   6.314   1.613
    1STR    H1S 6845   1.658   6.492   1.755
    1STR    H1T 6846   1.809   6.474   1.664
    1STR    H1U 6847   1.751   6.350   1.766
    1STR    H1V 6848   1.648   6.515   1.417
    1STR    H1W 6849   1.544   6.556   1.533
    1STR    H1X 6850   1.227   6.320   1.579
    1STR    H1Y 6851   1.273   6.319   1.825
    1STR    H1Z 6852   1.390   6.428   2.008
    1STR    H20 6853   1.591   6.744   1.965
    1STR    H21 6854   1.512   6.643   2.088
    1STR    H22 6855   1.644   6.578   1.987
    1STR    H23 6856   1.497   6.849   1.753
    1STR    H27 6857   1.357   6.642   1.565
    1STR    H28 6858   1.204   5.845   1.976
    1STR    H29 6859   1.369   5.757   2.136
    1STR    H2A 6860   1.677   5.632   2.078
    1STR    H2B 6861   1.586   5.723   2.199
    1STR    H2C 6862   1.710   5.806   2.106
    1STR   BCK1 6863   1.790   5.957   3.283
    1STR    O03 6864   1.889   5.977   3.213
    1STR    N04 6865   1.787   5.890   3.398
    1STR    C05 6866   1.889   5.845   3.482
    1STR    C06 6867   2.022   5.885   3.464
    1STR    C07 6868   2.112   5.884   3.571
    1STR    N08 6869   2.216   5.976   3.576
    1STR    C09 6870   2.236   6.064   3.479
    1STR    O0A 6871   2.281   6.037   3.368
    1STR    O0B 6872   2.199   6.186   3.514
    1STR    C0C 6873   2.087   6.247   3.448
    1STR    C0D 6874   2.093   6.249   3.295
    1STR    C0E 6875   1.959   6.179   3.491
    1STR    O0F 6876   1.970   6.118   3.619
    1STR    C0G 6877   1.915   6.180   3.732
    1STR    C0H 6878   2.003   6.133   3.847
    1STR    C0I 6879   1.919   6.329   3.725
    1STR    O0J 6880   1.836   6.388   3.625
    1STR    C0K 6881   1.694   6.381   3.626
    1STR    C0M 6882   1.640   6.296   3.513
    1STR    C0N 6883   1.630   6.358   3.762
    1STR    O0O 6884   1.693   6.433   3.866
    1STR    C0P 6885   1.685   6.564   3.858
    1STR    O0Q 6886   1.579   6.621   3.845
    1STR    N0R 6887   1.806   6.621   3.855
    1STR    C0S 6888   1.863   6.650   3.731
    1STR    C0T 6889   1.999   6.614   3.712
    1STR    C0U 6890   2.048   6.594   3.581
    1STR    C0V 6891   1.963   6.609   3.471
    1STR    C0W 6892   2.009   6.570   3.333
    1STR    C0X 6893   1.831   6.653   3.490
    1STR    N0Y 6894   1.749   6.642   3.380
    1STR   BCK2 6895   1.618   6.648   3.370
    1STR    O10 6896   1.542   6.701   3.449
    1STR    C13 6897   1.785   6.681   3.619
    1STR    C14 6898   2.079   5.812   3.687
    1STR    C15 6899   1.953   5.753   3.698
    1STR    C16 6900   1.855   5.777   3.599
    1STR    C17 6901   1.713   5.740   3.628
    1STR    H1B 6902   1.693   5.869   3.429
    1STR    H1C 6903   2.050   5.934   3.373
    1STR    H1D 6904   2.226   6.011   3.671
    1STR    H1E 6905   2.084   6.348   3.484
    1STR    H1F 6906   2.101   6.149   3.252
    1STR    H1G 6907   2.001   6.288   3.253
    1STR    H1H 6908   2.177   6.309   3.260
    1STR    H1I 6909   1.938   6.102   3.421
    1STR    H1J 6910   1.873   6.239   3.471
    1STR    H1K 6911   1.813   6.146   3.744
    1STR    H1M 6912   2.108   6.153   3.827
    1STR    H1N 6913   1.992   6.026   3.863
    1STR    H1O 6914   1.978   6.184   3.940
    1STR    H1P 6915   1.904   6.372   3.823
    1STR    H1Q 6916   2.022   6.356   3.701
    1STR    H1R 6917   1.660   6.478   3.596
    1STR    H1S 6918   1.533   6.308   3.503
    1STR    H1T 6919   1.660   6.190   3.527
    1STR    H1U 6920   1.684   6.328   3.418
    1STR    H1V 6921   1.632   6.253   3.783
    1STR    H1W 6922   1.525   6.383   3.749
    1STR    H1X 6923   1.873   6.578   3.915
    1STR    H1Y 6924   2.065   6.596   3.794
    1STR    H1Z 6925   2.150   6.565   3.567
    1STR    H20 6926   1.953   6.483   3.301
    1STR    H21 6927   1.988   6.649   3.261
    1STR    H22 6928   2.116   6.548   3.331
    1STR    H23 6929   1.796   6.611   3.296
    1STR    H27 6930   1.682   6.708   3.634
    1STR    H28 6931   2.149   5.807   3.768
    1STR    H29 6932   1.929   5.698   3.787
    1STR    H2A 6933   1.689   5.787   3.720
    1STR    H2B 6934   1.699   5.635   3.642
    1STR    H2C 6935   1.641   5.775   3.556
    1STR   BCK1 6936   1.639   5.723   5.260
    1STR    O03 6937   1.699   5.816   5.312
    1STR    N04 6938   1.584   5.713   5.137
    1STR    C05 6939   1.571   5.813   5.041
    1STR    C06 6940   1.630   5.936   5.061
    1STR    C07 6941   1.599   6.047   4.985
    1STR    N08 6942   1.615   6.164   5.050
    1STR    C09 6943   1.505   6.190   5.117
    1STR    O0A 6944   1.403   6.231   5.064
    1STR    O0B 6945   1.510   6.141   5.240
    1STR    C0C 6946   1.576   6.208   5.344
    1STR    C0D 6947   1.475   6.226   5.453
    1STR    C0E 6948   1.696   6.127   5.391
    1STR    O0F 6949   1.779   6.086   5.285
    1STR    C0G 6950   1.888   6.165   5.247
    1STR    C0H 6951   1.930   6.102   5.115
    1STR    C0I 6952   1.848   6.308   5.226
    1STR    O0J 6953   1.820   6.378   5.347
    1STR    C0K 6954   1.916   6.458   5.413
    1STR    C0M 6955   1.940   6.393   5.547
    1STR    C0N 6956   2.044   6.493   5.335
    1STR    O0O 6957   2.001   6.541   5.209
    1STR    C0P 6958   2.000   6.666   5.177
    1STR    O0Q 6959   2.074   6.753   5.219
    1STR    N0R 6960   1.913   6.687   5.080
    1STR    C0S 6961   1.806   6.610   5.039
    1STR    C0T 6962   1.776   6.605   4.903
    1STR    C0U 6963   1.655   6.553   4.861
    1STR    C0V 6964   1.560   6.505   4.951
    1STR    C0W 6965   1.422   6.472   4.899
    1STR    C0X 6966   1.591   6.503   5.087
    1STR    N0Y 6967   1.489   6.465   5.172
    1STR   BCK2 6968   1.448   6.507   5.291
    1STR    O10 6969   1.345   6.466   5.340
    1STR    C13 6970   1.715   6.555   5.130
    1STR    C14 6971   1.520   6.034   4.871
    1STR    C15 6972   1.467   5.909   4.842
    1STR    C16 6973   1.488   5.801   4.929
    1STR    C17 6974   1.409   5.678   4.904
    1STR    H1B 6975   1.531   5.630   5.117
    1STR    H1C 6976   1.688   5.953   5.147
    1STR    H1D 6977   1.688   6.153   5.120
    1STR    H1E 6978   1.605   6.306   5.312
    1STR    H1F 6979   1.473   6.139   5.518
    1STR    H1G 6980   1.497   6.316   5.510
    1STR    H1H 6981   1.375   6.238   5.413
    1STR    H1I 6982   1.658   6.035   5.434
    1STR    H1J 6983   1.753   6.179   5.468
    1STR    H1K 6984   1.968   6.161   5.321
    1STR    H1M 6985   1.849   6.064   5.055
    1STR    H1N 6986   1.996   6.020   5.136
    1STR    H1O 6987   1.980   6.172   5.050
    1STR    H1P 6988   1.914   6.354   5.157
    1STR    H1Q 6989   1.758   6.311   5.168
    1STR    H1R 6990   1.864   6.552   5.432
    1STR    H1S 6991   2.006   6.454   5.608
    1STR    H1T 6992   1.984   6.294   5.537
    1STR    H1U 6993   1.846   6.383   5.601
    1STR    H1V 6994   2.104   6.404   5.322
    1STR    H1W 6995   2.108   6.565   5.384
    1STR    H1X 6996   1.917   6.777   5.036
    1STR    H1Y 6997   1.842   6.648   4.830
    1STR    H1Z 6998   1.631   6.558   4.758
    1STR    H20 6999   1.345   6.465   4.976
    1STR    H21 7000   1.390   6.552   4.832
    1STR    H22 7001   1.426   6.379   4.844
    1STR    H23 7002   1.426   6.395   5.130
    1STR    H27 7003   1.738   6.562   5.234
    1STR    H28 7004   1.493   6.122   4.814
    1STR    H29 7005   1.402   5.897   4.758
    1STR    H2A 7006   1.352   5.652   4.991
    1STR    H2B 7007   1.475   5.600   4.868
    1STR    H2C 7008   1.336   5.696   4.826
    1STR   BCK1 7009   3.531   0.424   6.940
    1STR    O03 7010   3.652   0.408   6.927
    1STR    N04 7011   3.454   0.364   7.031
    1STR    C05 7012   3.479   0.344   7.164
    1STR    C06 7013   3.607   0.362   0.028
    1STR    C07 7014   3.619   0.403   0.161
    1STR    N08 7015   3.742   0.451   0.199
    1STR    C09 7016   3.757   0.578   0.232
    1STR    O0A 7017   3.682   0.643   0.305
    1STR    O0B 7018   3.854   0.626   0.157
    1STR    C0C 7019   3.823   0.730   0.065
    1STR    C0D 7020   3.954   0.780   0.007
    1STR    C0E 7021   3.729   0.680   7.143
    1STR    O0F 7022   3.606   0.626   0.001
    1STR    C0G 7023   3.490   0.704   0.002
    1STR    C0H 7024   3.370   0.638   0.065
    1STR    C0I 7025   3.519   0.831   0.075
    1STR    O0J 7026   3.571   0.924   7.173
    1STR    C0K 7027   3.488   0.960   7.063
    1STR    C0M 7028   3.538   0.903   6.930
    1STR    C0N 7029   3.334   0.978   7.080
    1STR    O0O 7030   3.260   0.902   7.175
    1STR    C0P 7031   3.196   0.938   0.102
    1STR    O0Q 7032   3.096   0.877   0.137
    1STR    N0R 7033   3.252   1.018   0.194
    1STR    C0S 7034   3.364   1.097   0.187
    1STR    C0T 7035   3.477   1.077   0.266
    1STR    C0U 7036   3.599   1.124   0.217
    1STR    C0V 7037   3.605   1.183   0.089
    1STR    C0W 7038   3.739   1.178   0.021
    1STR    C0X 7039   3.486   1.227   0.026
    1STR    N0Y 7040   3.482   1.273   7.084
    1STR   BCK2 7041   3.372   1.306   7.018
    1STR    O10 7042   3.278   1.364   7.071
    1STR    C13 7043   3.366   1.192   0.087
    1STR    C14 7044   3.506   0.410   0.243
    1STR    C15 7045   3.383   0.361   0.197
    1STR    C16 7046   3.370   0.328   0.061
    1STR    C17 7047   3.233   0.300   0.008
    1STR    H1B 7048   3.358   0.350   7.001
    1STR    H1C 7049   3.693   0.371   7.153
    1STR    H1D 7050   3.820   0.419   0.145
    1STR    H1E 7051   3.780   0.813   0.120
    1STR    H1F 7052   4.006   0.700   7.144
    1STR    H1G 7053   3.935   0.862   7.128
    1STR    H1H 7054   4.018   0.816   0.087
    1STR    H1I 7055   3.778   0.598   7.090
    1STR    H1J 7056   3.711   0.757   7.069
    1STR    H1K 7057   3.460   0.718   7.090
    1STR    H1M 7058   3.391   0.611   0.167
    1STR    H1N 7059   3.339   0.557   0.002
    1STR    H1O 7060   3.282   0.699   0.071
    1STR    H1P 7061   3.433   0.866   0.126
    1STR    H1Q 7062   3.584   0.815   0.159
    1STR    H1R 7063   3.528   1.056   7.044
    1STR    H1S 7064   3.496   0.961   6.848
    1STR    H1T 7065   3.514   0.799   6.913
    1STR    H1U 7066   3.646   0.915   6.926
    1STR    H1V 7067   3.294   0.951   6.984
    1STR    H1W 7068   3.298   1.079   7.079
    1STR    H1X 7069   3.214   0.999   0.285
    1STR    H1Y 7070   3.475   1.015   0.354
    1STR    H1Z 7071   3.689   1.100   0.271
    1STR    H20 7072   3.734   1.210   7.108
    1STR    H21 7073   3.811   1.237   0.078
    1STR    H22 7074   3.774   1.075   0.021
    1STR    H23 7075   3.567   1.272   7.030
    1STR    H27 7076   3.272   1.213   0.042
    1STR    H28 7077   3.512   0.451   0.343
    1STR    H29 7078   3.298   0.363   0.262
    1STR    H2A 7079   3.207   0.364   7.115
    1STR    H2B 7080   3.158   0.312   0.085
    1STR    H2C 7081   3.237   0.197   7.166
    1STR   BCK1 7082   3.500   0.390   1.535
    1STR    O03 7083   3.512   0.483   1.458
    1STR    N04 7084   3.600   0.311   1.569
    1STR    C05 7085   3.731   0.339   1.535
    1STR    C06 7086   3.779   0.465   1.557
    1STR    C07 7087   3.905   0.509   1.517
    1STR    N08 7088   3.934   0.643   1.527
    1STR    C09 7089   3.861   0.734   1.462
    1STR    O0A 7090   3.906   0.846   1.440
    1STR    O0B 7091   3.733   0.700   1.439
    1STR    C0C 7092   3.633   0.773   1.506
    1STR    C0D 7093   3.505   0.788   1.423
    1STR    C0E 7094   3.610   0.731   1.655
    1STR    O0F 7095   3.731   0.687   1.718
    1STR    C0G 7096   3.790   0.757   1.824
    1STR    C0H 7097   3.883   0.661   1.890
    1STR    C0I 7098   3.872   0.872   1.770
    1STR    O0J 7099   3.787   0.937   1.682
    1STR    C0K 7100   3.691   1.022   1.736
    1STR    C0M 7101   3.587   1.055   1.631
    1STR    C0N 7102   3.646   1.022   1.886
    1STR    O0O 7103   3.736   0.991   1.992
    1STR    C0P 7104   3.834   1.066   2.052
    1STR    O0Q 7105   3.872   1.035   2.163
    1STR    N0R 7106   3.897   1.166   1.990
    1STR    C0S 7107   3.869   1.233   1.875
    1STR    C0T 7108   3.954   1.221   1.764
    1STR    C0U 7109   3.909   1.266   1.639
    1STR    C0V 7110   3.781   1.321   1.625
    1STR    C0W 7111   3.729   1.330   1.484
    1STR    C0X 7112   3.700   1.343   1.741
    1STR    N0Y 7113   3.579   1.406   1.742
    1STR   BCK2 7114   3.454   1.377   1.777
    1STR    O10 7115   3.370   1.463   1.770
    1STR    C13 7116   3.747   1.300   1.864
    1STR    C14 7117   3.994   0.416   1.464
    1STR    C15 7118   3.949   0.284   1.445
    1STR    C16 7119   3.817   0.249   1.479
    1STR    C17 7120   3.761   0.120   1.443
    1STR    H1B 7121   3.580   0.225   1.616
    1STR    H1C 7122   3.703   0.526   1.593
    1STR    H1D 7123   3.912   0.666   1.623
    1STR    H1E 7124   3.675   0.871   1.501
    1STR    H1F 7125   3.454   0.695   1.404
    1STR    H1G 7126   3.434   0.854   1.471
    1STR    H1H 7127   3.527   0.829   1.325
    1STR    H1I 7128   3.542   0.647   1.656
    1STR    H1J 7129   3.558   0.805   1.714
    1STR    H1K 7130   3.713   0.783   1.895
    1STR    H1M 7131   3.955   0.617   1.821
    1STR    H1N 7132   3.821   0.583   1.930
    1STR    H1O 7133   3.937   0.708   1.972
    1STR    H1P 7134   3.914   0.937   1.846
    1STR    H1Q 7135   3.956   0.837   1.712
    1STR    H1R 7136   3.752   1.103   1.723
    1STR    H1S 7137   3.559   1.158   1.640
    1STR    H1T 7138   3.498   0.993   1.637
    1STR    H1U 7139   3.628   1.057   1.531
    1STR    H1V 7140   3.565   0.951   1.895
    1STR    H1W 7141   3.600   1.114   1.915
    1STR    H1X 7142   3.984   1.196   2.033
    1STR    H1Y 7143   4.049   1.172   1.775
    1STR    H1Z 7144   3.970   1.247   1.552
    1STR    H20 7145   3.775   1.254   1.421
    1STR    H21 7146   3.622   1.310   1.479
    1STR    H22 7147   3.753   1.427   1.442
    1STR    H23 7148   3.583   1.499   1.703
    1STR    H27 7149   3.687   1.314   1.951
    1STR    H28 7150   4.093   0.445   1.434
    1STR    H29 7151   4.014   0.211   1.401
    1STR    H2A 7152   3.683   0.089   1.509
    1STR    H2B 7153   3.839   0.052   1.455
    1STR    H2C 7154   3.725   0.122   1.341
    1STR   BCK1 7155   3.543   0.452   3.434
    1STR    O03 7156   3.653   0.501   3.452
    1STR    N04 7157   3.459   0.441   3.537
    1STR    C05 7158   3.320   0.437   3.542
    1STR    C06 7159   3.241   0.476   3.434
    1STR    C07 7160   3.104   0.491   3.444
    1STR    N08 7161   3.047   0.575   3.351
    1STR    C09 7162   3.074   0.706   3.359
    1STR    O0A 7163   3.046   0.784   3.269
    1STR    O0B 7164   3.134   0.737   3.477
    1STR    C0C 7165   3.250   0.815   3.486
    1STR    C0D 7166   3.272   0.835   3.634
    1STR    C0E 7167   3.373   0.758   3.418
    1STR    O0F 7168   3.344   0.758   3.280
    1STR    C0G 7169   3.446   0.716   3.195
    1STR    C0H 7170   3.370   0.651   3.082
    1STR    C0I 7171   3.536   0.823   3.139
    1STR    O0J 7172   3.588   0.904   3.242
    1STR    C0K 7173   3.498   1.006   3.282
    1STR    C0M 7174   3.567   1.063   3.405
    1STR    C0N 7175   3.479   1.100   3.166
    1STR    O0O 7176   3.365   1.090   3.079
    1STR    C0P 7177   3.258   1.006   3.083
    1STR    O0Q 7178   3.237   0.935   2.987
    1STR    N0R 7179   3.167   1.011   3.182
    1STR    C0S 7180   3.150   1.091   3.293
    1STR    C0T 7181   3.060   1.062   3.398
    1STR    C0U 7182   3.080   1.122   3.524
    1STR    C0V 7183   3.188   1.210   3.544
    1STR    C0W 7184   3.219   1.254   3.684
    1STR    C0X 7185   3.264   1.253   3.434
    1STR    N0Y 7186   3.377   1.330   3.444
    1STR   BCK2 7187   3.451   1.384   3.346
    1STR    O10 7188   3.572   1.378   3.346
    1STR    C13 7189   3.236   1.195   3.311
    1STR    C14 7190   3.040   0.463   3.565
    1STR    C15 7191   3.117   0.426   3.675
    1STR    C16 7192   3.257   0.417   3.666
    1STR    C17 7193   3.338   0.387   3.787
    1STR    H1B 7194   3.510   0.438   3.624
    1STR    H1C 7195   3.286   0.513   3.343
    1STR    H1D 7196   3.013   0.541   3.262
    1STR    H1E 7197   3.235   0.910   3.440
    1STR    H1F 7198   3.296   0.740   3.681
    1STR    H1G 7199   3.351   0.908   3.647
    1STR    H1H 7200   3.182   0.874   3.680
    1STR    H1I 7201   3.398   0.662   3.455
    1STR    H1J 7202   3.461   0.816   3.439
    1STR    H1K 7203   3.514   0.650   3.245
    1STR    H1M 7204   3.278   0.703   3.060
    1STR    H1N 7205   3.343   0.548   3.103
    1STR    H1O 7206   3.428   0.655   2.991
    1STR    H1P 7207   3.620   0.775   3.090
    1STR    H1Q 7208   3.486   0.877   3.059
    1STR    H1R 7209   3.399   0.975   3.311
    1STR    H1S 7210   3.495   1.116   3.467
    1STR    H1T 7211   3.646   1.132   3.379
    1STR    H1U 7212   3.608   0.984   3.468
    1STR    H1V 7213   3.566   1.087   3.105
    1STR    H1W 7214   3.490   1.202   3.196
    1STR    H1X 7215   3.107   0.928   3.178
    1STR    H1Y 7216   2.986   0.984   3.388
    1STR    H1Z 7217   3.019   1.093   3.608
    1STR    H20 7218   3.306   1.318   3.690
    1STR    H21 7219   3.133   1.310   3.720
    1STR    H22 7220   3.234   1.168   3.748
    1STR    H23 7221   3.424   1.325   3.534
    1STR    H27 7222   3.285   1.227   3.224
    1STR    H28 7223   2.934   0.480   3.573
    1STR    H29 7224   3.067   0.408   3.769
    1STR    H2A 7225   3.274   0.369   3.873
    1STR    H2B 7226   3.405   0.471   3.808
    1STR    H2C 7227   3.395   0.297   3.764
    1STR   BCK1 7228   3.570   0.526   5.130
    1STR    O03 7229   3.685   0.510   5.091
    1STR    N04 7230   3.517   0.474   5.241
    1STR    C05 7231   3.573   0.423   5.356
    1STR    C06 7232   3.712   0.416   5.377
    1STR    C07 7233   3.761   0.429   5.509
    1STR    N08 7234   3.889   0.475   5.534
    1STR    C09 7235   3.912   0.604   5.517
    1STR    O0A 7236   3.946   0.680   5.607
    1STR    O0B 7237   3.900   0.639   5.390
    1STR    C0C 7238   3.827   0.756   5.360
    1STR    C0D 7239   3.851   0.789   5.213
    1STR    C0E 7240   3.680   0.721   5.384
    1STR    O0F 7241   3.648   0.672   5.514
    1STR    C0G 7242   3.566   0.752   5.593
    1STR    C0H 7243   3.494   0.682   5.705
    1STR    C0I 7244   3.653   0.865   5.647
    1STR    O0J 7245   3.697   0.940   5.537
    1STR    C0K 7246   3.605   1.020   5.468
    1STR    C0M 7247   3.650   1.029   5.322
    1STR    C0N 7248   3.451   1.017   5.492
    1STR    O0O 7249   3.411   0.995   5.626
    1STR    C0P 7250   3.345   1.082   5.698
    1STR    O0Q 7251   3.239   1.057   5.754
    1STR    N0R 7252   3.403   1.200   5.716
    1STR    C0S 7253   3.512   1.257   5.657
    1STR    C0T 7254   3.638   1.252   5.717
    1STR    C0U 7255   3.750   1.293   5.644
    1STR    C0V 7256   3.735   1.327   5.508
    1STR    C0W 7257   3.859   1.340   5.428
    1STR    C0X 7258   3.607   1.336   5.448
    1STR    N0Y 7259   3.596   1.353   5.311
    1STR   BCK2 7260   3.497   1.313   5.230
    1STR    O10 7261   3.387   1.273   5.264
    1STR    C13 7262   3.497   1.309   5.529
    1STR    C14 7263   3.672   0.426   5.615
    1STR    C15 7264   3.535   0.407   5.594
    1STR    C16 7265   3.485   0.411   5.464
    1STR    C17 7266   3.336   0.413   5.442
    1STR    H1B 7267   3.417   0.486   5.247
    1STR    H1C 7268   3.777   0.431   5.294
    1STR    H1D 7269   3.957   0.425   5.475
    1STR    H1E 7270   3.861   0.836   5.424
    1STR    H1F 7271   3.861   0.698   5.154
    1STR    H1G 7272   3.769   0.846   5.169
    1STR    H1H 7273   3.939   0.851   5.201
    1STR    H1I 7274   3.666   0.645   5.313
    1STR    H1J 7275   3.604   0.788   5.352
    1STR    H1K 7276   3.484   0.779   5.530
    1STR    H1M 7277   3.562   0.623   5.765
    1STR    H1N 7278   3.415   0.619   5.663
    1STR    H1O 7279   3.443   0.754   5.768
    1STR    H1P 7280   3.605   0.926   5.722
    1STR    H1Q 7281   3.741   0.821   5.693
    1STR    H1R 7282   3.641   1.107   5.513
    1STR    H1S 7283   3.620   1.119   5.278
    1STR    H1T 7284   3.607   0.956   5.256
    1STR    H1U 7285   3.758   1.027   5.317
    1STR    H1V 7286   3.408   0.934   5.442
    1STR    H1W 7287   3.399   1.100   5.449
    1STR    H1X 7288   3.360   1.252   5.793
    1STR    H1Y 7289   3.649   1.214   5.817
    1STR    H1Z 7290   3.848   1.287   5.688
    1STR    H20 7291   3.877   1.244   5.380
    1STR    H21 7292   3.847   1.419   5.355
    1STR    H22 7293   3.944   1.364   5.491
    1STR    H23 7294   3.674   1.399   5.268
    1STR    H27 7295   3.398   1.309   5.489
    1STR    H28 7296   3.709   0.446   5.714
    1STR    H29 7297   3.469   0.407   5.678
    1STR    H2A 7298   3.310   0.506   5.394
    1STR    H2B 7299   3.283   0.410   5.537
    1STR    H2C 7300   3.307   0.331   5.377
    1STR   BCK1 7301   3.586   2.227   7.065
    1STR    O03 7302   3.532   2.221   6.955
    1STR    N04 7303   3.718   2.206   7.078
    1STR    C05 7304   3.790   2.190   6.959
    1STR    C06 7305   3.800   2.304   6.879
    1STR    C07 7306   3.737   2.302   6.754
    1STR    N08 7307   3.639   2.401   6.742
    1STR    C09 7308   3.512   2.371   6.717
    1STR    O0A 7309   3.476   2.286   6.636
    1STR    O0B 7310   3.419   2.439   6.788
    1STR    C0C 7311   3.439   2.562   6.857
    1STR    C0D 7312   3.299   2.622   6.866
    1STR    C0E 7313   3.487   2.548   7.001
    1STR    O0F 7314   3.613   2.486   7.014
    1STR    C0G 7315   3.709   2.561   7.084
    1STR    C0H 7316   3.815   2.487   7.165
    1STR    C0I 7317   3.769   2.639   6.972
    1STR    O0J 7318   3.689   2.750   6.946
    1STR    C0K 7319   3.693   2.851   7.045
    1STR    C0M 7320   3.578   2.855   7.146
    1STR    C0N 7321   3.831   2.901   7.090
    1STR    O0O 7322   3.952   2.854   7.027
    1STR    C0P 7323   3.984   2.869   6.896
    1STR    O0Q 7324   4.100   2.883   6.861
    1STR    N0R 7325   3.881   2.864   6.811
    1STR    C0S 7326   3.847   2.967   6.725
    1STR    C0T 7327   3.947   3.059   6.694
    1STR    C0U 7328   3.950   3.177   6.770
    1STR    C0V 7329   3.847   3.199   6.863
    1STR    C0W 7330   3.884   3.270   6.988
    1STR    C0X 7331   3.725   3.130   6.851
    1STR    N0Y 7332   3.626   3.156   6.944
    1STR   BCK2 7333   3.502   3.111   6.964
    1STR    O10 7334   3.449   3.135   7.071
    1STR    C13 7335   3.723   3.017   6.767
    1STR    C14 7336   3.735   2.180   6.684
    1STR    C15 7337   3.764   2.061   6.754
    1STR    C16 7338   3.777   2.067   6.894
    1STR    C17 7339   3.738   1.951   6.976
    1STR    H1B 7340   3.759   2.201   7.169
    1STR    H1C 7341   3.803   2.394   6.931
    1STR    H1D 7342   3.642   2.463   6.822
    1STR    H1E 7343   3.505   2.628   6.801
    1STR    H1F 7344   3.231   2.555   6.920
    1STR    H1G 7345   3.300   2.717   6.919
    1STR    H1H 7346   3.256   2.640   6.768
    1STR    H1I 7347   3.417   2.494   7.060
    1STR    H1J 7348   3.485   2.645   7.046
    1STR    H1K 7349   3.661   2.620   7.160
    1STR    H1M 7350   3.889   2.433   7.106
    1STR    H1N 7351   3.769   2.419   0.046
    1STR    H1O 7352   3.871   2.561   0.032
    1STR    H1P 7353   3.874   2.653   6.990
    1STR    H1Q 7354   3.769   2.585   6.877
    1STR    H1R 7355   3.658   2.927   6.982
    1STR    H1S 7356   3.568   2.954   7.188
    1STR    H1T 7357   3.587   2.789   0.042
    1STR    H1U 7358   3.482   2.841   7.098
    1STR    H1V 7359   3.841   2.879   0.006
    1STR    H1W 7360   3.830   3.009   7.082
    1STR    H1X 7361   3.800   2.820   6.856
    1STR    H1Y 7362   4.038   3.028   6.646
    1STR    H1Z 7363   4.039   3.237   6.771
    1STR    H20 7364   3.800   3.312   7.042
    1STR    H21 7365   3.932   3.199   7.053
    1STR    H22 7366   3.957   3.346   6.965
    1STR    H23 7367   3.647   3.231   7.009
    1STR    H27 7368   3.638   2.951   6.768
    1STR    H28 7369   3.692   2.172   6.586
    1STR    H29 7370   3.750   1.967   6.706
    1STR    H2A 7371   3.639   1.970   7.017
    1STR    H2B 7372   3.802   1.942   7.062
    1STR    H2C 7373   3.738   1.863   6.914
    1STR   BCK1 7374   3.597   2.233   1.663
    1STR    O03 7375   3.693   2.298   1.701
    1STR    N04 7376   3.500   2.180   1.737
    1STR    C05 7377   3.463   2.197   1.868
    1STR    C06 7378   3.529   2.284   1.954
    1STR    C07 7379   3.474   2.312   2.080
    1STR    N08 7380   3.527   2.418   2.147
    1STR    C09 7381   3.472   2.527   2.097
    1STR    O0A 7382   3.353   2.555   2.104
    1STR    O0B 7383   3.561   2.577   2.014
    1STR    C0C 7384   3.519   2.651   1.903
    1STR    C0D 7385   3.627   2.754   1.895
    1STR    C0E 7386   3.518   2.568   1.773
    1STR    O0F 7387   3.422   2.464   1.773
    1STR    C0G 7388   3.308   2.480   1.690
    1STR    C0H 7389   3.282   2.357   1.610
    1STR    C0I 7390   3.185   2.498   1.777
    1STR    O0J 7391   3.186   2.619   1.847
    1STR    C0K 7392   3.148   2.734   1.776
    1STR    C0M 7393   3.244   2.771   1.666
    1STR    C0N 7394   3.002   2.749   1.730
    1STR    O0O 7395   2.938   2.846   1.812
    1STR    C0P 7396   2.961   2.972   1.779
    1STR    O0Q 7397   2.926   3.023   1.673
    1STR    N0R 7398   3.047   3.025   1.866
    1STR    C0S 7399   3.176   3.056   1.827
    1STR    C0T 7400   3.280   3.017   1.913
    1STR    C0U 7401   3.411   3.008   1.865
    1STR    C0V 7402   3.437   3.033   1.730
    1STR    C0W 7403   3.571   3.001   1.670
    1STR    C0X 7404   3.337   3.088   1.648
    1STR    N0Y 7405   3.368   3.103   1.516
    1STR   BCK2 7406   3.311   3.048   1.410
    1STR    O10 7407   3.364   3.057   1.301
    1STR    C13 7408   3.207   3.107   1.699
    1STR    C14 7409   3.357   2.248   2.124
    1STR    C15 7410   3.293   2.158   2.039
    1STR    C16 7411   3.345   2.135   1.911
    1STR    C17 7412   3.268   2.048   1.818
    1STR    H1B 7413   3.423   2.143   1.684
    1STR    H1C 7414   3.615   2.338   1.919
    1STR    H1D 7415   3.626   2.424   2.132
    1STR    H1E 7416   3.422   2.698   1.919
    1STR    H1F 7417   3.724   2.712   1.870
    1STR    H1G 7418   3.601   2.819   1.816
    1STR    H1H 7419   3.633   2.812   1.988
    1STR    H1I 7420   3.615   2.521   1.762
    1STR    H1J 7421   3.509   2.632   1.685
    1STR    H1K 7422   3.326   2.553   1.614
    1STR    H1M 7423   3.271   2.273   1.677
    1STR    H1N 7424   3.358   2.342   1.535
    1STR    H1O 7425   3.187   2.366   1.559
    1STR    H1P 7426   3.093   2.487   1.719
    1STR    H1Q 7427   3.185   2.419   1.851
    1STR    H1R 7428   3.166   2.803   1.857
    1STR    H1S 7429   3.224   2.872   1.643
    1STR    H1T 7430   3.227   2.720   1.572
    1STR    H1U 7431   3.348   2.768   1.698
    1STR    H1V 7432   2.947   2.655   1.731
    1STR    H1W 7433   2.998   2.781   1.626
    1STR    H1X 7434   3.039   2.980   1.955
    1STR    H1Y 7435   3.263   2.985   2.014
    1STR    H1Z 7436   3.488   2.978   1.933
    1STR    H20 7437   3.567   2.904   1.621
    1STR    H21 7438   3.601   3.073   1.595
    1STR    H22 7439   3.646   3.003   1.748
    1STR    H23 7440   3.457   3.152   1.497
    1STR    H27 7441   3.130   3.142   1.633
    1STR    H28 7442   3.313   2.276   2.219
    1STR    H29 7443   3.200   2.112   2.069
    1STR    H2A 7444   3.184   2.100   1.773
    1STR    H2B 7445   3.230   1.966   1.875
    1STR    H2C 7446   3.330   2.003   1.742
    1STR   BCK1 7447   3.505   2.352   3.276
    1STR    O03 7448   3.593   2.367   3.192
    1STR    N04 7449   3.514   2.284   3.390
    1STR    C05 7450   3.624   2.228   3.451
    1STR    C06 7451   3.751   2.232   3.393
    1STR    C07 7452   3.864   2.243   3.476
    1STR    N08 7453   3.970   2.316   3.422
    1STR    C09 7454   4.033   2.413   3.488
    1STR    O0A 7455   4.081   2.399   3.599
    1STR    O0B 7456   4.030   2.533   3.426
    1STR    C0C 7457   3.911   2.588   3.367
    1STR    C0D 7458   3.923   2.584   3.214
    1STR    C0E 7459   3.782   2.519   3.411
    1STR    O0F 7460   3.778   2.476   3.548
    1STR    C0G 7461   3.680   2.531   3.629
    1STR    C0H 7462   3.674   2.459   3.763
    1STR    C0I 7463   3.731   2.671   3.646
    1STR    O0J 7464   3.721   2.743   3.525
    1STR    C0K 7465   3.600   2.751   3.450
    1STR    C0M 7466   3.611   2.747   3.297
    1STR    C0N 7467   3.461   2.734   3.511
    1STR    O0O 7468   3.446   2.703   3.649
    1STR    C0P 7469   3.449   2.783   3.757
    1STR    O0Q 7470   3.395   2.749   3.860
    1STR    N0R 7471   3.520   2.894   3.761
    1STR    C0S 7472   3.586   2.967   3.665
    1STR    C0T 7473   3.724   2.977   3.674
    1STR    C0U 7474   3.793   3.024   3.564
    1STR    C0V 7475   3.725   3.065   3.448
    1STR    C0W 7476   3.803   3.075   3.322
    1STR    C0X 7477   3.585   3.072   3.446
    1STR    N0Y 7478   3.524   3.066   3.320
    1STR   BCK2 7479   3.403   3.025   3.286
    1STR    O10 7480   3.308   3.021   3.362
    1STR    C13 7481   3.516   3.030   3.560
    1STR    C14 7482   3.853   2.199   3.609
    1STR    C15 7483   3.729   2.154   3.656
    1STR    C16 7484   3.612   2.177   3.581
    1STR    C17 7485   3.478   2.151   3.644
    1STR    H1B 7486   3.427   2.268   3.440
    1STR    H1C 7487   3.764   2.252   3.288
    1STR    H1D 7488   3.971   2.325   3.321
    1STR    H1E 7489   3.909   2.692   3.398
    1STR    H1F 7490   3.920   2.482   3.178
    1STR    H1G 7491   3.841   2.635   3.165
    1STR    H1H 7492   4.017   2.628   3.181
    1STR    H1I 7493   3.776   2.445   3.337
    1STR    H1J 7494   3.685   2.548   3.383
    1STR    H1K 7495   3.583   2.522   3.582
    1STR    H1M 7496   3.772   2.428   3.796
    1STR    H1N 7497   3.613   2.370   3.754
    1STR    H1O 7498   3.626   2.521   3.839
    1STR    H1P 7499   3.684   2.719   3.730
    1STR    H1Q 7500   3.836   2.668   3.672
    1STR    H1R 7501   3.614   2.851   3.449
    1STR    H1S 7502   3.549   2.821   3.252
    1STR    H1T 7503   3.580   2.654   3.251
    1STR    H1U 7504   3.712   2.772   3.267
    1STR    H1V 7505   3.419   2.650   3.459
    1STR    H1W 7506   3.397   2.818   3.485
    1STR    H1X 7507   3.521   2.936   3.853
    1STR    H1Y 7508   3.779   2.938   3.758
    1STR    H1Z 7509   3.900   3.014   3.567
    1STR    H20 7510   3.903   3.037   3.336
    1STR    H21 7511   3.759   3.014   3.243
    1STR    H22 7512   3.803   3.180   3.295
    1STR    H23 7513   3.584   3.083   3.240
    1STR    H27 7514   3.410   3.020   3.561
    1STR    H28 7515   3.940   2.198   3.672
    1STR    H29 7516   3.722   2.110   3.752
    1STR    H2A 7517   3.424   2.244   3.658
    1STR    H2B 7518   3.490   2.102   3.741
    1STR    H2C 7519   3.420   2.085   3.580
    1STR   BCK1 7520   3.604   2.139   5.216
    1STR    O03 7521   3.713   2.084   5.209
    1STR    N04 7522   3.574   2.232   5.128
    1STR    C05 7523   3.473   2.322   5.120
    1STR    C06 7524   3.415   2.373   5.235
    1STR    C07 7525   3.294   2.444   5.229
    1STR    N08 7526   3.234   2.495   5.341
    1STR    C09 7527   3.298   2.582   5.419
    1STR    O0A 7528   3.236   2.667   5.480
    1STR    O0B 7529   3.428   2.556   5.430
    1STR    C0C 7530   3.526   2.657   5.425
    1STR    C0D 7531   3.520   2.744   5.551
    1STR    C0E 7532   3.664   2.591   5.406
    1STR    O0F 7533   3.670   2.489   5.308
    1STR    C0G 7534   3.771   2.514   5.210
    1STR    C0H 7535   3.828   2.390   5.147
    1STR    C0I 7536   3.710   2.602   5.103
    1STR    O0J 7537   3.759   2.726   5.142
    1STR    C0K 7538   3.663   2.826   5.141
    1STR    C0M 7539   3.715   2.907   5.257
    1STR    C0N 7540   3.675   2.897   5.008
    1STR    O0O 7541   3.640   2.820   4.893
    1STR    C0P 7542   3.521   2.783   4.834
    1STR    O0Q 7543   3.526   2.738   4.722
    1STR    N0R 7544   3.399   2.789   4.889
    1STR    C0S 7545   3.346   2.837   5.006
    1STR    C0T 7546   3.242   2.774   5.073
    1STR    C0U 7547   3.199   2.819   5.199
    1STR    C0V 7548   3.263   2.928   5.259
    1STR    C0W 7549   3.219   2.977   5.395
    1STR    C0X 7550   3.361   2.997   5.188
    1STR    N0Y 7551   3.440   3.093   5.246
    1STR   BCK2 7552   3.511   3.182   5.178
    1STR    O10 7553   3.627   3.208   5.199
    1STR    C13 7554   3.390   2.957   5.057
    1STR    C14 7555   3.234   2.464   5.105
    1STR    C15 7556   3.300   2.425   4.989
    1STR    C16 7557   3.420   2.355   4.994
    1STR    C17 7558   3.488   2.318   4.866
    1STR    H1B 7559   3.644   2.246   5.057
    1STR    H1C 7560   3.463   2.354   5.329
    1STR    H1D 7561   3.193   2.428   5.409
    1STR    H1E 7562   3.502   2.717   5.339
    1STR    H1F 7563   3.511   2.684   5.641
    1STR    H1G 7564   3.609   2.806   5.560
    1STR    H1H 7565   3.434   2.810   5.547
    1STR    H1I 7566   3.700   2.548   5.497
    1STR    H1J 7567   3.740   2.667   5.391
    1STR    H1K 7568   3.858   2.560   5.256
    1STR    H1M 7569   3.764   2.361   5.065
    1STR    H1N 7570   3.842   2.309   5.218
    1STR    H1O 7571   3.923   2.413   5.100
    1STR    H1P 7572   3.746   2.582   5.003
    1STR    H1Q 7573   3.601   2.591   5.100
    1STR    H1R 7574   3.561   2.792   5.159
    1STR    H1S 7575   3.659   2.996   5.266
    1STR    H1T 7576   3.819   2.934   5.242
    1STR    H1U 7577   3.702   2.859   5.352
    1STR    H1V 7578   3.781   2.915   4.997
    1STR    H1W 7579   3.640   2.999   5.010
    1STR    H1X 7580   3.337   2.734   4.827
    1STR    H1Y 7581   3.197   2.691   5.023
    1STR    H1Z 7582   3.121   2.767   5.252
    1STR    H20 7583   3.301   3.024   5.449
    1STR    H21 7584   3.179   2.896   5.455
    1STR    H22 7585   3.140   3.050   5.380
    1STR    H23 7586   3.475   3.075   5.341
    1STR    H27 7587   3.452   3.014   4.991
    1STR    H28 7588   3.141   2.517   5.098
    1STR    H29 7589   3.260   2.447   4.892
    1STR    H2A 7590   3.594   2.300   4.880
    1STR    H2B 7591   3.480   2.402   4.796
    1STR    H2C 7592   3.440   2.231   4.822
    1STR   BCK1 7593   3.513   4.049   6.939
    1STR    O03 7594   3.625   4.077   6.900
    1STR    N04 7595   3.484   3.974   7.046
    1STR    C05 7596   3.552   3.968   7.166
    1STR    C06 7597   3.686   4.007   7.179
    1STR    C07 7598   3.743   4.035   0.113
    1STR    N08 7599   3.870   4.088   0.115
    1STR    C09 7600   3.890   4.201   0.182
    1STR    O0A 7601   3.900   4.208   0.304
    1STR    O0B 7602   3.868   4.302   0.100
    1STR    C0C 7603   3.753   4.381   0.127
    1STR    C0D 7604   3.798   4.526   0.112
    1STR    C0E 7605   3.640   4.340   0.032
    1STR    O0F 7606   3.519   4.310   0.106
    1STR    C0G 7607   3.409   4.277   0.022
    1STR    C0H 7608   3.294   4.215   0.101
    1STR    C0I 7609   3.355   4.394   7.129
    1STR    O0J 7610   3.259   4.469   0.011
    1STR    C0K 7611   3.297   4.527   0.134
    1STR    C0M 7612   3.430   4.599   0.121
    1STR    C0N 7613   3.179   4.616   0.167
    1STR    O0O 7614   3.214   4.705   0.270
    1STR    C0P 7615   3.216   4.829   0.235
    1STR    O0Q 7616   3.135   4.882   0.159
    1STR    N0R 7617   3.333   4.881   0.268
    1STR    C0S 7618   3.431   4.905   0.173
    1STR    C0T 7619   3.564   4.911   0.215
    1STR    C0U 7620   3.668   4.895   0.123
    1STR    C0V 7621   3.638   4.872   7.177
    1STR    C0W 7622   3.751   4.848   7.081
    1STR    C0X 7623   3.506   4.871   7.133
    1STR    N0Y 7624   3.483   4.829   7.003
    1STR   BCK2 7625   3.389   4.759   6.943
    1STR    O10 7626   3.408   4.719   6.829
    1STR    C13 7627   3.404   4.895   0.035
    1STR    C14 7628   3.662   4.033   0.227
    1STR    C15 7629   3.528   3.994   0.215
    1STR    C16 7630   3.476   3.952   0.092
    1STR    C17 7631   3.334   3.906   0.086
    1STR    H1B 7632   3.386   3.942   7.050
    1STR    H1C 7633   3.741   4.030   7.091
    1STR    H1D 7634   3.916   4.085   0.024
    1STR    H1E 7635   3.720   4.365   0.230
    1STR    H1F 7636   3.829   4.545   0.009
    1STR    H1G 7637   3.719   4.595   0.139
    1STR    H1H 7638   3.884   4.543   0.176
    1STR    H1I 7639   3.669   4.254   7.163
    1STR    H1J 7640   3.626   4.419   7.149
    1STR    H1K 7641   3.446   4.204   7.142
    1STR    H1M 7642   3.230   4.284   0.152
    1STR    H1N 7643   3.329   4.147   0.177
    1STR    H1O 7644   3.226   4.166   0.032
    1STR    H1P 7645   3.432   4.457   7.086
    1STR    H1Q 7646   3.302   4.352   7.044
    1STR    H1R 7647   3.312   4.457   0.216
    1STR    H1S 7648   3.450   4.660   0.208
    1STR    H1T 7649   3.434   4.651   0.028
    1STR    H1U 7650   3.513   4.532   0.122
    1STR    H1V 7651   3.090   4.562   0.196
    1STR    H1W 7652   3.147   4.665   0.075
    1STR    H1X 7653   3.362   4.842   0.356
    1STR    H1Y 7654   3.587   4.928   0.319
    1STR    H1Z 7655   3.771   4.902   0.154
    1STR    H20 7656   3.733   4.894   6.984
    1STR    H21 7657   3.839   4.896   7.121
    1STR    H22 7658   3.768   4.742   7.067
    1STR    H23 7659   3.559   4.855   6.940
    1STR    H27 7660   3.303   4.887   0.003
    1STR    H28 7661   3.701   4.064   0.322
    1STR    H29 7662   3.464   4.001   0.299
    1STR    H2A 7663   3.273   3.970   0.025
    1STR    H2B 7664   3.288   3.897   0.184
    1STR    H2C 7665   3.335   3.812   0.036
    1STR   BCK1 7666   3.508   3.879   1.681
    1STR    O03 7667   3.511   3.944   1.784
    1STR    N04 7668   3.607   3.864   1.594
    1STR    C05 7669   3.704   3.959   1.571
    1STR    C06 7670   3.672   4.091   1.590
    1STR    C07 7671   3.749   4.195   1.540
    1STR    N08 7672   3.681   4.313   1.532
    1STR    C09 7673   3.587   4.312   1.437
    1STR    O0A 7674   3.599   4.256   1.329
    1STR    O0B 7675   3.472   4.371   1.469
    1STR    C0C 7676   3.445   4.444   1.587
    1STR    C0D 7677   3.318   4.515   1.548
    1STR    C0E 7678   3.416   4.358   1.712
    1STR    O0F 7679   3.525   4.277   1.748
    1STR    C0G 7680   3.590   4.304   1.869
    1STR    C0H 7681   3.682   4.188   1.903
    1STR    C0I 7682   3.677   4.423   1.844
    1STR    O0J 7683   3.750   4.447   1.960
    1STR    C0K 7684   3.775   4.583   1.979
    1STR    C0M 7685   3.651   4.639   2.045
    1STR    C0N 7686   3.907   4.591   2.054
    1STR    O0O 7687   4.009   4.543   1.967
    1STR    C0P 7688   4.056   4.627   1.876
    1STR    O0Q 7689   4.073   4.747   1.897
    1STR    N0R 7690   4.054   4.571   1.755
    1STR    C0S 7691   3.998   4.646   1.655
    1STR    C0T 7692   4.067   4.751   1.593
    1STR    C0U 7693   3.994   4.858   1.541
    1STR    C0V 7694   3.855   4.865   1.565
    1STR    C0W 7695   3.782   4.990   1.544
    1STR    C0X 7696   3.786   4.758   1.622
    1STR    N0Y 7697   3.670   4.774   1.694
    1STR   BCK2 7698   3.541   4.789   1.671
    1STR    O10 7699   3.464   4.783   1.766
    1STR    C13 7700   3.858   4.643   1.651
    1STR    C14 7701   3.871   4.168   1.476
    1STR    C15 7702   3.907   4.033   1.457
    1STR    C16 7703   3.820   3.931   1.499
    1STR    C17 7704   3.838   3.795   1.447
    1STR    H1B 7705   3.594   3.798   1.519
    1STR    H1C 7706   3.574   4.110   1.627
    1STR    H1D 7707   3.640   4.334   1.622
    1STR    H1E 7708   3.525   4.516   1.606
    1STR    H1F 7709   3.241   4.443   1.519
    1STR    H1G 7710   3.281   4.572   1.633
    1STR    H1H 7711   3.336   4.580   1.463
    1STR    H1I 7712   3.334   4.290   1.690
    1STR    H1J 7713   3.385   4.421   1.795
    1STR    H1K 7714   3.519   4.320   1.950
    1STR    H1M 7715   3.760   4.175   1.828
    1STR    H1N 7716   3.626   4.096   1.909
    1STR    H1O 7717   3.731   4.203   1.999
    1STR    H1P 7718   3.748   4.395   1.767
    1STR    H1Q 7719   3.617   4.508   1.811
    1STR    H1R 7720   3.787   4.640   1.888
    1STR    H1S 7721   3.561   4.621   1.987
    1STR    H1T 7722   3.661   4.746   2.049
    1STR    H1U 7723   3.635   4.594   2.143
    1STR    H1V 7724   3.903   4.527   2.142
    1STR    H1W 7725   3.924   4.694   2.085
    1STR    H1X 7726   4.042   4.471   1.759
    1STR    H1Y 7727   4.175   4.754   1.597
    1STR    H1Z 7728   4.046   4.942   1.499
    1STR    H20 7729   3.842   5.066   1.498
    1STR    H21 7730   3.695   4.971   1.482
    1STR    H22 7731   3.750   5.023   1.642
    1STR    H23 7732   3.686   4.802   1.792
    1STR    H27 7733   3.808   4.564   1.698
    1STR    H28 7734   3.932   4.244   1.431
    1STR    H29 7735   3.995   4.011   1.399
    1STR    H2A 7736   3.796   3.723   1.516
    1STR    H2B 7737   3.943   3.775   1.435
    1STR    H2C 7738   3.787   3.793   1.352
    1STR   BCK1 7739   3.571   3.989   3.470
    1STR    O03 7740   3.690   4.014   3.475
    1STR    N04 7741   3.500   3.987   3.581
    1STR    C05 7742   3.364   4.002   3.609
    1STR    C06 7743   3.267   4.025   3.512
    1STR    C07 7744   3.136   4.062   3.546
    1STR    N08 7745   3.077   4.152   3.462
    1STR    C09 7746   3.123   4.278   3.469
    1STR    O0A 7747   3.097   4.359   3.382
    1STR    O0B 7748   3.198   4.301   3.581
    1STR    C0C 7749   3.316   4.378   3.582
    1STR    C0D 7750   3.350   4.398   3.729
    1STR    C0E 7751   3.434   4.312   3.508
    1STR    O0F 7752   3.389   4.246   3.391
    1STR    C0G 7753   3.439   4.283   3.265
    1STR    C0H 7754   3.375   4.196   3.161
    1STR    C0I 7755   3.399   4.417   3.226
    1STR    O0J 7756   3.475   4.502   3.303
    1STR    C0K 7757   3.396   4.608   3.338
    1STR    C0M 7758   3.481   4.662   3.452
    1STR    C0N 7759   3.367   4.687   3.209
    1STR    O0O 7760   3.268   4.636   3.117
    1STR    C0P 7761   3.141   4.587   3.139
    1STR    O0Q 7762   3.089   4.514   3.055
    1STR    N0R 7763   3.070   4.607   3.250
    1STR    C0S 7764   3.085   4.689   3.359
    1STR    C0T 7765   3.066   4.640   3.488
    1STR    C0U 7766   3.118   4.711   3.597
    1STR    C0V 7767   3.192   4.827   3.573
    1STR    C0W 7768   3.256   4.890   3.690
    1STR    C0X 7769   3.207   4.879   3.443
    1STR    N0Y 7770   3.286   4.986   3.405
    1STR   BCK2 7771   3.400   4.976   3.334
    1STR    O10 7772   3.500   4.915   3.365
    1STR    C13 7773   3.137   4.817   3.340
    1STR    C14 7774   3.097   4.062   3.680
    1STR    C15 7775   3.195   4.048   3.779
    1STR    C16 7776   3.328   4.022   3.743
    1STR    C17 7777   3.433   4.022   3.849
    1STR    H1B 7778   3.560   3.988   3.662
    1STR    H1C 7779   3.292   4.040   3.409
    1STR    H1D 7780   3.032   4.124   3.377
    1STR    H1E 7781   3.289   4.474   3.541
    1STR    H1F 7782   3.380   4.304   3.775
    1STR    H1G 7783   3.430   4.471   3.740
    1STR    H1H 7784   3.263   4.435   3.783
    1STR    H1I 7785   3.477   4.236   3.571
    1STR    H1J 7786   3.516   4.380   3.491
    1STR    H1K 7787   3.546   4.281   3.264
    1STR    H1M 7788   3.285   4.148   3.198
    1STR    H1N 7789   3.448   4.125   3.132
    1STR    H1O 7790   3.349   4.249   3.070
    1STR    H1P 7791   3.419   4.440   3.121
    1STR    H1Q 7792   3.291   4.420   3.243
    1STR    H1R 7793   3.302   4.580   3.380
    1STR    H1S 7794   3.431   4.743   3.505
    1STR    H1T 7795   3.577   4.696   3.414
    1STR    H1U 7796   3.501   4.589   3.529
    1STR    H1V 7797   3.460   4.698   3.155
    1STR    H1W 7798   3.338   4.785   3.225
    1STR    H1X 7799   3.003   4.533   3.259
    1STR    H1Y 7800   3.021   4.544   3.507
    1STR    H1Z 7801   3.108   4.672   3.696
    1STR    H20 7802   3.353   4.845   3.708
    1STR    H21 7803   3.267   4.995   3.669
    1STR    H22 7804   3.194   4.881   3.779
    1STR    H23 7805   3.222   5.065   3.379
    1STR    H27 7806   3.140   4.854   3.240
    1STR    H28 7807   2.998   4.095   3.706
    1STR    H29 7808   3.167   4.060   3.881
    1STR    H2A 7809   3.461   3.919   3.858
    1STR    H2B 7810   3.394   4.057   3.944
    1STR    H2C 7811   3.519   4.083   3.822
    1STR   BCK1 7812   3.491   4.147   5.195
    1STR    O03 7813   3.588   4.153   5.120
    1STR    N04 7814   3.480   4.076   5.307
    1STR    C05 7815   3.574   4.013   5.386
    1STR    C06 7816   3.709   4.006   5.348
    1STR    C07 7817   3.806   3.996   5.447
    1STR    N08 7818   3.929   4.049   5.417
    1STR    C09 7819   3.988   4.153   5.473
    1STR    O0A 7820   3.984   4.183   5.592
    1STR    O0B 7821   4.032   4.230   5.374
    1STR    C0C 7822   3.952   4.339   5.329
    1STR    C0D 7823   4.004   4.383   5.192
    1STR    C0E 7824   3.803   4.302   5.317
    1STR    O0F 7825   3.749   4.256   5.440
    1STR    C0G 7826   3.677   4.335   5.529
    1STR    C0H 7827   3.657   4.260   5.658
    1STR    C0I 7828   3.742   4.469   5.558
    1STR    O0J 7829   3.764   4.532   5.437
    1STR    C0K 7830   3.658   4.600   5.378
    1STR    C0M 7831   3.703   4.622   5.233
    1STR    C0N 7832   3.512   4.549   5.385
    1STR    O0O 7833   3.449   4.508   5.506
    1STR    C0P 7834   3.416   4.567   5.622
    1STR    O0Q 7835   3.345   4.505   5.697
    1STR    N0R 7836   3.454   4.688   5.664
    1STR    C0S 7837   3.500   4.793   5.593
    1STR    C0T 7838   3.623   4.853   5.624
    1STR    C0U 7839   3.689   4.919   5.520
    1STR    C0V 7840   3.636   4.913   5.390
    1STR    C0W 7841   3.734   4.938   5.280
    1STR    C0X 7842   3.505   4.862   5.366
    1STR    N0Y 7843   3.455   4.835   5.238
    1STR   BCK2 7844   3.333   4.794   5.200
    1STR    O10 7845   3.239   4.773   5.275
    1STR    C13 7846   3.432   4.821   5.477
    1STR    C14 7847   3.770   3.965   5.576
    1STR    C15 7848   3.637   3.936   5.607
    1STR    C16 7849   3.537   3.964   5.512
    1STR    C17 7850   3.393   3.948   5.553
    1STR    H1B 7851   3.387   4.058   5.340
    1STR    H1C 7852   3.738   4.034   5.249
    1STR    H1D 7853   3.964   4.034   5.324
    1STR    H1E 7854   3.967   4.420   5.400
    1STR    H1F 7855   3.994   4.305   5.118
    1STR    H1G 7856   3.950   4.471   5.157
    1STR    H1H 7857   4.109   4.411   5.199
    1STR    H1I 7858   3.798   4.224   5.243
    1STR    H1J 7859   3.740   4.376   5.272
    1STR    H1K 7860   3.581   4.336   5.481
    1STR    H1M 7861   3.750   4.218   5.694
    1STR    H1N 7862   3.583   4.181   5.645
    1STR    H1O 7863   3.619   4.327   5.732
    1STR    H1P 7864   3.684   4.531   5.626
    1STR    H1Q 7865   3.839   4.451   5.604
    1STR    H1R 7866   3.669   4.686   5.437
    1STR    H1S 7867   3.654   4.706   5.187
    1STR    H1T 7868   3.681   4.538   5.168
    1STR    H1U 7869   3.810   4.640   5.230
    1STR    H1V 7870   3.509   4.461   5.322
    1STR    H1W 7871   3.443   4.614   5.334
    1STR    H1X 7872   3.417   4.712   5.756
    1STR    H1Y 7873   3.672   4.838   5.718
    1STR    H1Z 7874   3.788   4.957   5.537
    1STR    H20 7875   3.801   4.854   5.269
    1STR    H21 7876   3.684   4.960   5.187
    1STR    H22 7877   3.798   5.021   5.309
    1STR    H23 7878   3.521   4.847   5.161
    1STR    H27 7879   3.334   4.779   5.470
    1STR    H28 7880   3.846   3.972   5.651
    1STR    H29 7881   3.610   3.909   5.706
    1STR    H2A 7882   3.329   4.019   5.504
    1STR    H2B 7883   3.385   3.960   5.661
    1STR    H2C 7884   3.360   3.848   5.526
    1STR   BCK1 7885   3.522   5.794   7.146
    1STR    O03 7886   3.613   5.861   7.190
    1STR    N04 7887   3.539   5.710   7.045
    1STR    C05 7888   3.582   5.759   6.924
    1STR    C06 7889   3.506   5.861   6.871
    1STR    C07 7890   3.545   5.933   6.759
    1STR    N08 7891   3.480   6.052   6.739
    1STR    C09 7892   3.348   6.042   6.729
    1STR    O0A 7893   3.295   5.980   6.638
    1STR    O0B 7894   3.279   6.082   6.839
    1STR    C0C 7895   3.319   6.179   6.936
    1STR    C0D 7896   3.188   6.219   7.000
    1STR    C0E 7897   3.416   6.137   7.048
    1STR    O0F 7898   3.536   6.090   6.994
    1STR    C0G 7899   3.656   6.152   7.030
    1STR    C0H 7900   3.769   6.067   6.972
    1STR    C0I 7901   3.656   6.284   6.963
    1STR    O0J 7902   3.571   6.375   7.027
    1STR    C0K 7903   3.614   6.452   7.138
    1STR    C0M 7904   3.515   6.426   0.060
    1STR    C0N 7905   3.762   6.443   7.179
    1STR    O0O 7906   3.858   6.477   7.077
    1STR    C0P 7907   3.832   6.576   6.991
    1STR    O0Q 7908   3.800   6.690   7.021
    1STR    N0R 7909   3.836   6.530   6.866
    1STR    C0S 7910   3.721   6.520   6.788
    1STR    C0T 7911   3.723   6.440   6.673
    1STR    C0U 7912   3.605   6.412   6.603
    1STR    C0V 7913   3.481   6.453   6.653
    1STR    C0W 7914   3.353   6.420   6.581
    1STR    C0X 7915   3.476   6.519   6.776
    1STR    N0Y 7916   3.358   6.508   6.845
    1STR   BCK2 7917   3.318   6.552   6.962
    1STR    O10 7918   3.216   6.508   7.011
    1STR    C13 7919   3.595   6.564   6.834
    1STR    C14 7920   3.658   5.891   6.688
    1STR    C15 7921   3.728   5.778   6.733
    1STR    C16 7922   3.694   5.713   6.854
    1STR    C17 7923   3.775   5.600   6.911
    1STR    H1B 7924   3.464   5.641   7.045
    1STR    H1C 7925   3.424   5.897   6.930
    1STR    H1D 7926   3.502   6.108   6.822
    1STR    H1E 7927   3.363   6.264   6.885
    1STR    H1F 7928   3.132   6.134   7.039
    1STR    H1G 7929   3.208   6.285   7.085
    1STR    H1H 7930   3.125   6.273   6.930
    1STR    H1I 7931   3.378   6.061   7.114
    1STR    H1J 7932   3.431   6.220   7.116
    1STR    H1K 7933   3.666   6.163   7.137
    1STR    H1M 7934   3.759   6.059   6.864
    1STR    H1N 7935   3.768   5.968   7.015
    1STR    H1O 7936   3.865   6.112   6.992
    1STR    H1P 7937   3.758   6.316   6.954
    1STR    H1Q 7938   3.619   6.273   6.862
    1STR    H1R 7939   3.596   6.555   7.114
    1STR    H1S 7940   3.531   6.495   0.142
    1STR    H1T 7941   3.521   6.325   0.099
    1STR    H1U 7942   3.413   6.441   0.025
    1STR    H1V 7943   3.783   6.343   0.025
    1STR    H1W 7944   3.773   6.507   0.074
    1STR    H1X 7945   3.898   6.452   6.861
    1STR    H1Y 7946   3.815   6.397   6.640
    1STR    H1Z 7947   3.606   6.353   6.513
    1STR    H20 7948   3.309   6.329   6.621
    1STR    H21 7949   3.283   6.503   6.593
    1STR    H22 7950   3.372   6.409   6.475
    1STR    H23 7951   3.285   6.452   6.803
    1STR    H27 7952   3.591   6.621   6.923
    1STR    H28 7953   3.687   5.943   6.599
    1STR    H29 7954   3.808   5.742   6.672
    1STR    H2A 7955   3.776   5.608   7.019
    1STR    H2B 7956   3.878   5.605   6.878
    1STR    H2C 7957   3.730   5.505   6.882
    1STR   BCK1 7958   3.659   5.813   1.569
    1STR    O03 7959   3.772   5.849   1.596
    1STR    N04 7960   3.571   5.759   1.653
    1STR    C05 7961   3.564   5.787   1.789
    1STR    C06 7962   3.672   5.835   1.864
    1STR    C07 7963   3.650   5.896   1.988
    1STR    N08 7964   3.754   5.968   2.042
    1STR    C09 7965   3.740   6.091   2.089
    1STR    O0A 7966   3.649   6.131   2.160
    1STR    O0B 7967   3.827   6.167   2.027
    1STR    C0C 7968   3.776   6.274   1.950
    1STR    C0D 7969   3.898   6.354   1.907
    1STR    C0E 7970   3.701   6.220   1.828
    1STR    O0F 7971   3.578   6.156   1.859
    1STR    C0G 7972   3.462   6.237   1.851
    1STR    C0H 7973   3.441   6.269   1.703
    1STR    C0I 7974   3.342   6.159   1.904
    1STR    O0J 7975   3.336   6.142   2.045
    1STR    C0K 7976   3.286   6.246   2.130
    1STR    C0M 7977   3.395   6.343   2.177
    1STR    C0N 7978   3.155   6.315   2.090
    1STR    O0O 7979   3.178   6.447   2.045
    1STR    C0P 7980   3.213   6.465   1.922
    1STR    O0Q 7981   3.169   6.408   1.823
    1STR    N0R 7982   3.312   6.551   1.923
    1STR    C0S 7983   3.405   6.570   1.825
    1STR    C0T 7984   3.536   6.573   1.869
    1STR    C0U 7985   3.639   6.587   1.778
    1STR    C0V 7986   3.613   6.610   1.643
    1STR    C0W 7987   3.729   6.650   1.557
    1STR    C0X 7988   3.482   6.599   1.595
    1STR    N0Y 7989   3.471   6.596   1.457
    1STR   BCK2 7990   3.386   6.535   1.376
    1STR    O10 7991   3.420   6.509   1.262
    1STR    C13 7992   3.376   6.580   1.687
    1STR    C14 7993   3.520   5.899   2.042
    1STR    C15 7994   3.414   5.841   1.973
    1STR    C16 7995   3.435   5.787   1.846
    1STR    C17 7996   3.317   5.739   1.769
    1STR    H1B 7997   3.487   5.722   1.615
    1STR    H1C 7998   3.771   5.837   1.824
    1STR    H1D 7999   3.845   5.948   2.004
    1STR    H1E 8000   3.709   6.336   2.011
    1STR    H1F 8001   3.971   6.289   1.859
    1STR    H1G 8002   3.873   6.431   1.836
    1STR    H1H 8003   3.945   6.400   1.994
    1STR    H1I 8004   3.762   6.143   1.782
    1STR    H1J 8005   3.689   6.299   1.754
    1STR    H1K 8006   3.475   6.327   1.908
    1STR    H1M 8007   3.339   6.300   1.683
    1STR    H1N 8008   3.467   6.184   1.642
    1STR    H1O 8009   3.505   6.351   1.672
    1STR    H1P 8010   3.248   6.196   1.866
    1STR    H1Q 8011   3.347   6.060   1.861
    1STR    H1R 8012   3.261   6.189   2.220
    1STR    H1S 8013   3.437   6.402   2.097
    1STR    H1T 8014   3.477   6.288   2.223
    1STR    H1U 8015   3.356   6.411   2.252
    1STR    H1V 8016   3.091   6.325   2.177
    1STR    H1W 8017   3.097   6.258   2.018
    1STR    H1X 8018   3.336   6.581   2.016
    1STR    H1Y 8019   3.560   6.565   1.974
    1STR    H1Z 8020   3.740   6.588   1.814
    1STR    H20 8021   3.719   6.621   1.453
    1STR    H21 8022   3.738   6.759   1.563
    1STR    H22 8023   3.819   6.606   1.598
    1STR    H23 8024   3.548   6.638   1.408
    1STR    H27 8025   3.274   6.574   1.657
    1STR    H28 8026   3.501   5.949   2.136
    1STR    H29 8027   3.316   5.845   2.016
    1STR    H2A 8028   3.301   5.801   1.683
    1STR    H2B 8029   3.227   5.744   1.830
    1STR    H2C 8030   3.335   5.636   1.741
    1STR   BCK1 8031   3.512   5.947   3.230
    1STR    O03 8032   3.590   5.982   3.142
    1STR    N04 8033   3.545   5.875   3.338
    1STR    C05 8034   3.675   5.846   3.371
    1STR    C06 8035   3.732   5.917   3.475
    1STR    C07 8036   3.867   5.944   3.475
    1STR    N08 8037   3.903   6.057   3.543
    1STR    C09 8038   3.982   6.142   3.482
    1STR    O0A 8039   4.104   6.135   3.481
    1STR    O0B 8040   3.914   6.246   3.438
    1STR    C0C 8041   3.812   6.244   3.337
    1STR    C0D 8042   3.858   6.176   3.209
    1STR    C0E 8043   3.671   6.205   3.381
    1STR    O0F 8044   3.647   6.199   3.521
    1STR    C0G 8045   3.513   6.152   3.546
    1STR    C0H 8046   3.502   6.075   3.678
    1STR    C0I 8047   3.410   6.263   3.534
    1STR    O0J 8048   3.378   6.311   3.662
    1STR    C0K 8049   3.457   6.415   3.709
    1STR    C0M 8050   3.349   6.496   3.775
    1STR    C0N 8051   3.562   6.371   3.812
    1STR    O0O 8052   3.687   6.333   3.758
    1STR    C0P 8053   3.785   6.421   3.756
    1STR    O0Q 8054   3.796   6.518   3.832
    1STR    N0R 8055   3.853   6.412   3.644
    1STR    C0S 8056   3.834   6.508   3.548
    1STR    C0T 8057   3.914   6.513   3.433
    1STR    C0U 8058   3.882   6.600   3.329
    1STR    C0V 8059   3.775   6.687   3.346
    1STR    C0W 8060   3.757   6.797   3.252
    1STR    C0X 8061   3.690   6.679   3.455
    1STR    N0Y 8062   3.573   6.749   3.465
    1STR   BCK2 8063   3.456   6.699   3.427
    1STR    O10 8064   3.356   6.743   3.479
    1STR    C13 8065   3.722   6.591   3.556
    1STR    C14 8066   3.953   5.868   3.393
    1STR    C15 8067   3.896   5.771   3.309
    1STR    C16 8068   3.757   5.768   3.290
    1STR    C17 8069   3.693   5.685   3.184
    1STR    H1B 8070   3.471   5.848   3.403
    1STR    H1C 8071   3.670   5.971   3.540
    1STR    H1D 8072   3.817   6.101   3.574
    1STR    H1E 8073   3.796   6.347   3.306
    1STR    H1F 8074   3.880   6.071   3.225
    1STR    H1G 8075   3.781   6.184   3.132
    1STR    H1H 8076   3.948   6.224   3.171
    1STR    H1I 8077   3.657   6.108   3.339
    1STR    H1J 8078   3.599   6.268   3.330
    1STR    H1K 8079   3.484   6.081   3.469
    1STR    H1M 8080   3.575   6.110   3.751
    1STR    H1N 8081   3.514   5.968   3.665
    1STR    H1O 8082   3.402   6.085   3.721
    1STR    H1P 8083   3.440   6.342   3.465
    1STR    H1Q 8084   3.318   6.221   3.495
    1STR    H1R 8085   3.497   6.473   3.627
    1STR    H1S 8086   3.292   6.554   3.703
    1STR    H1T 8087   3.398   6.560   3.845
    1STR    H1U 8088   3.280   6.435   3.833
    1STR    H1V 8089   3.522   6.289   3.870
    1STR    H1W 8090   3.576   6.453   3.882
    1STR    H1X 8091   3.858   6.320   3.603
    1STR    H1Y 8092   4.001   6.451   3.423
    1STR    H1Z 8093   3.943   6.605   3.241
    1STR    H20 8094   3.665   6.777   3.198
    1STR    H21 8095   3.748   6.889   3.310
    1STR    H22 8096   3.843   6.805   3.187
    1STR    H23 8097   3.563   6.823   3.531
    1STR    H27 8098   3.656   6.587   3.638
    1STR    H28 8099   4.059   5.883   3.395
    1STR    H29 8100   3.962   5.707   3.252
    1STR    H2A 8101   3.613   5.633   3.229
    1STR    H2B 8102   3.763   5.617   3.138
    1STR    H2C 8103   3.644   5.746   3.109
    1STR   BCK1 8104   3.641   5.881   5.200
    1STR    O03 8105   3.690   5.970   5.267
    1STR    N04 8106   3.515   5.840   5.197
    1STR    C05 8107   3.409   5.871   5.278
    1STR    C06 8108   3.428   5.903   5.411
    1STR    C07 8109   3.323   5.961   5.483
    1STR    N08 8110   3.356   6.009   5.607
    1STR    C09 8111   3.364   6.140   5.620
    1STR    O0A 8112   3.279   6.222   5.585
    1STR    O0B 8113   3.486   6.165   5.661
    1STR    C0C 8114   3.566   6.251   5.582
    1STR    C0D 8115   3.686   6.280   5.668
    1STR    C0E 8116   3.613   6.183   5.453
    1STR    O0F 8117   3.505   6.153   5.367
    1STR    C0G 8118   3.511   6.211   5.240
    1STR    C0H 8119   3.432   6.138   5.133
    1STR    C0I 8120   3.449   6.346   5.259
    1STR    O0J 8121   3.550   6.437   5.293
    1STR    C0K 8122   3.637   6.484   5.191
    1STR    C0M 8123   3.767   6.479   5.269
    1STR    C0N 8124   3.651   6.416   5.051
    1STR    O0O 8125   3.531   6.388   4.987
    1STR    C0P 8126   3.514   6.400   4.856
    1STR    O0Q 8127   3.604   6.388   4.773
    1STR    N0R 8128   3.389   6.432   4.822
    1STR    C0S 8129   3.296   6.480   4.913
    1STR    C0T 8130   3.160   6.449   4.908
    1STR    C0U 8131   3.080   6.477   5.020
    1STR    C0V 8132   3.136   6.526   5.139
    1STR    C0W 8133   3.059   6.526   5.268
    1STR    C0X 8134   3.267   6.574   5.136
    1STR    N0Y 8135   3.329   6.632   5.245
    1STR   BCK2 8136   3.407   6.740   5.239
    1STR    O10 8137   3.487   6.765   5.327
    1STR    C13 8138   3.341   6.558   5.019
    1STR    C14 8139   3.200   5.983   5.421
    1STR    C15 8140   3.178   5.933   5.294
    1STR    C16 8141   3.279   5.867   5.225
    1STR    C17 8142   3.247   5.800   5.096
    1STR    H1B 8143   3.487   5.772   5.129
    1STR    H1C 8144   3.528   5.902   5.449
    1STR    H1D 8145   3.436   5.964   5.647
    1STR    H1E 8146   3.511   6.342   5.558
    1STR    H1F 8147   3.744   6.190   5.688
    1STR    H1G 8148   3.751   6.352   5.619
    1STR    H1H 8149   3.653   6.321   5.762
    1STR    H1I 8150   3.663   6.089   5.477
    1STR    H1J 8151   3.687   6.245   5.405
    1STR    H1K 8152   3.614   6.213   5.206
    1STR    H1M 8153   3.338   6.107   5.174
    1STR    H1N 8154   3.488   6.056   5.091
    1STR    H1O 8155   3.409   6.200   5.047
    1STR    H1P 8156   3.395   6.373   5.171
    1STR    H1Q 8157   3.375   6.341   5.338
    1STR    H1R 8158   3.610   6.588   5.174
    1STR    H1S 8159   3.845   6.539   5.222
    1STR    H1T 8160   3.803   6.377   5.280
    1STR    H1U 8161   3.749   6.516   5.370
    1STR    H1V 8162   3.703   6.322   5.055
    1STR    H1W 8163   3.705   6.485   4.987
    1STR    H1X 8164   3.367   6.419   4.725
    1STR    H1Y 8165   3.117   6.398   4.823
    1STR    H1Z 8166   2.976   6.456   5.014
    1STR    H20 8167   3.094   6.605   5.333
    1STR    H21 8168   2.953   6.540   5.248
    1STR    H22 8169   3.077   6.432   5.319
    1STR    H23 8170   3.340   6.577   5.327
    1STR    H27 8171   3.442   6.594   5.016
    1STR    H28 8172   3.120   6.039   5.465
    1STR    H29 8173   3.083   5.947   5.247
    1STR    H2A 8174   3.322   5.829   5.024
    1STR    H2B 8175   3.147   5.827   5.061
    1STR    H2C 8176   3.244   5.692   5.109
    1STR   BCK1 8177   5.217   0.553   7.015
    1STR    O03 8178   5.305   0.635   7.025
    1STR    N04 8179   5.228   0.431   7.062
    1STR    C05 8180   5.312   0.405   7.166
    1STR    C06 8181   5.451   0.396   7.150
    1STR    C07 8182   5.535   0.399   0.074
    1STR    N08 8183   5.670   0.413   0.056
    1STR    C09 8184   5.747   0.496   0.129
    1STR    O0A 8185   5.757   0.496   0.251
    1STR    O0B 8186   5.803   0.585   0.048
    1STR    C0C 8187   5.740   0.712   0.031
    1STR    C0D 8188   5.803   0.791   7.108
    1STR    C0E 8189   5.592   0.695   0.005
    1STR    O0F 8190   5.535   0.675   0.134
    1STR    C0G 8191   5.414   0.739   0.158
    1STR    C0H 8192   5.358   0.701   0.296
    1STR    C0I 8193   5.447   0.885   0.161
    1STR    O0J 8194   5.450   0.945   0.034
    1STR    C0K 8195   5.339   0.937   7.137
    1STR    C0M 8196   5.382   0.913   6.992
    1STR    C0N 8197   5.194   0.901   7.183
    1STR    O0O 8198   5.172   0.898   0.134
    1STR    C0P 8199   5.101   0.989   0.200
    1STR    O0Q 8200   4.984   0.970   0.232
    1STR    N0R 8201   5.167   1.094   0.246
    1STR    C0S 8202   5.273   1.155   0.183
    1STR    C0T 8203   5.401   1.164   0.240
    1STR    C0U 8204   5.506   1.212   0.162
    1STR    C0V 8205   5.484   1.257   0.030
    1STR    C0W 8206   5.601   1.284   7.133
    1STR    C0X 8207   5.353   1.264   7.170
    1STR    N0Y 8208   5.328   1.299   7.039
    1STR   BCK2 8209   5.236   1.240   6.963
    1STR    O10 8210   5.169   1.142   6.993
    1STR    C13 8211   5.249   1.215   0.060
    1STR    C14 8212   5.475   0.414   0.200
    1STR    C15 8213   5.336   0.421   0.211
    1STR    C16 8214   5.253   0.411   0.101
    1STR    C17 8215   5.104   0.421   0.119
    1STR    H1B 8216   5.145   0.373   7.049
    1STR    H1C 8217   5.493   0.398   7.051
    1STR    H1D 8218   5.703   0.403   7.152
    1STR    H1E 8219   5.752   0.768   0.124
    1STR    H1F 8220   5.789   0.742   7.012
    1STR    H1G 8221   5.756   0.889   7.101
    1STR    H1H 8222   5.910   0.806   7.126
    1STR    H1I 8223   5.569   0.616   7.125
    1STR    H1J 8224   5.557   0.780   7.140
    1STR    H1K 8225   5.341   0.712   0.082
    1STR    H1M 8226   5.429   0.640   0.352
    1STR    H1N 8227   5.265   0.648   0.281
    1STR    H1O 8228   5.332   0.785   0.359
    1STR    H1P 8229   5.376   0.932   0.224
    1STR    H1Q 8230   5.543   0.901   0.209
    1STR    H1R 8231   5.330   1.040   7.121
    1STR    H1S 8232   5.299   0.929   6.924
    1STR    H1T 8233   5.426   0.817   6.974
    1STR    H1U 8234   5.460   0.985   6.967
    1STR    H1V 8235   5.169   0.803   7.146
    1STR    H1W 8236   5.121   0.967   7.139
    1STR    H1X 8237   5.120   1.150   0.315
    1STR    H1Y 8238   5.421   1.128   0.339
    1STR    H1Z 8239   5.605   1.208   0.202
    1STR    H20 8240   5.678   1.208   7.150
    1STR    H21 8241   5.575   1.280   7.027
    1STR    H22 8242   5.639   1.381   7.159
    1STR    H23 8243   5.377   1.378   7.001
    1STR    H27 8244   5.150   1.214   0.021
    1STR    H28 8245   5.535   0.424   0.289
    1STR    H29 8246   5.292   0.439   0.308
    1STR    H2A 8247   5.070   0.516   0.079
    1STR    H2B 8248   5.077   0.414   0.224
    1STR    H2C 8249   5.055   0.340   0.064
    1STR   BCK1 8250   5.261   0.355   1.691
    1STR    O03 8251   5.206   0.422   1.778
    1STR    N04 8252   5.390   0.361   1.667
    1STR    C05 8253   5.434   0.397   1.540
    1STR    C06 8254   5.358   0.488   1.467
    1STR    C07 8255   5.409   0.559   1.358
    1STR    N08 8256   5.341   0.671   1.311
    1STR    C09 8257   5.225   0.712   1.361
    1STR    O0A 8258   5.121   0.644   1.369
    1STR    O0B 8259   5.241   0.831   1.412
    1STR    C0C 8260   5.187   0.865   1.539
    1STR    C0D 8261   5.040   0.903   1.527
    1STR    C0E 8262   5.212   0.766   1.655
    1STR    O0F 8263   5.332   0.692   1.643
    1STR    C0G 8264   5.445   0.743   1.710
    1STR    C0H 8265   5.557   0.640   1.707
    1STR    C0I 8266   5.492   0.869   1.641
    1STR    O0J 8267   5.437   0.977   1.712
    1STR    C0K 8268   5.498   1.019   1.835
    1STR    C0M 8269   5.378   1.032   1.927
    1STR    C0N 8270   5.615   0.940   1.901
    1STR    O0O 8271   5.723   0.906   1.815
    1STR    C0P 8272   5.807   1.000   1.778
    1STR    O0Q 8273   5.834   1.101   1.844
    1STR    N0R 8274   5.837   0.985   1.649
    1STR    C0S 8275   5.817   1.096   1.570
    1STR    C0T 8276   5.924   1.178   1.531
    1STR    C0U 8277   5.899   1.314   1.508
    1STR    C0V 8278   5.772   1.367   1.536
    1STR    C0W 8279   5.755   1.514   1.557
    1STR    C0X 8280   5.664   1.283   1.562
    1STR    N0Y 8281   5.551   1.331   1.625
    1STR   BCK2 8282   5.431   1.276   1.633
    1STR    O10 8283   5.363   1.287   1.734
    1STR    C13 8284   5.686   1.146   1.568
    1STR    C14 8285   5.540   0.532   1.317
    1STR    C15 8286   5.616   0.435   1.385
    1STR    C16 8287   5.562   0.367   1.496
    1STR    C17 8288   5.644   0.268   1.571
    1STR    H1B 8289   5.450   0.396   1.740
    1STR    H1C 8290   5.264   0.517   1.509
    1STR    H1D 8291   5.404   0.746   1.289
    1STR    H1E 8292   5.246   0.952   1.564
    1STR    H1F 8293   5.004   0.945   1.621
    1STR    H1G 8294   5.026   0.975   1.447
    1STR    H1H 8295   4.980   0.815   1.504
    1STR    H1I 8296   5.133   0.691   1.656
    1STR    H1J 8297   5.207   0.818   1.751
    1STR    H1K 8298   5.420   0.761   1.814
    1STR    H1M 8299   5.584   0.615   1.605
    1STR    H1N 8300   5.530   0.551   1.762
    1STR    H1O 8301   5.647   0.679   1.753
    1STR    H1P 8302   5.600   0.873   1.630
    1STR    H1Q 8303   5.457   0.872   1.538
    1STR    H1R 8304   5.538   1.118   1.815
    1STR    H1S 8305   5.407   1.082   2.019
    1STR    H1T 8306   5.337   0.934   1.952
    1STR    H1U 8307   5.300   1.090   1.879
    1STR    H1V 8308   5.580   0.849   1.949
    1STR    H1W 8309   5.654   1.002   1.982
    1STR    H1X 8310   5.832   0.891   1.611
    1STR    H1Y 8311   6.025   1.140   1.528
    1STR    H1Z 8312   5.982   1.378   1.483
    1STR    H20 8313   5.663   1.546   1.513
    1STR    H21 8314   5.741   1.531   1.662
    1STR    H22 8315   5.840   1.570   1.519
    1STR    H23 8316   5.573   1.401   1.695
    1STR    H27 8317   5.606   1.084   1.600
    1STR    H28 8318   5.586   0.588   1.238
    1STR    H29 8319   5.718   0.417   1.358
    1STR    H2A 8320   5.631   0.276   1.679
    1STR    H2B 8321   5.748   0.284   1.548
    1STR    H2C 8322   5.615   0.169   1.537
    1STR   BCK1 8323   5.352   0.378   3.511
    1STR    O03 8324   5.456   0.316   3.514
    1STR    N04 8325   5.269   0.375   3.615
    1STR    C05 8326   5.141   0.422   3.642
    1STR    C06 8327   5.077   0.519   3.567
    1STR    C07 8328   4.970   0.591   3.624
    1STR    N08 8329   4.967   0.728   3.612
    1STR    C09 8330   5.073   0.803   3.640
    1STR    O0A 8331   5.063   0.923   3.657
    1STR    O0B 8332   5.189   0.737   3.652
    1STR    C0C 8333   5.311   0.797   3.615
    1STR    C0D 8334   5.414   0.741   3.711
    1STR    C0E 8335   5.346   0.767   3.467
    1STR    O0F 8336   5.226   0.738   3.395
    1STR    C0G 8337   5.225   0.752   3.254
    1STR    C0H 8338   5.102   0.675   3.208
    1STR    C0I 8339   5.207   0.894   3.199
    1STR    O0J 8340   5.265   0.995   3.277
    1STR    C0K 8341   5.196   1.024   3.396
    1STR    C0M 8342   5.295   1.111   3.471
    1STR    C0N 8343   5.053   1.075   3.388
    1STR    O0O 8344   4.954   0.986   3.336
    1STR    C0P 8345   4.840   0.935   3.391
    1STR    O0Q 8346   4.785   0.843   3.335
    1STR    N0R 8347   4.776   0.982   3.499
    1STR    C0S 8348   4.801   1.088   3.580
    1STR    C0T 8349   4.826   1.062   3.715
    1STR    C0U 8350   4.909   1.148   3.784
    1STR    C0V 8351   4.965   1.256   3.717
    1STR    C0W 8352   5.102   1.293   3.766
    1STR    C0X 8353   4.911   1.299   3.593
    1STR    N0Y 8354   4.957   1.408   3.523
    1STR   BCK2 8355   5.042   1.389   3.423
    1STR    O10 8356   5.156   1.355   3.444
    1STR    C13 8357   4.823   1.214   3.526
    1STR    C14 8358   4.897   0.537   3.730
    1STR    C15 8359   4.953   0.429   3.799
    1STR    C16 8360   5.080   0.383   3.763
    1STR    C17 8361   5.154   0.302   3.862
    1STR    H1B 8362   5.316   0.335   3.695
    1STR    H1C 8363   5.126   0.563   3.483
    1STR    H1D 8364   4.879   0.776   3.609
    1STR    H1E 8365   5.304   0.904   3.632
    1STR    H1F 8366   5.425   0.634   3.694
    1STR    H1G 8367   5.508   0.793   3.698
    1STR    H1H 8368   5.379   0.756   3.813
    1STR    H1I 8369   5.416   0.684   3.461
    1STR    H1J 8370   5.400   0.851   3.424
    1STR    H1K 8371   5.316   0.708   3.213
    1STR    H1M 8372   5.014   0.712   3.261
    1STR    H1N 8373   5.109   0.570   3.230
    1STR    H1O 8374   5.085   0.688   3.102
    1STR    H1P 8375   5.253   0.898   3.102
    1STR    H1Q 8376   5.103   0.917   3.178
    1STR    H1R 8377   5.178   0.939   3.456
    1STR    H1S 8378   5.252   1.146   3.565
    1STR    H1T 8379   5.323   1.196   3.410
    1STR    H1U 8380   5.386   1.058   3.494
    1STR    H1V 8381   5.059   1.157   3.320
    1STR    H1W 8382   5.034   1.107   3.489
    1STR    H1X 8383   4.707   0.918   3.538
    1STR    H1Y 8384   4.806   0.966   3.758
    1STR    H1Z 8385   4.948   1.115   3.879
    1STR    H20 8386   5.159   1.336   3.686
    1STR    H21 8387   5.100   1.359   3.852
    1STR    H22 8388   5.157   1.203   3.792
    1STR    H23 8389   4.996   1.469   3.598
    1STR    H27 8390   4.796   1.235   3.424
    1STR    H28 8391   4.811   0.587   3.768
    1STR    H29 8392   4.904   0.394   3.888
    1STR    H2A 8393   5.162   0.202   3.825
    1STR    H2B 8394   5.108   0.305   3.960
    1STR    H2C 8395   5.252   0.346   3.873
    1STR   BCK1 8396   5.445   0.450   5.116
    1STR    O03 8397   5.530   0.408   5.039
    1STR    N04 8398   5.434   0.416   5.245
    1STR    C05 8399   5.545   0.423   5.327
    1STR    C06 8400   5.636   0.524   5.303
    1STR    C07 8401   5.741   0.553   5.391
    1STR    N08 8402   5.820   0.661   5.364
    1STR    C09 8403   5.850   0.674   5.234
    1STR    O0A 8404   5.916   0.594   5.171
    1STR    O0B 8405   5.783   0.767   5.173
    1STR    C0C 8406   5.698   0.859   5.236
    1STR    C0D 8407   5.705   0.965   5.133
    1STR    C0E 8408   5.553   0.818   5.260
    1STR    O0F 8409   5.542   0.764   5.391
    1STR    C0G 8410   5.411   0.724   5.426
    1STR    C0H 8411   5.418   0.684   5.571
    1STR    C0I 8412   5.315   0.839   5.403
    1STR    O0J 8413   5.194   0.820   5.473
    1STR    C0K 8414   5.105   0.922   5.436
    1STR    C0M 8415   5.055   0.912   5.294
    1STR    C0N 8416   5.001   0.941   5.547
    1STR    O0O 8417   5.066   0.987   5.665
    1STR    C0P 8418   5.105   1.112   5.662
    1STR    O0Q 8419   5.029   1.208   5.667
    1STR    N0R 8420   5.232   1.118   5.627
    1STR    C0S 8421   5.285   1.205   5.535
    1STR    C0T 8422   5.422   1.222   5.533
    1STR    C0U 8423   5.486   1.280   5.424
    1STR    C0V 8424   5.417   1.297   5.305
    1STR    C0W 8425   5.496   1.330   5.182
    1STR    C0X 8426   5.280   1.272   5.302
    1STR    N0Y 8427   5.218   1.263   5.180
    1STR   BCK2 8428   5.096   1.227   5.148
    1STR    O10 8429   5.009   1.185   5.222
    1STR    C13 8430   5.213   1.243   5.422
    1STR    C14 8431   5.764   0.473   5.502
    1STR    C15 8432   5.686   0.359   5.513
    1STR    C16 8433   5.573   0.338   5.434
    1STR    C17 8434   5.504   0.211   5.455
    1STR    H1B 8435   5.342   0.445   5.280
    1STR    H1C 8436   5.622   0.583   5.216
    1STR    H1D 8437   5.776   0.742   5.403
    1STR    H1E 8438   5.741   0.890   5.329
    1STR    H1F 8439   5.670   0.916   5.043
    1STR    H1G 8440   5.637   1.047   5.155
    1STR    H1H 8441   5.807   0.999   5.121
    1STR    H1I 8442   5.511   0.756   5.182
    1STR    H1J 8443   5.496   0.911   5.256
    1STR    H1K 8444   5.377   0.640   5.366
    1STR    H1M 8445   5.452   0.768   5.630
    1STR    H1N 8446   5.485   0.600   5.584
    1STR    H1O 8447   5.319   0.655   5.607
    1STR    H1P 8448   5.361   0.933   5.432
    1STR    H1Q 8449   5.296   0.842   5.295
    1STR    H1R 8450   5.160   1.013   5.426
    1STR    H1S 8451   5.124   0.962   5.225
    1STR    H1T 8452   4.959   0.960   5.283
    1STR    H1U 8453   5.053   0.811   5.259
    1STR    H1V 8454   4.952   0.848   5.569
    1STR    H1W 8455   4.928   1.015   5.515
    1STR    H1X 8456   5.278   1.030   5.640
    1STR    H1Y 8457   5.483   1.186   5.613
    1STR    H1Z 8458   5.591   1.297   5.434
    1STR    H20 8459   5.574   1.257   5.168
    1STR    H21 8460   5.436   1.327   5.094
    1STR    H22 8461   5.538   1.429   5.192
    1STR    H23 8462   5.279   1.266   5.099
    1STR    H27 8463   5.107   1.225   5.423
    1STR    H28 8464   5.850   0.485   5.564
    1STR    H29 8465   5.722   0.280   5.573
    1STR    H2A 8466   5.409   0.210   5.403
    1STR    H2B 8467   5.494   0.187   5.560
    1STR    H2C 8468   5.576   0.140   5.417
    1STR   BCK1 8469   5.362   2.144   7.034
    1STR    O03 8470   5.423   2.242   7.072
    1STR    N04 8471   5.350   2.108   6.906
    1STR    C05 8472   5.295   2.190   6.810
    1STR    C06 8473   5.206   2.288   6.851
    1STR    C07 8474   5.158   2.386   6.763
    1STR    N08 8475   5.103   2.500   6.817
    1STR    C09 8476   5.040   2.496   6.934
    1STR    O0A 8477   4.952   2.414   6.955
    1STR    O0B 8478   5.083   2.582   7.029
    1STR    C0C 8479   5.219   2.623   7.042
    1STR    C0D 8480   5.228   2.709   7.167
    1STR    C0E 8481   5.321   2.512   7.060
    1STR    O0F 8482   5.378   2.482   6.934
    1STR    C0G 8483   5.518   2.503   6.928
    1STR    C0H 8484   5.576   2.402   6.830
    1STR    C0I 8485   5.539   2.645   6.881
    1STR    O0J 8486   5.653   2.695   6.947
    1STR    C0K 8487   5.626   2.804   7.033
    1STR    C0M 8488   5.630   2.757   7.177
    1STR    C0N 8489   5.731   2.907   6.993
    1STR    O0O 8490   5.706   2.943   6.860
    1STR    C0P 8491   5.599   3.014   6.836
    1STR    O0Q 8492   5.559   3.105   6.907
    1STR    N0R 8493   5.535   2.960   6.735
    1STR    C0S 8494   5.397   2.956   6.726
    1STR    C0T 8495   5.336   2.945   6.601
    1STR    C0U 8496   5.198   2.921   6.595
    1STR    C0V 8497   5.124   2.903   6.713
    1STR    C0W 8498   4.980   2.870   6.705
    1STR    C0X 8499   5.186   2.915   6.838
    1STR    N0Y 8500   5.117   2.894   6.956
    1STR   BCK2 8501   5.097   2.988   7.048
    1STR    O10 8502   5.059   2.963   7.160
    1STR    C13 8503   5.322   2.945   6.844
    1STR    C14 8504   5.187   2.374   6.627
    1STR    C15 8505   5.265   2.267   6.581
    1STR    C16 8506   5.322   2.178   6.673
    1STR    C17 8507   5.418   2.076   6.624
    1STR    H1B 8508   5.373   2.014   6.877
    1STR    H1C 8509   5.186   2.298   6.955
    1STR    H1D 8510   5.138   2.586   6.777
    1STR    H1E 8511   5.247   2.680   6.954
    1STR    H1F 8512   5.256   2.652   0.065
    1STR    H1G 8513   5.302   2.788   7.155
    1STR    H1H 8514   5.133   2.752   7.190
    1STR    H1I 8515   5.273   2.425   7.104
    1STR    H1J 8516   5.397   2.539   7.133
    1STR    H1K 8517   5.565   2.484   7.024
    1STR    H1M 8518   5.527   2.408   6.733
    1STR    H1N 8519   5.564   2.301   6.869
    1STR    H1O 8520   5.683   2.420   6.818
    1STR    H1P 8521   5.555   2.648   6.773
    1STR    H1Q 8522   5.450   2.704   6.898
    1STR    H1R 8523   5.528   2.848   7.019
    1STR    H1S 8524   5.571   2.667   7.189
    1STR    H1T 8525   5.583   2.832   0.051
    1STR    H1U 8526   5.731   2.737   0.021
    1STR    H1V 8527   5.831   2.866   7.001
    1STR    H1W 8528   5.724   2.995   7.054
    1STR    H1X 8529   5.586   2.895   6.679
    1STR    H1Y 8530   5.391   2.956   6.510
    1STR    H1Z 8531   5.148   2.913   6.499
    1STR    H20 8532   4.916   2.954   6.728
    1STR    H21 8533   4.953   2.832   6.607
    1STR    H22 8534   4.969   2.793   6.779
    1STR    H23 8535   5.103   2.800   6.988
    1STR    H27 8536   5.366   2.958   6.941
    1STR    H28 8537   5.151   2.447   6.556
    1STR    H29 8538   5.287   2.258   6.476
    1STR    H2A 8539   5.488   2.056   6.705
    1STR    H2B 8540   5.475   2.113   6.539
    1STR    H2C 8541   5.365   1.985   6.594
    1STR   BCK1 8542   5.434   2.246   1.562
    1STR    O03 8543   5.552   2.276   1.568
    1STR    N04 8544   5.359   2.193   1.658
    1STR    C05 8545   5.384   2.196   1.795
    1STR    C06 8546   5.507   2.233   1.852
    1STR    C07 8547   5.514   2.268   1.989
    1STR    N08 8548   5.625   2.336   2.034
    1STR    C09 8549   5.602   2.466   2.036
    1STR    O0A 8550   5.533   2.524   2.120
    1STR    O0B 8551   5.652   2.521   1.927
    1STR    C0C 8552   5.575   2.611   1.852
    1STR    C0D 8553   5.672   2.680   1.758
    1STR    C0E 8554   5.469   2.533   1.774
    1STR    O0F 8555   5.367   2.471   1.854
    1STR    C0G 8556   5.244   2.536   1.857
    1STR    C0H 8557   5.130   2.458   1.918
    1STR    C0I 8558   5.268   2.661   1.937
    1STR    O0J 8559   5.300   2.763   1.846
    1STR    C0K 8560   5.209   2.796   1.742
    1STR    C0M 8561   5.273   2.770   1.607
    1STR    C0N 8562   5.056   2.766   1.753
    1STR    O0O 8563   5.022   2.762   1.889
    1STR    C0P 8564   4.900   2.773   1.938
    1STR    O0Q 8565   4.799   2.730   1.885
    1STR    N0R 8566   4.902   2.843   2.053
    1STR    C0S 8567   5.008   2.929   2.075
    1STR    C0T 8568   5.118   2.891   2.152
    1STR    C0U 8569   5.245   2.936   2.113
    1STR    C0V 8570   5.262   3.008   1.994
    1STR    C0W 8571   5.403   3.020   1.944
    1STR    C0X 8572   5.149   3.059   1.924
    1STR    N0Y 8573   5.159   3.113   1.795
    1STR   BCK2 8574   5.057   3.121   1.709
    1STR    O10 8575   4.946   3.163   1.738
    1STR    C13 8576   5.023   3.026   1.976
    1STR    C14 8577   5.400   2.260   2.070
    1STR    C15 8578   5.280   2.212   2.016
    1STR    C16 8579   5.273   2.177   1.880
    1STR    C17 8580   5.147   2.115   1.830
    1STR    H1B 8581   5.264   2.167   1.634
    1STR    H1C 8582   5.596   2.246   1.792
    1STR    H1D 8583   5.708   2.305   1.984
    1STR    H1E 8584   5.531   2.686   1.917
    1STR    H1F 8585   5.723   2.606   1.696
    1STR    H1G 8586   5.619   2.750   1.692
    1STR    H1H 8587   5.746   2.736   1.814
    1STR    H1I 8588   5.521   2.454   1.722
    1STR    H1J 8589   5.427   2.592   1.694
    1STR    H1K 8590   5.214   2.552   1.754
    1STR    H1M 8591   5.151   2.430   2.021
    1STR    H1N 8592   5.109   2.371   1.857
    1STR    H1O 8593   5.039   2.518   1.919
    1STR    H1P 8594   5.187   2.684   2.005
    1STR    H1Q 8595   5.348   2.646   2.008
    1STR    H1R 8596   5.220   2.901   1.746
    1STR    H1S 8597   5.232   2.838   1.535
    1STR    H1T 8598   5.259   2.668   1.572
    1STR    H1U 8599   5.380   2.792   1.614
    1STR    H1V 8600   5.027   2.674   1.705
    1STR    H1W 8601   4.998   2.846   1.709
    1STR    H1X 8602   4.816   2.851   2.103
    1STR    H1Y 8603   5.109   2.816   2.228
    1STR    H1Z 8604   5.332   2.902   2.167
    1STR    H20 8605   5.407   3.026   1.836
    1STR    H21 8606   5.453   3.103   1.992
    1STR    H22 8607   5.459   2.930   1.971
    1STR    H23 8608   5.252   3.112   1.756
    1STR    H27 8609   4.932   3.048   1.924
    1STR    H28 8610   5.404   2.294   2.172
    1STR    H29 8611   5.194   2.204   2.079
    1STR    H2A 8612   5.097   2.182   1.760
    1STR    H2B 8613   5.081   2.089   1.911
    1STR    H2C 8614   5.175   2.022   1.780
    1STR   BCK1 8615   5.296   2.150   3.548
    1STR    O03 8616   5.293   2.270   3.569
    1STR    N04 8617   5.387   2.085   3.476
    1STR    C05 8618   5.479   2.141   3.390
    1STR    C06 8619   5.446   2.254   3.317
    1STR    C07 8620   5.541   2.319   3.237
    1STR    N08 8621   5.505   2.445   3.195
    1STR    C09 8622   5.401   2.453   3.113
    1STR    O0A 8623   5.400   2.400   3.002
    1STR    O0B 8624   5.290   2.512   3.163
    1STR    C0C 8625   5.281   2.604   3.272
    1STR    C0D 8626   5.139   2.653   3.255
    1STR    C0E 8627   5.296   2.553   3.417
    1STR    O0F 8628   5.422   2.496   3.431
    1STR    C0G 8629   5.493   2.526   3.548
    1STR    C0H 8630   5.602   2.423   3.565
    1STR    C0I 8631   5.553   2.661   3.518
    1STR    O0J 8632   5.476   2.765   3.575
    1STR    C0K 8633   5.485   2.792   3.714
    1STR    C0M 8634   5.346   2.759   3.768
    1STR    C0N 8635   5.602   2.735   3.800
    1STR    O0O 8636   5.730   2.726   3.738
    1STR    C0P 8637   5.800   2.835   3.712
    1STR    O0Q 8638   5.800   2.936   3.780
    1STR    N0R 8639   5.847   2.829   3.587
    1STR    C0S 8640   5.779   2.889   3.482
    1STR    C0T 8641   5.807   2.860   3.348
    1STR    C0U 8642   5.718   2.903   3.248
    1STR    C0V 8643   5.598   2.970   3.280
    1STR    C0W 8644   5.509   3.016   3.169
    1STR    C0X 8645   5.569   2.997   3.415
    1STR    N0Y 8646   5.458   3.058   3.471
    1STR   BCK2 8647   5.327   3.041   3.463
    1STR    O10 8648   5.258   3.095   3.547
    1STR    C13 8649   5.665   2.965   3.510
    1STR    C14 8650   5.669   2.264   3.222
    1STR    C15 8651   5.698   2.141   3.285
    1STR    C16 8652   5.602   2.080   3.368
    1STR    C17 8653   5.627   1.948   3.432
    1STR    H1B 8654   5.369   1.988   3.462
    1STR    H1C 8655   5.349   2.297   3.330
    1STR    H1D 8656   5.487   2.495   3.282
    1STR    H1E 8657   5.352   2.686   3.258
    1STR    H1F 8658   5.070   2.569   3.242
    1STR    H1G 8659   5.108   2.706   3.344
    1STR    H1H 8660   5.132   2.718   3.169
    1STR    H1I 8661   5.221   2.479   3.443
    1STR    H1J 8662   5.282   2.636   3.486
    1STR    H1K 8663   5.429   2.524   3.636
    1STR    H1M 8664   5.672   2.423   3.481
    1STR    H1N 8665   5.558   2.324   3.570
    1STR    H1O 8666   5.656   2.441   3.657
    1STR    H1P 8667   5.657   2.662   3.542
    1STR    H1Q 8668   5.554   2.680   3.411
    1STR    H1R 8669   5.491   2.900   3.721
    1STR    H1S 8670   5.337   2.792   3.871
    1STR    H1T 8671   5.324   2.653   3.766
    1STR    H1U 8672   5.271   2.811   3.708
    1STR    H1V 8673   5.575   2.634   3.831
    1STR    H1W 8674   5.610   2.793   3.892
    1STR    H1X 8675   5.895   2.743   3.567
    1STR    H1Y 8676   5.894   2.804   3.322
    1STR    H1Z 8677   5.741   2.884   3.145
    1STR    H20 8678   5.568   3.035   3.080
    1STR    H21 8679   5.435   2.941   3.146
    1STR    H22 8680   5.460   3.108   3.200
    1STR    H23 8681   5.478   3.101   3.560
    1STR    H27 8682   5.643   2.986   3.611
    1STR    H28 8683   5.744   2.313   3.164
    1STR    H29 8684   5.794   2.095   3.269
    1STR    H2A 8685   5.604   1.950   3.537
    1STR    H2B 8686   5.727   1.911   3.409
    1STR    H2C 8687   5.551   1.882   3.392
    1STR   BCK1 8688   5.474   2.207   5.343
    1STR    O03 8689   5.589   2.221   5.381
    1STR    N04 8690   5.378   2.190   5.432
    1STR    C05 8691   5.241   2.212   5.429
    1STR    C06 8692   5.184   2.300   5.338
    1STR    C07 8693   5.056   2.350   5.360
    1STR    N08 8694   5.032   2.484   5.339
    1STR    C09 8695   5.113   2.580   5.382
    1STR    O0A 8696   5.073   2.694   5.398
    1STR    O0B 8697   5.234   2.537   5.422
    1STR    C0C 8698   5.348   2.619   5.427
    1STR    C0D 8699   5.407   2.591   5.564
    1STR    C0E 8700   5.449   2.583   5.317
    1STR    O0F 8701   5.397   2.498   5.217
    1STR    C0G 8702   5.371   2.558   5.093
    1STR    C0H 8703   5.366   2.451   4.990
    1STR    C0I 8704   5.238   2.627   5.093
    1STR    O0J 8705   5.272   2.742   5.164
    1STR    C0K 8706   5.187   2.852   5.162
    1STR    C0M 8707   5.287   2.951   5.217
    1STR    C0N 8708   5.136   2.886   5.022
    1STR    O0O 8709   4.996   2.870   5.002
    1STR    C0P 8710   4.928   2.763   5.044
    1STR    O0Q 8711   4.943   2.652   4.995
    1STR    N0R 8712   4.840   2.785   5.142
    1STR    C0S 8713   4.839   2.894   5.229
    1STR    C0T 8714   4.824   2.870   5.365
    1STR    C0U 8715   4.891   2.951   5.456
    1STR    C0V 8716   4.978   3.047   5.410
    1STR    C0W 8717   5.098   3.070   5.497
    1STR    C0X 8718   4.965   3.094   5.278
    1STR    N0Y 8719   5.048   3.196   5.236
    1STR   BCK2 8720   5.092   3.233   5.116
    1STR    O10 8721   5.196   3.293   5.107
    1STR    C13 8722   4.884   3.020   5.191
    1STR    C14 8723   4.969   2.284   5.448
    1STR    C15 8724   5.024   2.195   5.539
    1STR    C16 8725   5.162   2.172   5.536
    1STR    C17 8726   5.227   2.115   5.656
    1STR    H1B 8727   5.414   2.164   5.522
    1STR    H1C 8728   5.245   2.350   5.266
    1STR    H1D 8729   4.934   2.509   5.320
    1STR    H1E 8730   5.319   2.724   5.416
    1STR    H1F 8731   5.433   2.485   5.571
    1STR    H1G 8732   5.497   2.650   5.579
    1STR    H1H 8733   5.336   2.613   5.642
    1STR    H1I 8734   5.531   2.526   5.359
    1STR    H1J 8735   5.494   2.674   5.275
    1STR    H1K 8736   5.451   2.626   5.064
    1STR    H1M 8737   5.285   2.381   5.009
    1STR    H1N 8738   5.461   2.399   4.992
    1STR    H1O 8739   5.352   2.495   4.891
    1STR    H1P 8740   5.209   2.643   4.990
    1STR    H1Q 8741   5.159   2.568   5.137
    1STR    H1R 8742   5.105   2.843   5.231
    1STR    H1S 8743   5.245   3.049   5.235
    1STR    H1T 8744   5.372   2.963   5.152
    1STR    H1U 8745   5.325   2.915   5.312
    1STR    H1V 8746   5.189   2.835   4.945
    1STR    H1W 8747   5.160   2.990   5.008
    1STR    H1X 8748   4.806   2.697   5.180
    1STR    H1Y 8749   4.779   2.781   5.402
    1STR    H1Z 8750   4.895   2.925   5.559
    1STR    H20 8751   5.145   2.975   5.521
    1STR    H21 8752   5.175   3.124   5.444
    1STR    H22 8753   5.072   3.120   5.590
    1STR    H23 8754   5.097   3.241   5.313
    1STR    H27 8755   4.877   3.041   5.087
    1STR    H28 8756   4.867   2.314   5.456
    1STR    H29 8757   4.962   2.153   5.616
    1STR    H2A 8758   5.257   2.016   5.623
    1STR    H2B 8759   5.161   2.111   5.741
    1STR    H2C 8760   5.311   2.178   5.683
    1STR   BCK1 8761   5.279   4.096   7.138
    1STR    O03 8762   5.369   4.138   7.066
    1STR    N04 8763   5.295   4.029   0.062
    1STR    C05 8764   5.417   3.997   0.116
    1STR    C06 8765   5.463   4.062   0.231
    1STR    C07 8766   5.601   4.066   0.256
    1STR    N08 8767   5.655   4.192   0.276
    1STR    C09 8768   5.747   4.240   0.193
    1STR    O0A 8769   5.851   4.182   0.164
    1STR    O0B 8770   5.721   4.363   0.146
    1STR    C0C 8771   5.612   4.401   0.062
    1STR    C0D 8772   5.650   4.395   7.106
    1STR    C0E 8773   5.486   4.323   0.081
    1STR    O0F 8774   5.452   4.340   0.218
    1STR    C0G 8775   5.316   4.366   0.238
    1STR    C0H 8776   5.277   4.329   0.380
    1STR    C0I 8777   5.311   4.514   0.219
    1STR    O0J 8778   5.341   4.554   0.087
    1STR    C0K 8779   5.235   4.571   7.186
    1STR    C0M 8780   5.303   4.566   7.050
    1STR    C0N 8781   5.107   4.483   0.005
    1STR    O0O 8782   5.036   4.503   0.127
    1STR    C0P 8783   4.966   4.615   0.141
    1STR    O0Q 8784   4.895   4.663   0.054
    1STR    N0R 8785   5.001   4.678   0.253
    1STR    C0S 8786   5.103   4.773   0.246
    1STR    C0T 8787   5.211   4.763   0.334
    1STR    C0U 8788   5.330   4.832   0.309
    1STR    C0V 8789   5.342   4.910   0.194
    1STR    C0W 8790   5.463   4.996   0.184
    1STR    C0X 8791   5.238   4.912   0.100
    1STR    N0Y 8792   5.267   4.943   7.159
    1STR   BCK2 8793   5.210   4.889   7.051
    1STR    O10 8794   5.107   4.822   7.049
    1STR    C13 8795   5.114   4.857   0.136
    1STR    C14 8796   5.680   3.962   0.209
    1STR    C15 8797   5.628   3.881   0.109
    1STR    C16 8798   5.505   3.911   0.050
    1STR    C17 8799   5.464   3.845   7.114
    1STR    H1B 8800   5.212   3.990   0.104
    1STR    H1C 8801   5.395   4.129   0.277
    1STR    H1D 8802   5.580   4.259   0.294
    1STR    H1E 8803   5.589   4.505   0.086
    1STR    H1F 8804   5.655   4.291   7.072
    1STR    H1G 8805   5.576   4.443   7.043
    1STR    H1H 8806   5.745   4.443   7.089
    1STR    H1I 8807   5.507   4.222   0.053
    1STR    H1J 8808   5.409   4.353   0.011
    1STR    H1K 8809   5.252   4.312   0.168
    1STR    H1M 8810   5.354   4.355   0.451
    1STR    H1N 8811   5.257   4.222   0.389
    1STR    H1O 8812   5.184   4.378   0.409
    1STR    H1P 8813   5.214   4.543   0.253
    1STR    H1Q 8814   5.384   4.561   0.285
    1STR    H1R 8815   5.204   4.672   0.011
    1STR    H1S 8816   5.235   4.600   6.972
    1STR    H1T 8817   5.336   4.466   7.025
    1STR    H1U 8818   5.389   4.633   7.050
    1STR    H1V 8819   5.131   4.379   7.184
    1STR    H1W 8820   5.041   4.508   7.112
    1STR    H1X 8821   5.007   4.614   0.330
    1STR    H1Y 8822   5.207   4.701   0.422
    1STR    H1Z 8823   5.411   4.829   0.379
    1STR    H20 8824   5.472   5.045   0.090
    1STR    H21 8825   5.453   5.076   0.256
    1STR    H22 8826   5.553   4.942   0.211
    1STR    H23 8827   5.349   5.000   7.144
    1STR    H27 8828   5.032   4.864   0.068
    1STR    H28 8829   5.783   3.954   0.240
    1STR    H29 8830   5.683   3.796   0.077
    1STR    H2A 8831   5.366   3.804   7.134
    1STR    H2B 8832   5.536   3.770   7.090
    1STR    H2C 8833   5.460   3.916   7.032
    1STR   BCK1 8834   5.399   3.971   1.794
    1STR    O03 8835   5.447   3.970   1.905
    1STR    N04 8836   5.470   3.926   1.692
    1STR    C05 8837   5.528   4.014   1.605
    1STR    C06 8838   5.445   4.103   1.539
    1STR    C07 8839   5.489   4.201   1.453
    1STR    N08 8840   5.408   4.312   1.439
    1STR    C09 8841   5.276   4.308   1.422
    1STR    O0A 8842   5.216   4.216   1.367
    1STR    O0B 8843   5.220   4.418   1.471
    1STR    C0C 8844   5.108   4.413   1.562
    1STR    C0D 8845   4.982   4.344   1.510
    1STR    C0E 8846   5.147   4.368   1.704
    1STR    O0F 8847   5.278   4.310   1.703
    1STR    C0G 8848   5.371   4.367   1.793
    1STR    C0H 8849   5.507   4.299   1.779
    1STR    C0I 8850   5.382   4.514   1.758
    1STR    O0J 8851   5.517   4.547   1.744
    1STR    C0K 8852   5.528   4.681   1.715
    1STR    C0M 8853   5.557   4.749   1.846
    1STR    C0N 8854   5.625   4.689   1.599
    1STR    O0O 8855   5.553   4.626   1.494
    1STR    C0P 8856   5.581   4.665   1.374
    1STR    O0Q 8857   5.692   4.699   1.336
    1STR    N0R 8858   5.470   4.670   1.300
    1STR    C0S 8859   5.429   4.796   1.262
    1STR    C0T 8860   5.527   4.880   1.205
    1STR    C0U 8861   5.583   4.978   1.287
    1STR    C0V 8862   5.535   4.994   1.418
    1STR    C0W 8863   5.616   5.081   1.509
    1STR    C0X 8864   5.417   4.929   1.458
    1STR    N0Y 8865   5.374   4.944   1.588
    1STR   BCK2 8866   5.274   4.898   1.664
    1STR    O10 8867   5.256   4.946   1.774
    1STR    C13 8868   5.352   4.846   1.366
    1STR    C14 8869   5.624   4.194   1.415
    1STR    C15 8870   5.711   4.103   1.475
    1STR    C16 8871   5.664   4.016   1.574
    1STR    C17 8872   5.760   3.931   1.650
    1STR    H1B 8873   5.402   3.876   1.632
    1STR    H1C 8874   5.345   4.106   1.568
    1STR    H1D 8875   5.440   4.392   1.493
    1STR    H1E 8876   5.078   4.517   1.571
    1STR    H1F 8877   4.902   4.352   1.584
    1STR    H1G 8878   4.945   4.393   1.420
    1STR    H1H 8879   4.995   4.238   1.487
    1STR    H1I 8880   5.077   4.296   1.745
    1STR    H1J 8881   5.139   4.453   1.772
    1STR    H1K 8882   5.337   4.355   1.896
    1STR    H1M 8883   5.549   4.313   1.680
    1STR    H1N 8884   5.503   4.194   1.802
    1STR    H1O 8885   5.578   4.341   1.850
    1STR    H1P 8886   5.335   4.534   1.661
    1STR    H1Q 8887   5.331   4.576   1.832
    1STR    H1R 8888   5.435   4.721   1.677
    1STR    H1S 8889   5.504   4.702   1.928
    1STR    H1T 8890   5.519   4.851   1.844
    1STR    H1U 8891   5.663   4.747   1.869
    1STR    H1V 8892   5.719   4.637   1.619
    1STR    H1W 8893   5.646   4.793   1.576
    1STR    H1X 8894   5.399   4.622   1.352
    1STR    H1Y 8895   5.580   4.852   1.116
    1STR    H1Z 8896   5.666   5.035   1.253
    1STR    H20 8897   5.568   5.100   1.604
    1STR    H21 8898   5.711   5.032   1.531
    1STR    H22 8899   5.636   5.178   1.463
    1STR    H23 8900   5.429   5.009   1.640
    1STR    H27 8901   5.264   4.791   1.393
    1STR    H28 8902   5.669   4.258   1.345
    1STR    H29 8903   5.814   4.103   1.445
    1STR    H2A 8904   5.800   3.990   1.732
    1STR    H2B 8905   5.839   3.895   1.585
    1STR    H2C 8906   5.703   3.849   1.690
    1STR   BCK1 8907   5.254   4.011   3.420
    1STR    O03 8908   5.368   4.032   3.450
    1STR    N04 8909   5.157   3.966   3.500
    1STR    C05 8910   5.152   3.973   3.637
    1STR    C06 8911   5.263   4.012   3.712
    1STR    C07 8912   5.249   4.059   3.841
    1STR    N08 8913   5.359   4.119   3.898
    1STR    C09 8914   5.392   4.235   3.844
    1STR    O0A 8915   5.344   4.343   3.877
    1STR    O0B 8916   5.478   4.211   3.746
    1STR    C0C 8917   5.496   4.308   3.645
    1STR    C0D 8918   5.633   4.285   3.584
    1STR    C0E 8919   5.388   4.307   3.535
    1STR    O0F 8920   5.264   4.253   3.577
    1STR    C0G 8921   5.154   4.322   3.522
    1STR    C0H 8922   5.031   4.238   3.492
    1STR    C0I 8923   5.119   4.425   3.627
    1STR    O0J 8924   5.120   4.553   3.571
    1STR    C0K 8925   5.028   4.581   3.466
    1STR    C0M 8926   5.091   4.576   3.327
    1STR    C0N 8927   4.878   4.549   3.483
    1STR    O0O 8928   4.850   4.520   3.619
    1STR    C0P 8929   4.750   4.579   3.684
    1STR    O0Q 8930   4.638   4.597   3.640
    1STR    N0R 8931   4.793   4.630   3.799
    1STR    C0S 8932   4.899   4.717   3.788
    1STR    C0T 8933   5.016   4.696   3.861
    1STR    C0U 8934   5.137   4.748   3.815
    1STR    C0V 8935   5.138   4.823   3.697
    1STR    C0W 8936   5.266   4.841   3.626
    1STR    C0X 8937   5.019   4.862   3.635
    1STR    N0Y 8938   5.032   4.925   3.512
    1STR   BCK2 8939   4.962   4.906   3.402
    1STR    O10 8940   5.023   4.883   3.299
    1STR    C13 8941   4.899   4.809   3.681
    1STR    C14 8942   5.129   4.034   3.909
    1STR    C15 8943   5.018   3.987   3.839
    1STR    C16 8944   5.026   3.964   3.701
    1STR    C17 8945   4.900   3.934   3.623
    1STR    H1B 8946   5.067   3.952   3.458
    1STR    H1C 8947   5.360   4.022   3.668
    1STR    H1D 8948   5.438   4.058   3.882
    1STR    H1E 8949   5.492   4.404   3.695
    1STR    H1F 8950   5.642   4.183   3.546
    1STR    H1G 8951   5.651   4.353   3.501
    1STR    H1H 8952   5.710   4.302   3.658
    1STR    H1I 8953   5.422   4.255   3.447
    1STR    H1J 8954   5.374   4.406   3.499
    1STR    H1K 8955   5.184   4.365   3.428
    1STR    H1M 8956   4.999   4.184   3.580
    1STR    H1N 8957   5.045   4.170   3.409
    1STR    H1O 8958   4.946   4.297   3.462
    1STR    H1P 8959   5.028   4.398   3.680
    1STR    H1Q 8960   5.194   4.426   3.706
    1STR    H1R 8961   5.029   4.685   3.479
    1STR    H1S 8962   5.034   4.638   3.258
    1STR    H1T 8963   5.095   4.477   3.283
    1STR    H1U 8964   5.192   4.617   3.332
    1STR    H1V 8965   4.846   4.467   3.419
    1STR    H1W 8966   4.820   4.635   3.450
    1STR    H1X 8967   4.807   4.556   3.865
    1STR    H1Y 8968   5.022   4.629   3.943
    1STR    H1Z 8969   5.229   4.720   3.864
    1STR    H20 8970   5.261   4.773   3.542
    1STR    H21 8971   5.271   4.939   3.584
    1STR    H22 8972   5.350   4.821   3.691
    1STR    H23 8973   5.128   4.941   3.487
    1STR    H27 8974   4.807   4.827   3.629
    1STR    H28 8975   5.124   4.048   4.015
    1STR    H29 8976   4.925   3.973   3.891
    1STR    H2A 8977   4.851   4.025   3.590
    1STR    H2B 8978   4.832   3.878   3.686
    1STR    H2C 8979   4.920   3.873   3.535
    1STR   BCK1 8980   5.347   4.145   5.068
    1STR    O03 8981   5.415   4.113   4.971
    1STR    N04 8982   5.358   4.095   5.191
    1STR    C05 8983   5.463   4.024   5.248
    1STR    C06 8984   5.592   4.032   5.193
    1STR    C07 8985   5.692   4.072   5.281
    1STR    N08 8986   5.786   4.163   5.235
    1STR    C09 8987   5.800   4.280   5.296
    1STR    O0A 8988   5.839   4.293   5.412
    1STR    O0B 8989   5.761   4.386   5.223
    1STR    C0C 8990   5.628   4.397   5.173
    1STR    C0D 8991   5.608   4.343   5.030
    1STR    C0E 8992   5.528   4.332   5.267
    1STR    O0F 8993   5.566   4.303   5.399
    1STR    C0G 8994   5.486   4.357   5.496
    1STR    C0H 8995   5.533   4.293   5.623
    1STR    C0I 8996   5.511   4.507   5.491
    1STR    O0J 8997   5.480   4.564   5.365
    1STR    C0K 8998   5.348   4.552   5.311
    1STR    C0M 8999   5.335   4.550   5.158
    1STR    C0N 9000   5.223   4.506   5.391
    1STR    O0O 9001   5.230   4.485   5.531
    1STR    C0P 9002   5.211   4.575   5.630
    1STR    O0Q 9003   5.164   4.543   5.738
    1STR    N0R 9004   5.258   4.698   5.621
    1STR    C0S 9005   5.312   4.773   5.522
    1STR    C0T 9006   5.446   4.812   5.527
    1STR    C0U 9007   5.503   4.877   5.417
    1STR    C0V 9008   5.425   4.899   5.302
    1STR    C0W 9009   5.488   4.939   5.173
    1STR    C0X 9010   5.288   4.870   5.302
    1STR    N0Y 9011   5.230   4.861   5.178
    1STR   BCK2 9012   5.131   4.783   5.138
    1STR    O10 9013   5.058   4.717   5.210
    1STR    C13 9014   5.229   4.817   5.418
    1STR    C14 9015   5.682   4.036   5.416
    1STR    C15 9016   5.563   3.977   5.460
    1STR    C16 9017   5.449   3.983   5.381
    1STR    C17 9018   5.316   3.955   5.444
    1STR    H1B 9019   5.277   4.106   5.251
    1STR    H1C 9020   5.605   4.049   5.088
    1STR    H1D 9021   5.798   4.163   5.132
    1STR    H1E 9022   5.604   4.502   5.172
    1STR    H1F 9023   5.611   4.236   5.028
    1STR    H1G 9024   5.514   4.371   4.984
    1STR    H1H 9025   5.684   4.359   4.957
    1STR    H1I 9026   5.530   4.244   5.220
    1STR    H1J 9027   5.422   4.340   5.255
    1STR    H1K 9028   5.384   4.327   5.478
    1STR    H1M 9029   5.641   4.283   5.619
    1STR    H1N 9030   5.491   4.193   5.631
    1STR    H1O 9031   5.504   4.352   5.710
    1STR    H1P 9032   5.461   4.555   5.573
    1STR    H1Q 9033   5.617   4.525   5.508
    1STR    H1R 9034   5.342   4.653   5.313
    1STR    H1S 9035   5.381   4.637   5.113
    1STR    H1T 9036   5.230   4.548   5.130
    1STR    H1U 9037   5.376   4.465   5.108
    1STR    H1V 9038   5.193   4.410   5.350
    1STR    H1W 9039   5.137   4.570   5.372
    1STR    H1X 9040   5.257   4.743   5.711
    1STR    H1Y 9041   5.508   4.789   5.612
    1STR    H1Z 9042   5.607   4.902   5.421
    1STR    H20 9043   5.463   4.871   5.092
    1STR    H21 9044   5.454   5.038   5.149
    1STR    H22 9045   5.594   4.943   5.179
    1STR    H23 9046   5.278   4.907   5.103
    1STR    H27 9047   5.126   4.786   5.423
    1STR    H28 9048   5.764   4.052   5.483
    1STR    H29 9049   5.555   3.941   5.558
    1STR    H2A 9050   5.251   4.041   5.436
    1STR    H2B 9051   5.326   3.930   5.549
    1STR    H2C 9052   5.270   3.870   5.395
    1STR   BCK1 9053   5.502   5.845   6.813
    1STR    O03 9054   5.622   5.870   6.812
    1STR    N04 9055   5.422   5.909   6.730
    1STR    C05 9056   5.285   5.918   6.718
    1STR    C06 9057   5.205   5.971   6.821
    1STR    C07 9058   5.065   5.979   6.809
    1STR    N08 9059   4.990   5.983   6.924
    1STR    C09 9060   4.972   6.096   6.985
    1STR    O0A 9061   4.882   6.172   6.957
    1STR    O0B 9062   5.069   6.117   7.069
    1STR    C0C 9063   5.121   6.245   7.084
    1STR    C0D 9064   5.083   6.302   0.029
    1STR    C0E 9065   5.268   6.239   7.042
    1STR    O0F 9066   5.280   6.272   6.903
    1STR    C0G 9067   5.382   6.214   6.822
    1STR    C0H 9068   5.318   6.205   6.683
    1STR    C0I 9069   5.521   6.277   6.801
    1STR    O0J 9070   5.570   6.361   6.902
    1STR    C0K 9071   5.492   6.476   6.925
    1STR    C0M 9072   5.569   6.554   7.027
    1STR    C0N 9073   5.445   6.559   6.802
    1STR    O0O 9074   5.350   6.487   6.722
    1STR    C0P 9075   5.222   6.522   6.705
    1STR    O0Q 9076   5.183   6.612   6.633
    1STR    N0R 9077   5.139   6.442   6.772
    1STR    C0S 9078   5.072   6.493   6.881
    1STR    C0T 9079   4.933   6.498   6.898
    1STR    C0U 9080   4.877   6.557   7.013
    1STR    C0V 9081   4.959   6.623   7.106
    1STR    C0W 9082   4.905   6.692   0.036
    1STR    C0X 9083   5.096   6.625   7.081
    1STR    N0Y 9084   5.179   6.723   7.125
    1STR   BCK2 9085   5.247   6.796   7.036
    1STR    O10 9086   5.358   6.831   7.063
    1STR    C13 9087   5.150   6.546   6.981
    1STR    C14 9088   5.007   5.948   6.686
    1STR    C15 9089   5.087   5.903   6.580
    1STR    C16 9090   5.225   5.884   6.597
    1STR    C17 9091   5.307   5.825   6.486
    1STR    H1B 9092   5.472   5.962   6.659
    1STR    H1C 9093   5.248   5.999   6.914
    1STR    H1D 9094   5.029   5.927   7.002
    1STR    H1E 9095   5.069   6.306   7.014
    1STR    H1F 9096   5.123   6.247   0.112
    1STR    H1G 9097   5.119   6.404   0.039
    1STR    H1H 9098   4.975   6.305   0.041
    1STR    H1I 9099   5.305   6.139   7.062
    1STR    H1J 9100   5.325   6.307   7.104
    1STR    H1K 9101   5.406   6.117   6.864
    1STR    H1M 9102   5.212   6.179   6.685
    1STR    H1N 9103   5.371   6.133   6.622
    1STR    H1O 9104   5.324   6.293   6.621
    1STR    H1P 9105   5.593   6.196   6.790
    1STR    H1Q 9106   5.528   6.329   6.706
    1STR    H1R 9107   5.408   6.442   6.981
    1STR    H1S 9108   5.502   6.628   7.070
    1STR    H1T 9109   5.657   6.601   6.984
    1STR    H1U 9110   5.600   6.489   7.109
    1STR    H1V 9111   5.531   6.583   6.741
    1STR    H1W 9112   5.406   6.654   6.834
    1STR    H1X 9113   5.199   6.364   6.804
    1STR    H1Y 9114   4.872   6.459   6.821
    1STR    H1Z 9115   4.772   6.560   7.031
    1STR    H20 9116   4.941   6.642   0.125
    1STR    H21 9117   4.942   6.794   0.037
    1STR    H22 9118   4.796   6.694   0.036
    1STR    H23 9119   5.223   6.714   0.026
    1STR    H27 9120   5.255   6.551   6.970
    1STR    H28 9121   4.900   5.955   6.678
    1STR    H29 9122   5.046   5.880   6.484
    1STR    H2A 9123   5.378   5.752   6.526
    1STR    H2B 9124   5.363   5.905   6.436
    1STR    H2C 9125   5.244   5.775   6.413
    1STR   BCK1 9126   5.325   5.856   1.445
    1STR    O03 9127   5.409   5.945   1.442
    1STR    N04 9128   5.311   5.769   1.544
    1STR    C05 9129   5.362   5.778   1.672
    1STR    C06 9130   5.494   5.816   1.698
    1STR    C07 9131   5.534   5.858   1.826
    1STR    N08 9132   5.656   5.921   1.837
    1STR    C09 9133   5.656   6.049   1.868
    1STR    O0A 9134   5.616   6.095   1.974
    1STR    O0B 9135   5.692   6.120   1.764
    1STR    C0C 9136   5.602   6.220   1.720
    1STR    C0D 9137   5.683   6.323   1.643
    1STR    C0E 9138   5.498   6.154   1.629
    1STR    O0F 9139   5.405   6.068   1.694
    1STR    C0G 9140   5.281   6.125   1.727
    1STR    C0H 9141   5.159   6.038   1.724
    1STR    C0I 9142   5.296   6.185   1.864
    1STR    O0J 9143   5.325   6.320   1.853
    1STR    C0K 9144   5.224   6.395   1.789
    1STR    C0M 9145   5.249   6.421   1.640
    1STR    C0N 9146   5.078   6.385   1.839
    1STR    O0O 9147   5.066   6.334   1.972
    1STR    C0P 9148   5.036   6.401   2.084
    1STR    O0Q 9149   4.957   6.356   2.166
    1STR    N0R 9150   5.100   6.512   2.118
    1STR    C0S 9151   5.193   6.585   2.052
    1STR    C0T 9152   5.330   6.569   2.076
    1STR    C0U 9153   5.420   6.625   1.985
    1STR    C0V 9154   5.374   6.684   1.867
    1STR    C0W 9155   5.473   6.672   1.755
    1STR    C0X 9156   5.235   6.710   1.848
    1STR    N0Y 9157   5.180   6.732   1.721
    1STR   BCK2 9158   5.051   6.719   1.685
    1STR    O10 9159   4.954   6.745   1.755
    1STR    C13 9160   5.148   6.667   1.950
    1STR    C14 9161   5.439   5.858   1.929
    1STR    C15 9162   5.314   5.802   1.907
    1STR    C16 9163   5.274   5.762   1.780
    1STR    C17 9164   5.130   5.729   1.763
    1STR    H1B 9165   5.241   5.695   1.532
    1STR    H1C 9166   5.561   5.830   1.617
    1STR    H1D 9167   5.716   5.896   1.760
    1STR    H1E 9168   5.553   6.269   1.805
    1STR    H1F 9169   5.733   6.277   1.558
    1STR    H1G 9170   5.619   6.403   1.608
    1STR    H1H 9171   5.759   6.367   1.708
    1STR    H1I 9172   5.554   6.090   1.561
    1STR    H1J 9173   5.447   6.226   1.565
    1STR    H1K 9174   5.256   6.189   1.646
    1STR    H1M 9175   5.151   5.980   1.814
    1STR    H1N 9176   5.157   5.975   1.635
    1STR    H1O 9177   5.069   6.099   1.722
    1STR    H1P 9178   5.208   6.170   1.924
    1STR    H1Q 9179   5.376   6.136   1.919
    1STR    H1R 9180   5.262   6.481   1.832
    1STR    H1S 9181   5.231   6.523   1.613
    1STR    H1T 9182   5.186   6.363   1.573
    1STR    H1U 9183   5.354   6.406   1.616
    1STR    H1V 9184   5.026   6.315   1.775
    1STR    H1W 9185   5.025   6.479   1.826
    1STR    H1X 9186   5.080   6.538   2.214
    1STR    H1Y 9187   5.367   6.508   2.155
    1STR    H1Z 9188   5.525   6.604   1.998
    1STR    H20 9189   5.482   6.568   1.726
    1STR    H21 9190   5.445   6.728   1.669
    1STR    H22 9191   5.570   6.706   1.789
    1STR    H23 9192   5.243   6.722   1.641
    1STR    H27 9193   5.042   6.672   1.943
    1STR    H28 9194   5.459   5.897   2.027
    1STR    H29 9195   5.244   5.792   1.987
    1STR    H2A 9196   5.093   5.761   1.666
    1STR    H2B 9197   5.068   5.784   1.830
    1STR    H2C 9198   5.111   5.626   1.784
    1STR   BCK1 9199   5.223   5.690   3.462
    1STR    O03 9200   5.226   5.735   3.575
    1STR    N04 9201   5.330   5.636   3.406
    1STR    C05 9202   5.433   5.720   3.370
    1STR    C06 9203   5.403   5.853   3.349
    1STR    C07 9204   5.494   5.945   3.300
    1STR    N08 9205   5.452   6.076   3.310
    1STR    C09 9206   5.332   6.100   3.262
    1STR    O0A 9207   5.306   6.098   3.142
    1STR    O0B 9208   5.235   6.101   3.356
    1STR    C0C 9209   5.251   6.142   3.491
    1STR    C0D 9210   5.105   6.152   3.535
    1STR    C0E 9211   5.320   6.050   3.594
    1STR    O0F 9212   5.447   5.997   3.567
    1STR    C0G 9213   5.557   6.044   3.640
    1STR    C0H 9214   5.666   5.940   3.631
    1STR    C0I 9215   5.612   6.161   3.565
    1STR    O0J 9216   5.523   6.269   3.569
    1STR    C0K 9217   5.516   6.348   3.687
    1STR    C0M 9218   5.383   6.342   3.757
    1STR    C0N 9219   5.638   6.359   3.784
    1STR    O0O 9220   5.770   6.337   3.733
    1STR    C0P 9221   5.826   6.427   3.655
    1STR    O0Q 9222   5.877   6.531   3.694
    1STR    N0R 9223   5.797   6.402   3.527
    1STR    C0S 9224   5.720   6.491   3.457
    1STR    C0T 9225   5.709   6.486   3.317
    1STR    C0U 9226   5.631   6.582   3.251
    1STR    C0V 9227   5.546   6.660   3.329
    1STR    C0W 9228   5.494   6.787   3.282
    1STR    C0X 9229   5.530   6.635   3.464
    1STR    N0Y 9230   5.416   6.668   3.535
    1STR   BCK2 9231   5.298   6.616   3.503
    1STR    O10 9232   5.203   6.625   3.579
    1STR    C13 9233   5.635   6.575   3.529
    1STR    C14 9234   5.623   5.903   3.268
    1STR    C15 9235   5.653   5.766   3.280
    1STR    C16 9236   5.558   5.674   3.327
    1STR    C17 9237   5.586   5.527   3.332
    1STR    H1B 9238   5.314   5.582   3.320
    1STR    H1C 9239   5.308   5.888   3.378
    1STR    H1D 9240   5.456   6.095   3.410
    1STR    H1E 9241   5.296   6.241   3.488
    1STR    H1F 9242   5.061   6.053   3.547
    1STR    H1G 9243   5.093   6.208   3.627
    1STR    H1H 9244   5.046   6.199   3.459
    1STR    H1I 9245   5.258   5.963   3.606
    1STR    H1J 9246   5.323   6.098   3.690
    1STR    H1K 9247   5.534   6.065   3.744
    1STR    H1M 9248   5.695   5.923   3.527
    1STR    H1N 9249   5.632   5.846   3.667
    1STR    H1O 9250   5.754   5.969   3.688
    1STR    H1P 9251   5.711   6.178   3.601
    1STR    H1Q 9252   5.630   6.136   3.462
    1STR    H1R 9253   5.493   6.441   3.643
    1STR    H1S 9254   5.365   6.436   3.808
    1STR    H1T 9255   5.386   6.263   3.831
    1STR    H1U 9256   5.301   6.330   3.687
    1STR    H1V 9257   5.625   6.286   3.863
    1STR    H1W 9258   5.635   6.457   3.832
    1STR    H1X 9259   5.780   6.306   3.507
    1STR    H1Y 9260   5.764   6.416   3.259
    1STR    H1Z 9261   5.635   6.597   3.145
    1STR    H20 9262   5.400   6.782   3.232
    1STR    H21 9263   5.491   6.851   3.368
    1STR    H22 9264   5.570   6.829   3.220
    1STR    H23 9265   5.426   6.711   3.626
    1STR    H27 9266   5.637   6.583   3.636
    1STR    H28 9267   5.695   5.972   3.228
    1STR    H29 9268   5.750   5.733   3.247
    1STR    H2A 9269   5.583   5.494   3.435
    1STR    H2B 9270   5.680   5.507   3.283
    1STR    H2C 9271   5.509   5.473   3.277
    1STR   BCK1 9272   5.420   5.789   5.298
    1STR    O03 9273   5.536   5.823   5.301
    1STR    N04 9274   5.348   5.780   5.411
    1STR    C05 9275   5.211   5.784   5.432
    1STR    C06 9276   5.129   5.848   5.340
    1STR    C07 9277   4.993   5.867   5.363
    1STR    N08 9278   4.939   5.970   5.296
    1STR    C09 9279   4.989   6.090   5.320
    1STR    O0A 9280   4.950   6.179   5.247
    1STR    O0B 9281   5.069   6.098   5.434
    1STR    C0C 9282   5.207   6.141   5.446
    1STR    C0D 9283   5.254   6.087   5.580
    1STR    C0E 9284   5.305   6.105   5.336
    1STR    O0F 9285   5.245   6.137   5.214
    1STR    C0G 9286   5.308   6.088   5.098
    1STR    C0H 9287   5.184   6.046   5.019
    1STR    C0I 9288   5.404   6.179   5.019
    1STR    O0J 9289   5.494   6.250   5.099
    1STR    C0K 9290   5.439   6.350   5.182
    1STR    C0M 9291   5.554   6.380   5.275
    1STR    C0N 9292   5.380   6.470   5.113
    1STR    O0O 9293   5.276   6.446   5.017
    1STR    C0P 9294   5.163   6.370   5.030
    1STR    O0Q 9295   5.113   6.316   4.933
    1STR    N0R 9296   5.103   6.357   5.148
    1STR    C0S 9297   5.101   6.441   5.254
    1STR    C0T 9298   5.072   6.411   5.386
    1STR    C0U 9299   5.087   6.506   5.485
    1STR    C0V 9300   5.124   6.636   5.451
    1STR    C0W 9301   5.150   6.722   5.569
    1STR    C0X 9302   5.140   6.669   5.315
    1STR    N0Y 9303   5.175   6.788   5.257
    1STR   BCK2 9304   5.244   6.787   5.141
    1STR    O10 9305   5.362   6.756   5.131
    1STR    C13 9306   5.115   6.572   5.222
    1STR    C14 9307   4.932   5.820   5.478
    1STR    C15 9308   5.014   5.765   5.577
    1STR    C16 9309   5.152   5.751   5.555
    1STR    C17 9310   5.236   5.724   5.674
    1STR    H1B 9311   5.408   5.784   5.493
    1STR    H1C 9312   5.169   5.895   5.253
    1STR    H1D 9313   4.873   5.961   5.221
    1STR    H1E 9314   5.220   6.246   5.456
    1STR    H1F 9315   5.223   5.986   5.592
    1STR    H1G 9316   5.363   6.090   5.588
    1STR    H1H 9317   5.212   6.143   5.662
    1STR    H1I 9318   5.330   6.003   5.340
    1STR    H1J 9319   5.401   6.152   5.352
    1STR    H1K 9320   5.371   6.006   5.124
    1STR    H1M 9321   5.094   6.095   5.055
    1STR    H1N 9322   5.166   5.940   5.028
    1STR    H1O 9323   5.190   6.077   4.915
    1STR    H1P 9324   5.468   6.116   4.958
    1STR    H1Q 9325   5.356   6.242   4.945
    1STR    H1R 9326   5.358   6.321   5.245
    1STR    H1S 9327   5.519   6.439   5.359
    1STR    H1T 9328   5.635   6.430   5.223
    1STR    H1U 9329   5.594   6.287   5.316
    1STR    H1V 9330   5.458   6.525   5.061
    1STR    H1W 9331   5.350   6.535   5.193
    1STR    H1X 9332   5.048   6.272   5.159
    1STR    H1Y 9333   5.036   6.317   5.418
    1STR    H1Z 9334   5.071   6.479   5.588
    1STR    H20 9335   5.241   6.684   5.613
    1STR    H21 9336   5.164   6.825   5.549
    1STR    H22 9337   5.071   6.711   5.643
    1STR    H23 9338   5.137   6.873   5.301
    1STR    H27 9339   5.115   6.589   5.117
    1STR    H28 9340   4.829   5.841   5.499
    1STR    H29 9341   4.972   5.744   5.673
    1STR    H2A 9342   5.176   5.681   5.753
    1STR    H2B 9343   5.277   5.816   5.713
    1STR    H2C 9344   5.315   5.656   5.647
    1STR   BCK1 9345   0.140   7.071   0.558
    1STR    O03 9346   0.219   6.986   0.597
    1STR    N04 9347   0.052   7.052   0.458
    1STR    C05 9348   7.189   6.927   0.435
    1STR    C06 9349   7.062   6.903   0.486
    1STR    C07 9350   7.016   6.773   0.509
    1STR    N08 9351   6.924   6.756   0.610
    1STR    C09 9352   6.950   6.666   0.705
    1STR    O0A 9353   6.916   6.549   0.694
    1STR    O0B 9354   7.016   6.714   0.810
    1STR    C0C 9355   7.112   6.821   0.806
    1STR    C0D 9356   0.057   6.779   0.749
    1STR    C0E 9357   7.064   6.966   0.784
    1STR    O0F 9358   6.926   6.975   0.749
    1STR    C0G 9359   6.888   7.105   0.703
    1STR    C0H 9360   6.761   7.082   0.624
    1STR    C0I 9361   6.854   0.012   0.811
    1STR    O0J 9362   6.967   0.050   0.887
    1STR    C0K 9363   6.956   0.167   0.969
    1STR    C0M 9364   6.996   0.285   0.883
    1STR    C0N 9365   6.825   0.185   1.048
    1STR    O0O 9366   6.795   0.052   1.066
    1STR    C0P 9367   6.719   7.189   1.152
    1STR    O0Q 9368   6.648   0.058   1.233
    1STR    N0R 9369   6.734   7.058   1.141
    1STR    C0S 9370   6.847   6.986   1.103
    1STR    C0T 9371   6.834   6.847   1.082
    1STR    C0U 9372   6.946   6.763   1.092
    1STR    C0V 9373   7.072   6.817   1.119
    1STR    C0W 9374   0.001   6.726   1.131
    1STR    C0X 9375   7.088   6.956   1.111
    1STR    N0Y 9376   0.028   7.002   1.110
    1STR   BCK2 9377   0.082   7.113   1.060
    1STR    O10 9378   0.024   0.008   0.996
    1STR    C13 9379   6.977   7.039   1.108
    1STR    C14 9380   7.084   6.664   0.454
    1STR    C15 9381   0.017   6.688   0.394
    1STR    C16 9382   0.073   6.817   0.390
    1STR    C17 9383   0.215   6.832   0.349
    1STR    H1B 9384   7.186   7.130   0.427
    1STR    H1C 9385   7.009   6.986   0.526
    1STR    H1D 9386   6.912   6.845   0.660
    1STR    H1E 9387   7.148   6.827   0.905
    1STR    H1F 9388   0.058   6.770   0.642
    1STR    H1G 9389   0.133   6.851   0.777
    1STR    H1H 9390   0.087   6.683   0.790
    1STR    H1I 9391   7.128   7.013   0.711
    1STR    H1J 9392   7.080   7.026   0.872
    1STR    H1K 9393   6.964   7.151   0.640
    1STR    H1M 9394   6.759   6.984   0.579
    1STR    H1N 9395   6.750   7.161   0.550
    1STR    H1O 9396   6.673   7.090   0.688
    1STR    H1P 9397   6.806   0.101   0.770
    1STR    H1Q 9398   6.780   7.149   0.870
    1STR    H1R 9399   7.034   0.156   1.044
    1STR    H1S 9400   7.000   0.376   0.942
    1STR    H1T 9401   6.928   0.298   0.799
    1STR    H1U 9402   7.096   0.264   0.843
    1STR    H1V 9403   6.748   0.237   0.992
    1STR    H1W 9404   6.840   0.231   1.145
    1STR    H1X 9405   6.656   7.001   1.178
    1STR    H1Y 9406   6.739   6.802   1.072
    1STR    H1Z 9407   6.933   6.657   1.083
    1STR    H20 9408   0.088   6.764   1.078
    1STR    H21 9409   0.027   6.717   1.236
    1STR    H22 9410   7.168   6.629   1.089
    1STR    H23 9411   0.084   6.945   1.171
    1STR    H27 9412   6.993   7.145   1.119
    1STR    H28 9413   7.051   6.563   0.471
    1STR    H29 9414   0.074   6.604   0.362
    1STR    H2A 9415   0.255   6.931   0.368
    1STR    H2B 9416   0.216   6.819   0.243
    1STR    H2C 9417   0.278   6.759   0.398
    1STR   BCK1 9418   0.060   6.919   2.232
    1STR    O03 9419   0.035   6.801   2.214
    1STR    N04 9420   0.190   6.954   2.220
    1STR    C05 9421   0.265   7.068   2.238
    1STR    C06 9422   0.226   7.164   2.329
    1STR    C07 9423   0.292   0.097   2.342
    1STR    N08 9424   0.229   0.197   2.411
    1STR    C09 9425   0.191   0.180   2.536
    1STR    O0A 9426   0.269   0.149   2.625
    1STR    O0B 9427   0.058   0.180   2.543
    1STR    C0C 9428   7.183   0.136   2.662
    1STR    C0D 9429   7.101   0.254   2.710
    1STR    C0E 9430   7.093   0.015   2.638
    1STR    O0F 9431   7.150   7.104   2.555
    1STR    C0G 9432   0.026   6.996   2.616
    1STR    C0H 9433   7.176   6.866   2.550
    1STR    C0I 9434   0.177   7.024   2.615
    1STR    O0J 9435   0.266   6.927   2.561
    1STR    C0K 9436   0.339   6.858   2.661
    1STR    C0M 9437   0.267   6.727   2.688
    1STR    C0N 9438   0.486   6.838   2.622
    1STR    O0O 9439   0.563   6.955   2.645
    1STR    C0P 9440   0.605   6.978   2.769
    1STR    O0Q 9441   0.618   6.895   2.858
    1STR    N0R 9442   0.615   7.109   2.787
    1STR    C0S 9443   0.538   7.163   2.885
    1STR    C0T 9444   0.580   7.176   3.018
    1STR    C0U 9445   0.486   0.020   3.116
    1STR    C0V 9446   0.350   0.029   3.082
    1STR    C0W 9447   0.241   0.049   3.181
    1STR    C0X 9448   0.310   0.010   2.950
    1STR    N0Y 9449   0.191   7.138   2.930
    1STR   BCK2 9450   0.190   7.004   2.939
    1STR    O10 9451   0.097   6.939   2.896
    1STR    C13 9452   0.405   7.187   2.849
    1STR    C14 9453   0.402   0.126   2.261
    1STR    C15 9454   0.447   0.028   2.172
    1STR    C16 9455   0.381   7.094   2.163
    1STR    C17 9456   0.430   6.999   2.059
    1STR    H1B 9457   0.244   6.879   2.182
    1STR    H1C 9458   0.139   7.140   2.383
    1STR    H1D 9459   0.168   0.249   2.349
    1STR    H1E 9460   0.066   0.112   2.738
    1STR    H1F 9461   7.041   0.297   2.629
    1STR    H1G 9462   7.035   0.229   2.793
    1STR    H1H 9463   7.167   0.332   2.744
    1STR    H1I 9464   7.005   0.049   2.585
    1STR    H1J 9465   7.056   7.165   2.732
    1STR    H1K 9466   7.174   6.990   2.715
    1STR    H1M 9467   0.053   6.841   2.469
    1STR    H1N 9468   7.073   6.871   2.513
    1STR    H1O 9469   7.180   6.785   2.621
    1STR    H1P 9470   0.198   7.115   2.563
    1STR    H1Q 9471   0.206   7.061   2.709
    1STR    H1R 9472   0.345   6.916   2.751
    1STR    H1S 9473   0.169   6.748   2.732
    1STR    H1T 9474   0.321   6.666   2.759
    1STR    H1U 9475   0.252   6.672   2.596
    1STR    H1V 9476   0.490   6.813   2.518
    1STR    H1W 9477   0.528   6.754   2.678
    1STR    H1X 9478   0.613   7.158   2.699
    1STR    H1Y 9479   0.683   7.158   3.045
    1STR    H1Z 9480   0.519   0.041   3.216
    1STR    H20 9481   0.178   0.133   3.151
    1STR    H21 9482   0.180   7.149   3.182
    1STR    H22 9483   0.282   0.067   3.279
    1STR    H23 9484   0.111   7.187   2.896
    1STR    H27 9485   0.375   7.168   2.748
    1STR    H28 9486   0.446   0.224   2.261
    1STR    H29 9487   0.528   0.050   2.105
    1STR    H2A 9488   0.357   6.923   2.034
    1STR    H2B 9489   0.524   6.953   2.087
    1STR    H2C 9490   0.446   7.061   1.973
    1STR   BCK1 9491   0.014   0.011   4.175
    1STR    O03 9492   7.143   7.167   4.275
    1STR    N04 9493   7.148   0.064   4.067
    1STR    C05 9494   7.016   0.076   4.035
    1STR    C06 9495   6.926   7.175   4.088
    1STR    C07 9496   6.789   0.006   4.074
    1STR    N08 9497   6.711   7.105   4.140
    1STR    C09 9498   6.600   7.137   4.201
    1STR    O0A 9499   6.495   7.156   4.143
    1STR    O0B 9500   6.615   7.137   4.333
    1STR    C0C 9501   6.741   7.130   4.401
    1STR    C0D 9502   6.804   6.989   4.391
    1STR    C0E 9503   6.843   0.055   4.379
    1STR    O0F 9504   6.798   0.177   4.325
    1STR    C0G 9505   6.902   0.265   4.282
    1STR    C0H 9506   6.841   0.374   4.196
    1STR    C0I 9507   6.978   0.339   4.389
    1STR    O0J 9508   7.068   0.256   4.457
    1STR    C0K 9509   7.184   0.321   4.507
    1STR    C0M 9510   0.101   0.314   4.400
    1STR    C0N 9511   7.163   0.464   4.566
    1STR    O0O 9512   7.035   0.480   4.627
    1STR    C0P 9513   7.005   0.395   4.721
    1STR    O0Q 9514   7.085   0.356   4.806
    1STR    N0R 9515   6.885   0.340   4.698
    1STR    C0S 9516   6.863   0.204   4.709
    1STR    C0T 9517   6.737   0.151   4.735
    1STR    C0U 9518   6.718   0.012   4.743
    1STR    C0V 9519   6.824   7.115   4.712
    1STR    C0W 9520   6.794   6.967   4.702
    1STR    C0X 9521   6.951   7.167   4.682
    1STR    N0Y 9522   7.049   7.090   4.622
    1STR   BCK2 9523   7.177   7.122   4.601
    1STR    O10 9524   0.049   0.020   4.659
    1STR    C13 9525   6.969   0.115   4.691
    1STR    C14 9526   6.740   0.109   3.994
    1STR    C15 9527   6.832   0.196   3.933
    1STR    C16 9528   6.969   0.182   3.956
    1STR    C17 9529   7.063   0.284   3.904
    1STR    H1B 9530   0.026   0.095   3.996
    1STR    H1C 9531   6.964   7.091   4.143
    1STR    H1D 9532   6.770   7.056   4.205
    1STR    H1E 9533   6.705   7.143   4.501
    1STR    H1F 9534   6.836   6.956   4.293
    1STR    H1G 9535   6.895   6.986   4.450
    1STR    H1H 9536   6.737   6.913   4.431
    1STR    H1I 9537   6.927   0.017   4.325
    1STR    H1J 9538   6.891   0.080   4.470
    1STR    H1K 9539   6.978   0.212   4.227
    1STR    H1M 9540   6.776   0.336   4.121
    1STR    H1N 9541   6.920   0.430   4.145
    1STR    H1O 9542   6.783   0.443   4.257
    1STR    H1P 9543   7.034   0.419   4.341
    1STR    H1Q 9544   6.905   0.384   4.455
    1STR    H1R 9545   0.030   0.259   4.588
    1STR    H1S 9546   0.195   0.357   4.434
    1STR    H1T 9547   0.072   0.363   4.308
    1STR    H1U 9548   0.121   0.209   4.376
    1STR    H1V 9549   7.172   0.538   4.488
    1STR    H1W 9550   0.051   0.484   4.639
    1STR    H1X 9551   6.827   0.392   4.635
    1STR    H1Y 9552   6.656   0.218   4.752
    1STR    H1Z 9553   6.621   7.163   4.766
    1STR    H20 9554   6.872   6.910   4.652
    1STR    H21 9555   6.787   6.925   4.800
    1STR    H22 9556   6.699   6.950   4.652
    1STR    H23 9557   7.026   6.998   4.590
    1STR    H27 9558   7.064   0.156   4.670
    1STR    H28 9559   6.635   0.122   3.977
    1STR    H29 9560   6.796   0.275   3.870
    1STR    H2A 9561   7.136   0.311   3.980
    1STR    H2B 9562   7.009   0.374   3.874
    1STR    H2C 9563   7.113   0.242   3.817
    1STR   BCK1 9564   0.018   7.046   5.798
    1STR    O03 9565   0.131   7.091   5.809
    1STR    N04 9566   7.177   6.921   5.766
    1STR    C05 9567   0.060   6.806   5.787
    1STR    C06 9568   0.184   6.810   5.850
    1STR    C07 9569   0.232   6.704   5.926
    1STR    N08 9570   0.320   6.739   6.027
    1STR    C09 9571   0.428   6.811   5.997
    1STR    O0A 9572   0.501   6.782   5.903
    1STR    O0B 9573   0.445   6.926   6.067
    1STR    C0C 9574   0.356   6.985   6.162
    1STR    C0D 9575   0.435   7.102   6.218
    1STR    C0E 9576   0.225   7.040   6.104
    1STR    O0F 9577   0.136   6.932   6.080
    1STR    C0G 9578  -0.001   6.951   6.108
    1STR    C0H 9579   7.109   6.829   6.061
    1STR    C0I 9580   7.182   6.955   6.256
    1STR    O0J 9581   7.127   7.073   6.313
    1STR    C0K 9582   6.987   7.099   6.296
    1STR    C0M 9583   6.964   0.010   6.186
    1STR    C0N 9584   6.892   6.977   6.289
    1STR    O0O 9585   6.942   6.883   6.379
    1STR    C0P 9586   6.914   6.754   6.372
    1STR    O0Q 9587   6.818   6.705   6.314
    1STR    N0R 9588   7.001   6.679   6.440
    1STR    C0S 9589   7.123   6.709   6.500
    1STR    C0T 9590   0.023   6.604   6.522
    1STR    C0U 9591   0.156   6.631   6.556
    1STR    C0V 9592   0.203   6.764   6.558
    1STR    C0W 9593   0.348   6.784   6.576
    1STR    C0X 9594   0.113   6.871   6.543
    1STR    N0Y 9595   0.139   7.003   6.510
    1STR   BCK2 9596   0.229   7.100   6.518
    1STR    O10 9597   0.203   0.017   6.465
    1STR    C13 9598   7.168   6.839   6.528
    1STR    C14 9599   0.161   6.583   5.926
    1STR    C15 9600   0.043   6.573   5.850
    1STR    C16 9601   7.183   6.683   5.779
    1STR    C17 9602   7.051   6.671   5.709
    1STR    H1B 9603   7.080   6.907   5.750
    1STR    H1C 9604   0.233   6.903   5.863
    1STR    H1D 9605   0.269   6.771   6.108
    1STR    H1E 9606   0.334   6.915   6.243
    1STR    H1F 9607   0.464   7.171   6.139
    1STR    H1G 9608   0.378   7.157   6.291
    1STR    H1H 9609   0.526   7.067   6.266
    1STR    H1I 9610   0.244   7.096   6.013
    1STR    H1J 9611   0.180   7.111   6.174
    1STR    H1K 9612   7.152   7.043   6.066
    1STR    H1M 9613   7.172   6.740   6.058
    1STR    H1N 9614   7.062   6.846   5.966
    1STR    H1O 9615   7.027   6.801   6.125
    1STR    H1P 9616   7.142   6.862   6.290
    1STR    H1Q 9617   0.093   6.944   6.292
    1STR    H1R 9618   6.962   7.154   6.385
    1STR    H1S 9619   6.865   0.053   6.195
    1STR    H1T 9620   6.968   7.153   6.088
    1STR    H1U 9621   7.037   0.090   6.191
    1STR    H1V 9622   6.887   6.936   6.189
    1STR    H1W 9623   6.790   7.003   6.314
    1STR    H1X 9624   6.972   6.580   6.448
    1STR    H1Y 9625   7.181   6.501   6.510
    1STR    H1Z 9626   0.223   6.549   6.571
    1STR    H20 9627   0.390   6.844   6.496
    1STR    H21 9628   0.356   6.835   6.671
    1STR    H22 9629   0.403   6.691   6.584
    1STR    H23 9630   0.062   7.042   6.456
    1STR    H27 9631   7.100   6.922   6.520
    1STR    H28 9632   0.193   6.503   5.990
    1STR    H29 9633   7.172   6.486   5.853
    1STR    H2A 9634   7.050   6.736   5.622
    1STR    H2B 9635   6.970   6.697   5.776
    1STR    H2C 9636   7.038   6.570   5.674
    1STR   BCK1 9637   7.109   1.752   0.532
    1STR    O03 9638   6.995   1.766   0.573
    1STR    N04 9639   7.185   1.851   0.483
    1STR    C05 9640   7.169   1.989   0.480
    1STR    C06 9641   7.045   2.046   0.506
    1STR    C07 9642   7.029   2.185   0.507
    1STR    N08 9643   6.926   2.232   0.584
    1STR    C09 9644   6.966   2.216   0.708
    1STR    O0A 9645   7.045   2.292   0.763
    1STR    O0B 9646   6.924   2.099   0.753
    1STR    C0C 9647   6.997   2.022   0.847
    1STR    C0D 9648   6.901   1.908   0.881
    1STR    C0E 9649   7.132   1.966   0.805
    1STR    O0F 9650   0.032   2.065   0.758
    1STR    C0G 9651   0.168   2.033   0.783
    1STR    C0H 9652   0.228   1.909   0.716
    1STR    C0I 9653   0.255   2.158   0.762
    1STR    O0J 9654   0.279   2.240   0.875
    1STR    C0K 9655   0.306   2.181   1.001
    1STR    C0M 9656   0.167   2.167   1.065
    1STR    C0N 9657   0.397   2.056   0.995
    1STR    O0O 9658   0.457   2.029   1.119
    1STR    C0P 9659   0.478   1.901   1.148
    1STR    O0Q 9660   0.519   1.816   1.070
    1STR    N0R 9661   0.414   1.872   1.259
    1STR    C0S 9662   0.277   1.874   1.247
    1STR    C0T 9663   0.209   1.971   1.321
    1STR    C0U 9664   0.073   1.984   1.301
    1STR    C0V 9665  -0.001   1.904   1.215
    1STR    C0W 9666   7.041   1.928   1.199
    1STR    C0X 9667   0.066   1.807   1.140
    1STR    N0Y 9668   7.174   1.731   1.059
    1STR   BCK2 9669  -0.001   1.629   0.977
    1STR    O10 9670   7.090   1.576   0.931
    1STR    C13 9671   0.206   1.796   1.153
    1STR    C14 9672   7.133   2.269   0.466
    1STR    C15 9673   0.066   2.212   0.431
    1STR    C16 9674   0.085   2.073   0.443
    1STR    C17 9675   0.221   2.019   0.414
    1STR    H1B 9676   0.073   1.821   0.422
    1STR    H1C 9677   6.963   1.985   0.539
    1STR    H1D 9678   6.845   2.173   0.570
    1STR    H1E 9679   7.020   2.083   0.933
    1STR    H1F 9680   6.876   1.853   0.790
    1STR    H1G 9681   6.943   1.835   0.949
    1STR    H1H 9682   6.807   1.945   0.923
    1STR    H1I 9683   7.121   1.890   0.731
    1STR    H1J 9684   7.172   1.912   0.890
    1STR    H1K 9685   0.166   2.001   0.885
    1STR    H1M 9686   0.306   1.936   0.646
    1STR    H1N 9687   0.153   1.848   0.668
    1STR    H1O 9688   0.278   1.845   0.788
    1STR    H1P 9689   0.352   2.132   0.720
    1STR    H1Q 9690   0.207   2.220   0.687
    1STR    H1R 9691   0.359   2.256   1.059
    1STR    H1S 9692   0.091   2.218   1.005
    1STR    H1T 9693   0.164   2.209   1.165
    1STR    H1U 9694   0.135   2.064   1.070
    1STR    H1V 9695   0.475   2.065   0.920
    1STR    H1W 9696   0.342   1.966   0.967
    1STR    H1X 9697   0.447   1.934   1.331
    1STR    H1Y 9698   0.259   2.040   1.386
    1STR    H1Z 9699   0.026   2.062   1.351
    1STR    H20 9700   7.024   1.977   1.105
    1STR    H21 9701   6.983   1.836   1.203
    1STR    H22 9702   7.004   1.993   1.276
    1STR    H23 9703   7.076   1.751   1.066
    1STR    H27 9704   0.265   1.731   1.091
    1STR    H28 9705   7.122   2.376   0.470
    1STR    H29 9706   0.147   2.276   0.401
    1STR    H2A 9707   0.239   1.924   0.460
    1STR    H2B 9708   0.296   2.089   0.447
    1STR    H2C 9709   0.231   1.999   0.308
    1STR   BCK1 9710   7.163   2.042   2.340
    1STR    O03 9711   0.018   1.956   2.415
    1STR    N04 9712   7.068   2.027   2.250
    1STR    C05 9713   6.992   1.916   2.221
    1STR    C06 9714   7.024   1.788   2.267
    1STR    C07 9715   6.932   1.684   2.253
    1STR    N08 9716   6.958   1.565   2.319
    1STR    C09 9717   6.875   1.467   2.356
    1STR    O0A 9718   6.797   1.407   2.283
    1STR    O0B 9719   6.880   1.439   2.485
    1STR    C0C 9720   6.952   1.515   2.580
    1STR    C0D 9721   7.098   1.469   2.577
    1STR    C0E 9722   6.934   1.668   2.575
    1STR    O0F 9723   6.811   1.711   2.517
    1STR    C0G 9724   6.801   1.852   2.505
    1STR    C0H 9725   6.684   1.901   2.420
    1STR    C0I 9726   6.777   1.908   2.641
    1STR    O0J 9727   6.902   1.928   2.701
    1STR    C0K 9728   6.936   2.060   2.737
    1STR    C0M 9729   7.003   2.125   2.619
    1STR    C0N 9730   6.821   2.139   2.805
    1STR    O0O 9731   6.736   2.052   2.879
    1STR    C0P 9732   6.797   1.968   2.959
    1STR    O0Q 9733   6.892   2.001   3.026
    1STR    N0R 9734   6.756   1.843   2.937
    1STR    C0S 9735   6.835   1.730   2.934
    1STR    C0T 9736   6.773   1.605   2.934
    1STR    C0U 9737   6.851   1.489   2.928
    1STR    C0V 9738   6.989   1.497   2.910
    1STR    C0W 9739   7.063   1.366   2.899
    1STR    C0X 9740   7.052   1.622   2.895
    1STR    N0Y 9741   7.186   1.627   2.862
    1STR   BCK2 9742   0.075   1.729   2.830
    1STR    O10 9743   0.040   1.846   2.818
    1STR    C13 9744   6.973   1.737   2.910
    1STR    C14 9745   6.812   1.711   2.187
    1STR    C15 9746   6.787   1.834   2.126
    1STR    C16 9747   6.875   1.939   2.148
    1STR    C17 9748   6.836   2.079   2.109
    1STR    H1B 9749   7.053   2.108   2.194
    1STR    H1C 9750   7.116   1.769   2.319
    1STR    H1D 9751   7.037   1.569   2.380
    1STR    H1E 9752   6.907   1.483   2.673
    1STR    H1F 9753   7.140   1.461   2.478
    1STR    H1G 9754   7.162   1.533   2.636
    1STR    H1H 9755   7.103   1.370   2.620
    1STR    H1I 9756   7.019   1.715   2.525
    1STR    H1J 9757   6.943   1.704   2.676
    1STR    H1K 9758   6.894   1.894   2.466
    1STR    H1M 9759   6.663   1.839   2.336
    1STR    H1N 9760   6.708   2.000   2.382
    1STR    H1O 9761   6.592   1.907   2.477
    1STR    H1P 9762   6.716   1.998   2.635
    1STR    H1Q 9763   6.718   1.834   2.695
    1STR    H1R 9764   7.015   2.045   2.811
    1STR    H1S 9765   7.040   2.224   2.642
    1STR    H1T 9766   6.940   2.128   2.531
    1STR    H1U 9767   7.090   2.063   2.596
    1STR    H1V 9768   6.762   2.190   2.731
    1STR    H1W 9769   6.865   2.213   2.870
    1STR    H1X 9770   6.670   1.832   2.888
    1STR    H1Y 9771   6.667   1.598   2.947
    1STR    H1Z 9772   6.805   1.392   2.937
    1STR    H20 9773   7.168   1.376   2.876
    1STR    H21 9774   7.051   1.314   2.993
    1STR    H22 9775   7.017   1.304   2.822
    1STR    H23 9776   0.043   1.538   2.872
    1STR    H27 9777   7.018   1.833   2.899
    1STR    H28 9778   6.739   1.634   2.183
    1STR    H29 9779   6.694   1.849   2.074
    1STR    H2A 9780   6.820   2.137   2.199
    1STR    H2B 9781   6.744   2.077   2.051
    1STR    H2C 9782   6.916   2.124   2.051
    1STR   BCK1 9783   7.019   1.593   4.109
    1STR    O03 9784   6.929   1.512   4.129
    1STR    N04 9785   7.118   1.550   4.031
    1STR    C05 9786   0.066   1.560   4.035
    1STR    C06 9787   0.133   1.663   4.098
    1STR    C07 9788   0.270   1.662   4.123
    1STR    N08 9789   0.316   1.757   4.210
    1STR    C09 9790   0.313   1.882   4.167
    1STR    O0A 9791   0.370   1.918   4.065
    1STR    O0B 9792   0.225   1.960   4.234
    1STR    C0C 9793   0.199   1.955   4.374
    1STR    C0D 9794   0.147   2.095   4.402
    1STR    C0E 9795   0.098   1.849   4.427
    1STR    O0F 9796   0.124   1.717   4.382
    1STR    C0G 9797   0.037   1.615   4.428
    1STR    C0H 9798   0.052   1.494   4.339
    1STR    C0I 9799   0.065   1.574   4.569
    1STR    O0J 9800   7.185   1.455   4.596
    1STR    C0K 9801   0.075   1.346   4.639
    1STR    C0M 9802   7.159   1.247   4.683
    1STR    C0N 9803   0.168   1.278   4.534
    1STR    O0O 9804   0.266   1.362   4.473
    1STR    C0P 9805   0.358   1.418   4.547
    1STR    O0Q 9806   0.374   1.393   4.666
    1STR    N0R 9807   0.417   1.516   4.482
    1STR    C0S 9808   0.480   1.620   4.548
    1STR    C0T 9809   0.594   1.603   4.628
    1STR    C0U 9810   0.638   1.709   4.710
    1STR    C0V 9811   0.567   1.830   4.715
    1STR    C0W 9812   0.601   1.936   4.817
    1STR    C0X 9813   0.452   1.844   4.637
    1STR    N0Y 9814   0.363   1.945   4.666
    1STR   BCK2 9815   0.246   1.930   4.724
    1STR    O10 9816   0.159   2.016   4.727
    1STR    C13 9817   0.413   1.742   4.550
    1STR    C14 9818   0.347   1.554   4.079
    1STR    C15 9819   0.282   1.447   4.016
    1STR    C16 9820   0.142   1.448   3.997
    1STR    C17 9821   0.072   1.324   3.950
    1STR    H1B 9822   7.092   1.467   3.981
    1STR    H1C 9823   0.075   1.742   4.138
    1STR    H1D 9824   0.263   1.748   4.297
    1STR    H1E 9825   0.295   1.946   4.422
    1STR    H1F 9826   0.058   2.119   4.344
    1STR    H1G 9827   0.126   2.110   4.507
    1STR    H1H 9828   0.224   2.168   4.376
    1STR    H1I 9829   7.186   1.877   4.408
    1STR    H1J 9830   0.102   1.851   4.534
    1STR    H1K 9831   7.123   1.647   4.425
    1STR    H1M 9832   0.154   1.477   4.305
    1STR    H1N 9833   7.179   1.503   4.256
    1STR    H1O 9834   0.011   1.402   4.378
    1STR    H1P 9835   0.171   1.571   4.592
    1STR    H1Q 9836   0.023   1.652   4.629
    1STR    H1R 9837   0.134   1.378   4.724
    1STR    H1S 9838   7.089   1.299   4.747
    1STR    H1T 9839   0.012   1.165   4.740
    1STR    H1U 9840   7.103   1.209   4.599
    1STR    H1V 9841   0.110   1.233   4.454
    1STR    H1W 9842   0.221   1.197   4.581
    1STR    H1X 9843   0.386   1.530   4.387
    1STR    H1Y 9844   0.642   1.507   4.636
    1STR    H1Z 9845   0.721   1.691   4.777
    1STR    H20 9846   0.515   1.954   4.880
    1STR    H21 9847   0.684   1.905   4.880
    1STR    H22 9848   0.624   2.029   4.766
    1STR    H23 9849   0.389   2.046   4.650
    1STR    H27 9850   0.321   1.750   4.498
    1STR    H28 9851   0.452   1.552   4.099
    1STR    H29 9852   0.338   1.360   3.987
    1STR    H2A 9853   7.187   1.346   3.874
    1STR    H2B 9854   0.025   1.274   4.034
    1STR    H2C 9855   0.144   1.255   3.906
    1STR   BCK1 9856   0.094   1.902   5.931
    1STR    O03 9857   0.035   1.845   6.021
    1STR    N04 9858   0.043   1.987   5.842
    1STR    C05 9859   7.108   2.045   5.836
    1STR    C06 9860   6.998   1.985   5.897
    1STR    C07 9861   6.880   2.056   5.917
    1STR    N08 9862   6.794   2.002   6.010
    1STR    C09 9863   6.759   2.071   6.117
    1STR    O0A 9864   6.691   2.173   6.115
    1STR    O0B 9865   6.814   2.024   6.228
    1STR    C0C 9866   6.951   1.981   6.235
    1STR    C0D 9867   6.971   1.830   6.217
    1STR    C0E 9868   7.051   2.075   6.169
    1STR    O0F 9869   7.160   2.132   6.238
    1STR    C0G 9870   0.049   2.200   6.140
    1STR    C0H 9871   0.023   2.349   6.152
    1STR    C0I 9872   0.197   2.160   6.135
    1STR    O0J 9873   0.278   2.226   6.231
    1STR    C0K 9874   0.269   2.175   6.361
    1STR    C0M 9875   0.314   2.029   6.371
    1STR    C0N 9876   0.352   2.266   6.452
    1STR    O0O 9877   0.267   2.360   6.515
    1STR    C0P 9878   0.195   2.314   6.615
    1STR    O0Q 9879   0.234   2.238   6.702
    1STR    N0R 9880   0.068   2.339   6.588
    1STR    C0S 9881   7.164   2.240   6.596
    1STR    C0T 9882   7.030   2.274   6.610
    1STR    C0U 9883   6.932   2.175   6.596
    1STR    C0V 9884   6.967   2.045   6.559
    1STR    C0W 9885   6.854   1.950   6.534
    1STR    C0X 9886   7.103   2.011   6.540
    1STR    N0Y 9887   7.143   1.893   6.480
    1STR   BCK2 9888   0.069   1.829   6.497
    1STR    O10 9889   0.146   1.850   6.589
    1STR    C13 9890   0.009   2.107   6.569
    1STR    C14 9891   6.863   2.182   5.857
    1STR    C15 9892   6.968   2.236   5.782
    1STR    C16 9893   7.092   2.169   5.774
    1STR    C17 9894   0.018   2.232   5.702
    1STR    H1B 9895   0.106   2.001   5.763
    1STR    H1C 9896   7.010   1.887   5.940
    1STR    H1D 9897   6.817   1.906   6.030
    1STR    H1E 9898   6.978   2.002   6.333
    1STR    H1F 9899   6.941   1.793   6.119
    1STR    H1G 9900   7.077   1.803   6.226
    1STR    H1H 9901   6.916   1.772   6.290
    1STR    H1I 9902   7.001   2.155   6.115
    1STR    H1J 9903   7.102   2.011   6.102
    1STR    H1K 9904   0.019   2.176   6.038
    1STR    H1M 9905   0.054   2.385   6.250
    1STR    H1N 9906   7.107   2.369   6.138
    1STR    H1O 9907   0.078   2.402   6.075
    1STR    H1P 9908   0.207   2.052   6.137
    1STR    H1Q 9909   0.236   2.191   6.039
    1STR    H1R 9910   0.164   2.180   6.386
    1STR    H1S 9911   0.321   1.997   6.475
    1STR    H1T 9912   0.411   2.013   6.323
    1STR    H1U 9913   0.242   1.962   6.324
    1STR    H1V 9914   0.427   2.318   6.394
    1STR    H1W 9915   0.405   2.208   6.528
    1STR    H1X 9916   0.063   2.403   6.511
    1STR    H1Y 9917   7.004   2.374   6.635
    1STR    H1Z 9918   6.829   2.197   6.612
    1STR    H20 9919   6.891   1.850   6.513
    1STR    H21 9920   6.788   1.952   6.621
    1STR    H22 9921   6.791   1.980   6.452
    1STR    H23 9922   7.087   1.854   6.406
    1STR    H27 9923   0.112   2.079   6.557
    1STR    H28 9924   6.770   2.235   5.869
    1STR    H29 9925   6.956   2.332   5.735
    1STR    H2A 9926   0.093   2.263   5.775
    1STR    H2B 9927   7.176   2.317   5.644
    1STR    H2C 9928   0.064   2.159   5.635
    1STR   BCK1 9929   7.130   3.686   0.482
    1STR    O03 9930   0.015   3.654   0.573
    1STR    N04 9931   7.060   3.602   0.407
    1STR    C05 9932   7.078   3.466   0.401
    1STR    C06 9933   0.015   3.407   0.418
    1STR    C07 9934   0.027   3.268   0.424
    1STR    N08 9935   0.146   3.213   0.469
    1STR    C09 9936   0.147   3.091   0.522
    1STR    O0A 9937   0.123   2.992   0.453
    1STR    O0B 9938   0.156   3.085   0.656
    1STR    C0C 9939   0.156   3.192   0.751
    1STR    C0D 9940   0.297   3.215   0.799
    1STR    C0E 9941   0.077   3.319   0.724
    1STR    O0F 9942   7.133   3.276   0.696
    1STR    C0G 9943   7.038   3.379   0.710
    1STR    C0H 9944   6.901   3.331   0.667
    1STR    C0I 9945   7.037   3.409   0.855
    1STR    O0J 9946   7.075   3.541   0.877
    1STR    C0K 9947   6.980   3.640   0.912
    1STR    C0M 9948   7.032   3.757   0.830
    1STR    C0N 9949   6.830   3.614   0.885
    1STR    O0O 9950   6.772   3.498   0.944
    1STR    C0P 9951   6.794   3.480   1.073
    1STR    O0Q 9952   6.807   3.570   1.153
    1STR    N0R 9953   6.826   3.353   1.094
    1STR    C0S 9954   6.955   3.310   1.125
    1STR    C0T 9955   6.984   3.175   1.100
    1STR    C0U 9956   7.116   3.129   1.102
    1STR    C0V 9957   0.032   3.215   1.130
    1STR    C0W 9958   0.172   3.160   1.144
    1STR    C0X 9959   0.006   3.351   1.143
    1STR    N0Y 9960   0.117   3.430   1.132
    1STR   BCK2 9961   0.135   3.556   1.095
    1STR    O10 9962   0.049   3.639   1.071
    1STR    C13 9963   7.064   3.398   1.147
    1STR    C14 9964   7.102   3.189   0.410
    1STR    C15 9965   6.980   3.247   0.385
    1STR    C16 9966   6.967   3.386   0.373
    1STR    C17 9967   6.834   3.444   0.337
    1STR    H1B 9968   6.995   3.645   0.344
    1STR    H1C 9969   0.102   3.468   0.434
    1STR    H1D 9970   0.213   3.280   0.508
    1STR    H1E 9971   0.103   3.151   0.836
    1STR    H1F 9972   0.365   3.218   0.714
    1STR    H1G 9973   0.307   3.308   0.855
    1STR    H1H 9974   0.328   3.131   0.861
    1STR    H1I 9975   0.117   3.382   0.646
    1STR    H1J 9976   0.089   3.385   0.810
    1STR    H1K 9977   7.068   3.469   0.656
    1STR    H1M 9978   6.913   3.232   0.626
    1STR    H1N 9979   6.862   3.398   0.592
    1STR    H1O 9980   6.824   3.328   0.743
    1STR    H1P 9981   6.945   3.376   0.894
    1STR    H1Q 9982   7.105   3.343   0.906
    1STR    H1R 9983   6.994   3.664   1.016
    1STR    H1S 9984   7.140   3.765   0.843
    1STR    H1T 9985   6.986   3.850   0.860
    1STR    H1U 9986   7.014   3.740   0.724
    1STR    H1V 9987   6.820   3.605   0.778
    1STR    H1W 9988   6.773   3.700   0.918
    1STR    H1X 9989   6.767   3.288   1.047
    1STR    H1Y 9990   6.905   3.105   1.080
    1STR    H1Z 9991   7.138   3.025   1.091
    1STR    H20 9992   0.235   3.196   1.063
    1STR    H21 9993   0.213   3.193   1.240
    1STR    H22 9994   0.172   3.052   1.143
    1STR    H23 9995   0.202   3.378   1.145
    1STR    H27 9996   7.048   3.504   1.149
    1STR    H28 9997   7.102   3.084   0.424
    1STR    H29 9998   6.896   3.182   0.381
    1STR    H2A 9999   6.757   3.371   0.356
    1STR    H2B10000   6.832   3.465   0.230
    1STR    H2C10001   6.813   3.535   0.392
    1STR   BCK110002   0.124   3.420   2.300
    1STR    O0310003   0.086   3.467   2.406
    1STR    N0410004   0.210   3.477   2.216
    1STR    C0510005   0.251   3.611   2.211
    1STR    C0610006   0.161   3.711   2.244
    1STR    C0710007   0.200   3.846   2.256
    1STR    N0810008   0.100   3.934   2.289
    1STR    C0910009   0.090   3.979   2.412
    1STR    O0A10010   0.179   4.031   2.478
    1STR    O0B10011   7.164   3.936   2.457
    1STR    C0C10012   7.162   3.861   2.577
    1STR    C0D10013   7.015   3.842   2.609
    1STR    C0E10014   0.040   3.724   2.560
    1STR    O0F10015   0.170   3.735   2.506
    1STR    C0G10016   0.282   3.681   2.572
    1STR    C0H10017   0.367   3.587   2.487
    1STR    C0I10018   0.376   3.798   2.609
    1STR    O0J10019   0.370   3.846   2.741
    1STR    C0K10020   0.352   3.750   2.842
    1STR    C0M10021   0.200   3.743   2.860
    1STR    C0N10022   0.432   3.618   2.824
    1STR    O0O10023   0.571   3.640   2.843
    1STR    C0P10024   0.649   3.541   2.887
    1STR    O0Q10025   0.728   3.481   2.816
    1STR    N0R10026   0.638   3.513   3.017
    1STR    C0S10027   0.538   3.562   3.096
    1STR    C0T10028   0.540   3.695   3.138
    1STR    C0U10029   0.423   3.752   3.188
    1STR    C0V10030   0.302   3.682   3.178
    1STR    C0W10031   0.175   3.749   3.223
    1STR    C0X10032   0.299   3.553   3.122
    1STR    N0Y10033   0.181   3.514   3.061
    1STR   BCK210034   0.148   3.429   2.963
    1STR    O1010035   0.040   3.442   2.904
    1STR    C1310036   0.421   3.486   3.103
    1STR    C1410037   0.333   3.881   2.232
    1STR    C1510038   0.422   3.783   2.185
    1STR    C1610039   0.381   3.648   2.173
    1STR    C1710040   0.483   3.544   2.140
    1STR    H1B10041   0.243   3.417   2.139
    1STR    H1C10042   0.062   3.685   2.273
    1STR    H1D10043   0.009   3.906   2.258
    1STR    H1E10044   0.023   3.918   2.654
    1STR    H1F10045   6.962   3.796   2.526
    1STR    H1G10046   7.001   3.778   2.695
    1STR    H1H10047   6.967   3.938   2.630
    1STR    H1I10048   7.171   3.668   2.487
    1STR    H1J10049   0.036   3.667   2.652
    1STR    H1K10050   0.245   3.617   2.650
    1STR    H1M10051   0.413   3.644   2.408
    1STR    H1N10052   0.313   3.503   2.448
    1STR    H1O10053   0.453   3.543   2.537
    1STR    H1P10054   0.480   3.770   2.593
    1STR    H1Q10055   0.359   3.881   2.541
    1STR    H1R10056   0.391   3.798   2.931
    1STR    H1S10057   0.172   3.761   2.962
    1STR    H1T10058   0.157   3.648   2.831
    1STR    H1U10059   0.151   3.821   2.803
    1STR    H1V10060   0.427   3.568   2.730
    1STR    H1W10061   0.389   3.538   2.880
    1STR    H1X10062   0.700   3.442   3.052
    1STR    H1Y10063   0.630   3.754   3.127
    1STR    H1Z10064   0.425   3.853   3.221
    1STR    H2010065   0.089   3.684   3.216
    1STR    H2110066   0.186   3.775   3.327
    1STR    H2210067   0.155   3.839   3.165
    1STR    H2310068   0.102   3.570   3.087
    1STR    H2710069   0.425   3.386   3.065
    1STR    H2810070   0.364   3.984   2.242
    1STR    H2910071   0.522   3.812   2.160
    1STR    H2A10072   0.499   3.480   2.227
    1STR    H2B10073   0.577   3.591   2.111
    1STR    H2C10074   0.447   3.485   2.058
    1STR   BCK110075   0.001   3.719   4.050
    1STR    O0310076   0.031   3.600   4.054
    1STR    N0410077   7.089   3.773   3.986
    1STR    C0510078   6.962   3.727   3.962
    1STR    C0610079   6.916   3.602   4.007
    1STR    C0710080   6.778   3.580   4.023
    1STR    N0810081   6.735   3.463   4.082
    1STR    C0910082   6.747   3.463   4.213
    1STR    O0A10083   6.676   3.525   4.291
    1STR    O0B10084   6.860   3.399   4.239
    1STR    C0C10085   6.936   3.443   4.349
    1STR    C0D10086   7.032   3.327   4.378
    1STR    C0E10087   7.013   3.572   4.318
    1STR    O0F10088   6.938   3.674   4.254
    1STR    C0G10089   6.949   3.801   4.312
    1STR    C0H10090   6.916   3.915   4.217
    1STR    C0I10091   6.849   3.800   4.424
    1STR    O0J10092   6.928   3.814   4.538
    1STR    C0K10093   6.948   3.942   4.591
    1STR    C0M10094   7.064   4.015   4.525
    1STR    C0N10095   6.816   4.017   4.613
    1STR    O0O10096   6.727   3.915   4.653
    1STR    C0P10097   6.666   3.921   4.768
    1STR    O0Q10098   6.625   4.024   4.819
    1STR    N0R10099   6.658   3.803   4.827
    1STR    C0S10100   6.709   3.683   4.782
    1STR    C0T10101   6.622   3.575   4.766
    1STR    C0U10102   6.672   3.450   4.728
    1STR    C0V10103   6.808   3.434   4.696
    1STR    C0W10104   6.856   3.296   4.661
    1STR    C0X10105   6.894   3.545   4.697
    1STR    N0Y10106   7.021   3.534   4.641
    1STR   BCK210107   7.126   3.617   4.644
    1STR    O1010108   7.138   3.716   4.715
    1STR    C1310109   6.845   3.665   4.752
    1STR    C1410110   6.686   3.677   3.983
    1STR    C1510111   6.732   3.796   3.923
    1STR    C1610112   6.870   3.821   3.913
    1STR    C1710113   6.918   3.955   3.864
    1STR    H1B10114   7.100   3.872   3.979
    1STR    H1C10115   6.987   3.530   4.045
    1STR    H1D10116   6.781   3.381   4.048
    1STR    H1E10117   6.869   3.461   4.432
    1STR    H1F10118   7.096   3.307   4.292
    1STR    H1G10119   7.097   3.346   4.463
    1STR    H1H10120   6.976   3.236   4.397
    1STR    H1I10121   7.102   3.552   4.260
    1STR    H1J10122   7.046   3.613   4.411
    1STR    H1K10123   7.051   3.816   4.347
    1STR    H1M10124   6.826   3.893   4.161
    1STR    H1N10125   7.000   3.931   4.150
    1STR    H1O10126   6.901   4.008   4.270
    1STR    H1P10127   6.769   3.872   4.411
    1STR    H1Q10128   6.798   3.704   4.430
    1STR    H1R10129   6.987   3.917   4.688
    1STR    H1S10130   7.147   3.945   4.518
    1STR    H1T10131   7.097   4.099   4.585
    1STR    H1U10132   7.041   4.049   4.425
    1STR    H1V10133   6.778   4.062   4.522
    1STR    H1W10134   6.826   4.095   4.688
    1STR    H1X10135   6.608   3.802   4.914
    1STR    H1Y10136   6.517   3.588   4.785
    1STR    H1Z10137   6.604   3.367   4.722
    1STR    H2010138   6.964   3.286   4.670
    1STR    H2110139   6.812   3.225   4.731
    1STR    H2210140   6.823   3.270   4.561
    1STR    H2310141   7.037   3.449   4.590
    1STR    H2710142   6.911   3.747   4.766
    1STR    H2810143   6.581   3.661   3.999
    1STR    H2910144   6.659   3.869   3.894
    1STR    H2A10145   6.937   4.019   3.949
    1STR    H2B10146   6.842   4.000   3.801
    1STR    H2C10147   7.010   3.942   3.807
    1STR   BCK110148   7.001   3.384   5.863
    1STR    O0310149   6.959   3.298   5.940
    1STR    N0410150   7.104   3.369   5.780
    1STR    C0510151   0.033   3.304   5.800
    1STR    C0610152   0.141   3.380   5.848
    1STR    C0710153   0.259   3.319   5.891
    1STR    N0810154   0.344   3.390   5.974
    1STR    C0910155   0.385   3.515   5.955
    1STR    O0A10156   0.433   3.557   5.851
    1STR    O0B10157   0.376   3.596   6.060
    1STR    C0C10158   0.288   3.582   6.171
    1STR    C0D10159   0.291   3.724   6.225
    1STR    C0E10160   0.143   3.543   6.140
    1STR    O0F10161   0.134   3.403   6.124
    1STR    C0G10162   0.007   3.343   6.138
    1STR    C0H10163   0.012   3.195   6.099
    1STR    C0I10164   7.171   3.342   6.283
    1STR    O0J10165   7.090   3.447   6.332
    1STR    C0K10166   6.949   3.433   6.319
    1STR    C0M10167   6.901   3.539   6.224
    1STR    C0N10168   6.890   3.292   6.292
    1STR    O0O10169   6.936   3.209   6.396
    1STR    C0P10170   6.927   3.078   6.390
    1STR    O0Q10171   6.838   3.016   6.332
    1STR    N0R10172   7.023   3.013   6.456
    1STR    C0S10173   7.142   3.060   6.512
    1STR    C0T10174   0.061   2.973   6.518
    1STR    C0U10175   0.188   3.024   6.550
    1STR    C0V10176   0.208   3.162   6.566
    1STR    C0W10177   0.345   3.212   6.588
    1STR    C0X10178   0.098   3.249   6.564
    1STR    N0Y10179   0.094   3.385   6.542
    1STR   BCK210180   0.164   3.494   6.510
    1STR    O1010181   0.099   3.590   6.471
    1STR    C1310182   7.160   3.193   6.552
    1STR    C1410183   0.275   3.180   5.875
    1STR    C1510184   0.173   3.106   5.814
    1STR    C1610185   0.052   3.167   5.777
    1STR    C1710186   7.129   3.083   5.728
    1STR    H1B10187   7.097   3.420   5.692
    1STR    H1C10188   0.126   3.483   5.869
    1STR    H1D10189   0.316   3.372   6.070
    1STR    H1E10190   0.330   3.513   6.243
    1STR    H1F10191   0.274   3.797   6.146
    1STR    H1G10192   0.213   3.740   6.300
    1STR    H1H10193   0.388   3.744   6.270
    1STR    H1I10194   0.109   3.596   6.052
    1STR    H1J10195   0.079   3.575   6.222
    1STR    H1K10196   7.120   3.398   6.086
    1STR    H1M10197   0.113   3.154   6.105
    1STR    H1N10198   7.163   3.179   6.001
    1STR    H1O10199   7.136   3.130   6.155
    1STR    H1P10200   7.141   3.246   6.318
    1STR    H1Q10201   0.082   3.347   6.320
    1STR    H1R10202   6.917   3.464   6.417
    1STR    H1S10203   6.792   3.545   6.223
    1STR    H1T10204   6.935   3.518   6.124
    1STR    H1U10205   6.940   3.637   6.253
    1STR    H1V10206   6.921   3.253   6.195
    1STR    H1W10207   6.781   3.294   6.294
    1STR    H1X10208   7.012   2.914   6.450
    1STR    H1Y10209   0.052   2.869   6.494
    1STR    H1Z10210   0.272   2.957   6.554
    1STR    H2010211   0.388   3.247   6.495
    1STR    H2110212   0.333   3.294   6.657
    1STR    H2210213   0.409   3.136   6.634
    1STR    H2310214   0.000   3.413   6.517
    1STR    H2710215   7.076   3.260   6.557
    1STR    H2810216   0.362   3.130   5.912
    1STR    H2910217   0.187   2.999   5.802
    1STR    H2A10218   7.120   3.097   5.620
    1STR    H2B10219   7.037   3.110   5.778
    1STR    H2C10220   7.150   2.980   5.753
    1STR   BCK110221   0.208   5.269   0.502
    1STR    O0310222   0.119   5.185   0.503
    1STR    N0410223   0.198   5.393   0.456
    1STR    C0510224   0.087   5.468   0.424
    1STR    C0610225   7.150   5.438   0.473
    1STR    C0710226   7.051   5.537   0.478
    1STR    N0810227   6.938   5.512   0.551
    1STR    C0910228   6.919   5.568   0.668
    1STR    O0A10229   6.937   5.685   0.698
    1STR    O0B10230   6.896   5.466   0.747
    1STR    C0C10231   6.994   5.430   0.842
    1STR    C0D10232   6.935   5.311   0.916
    1STR    C0E10233   7.137   5.404   0.791
    1STR    O0F10234   7.178   5.525   0.729
    1STR    C0G10235   0.122   5.565   0.739
    1STR    C0H10236   0.143   5.689   0.654
    1STR    C0I10237   0.140   5.604   0.882
    1STR    O0J10238   0.206   5.502   0.955
    1STR    C0K10239   0.347   5.491   0.957
    1STR    C0M10240   0.386   5.383   0.858
    1STR    C0N10241   0.427   5.621   0.950
    1STR    O0O10242   0.351   5.719   1.017
    1STR    C0P10243   0.385   5.780   1.127
    1STR    O0Q10244   0.499   5.798   1.165
    1STR    N0R10245   0.277   5.825   1.192
    1STR    C0S10246   0.150   5.773   1.176
    1STR    C0T10247   0.039   5.852   1.143
    1STR    C0U10248   7.103   5.792   1.125
    1STR    C0V10249   7.086   5.653   1.138
    1STR    C0W10250   6.946   5.596   1.120
    1STR    C0X10251   0.009   5.572   1.166
    1STR    N0Y10252   7.188   5.436   1.146
    1STR   BCK210253   0.087   5.336   1.151
    1STR    O1010254   0.061   5.233   1.090
    1STR    C1310255   0.132   5.635   1.189
    1STR    C1410256   7.072   5.660   0.416
    1STR    C1510257   0.002   5.683   0.349
    1STR    C1610258   0.106   5.589   0.356
    1STR    C1710259   0.240   5.625   0.304
    1STR    H1B10260   0.289   5.436   0.441
    1STR    H1C10261   7.134   5.343   0.521
    1STR    H1D10262   6.916   5.415   0.562
    1STR    H1E10263   7.007   5.516   0.904
    1STR    H1F10264   6.915   5.230   0.846
    1STR    H1G10265   7.001   5.274   0.993
    1STR    H1H10266   6.840   5.339   0.962
    1STR    H1I10267   7.143   5.320   0.724
    1STR    H1J10268   0.011   5.379   0.875
    1STR    H1K10269   0.188   5.485   0.709
    1STR    H1M10270   0.049   5.734   0.624
    1STR    H1N10271   0.202   5.662   0.568
    1STR    H1O10272   0.204   5.767   0.701
    1STR    H1P10273   0.177   5.704   0.893
    1STR    H1Q10274   0.041   5.617   0.923
    1STR    H1R10275   0.368   5.450   1.055
    1STR    H1S10276   0.312   5.302   0.861
    1STR    H1T10277   0.483   5.340   0.882
    1STR    H1U10278   0.390   5.420   0.756
    1STR    H1V10279   0.438   5.653   0.847
    1STR    H1W10280   0.526   5.609   0.995
    1STR    H1X10281   0.296   5.891   1.265
    1STR    H1Y10282   0.050   5.958   1.131
    1STR    H1Z10283   7.019   5.854   1.101
    1STR    H2010284   6.901   5.636   1.030
    1STR    H2110285   6.945   5.487   1.118
    1STR    H2210286   6.878   5.623   1.199
    1STR    H2310287   7.103   5.407   1.102
    1STR    H2710288   0.222   5.579   1.205
    1STR    H2810289   6.995   5.734   0.418
    1STR    H2910290   0.014   5.776   0.298
    1STR    H2A10291   0.277   5.544   0.243
    1STR    H2B10292   0.312   5.642   0.385
    1STR    H2C10293   0.230   5.716   0.246
    1STR   BCK110294   0.071   5.534   2.377
    1STR    O0310295   0.171   5.489   2.431
    1STR    N0410296   7.171   5.467   2.308
    1STR    C0510297   7.152   5.333   2.287
    1STR    C0610298   0.046   5.230   2.333
    1STR    C0710299   0.003   5.097   2.325
    1STR    N0810300   0.073   4.995   2.387
    1STR    C0910301   0.028   4.871   2.403
    1STR    O0A10302   0.061   4.780   2.327
    1STR    O0B10303   7.117   4.853   2.489
    1STR    C0C10304   7.109   4.916   2.616
    1STR    C0D10305   0.050   4.906   2.693
    1STR    C0E10306   7.051   5.057   2.609
    1STR    O0F10307   6.920   5.053   2.557
    1STR    C0G10308   6.878   5.175   2.501
    1STR    C0H10309   6.761   5.141   2.411
    1STR    C0I10310   6.838   5.284   2.597
    1STR    O0J10311   6.942   5.311   2.688
    1STR    C0K10312   7.015   5.431   2.684
    1STR    C0M10313   7.145   5.402   2.620
    1STR    C0N10314   6.937   5.557   2.641
    1STR    O0O10315   6.811   5.556   2.710
    1STR    C0P10316   6.817   5.542   2.841
    1STR    O0Q10317   6.902   5.596   2.911
    1STR    N0R10318   6.733   5.449   2.884
    1STR    C0S10319   6.776   5.322   2.922
    1STR    C0T10320   6.686   5.215   2.908
    1STR    C0U10321   6.731   5.083   2.917
    1STR    C0V10322   6.868   5.055   2.932
    1STR    C0W10323   6.913   4.914   2.946
    1STR    C0X10324   6.961   5.159   2.939
    1STR    N0Y10325   7.097   5.126   2.932
    1STR   BCK210326   0.013   5.205   2.913
    1STR    O1010327   0.008   5.326   2.916
    1STR    C1310328   6.912   5.292   2.948
    1STR    C1410329   7.072   5.069   2.260
    1STR    C1510330   6.994   5.170   2.206
    1STR    C1610331   7.029   5.303   2.227
    1STR    C1710332   6.932   5.414   2.195
    1STR    H1B10333   7.108   5.525   2.256
    1STR    H1C10334   0.138   5.254   2.383
    1STR    H1D10335   0.164   5.021   2.431
    1STR    H1E10336   7.036   4.856   2.668
    1STR    H1F10337   0.100   4.811   2.675
    1STR    H1G10338   0.119   4.984   2.661
    1STR    H1H10339   0.034   4.917   2.799
    1STR    H1I10340   7.119   5.125   2.558
    1STR    H1J10341   7.045   5.100   2.707
    1STR    H1K10342   6.960   5.218   2.446
    1STR    H1M10343   6.676   5.107   2.471
    1STR    H1N10344   6.788   5.061   2.343
    1STR    H1O10345   6.731   5.229   2.354
    1STR    H1P10346   6.803   5.370   2.542
    1STR    H1Q10347   6.754   5.247   2.656
    1STR    H1R10348   7.049   5.452   2.784
    1STR    H1S10349   0.016   5.491   2.616
    1STR    H1T10350   7.124   5.363   2.523
    1STR    H1U10351   0.011   5.325   2.671
    1STR    H1V10352   6.922   5.559   2.534
    1STR    H1W10353   6.995   5.645   2.667
    1STR    H1X10354   6.655   5.442   2.820
    1STR    H1Y10355   6.582   5.233   2.890
    1STR    H1Z10356   6.660   5.002   2.911
    1STR    H2010357   6.978   4.885   2.864
    1STR    H2110358   6.970   4.906   3.039
    1STR    H2210359   6.828   4.846   2.951
    1STR    H2310360   7.118   5.028   2.942
    1STR    H2710361   6.981   5.372   2.959
    1STR    H2810362   7.034   4.969   2.255
    1STR    H2910363   6.903   5.140   2.159
    1STR    H2A10364   6.833   5.378   2.174
    1STR    H2B10365   6.970   5.463   2.107
    1STR    H2C10366   6.923   5.484   2.278
    1STR   BCK110367   0.062   5.022   3.990
    1STR    O0310368   0.010   4.921   3.946
    1STR    N0410369   0.196   5.026   3.993
    1STR    C0510370   0.286   5.109   4.055
    1STR    C0610371   0.246   5.170   4.171
    1STR    C0710372   0.317   5.271   4.233
    1STR    N0810373   0.247   5.336   4.331
    1STR    C0910374   0.195   5.453   4.297
    1STR    O0A10375   0.259   5.540   4.241
    1STR    O0B10376   0.061   5.459   4.310
    1STR    C0C10377   7.176   5.385   4.405
    1STR    C0D10378   7.056   5.473   4.427
    1STR    C0E10379   7.133   5.236   4.396
    1STR    O0F10380   0.050   5.143   4.387
    1STR    C0G10381   0.020   5.002   4.402
    1STR    C0H10382   7.096   4.954   4.312
    1STR    C0I10383   0.142   4.910   4.368
    1STR    O0J10384   0.249   4.901   4.460
    1STR    C0K10385   0.335   5.012   4.461
    1STR    C0M10386   0.276   5.101   4.566
    1STR    C0N10387   0.482   4.981   4.491
    1STR    O0O10388   0.555   5.103   4.497
    1STR    C0P10389   0.560   5.171   4.610
    1STR    O0Q10390   0.544   5.124   4.723
    1STR    N0R10391   0.554   5.301   4.581
    1STR    C0S10392   0.493   5.392   4.664
    1STR    C0T10393   0.527   5.401   4.800
    1STR    C0U10394   0.437   5.462   4.888
    1STR    C0V10395   0.316   5.511   4.843
    1STR    C0W10396   0.210   5.547   4.942
    1STR    C0X10397   0.288   5.512   4.706
    1STR    N0Y10398   0.162   5.547   4.670
    1STR   BCK210399   0.058   5.473   4.702
    1STR    O1010400   7.137   5.522   4.698
    1STR    C1310401   0.378   5.456   4.616
    1STR    C1410402   0.445   5.303   4.188
    1STR    C1510403   0.498   5.228   4.081
    1STR    C1610404   0.419   5.132   4.015
    1STR    C1710405   0.477   5.056   3.902
    1STR    H1B10406   0.239   4.959   3.930
    1STR    H1C10407   0.151   5.138   4.203
    1STR    H1D10408   0.186   5.272   4.381
    1STR    H1E10409   0.055   5.391   4.485
    1STR    H1F10410   7.004   5.489   4.334
    1STR    H1G10411   6.987   5.433   4.501
    1STR    H1H10412   7.087   5.571   4.461
    1STR    H1I10413   7.062   5.222   4.315
    1STR    H1J10414   7.080   5.212   4.487
    1STR    H1K10415   7.181   4.985   4.506
    1STR    H1M10416   7.130   4.945   4.210
    1STR    H1N10417   7.007   5.016   4.314
    1STR    H1O10418   7.070   4.852   4.337
    1STR    H1P10419   0.105   4.808   4.363
    1STR    H1Q10420   0.179   4.930   4.267
    1STR    H1R10421   0.335   5.060   4.365
    1STR    H1S10422   0.298   5.206   4.549
    1STR    H1T10423   0.321   5.070   4.659
    1STR    H1U10424   0.170   5.089   4.580
    1STR    H1V10425   0.525   4.920   4.411
    1STR    H1W10426   0.493   4.923   4.584
    1STR    H1X10427   0.562   5.318   4.482
    1STR    H1Y10428   0.615   5.352   4.838
    1STR    H1Z10429   0.452   5.464   4.993
    1STR    H2010430   0.172   5.644   4.912
    1STR    H2110431   0.124   5.481   4.941
    1STR    H2210432   0.248   5.543   5.041
    1STR    H2310433   0.145   5.639   4.634
    1STR    H2710434   0.351   5.449   4.512
    1STR    H2810435   0.503   5.382   4.233
    1STR    H2910436   0.598   5.247   4.046
    1STR    H2A10437   0.456   4.950   3.913
    1STR    H2B10438   0.584   5.071   3.896
    1STR    H2C10439   0.430   5.098   3.814
    1STR   BCK110440   0.100   5.527   5.852
    1STR    O0310441   0.078   5.469   5.953
    1STR    N0410442   0.013   5.574   5.764
    1STR    C0510443   7.065   5.567   5.770
    1STR    C0610444   6.996   5.480   5.855
    1STR    C0710445   6.856   5.484   5.870
    1STR    N0810446   6.795   5.388   5.947
    1STR    C0910447   6.814   5.387   6.077
    1STR    O0A10448   6.775   5.472   6.156
    1STR    O0B10449   6.897   5.285   6.101
    1STR    C0C10450   6.994   5.300   6.203
    1STR    C0D10451   7.044   5.167   6.256
    1STR    C0E10452   7.110   5.383   6.157
    1STR    O0F10453   7.052   5.503   6.107
    1STR    C0G10454   7.117   5.626   6.125
    1STR    C0H10455   7.040   5.734   6.056
    1STR    C0I10456   7.117   5.644   6.268
    1STR    O0J10457   0.059   5.610   6.309
    1STR    C0K10458   0.168   5.701   6.305
    1STR    C0M10459   0.273   5.623   6.228
    1STR    C0N10460   0.143   5.843   6.255
    1STR    O0O10461   0.025   5.895   6.311
    1STR    C0P10462   0.029   5.947   6.431
    1STR    O0Q10463   0.104   6.038   6.462
    1STR    N0R10464   7.132   5.894   6.517
    1STR    C0S10465   7.082   5.766   6.533
    1STR    C0T10466   6.944   5.743   6.526
    1STR    C0U10467   6.896   5.612   6.533
    1STR    C0V10468   6.984   5.503   6.536
    1STR    C0W10469   6.923   5.368   6.511
    1STR    C0X10470   7.124   5.525   6.546
    1STR    N0Y10471   0.023   5.419   6.528
    1STR   BCK210472   0.157   5.418   6.523
    1STR    O1010473   0.234   5.511   6.542
    1STR    C1310474   7.168   5.658   6.560
    1STR    C1410475   6.783   5.569   5.788
    1STR    C1510476   6.848   5.646   5.693
    1STR    C1610477   6.988   5.644   5.684
    1STR    C1710478   7.054   5.711   5.569
    1STR    H1B10479   0.055   5.595   5.673
    1STR    H1C10480   7.051   5.404   5.908
    1STR    H1D10481   6.813   5.297   5.912
    1STR    H1E10482   6.950   5.361   6.278
    1STR    H1F10483   7.131   5.182   6.319
    1STR    H1G10484   6.969   5.119   6.317
    1STR    H1H10485   7.074   5.102   6.175
    1STR    H1I10486   7.160   5.324   6.082
    1STR    H1J10487   7.181   5.398   6.238
    1STR    H1K10488   0.028   5.634   6.091
    1STR    H1M10489   6.936   5.707   6.048
    1STR    H1N10490   7.086   5.743   5.958
    1STR    H1O10491   7.051   5.830   6.106
    1STR    H1P10492   7.072   5.737   6.296
    1STR    H1Q10493   7.046   5.575   6.311
    1STR    H1R10494   0.203   5.710   6.408
    1STR    H1S10495   0.371   5.667   6.241
    1STR    H1T10496   0.248   5.615   6.123
    1STR    H1U10497   0.275   5.522   6.270
    1STR    H1V10498   0.131   5.845   6.147
    1STR    H1W10499   0.228   5.906   6.281
    1STR    H1X10500   7.148   5.941   6.608
    1STR    H1Y10501   6.876   5.825   6.515
    1STR    H1Z10502   6.790   5.596   6.526
    1STR    H2010503   6.995   5.295   6.476
    1STR    H2110504   6.877   5.326   6.597
    1STR    H2210505   6.842   5.379   6.440
    1STR    H2310506   7.173   5.327   6.513
    1STR    H2710507   0.082   5.681   6.576
    1STR    H2810508   6.676   5.565   5.790
    1STR    H2910509   6.788   5.700   5.621
    1STR    H2A10510   7.144   5.765   5.596
    1STR    H2B10511   6.981   5.775   5.522
    1STR    H2C10512   7.082   5.632   5.500
    1STR   BCK110513   1.857   7.100   0.396
    1STR    O0310514   1.971   7.100   0.439
    1STR    N0410515   1.795   6.992   0.345
    1STR    C0510516   1.812   6.860   0.388
    1STR    C0610517   1.912   6.828   0.478
    1STR    C0710518   1.894   6.730   0.574
    1STR    N0810519   1.944   6.761   0.699
    1STR    C0910520   2.071   6.803   0.702
    1STR    O0A10521   2.162   6.729   0.667
    1STR    O0B10522   2.088   6.934   0.722
    1STR    C0C10523   2.000   7.017   0.796
    1STR    C0D10524   2.093   7.127   0.844
    1STR    C0E10525   1.881   7.086   0.728
    1STR    O0F10526   1.798   6.999   0.654
    1STR    C0G10527   1.660   7.010   0.680
    1STR    C0H10528   1.567   7.026   0.566
    1STR    C0I10529   1.622   6.884   0.748
    1STR    O0J10530   1.677   6.901   0.873
    1STR    C0K10531   1.586   6.959   0.965
    1STR    C0M10532   1.551   7.107   0.954
    1STR    C0N10533   1.465   6.868   0.989
    1STR    O0O10534   1.499   6.732   0.962
    1STR    C0P10535   1.500   6.643   1.059
    1STR    O0Q10536   1.431   6.645   1.160
    1STR    N0R10537   1.600   6.558   1.037
    1STR    C0S10538   1.711   6.579   1.117
    1STR    C0T10539   1.768   6.485   1.203
    1STR    C0U10540   1.876   6.524   1.286
    1STR    C0V10541   1.925   6.656   1.284
    1STR    C0W10542   2.036   6.701   1.374
    1STR    C0X10543   1.867   6.748   1.197
    1STR    N0Y10544   1.882   6.883   1.201
    1STR   BCK210545   1.970   6.957   1.137
    1STR    O1010546   1.932   7.062   1.088
    1STR    C1310547   1.767   6.706   1.112
    1STR    C1410548   1.796   6.632   0.554
    1STR    C1510549   1.713   6.643   0.441
    1STR    C1610550   1.716   6.759   0.363
    1STR    C1710551   1.613   6.776   0.257
    1STR    H1B10552   1.714   7.013   0.289
    1STR    H1C10553   1.991   6.896   0.496
    1STR    H1D10554   1.883   6.833   0.737
    1STR    H1E10555   1.960   6.958   0.878
    1STR    H1F10556   2.134   7.182   0.759
    1STR    H1G10557   2.040   0.010   0.905
    1STR    H1H10558   2.175   7.086   0.900
    1STR    H1I10559   1.917   7.164   0.661
    1STR    H1J10560   1.828   7.140   0.805
    1STR    H1K10561   1.640   7.100   0.735
    1STR    H1M10562   1.592   6.965   0.481
    1STR    H1N10563   1.565   7.132   0.547
    1STR    H1O10564   1.464   7.002   0.592
    1STR    H1P10565   1.515   6.866   0.746
    1STR    H1Q10566   1.667   6.799   0.699
    1STR    H1R10567   1.655   6.957   1.045
    1STR    H1S10568   1.502   7.143   1.044
    1STR    H1T10569   1.482   7.128   0.872
    1STR    H1U10570   1.640   7.168   0.941
    1STR    H1V10571   1.388   6.898   0.919
    1STR    H1W10572   1.422   6.884   1.086
    1STR    H1X10573   1.621   6.571   0.940
    1STR    H1Y10574   1.726   6.387   1.210
    1STR    H1Z10575   1.916   6.452   1.355
    1STR    H2010576   2.126   6.714   1.316
    1STR    H2110577   2.010   6.797   1.419
    1STR    H2210578   2.055   6.627   1.451
    1STR    H2310579   1.794   6.933   1.219
    1STR    H2710580   1.726   6.777   1.046
    1STR    H2810581   1.779   6.554   0.626
    1STR    H2910582   1.637   6.568   0.423
    1STR    H2A10583   1.661   6.816   0.169
    1STR    H2B10584   1.533   6.841   0.290
    1STR    H2C10585   1.569   6.680   0.230
    1STR   BCK110586   2.046   7.021   2.258
    1STR    O0310587   1.964   7.006   2.349
    1STR    N0410588   2.075   7.135   2.197
    1STR    C0510589   2.011   0.067   2.207
    1STR    C0610590   1.873   0.077   2.229
    1STR    C0710591   1.808   0.200   2.222
    1STR    N0810592   1.681   0.209   2.273
    1STR    C0910593   1.672   0.253   2.396
    1STR    O0A10594   1.743   0.343   2.437
    1STR    O0B10595   1.596   0.181   2.474
    1STR    C0C10596   1.652   0.139   2.598
    1STR    C0D10597   1.537   0.125   2.696
    1STR    C0E10598   1.728   0.008   2.574
    1STR    O0F10599   1.850   0.028   2.506
    1STR    C0G10600   1.958   0.082   2.580
    1STR    C0H10601   2.071   7.171   2.572
    1STR    C0I10602   2.002   0.211   2.513
    1STR    O0J10603   1.970   0.332   2.579
    1STR    C0K10604   2.063   0.387   2.669
    1STR    C0M10605   2.002   0.352   2.804
    1STR    C0N10606   2.208   0.343   2.644
    1STR    O0O10607   2.297   0.399   2.739
    1STR    C0P10608   2.370   0.314   2.809
    1STR    O0Q10609   2.406   0.203   2.771
    1STR    N0R10610   2.364   0.351   2.935
    1STR    C0S10611   2.283   0.284   3.024
    1STR    C0T10612   2.276   0.332   3.156
    1STR    C0U10613   2.178   0.283   3.242
    1STR    C0V10614   2.085   0.191   3.194
    1STR    C0W10615   1.978   0.142   3.281
    1STR    C0X10616   2.090   0.142   3.063
    1STR    N0Y10617   1.979   0.076   3.015
    1STR   BCK210618   1.963   7.176   2.919
    1STR    O1010619   1.851   7.158   2.873
    1STR    C1310620   2.193   0.185   2.981
    1STR    C1410621   1.883   0.317   2.204
    1STR    C1510622   2.022   0.309   2.195
    1STR    C1610623   2.086   0.184   2.192
    1STR    C1710624   2.235   0.179   2.189
    1STR    H1B10625   2.141   7.124   2.122
    1STR    H1C10626   1.815   7.179   2.253
    1STR    H1D10627   1.602   0.162   2.231
    1STR    H1E10628   1.722   0.213   2.637
    1STR    H1F10629   1.459   0.061   2.656
    1STR    H1G10630   1.573   0.081   2.789
    1STR    H1H10631   1.494   0.222   2.717
    1STR    H1I10632   1.668   7.135   2.509
    1STR    H1J10633   1.745   7.143   2.665
    1STR    H1K10634   1.929   0.100   2.683
    1STR    H1M10635   2.111   7.166   2.472
    1STR    H1N10636   2.035   7.071   2.598
    1STR    H1O10637   2.153   0.007   2.638
    1STR    H1P10638   2.100   0.206   2.467
    1STR    H1Q10639   1.941   0.218   2.426
    1STR    H1R10640   2.058   0.494   2.655
    1STR    H1S10641   2.057   0.399   2.885
    1STR    H1T10642   2.001   0.245   2.818
    1STR    H1U10643   1.899   0.385   2.807
    1STR    H1V10644   2.240   0.375   2.545
    1STR    H1W10645   2.213   0.234   2.646
    1STR    H1X10646   2.377   0.449   2.949
    1STR    H1Y10647   2.343   0.409   3.192
    1STR    H1Z10648   2.174   0.319   3.344
    1STR    H2010649   1.880   0.161   3.240
    1STR    H2110650   1.990   0.035   3.290
    1STR    H2210651   1.991   0.189   3.377
    1STR    H2310652   1.893   0.094   3.062
    1STR    H2710653   2.191   0.150   2.879
    1STR    H2810654   1.835   0.413   2.213
    1STR    H2910655   2.075   0.401   2.194
    1STR    H2A10656   2.271   0.087   2.144
    1STR    H2B10657   2.273   0.188   2.290
    1STR    H2C10658   2.269   0.264   2.131
    1STR   BCK110659   1.926   0.161   4.094
    1STR    O0310660   1.918   0.070   4.174
    1STR    N0410661   1.841   0.191   3.997
    1STR    C0510662   1.722   0.130   3.965
    1STR    C0610663   1.691  -0.002   4.003
    1STR    C0710664   1.562   7.138   3.982
    1STR    N0810665   1.531   7.009   4.014
    1STR    C0910666   1.438   6.980   4.102
    1STR    O0A10667   1.346   7.052   4.138
    1STR    O0B10668   1.478   6.876   4.167
    1STR    C0C10669   1.521   6.902   4.299
    1STR    C0D10670   1.556   6.767   4.349
    1STR    C0E10671   1.639   7.002   4.303
    1STR    O0F10672   1.585   7.127   4.262
    1STR    C0G10673   1.648   0.050   4.312
    1STR    C0H10674   1.617   0.178   4.235
    1STR    C0I10675   1.584   0.066   4.441
    1STR    O0J10676   1.677   0.127   4.528
    1STR    C0K10677   1.705   0.264   4.535
    1STR    C0M10678   1.824   0.283   4.443
    1STR    C0N10679   1.584   0.359   4.531
    1STR    O0O10680   1.472   0.277   4.559
    1STR    C0P10681   1.391   0.293   4.658
    1STR    O0Q10682   1.357   0.401   4.703
    1STR    N0R10683   1.346   0.177   4.706
    1STR    C0S10684   1.405   0.051   4.706
    1STR    C0T10685   1.331   7.125   4.682
    1STR    C0U10686   1.396   7.001   4.677
    1STR    C0V10687   1.536   6.992   4.689
    1STR    C0W10688   1.602   6.857   4.689
    1STR    C0X10689   1.612   7.107   4.709
    1STR    N0Y10690   1.751   7.102   4.694
    1STR   BCK210691   1.844   0.006   4.718
    1STR    O1010692   1.826   0.113   4.776
    1STR    C1310693   1.543   0.038   4.731
    1STR    C1410694   1.468   0.026   3.918
    1STR    C1510695   1.498   0.155   3.874
    1STR    C1610696   1.625   0.208   3.898
    1STR    C1710697   1.657   0.347   3.853
    1STR    H1B10698   1.876   0.259   3.930
    1STR    H1C10699   1.763   7.126   4.052
    1STR    H1D10700   1.598   6.938   3.987
    1STR    H1E10701   1.438   6.943   4.357
    1STR    H1F10702   1.623   6.718   4.280
    1STR    H1G10703   1.602   6.771   4.447
    1STR    H1H10704   1.466   6.708   4.359
    1STR    H1I10705   1.719   6.973   4.235
    1STR    H1J10706   1.681   7.005   4.403
    1STR    H1K10707   1.754   0.030   4.326
    1STR    H1M10708   1.564   0.250   4.293
    1STR    H1N10709   1.557   0.159   4.149
    1STR    H1O10710   1.708   0.228   4.205
    1STR    H1P10711   1.483   0.104   4.431
    1STR    H1Q10712   1.563   7.159   4.481
    1STR    H1R10713   1.745   0.278   4.635
    1STR    H1S10714   1.908   0.321   4.499
    1STR    H1T10715   1.801   0.346   4.359
    1STR    H1U10716   1.863   0.189   4.408
    1STR    H1V10717   1.573   0.404   4.433
    1STR    H1W10718   1.596   0.441   4.600
    1STR    H1X10719   1.259   0.189   4.760
    1STR    H1Y10720   1.224   7.130   4.668
    1STR    H1Z10721   1.338   6.911   4.664
    1STR    H2010722   1.692   6.855   4.629
    1STR    H2110723   1.627   6.832   4.792
    1STR    H2210724   1.532   6.781   4.656
    1STR    H2310725   1.787   7.015   4.660
    1STR    H2710726   1.600   0.127   4.747
    1STR    H2810727   1.375   7.166   3.899
    1STR    H2910728   1.423   0.211   3.822
    1STR    H2A10729   1.685   0.406   3.940
    1STR    H2B10730   1.571   0.392   3.804
    1STR    H2C10731   1.741   0.345   3.784
    1STR   BCK110732   1.746   7.102   5.885
    1STR    O0310733   1.836   7.180   5.911
    1STR    N0410734   1.764   6.977   5.840
    1STR    C0510735   1.881   6.902   5.827
    1STR    C0610736   2.008   6.960   5.843
    1STR    C0710737   2.118   6.882   5.876
    1STR    N0810738   2.211   6.943   5.957
    1STR    C0910739   2.272   7.053   5.918
    1STR    O0A10740   2.314   7.068   5.804
    1STR    O0B10741   2.286   7.148   6.009
    1STR    C0C10742   2.219   7.158   6.134
    1STR    C0D10743   2.247   0.111   6.178
    1STR    C0E10744   2.068   7.131   6.136
    1STR    O0F10745   2.044   6.993   6.161
    1STR    C0G10746   1.908   6.958   6.142
    1STR    C0H10747   1.891   6.807   6.134
    1STR    C0I10748   1.803   7.034   6.221
    1STR    O0J10749   1.702   6.945   6.260
    1STR    C0K10750   1.667   6.961   6.395
    1STR    C0M10751   1.523   7.011   6.395
    1STR    C0N10752   1.698   6.828   6.464
    1STR    O0O10753   1.827   6.776   6.433
    1STR    C0P10754   1.939   6.820   6.492
    1STR    O0Q10755   1.972   6.797   6.607
    1STR    N0R10756   2.017   6.886   6.410
    1STR    C0S10757   2.094   6.994   6.446
    1STR    C0T10758   2.234   6.993   6.435
    1STR    C0U10759   2.306   7.113   6.452
    1STR    C0V10760   2.238   0.044   6.472
    1STR    C0W10761   2.313   0.175   6.485
    1STR    C0X10762   2.098   0.046   6.471
    1STR    N0Y10763   2.027   0.163   6.451
    1STR   BCK210764   1.971   0.249   6.533
    1STR    O1010765   1.922   0.351   6.489
    1STR    C1310766   2.029   7.116   6.466
    1STR    C1410767   2.113   6.743   5.864
    1STR    C1510768   1.991   6.684   5.830
    1STR    C1610769   1.875   6.762   5.817
    1STR    C1710770   1.744   6.691   5.800
    1STR    H1B10771   1.678   6.931   5.816
    1STR    H1C10772   2.018   7.067   5.851
    1STR    H1D10773   2.176   6.946   6.053
    1STR    H1E10774   2.266   7.090   6.202
    1STR    H1F10775   2.232   0.190   6.106
    1STR    H1G10776   2.176   0.144   6.252
    1STR    H1H10777   2.347   0.120   6.219
    1STR    H1I10778   2.024   7.169   6.045
    1STR    H1J10779   2.021   7.188   6.214
    1STR    H1K10780   1.885   6.994   6.047
    1STR    H1M10781   1.967   6.764   6.071
    1STR    H1N10782   1.794   6.783   6.091
    1STR    H1O10783   1.900   6.754   6.226
    1STR    H1P10784   1.855   7.079   6.302
    1STR    H1Q10785   1.761   7.119   6.168
    1STR    H1R10786   1.722   7.040   6.445
    1STR    H1S10787   1.521   7.120   6.388
    1STR    H1T10788   1.469   6.984   6.485
    1STR    H1U10789   1.468   6.980   6.307
    1STR    H1V10790   1.626   6.755   6.428
    1STR    H1W10791   1.684   6.837   6.571
    1STR    H1X10792   1.986   6.888   6.313
    1STR    H1Y10793   2.286   6.902   6.412
    1STR    H1Z10794   2.413   7.112   6.446
    1STR    H2010795   2.277   0.248   6.414
    1STR    H2110796   2.295   0.216   6.583
    1STR    H2210797   2.420   0.160   6.471
    1STR    H2310798   2.002   0.191   6.355
    1STR    H2710799   1.923   7.123   6.474
    1STR    H2810800   2.198   6.682   5.888
    1STR    H2910801   1.984   6.577   5.822
    1STR    H2A10802   1.669   6.756   5.759
    1STR    H2B10803   1.712   6.655   5.897
    1STR    H2C10804   1.759   6.608   5.731
    1STR   BCK110805   1.910   1.844   0.500
    1STR    O0310806   1.843   1.760   0.559
    1STR    N0410807   1.867   1.929   0.409
    1STR    C0510808   1.745   1.981   0.377
    1STR    C0610809   1.625   1.917   0.406
    1STR    C0710810   1.506   1.993   0.408
    1STR    N0810811   1.398   1.935   0.469
    1STR    C0910812   1.325   1.989   0.565
    1STR    O0A10813   1.288   2.106   0.572
    1STR    O0B10814   1.304   1.894   0.653
    1STR    C0C10815   1.401   1.865   0.755
    1STR    C0D10816   1.371   1.723   0.800
    1STR    C0E10817   1.550   1.879   0.719
    1STR    O0F10818   1.572   2.016   0.683
    1STR    C0G10819   1.703   2.065   0.697
    1STR    C0H10820   1.715   2.206   0.639
    1STR    C0I10821   1.727   2.071   0.844
    1STR    O0J10822   1.835   1.987   0.876
    1STR    C0K10823   1.966   2.034   0.899
    1STR    C0M10824   2.046   1.939   0.816
    1STR    C0N10825   2.004   2.180   0.869
    1STR    O0O10826   1.905   2.267   0.917
    1STR    C0P10827   1.921   2.333   1.026
    1STR    O0Q10828   2.001   2.424   1.039
    1STR    N0R10829   1.835   2.302   1.121
    1STR    C0S10830   1.751   2.193   1.131
    1STR    C0T10831   1.614   2.207   1.110
    1STR    C0U10832   1.531   2.093   1.106
    1STR    C0V10833   1.587   1.965   1.121
    1STR    C0W10834   1.500   1.844   1.105
    1STR    C0X10835   1.726   1.951   1.141
    1STR    N0Y10836   1.785   1.831   1.108
    1STR   BCK210837   1.912   1.793   1.116
    1STR    O1010838   1.996   1.837   1.195
    1STR    C1310839   1.805   2.066   1.158
    1STR    C1410840   1.509   2.127   0.370
    1STR    C1510841   1.629   2.185   0.327
    1STR    C1610842   1.748   2.112   0.331
    1STR    C1710843   1.879   2.182   0.309
    1STR    H1B10844   1.943   1.960   0.349
    1STR    H1C10845   1.628   1.816   0.440
    1STR    H1D10846   1.410   1.839   0.493
    1STR    H1E10847   1.382   1.935   0.836
    1STR    H1F10848   1.382   1.651   0.720
    1STR    H1G10849   1.439   1.692   0.879
    1STR    H1H10850   1.270   1.716   0.840
    1STR    H1I10851   1.581   1.811   0.642
    1STR    H1J10852   1.611   1.847   0.804
    1STR    H1K10853   1.775   1.999   0.652
    1STR    H1M10854   1.617   2.244   0.609
    1STR    H1N10855   1.780   2.204   0.555
    1STR    H1O10856   1.760   2.277   0.707
    1STR    H1P10857   1.718   2.171   0.882
    1STR    H1Q10858   1.641   2.030   0.892
    1STR    H1R10859   1.993   2.013   1.001
    1STR    H1S10860   2.145   1.919   0.857
    1STR    H1T10861   2.054   1.987   0.721
    1STR    H1U10862   1.994   1.844   0.804
    1STR    H1V10863   2.008   2.197   0.762
    1STR    H1W10864   2.101   2.203   0.912
    1STR    H1X10865   1.827   2.366   1.197
    1STR    H1Y10866   1.571   2.303   1.091
    1STR    H1Z10867   1.426   2.107   1.087
    1STR    H2010868   1.548   1.768   1.044
    1STR    H2110869   1.479   1.800   1.202
    1STR    H2210870   1.405   1.870   1.058
    1STR    H2310871   1.729   1.767   1.054
    1STR    H2710872   1.910   2.059   1.179
    1STR    H2810873   1.421   2.188   0.381
    1STR    H2910874   1.633   2.288   0.303
    1STR    H2A10875   1.937   2.185   0.401
    1STR    H2B10876   1.860   2.283   0.276
    1STR    H2C10877   1.937   2.127   0.235
    1STR   BCK110878   1.805   1.922   2.281
    1STR    O0310879   1.906   1.928   2.351
    1STR    N0410880   1.737   1.811   2.256
    1STR    C0510881   1.796   1.686   2.240
    1STR    C0610882   1.728   1.567   2.266
    1STR    C0710883   1.788   1.443   2.248
    1STR    N0810884   1.722   1.331   2.290
    1STR    C0910885   1.783   1.270   2.390
    1STR    O0A10886   1.891   1.212   2.384
    1STR    O0B10887   1.724   1.314   2.495
    1STR    C0C10888   1.781   1.412   2.578
    1STR    C0D10889   1.932   1.432   2.576
    1STR    C0E10890   1.711   1.544   2.563
    1STR    O0F10891   1.575   1.527   2.521
    1STR    C0G10892   1.500   1.645   2.498
    1STR    C0H10893   1.373   1.615   2.418
    1STR    C0I10894   1.456   1.706   2.627
    1STR    O0J10895   1.570   1.721   2.705
    1STR    C0K10896   1.622   1.847   2.730
    1STR    C0M10897   1.735   1.878   2.634
    1STR    C0N10898   1.521   1.937   2.802
    1STR    O0O10899   1.422   1.848   2.850
    1STR    C0P10900   1.435   1.792   2.966
    1STR    O0Q10901   1.425   1.855   3.070
    1STR    N0R10902   1.452   1.661   2.965
    1STR    C0S10903   1.564   1.584   2.936
    1STR    C0T10904   1.549   1.446   2.927
    1STR    C0U10905   1.661   1.364   2.912
    1STR    C0V10906   1.790   1.417   2.907
    1STR    C0W10907   1.911   1.326   2.899
    1STR    C0X10908   1.808   1.555   2.908
    1STR    N0Y10909   1.938   1.602   2.901
    1STR   BCK210910   1.987   1.724   2.881
    1STR    O1010911   1.921   1.825   2.860
    1STR    C1310912   1.695   1.635   2.934
    1STR    C1410913   1.919   1.433   2.202
    1STR    C1510914   1.985   1.550   2.171
    1STR    C1610915   1.921   1.673   2.179
    1STR    C1710916   1.978   1.784   2.101
    1STR    H1B10917   1.647   1.828   2.214
    1STR    H1C10918   1.629   1.570   2.305
    1STR    H1D10919   1.627   1.346   2.317
    1STR    H1E10920   1.753   1.373   2.673
    1STR    H1F10921   1.969   1.457   2.477
    1STR    H1G10922   1.960   1.511   2.644
    1STR    H1H10923   1.976   1.339   2.609
    1STR    H1I10924   1.766   1.613   2.499
    1STR    H1J10925   1.726   1.586   2.661
    1STR    H1K10926   1.561   1.718   2.445
    1STR    H1M10927   1.347   1.510   2.420
    1STR    H1N10928   1.380   1.645   2.315
    1STR    H1O10929   1.287   1.670   2.456
    1STR    H1P10930   1.400   1.798   2.613
    1STR    H1Q10931   1.391   1.638   2.682
    1STR    H1R10932   1.689   1.839   2.811
    1STR    H1S10933   1.790   1.963   2.668
    1STR    H1T10934   1.707   1.886   2.530
    1STR    H1U10935   1.807   1.797   2.636
    1STR    H1V10936   1.467   2.007   2.742
    1STR    H1W10937   1.566   1.991   2.884
    1STR    H1X10938   1.403   1.622   3.047
    1STR    H1Y10939   1.451   1.405   2.938
    1STR    H1Z10940   1.646   1.259   2.902
    1STR    H2010941   1.983   1.363   2.828
    1STR    H2110942   1.959   1.322   2.996
    1STR    H2210943   1.882   1.226   2.870
    1STR    H2310944   2.003   1.531   2.928
    1STR    H2710945   1.710   1.736   2.964
    1STR    H2810946   1.969   1.339   2.193
    1STR    H2910947   2.085   1.542   2.137
    1STR    H2A10948   1.899   1.845   2.061
    1STR    H2B10949   2.019   1.742   2.013
    1STR    H2C10950   2.050   1.842   2.158
    1STR   BCK110951   1.789   1.530   4.037
    1STR    O0310952   1.783   1.410   4.020
    1STR    N0410953   1.907   1.585   4.004
    1STR    C0510954   1.973   1.707   3.998
    1STR    C0610955   1.916   1.819   4.052
    1STR    C0710956   1.977   1.944   4.052
    1STR    N0810957   1.916   2.040   4.126
    1STR    C0910958   1.918   2.004   4.252
    1STR    O0A10959   2.022   1.988   4.317
    1STR    O0B10960   1.795   1.969   4.286
    1STR    C0C10961   1.773   1.882   4.394
    1STR    C0D10962   1.627   1.910   4.435
    1STR    C0E10963   1.806   1.734   4.366
    1STR    O0F10964   1.929   1.720   4.302
    1STR    C0G10965   2.009   1.609   4.336
    1STR    C0H10966   1.938   1.473   4.326
    1STR    C0I10967   2.132   1.616   4.248
    1STR    O0J10968   2.248   1.565   4.308
    1STR    C0K10969   2.320   1.650   4.396
    1STR    C0M10970   2.259   1.787   4.431
    1STR    C0N10971   2.344   1.556   4.514
    1STR    O0O10972   2.434   1.615   4.605
    1STR    C0P10973   2.389   1.638   4.722
    1STR    O0Q10974   2.331   1.555   4.793
    1STR    N0R10975   2.386   1.768   4.740
    1STR    C0S10976   2.275   1.825   4.796
    1STR    C0T10977   2.288   1.921   4.896
    1STR    C0U10978   2.173   1.972   4.955
    1STR    C0V10979   2.048   1.927   4.915
    1STR    C0W10980   1.929   1.967   4.992
    1STR    C0X10981   2.034   1.839   4.809
    1STR    N0Y10982   1.907   1.815   4.767
    1STR   BCK210983   1.851   1.720   4.696
    1STR    O1010984   1.736   1.739   4.661
    1STR    C1310985   2.148   1.787   4.749
    1STR    C1410986   2.103   1.961   3.994
    1STR    C1510987   2.165   1.849   3.939
    1STR    C1610988   2.103   1.723   3.945
    1STR    C1710989   2.186   1.607   3.901
    1STR    H1B10990   1.959   1.509   3.960
    1STR    H1C10991   1.824   1.803   4.100
    1STR    H1D10992   1.822   2.056   4.093
    1STR    H1E10993   1.843   1.910   4.471
    1STR    H1F10994   1.555   1.877   4.362
    1STR    H1G10995   1.597   1.864   4.528
    1STR    H1H10996   1.610   2.017   4.444
    1STR    H1I10997   1.732   1.679   4.312
    1STR    H1J10998   1.805   1.677   4.455
    1STR    H1K10999   2.040   1.623   4.438
    1STR    H1M11000   1.934   1.438   4.224
    1STR    H1N11001   1.836   1.473   4.364
    1STR    H1O11002   1.993   1.397   4.380
    1STR    H1P11003   2.115   1.554   4.161
    1STR    H1Q11004   2.147   1.718   4.210
    1STR    H1R11005   2.416   1.671   4.349
    1STR    H1S11006   2.322   1.842   4.500
    1STR    H1T11007   2.160   1.784   4.474
    1STR    H1U11008   2.251   1.851   4.343
    1STR    H1V11009   2.386   1.462   4.481
    1STR    H1W11010   2.248   1.531   4.559
    1STR    H1X11011   2.438   1.819   4.671
    1STR    H1Y11012   2.385   1.949   4.933
    1STR    H1Z11013   2.179   2.041   5.037
    1STR    H2011014   1.889   2.060   4.955
    1STR    H2111015   1.851   1.891   4.992
    1STR    H2211016   1.962   1.979   5.095
    1STR    H2311017   1.836   1.880   4.797
    1STR    H2711018   2.140   1.717   4.669
    1STR    H2811019   2.151   2.057   3.997
    1STR    H2911020   2.263   1.859   3.896
    1STR    H2A11021   2.160   1.515   3.953
    1STR    H2B11022   2.291   1.628   3.919
    1STR    H2C11023   2.170   1.599   3.796
    1STR   BCK111024   1.803   2.022   5.890
    1STR    O0311025   1.824   2.115   5.967
    1STR    N0411026   1.711   2.026   5.796
    1STR    C0511027   1.575   2.027   5.816
    1STR    C0611028   1.510   1.904   5.811
    1STR    C0711029   1.375   1.892   5.845
    1STR    N0811030   1.330   1.763   5.864
    1STR    C0911031   1.322   1.721   5.989
    1STR    O0A11032   1.258   1.774   6.079
    1STR    O0B11033   1.413   1.625   6.006
    1STR    C0C11034   1.506   1.644   6.111
    1STR    C0D11035   1.589   1.517   6.125
    1STR    C0E11036   1.597   1.762   6.081
    1STR    O0F11037   1.529   1.887   6.082
    1STR    C0G11038   1.602   1.989   6.146
    1STR    C0H11039   1.547   2.129   6.128
    1STR    C0I11040   1.584   1.956   6.286
    1STR    O0J11041   1.708   1.964   6.355
    1STR    C0K11042   1.766   2.084   6.402
    1STR    C0M11043   1.871   2.124   6.301
    1STR    C0N11044   1.676   2.197   6.455
    1STR    O0O11045   1.541   2.159   6.458
    1STR    C0P11046   1.470   2.167   6.566
    1STR    O0Q11047   1.449   2.271   6.626
    1STR    N0R11048   1.417   2.052   6.604
    1STR    C0S11049   1.433   1.925   6.551
    1STR    C0T11050   1.321   1.856   6.506
    1STR    C0U11051   1.330   1.723   6.464
    1STR    C0V11052   1.454   1.657   6.463
    1STR    C0W11053   1.457   1.509   6.432
    1STR    C0X11054   1.570   1.727   6.499
    1STR    N0Y11055   1.691   1.659   6.486
    1STR   BCK211056   1.818   1.698   6.496
    1STR    O1011057   1.858   1.808   6.529
    1STR    C1311058   1.556   1.859   6.546
    1STR    C1411059   1.301   2.007   5.874
    1STR    C1511060   1.363   2.134   5.862
    1STR    C1611061   1.500   2.144   5.831
    1STR    C1711062   1.566   2.278   5.809
    1STR    H1B11063   1.729   1.957   5.721
    1STR    H1C11064   1.566   1.814   5.793
    1STR    H1D11065   1.379   1.697   5.808
    1STR    H1E11066   1.452   1.664   6.203
    1STR    H1F11067   1.641   1.493   6.033
    1STR    H1G11068   1.664   1.529   6.204
    1STR    H1H11069   1.525   1.432   6.151
    1STR    H1I11070   1.633   1.753   5.980
    1STR    H1J11071   1.683   1.760   6.148
    1STR    H1K11072   1.708   1.983   6.124
    1STR    H1M11073   1.440   2.128   6.110
    1STR    H1N11074   1.601   2.177   6.049
    1STR    H1O11075   1.566   2.193   6.214
    1STR    H1P11076   1.494   2.003   6.322
    1STR    H1Q11077   1.553   1.854   6.296
    1STR    H1R11078   1.820   2.048   6.489
    1STR    H1S11079   1.921   2.034   6.265
    1STR    H1T11080   1.946   2.188   6.347
    1STR    H1U11081   1.827   2.174   6.215
    1STR    H1V11082   1.685   2.288   6.396
    1STR    H1W11083   1.706   2.220   6.556
    1STR    H1X11084   1.355   2.057   6.682
    1STR    H1Y11085   1.225   1.904   6.510
    1STR    H1Z11086   1.240   1.670   6.442
    1STR    H2011087   1.551   1.477   6.389
    1STR    H2111088   1.443   1.453   6.523
    1STR    H2211089   1.377   1.486   6.363
    1STR    H2311090   1.682   1.559   6.476
    1STR    H2711091   1.644   1.914   6.571
    1STR    H2811092   1.199   1.997   5.905
    1STR    H2911093   1.305   2.223   5.878
    1STR    H2A11094   1.618   2.314   5.897
    1STR    H2B11095   1.492   2.351   5.778
    1STR    H2C11096   1.640   2.268   5.730
    1STR   BCK111097   1.868   3.602   0.410
    1STR    O0311098   1.984   3.640   0.415
    1STR    N0411099   1.831   3.478   0.377
    1STR    C0511100   1.908   3.364   0.396
    1STR    C0611101   2.021   3.370   0.479
    1STR    C0711102   2.085   3.261   0.534
    1STR    N0811103   2.159   3.278   0.649
    1STR    C0911104   2.220   3.395   0.661
    1STR    O0A11105   2.321   3.419   0.597
    1STR    O0B11106   2.152   3.491   0.727
    1STR    C0C11107   2.029   3.481   0.799
    1STR    C0D11108   2.051   3.600   0.889
    1STR    C0E11109   1.896   3.513   0.726
    1STR    O0F11110   1.838   3.407   0.653
    1STR    C0G11111   1.728   3.338   0.704
    1STR    C0H11112   1.665   3.240   0.609
    1STR    C0I11113   1.779   3.266   0.825
    1STR    O0J11114   1.769   3.358   0.931
    1STR    C0K11115   1.638   3.393   0.973
    1STR    C0M11116   1.591   3.534   0.934
    1STR    C0N11117   1.533   3.280   0.967
    1STR    O0O11118   1.604   3.170   1.017
    1STR    C0P11119   1.552   3.072   1.084
    1STR    O0Q11120   1.435   3.036   1.077
    1STR    N0R11121   1.643   3.013   1.163
    1STR    C0S11122   1.767   3.068   1.194
    1STR    C0T11123   1.883   2.991   1.194
    1STR    C0U11124   2.007   3.054   1.211
    1STR    C0V11125   2.018   3.194   1.221
    1STR    C0W11126   2.156   3.252   1.228
    1STR    C0X11127   1.901   3.273   1.222
    1STR    N0Y11128   1.882   3.409   1.208
    1STR   BCK211129   1.942   3.525   1.193
    1STR    O1011130   1.871   3.618   1.156
    1STR    C1311131   1.778   3.206   1.217
    1STR    C1411132   2.050   3.136   0.490
    1STR    C1511133   1.939   3.126   0.406
    1STR    C1611134   1.864   3.236   0.363
    1STR    C1711135   1.733   3.209   0.296
    1STR    H1B11136   1.735   3.470   0.350
    1STR    H1C11137   2.048   3.465   0.519
    1STR    H1D11138   2.117   3.238   0.730
    1STR    H1E11139   2.023   3.391   0.860
    1STR    H1F11140   2.068   3.688   0.829
    1STR    H1G11141   1.962   3.618   0.947
    1STR    H1H11142   2.135   3.583   0.956
    1STR    H1I11143   1.915   3.595   0.659
    1STR    H1J11144   1.821   3.552   0.794
    1STR    H1K11145   1.649   3.409   0.722
    1STR    H1M11146   1.737   3.166   0.576
    1STR    H1N11147   1.625   3.295   0.526
    1STR    H1O11148   1.581   3.188   0.656
    1STR    H1P11149   1.729   3.171   0.838
    1STR    H1Q11150   1.883   3.237   0.811
    1STR    H1R11151   1.666   3.406   1.075
    1STR    H1S11152   1.505   3.563   0.995
    1STR    H1T11153   1.558   3.547   0.832
    1STR    H1U11154   1.669   3.607   0.955
    1STR    H1V11155   1.498   3.259   0.867
    1STR    H1W11156   1.446   3.301   1.028
    1STR    H1X11157   1.607   2.936   1.215
    1STR    H1Y11158   1.877   2.885   1.177
    1STR    H1Z11159   2.097   2.995   1.209
    1STR    H2011160   2.184   3.297   1.133
    1STR    H2111161   2.159   3.327   1.305
    1STR    H2211162   2.229   3.177   1.257
    1STR    H2311163   1.783   3.426   1.199
    1STR    H2711164   1.687   3.262   1.223
    1STR    H2811165   2.104   3.050   0.526
    1STR    H2911166   1.903   3.031   0.385
    1STR    H2A11167   1.662   3.282   0.330
    1STR    H2B11168   1.693   3.115   0.328
    1STR    H2C11169   1.737   3.212   0.188
    1STR   BCK111170   1.936   3.511   2.181
    1STR    O0311171   1.834   3.467   2.230
    1STR    N0411172   1.952   3.628   2.117
    1STR    C0511173   1.872   3.742   2.114
    1STR    C0611174   1.734   3.738   2.135
    1STR    C0711175   1.660   3.855   2.157
    1STR    N0811176   1.535   3.842   2.209
    1STR    C0911177   1.532   3.833   2.340
    1STR    O0A11178   1.585   3.913   2.416
    1STR    O0B11179   1.489   3.713   2.374
    1STR    C0C11180   1.551   3.654   2.485
    1STR    C0D11181   1.459   3.547   2.539
    1STR    C0E11182   1.690   3.595   2.444
    1STR    O0F11183   1.788   3.686   2.389
    1STR    C0G11184   1.909   3.722   2.459
    1STR    C0H11185   2.043   3.702   2.394
    1STR    C0I11186   1.904   3.873   2.487
    1STR    O0J11187   1.864   3.918   2.613
    1STR    C0K11188   1.896   3.838   2.723
    1STR    C0M11189   1.781   3.741   2.716
    1STR    C0N11190   2.038   3.777   2.732
    1STR    O0O11191   2.120   3.823   2.838
    1STR    C0P11192   2.100   3.769   2.954
    1STR    O0Q11193   2.160   3.670   2.996
    1STR    N0R11194   1.997   3.825   3.014
    1STR    C0S11195   1.872   3.766   3.022
    1STR    C0T11196   1.762   3.851   3.024
    1STR    C0U11197   1.634   3.802   2.997
    1STR    C0V11198   1.617   3.669   2.954
    1STR    C0W11199   1.483   3.632   2.899
    1STR    C0X11200   1.727   3.581   2.950
    1STR    N0Y11201   1.709   3.456   2.894
    1STR   BCK211202   1.790   3.369   2.834
    1STR    O1011203   1.750   3.257   2.806
    1STR    C1311204   1.853   3.630   2.992
    1STR    C1411205   1.722   3.979   2.155
    1STR    C1511206   1.860   3.985   2.132
    1STR    C1611207   1.934   3.868   2.107
    1STR    C1711208   2.080   3.882   2.078
    1STR    H1B11209   2.040   3.643   2.067
    1STR    H1C11210   1.690   3.644   2.156
    1STR    H1D11211   1.470   3.778   2.167
    1STR    H1E11212   1.556   3.730   2.562
    1STR    H1F11213   1.432   3.474   2.463
    1STR    H1G11214   1.506   3.497   2.624
    1STR    H1H11215   1.367   3.593   2.575
    1STR    H1I11216   1.664   3.528   2.364
    1STR    H1J11217   1.734   3.533   2.521
    1STR    H1K11218   1.920   3.654   2.543
    1STR    H1M11219   2.047   3.761   2.305
    1STR    H1N11220   2.065   3.599   2.377
    1STR    H1O11221   2.126   3.738   2.453
    1STR    H1P11222   2.003   3.917   2.481
    1STR    H1Q11223   1.844   3.923   2.412
    1STR    H1R11224   1.878   3.905   2.805
    1STR    H1S11225   1.694   3.780   2.764
    1STR    H1T11226   1.807   3.638   2.734
    1STR    H1U11227   1.740   3.741   2.620
    1STR    H1V11228   2.097   3.799   2.645
    1STR    H1W11229   2.032   3.668   2.740
    1STR    H1X11230   1.992   3.926   2.987
    1STR    H1Y11231   1.776   3.957   3.037
    1STR    H1Z11232   1.552   3.872   2.997
    1STR    H2011233   1.470   3.684   2.805
    1STR    H2111234   1.471   3.526   2.881
    1STR    H2211235   1.406   3.663   2.970
    1STR    H2311236   1.615   3.420   2.903
    1STR    H2711237   1.939   3.569   2.990
    1STR    H2811238   1.666   4.069   2.178
    1STR    H2911239   1.908   4.081   2.135
    1STR    H2A11240   2.090   3.840   1.980
    1STR    H2B11241   2.146   3.826   2.143
    1STR    H2C11242   2.111   3.986   2.075
    1STR   BCK111243   1.945   3.651   4.079
    1STR    O0311244   2.016   3.566   4.129
    1STR    N0411245   1.825   3.634   4.023
    1STR    C0511246   1.748   3.521   4.002
    1STR    C0611247   1.611   3.522   4.037
    1STR    C0711248   1.543   3.397   4.046
    1STR    N0811249   1.567   3.335   4.167
    1STR    C0911250   1.651   3.233   4.183
    1STR    O0A11251   1.639   3.126   4.126
    1STR    O0B11252   1.757   3.257   4.254
    1STR    C0C11253   1.772   3.357   4.350
    1STR    C0D11254   1.921   3.337   4.381
    1STR    C0E11255   1.737   3.504   4.318
    1STR    O0F11256   1.598   3.538   4.311
    1STR    C0G11257   1.555   3.672   4.335
    1STR    C0H11258   1.658   3.780   4.297
    1STR    C0I11259   1.420   3.713   4.273
    1STR    O0J11260   1.328   3.614   4.229
    1STR    C0K11261   1.253   3.538   4.323
    1STR    C0M11262   1.331   3.412   4.352
    1STR    C0N11263   1.185   3.609   4.441
    1STR    O0O11264   1.154   3.512   4.540
    1STR    C0P11265   1.244   3.496   4.633
    1STR    O0Q11266   1.307   3.587   4.686
    1STR    N0R11267   1.274   3.366   4.644
    1STR    C0S11268   1.400   3.312   4.655
    1STR    C0T11269   1.410   3.172   4.665
    1STR    C0U11270   1.536   3.111   4.665
    1STR    C0V11271   1.652   3.189   4.658
    1STR    C0W11272   1.784   3.122   4.640
    1STR    C0X11273   1.645   3.330   4.658
    1STR    N0Y11274   1.763   3.402   4.653
    1STR   BCK211275   1.784   3.529   4.618
    1STR    O1011276   1.695   3.607   4.599
    1STR    C1311277   1.517   3.388   4.650
    1STR    C1411278   1.569   3.315   3.939
    1STR    C1511279   1.701   3.317   3.896
    1STR    C1611280   1.796   3.400   3.954
    1STR    C1711281   1.938   3.353   3.961
    1STR    H1B11282   1.774   3.720   4.013
    1STR    H1C11283   1.568   3.608   4.083
    1STR    H1D11284   1.571   3.409   4.239
    1STR    H1E11285   1.707   3.324   4.428
    1STR    H1F11286   1.982   3.413   4.333
    1STR    H1G11287   1.939   3.338   4.487
    1STR    H1H11288   1.957   3.240   4.347
    1STR    H1I11289   1.791   3.528   4.232
    1STR    H1J11290   1.785   3.573   4.383
    1STR    H1K11291   1.537   3.675   4.441
    1STR    H1M11292   1.683   3.776   4.191
    1STR    H1N11293   1.750   3.775   4.354
    1STR    H1O11294   1.617   3.880   4.315
    1STR    H1P11295   1.370   3.786   4.335
    1STR    H1Q11296   1.440   3.767   4.181
    1STR    H1R11297   1.170   3.497   4.269
    1STR    H1S11298   1.266   3.340   4.401
    1STR    H1T11299   1.418   3.431   4.413
    1STR    H1U11300   1.356   3.365   4.259
    1STR    H1V11301   1.091   3.654   4.409
    1STR    H1W11302   1.244   3.689   4.482
    1STR    H1X11303   1.195   3.305   4.618
    1STR    H1Y11304   1.320   3.114   4.674
    1STR    H1Z11305   1.542   3.004   4.671
    1STR    H2011306   1.816   3.135   4.537
    1STR    H2111307   1.858   3.165   4.708
    1STR    H2211308   1.773   3.016   4.659
    1STR    H2311309   1.842   3.351   4.690
    1STR    H2711310   1.508   3.494   4.644
    1STR    H2811311   1.501   3.237   3.908
    1STR    H2911312   1.726   3.257   3.816
    1STR    H2A11313   2.008   3.431   3.932
    1STR    H2B11314   1.952   3.265   3.900
    1STR    H2C11315   1.959   3.325   4.064
    1STR   BCK111316   1.742   3.338   5.772
    1STR    O0311317   1.665   3.270   5.706
    1STR    N0411318   1.868   3.295   5.776
    1STR    C0511319   1.992   3.345   5.809
    1STR    C0611320   2.008   3.474   5.854
    1STR    C0711321   2.130   3.527   5.894
    1STR    N0811322   2.128   3.657   5.936
    1STR    C0911323   2.081   3.674   6.057
    1STR    O0A11324   2.115   3.607   6.154
    1STR    O0B11325   1.982   3.762   6.052
    1STR    C0C11326   1.888   3.769   6.156
    1STR    C0D11327   1.805   3.894   6.140
    1STR    C0E11328   1.802   3.641   6.170
    1STR    O0F11329   1.857   3.522   6.116
    1STR    C0G11330   1.820   3.401   6.179
    1STR    C0H11331   1.684   3.345   6.141
    1STR    C0I11332   1.930   3.302   6.145
    1STR    O0J11333   1.897   3.173   6.189
    1STR    C0K11334   1.901   3.153   6.328
    1STR    C0M11335   1.797   3.046   6.355
    1STR    C0N11336   2.042   3.113   6.362
    1STR    O0O11337   2.130   3.224   6.358
    1STR    C0P11338   2.130   3.306   6.459
    1STR    O0Q11339   2.106   3.274   6.575
    1STR    N0R11340   2.143   3.430   6.416
    1STR    C0S11341   2.103   3.540   6.488
    1STR    C0T11342   2.143   3.563   6.619
    1STR    C0U11343   2.092   3.674   6.689
    1STR    C0V11344   1.991   3.751   6.636
    1STR    C0W11345   1.932   3.860   6.720
    1STR    C0X11346   1.940   3.719   6.512
    1STR    N0Y11347   1.820   3.774   6.478
    1STR   BCK211348   1.703   3.714   6.461
    1STR    O1011349   1.609   3.781   6.424
    1STR    C1311350   2.006   3.622   6.434
    1STR    C1411351   2.242   3.446   5.897
    1STR    C1511352   2.231   3.315   5.851
    1STR    C1611353   2.108   3.265   5.804
    1STR    C1711354   2.102   3.125   5.755
    1STR    H1B11355   1.866   3.194   5.754
    1STR    H1C11356   1.920   3.529   5.862
    1STR    H1D11357   2.077   3.718   5.870
    1STR    H1E11358   1.947   3.783   6.246
    1STR    H1F11359   1.749   3.894   6.047
    1STR    H1G11360   1.733   3.903   6.222
    1STR    H1H11361   1.869   3.982   6.142
    1STR    H1I11362   1.696   3.654   6.147
    1STR    H1J11363   1.799   3.625   6.271
    1STR    H1K11364   1.822   3.416   6.285
    1STR    H1M11365   1.690   3.291   6.046
    1STR    H1N11366   1.606   3.421   6.135
    1STR    H1O11367   1.652   3.270   6.212
    1STR    H1P11368   1.936   3.292   6.038
    1STR    H1Q11369   2.027   3.338   6.178
    1STR    H1R11370   1.876   3.242   6.381
    1STR    H1S11371   1.698   3.085   6.334
    1STR    H1T11372   1.799   3.013   6.459
    1STR    H1U11373   1.812   2.961   6.289
    1STR    H1V11374   2.071   3.044   6.284
    1STR    H1W11375   2.046   3.063   6.460
    1STR    H1X11376   2.149   3.440   6.315
    1STR    H1Y11377   2.216   3.496   6.659
    1STR    H1Z11378   2.122   3.704   6.786
    1STR    H2011379   1.834   3.827   6.754
    1STR    H2111380   1.993   3.881   6.807
    1STR    H2211381   1.923   3.951   6.661
    1STR    H2311382   1.813   3.874   6.480
    1STR    H2711383   1.974   3.592   6.338
    1STR    H2811384   2.336   3.483   5.936
    1STR    H2911385   2.316   3.251   5.854
    1STR    H2A11386   2.024   3.114   5.680
    1STR    H2B11387   2.080   3.060   5.839
    1STR    H2C11388   2.197   3.095   5.711
    1STR   BCK111389   1.861   5.557   0.512
    1STR    O0311390   1.800   5.472   0.575
    1STR    N0411391   1.807   5.641   0.425
    1STR    C0511392   1.672   5.661   0.402
    1STR    C0611393   1.575   5.562   0.428
    1STR    C0711394   1.441   5.596   0.453
    1STR    N0811395   1.352   5.496   0.490
    1STR    C0911396   1.312   5.474   0.614
    1STR    O0A11397   1.279   5.561   0.694
    1STR    O0B11398   1.343   5.346   0.643
    1STR    C0C11399   1.435   5.320   0.749
    1STR    C0D11400   1.445   5.170   0.774
    1STR    C0E11401   1.574   5.375   0.717
    1STR    O0F11402   1.560   5.512   0.683
    1STR    C0G11403   1.617   5.618   0.752
    1STR    C0H11404   1.569   5.754   0.705
    1STR    C0I11405   1.579   5.598   0.893
    1STR    O0J11406   1.676   5.516   0.951
    1STR    C0K11407   1.810   5.559   0.957
    1STR    C0M11408   1.898   5.454   0.894
    1STR    C0N11409   1.852   5.708   0.937
    1STR    O0O11410   1.751   5.801   0.966
    1STR    C0P11411   1.766   5.926   1.010
    1STR    O0Q11412   1.864   5.997   0.997
    1STR    N0R11413   1.660   5.964   1.081
    1STR    C0S11414   1.598   5.864   1.154
    1STR    C0T11415   1.468   5.819   1.128
    1STR    C0U11416   1.440   5.684   1.158
    1STR    C0V11417   1.544   5.599   1.201
    1STR    C0W11418   1.524   5.452   1.170
    1STR    C0X11419   1.667   5.653   1.248
    1STR    N0Y11420   1.779   5.577   1.278
    1STR   BCK211421   1.904   5.626   1.292
    1STR    O1011422   1.937   5.716   1.367
    1STR    C1311423   1.684   5.791   1.236
    1STR    C1411424   1.399   5.727   0.426
    1STR    C1511425   1.492   5.821   0.377
    1STR    C1611426   1.628   5.788   0.365
    1STR    C1711427   1.728   5.894   0.326
    1STR    H1B11428   1.871   5.681   0.358
    1STR    H1C11429   1.609   5.462   0.446
    1STR    H1D11430   1.365   5.409   0.442
    1STR    H1E11431   1.396   5.368   0.839
    1STR    H1F11432   1.483   5.118   0.686
    1STR    H1G11433   1.514   5.150   0.856
    1STR    H1H11434   1.348   5.129   0.800
    1STR    H1I11435   1.614   5.323   0.630
    1STR    H1J11436   1.647   5.355   0.795
    1STR    H1K11437   1.723   5.617   0.737
    1STR    H1M11438   1.462   5.752   0.684
    1STR    H1N11439   1.623   5.783   0.617
    1STR    H1O11440   1.588   5.832   0.778
    1STR    H1P11441   1.566   5.691   0.943
    1STR    H1Q11442   1.479   5.556   0.897
    1STR    H1R11443   1.821   5.537   1.059
    1STR    H1S11444   2.002   5.467   0.922
    1STR    H1T11445   1.892   5.454   0.786
    1STR    H1U11446   1.866   5.355   0.927
    1STR    H1V11447   1.878   5.723   0.833
    1STR    H1W11448   1.937   5.730   1.001
    1STR    H1X11449   1.657   6.059   1.114
    1STR    H1Y11450   1.398   5.877   1.071
    1STR    H1Z11451   1.345   5.643   1.127
    1STR    H2011452   1.478   5.440   1.073
    1STR    H2111453   1.619   5.402   1.163
    1STR    H2211454   1.455   5.401   1.234
    1STR    H2311455   1.771   5.480   1.247
    1STR    H2711456   1.776   5.838   1.262
    1STR    H2811457   1.296   5.755   0.440
    1STR    H2911458   1.460   5.920   0.354
    1STR    H2A11459   1.773   5.935   0.416
    1STR    H2B11460   1.679   5.972   0.269
    1STR    H2C11461   1.806   5.850   0.264
    1STR   BCK111462   1.814   5.240   2.193
    1STR    O0311463   1.931   5.204   2.184
    1STR    N0411464   1.709   5.159   2.183
    1STR    C0511465   1.718   5.024   2.200
    1STR    C0611466   1.730   4.987   2.333
    1STR    C0711467   1.842   4.914   2.371
    1STR    N0811468   1.873   4.920   2.505
    1STR    C0911469   2.000   4.903   2.537
    1STR    O0A11470   2.047   4.793   2.564
    1STR    O0B11471   2.072   5.011   2.509
    1STR    C0C11472   2.042   5.135   2.569
    1STR    C0D11473   2.181   5.195   2.583
    1STR    C0E11474   1.951   5.235   2.496
    1STR    O0F11475   1.814   5.198   2.483
    1STR    C0G11476   1.718   5.297   2.520
    1STR    C0H11477   1.580   5.269   2.461
    1STR    C0I11478   1.707   5.277   2.666
    1STR    O0J11479   1.683   5.385   2.753
    1STR    C0K11480   1.551   5.435   2.772
    1STR    C0M11481   1.541   5.564   2.694
    1STR    C0N11482   1.430   5.340   2.755
    1STR    O0O11483   1.473   5.217   2.805
    1STR    C0P11484   1.408   5.106   2.793
    1STR    O0Q11485   1.298   5.098   2.738
    1STR    N0R11486   1.470   5.003   2.850
    1STR    C0S11487   1.604   4.986   2.893
    1STR    C0T11488   1.651   4.861   2.935
    1STR    C0U11489   1.787   4.841   2.962
    1STR    C0V11490   1.879   4.945   2.956
    1STR    C0W11491   2.018   4.915   3.003
    1STR    C0X11492   1.834   5.073   2.920
    1STR    N0Y11493   1.901   5.188   2.888
    1STR   BCK211494   2.022   5.238   2.868
    1STR    O1011495   2.028   5.347   2.813
    1STR    C1311496   1.697   5.090   2.898
    1STR    C1411497   1.927   4.859   2.273
    1STR    C1511498   1.892   4.871   2.138
    1STR    C1611499   1.783   4.949   2.102
    1STR    C1711500   1.739   4.957   1.961
    1STR    H1B11501   1.617   5.198   2.192
    1STR    H1C11502   1.672   5.038   2.406
    1STR    H1D11503   1.836   5.008   2.538
    1STR    H1E11504   1.999   5.110   2.665
    1STR    H1F11505   2.228   5.202   2.485
    1STR    H1G11506   2.178   5.294   2.627
    1STR    H1H11507   2.243   5.131   2.646
    1STR    H1I11508   1.994   5.254   2.399
    1STR    H1J11509   1.958   5.330   2.550
    1STR    H1K11510   1.749   5.399   2.497
    1STR    H1M11511   1.535   5.177   2.497
    1STR    H1N11512   1.581   5.267   2.354
    1STR    H1O11513   1.513   5.350   2.485
    1STR    H1P11514   1.651   5.186   2.680
    1STR    H1Q11515   1.806   5.250   2.694
    1STR    H1R11516   1.551   5.463   2.876
    1STR    H1S11517   1.443   5.611   2.708
    1STR    H1T11518   1.556   5.544   2.589
    1STR    H1U11519   1.618   5.633   2.726
    1STR    H1V11520   1.395   5.329   2.653
    1STR    H1W11521   1.345   5.374   2.814
    1STR    H1X11522   1.397   4.937   2.886
    1STR    H1Y11523   1.585   4.780   2.956
    1STR    H1Z11524   1.822   4.744   2.989
    1STR    H2011525   2.086   4.916   2.918
    1STR    H2111526   2.045   4.990   3.078
    1STR    H2211527   2.023   4.819   3.052
    1STR    H2311528   1.837   5.264   2.868
    1STR    H2711529   1.666   5.191   2.891
    1STR    H2811530   2.019   4.810   2.297
    1STR    H2911531   1.952   4.827   2.062
    1STR    H2A11532   1.778   5.047   1.919
    1STR    H2B11533   1.631   4.960   1.955
    1STR    H2C11534   1.777   4.871   1.908
    1STR   BCK111535   1.971   5.054   4.024
    1STR    O0311536   1.953   5.086   4.140
    1STR    N0411537   2.044   5.121   3.933
    1STR    C0511538   2.078   5.256   3.946
    1STR    C0611539   1.984   5.340   4.002
    1STR    C0711540   2.000   5.476   4.023
    1STR    N0811541   1.897   5.526   4.099
    1STR    C0911542   1.901   5.614   4.198
    1STR    O0A11543   1.977   5.709   4.203
    1STR    O0B11544   1.799   5.596   4.280
    1STR    C0C11545   1.768   5.475   4.350
    1STR    C0D11546   1.617   5.465   4.346
    1STR    C0E11547   1.826   5.335   4.316
    1STR    O0F11548   1.954   5.325   4.256
    1STR    C0G11549   2.077   5.325   4.323
    1STR    C0H11550   2.181   5.238   4.255
    1STR    C0I11551   2.136   5.465   4.336
    1STR    O0J11552   2.074   5.533   4.443
    1STR    C0K11553   2.094   5.472   4.567
    1STR    C0M11554   1.973   5.397   4.613
    1STR    C0N11555   2.221   5.386   4.588
    1STR    O0O11556   2.321   5.474   4.619
    1STR    C0P11557   2.337   5.494   4.743
    1STR    O0Q11558   2.361   5.409   4.828
    1STR    N0R11559   2.295   5.616   4.767
    1STR    C0S11560   2.210   5.639   4.869
    1STR    C0T11561   2.219   5.758   4.940
    1STR    C0U11562   2.120   5.785   5.033
    1STR    C0V11563   2.012   5.698   5.048
    1STR    C0W11564   1.908   5.733   5.144
    1STR    C0X11565   2.001   5.581   4.974
    1STR    N0Y11566   1.879   5.516   4.966
    1STR   BCK211567   1.844   5.406   4.901
    1STR    O1011568   1.744   5.415   4.833
    1STR    C1311569   2.104   5.550   4.887
    1STR    C1411570   2.120   5.535   3.985
    1STR    C1511571   2.220   5.453   3.929
    1STR    C1611572   2.200   5.314   3.909
    1STR    C1711573   2.315   5.228   3.865
    1STR    H1B11574   2.048   5.081   3.842
    1STR    H1C11575   1.893   5.295   4.037
    1STR    H1D11576   1.825   5.457   4.116
    1STR    H1E11577   1.795   5.498   4.452
    1STR    H1F11578   1.577   5.438   4.249
    1STR    H1G11579   1.580   5.392   4.418
    1STR    H1H11580   1.572   5.561   4.371
    1STR    H1I11581   1.763   5.293   4.240
    1STR    H1J11582   1.811   5.261   4.394
    1STR    H1K11583   2.054   5.279   4.415
    1STR    H1M11584   2.204   5.274   4.157
    1STR    H1N11585   2.150   5.134   4.249
    1STR    H1O11586   2.275   5.238   4.309
    1STR    H1P11587   2.244   5.465   4.349
    1STR    H1Q11588   2.126   5.520   4.245
    1STR    H1R11589   2.098   5.558   4.632
    1STR    H1S11590   1.909   5.461   4.668
    1STR    H1T11591   2.003   5.314   4.674
    1STR    H1U11592   1.913   5.351   4.539
    1STR    H1V11593   2.256   5.327   4.506
    1STR    H1W11594   2.207   5.315   4.669
    1STR    H1X11595   2.306   5.682   4.691
    1STR    H1Y11596   2.299   5.827   4.924
    1STR    H1Z11597   2.126   5.874   5.090
    1STR    H2011598   1.822   5.755   5.083
    1STR    H2111599   1.890   5.648   5.209
    1STR    H2211600   1.933   5.819   5.205
    1STR    H2311601   1.800   5.572   4.991
    1STR    H2711602   2.097   5.460   4.829
    1STR    H2811603   2.139   5.640   4.004
    1STR    H2911604   2.315   5.496   3.905
    1STR    H2A11605   2.295   5.123   3.883
    1STR    H2B11606   2.403   5.257   3.922
    1STR    H2C11607   2.334   5.244   3.760
    1STR   BCK111608   1.919   5.511   5.871
    1STR    O0311609   1.866   5.495   5.976
    1STR    N0411610   1.850   5.529   5.760
    1STR    C0511611   1.720   5.487   5.755
    1STR    C0611612   1.689   5.357   5.794
    1STR    C0711613   1.556   5.316   5.806
    1STR    N0811614   1.538   5.190   5.858
    1STR    C0911615   1.434   5.137   5.920
    1STR    O0A11616   1.320   5.176   5.910
    1STR    O0B11617   1.478   5.057   6.014
    1STR    C0C11618   1.420   5.079   6.141
    1STR    C0D11619   1.443   4.954   6.224
    1STR    C0E11620   1.485   5.203   6.204
    1STR    O0F11621   1.505   5.308   6.113
    1STR    C0G11622   1.438   5.430   6.133
    1STR    C0H11623   1.532   5.529   6.068
    1STR    C0I11624   1.301   5.446   6.065
    1STR    O0J11625   1.190   5.403   6.138
    1STR    C0K11626   1.143   5.483   6.246
    1STR    C0M11627   1.150   5.380   6.356
    1STR    C0N11628   1.208   5.622   6.279
    1STR    O0O11629   1.263   5.627   6.410
    1STR    C0P11630   1.393   5.614   6.427
    1STR    O0Q11631   1.482   5.649   6.350
    1STR    N0R11632   1.410   5.535   6.532
    1STR    C0S11633   1.475   5.415   6.521
    1STR    C0T11634   1.397   5.301   6.541
    1STR    C0U11635   1.453   5.174   6.532
    1STR    C0V11636   1.590   5.160   6.513
    1STR    C0W11637   1.645   5.021   6.513
    1STR    C0X11638   1.672   5.273   6.499
    1STR    N0Y11639   1.807   5.248   6.492
    1STR   BCK211640   1.911   5.330   6.505
    1STR    O1011641   1.908   5.451   6.514
    1STR    C1311642   1.613   5.402   6.499
    1STR    C1411643   1.455   5.405   5.771
    1STR    C1511644   1.484   5.537   5.737
    1STR    C1611645   1.618   5.578   5.727
    1STR    C1711646   1.652   5.719   5.690
    1STR    H1B11647   1.906   5.541   5.675
    1STR    H1C11648   1.767   5.289   5.823
    1STR    H1D11649   1.618   5.129   5.857
    1STR    H1E11650   1.313   5.097   6.134
    1STR    H1F11651   1.547   4.925   6.223
    1STR    H1G11652   1.409   4.969   6.326
    1STR    H1H11653   1.385   4.872   6.181
    1STR    H1I11654   1.583   5.175   6.239
    1STR    H1J11655   1.427   5.236   6.289
    1STR    H1K11656   1.431   5.449   6.239
    1STR    H1M11657   1.479   5.592   6.000
    1STR    H1N11658   1.605   5.480   6.006
    1STR    H1O11659   1.584   5.589   6.142
    1STR    H1P11660   1.281   5.546   6.030
    1STR    H1Q11661   1.303   5.391   5.974
    1STR    H1R11662   1.038   5.503   6.225
    1STR    H1S11663   1.124   5.421   6.453
    1STR    H1T11664   1.251   5.343   6.356
    1STR    H1U11665   1.086   5.295   6.333
    1STR    H1V11666   1.129   5.697   6.276
    1STR    H1W11667   1.282   5.657   6.208
    1STR    H1X11668   1.332   5.544   6.596
    1STR    H1Y11669   1.292   5.308   6.563
    1STR    H1Z11670   1.390   5.087   6.542
    1STR    H2011671   1.733   5.012   6.576
    1STR    H2111672   1.570   4.952   6.553
    1STR    H2211673   1.664   4.995   6.411
    1STR    H2311674   1.829   5.152   6.508
    1STR    H2711675   1.671   5.492   6.491
    1STR    H2811676   1.353   5.373   5.773
    1STR    H2911677   1.403   5.606   5.720
    1STR    H2A11678   1.708   5.766   5.770
    1STR    H2B11679   1.563   5.777   5.672
    1STR    H2C11680   1.713   5.720   5.600
    1STR   BCK111681   3.501   7.119   0.496
    1STR    O0311682   3.428   7.035   0.548
    1STR    N0411683   3.585   7.092   0.399
    1STR    C0511684   3.682   6.994   0.408
    1STR    C0611685   3.806   7.037   0.453
    1STR    C0711686   3.892   6.946   0.516
    1STR    N0811687   3.963   6.991   0.624
    1STR    C0911688   4.020   7.110   0.617
    1STR    O0A11689   4.110   7.133   0.537
    1STR    O0B11690   3.963   0.014   0.693
    1STR    C0C11691   3.871   7.182   0.799
    1STR    C0D11692   3.845   0.133   0.848
    1STR    C0E11693   3.737   7.110   0.769
    1STR    O0F11694   3.751   6.971   0.791
    1STR    C0G11695   3.643   6.896   0.737
    1STR    C0H11696   3.684   6.749   0.741
    1STR    C0I11697   3.508   6.907   0.805
    1STR    O0J11698   3.448   7.032   0.826
    1STR    C0K11699   3.372   7.035   0.947
    1STR    C0M11700   3.314   7.175   0.956
    1STR    C0N11701   3.263   6.924   0.961
    1STR    O0O11702   3.314   6.790   0.974
    1STR    C0P11703   3.390   6.760   1.079
    1STR    O0Q11704   3.386   6.817   1.186
    1STR    N0R11705   3.485   6.675   1.043
    1STR    C0S11706   3.619   6.688   1.075
    1STR    C0T11707   3.702   6.575   1.079
    1STR    C0U11708   3.840   6.592   1.096
    1STR    C0V11709   3.897   6.719   1.105
    1STR    C0W11710   4.041   6.736   1.144
    1STR    C0X11711   3.817   6.832   1.086
    1STR    N0Y11712   3.879   6.954   1.090
    1STR   BCK211713   3.824   7.075   1.099
    1STR    O1011714   3.715   7.111   1.057
    1STR    C1311715   3.679   6.815   1.077
    1STR    C1411716   3.869   6.809   0.502
    1STR    C1511717   3.752   6.765   0.441
    1STR    C1611718   3.655   6.858   0.402
    1STR    C1711719   3.518   6.807   0.377
    1STR    H1B11720   3.610   7.167   0.333
    1STR    H1C11721   3.824   7.143   0.463
    1STR    H1D11722   3.903   6.979   0.706
    1STR    H1E11723   3.924   7.127   0.876
    1STR    H1F11724   3.805   0.198   0.770
    1STR    H1G11725   3.774   0.132   0.930
    1STR    H1H11726   3.938   0.177   0.883
    1STR    H1I11727   3.702   7.128   0.670
    1STR    H1J11728   3.658   7.148   0.833
    1STR    H1K11729   3.626   6.925   0.636
    1STR    H1M11730   3.670   6.705   0.837
    1STR    H1N11731   3.789   6.735   0.721
    1STR    H1O11732   3.625   6.690   0.671
    1STR    H1P11733   3.436   6.842   0.755
    1STR    H1Q11734   3.526   6.863   0.899
    1STR    H1R11735   3.444   7.026   1.028
    1STR    H1S11736   3.262   7.190   1.050
    1STR    H1T11737   3.245   0.005   0.874
    1STR    H1U11738   3.394   0.058   0.952
    1STR    H1V11739   3.197   6.927   0.876
    1STR    H1W11740   3.202   6.943   1.049
    1STR    H1X11741   3.456   6.597   0.988
    1STR    H1Y11742   3.659   6.477   1.070
    1STR    H1Z11743   3.905   6.506   1.101
    1STR    H2011744   4.094   6.791   1.069
    1STR    H2111745   4.046   6.791   1.238
    1STR    H2211746   4.089   6.640   1.159
    1STR    H2311747   3.975   6.948   1.115
    1STR    H2711748   3.617   6.903   1.074
    1STR    H2811749   3.932   6.737   0.549
    1STR    H2911750   3.729   6.661   0.440
    1STR    H2A11751   3.478   6.791   0.476
    1STR    H2B11752   3.524   6.713   0.324
    1STR    H2C11753   3.456   6.879   0.325
    1STR   BCK111754   3.482   6.957   2.196
    1STR    O0311755   3.465   6.851   2.138
    1STR    N0411756   3.396   7.057   2.175
    1STR    C0511757   3.372   7.182   2.226
    1STR    C0611758   3.474   0.074   2.274
    1STR    C0711759   3.443   0.197   2.331
    1STR    N0811760   3.535   0.257   2.412
    1STR    C0911761   3.515   0.255   2.542
    1STR    O0A11762   3.561   0.342   2.612
    1STR    O0B11763   3.442   0.152   2.584
    1STR    C0C11764   3.505   0.036   2.635
    1STR    C0D11765   3.389   7.126   2.653
    1STR    C0E11766   3.607   7.159   2.545
    1STR    O0F11767   3.709   0.050   2.487
    1STR    C0G11768   3.834   0.034   2.550
    1STR    C0H11769   3.916   7.108   2.496
    1STR    C0I11770   3.910   0.166   2.532
    1STR    O0J11771   3.837   0.275   2.584
    1STR    C0K11772   3.842   0.298   2.724
    1STR    C0M11773   3.883   0.182   2.814
    1STR    C0N11774   3.918   0.425   2.757
    1STR    O0O11775   3.833   0.538   2.740
    1STR    C0P11776   3.818   0.620   2.844
    1STR    O0Q11777   3.877   0.726   2.857
    1STR    N0R11778   3.737   0.579   2.940
    1STR    C0S11779   3.652   0.472   2.937
    1STR    C0T11780   3.532   0.478   2.867
    1STR    C0U11781   3.444   0.370   2.869
    1STR    C0V11782   3.484   0.250   2.929
    1STR    C0W11783   3.392   0.134   2.906
    1STR    C0X11784   3.606   0.240   2.998
    1STR    N0Y11785   3.653   0.117   3.041
    1STR   BCK211786   3.768   0.099   3.105
    1STR    O1011787   3.814   0.174   3.190
    1STR    C1311788   3.687   0.355   3.006
    1STR    C1411789   3.313   0.248   2.329
    1STR    C1511790   3.211   0.169   2.276
    1STR    C1611791   3.240   0.041   2.229
    1STR    C1711792   3.125   7.145   2.191
    1STR    H1B11793   3.339   7.036   2.093
    1STR    H1C11794   3.575   0.038   2.278
    1STR    H1D11795   3.633   0.238   2.397
    1STR    H1E11796   3.557   0.061   2.727
    1STR    H1F11797   3.345   7.102   2.556
    1STR    H1G11798   3.424   7.032   2.698
    1STR    H1H11799   3.307   7.164   2.712
    1STR    H1I11800   3.542   7.129   2.466
    1STR    H1J11801   3.645   7.066   2.588
    1STR    H1K11802   3.816   0.008   2.653
    1STR    H1M11803   3.975   7.134   2.409
    1STR    H1N11804   3.853   7.022   2.474
    1STR    H1O11805   3.987   7.074   2.572
    1STR    H1P11806   4.011   0.160   2.574
    1STR    H1Q11807   3.922   0.184   2.426
    1STR    H1R11808   3.739   0.316   2.752
    1STR    H1S11809   3.902   0.215   2.915
    1STR    H1T11810   3.970   0.125   2.782
    1STR    H1U11811   3.797   0.117   2.821
    1STR    H1V11812   4.007   0.434   2.695
    1STR    H1W11813   3.953   0.421   2.861
    1STR    H1X11814   3.737   0.633   3.024
    1STR    H1Y11815   3.504   0.566   2.811
    1STR    H1Z11816   3.350   0.377   2.818
    1STR    H2011817   3.343   0.150   2.811
    1STR    H2111818   3.445   0.040   2.905
    1STR    H2211819   3.311   0.129   2.975
    1STR    H2311820   3.606   0.036   3.004
    1STR    H2711821   3.781   0.356   3.056
    1STR    H2811822   3.290   0.341   2.377
    1STR    H2911823   3.110   0.206   2.279
    1STR    H2A11824   3.147   7.109   2.092
    1STR    H2B11825   3.032   0.011   2.188
    1STR    H2C11826   3.116   7.061   2.260
    1STR   BCK111827   3.739   7.069   4.002
    1STR    O0311828   3.849   7.092   4.049
    1STR    N0411829   3.709   6.949   3.951
    1STR    C0511830   3.594   6.881   3.984
    1STR    C0611831   3.559   6.868   4.116
    1STR    C0711832   3.438   6.811   4.157
    1STR    N0811833   3.408   6.814   4.290
    1STR    C0911834   3.504   6.780   4.372
    1STR    O0A11835   3.533   6.662   4.392
    1STR    O0B11836   3.584   6.879   4.416
    1STR    C0C11837   3.586   7.020   4.387
    1STR    C0D11838   3.731   7.064   4.376
    1STR    C0E11839   3.498   7.104   4.299
    1STR    O0F11840   3.364   7.069   4.313
    1STR    C0G11841   3.285   7.151   4.232
    1STR    C0H11842   3.219   7.055   4.140
    1STR    C0I11843   3.184   0.029   4.318
    1STR    O0J11844   3.251   0.063   4.437
    1STR    C0K11845   3.177   0.137   4.532
    1STR    C0M11846   3.213   0.282   4.505
    1STR    C0N11847   3.024   0.107   4.537
    1STR    O0O11848   2.995   7.158   4.522
    1STR    C0P11849   3.057   7.078   4.601
    1STR    O0Q11850   3.069   7.102   4.720
    1STR    N0R11851   3.116   6.976   4.541
    1STR    C0S11852   3.233   6.919   4.584
    1STR    C0T11853   3.249   6.780   4.584
    1STR    C0U11854   3.364   6.723   4.639
    1STR    C0V11855   3.468   6.804   4.685
    1STR    C0W11856   3.594   6.736   4.731
    1STR    C0X11857   3.459   6.945   4.675
    1STR    N0Y11858   3.572   7.022   4.701
    1STR   BCK211859   3.602   7.150   4.668
    1STR    O1011860   3.521   0.044   4.632
    1STR    C1311861   3.340   7.000   4.625
    1STR    C1411862   3.346   6.769   4.061
    1STR    C1511863   3.383   6.778   3.926
    1STR    C1611864   3.513   6.819   3.891
    1STR    C1711865   3.573   6.789   3.760
    1STR    H1B11866   3.748   6.938   3.859
    1STR    H1C11867   3.628   6.911   4.183
    1STR    H1D11868   3.356   6.899   4.314
    1STR    H1E11869   3.538   7.055   4.472
    1STR    H1F11870   3.773   7.040   4.279
    1STR    H1G11871   3.740   7.171   4.390
    1STR    H1H11872   3.790   7.014   4.451
    1STR    H1I11873   3.527   7.099   4.196
    1STR    H1J11874   3.508   0.018   4.330
    1STR    H1K11875   3.341   0.037   4.177
    1STR    H1M11876   3.168   6.976   4.195
    1STR    H1N11877   3.293   7.007   4.080
    1STR    H1O11878   3.147   7.105   4.079
    1STR    H1P11879   3.138   0.114   4.268
    1STR    H1Q11880   3.106   7.144   4.333
    1STR    H1R11881   3.221   0.110   4.629
    1STR    H1S11882   3.171   0.348   4.580
    1STR    H1T11883   3.181   0.313   4.406
    1STR    H1U11884   3.322   0.292   4.508
    1STR    H1V11885   2.973   0.158   4.457
    1STR    H1W11886   2.984   0.141   4.632
    1STR    H1X11887   3.071   6.937   4.456
    1STR    H1Y11888   3.172   6.717   4.542
    1STR    H1Z11889   3.374   6.617   4.639
    1STR    H2011890   3.681   6.791   4.697
    1STR    H2111891   3.592   6.727   4.839
    1STR    H2211892   3.600   6.636   4.688
    1STR    H2311893   3.637   6.970   4.759
    1STR    H2711894   3.329   7.106   4.617
    1STR    H2811895   3.248   6.733   4.091
    1STR    H2911896   3.312   6.747   3.851
    1STR    H2A11897   3.604   6.879   3.709
    1STR    H2B11898   3.499   6.733   3.703
    1STR    H2C11899   3.660   6.728   3.780
    1STR   BCK111900   3.602   6.993   5.812
    1STR    O0311901   3.541   6.892   5.783
    1STR    N0411902   3.734   6.988   5.786
    1STR    C0511903   3.851   7.061   5.806
    1STR    C0611904   3.853   7.175   5.883
    1STR    C0711905   3.967   0.061   5.910
    1STR    N0811906   3.957   0.176   5.985
    1STR    C0911907   3.912   0.164   6.109
    1STR    O0A11908   3.984   0.170   6.208
    1STR    O0B11909   3.782   0.140   6.106
    1STR    C0C11910   3.714   0.078   6.212
    1STR    C0D11911   3.615   0.184   6.258
    1STR    C0E11912   3.643   7.137   6.169
    1STR    O0F11913   3.718   7.051   6.086
    1STR    C0G11914   3.719   6.914   6.121
    1STR    C0H11915   3.581   6.850   6.103
    1STR    C0I11916   3.837   6.838   6.061
    1STR    O0J11917   3.938   6.818   6.159
    1STR    C0K11918   4.044   6.912   6.168
    1STR    C0M11919   3.989   7.051   6.196
    1STR    C0N11920   4.133   6.862   6.281
    1STR    O0O11921   4.206   6.965   6.346
    1STR    C0P11922   4.160   7.006   6.462
    1STR    O0Q11923   4.102   6.934   6.544
    1STR    N0R11924   4.166   7.138   6.467
    1STR    C0S11925   4.065   0.029   6.515
    1STR    C0T11926   4.090   0.162   6.552
    1STR    C0U11927   3.982   0.246   6.582
    1STR    C0V11928   3.851   0.199   6.574
    1STR    C0W11929   3.738   0.292   6.605
    1STR    C0X11930   3.824   0.067   6.538
    1STR    N0Y11931   3.692   0.027   6.527
    1STR   BCK211932   3.629   7.108   6.484
    1STR    O1011933   3.513   7.119   6.447
    1STR    C1311934   3.933   7.174   6.510
    1STR    C1411935   4.089   0.019   5.857
    1STR    C1511936   4.094   7.091   5.783
    1STR    C1611937   3.976   7.016   5.759
    1STR    C1711938   3.993   6.884   5.691
    1STR    H1B11939   3.749   6.905   5.730
    1STR    H1C11940   3.760   0.013   5.922
    1STR    H1D11941   3.890   0.236   5.937
    1STR    H1E11942   3.786   0.054   6.289
    1STR    H1F11943   3.551   0.216   6.177
    1STR    H1G11944   3.550   0.149   6.338
    1STR    H1H11945   3.668   0.272   6.292
    1STR    H1I11946   3.544   7.154   6.130
    1STR    H1J11947   3.613   7.078   6.251
    1STR    H1K11948   3.741   6.906   6.224
    1STR    H1M11949   3.570   6.805   6.005
    1STR    H1N11950   3.501   6.922   6.117
    1STR    H1O11951   3.567   6.774   6.179
    1STR    H1P11952   3.805   6.740   6.028
    1STR    H1Q11953   3.879   6.887   5.974
    1STR    H1R11954   4.101   6.917   6.075
    1STR    H1S11955   4.067   7.122   6.221
    1STR    H1T11956   3.913   7.050   6.273
    1STR    H1U11957   3.944   7.089   6.106
    1STR    H1V11958   4.203   6.788   6.243
    1STR    H1W11959   4.069   6.812   6.353
    1STR    H1X11960   4.229   7.182   6.402
    1STR    H1Y11961   4.190   0.201   6.556
    1STR    H1Z11962   4.003   0.348   6.611
    1STR    H2011963   3.669   0.294   6.521
    1STR    H2111964   3.686   0.257   6.694
    1STR    H2211965   3.775   0.393   6.622
    1STR    H2311966   3.627   0.102   6.544
    1STR    H2711967   3.917   7.075   6.476
    1STR    H2811968   4.179   0.076   5.878
    1STR    H2911969   4.188   7.057   5.746
    1STR    H2A11970   3.900   6.846   5.654
    1STR    H2B11971   4.031   6.813   5.763
    1STR    H2C11972   4.062   6.895   5.608
    1STR   BCK111973   3.778   1.885   0.567
    1STR    O0311974   3.783   1.979   0.642
    1STR    N0411975   3.678   1.863   0.486
    1STR    C0511976   3.543   1.872   0.499
    1STR    C0611977   3.476   1.751   0.515
    1STR    C0711978   3.337   1.744   0.509
    1STR    N0811979   3.281   1.627   0.556
    1STR    C0911980   3.155   1.609   0.595
    1STR    O0A11981   3.057   1.662   0.546
    1STR    O0B11982   3.150   1.518   0.689
    1STR    C0C11983   3.196   1.548   0.821
    1STR    C0D11984   3.287   1.434   0.867
    1STR    C0E11985   3.263   1.685   0.846
    1STR    O0F11986   3.168   1.790   0.829
    1STR    C0G11987   3.220   1.908   0.771
    1STR    C0H11988   3.105   1.989   0.713
    1STR    C0I11989   3.301   1.995   0.858
    1STR    O0J11990   3.414   1.923   0.904
    1STR    C0K11991   3.545   1.961   0.868
    1STR    C0M11992   3.610   1.830   0.826
    1STR    C0N11993   3.565   2.093   0.794
    1STR    O0O11994   3.513   2.193   0.877
    1STR    C0P11995   3.569   2.313   0.895
    1STR    O0Q11996   3.639   2.372   0.815
    1STR    N0R11997   3.541   2.361   1.017
    1STR    C0S11998   3.485   2.276   1.110
    1STR    C0T11999   3.347   2.259   1.104
    1STR    C0U12000   3.295   2.133   1.132
    1STR    C0V12001   3.376   2.024   1.160
    1STR    C0W12002   3.316   1.885   1.154
    1STR    C0X12003   3.513   2.045   1.177
    1STR    N0Y12004   3.593   1.935   1.181
    1STR   BCK212005   3.723   1.930   1.196
    1STR    O1012006   3.789   1.993   1.278
    1STR    C1312007   3.568   2.173   1.158
    1STR    C1412008   3.265   1.859   0.476
    1STR    C1512009   3.331   1.983   0.479
    1STR    C1612010   3.472   1.990   0.482
    1STR    C1712011   3.542   2.120   0.454
    1STR    H1B12012   3.709   1.826   0.395
    1STR    H1C12013   3.531   1.662   0.540
    1STR    H1D12014   3.347   1.555   0.587
    1STR    H1E12015   3.107   1.549   0.883
    1STR    H1F12016   3.370   1.419   0.799
    1STR    H1G12017   3.329   1.456   0.965
    1STR    H1H12018   3.231   1.342   0.877
    1STR    H1I12019   3.353   1.695   0.786
    1STR    H1J12020   3.298   1.690   0.948
    1STR    H1K12021   3.296   1.881   0.702
    1STR    H1M12022   3.048   1.930   0.642
    1STR    H1N12023   3.141   2.078   0.662
    1STR    H1O12024   3.038   2.022   0.791
    1STR    H1P12025   3.320   2.090   0.810
    1STR    H1Q12026   3.231   2.018   0.935
    1STR    H1R12027   3.601   1.984   0.955
    1STR    H1S12028   3.718   1.837   0.821
    1STR    H1T12029   3.571   1.793   0.733
    1STR    H1U12030   3.588   1.752   0.899
    1STR    H1V12031   3.513   2.095   0.700
    1STR    H1W12032   3.669   2.114   0.780
    1STR    H1X12033   3.556   2.457   1.037
    1STR    H1Y12034   3.282   2.333   1.061
    1STR    H1Z12035   3.192   2.115   1.112
    1STR    H2012036   3.387   1.807   1.128
    1STR    H2112037   3.266   1.858   1.247
    1STR    H2212038   3.241   1.873   1.078
    1STR    H2312039   3.551   1.857   1.131
    1STR    H2712040   3.674   2.187   1.157
    1STR    H2812041   3.158   1.859   0.467
    1STR    H2912042   3.271   2.072   0.471
    1STR    H2A12043   3.631   2.130   0.516
    1STR    H2B12044   3.476   2.204   0.474
    1STR    H2C12045   3.574   2.121   0.351
    1STR   BCK112046   3.634   1.842   2.318
    1STR    O0312047   3.522   1.798   2.338
    1STR    N0412048   3.740   1.775   2.271
    1STR    C0512049   3.750   1.637   2.254
    1STR    C0612050   3.856   1.572   2.315
    1STR    C0712051   3.856   1.432   2.331
    1STR    N0812052   3.936   1.370   2.425
    1STR    C0912053   3.975   1.420   2.541
    1STR    O0A12054   4.041   1.355   2.621
    1STR    O0B12055   3.948   1.549   2.558
    1STR    C0C12056   3.828   1.594   2.618
    1STR    C0D12057   3.861   1.743   2.628
    1STR    C0E12058   3.686   1.593   2.562
    1STR    O0F12059   3.630   1.478   2.501
    1STR    C0G12060   3.491   1.498   2.478
    1STR    C0H12061   3.432   1.397   2.380
    1STR    C0I12062   3.424   1.477   2.610
    1STR    O0J12063   3.413   1.598   2.685
    1STR    C0K12064   3.287   1.659   2.701
    1STR    C0M12065   3.269   1.763   2.593
    1STR    C0N12066   3.171   1.560   2.719
    1STR    O0O12067   3.226   1.468   2.809
    1STR    C0P12068   3.206   1.338   2.799
    1STR    O0Q12069   3.106   1.288   2.752
    1STR    N0R12070   3.309   1.266   2.842
    1STR    C0S12071   3.440   1.301   2.879
    1STR    C0T12072   3.536   1.199   2.879
    1STR    C0U12073   3.665   1.224   2.929
    1STR    C0V12074   3.701   1.354   2.966
    1STR    C0W12075   3.807   1.371   3.069
    1STR    C0X12076   3.618   1.461   2.932
    1STR    N0Y12077   3.655   1.593   2.921
    1STR   BCK212078   3.767   1.666   2.913
    1STR    O1012079   3.754   1.785   2.892
    1STR    C1312080   3.484   1.432   2.905
    1STR    C1412081   3.763   1.354   2.263
    1STR    C1512082   3.667   1.418   2.185
    1STR    C1612083   3.659   1.558   2.184
    1STR    C1712084   3.563   1.623   2.097
    1STR    H1B12085   3.825   1.827   2.269
    1STR    H1C12086   3.931   1.633   2.360
    1STR    H1D12087   3.953   1.272   2.414
    1STR    H1E12088   3.821   1.537   2.709
    1STR    H1F12089   3.893   1.783   2.532
    1STR    H1G12090   3.775   1.802   2.658
    1STR    H1H12091   3.939   1.758   2.700
    1STR    H1I12092   3.672   1.675   2.495
    1STR    H1J12093   3.629   1.622   2.649
    1STR    H1K12094   3.466   1.597   2.443
    1STR    H1M12095   3.480   1.300   2.391
    1STR    H1N12096   3.443   1.434   2.279
    1STR    H1O12097   3.325   1.386   2.392
    1STR    H1P12098   3.332   1.422   2.597
    1STR    H1Q12099   3.489   1.407   2.661
    1STR    H1R12100   3.297   1.714   2.795
    1STR    H1S12101   3.181   1.824   2.612
    1STR    H1T12102   3.261   1.718   2.494
    1STR    H1U12103   3.356   1.829   2.593
    1STR    H1V12104   3.141   1.512   2.626
    1STR    H1W12105   3.083   1.606   2.763
    1STR    H1X12106   3.286   1.168   2.844
    1STR    H1Y12107   3.508   1.098   2.854
    1STR    H1Z12108   3.733   1.143   2.946
    1STR    H2012109   3.906   1.347   3.031
    1STR    H2112110   3.805   1.472   3.107
    1STR    H2212111   3.778   1.317   3.158
    1STR    H2312112   3.576   1.652   2.904
    1STR    H2712113   3.418   1.515   2.902
    1STR    H2812114   3.761   1.247   2.272
    1STR    H2912115   3.595   1.359   2.131
    1STR    H2A12116   3.475   1.645   2.155
    1STR    H2B12117   3.545   1.555   2.014
    1STR    H2C12118   3.608   1.714   2.059
    1STR   BCK112119   3.824   1.625   4.027
    1STR    O0312120   3.747   1.609   4.120
    1STR    N0412121   3.854   1.742   3.969
    1STR    C0512122   3.787   1.862   3.985
    1STR    C0612123   3.650   1.865   4.014
    1STR    C0712124   3.574   1.982   4.016
    1STR    N0812125   3.443   1.966   4.058
    1STR    C0912126   3.383   2.047   4.143
    1STR    O0A12127   3.379   2.169   4.134
    1STR    O0B12128   3.344   1.978   4.250
    1STR    C0C12129   3.446   1.951   4.346
    1STR    C0D12130   3.391   1.970   4.485
    1STR    C0E12131   3.502   1.809   4.332
    1STR    O0F12132   3.630   1.805   4.275
    1STR    C0G12133   3.738   1.855   4.351
    1STR    C0H12134   3.853   1.759   4.331
    1STR    C0I12135   3.781   1.990   4.298
    1STR    O0J12136   3.750   2.088   4.390
    1STR    C0K12137   3.846   2.117   4.488
    1STR    C0M12138   3.753   2.113   4.602
    1STR    C0N12139   3.967   2.023   4.506
    1STR    O0O12140   4.038   2.067   4.618
    1STR    C0P12141   4.154   2.011   4.654
    1STR    O0Q12142   4.234   1.958   4.579
    1STR    N0R12143   4.167   2.009   4.786
    1STR    C0S12144   4.051   1.991   4.859
    1STR    C0T12145   3.990   2.098   4.924
    1STR    C0U12146   3.851   2.096   4.940
    1STR    C0V12147   3.773   1.994   4.882
    1STR    C0W12148   3.625   2.019   4.864
    1STR    C0X12149   3.836   1.886   4.819
    1STR    N0Y12150   3.756   1.804   4.741
    1STR   BCK212151   3.775   1.704   4.656
    1STR    O1012152   3.676   1.650   4.610
    1STR    C1312153   3.975   1.880   4.820
    1STR    C1412154   3.638   2.105   3.997
    1STR    C1512155   3.777   2.106   3.978
    1STR    C1612156   3.850   1.986   3.968
    1STR    C1712157   3.996   1.995   3.945
    1STR    H1B12158   3.927   1.740   3.898
    1STR    H1C12159   3.602   1.772   4.038
    1STR    H1D12160   3.418   1.869   4.066
    1STR    H1E12161   3.525   2.025   4.333
    1STR    H1F12162   3.328   1.885   4.510
    1STR    H1G12163   3.473   1.973   4.557
    1STR    H1H12164   3.335   2.063   4.492
    1STR    H1I12165   3.437   1.749   4.268
    1STR    H1J12166   3.507   1.758   4.428
    1STR    H1K12167   3.712   1.859   4.456
    1STR    H1M12168   3.890   1.765   4.229
    1STR    H1N12169   3.818   1.660   4.353
    1STR    H1O12170   3.940   1.780   4.390
    1STR    H1P12171   3.882   1.994   4.259
    1STR    H1Q12172   3.719   2.015   4.215
    1STR    H1R12173   3.883   2.218   4.477
    1STR    H1S12174   3.802   2.155   4.689
    1STR    H1T12175   3.724   2.010   4.618
    1STR    H1U12176   3.660   2.166   4.585
    1STR    H1V12177   4.033   2.022   4.419
    1STR    H1W12178   3.935   1.924   4.532
    1STR    H1X12179   4.259   2.005   4.826
    1STR    H1Y12180   4.044   2.189   4.946
    1STR    H1Z12181   3.805   2.183   4.979
    1STR    H2012182   3.602   2.084   4.783
    1STR    H2112183   3.568   1.928   4.851
    1STR    H2212184   3.590   2.072   4.951
    1STR    H2312185   3.660   1.829   4.748
    1STR    H2712186   4.030   1.805   4.767
    1STR    H2812187   3.583   2.197   4.003
    1STR    H2912188   3.828   2.200   3.969
    1STR    H2A12189   4.045   2.030   4.036
    1STR    H2B12190   4.015   2.066   3.865
    1STR    H2C12191   4.040   1.899   3.920
    1STR   BCK112192   3.753   1.794   6.001
    1STR    O0312193   3.763   1.703   6.082
    1STR    N0412194   3.670   1.796   5.897
    1STR    C0512195   3.579   1.702   5.857
    1STR    C0612196   3.594   1.566   5.886
    1STR    C0712197   3.486   1.479   5.864
    1STR    N0812198   3.476   1.368   5.945
    1STR    C0912199   3.362   1.318   5.991
    1STR    O0A12200   3.262   1.302   5.923
    1STR    O0B12201   3.366   1.290   6.117
    1STR    C0C12202   3.421   1.381   6.210
    1STR    C0D12203   3.564   1.337   6.246
    1STR    C0E12204   3.413   1.531   6.177
    1STR    O0F12205   3.283   1.570   6.138
    1STR    C0G12206   3.283   1.698   6.078
    1STR    C0H12207   3.164   1.704   5.990
    1STR    C0I12208   3.271   1.813   6.173
    1STR    O0J12209   3.394   1.830   6.238
    1STR    C0K12210   3.434   1.962   6.265
    1STR    C0M12211   3.513   2.004   6.147
    1STR    C0N12212   3.331   2.063   6.319
    1STR    O0O12213   3.203   2.008   6.339
    1STR    C0P12214   3.141   2.029   6.453
    1STR    O0Q12215   3.102   2.138   6.491
    1STR    N0R12216   3.123   1.918   6.524
    1STR    C0S12217   3.188   1.799   6.502
    1STR    C0T12218   3.119   1.679   6.485
    1STR    C0U12219   3.190   1.559   6.474
    1STR    C0V12220   3.330   1.558   6.485
    1STR    C0W12221   3.400   1.430   6.523
    1STR    C0X12222   3.400   1.679   6.479
    1STR    N0Y12223   3.538   1.675   6.463
    1STR   BCK212224   3.631   1.770   6.476
    1STR    O1012225   3.615   1.881   6.524
    1STR    C1312226   3.328   1.798   6.498
    1STR    C1412227   3.378   1.521   5.786
    1STR    C1512228   3.363   1.655   5.757
    1STR    C1612229   3.460   1.746   5.796
    1STR    C1712230   3.424   1.890   5.782
    1STR    H1B12231   3.673   1.882   5.843
    1STR    H1C12232   3.680   1.532   5.941
    1STR    H1D12233   3.554   1.351   6.006
    1STR    H1E12234   3.352   1.366   6.291
    1STR    H1F12235   3.627   1.323   6.159
    1STR    H1G12236   3.614   1.410   6.309
    1STR    H1H12237   3.559   1.242   6.300
    1STR    H1I12238   3.489   1.560   6.107
    1STR    H1J12239   3.442   1.591   6.260
    1STR    H1K12240   3.372   1.715   6.020
    1STR    H1M12241   3.074   1.716   6.048
    1STR    H1N12242   3.160   1.609   5.937
    1STR    H1O12243   3.170   1.787   5.920
    1STR    H1P12244   3.244   1.903   6.118
    1STR    H1Q12245   3.191   1.791   6.244
    1STR    H1R12246   3.509   1.954   6.341
    1STR    H1S12247   3.559   2.101   6.159
    1STR    H1T12248   3.451   1.995   6.060
    1STR    H1U12249   3.592   1.930   6.138
    1STR    H1V12250   3.321   2.148   6.252
    1STR    H1W12251   3.369   2.098   6.416
    1STR    H1X12252   3.070   1.926   6.609
    1STR    H1Y12253   3.011   1.676   6.486
    1STR    H1Z12254   3.135   1.467   6.468
    1STR    H2012255   3.502   1.424   6.489
    1STR    H2112256   3.404   1.425   6.631
    1STR    H2212257   3.345   1.341   6.492
    1STR    H2312258   3.573   1.587   6.433
    1STR    H2712259   3.381   1.890   6.510
    1STR    H2812260   3.298   1.456   5.760
    1STR    H2912261   3.270   1.688   5.718
    1STR    H2A12262   3.466   1.947   5.863
    1STR    H2B12263   3.316   1.897   5.788
    1STR    H2C12264   3.453   1.932   5.687
    1STR   BCK112265   3.411   3.416   0.492
    1STR    O0312266   3.348   3.317   0.526
    1STR    N0412267   3.516   3.416   0.410
    1STR    C0512268   3.638   3.354   0.427
    1STR    C0612269   3.744   3.440   0.458
    1STR    C0712270   3.870   3.392   0.493
    1STR    N0812271   3.963   3.483   0.535
    1STR    C0912272   3.940   3.527   0.658
    1STR    O0A12273   3.976   3.467   0.758
    1STR    O0B12274   3.863   3.636   0.652
    1STR    C0C12275   3.796   3.683   0.767
    1STR    C0D12276   3.772   3.832   0.746
    1STR    C0E12277   3.666   3.606   0.798
    1STR    O0F12278   3.658   3.482   0.729
    1STR    C0G12279   3.601   3.375   0.803
    1STR    C0H12280   3.598   3.249   0.719
    1STR    C0I12281   3.696   3.343   0.914
    1STR    O0J12282   3.698   3.208   0.953
    1STR    C0K12283   3.614   3.178   1.061
    1STR    C0M12284   3.473   3.148   1.012
    1STR    C0N12285   3.686   3.066   1.138
    1STR    O0O12286   3.825   3.063   1.106
    1STR    C0P12287   3.909   3.146   1.165
    1STR    O0Q12288   3.948   3.136   1.281
    1STR    N0R12289   3.939   3.247   1.084
    1STR    C0S12290   4.004   3.367   1.115
    1STR    C0T12291   4.112   3.376   1.203
    1STR    C0U12292   4.163   3.502   1.239
    1STR    C0V12293   4.099   3.619   1.195
    1STR    C0W12294   4.137   3.755   1.244
    1STR    C0X12295   3.990   3.610   1.110
    1STR    N0Y12296   3.913   3.722   1.086
    1STR   BCK212297   3.782   3.736   1.103
    1STR    O1012298   3.727   3.837   1.061
    1STR    C1312299   3.951   3.485   1.062
    1STR    C1412300   3.894   3.254   0.491
    1STR    C1512301   3.791   3.167   0.451
    1STR    C1612302   3.663   3.216   0.418
    1STR    C1712303   3.556   3.117   0.380
    1STR    H1B12304   3.521   3.496   0.347
    1STR    H1C12305   3.727   3.545   0.466
    1STR    H1D12306   3.960   3.564   0.474
    1STR    H1E12307   3.864   3.671   0.850
    1STR    H1F12308   3.729   3.852   0.648
    1STR    H1G12309   3.707   3.873   0.822
    1STR    H1H12310   3.867   3.885   0.752
    1STR    H1I12311   3.578   3.666   0.779
    1STR    H1J12312   3.659   3.596   0.905
    1STR    H1K12313   3.501   3.400   0.838
    1STR    H1M12314   3.698   3.221   0.689
    1STR    H1N12315   3.538   3.258   0.633
    1STR    H1O12316   3.554   3.165   0.771
    1STR    H1P12317   3.794   3.356   0.870
    1STR    H1Q12318   3.683   3.409   0.998
    1STR    H1R12319   3.604   3.264   1.124
    1STR    H1S12320   3.430   3.233   0.959
    1STR    H1T12321   3.405   3.133   1.095
    1STR    H1U12322   3.468   3.061   0.948
    1STR    H1V12323   3.643   2.971   1.109
    1STR    H1W12324   3.670   3.076   1.245
    1STR    H1X12325   3.880   3.242   1.002
    1STR    H1Y12326   4.156   3.287   1.246
    1STR    H1Z12327   4.244   3.510   1.309
    1STR    H2012328   4.051   3.813   1.275
    1STR    H2112329   4.206   3.749   1.327
    1STR    H2212330   4.174   3.812   1.160
    1STR    H2312331   3.960   3.810   1.069
    1STR    H2712332   3.871   3.489   0.994
    1STR    H2812333   3.989   3.216   0.520
    1STR    H2912334   3.811   3.061   0.449
    1STR    H2A12335   3.467   3.131   0.440
    1STR    H2B12336   3.591   3.016   0.394
    1STR    H2C12337   3.528   3.130   0.276
    1STR   BCK112338   3.626   3.501   2.264
    1STR    O0312339   3.545   3.411   2.280
    1STR    N0412340   3.611   3.612   2.192
    1STR    C0512341   3.503   3.688   2.155
    1STR    C0612342   3.376   3.652   2.197
    1STR    C0712343   3.278   3.749   2.215
    1STR    N0812344   3.163   3.713   2.279
    1STR    C0912345   3.163   3.716   2.410
    1STR    O0A12346   3.159   3.820   2.473
    1STR    O0B12347   3.192   3.596   2.459
    1STR    C0C12348   3.288   3.591   2.563
    1STR    C0D12349   3.275   3.456   2.632
    1STR    C0E12350   3.427   3.604   2.505
    1STR    O0F12351   3.448   3.730   2.440
    1STR    C0G12352   3.570   3.789   2.475
    1STR    C0H12353   3.623   3.901   2.387
    1STR    C0I12354   3.540   3.841   2.611
    1STR    O0J12355   3.598   3.749   2.701
    1STR    C0K12356   3.738   3.753   2.717
    1STR    C0M12357   3.805   3.642   2.640
    1STR    C0N12358   3.797   3.893   2.716
    1STR    O0O12359   3.700   3.948   2.797
    1STR    C0P12360   3.708   4.047   2.873
    1STR    O0Q12361   3.803   4.123   2.881
    1STR    N0R12362   3.598   4.053   2.947
    1STR    C0S12363   3.508   3.948   2.962
    1STR    C0T12364   3.371   3.971   2.951
    1STR    C0U12365   3.281   3.865   2.941
    1STR    C0V12366   3.327   3.735   2.931
    1STR    C0W12367   3.226   3.626   2.910
    1STR    C0X12368   3.464   3.709   2.949
    1STR    N0Y12369   3.511   3.583   2.919
    1STR   BCK212370   3.632   3.532   2.934
    1STR    O1012371   3.720   3.575   3.009
    1STR    C1312372   3.551   3.815   2.977
    1STR    C1412373   3.310   3.884   2.195
    1STR    C1512374   3.430   3.917   2.130
    1STR    C1612375   3.526   3.817   2.106
    1STR    C1712376   3.660   3.859   2.051
    1STR    H1B12377   3.701   3.644   2.156
    1STR    H1C12378   3.359   3.555   2.239
    1STR    H1D12379   3.087   3.665   2.231
    1STR    H1E12380   3.274   3.673   2.632
    1STR    H1F12381   3.289   3.375   2.561
    1STR    H1G12382   3.350   3.446   2.710
    1STR    H1H12383   3.176   3.446   2.677
    1STR    H1I12384   3.432   3.526   2.433
    1STR    H1J12385   3.502   3.578   2.578
    1STR    H1K12386   3.646   3.713   2.470
    1STR    H1M12387   3.545   3.969   2.355
    1STR    H1N12388   3.674   3.856   2.303
    1STR    H1O12389   3.700   3.958   2.436
    1STR    H1P12390   3.565   3.946   2.620
    1STR    H1Q12391   3.434   3.840   2.631
    1STR    H1R12392   3.750   3.721   2.820
    1STR    H1S12393   3.730   3.571   2.605
    1STR    H1T12394   3.865   3.586   2.709
    1STR    H1U12395   3.863   3.678   2.555
    1STR    H1V12396   3.802   3.942   2.620
    1STR    H1W12397   3.890   3.900   2.765
    1STR    H1X12398   3.560   4.149   2.937
    1STR    H1Y12399   3.334   4.072   2.947
    1STR    H1Z12400   3.175   3.884   2.939
    1STR    H2012401   3.184   3.633   2.811
    1STR    H2112402   3.266   3.527   2.927
    1STR    H2212403   3.142   3.641   2.978
    1STR    H2312404   3.447   3.530   2.863
    1STR    H2712405   3.656   3.799   2.990
    1STR    H2812406   3.238   3.958   2.221
    1STR    H2912407   3.451   4.019   2.104
    1STR    H2A12408   3.743   3.808   2.097
    1STR    H2B12409   3.676   3.965   2.068
    1STR    H2C12410   3.662   3.838   1.944
    1STR   BCK112411   3.622   3.515   3.998
    1STR    O0312412   3.721   3.494   3.934
    1STR    N0412413   3.509   3.442   4.006
    1STR    C0512414   3.438   3.327   3.965
    1STR    C0612415   3.325   3.292   4.041
    1STR    C0712416   3.286   3.160   4.054
    1STR    N0812417   3.262   3.107   4.179
    1STR    C0912418   3.363   3.084   4.263
    1STR    O0A12419   3.341   3.049   4.379
    1STR    O0B12420   3.487   3.105   4.211
    1STR    C0C12421   3.589   3.166   4.289
    1STR    C0D12422   3.724   3.101   4.259
    1STR    C0E12423   3.600   3.312   4.248
    1STR    O0F12424   3.470   3.369   4.233
    1STR    C0G12425   3.415   3.474   4.306
    1STR    C0H12426   3.277   3.528   4.265
    1STR    C0I12427   3.401   3.391   4.425
    1STR    O0J12428   3.524   3.395   4.492
    1STR    C0K12429   3.581   3.520   4.519
    1STR    C0M12430   3.708   3.563   4.446
    1STR    C0N12431   3.495   3.633   4.578
    1STR    O0O12432   3.355   3.631   4.569
    1STR    C0P12433   3.262   3.563   4.640
    1STR    O0Q12434   3.147   3.604   4.639
    1STR    N0R12435   3.283   3.443   4.695
    1STR    C0S12436   3.388   3.355   4.719
    1STR    C0T12437   3.373   3.218   4.689
    1STR    C0U12438   3.481   3.130   4.708
    1STR    C0V12439   3.605   3.181   4.748
    1STR    C0W12440   3.726   3.093   4.753
    1STR    C0X12441   3.621   3.317   4.775
    1STR    N0Y12442   3.751   3.364   4.783
    1STR   BCK212443   3.807   3.484   4.766
    1STR    O1012444   3.752   3.592   4.750
    1STR    C1312445   3.507   3.399   4.774
    1STR    C1412446   3.302   3.077   3.945
    1STR    C1512447   3.381   3.128   3.843
    1STR    C1612448   3.470   3.233   3.868
    1STR    C1712449   3.602   3.225   3.809
    1STR    H1B12450   3.468   3.464   4.096
    1STR    H1C12451   3.286   3.358   4.112
    1STR    H1D12452   3.169   3.095   4.213
    1STR    H1E12453   3.567   3.159   4.395
    1STR    H1F12454   3.746   3.107   4.153
    1STR    H1G12455   3.802   3.156   4.312
    1STR    H1H12456   3.726   2.997   4.290
    1STR    H1I12457   3.650   3.313   4.152
    1STR    H1J12458   3.667   3.366   4.312
    1STR    H1K12459   3.479   3.561   4.310
    1STR    H1M12460   3.199   3.452   4.267
    1STR    H1N12461   3.279   3.577   4.168
    1STR    H1O12462   3.245   3.604   4.337
    1STR    H1P12463   3.309   3.414   4.471
    1STR    H1Q12464   3.378   3.287   4.406
    1STR    H1R12465   3.635   3.481   4.598
    1STR    H1S12466   3.782   3.483   4.449
    1STR    H1T12467   3.755   3.648   4.495
    1STR    H1U12468   3.690   3.590   4.343
    1STR    H1V12469   3.522   3.721   4.521
    1STR    H1W12470   3.524   3.657   4.679
    1STR    H1X12471   3.192   3.415   4.726
    1STR    H1Y12472   3.282   3.179   4.647
    1STR    H1Z12473   3.469   3.026   4.684
    1STR    H2012474   3.799   3.126   4.679
    1STR    H2112475   3.770   3.101   4.852
    1STR    H2212476   3.697   2.991   4.731
    1STR    H2312477   3.820   3.291   4.796
    1STR    H2712478   3.513   3.502   4.797
    1STR    H2812479   3.259   2.979   3.939
    1STR    H2912480   3.382   3.073   3.754
    1STR    H2A12481   3.665   3.299   3.851
    1STR    H2B12482   3.598   3.230   3.701
    1STR    H2C12483   3.649   3.135   3.846
    1STR   BCK112484   3.674   3.266   5.835
    1STR    O0312485   3.649   3.298   5.949
    1STR    N0412486   3.766   3.323   5.756
    1STR    C0512487   3.808   3.455   5.769
    1STR    C0612488   3.715   3.547   5.816
    1STR    C0712489   3.733   3.683   5.820
    1STR    N0812490   3.635   3.752   5.887
    1STR    C0912491   3.658   3.847   5.976
    1STR    O0A12492   3.739   3.937   5.960
    1STR    O0B12493   3.577   3.839   6.079
    1STR    C0C12494   3.569   3.725   6.166
    1STR    C0D12495   3.421   3.725   6.199
    1STR    C0E12496   3.613   3.582   6.124
    1STR    O0F12497   3.745   3.576   6.075
    1STR    C0G12498   3.844   3.496   6.135
    1STR    C0H12499   3.821   3.346   6.149
    1STR    C0I12500   3.976   3.521   6.062
    1STR    O0J12501   4.065   3.617   6.113
    1STR    C0K12502   4.080   3.626   6.254
    1STR    C0M12503   3.973   3.727   6.300
    1STR    C0N12504   4.091   3.489   6.323
    1STR    O0O12505   4.158   3.499   6.446
    1STR    C0P12506   4.081   3.516   6.548
    1STR    O0Q12507   4.007   3.428   6.591
    1STR    N0R12508   4.084   3.644   6.585
    1STR    C0S12509   3.977   3.726   6.611
    1STR    C0T12510   3.994   3.863   6.627
    1STR    C0U12511   3.882   3.948   6.620
    1STR    C0V12512   3.756   3.896   6.587
    1STR    C0W12513   3.636   3.984   6.594
    1STR    C0X12514   3.738   3.759   6.568
    1STR    N0Y12515   3.615   3.708   6.528
    1STR   BCK212516   3.583   3.591   6.472
    1STR    O1012517   3.466   3.560   6.455
    1STR    C1312518   3.848   3.677   6.594
    1STR    C1412519   3.853   3.733   5.771
    1STR    C1512520   3.948   3.646   5.717
    1STR    C1612521   3.931   3.507   5.725
    1STR    C1712522   4.054   3.422   5.712
    1STR    H1B12523   3.761   3.289   5.662
    1STR    H1C12524   3.626   3.510   5.857
    1STR    H1D12525   3.550   3.699   5.906
    1STR    H1E12526   3.627   3.750   6.254
    1STR    H1F12527   3.359   3.730   6.109
    1STR    H1G12528   3.390   3.636   6.251
    1STR    H1H12529   3.400   3.812   6.261
    1STR    H1I12530   3.548   3.546   6.048
    1STR    H1J12531   3.591   3.509   6.200
    1STR    H1K12532   3.846   3.535   6.232
    1STR    H1M12533   3.851   3.293   6.058
    1STR    H1N12534   3.718   3.324   6.171
    1STR    H1O12535   3.882   3.304   6.228
    1STR    H1P12536   4.030   3.428   6.048
    1STR    H1Q12537   3.952   3.557   5.965
    1STR    H1R12538   4.176   3.674   6.272
    1STR    H1S12539   4.017   3.799   6.367
    1STR    H1T12540   3.890   3.683   6.353
    1STR    H1U12541   3.929   3.782   6.217
    1STR    H1V12542   4.147   3.421   6.262
    1STR    H1W12543   3.994   3.444   6.342
    1STR    H1X12544   4.176   3.688   6.563
    1STR    H1Y12545   4.093   3.903   6.646
    1STR    H1Z12546   3.894   4.053   6.642
    1STR    H2012547   3.574   3.975   6.505
    1STR    H2112548   3.584   3.949   6.682
    1STR    H2212549   3.663   4.088   6.610
    1STR    H2312550   3.537   3.769   6.543
    1STR    H2712551   3.835   3.572   6.598
    1STR    H2812552   3.873   3.837   5.782
    1STR    H2912553   4.039   3.685   5.678
    1STR    H2A12554   4.089   3.418   5.610
    1STR    H2B12555   4.035   3.322   5.750
    1STR    H2C12556   4.132   3.468   5.772
    1STR   BCK112557   3.753   5.502   0.462
    1STR    O0312558   3.738   5.386   0.499
    1STR    N0412559   3.658   5.583   0.413
    1STR    C0512560   3.521   5.563   0.412
    1STR    C0612561   3.460   5.440   0.438
    1STR    C0712562   3.323   5.435   0.468
    1STR    N0812563   3.270   5.315   0.501
    1STR    C0912564   3.272   5.285   0.628
    1STR    O0A12565   3.190   5.324   0.710
    1STR    O0B12566   3.384   5.219   0.646
    1STR    C0C12567   3.456   5.244   0.763
    1STR    C0D12568   3.537   5.116   0.780
    1STR    C0E12569   3.546   5.368   0.756
    1STR    O0F12570   3.493   5.479   0.687
    1STR    C0G12571   3.487   5.601   0.756
    1STR    C0H12572   3.514   5.727   0.676
    1STR    C0I12573   3.348   5.608   0.815
    1STR    O0J12574   3.362   5.575   0.949
    1STR    C0K12575   3.392   5.682   1.036
    1STR    C0M12576   3.535   5.731   1.021
    1STR    C0N12577   3.274   5.780   1.037
    1STR    O0O12578   3.160   5.696   1.042
    1STR    C0P12579   3.117   5.662   1.161
    1STR    O0Q12580   3.065   5.739   1.240
    1STR    N0R12581   3.144   5.539   1.202
    1STR    C0S12582   3.196   5.427   1.140
    1STR    C0T12583   3.107   5.334   1.087
    1STR    C0U12584   3.155   5.208   1.047
    1STR    C0V12585   3.291   5.178   1.054
    1STR    C0W12586   3.335   5.035   1.030
    1STR    C0X12587   3.383   5.277   1.092
    1STR    N0Y12588   3.518   5.256   1.069
    1STR   BCK212589   3.625   5.336   1.084
    1STR    O1012590   3.628   5.441   1.146
    1STR    C1312591   3.332   5.394   1.149
    1STR    C1412592   3.247   5.552   0.474
    1STR    C1512593   3.305   5.671   0.430
    1STR    C1612594   3.439   5.675   0.390
    1STR    C1712595   3.499   5.804   0.343
    1STR    H1B12596   3.691   5.671   0.377
    1STR    H1C12597   3.518   5.350   0.446
    1STR    H1D12598   3.324   5.244   0.452
    1STR    H1E12599   3.385   5.259   0.842
    1STR    H1F12600   3.600   5.101   0.692
    1STR    H1G12601   3.602   5.120   0.866
    1STR    H1H12602   3.469   5.032   0.789
    1STR    H1I12603   3.640   5.343   0.709
    1STR    H1J12604   3.570   5.396   0.857
    1STR    H1K12605   3.568   5.597   0.826
    1STR    H1M12606   3.428   5.757   0.620
    1STR    H1N12607   3.599   5.712   0.614
    1STR    H1O12608   3.533   5.813   0.738
    1STR    H1P12609   3.300   5.703   0.797
    1STR    H1Q12610   3.282   5.536   0.768
    1STR    H1R12611   3.389   5.641   1.134
    1STR    H1S12612   3.603   5.646   1.019
    1STR    H1T12613   3.573   5.795   1.099
    1STR    H1U12614   3.548   5.791   0.933
    1STR    H1V12615   3.272   5.844   0.949
    1STR    H1W12616   3.280   5.848   1.122
    1STR    H1X12617   3.114   5.523   1.296
    1STR    H1Y12618   3.001   5.354   1.083
    1STR    H1Z12619   3.084   5.133   1.017
    1STR    H2012620   3.442   5.023   1.017
    1STR    H2112621   3.307   4.978   1.118
    1STR    H2212622   3.282   4.995   0.944
    1STR    H2312623   3.539   5.166   1.030
    1STR    H2712624   3.402   5.459   1.197
    1STR    H2812625   3.144   5.546   0.504
    1STR    H2912626   3.243   5.759   0.425
    1STR    H2A12627   3.559   5.849   0.421
    1STR    H2B12628   3.419   5.872   0.314
    1STR    H2C12629   3.561   5.784   0.255
    1STR   BCK112630   3.504   5.311   2.282
    1STR    O0312631   3.604   5.377   2.307
    1STR    N0412632   3.504   5.181   2.252
    1STR    C0512633   3.610   5.093   2.248
    1STR    C0612634   3.740   5.131   2.284
    1STR    C0712635   3.833   5.038   2.328
    1STR    N0812636   3.912   5.086   2.428
    1STR    C0912637   4.041   5.093   2.450
    1STR    O0A12638   4.123   5.035   2.381
    1STR    O0B12639   4.069   5.166   2.559
    1STR    C0C12640   4.007   5.291   2.595
    1STR    C0D12641   4.083   5.401   2.520
    1STR    C0E12642   3.855   5.314   2.582
    1STR    O0F12643   3.783   5.201   2.627
    1STR    C0G12644   3.650   5.198   2.578
    1STR    C0H12645   3.607   5.054   2.561
    1STR    C0I12646   3.549   5.285   2.651
    1STR    O0J12647   3.424   5.264   2.584
    1STR    C0K12648   3.318   5.220   2.666
    1STR    C0M12649   3.229   5.340   2.696
    1STR    C0N12650   3.242   5.098   2.610
    1STR    O0O12651   3.320   4.980   2.618
    1STR    C0P12652   3.314   4.901   2.725
    1STR    O0Q12653   3.225   4.902   2.809
    1STR    N0R12654   3.428   4.835   2.738
    1STR    C0S12655   3.513   4.855   2.844
    1STR    C0T12656   3.575   4.750   2.912
    1STR    C0U12657   3.671   4.779   3.011
    1STR    C0V12658   3.710   4.912   3.038
    1STR    C0W12659   3.794   4.936   3.158
    1STR    C0X12660   3.655   5.018   2.962
    1STR    N0Y12661   3.671   5.155   2.974
    1STR   BCK212662   3.772   5.239   2.961
    1STR    O1012663   3.748   5.358   2.945
    1STR    C1312664   3.553   4.985   2.873
    1STR    C1412665   3.808   4.902   2.314
    1STR    C1512666   3.683   4.863   2.264
    1STR    C1612667   3.585   4.957   2.227
    1STR    C1712668   3.454   4.909   2.170
    1STR    H1B12669   3.412   5.139   2.246
    1STR    H1C12670   3.768   5.234   2.297
    1STR    H1D12671   3.860   5.130   2.505
    1STR    H1E12672   4.026   5.299   2.701
    1STR    H1F12673   4.074   5.388   2.412
    1STR    H1G12674   4.043   5.499   2.545
    1STR    H1H12675   4.188   5.398   2.546
    1STR    H1I12676   3.833   5.339   2.478
    1STR    H1J12677   3.825   5.401   2.641
    1STR    H1K12678   3.648   5.239   2.480
    1STR    H1M12679   3.608   4.999   2.651
    1STR    H1N12680   3.674   4.995   2.503
    1STR    H1O12681   3.511   5.048   2.511
    1STR    H1P12682   3.552   5.263   2.757
    1STR    H1Q12683   3.575   5.390   2.641
    1STR    H1R12684   3.360   5.190   2.758
    1STR    H1S12685   3.152   5.313   2.768
    1STR    H1T12686   3.182   5.377   2.606
    1STR    H1U12687   3.288   5.420   2.740
    1STR    H1V12688   3.215   5.115   2.507
    1STR    H1W12689   3.148   5.083   2.664
    1STR    H1X12690   3.470   4.814   2.649
    1STR    H1Y12691   3.547   4.647   2.892
    1STR    H1Z12692   3.711   4.699   3.070
    1STR    H2012693   3.870   5.010   3.140
    1STR    H2112694   3.729   4.972   3.238
    1STR    H2212695   3.844   4.845   3.190
    1STR    H2312696   3.583   5.204   2.978
    1STR    H2712697   3.510   5.065   2.818
    1STR    H2812698   3.875   4.830   2.354
    1STR    H2912699   3.659   4.759   2.263
    1STR    H2A12700   3.409   4.833   2.234
    1STR    H2B12701   3.472   4.868   2.071
    1STR    H2C12702   3.382   4.988   2.156
    1STR   BCK112703   3.798   5.386   3.943
    1STR    O0312704   3.732   5.358   4.041
    1STR    N0412705   3.778   5.495   3.866
    1STR    C0512706   3.662   5.573   3.871
    1STR    C0612707   3.538   5.511   3.891
    1STR    C0712708   3.425   5.583   3.928
    1STR    N0812709   3.322   5.508   3.977
    1STR    C0912710   3.277   5.518   4.099
    1STR    O0A12711   3.261   5.621   4.164
    1STR    O0B12712   3.261   5.396   4.145
    1STR    C0C12713   3.358   5.341   4.233
    1STR    C0D12714   3.321   5.208   4.301
    1STR    C0E12715   3.501   5.347   4.180
    1STR    O0F12716   3.539   5.482   4.155
    1STR    C0G12717   3.630   5.550   4.238
    1STR    C0H12718   3.740   5.625   4.170
    1STR    C0I12719   3.546   5.652   4.316
    1STR    O0J12720   3.440   5.594   4.382
    1STR    C0K12721   3.469   5.537   4.505
    1STR    C0M12722   3.346   5.453   4.535
    1STR    C0N12723   3.600   5.455   4.510
    1STR    O0O12724   3.726   5.523   4.503
    1STR    C0P12725   3.789   5.589   4.603
    1STR    O0Q12726   3.903   5.562   4.634
    1STR    N0R12727   3.722   5.678   4.674
    1STR    C0S12728   3.619   5.644   4.756
    1STR    C0T12729   3.516   5.736   4.779
    1STR    C0U12730   3.395   5.687   4.827
    1STR    C0V12731   3.376   5.550   4.848
    1STR    C0W12732   3.244   5.502   4.900
    1STR    C0X12733   3.478   5.459   4.814
    1STR    N0Y12734   3.443   5.329   4.782
    1STR   BCK212735   3.502   5.217   4.740
    1STR    O1012736   3.428   5.124   4.710
    1STR    C1312737   3.605   5.509   4.791
    1STR    C1412738   3.428   5.723   3.931
    1STR    C1512739   3.544   5.788   3.890
    1STR    C1612740   3.661   5.714   3.862
    1STR    C1712741   3.782   5.793   3.827
    1STR    H1B12742   3.847   5.514   3.794
    1STR    H1C12743   3.533   5.404   3.899
    1STR    H1D12744   3.314   5.416   3.935
    1STR    H1E12745   3.358   5.411   4.309
    1STR    H1F12746   3.280   5.131   4.237
    1STR    H1G12747   3.408   5.163   4.348
    1STR    H1H12748   3.249   5.224   4.380
    1STR    H1I12749   3.502   5.292   4.087
    1STR    H1J12750   3.571   5.295   4.244
    1STR    H1K12751   3.687   5.474   4.288
    1STR    H1M12752   3.700   5.706   4.111
    1STR    H1N12753   3.802   5.566   4.106
    1STR    H1O12754   3.813   5.659   4.242
    1STR    H1P12755   3.602   5.709   4.389
    1STR    H1Q12756   3.501   5.721   4.246
    1STR    H1R12757   3.469   5.623   4.569
    1STR    H1S12758   3.306   5.466   4.633
    1STR    H1T12759   3.366   5.347   4.522
    1STR    H1U12760   3.267   5.485   4.471
    1STR    H1V12761   3.594   5.376   4.436
    1STR    H1W12762   3.601   5.389   4.591
    1STR    H1X12763   3.753   5.776   4.674
    1STR    H1Y12764   3.527   5.840   4.751
    1STR    H1Z12765   3.312   5.756   4.837
    1STR    H2012766   3.180   5.588   4.918
    1STR    H2112767   3.196   5.432   4.832
    1STR    H2212768   3.252   5.458   4.998
    1STR    H2312769   3.344   5.309   4.789
    1STR    H2712770   3.687   5.442   4.774
    1STR    H2812771   3.341   5.779   3.962
    1STR    H2912772   3.542   5.895   3.885
    1STR    H2A12773   3.874   5.737   3.845
    1STR    H2B12774   3.787   5.886   3.881
    1STR    H2C12775   3.769   5.819   3.723
    1STR   BCK112776   3.479   5.489   5.793
    1STR    O0312777   3.579   5.420   5.785
    1STR    N0412778   3.356   5.441   5.796
    1STR    C0512779   3.317   5.312   5.821
    1STR    C0612780   3.251   5.297   5.942
    1STR    C0712781   3.237   5.170   5.996
    1STR    N0812782   3.315   5.163   6.109
    1STR    C0912783   3.434   5.102   6.110
    1STR    O0A12784   3.467   5.005   6.041
    1STR    O0B12785   3.510   5.164   6.196
    1STR    C0C12786   3.622   5.240   6.152
    1STR    C0D12787   3.728   5.156   6.079
    1STR    C0E12788   3.573   5.351   6.062
    1STR    O0F12789   3.450   5.408   6.105
    1STR    C0G12790   3.453   5.546   6.135
    1STR    C0H12791   3.317   5.605   6.096
    1STR    C0I12792   3.477   5.552   6.283
    1STR    O0J12793   3.380   5.635   6.344
    1STR    C0K12794   3.369   5.614   6.483
    1STR    C0M12795   3.488   5.682   6.546
    1STR    C0N12796   3.236   5.674   6.526
    1STR    O0O12797   3.134   5.597   6.464
    1STR    C0P12798   3.098   5.486   6.523
    1STR    O0Q12799   3.079   5.474   6.644
    1STR    N0R12800   3.106   5.388   6.435
    1STR    C0S12801   3.153   5.265   6.474
    1STR    C0T12802   3.075   5.175   6.547
    1STR    C0U12803   3.137   5.062   6.602
    1STR    C0V12804   3.275   5.041   6.589
    1STR    C0W12805   3.337   4.929   6.665
    1STR    C0X12806   3.354   5.130   6.512
    1STR    N0Y12807   3.491   5.111   6.499
    1STR   BCK212808   3.587   5.203   6.484
    1STR    O1012809   3.569   5.323   6.476
    1STR    C1312810   3.289   5.239   6.452
    1STR    C1412811   3.228   5.062   5.908
    1STR    C1512812   3.291   5.073   5.784
    1STR    C1612813   3.345   5.196   5.746
    1STR    C1712814   3.438   5.188   5.633
    1STR    H1B12815   3.280   5.505   5.803
    1STR    H1C12816   3.240   5.383   6.005
    1STR    H1D12817   3.328   5.250   6.158
    1STR    H1E12818   3.667   5.285   6.239
    1STR    H1F12819   3.690   5.113   5.987
    1STR    H1G12820   3.813   5.218   6.052
    1STR    H1H12821   3.764   5.075   6.142
    1STR    H1I12822   3.549   5.299   5.971
    1STR    H1J12823   3.652   5.423   6.040
    1STR    H1K12824   3.532   5.599   6.081
    1STR    H1M12825   3.236   5.554   6.149
    1STR    H1N12826   3.298   5.597   5.990
    1STR    H1O12827   3.313   5.711   6.122
    1STR    H1P12828   3.465   5.452   6.319
    1STR    H1Q12829   3.580   5.581   6.305
    1STR    H1R12830   3.371   5.508   6.508
    1STR    H1S12831   3.580   5.627   6.526
    1STR    H1T12832   3.475   5.686   6.654
    1STR    H1U12833   3.497   5.783   6.508
    1STR    H1V12834   3.230   5.778   6.494
    1STR    H1W12835   3.226   5.674   6.634
    1STR    H1X12836   3.128   5.423   6.343
    1STR    H1Y12837   2.972   5.196   6.570
    1STR    H1Z12838   3.077   4.993   6.660
    1STR    H2012839   3.444   4.917   6.650
    1STR    H2112840   3.326   4.951   6.770
    1STR    H2212841   3.287   4.835   6.646
    1STR    H2312842   3.528   5.018   6.511
    1STR    H2712843   3.347   5.308   6.394
    1STR    H2812844   3.196   4.966   5.937
    1STR    H2912845   3.307   4.987   5.723
    1STR    H2A12846   3.472   5.286   5.607
    1STR    H2B12847   3.392   5.139   5.547
    1STR    H2C12848   3.521   5.129   5.671
    1STR   BCK112849   5.302   7.042   0.540
    1STR    O0312850   5.320   6.957   0.625
    1STR    N0412851   5.380   7.065   0.435
    1STR    C0512852   5.509   7.115   0.436
    1STR    C0612853   5.528   0.048   0.493
    1STR    C0712854   5.644   0.123   0.481
    1STR    N0812855   5.640   0.244   0.544
    1STR    C0912856   5.629   0.230   0.675
    1STR    O0A12857   5.712   0.173   0.743
    1STR    O0B12858   5.510   0.274   0.717
    1STR    C0C12859   5.465   0.239   0.847
    1STR    C0D12860   5.364   0.346   0.884
    1STR    C0E12861   5.409   0.095   0.857
    1STR    O0F12862   5.477   0.015   0.763
    1STR    C0G12863   5.529   7.080   0.804
    1STR    C0H12864   5.604   7.020   0.688
    1STR    C0I12865   5.631   7.092   0.913
    1STR    O0J12866   5.722   6.982   0.920
    1STR    C0K12867   5.684   6.859   0.976
    1STR    C0M12868   5.585   6.776   0.896
    1STR    C0N12869   5.808   6.777   1.013
    1STR    O0O12870   5.910   6.864   1.058
    1STR    C0P12871   5.888   6.920   1.173
    1STR    O0Q12872   5.845   6.859   1.271
    1STR    N0R12873   5.886   7.052   1.158
    1STR    C0S12874   5.784   7.135   1.197
    1STR    C0T12875   5.799   0.083   1.185
    1STR    C0U12876   5.688   0.166   1.202
    1STR    C0V12877   5.560   0.112   1.220
    1STR    C0W12878   5.440   0.203   1.219
    1STR    C0X12879   5.543   7.162   1.228
    1STR    N0Y12880   5.418   7.113   1.198
    1STR   BCK212881   5.361   7.003   1.146
    1STR    O1012882   5.259   7.023   1.082
    1STR    C1312883   5.656   7.083   1.226
    1STR    C1412884   5.753   0.072   0.409
    1STR    C1512885   5.742   7.131   0.359
    1STR    C1612886   5.623   7.057   0.377
    1STR    C1712887   5.624   6.912   0.357
    1STR    H1B12888   5.332   7.116   0.361
    1STR    H1C12889   5.449   0.087   0.552
    1STR    H1D12890   5.567   0.301   0.503
    1STR    H1E12891   5.548   0.242   0.917
    1STR    H1F12892   5.285   0.353   0.809
    1STR    H1G12893   5.319   0.328   0.981
    1STR    H1H12894   5.413   0.443   0.887
    1STR    H1I12895   5.303   0.091   0.836
    1STR    H1J12896   5.419   0.059   0.958
    1STR    H1K12897   5.445   7.019   0.834
    1STR    H1M12898   5.676   7.090   0.647
    1STR    H1N12899   5.542   6.974   0.616
    1STR    H1O12900   5.656   6.932   0.711
    1STR    H1P12901   5.692   7.181   0.900
    1STR    H1Q12902   5.575   7.104   1.002
    1STR    H1R12903   5.637   6.888   1.066
    1STR    H1S12904   5.490   6.828   0.886
    1STR    H1T12905   5.563   6.684   0.950
    1STR    H1U12906   5.622   6.752   0.798
    1STR    H1V12907   5.847   6.722   0.929
    1STR    H1W12908   5.784   6.703   1.089
    1STR    H1X12909   5.942   7.089   1.079
    1STR    H1Y12910   5.896   0.124   1.160
    1STR    H1Z12911   5.703   0.272   1.193
    1STR    H2012912   5.366   0.170   1.147
    1STR    H2112913   5.397   0.204   1.319
    1STR    H2212914   5.469   0.303   1.192
    1STR    H2312915   5.350   7.186   1.197
    1STR    H2712916   5.643   6.979   1.236
    1STR    H2812917   5.843   0.128   0.397
    1STR    H2912918   5.826   7.086   0.310
    1STR    H2A12919   5.524   6.876   0.340
    1STR    H2B12920   5.662   6.867   0.448
    1STR    H2C12921   5.691   6.889   0.275
    1STR   BCK112922   5.442   7.076   2.382
    1STR    O0312923   5.372   7.001   2.449
    1STR    N0412924   5.399   7.167   2.296
    1STR    C0512925   5.274   0.023   2.266
    1STR    C0612926   5.160   7.142   2.304
    1STR    C0712927   5.032   0.008   2.292
    1STR    N0812928   4.928   7.129   2.346
    1STR    C0912929   4.900   7.166   2.469
    1STR    O0A12930   4.863   0.088   2.504
    1STR    O0B12931   4.949   7.070   2.542
    1STR    C0C12932   5.043   7.097   2.644
    1STR    C0D12933   5.108   6.960   2.660
    1STR    C0E12934   5.157   0.006   2.615
    1STR    O0F12935   5.120   0.142   2.614
    1STR    C0G12936   5.204   0.224   2.535
    1STR    C0H12937   5.117   0.335   2.483
    1STR    C0I12938   5.326   0.282   2.603
    1STR    O0J12939   5.440   0.197   2.593
    1STR    C0K12940   5.565   0.246   2.642
    1STR    C0M12941   5.669   0.177   2.558
    1STR    C0N12942   5.590   0.397   2.651
    1STR    O0O12943   5.492   0.446   2.739
    1STR    C0P12944   5.512   0.545   2.825
    1STR    O0Q12945   5.601   0.628   2.817
    1STR    N0R12946   5.418   0.550   2.918
    1STR    C0S12947   5.328   0.448   2.939
    1STR    C0T12948   5.191   0.472   2.937
    1STR    C0U12949   5.101   0.364   2.936
    1STR    C0V12950   5.150   0.233   2.926
    1STR    C0W12951   5.050   0.122   2.905
    1STR    C0X12952   5.288   0.209   2.928
    1STR    N0Y12953   5.334   0.090   2.881
    1STR   BCK212954   5.456   0.042   2.867
    1STR    O1012955   5.554   0.085   2.929
    1STR    C1312956   5.376   0.316   2.946
    1STR    C1412957   5.016   0.136   2.240
    1STR    C1512958   5.130   0.209   2.205
    1STR    C1612959   5.258   0.152   2.212
    1STR    C1712960   5.376   0.237   2.174
    1STR    H1B12961   5.476   0.023   2.244
    1STR    H1C12962   5.169   7.044   2.347
    1STR    H1D12963   4.940   7.029   2.347
    1STR    H1E12964   4.985   7.129   2.729
    1STR    H1F12965   5.157   6.934   2.567
    1STR    H1G12966   5.183   6.962   2.739
    1STR    H1H12967   5.037   6.881   2.680
    1STR    H1I12968   5.214   7.167   2.530
    1STR    H1J12969   5.231   7.185   2.690
    1STR    H1K12970   5.243   0.170   2.452
    1STR    H1M12971   5.023   0.297   2.444
    1STR    H1N12972   5.168   0.391   2.405
    1STR    H1O12973   5.094   0.401   2.564
    1STR    H1P12974   5.352   0.372   2.549
    1STR    H1Q12975   5.300   0.310   2.703
    1STR    H1R12976   5.579   0.214   2.744
    1STR    H1S12977   5.769   0.215   2.577
    1STR    H1T12978   5.646   0.186   2.452
    1STR    H1U12979   5.669   0.071   2.584
    1STR    H1V12980   5.581   0.438   2.552
    1STR    H1W12981   5.689   0.419   2.690
    1STR    H1X12982   5.410   0.637   2.968
    1STR    H1Y12983   5.154   0.573   2.935
    1STR    H1Z12984   4.995   0.381   2.937
    1STR    H2012985   5.097   0.025   2.894
    1STR    H2112986   4.985   0.116   2.990
    1STR    H2212987   4.988   0.144   2.819
    1STR    H2312988   5.263   0.037   2.833
    1STR    H2712989   5.482   0.301   2.943
    1STR    H2812990   4.918   0.180   2.236
    1STR    H2912991   5.119   0.310   2.172
    1STR    H2A12992   5.454   0.231   2.250
    1STR    H2B12993   5.347   0.341   2.164
    1STR    H2C12994   5.415   0.202   2.079
    1STR   BCK112995   5.417   7.075   3.999
    1STR    O0312996   5.538   7.081   4.005
    1STR    N0412997   5.349   6.966   3.959
    1STR    C0512998   5.385   6.833   3.977
    1STR    C0612999   5.496   6.802   4.054
    1STR    C0713000   5.505   6.684   4.128
    1STR    N0813001   5.587   6.688   4.238
    1STR    C0913002   5.711   6.733   4.216
    1STR    O0A13003   5.790   6.671   4.147
    1STR    O0B13004   5.732   6.863   4.250
    1STR    C0C13005   5.662   6.939   4.348
    1STR    C0D13006   5.768   7.045   4.379
    1STR    C0E13007   5.531   7.011   4.311
    1STR    O0F13008   5.425   6.926   4.269
    1STR    C0G13009   5.295   6.971   4.299
    1STR    C0H13010   5.185   6.915   4.210
    1STR    C0I13011   5.271   6.917   4.436
    1STR    O0J13012   5.246   7.025   4.522
    1STR    C0K13013   5.113   7.076   4.523
    1STR    C0M13014   5.090   7.189   4.424
    1STR    C0N13015   4.998   6.973   4.532
    1STR    O0O13016   5.042   6.866   4.612
    1STR    C0P13017   4.993   6.744   4.604
    1STR    O0Q13018   4.882   6.721   4.558
    1STR    N0R13019   5.073   6.650   4.653
    1STR    C0S13020   5.206   6.655   4.697
    1STR    C0T13021   5.273   6.539   4.738
    1STR    C0U13022   5.407   6.546   4.784
    1STR    C0V13023   5.479   6.667   4.781
    1STR    C0W13024   5.610   6.676   4.853
    1STR    C0X13025   5.418   6.779   4.725
    1STR    N0Y13026   5.470   6.900   4.682
    1STR   BCK213027   5.583   6.966   4.663
    1STR    O1013028   5.571   7.075   4.611
    1STR    C1313029   5.282   6.773   4.699
    1STR    C1413030   5.411   6.584   4.105
    1STR    C1513031   5.311   6.604   4.009
    1STR    C1613032   5.296   6.729   3.947
    1STR    C1713033   5.181   6.752   3.855
    1STR    H1B13034   5.256   6.981   3.926
    1STR    H1C13035   5.566   6.878   4.079
    1STR    H1D13036   5.538   6.738   4.312
    1STR    H1E13037   5.644   6.875   4.434
    1STR    H1F13038   5.802   7.095   4.289
    1STR    H1G13039   5.731   7.123   4.445
    1STR    H1H13040   5.854   6.999   4.427
    1STR    H1I13041   5.551   7.087   4.236
    1STR    H1J13042   5.496   7.070   4.395
    1STR    H1K13043   5.291   7.080   4.298
    1STR    H1M13044   5.200   6.809   4.190
    1STR    H1N13045   5.176   6.970   4.118
    1STR    H1O13046   5.087   6.927   4.256
    1STR    H1P13047   5.197   6.838   4.437
    1STR    H1Q13048   5.361   6.865   4.468
    1STR    H1R13049   5.121   7.131   4.614
    1STR    H1S13050   5.001   0.054   4.454
    1STR    H1T13051   5.075   7.154   4.322
    1STR    H1U13052   5.173   0.069   4.426
    1STR    H1V13053   4.969   6.935   4.434
    1STR    H1W13054   4.909   7.016   4.577
    1STR    H1X13055   5.027   6.558   4.652
    1STR    H1Y13056   5.222   6.444   4.743
    1STR    H1Z13057   5.451   6.458   4.826
    1STR    H2013058   5.692   6.663   4.784
    1STR    H2113059   5.616   6.773   4.903
    1STR    H2213060   5.617   6.601   4.931
    1STR    H2313061   5.397   6.959   4.645
    1STR    H2713062   5.238   6.867   4.681
    1STR    H2813063   5.415   6.495   4.164
    1STR    H2913064   5.240   6.525   3.989
    1STR    H2A13065   5.221   6.794   3.763
    1STR    H2B13066   5.108   6.819   3.899
    1STR    H2C13067   5.132   6.658   3.829
    1STR   BCK113068   5.599   6.939   5.892
    1STR    O0313069   5.540   6.951   5.998
    1STR    N0413070   5.638   7.040   5.815
    1STR    C0513071   5.595   7.169   5.821
    1STR    C0613072   5.470   0.016   5.872
    1STR    C0713073   5.427   0.148   5.867
    1STR    N0813074   5.304   0.177   5.921
    1STR    C0913075   5.298   0.284   5.997
    1STR    O0A13076   5.272   0.396   5.957
    1STR    O0B13077   5.342   0.256   6.115
    1STR    C0C13078   5.473   0.298   6.141
    1STR    C0D13079   5.467   0.359   6.276
    1STR    C0E13080   5.567   0.179   6.140
    1STR    O0F13081   5.681   0.213   6.061
    1STR    C0G13082   5.787   0.120   6.073
    1STR    C0H13083   5.898   0.131   5.971
    1STR    C0I13084   5.843   0.142   6.211
    1STR    O0J13085   5.776   0.050   6.293
    1STR    C0K13086   5.829   7.111   6.304
    1STR    C0M13087   5.775   7.014   6.201
    1STR    C0N13088   5.976   7.114   6.339
    1STR    O0O13089   6.009   0.033   6.425
    1STR    C0P13090   5.933   0.051   6.532
    1STR    O0Q13091   5.899   7.149   6.606
    1STR    N0R13092   5.881   0.173   6.531
    1STR    C0S13093   5.746   0.204   6.549
    1STR    C0T13094   5.705   0.335   6.574
    1STR    C0U13095   5.568   0.364   6.583
    1STR    C0V13096   5.471   0.264   6.566
    1STR    C0W13097   5.326   0.303   6.576
    1STR    C0X13098   5.511   0.134   6.527
    1STR    N0Y13099   5.415   0.040   6.491
    1STR   BCK213100   5.411   7.098   6.471
    1STR    O1013101   5.302   7.046   6.461
    1STR    C1313102   5.647   0.107   6.525
    1STR    C1413103   5.517   0.249   5.828
    1STR    C1513104   5.643   0.213   5.783
    1STR    C1613105   5.675   0.078   5.764
    1STR    C1713106   5.794   0.040   5.683
    1STR    H1B13107   5.700   7.015   5.739
    1STR    H1C13108   5.406   7.131   5.916
    1STR    H1D13109   5.271   0.093   5.970
    1STR    H1E13110   5.509   0.374   6.071
    1STR    H1F13111   5.415   0.285   6.335
    1STR    H1G13112   5.567   0.377   6.314
    1STR    H1H13113   5.411   0.453   6.276
    1STR    H1I13114   5.519   0.088   6.104
    1STR    H1J13115   5.589   0.154   6.243
    1STR    H1K13116   5.742   0.022   6.061
    1STR    H1M13117   5.891   0.222   5.912
    1STR    H1N13118   5.893   0.043   5.908
    1STR    H1O13119   5.998   0.123   6.013
    1STR    H1P13120   5.951   0.135   6.215
    1STR    H1Q13121   5.819   0.243   6.244
    1STR    H1R13122   5.784   7.073   6.394
    1STR    H1S13123   5.780   6.911   6.235
    1STR    H1T13124   5.826   7.020   6.105
    1STR    H1U13125   5.670   7.036   6.185
    1STR    H1V13126   6.037   7.113   6.248
    1STR    H1W13127   5.988   7.022   6.391
    1STR    H1X13128   5.933   0.241   6.479
    1STR    H1Y13129   5.778   0.413   6.586
    1STR    H1Z13130   5.536   0.465   6.603
    1STR    H2013131   5.295   0.361   6.489
    1STR    H2113132   5.259   0.219   6.587
    1STR    H2213133   5.314   0.368   6.662
    1STR    H2313134   5.323   0.077   6.489
    1STR    H2713135   5.678   0.010   6.499
    1STR    H2813136   5.495   0.353   5.839
    1STR    H2913137   5.714   0.291   5.765
    1STR    H2A13138   5.846   7.142   5.719
    1STR    H2B13139   5.863   0.123   5.681
    1STR    H2C13140   5.753   0.019   5.585
    1STR   BCK113141   5.480   2.128   0.513
    1STR    O0313142   5.430   2.116   0.624
    1STR    N0413143   5.434   2.075   0.403
    1STR    C0513144   5.335   1.985   0.384
    1STR    C0613145   5.346   1.851   0.424
    1STR    C0713146   5.238   1.766   0.400
    1STR    N0813147   5.218   1.652   0.476
    1STR    C0913148   5.105   1.626   0.543
    1STR    O0A13149   4.992   1.664   0.516
    1STR    O0B13150   5.129   1.558   0.649
    1STR    C0C13151   5.195   1.620   0.758
    1STR    C0D13152   5.288   1.510   0.796
    1STR    C0E13153   5.274   1.752   0.741
    1STR    O0F13154   5.209   1.846   0.657
    1STR    C0G13155   5.137   1.957   0.697
    1STR    C0H13156   5.033   1.991   0.592
    1STR    C0I13157   5.068   1.930   0.825
    1STR    O0J13158   5.160   1.938   0.929
    1STR    C0K13159   5.186   2.062   0.989
    1STR    C0M13160   5.293   2.139   0.916
    1STR    C0N13161   5.058   2.133   1.033
    1STR    O0O13162   4.964   2.030   1.055
    1STR    C0P13163   4.931   1.997   1.175
    1STR    O0Q13164   4.889   2.076   1.258
    1STR    N0R13165   4.945   1.868   1.201
    1STR    C0S13166   5.017   1.770   1.136
    1STR    C0T13167   4.952   1.656   1.089
    1STR    C0U13168   5.027   1.542   1.057
    1STR    C0V13169   5.167   1.543   1.069
    1STR    C0W13170   5.238   1.410   1.076
    1STR    C0X13171   5.235   1.665   1.089
    1STR    N0Y13172   5.375   1.669   1.086
    1STR   BCK213173   5.456   1.776   1.093
    1STR    O1013174   5.417   1.892   1.087
    1STR    C1313175   5.157   1.772   1.136
    1STR    C1413176   5.138   1.810   0.315
    1STR    C1513177   5.127   1.942   0.275
    1STR    C1613178   5.225   2.033   0.314
    1STR    C1713179   5.208   2.181   0.292
    1STR    H1B13180   5.470   2.113   0.315
    1STR    H1C13181   5.429   1.818   0.484
    1STR    H1D13182   5.298   1.596   0.505
    1STR    H1E13183   5.118   1.635   0.832
    1STR    H1F13184   5.354   1.487   0.715
    1STR    H1G13185   5.352   1.541   0.877
    1STR    H1H13186   5.234   1.418   0.819
    1STR    H1I13187   5.366   1.727   0.688
    1STR    H1J13188   5.307   1.792   0.836
    1STR    H1K13189   5.206   2.039   0.704
    1STR    H1M13190   4.988   1.902   0.549
    1STR    H1N13191   5.080   2.046   0.512
    1STR    H1O13192   4.953   2.055   0.628
    1STR    H1P13193   4.989   2.003   0.834
    1STR    H1Q13194   5.023   1.831   0.822
    1STR    H1R13195   5.237   2.033   1.077
    1STR    H1S13196   5.359   2.063   0.875
    1STR    H1T13197   5.353   2.199   0.984
    1STR    H1U13198   5.260   2.199   0.833
    1STR    H1V13199   5.021   2.195   0.954
    1STR    H1W13200   5.075   2.198   1.118
    1STR    H1X13201   4.917   1.844   1.295
    1STR    H1Y13202   4.845   1.648   1.090
    1STR    H1Z13203   4.977   1.449   1.037
    1STR    H2013204   5.340   1.412   1.041
    1STR    H2113205   5.242   1.379   1.180
    1STR    H2213206   5.183   1.334   1.022
    1STR    H2313207   5.418   1.579   1.100
    1STR    H2713208   5.207   1.857   1.176
    1STR    H2813209   5.065   1.738   0.291
    1STR    H2913210   5.041   1.975   0.222
    1STR    H2A13211   5.238   2.235   0.382
    1STR    H2B13212   5.104   2.205   0.274
    1STR    H2C13213   5.272   2.213   0.210
    1STR   BCK113214   5.145   1.709   2.324
    1STR    O0313215   5.036   1.669   2.359
    1STR    N0413216   5.230   1.618   2.273
    1STR    C0513217   5.367   1.607   2.260
    1STR    C0613218   5.453   1.699   2.319
    1STR    C0713219   5.592   1.689   2.309
    1STR    N0813220   5.667   1.788   2.365
    1STR    C0913221   5.649   1.792   2.496
    1STR    O0A13222   5.676   1.697   2.568
    1STR    O0B13223   5.580   1.899   2.531
    1STR    C0C13224   5.511   1.893   2.654
    1STR    C0D13225   5.475   2.035   2.694
    1STR    C0E13226   5.387   1.801   2.646
    1STR    O0F13227   5.425   1.666   2.626
    1STR    C0G13228   5.323   1.580   2.580
    1STR    C0H13229   5.383   1.452   2.522
    1STR    C0I13230   5.227   1.546   2.687
    1STR    O0J13231   5.114   1.480   2.638
    1STR    C0K13232   5.023   1.457   2.743
    1STR    C0M13233   4.890   1.489   2.679
    1STR    C0N13234   5.036   1.315   2.805
    1STR    O0O13235   5.167   1.272   2.835
    1STR    C0P13236   5.234   1.340   2.925
    1STR    O0Q13237   5.181   1.432   2.986
    1STR    N0R13238   5.364   1.320   2.906
    1STR    C0S13239   5.465   1.415   2.898
    1STR    C0T13240   5.595   1.380   2.857
    1STR    C0U13241   5.693   1.480   2.841
    1STR    C0V13242   5.664   1.615   2.869
    1STR    C0W13243   5.770   1.723   2.868
    1STR    C0X13244   5.534   1.649   2.907
    1STR    N0Y13245   5.501   1.775   2.947
    1STR   BCK213246   5.531   1.831   3.062
    1STR    O1013247   5.506   1.950   3.076
    1STR    C1313248   5.437   1.551   2.918
    1STR    C1413249   5.649   1.576   2.250
    1STR    C1513250   5.565   1.474   2.206
    1STR    C1613251   5.425   1.489   2.209
    1STR    C1713252   5.341   1.373   2.161
    1STR    H1B13253   5.188   1.528   2.261
    1STR    H1C13254   5.412   1.777   2.378
    1STR    H1D13255   5.663   1.876   2.316
    1STR    H1E13256   5.580   1.853   2.728
    1STR    H1F13257   5.418   2.084   2.616
    1STR    H1G13258   5.420   2.036   2.787
    1STR    H1H13259   5.568   2.090   2.710
    1STR    H1I13260   5.323   1.837   2.567
    1STR    H1J13261   5.329   1.807   2.738
    1STR    H1K13262   5.266   1.632   2.509
    1STR    H1M13263   5.475   1.472   2.468
    1STR    H1N13264   5.311   1.406   2.454
    1STR    H1O13265   5.407   1.377   2.597
    1STR    H1P13266   5.283   1.476   2.742
    1STR    H1Q13267   5.205   1.631   2.751
    1STR    H1R13268   5.035   1.530   2.823
    1STR    H1S13269   4.895   1.590   2.638
    1STR    H1T13270   4.809   1.485   2.751
    1STR    H1U13271   4.869   1.422   2.596
    1STR    H1V13272   4.994   1.239   2.743
    1STR    H1W13273   4.983   1.315   2.900
    1STR    H1X13274   5.380   1.221   2.880
    1STR    H1Y13275   5.618   1.278   2.834
    1STR    H1Z13276   5.791   1.451   2.810
    1STR    H2013277   5.777   1.768   2.770
    1STR    H2113278   5.749   1.805   2.935
    1STR    H2213279   5.865   1.682   2.897
    1STR    H2313280   5.454   1.835   2.883
    1STR    H2713281   5.340   1.584   2.945
    1STR    H2813282   5.755   1.568   2.240
    1STR    H2913283   5.608   1.383   2.169
    1STR    H2A13284   5.289   1.326   2.244
    1STR    H2B13285   5.405   1.298   2.115
    1STR    H2C13286   5.271   1.405   2.085
    1STR   BCK113287   5.543   1.846   3.974
    1STR    O0313288   5.472   1.771   4.038
    1STR    N0413289   5.502   1.952   3.900
    1STR    C0513290   5.376   2.013   3.905
    1STR    C0613291   5.263   1.944   3.951
    1STR    C0713292   5.154   2.013   4.007
    1STR    N0813293   5.073   1.939   4.088
    1STR    C0913294   5.058   1.961   4.217
    1STR    O0A13295   5.048   2.070   4.273
    1STR    O0B13296   5.076   1.845   4.277
    1STR    C0C13297   5.195   1.828   4.352
    1STR    C0D13298   5.176   1.696   4.426
    1STR    C0E13299   5.321   1.819   4.262
    1STR    O0F13300   5.361   1.937   4.191
    1STR    C0G13301   5.455   2.032   4.239
    1STR    C0H13302   5.568   2.089   4.154
    1STR    C0I13303   5.368   2.147   4.284
    1STR    O0J13304   5.317   2.112   4.409
    1STR    C0K13305   5.417   2.085   4.502
    1STR    C0M13306   5.445   1.940   4.530
    1STR    C0N13307   5.542   2.173   4.508
    1STR    O0O13308   5.497   2.303   4.536
    1STR    C0P13309   5.555   2.363   4.636
    1STR    O0Q13310   5.652   2.433   4.623
    1STR    N0R13311   5.509   2.331   4.756
    1STR    C0S13312   5.409   2.241   4.783
    1STR    C0T13313   5.276   2.270   4.747
    1STR    C0U13314   5.182   2.166   4.741
    1STR    C0V13315   5.222   2.033   4.767
    1STR    C0W13316   5.128   1.921   4.729
    1STR    C0X13317   5.353   2.007   4.814
    1STR    N0Y13318   5.394   1.876   4.819
    1STR   BCK213319   5.515   1.824   4.811
    1STR    O1013320   5.612   1.864   4.875
    1STR    C1313321   5.446   2.112   4.824
    1STR    C1413322   5.141   2.150   3.990
    1STR    C1513323   5.243   2.219   3.923
    1STR    C1613324   5.361   2.152   3.885
    1STR    C1713325   5.473   2.235   3.830
    1STR    H1B13326   5.577   2.005   3.860
    1STR    H1C13327   5.268   1.838   3.968
    1STR    H1D13328   5.073   1.841   4.072
    1STR    H1E13329   5.202   1.910   4.421
    1STR    H1F13330   5.159   1.617   4.354
    1STR    H1G13331   5.264   1.671   4.486
    1STR    H1H13332   5.090   1.702   4.492
    1STR    H1I13333   5.291   1.749   4.185
    1STR    H1J13334   5.405   1.769   4.307
    1STR    H1K13335   5.521   1.985   4.307
    1STR    H1M13336   5.529   2.141   4.070
    1STR    H1N13337   5.641   2.014   4.127
    1STR    H1O13338   5.624   2.164   4.209
    1STR    H1P13339   5.421   2.242   4.289
    1STR    H1Q13340   5.286   2.162   4.215
    1STR    H1R13341   5.359   2.113   4.583
    1STR    H1S13342   5.524   1.943   4.603
    1STR    H1T13343   5.487   1.873   4.457
    1STR    H1U13344   5.357   1.891   4.569
    1STR    H1V13345   5.600   2.174   4.417
    1STR    H1W13346   5.609   2.138   4.586
    1STR    H1X13347   5.554   2.379   4.832
    1STR    H1Y13348   5.248   2.368   4.713
    1STR    H1Z13349   5.083   2.188   4.707
    1STR    H2013350   5.098   1.936   4.626
    1STR    H2113351   5.173   1.824   4.732
    1STR    H2213352   5.041   1.921   4.794
    1STR    H2313353   5.323   1.809   4.793
    1STR    H2713354   5.549   2.093   4.848
    1STR    H2813355   5.057   2.202   4.032
    1STR    H2913356   5.235   2.325   3.911
    1STR    H2A13357   5.566   2.221   3.883
    1STR    H2B13358   5.447   2.341   3.835
    1STR    H2C13359   5.484   2.207   3.727
    1STR   BCK113360   5.423   1.702   5.905
    1STR    O0313361   5.537   1.664   5.927
    1STR    N0413362   5.318   1.625   5.872
    1STR    C0513363   5.309   1.488   5.854
    1STR    C0613364   5.199   1.414   5.901
    1STR    C0713365   5.209   1.276   5.922
    1STR    N0813366   5.136   1.227   6.028
    1STR    C0913367   5.181   1.255   6.149
    1STR    O0A13368   5.117   1.233   6.252
    1STR    O0B13369   5.304   1.311   6.143
    1STR    C0C13370   5.335   1.427   6.213
    1STR    C0D13371   5.486   1.446   6.203
    1STR    C0E13372   5.267   1.559   6.175
    1STR    O0F13373   5.129   1.564   6.140
    1STR    C0G13374   5.094   1.689   6.081
    1STR    C0H13375   4.993   1.672   5.973
    1STR    C0I13376   5.028   1.781   6.178
    1STR    O0J13377   5.128   1.839   6.256
    1STR    C0K13378   5.102   1.970   6.302
    1STR    C0M13379   5.153   2.064   6.195
    1STR    C0N13380   4.955   1.995   6.347
    1STR    O0O13381   4.895   1.880   6.407
    1STR    C0P13382   4.969   1.817   6.493
    1STR    O0Q13383   5.036   1.877   6.576
    1STR    N0R13384   4.974   1.687   6.465
    1STR    C0S13385   5.086   1.605   6.472
    1STR    C0T13386   5.073   1.466   6.473
    1STR    C0U13387   5.183   1.387   6.511
    1STR    C0V13388   5.310   1.444   6.530
    1STR    C0W13389   5.427   1.355   6.564
    1STR    C0X13390   5.328   1.577   6.489
    1STR    N0Y13391   5.456   1.626   6.473
    1STR   BCK213392   5.499   1.733   6.407
    1STR    O1013393   5.431   1.807   6.337
    1STR    C1313394   5.215   1.657   6.467
    1STR    C1413395   5.327   1.208   5.889
    1STR    C1513396   5.430   1.280   5.829
    1STR    C1613397   5.416   1.415   5.805
    1STR    C1713398   5.515   1.481   5.720
    1STR    H1B13399   5.229   1.668   5.889
    1STR    H1C13400   5.114   1.457   5.946
    1STR    H1D13401   5.041   1.197   6.017
    1STR    H1E13402   5.308   1.397   6.309
    1STR    H1F13403   5.517   1.450   6.099
    1STR    H1G13404   5.518   1.540   6.246
    1STR    H1H13405   5.537   1.368   6.256
    1STR    H1I13406   5.329   1.596   6.098
    1STR    H1J13407   5.287   1.636   6.246
    1STR    H1K13408   5.180   1.744   6.044
    1STR    H1M13409   4.902   1.627   6.014
    1STR    H1N13410   5.021   1.612   5.889
    1STR    H1O13411   4.970   1.769   5.931
    1STR    H1P13412   4.972   1.858   6.125
    1STR    H1Q13413   4.954   1.723   6.232
    1STR    H1R13414   5.168   1.981   6.389
    1STR    H1S13415   5.146   2.168   6.228
    1STR    H1T13416   5.098   2.052   6.102
    1STR    H1U13417   5.257   2.041   6.176
    1STR    H1V13418   4.893   2.022   6.262
    1STR    H1W13419   4.956   2.079   6.415
    1STR    H1X13420   4.896   1.648   6.416
    1STR    H1Y13421   4.978   1.421   6.455
    1STR    H1Z13422   5.170   1.280   6.521
    1STR    H2013423   5.510   1.370   6.495
    1STR    H2113424   5.459   1.376   6.665
    1STR    H2213425   5.397   1.250   6.557
    1STR    H2313426   5.523   1.572   6.526
    1STR    H2713427   5.229   1.762   6.449
    1STR    H2813428   5.339   1.105   5.915
    1STR    H2913429   5.521   1.233   5.802
    1STR    H2A13430   5.479   1.579   5.692
    1STR    H2B13431   5.525   1.426   5.629
    1STR    H2C13432   5.608   1.486   5.774
    1STR   BCK113433   5.477   3.343   0.396
    1STR    O0313434   5.475   3.223   0.375
    1STR    N0413435   5.598   3.400   0.382
    1STR    C0513436   5.649   3.524   0.415
    1STR    C0613437   5.592   3.589   0.521
    1STR    C0713438   5.630   3.714   0.564
    1STR    N0813439   5.558   3.759   0.671
    1STR    C0913440   5.468   3.857   0.665
    1STR    O0A13441   5.472   3.947   0.583
    1STR    O0B13442   5.370   3.845   0.756
    1STR    C0C13443   5.362   3.746   0.858
    1STR    C0D13444   5.267   3.808   0.960
    1STR    C0E13445   5.301   3.614   0.808
    1STR    O0F13446   5.391   3.533   0.734
    1STR    C0G13447   5.434   3.406   0.779
    1STR    C0H13448   5.369   3.284   0.718
    1STR    C0I13449   5.586   3.393   0.767
    1STR    O0J13450   5.637   3.508   0.827
    1STR    C0K13451   5.778   3.523   0.824
    1STR    C0M13452   5.789   3.656   0.895
    1STR    C0N13453   5.852   3.407   0.895
    1STR    O0O13454   5.965   3.452   0.967
    1STR    C0P13455   5.972   3.417   1.095
    1STR    O0Q13456   5.935   3.308   1.138
    1STR    N0R13457   5.983   3.526   1.170
    1STR    C0S13458   5.870   3.592   1.217
    1STR    C0T13459   5.881   3.722   1.268
    1STR    C0U13460   5.765   3.795   1.297
    1STR    C0V13461   5.638   3.741   1.273
    1STR    C0W13462   5.517   3.822   1.309
    1STR    C0X13463   5.627   3.612   1.219
    1STR    N0Y13464   5.504   3.570   1.176
    1STR   BCK213465   5.455   3.465   1.113
    1STR    O1013466   5.339   3.472   1.078
    1STR    C1313467   5.743   3.537   1.198
    1STR    C1413468   5.735   3.780   0.499
    1STR    C1513469   5.803   3.711   0.397
    1STR    C1613470   5.763   3.582   0.358
    1STR    C1713471   5.842   3.508   0.256
    1STR    H1B13472   5.658   3.340   0.330
    1STR    H1C13473   5.515   3.535   0.567
    1STR    H1D13474   5.540   3.687   0.740
    1STR    H1E13475   5.459   3.730   0.906
    1STR    H1F13476   5.167   3.818   0.919
    1STR    H1G13477   5.263   3.748   1.050
    1STR    H1H13478   5.300   3.907   0.987
    1STR    H1I13479   5.218   3.641   0.743
    1STR    H1J13480   5.254   3.562   0.888
    1STR    H1K13481   5.405   3.401   0.879
    1STR    H1M13482   5.425   3.248   0.632
    1STR    H1N13483   5.268   3.306   0.685
    1STR    H1O13484   5.370   3.203   0.788
    1STR    H1P13485   5.619   3.302   0.818
    1STR    H1Q13486   5.619   3.382   0.665
    1STR    H1R13487   5.815   3.533   0.723
    1STR    H1S13488   5.887   3.673   0.937
    1STR    H1T13489   5.716   3.666   0.975
    1STR    H1U13490   5.766   3.734   0.824
    1STR    H1V13491   5.883   3.332   0.823
    1STR    H1W13492   5.781   3.358   0.961
    1STR    H1X13493   6.063   3.583   1.151
    1STR    H1Y13494   5.976   3.770   1.283
    1STR    H1Z13495   5.774   3.895   1.336
    1STR    H2013496   5.521   3.919   1.261
    1STR    H2113497   5.421   3.775   1.287
    1STR    H2213498   5.521   3.836   1.416
    1STR    H2313499   5.435   3.641   1.193
    1STR    H2713500   5.734   3.441   1.155
    1STR    H2813501   5.762   3.880   0.527
    1STR    H2913502   5.886   3.759   0.349
    1STR    H2A13503   5.853   3.404   0.286
    1STR    H2B13504   5.941   3.551   0.247
    1STR    H2C13505   5.791   3.516   0.161
    1STR   BCK113506   5.510   3.553   2.391
    1STR    O0313507   5.476   3.481   2.484
    1STR    N0413508   5.432   3.621   2.309
    1STR    C0513509   5.298   3.612   2.295
    1STR    C0613510   5.230   3.495   2.326
    1STR    C0713511   5.090   3.488   2.319
    1STR    N0813512   5.032   3.370   2.358
    1STR    C0913513   4.957   3.371   2.465
    1STR    O0A13514   4.856   3.438   2.483
    1STR    O0B13515   5.024   3.306   2.554
    1STR    C0C13516   5.065   3.378   2.668
    1STR    C0D13517   5.167   3.287   2.734
    1STR    C0E13518   5.126   3.517   2.637
    1STR    O0F13519   5.027   3.616   2.619
    1STR    C0G13520   5.070   3.730   2.546
    1STR    C0H13521   4.947   3.802   2.493
    1STR    C0I13522   5.160   3.830   2.612
    1STR    O0J13523   5.287   3.776   2.645
    1STR    C0K13524   5.393   3.868   2.670
    1STR    C0M13525   5.498   3.823   2.572
    1STR    C0N13526   5.367   4.020   2.663
    1STR    O0O13527   5.254   4.052   2.739
    1STR    C0P13528   5.261   4.114   2.857
    1STR    O0Q13529   5.352   4.184   2.899
    1STR    N0R13530   5.159   4.077   2.933
    1STR    C0S13531   5.110   3.949   2.926
    1STR    C0T13532   4.973   3.921   2.915
    1STR    C0U13533   4.933   3.787   2.912
    1STR    C0V13534   5.027   3.682   2.921
    1STR    C0W13535   4.975   3.543   2.933
    1STR    C0X13536   5.165   3.711   2.926
    1STR    N0Y13537   5.261   3.611   2.920
    1STR   BCK213538   5.393   3.618   2.915
    1STR    O1013539   5.463   3.697   2.977
    1STR    C1313540   5.203   3.845   2.928
    1STR    C1413541   5.019   3.594   2.262
    1STR    C1513542   5.088   3.711   2.225
    1STR    C1613543   5.227   3.721   2.242
    1STR    C1713544   5.303   3.848   2.208
    1STR    H1B13545   5.479   3.673   2.235
    1STR    H1C13546   5.284   3.409   2.364
    1STR    H1D13547   5.099   3.295   2.363
    1STR    H1E13548   4.976   3.389   2.728
    1STR    H1F13549   5.248   3.262   2.666
    1STR    H1G13550   5.211   3.334   2.821
    1STR    H1H13551   5.120   3.194   2.767
    1STR    H1I13552   5.200   3.511   2.559
    1STR    H1J13553   5.188   3.551   2.715
    1STR    H1K13554   5.131   3.696   2.466
    1STR    H1M13555   4.881   3.733   2.441
    1STR    H1N13556   4.976   3.882   2.425
    1STR    H1O13557   4.891   3.847   2.575
    1STR    H1P13558   5.172   3.913   2.542
    1STR    H1Q13559   5.107   3.869   2.696
    1STR    H1R13560   5.430   3.845   2.769
    1STR    H1S13561   5.590   3.879   2.581
    1STR    H1T13562   5.462   3.833   2.470
    1STR    H1U13563   5.519   3.718   2.590
    1STR    H1V13564   5.346   4.052   2.562
    1STR    H1W13565   5.453   4.077   2.696
    1STR    H1X13566   5.135   4.136   3.012
    1STR    H1Y13567   4.899   3.999   2.915
    1STR    H1Z13568   4.827   3.765   2.909
    1STR    H2013569   5.050   3.467   2.917
    1STR    H2113570   4.937   3.530   3.033
    1STR    H2213571   4.892   3.529   2.864
    1STR    H2313572   5.222   3.525   2.887
    1STR    H2713573   5.307   3.870   2.934
    1STR    H2813574   4.912   3.588   2.251
    1STR    H2913575   5.028   3.793   2.192
    1STR    H2A13576   5.376   3.872   2.284
    1STR    H2B13577   5.237   3.934   2.202
    1STR    H2C13578   5.357   3.838   2.114
    1STR   BCK113579   5.424   3.479   3.997
    1STR    O0313580   5.534   3.532   4.004
    1STR    N0413581   5.400   3.352   3.961
    1STR    C0513582   5.468   3.240   4.004
    1STR    C0613583   5.581   3.255   4.083
    1STR    C0713584   5.619   3.158   4.175
    1STR    N0813585   5.675   3.212   4.289
    1STR    C0913586   5.787   3.283   4.277
    1STR    O0A13587   5.883   3.240   4.217
    1STR    O0B13588   5.783   3.409   4.325
    1STR    C0C13589   5.678   3.473   4.398
    1STR    C0D13590   5.742   3.604   4.440
    1STR    C0E13591   5.549   3.506   4.323
    1STR    O0F13592   5.479   3.388   4.289
    1STR    C0G13593   5.340   3.388   4.314
    1STR    C0H13594   5.270   3.272   4.244
    1STR    C0I13595   5.330   3.366   4.459
    1STR    O0J13596   5.257   3.471   4.520
    1STR    C0K13597   5.116   3.483   4.502
    1STR    C0M13598   5.092   3.607   4.418
    1STR    C0N13599   5.025   3.361   4.473
    1STR    O0O13600   5.085   3.240   4.515
    1STR    C0P13601   5.025   3.152   4.594
    1STR    O0Q13602   4.904   3.141   4.604
    1STR    N0R13603   5.110   3.081   4.670
    1STR    C0S13604   5.233   3.120   4.724
    1STR    C0T13605   5.314   3.038   4.803
    1STR    C0U13606   5.409   3.096   4.889
    1STR    C0V13607   5.439   3.234   4.883
    1STR    C0W13608   5.510   3.300   4.997
    1STR    C0X13609   5.380   3.310   4.782
    1STR    N0Y13610   5.405   3.440   4.740
    1STR   BCK213611   5.506   3.522   4.718
    1STR    O1013612   5.482   3.625   4.657
    1STR    C1313613   5.271   3.253   4.719
    1STR    C1413614   5.560   3.031   4.169
    1STR    C1513615   5.460   3.007   4.073
    1STR    C1613616   5.409   3.113   3.995
    1STR    C1713617   5.285   3.093   3.912
    1STR    H1B13618   5.311   3.336   3.920
    1STR    H1C13619   5.624   3.352   4.096
    1STR    H1D13620   5.601   3.271   4.328
    1STR    H1E13621   5.655   3.415   4.487
    1STR    H1F13622   5.772   3.662   4.353
    1STR    H1G13623   5.674   3.665   4.498
    1STR    H1H13624   5.832   3.585   4.500
    1STR    H1I13625   5.572   3.563   4.234
    1STR    H1J13626   5.487   3.571   4.386
    1STR    H1K13627   5.295   3.483   4.289
    1STR    H1M13628   5.327   3.180   4.252
    1STR    H1N13629   5.251   3.294   4.141
    1STR    H1O13630   5.172   3.253   4.285
    1STR    H1P13631   5.301   3.264   4.478
    1STR    H1Q13632   5.429   3.368   4.503
    1STR    H1R13633   5.089   3.512   4.601
    1STR    H1S13634   4.994   3.650   4.438
    1STR    H1T13635   5.100   3.589   4.311
    1STR    H1U13636   5.165   3.684   4.443
    1STR    H1V13637   5.004   3.354   4.367
    1STR    H1W13638   4.929   3.377   4.522
    1STR    H1X13639   5.066   2.998   4.707
    1STR    H1Y13640   5.296   2.932   4.806
    1STR    H1Z13641   5.457   3.034   4.963
    1STR    H2013642   5.600   3.352   4.968
    1STR    H2113643   5.444   3.373   5.043
    1STR    H2213644   5.535   3.227   5.071
    1STR    H2313645   5.331   3.480   4.682
    1STR    H2713646   5.210   3.318   4.667
    1STR    H2813647   5.586   2.954   4.239
    1STR    H2913648   5.416   2.909   4.068
    1STR    H2A13649   5.204   3.156   3.949
    1STR    H2B13650   5.251   2.990   3.918
    1STR    H2C13651   5.306   3.117   3.808
    1STR   BCK113652   5.630   3.473   5.810
    1STR    O0313653   5.533   3.434   5.873
    1STR    N0413654   5.645   3.592   5.754
    1STR    C0513655   5.562   3.703   5.758
    1STR    C0613656   5.423   3.694   5.778
    1STR    C0713657   5.347   3.810   5.798
    1STR    N0813658   5.217   3.795   5.839
    1STR    C0913659   5.201   3.793   5.971
    1STR    O0A13660   5.238   3.883   6.046
    1STR    O0B13661   5.168   3.670   6.005
    1STR    C0C13662   5.219   3.615   6.125
    1STR    C0D13663   5.104   3.531   6.178
    1STR    C0E13664   5.345   3.532   6.093
    1STR    O0F13665   5.448   3.613   6.042
    1STR    C0G13666   5.563   3.640   6.120
    1STR    C0H13667   5.672   3.534   6.115
    1STR    C0I13668   5.609   3.771   6.054
    1STR    O0J13669   5.670   3.880   6.120
    1STR    C0K13670   5.632   3.896   6.252
    1STR    C0M13671   5.479   3.895   6.271
    1STR    C0N13672   5.728   3.805   6.326
    1STR    O0O13673   5.790   3.888   6.420
    1STR    C0P13674   5.808   3.844   6.540
    1STR    O0Q13675   5.913   3.796   6.579
    1STR    N0R13676   5.704   3.861   6.619
    1STR    C0S13677   5.570   3.855   6.589
    1STR    C0T13678   5.480   3.957   6.622
    1STR    C0U13679   5.343   3.937   6.598
    1STR    C0V13680   5.297   3.818   6.538
    1STR    C0W13681   5.149   3.799   6.516
    1STR    C0X13682   5.387   3.716   6.505
    1STR    N0Y13683   5.339   3.598   6.448
    1STR   BCK213684   5.393   3.480   6.418
    1STR    O1013685   5.320   3.384   6.398
    1STR    C1313686   5.521   3.734   6.540
    1STR    C1413687   5.407   3.935   5.801
    1STR    C1513688   5.546   3.945   5.786
    1STR    C1613689   5.622   3.830   5.759
    1STR    C1713690   5.770   3.844   5.748
    1STR    H1B13691   5.731   3.601   5.702
    1STR    H1C13692   5.375   3.599   5.790
    1STR    H1D13693   5.164   3.721   5.796
    1STR    H1E13694   5.243   3.693   6.197
    1STR    H1F13695   5.078   3.453   6.107
    1STR    H1G13696   5.128   3.485   6.273
    1STR    H1H13697   5.016   3.594   6.191
    1STR    H1I13698   5.320   3.461   6.014
    1STR    H1J13699   5.380   3.472   6.175
    1STR    H1K13700   5.531   3.647   6.223
    1STR    H1M13701   5.733   3.540   6.026
    1STR    H1N13702   5.629   3.434   6.120
    1STR    H1O13703   5.741   3.546   6.198
    1STR    H1P13704   5.681   3.744   5.979
    1STR    H1Q13705   5.522   3.815   6.007
    1STR    H1R13706   5.663   3.996   6.280
    1STR    H1S13707   5.446   3.958   6.353
    1STR    H1T13708   5.432   3.800   6.285
    1STR    H1U13709   5.432   3.928   6.180
    1STR    H1V13710   5.807   3.772   6.260
    1STR    H1W13711   5.685   3.713   6.363
    1STR    H1X13712   5.734   3.855   6.715
    1STR    H1Y13713   5.516   4.049   6.668
    1STR    H1Z13714   5.274   4.014   6.627
    1STR    H2013715   5.130   3.753   6.419
    1STR    H2113716   5.108   3.736   6.595
    1STR    H2213717   5.098   3.895   6.519
    1STR    H2313718   5.239   3.593   6.441
    1STR    H2713719   5.592   3.655   6.535
    1STR    H2813720   5.346   4.021   5.822
    1STR    H2913721   5.592   4.042   5.791
    1STR    H2A13722   5.808   3.902   5.832
    1STR    H2B13723   5.792   3.893   5.654
    1STR    H2C13724   5.824   3.750   5.750
    1STR   BCK113725   5.463   5.314   0.513
    1STR    O0313726   5.550   5.266   0.585
    1STR    N0413727   5.371   5.249   0.443
    1STR    C0513728   5.318   5.125   0.463
    1STR    C0613729   5.375   5.028   0.545
    1STR    C0713730   5.292   4.928   0.595
    1STR    N0813731   5.341   4.838   0.685
    1STR    C0913732   5.279   4.818   0.800
    1STR    O0A13733   5.304   4.722   0.870
    1STR    O0B13734   5.197   4.919   0.834
    1STR    C0C13735   5.252   5.046   0.871
    1STR    C0D13736   5.388   5.029   0.939
    1STR    C0E13737   5.255   5.172   0.785
    1STR    O0F13738   5.142   5.199   0.704
    1STR    C0G13739   5.128   5.340   0.684
    1STR    C0H13740   5.085   5.373   0.545
    1STR    C0I13741   5.022   5.392   0.779
    1STR    O0J13742   5.083   5.489   0.859
    1STR    C0K13743   5.072   5.627   0.831
    1STR    C0M13744   5.183   5.668   0.736
    1STR    C0N13745   4.929   5.676   0.797
    1STR    O0O13746   4.827   5.604   0.863
    1STR    C0P13747   4.830   5.592   0.995
    1STR    O0Q13748   4.884   5.673   1.071
    1STR    N0R13749   4.790   5.470   1.029
    1STR    C0S13750   4.876   5.374   1.079
    1STR    C0T13751   4.833   5.241   1.082
    1STR    C0U13752   4.924   5.138   1.108
    1STR    C0V13753   5.059   5.166   1.127
    1STR    C0W13754   5.150   5.052   1.170
    1STR    C0X13755   5.106   5.297   1.107
    1STR    N0Y13756   5.240   5.319   1.083
    1STR   BCK213757   5.306   5.430   1.047
    1STR    O1013758   5.268   5.545   1.058
    1STR    C1313759   5.012   5.400   1.100
    1STR    C1413760   5.154   4.924   0.564
    1STR    C1513761   5.104   5.010   0.467
    1STR    C1613762   5.189   5.104   0.410
    1STR    C1713763   5.141   5.177   0.290
    1STR    H1B13764   5.310   5.308   0.389
    1STR    H1C13765   5.476   5.039   0.582
    1STR    H1D13766   5.435   4.800   0.678
    1STR    H1E13767   5.174   5.074   0.938
    1STR    H1F13768   5.466   5.009   0.866
    1STR    H1G13769   5.413   5.119   0.992
    1STR    H1H13770   5.384   4.946   1.008
    1STR    H1I13771   5.346   5.183   0.728
    1STR    H1J13772   5.263   5.253   0.855
    1STR    H1K13773   5.223   5.393   0.700
    1STR    H1M13774   5.010   5.300   0.515
    1STR    H1N13775   5.168   5.373   0.476
    1STR    H1O13776   5.043   5.472   0.540
    1STR    H1P13777   4.930   5.423   0.730
    1STR    H1Q13778   4.992   5.310   0.843
    1STR    H1R13779   5.097   5.672   0.927
    1STR    H1S13780   5.194   5.776   0.733
    1STR    H1T13781   5.167   5.630   0.635
    1STR    H1U13782   5.277   5.625   0.772
    1STR    H1V13783   4.912   5.664   0.690
    1STR    H1W13784   4.921   5.782   0.822
    1STR    H1X13785   4.714   5.431   0.971
    1STR    H1Y13786   4.730   5.217   1.063
    1STR    H1Z13787   4.889   5.038   1.118
    1STR    H2013788   5.252   5.067   1.141
    1STR    H2113789   5.156   5.042   1.277
    1STR    H2213790   5.116   4.958   1.128
    1STR    H2313791   5.296   5.236   1.097
    1STR    H2713792   5.047   5.501   1.091
    1STR    H2813793   5.088   4.852   0.609
    1STR    H2913794   5.003   5.001   0.434
    1STR    H2A13795   5.072   5.256   0.318
    1STR    H2B13796   5.085   5.110   0.226
    1STR    H2C13797   5.225   5.214   0.232
    1STR   BCK113798   5.385   5.259   2.265
    1STR    O0313799   5.467   5.350   2.280
    1STR    N0413800   5.421   5.130   2.256
    1STR    C0513801   5.544   5.091   2.308
    1STR    C0613802   5.583   5.152   2.427
    1STR    C0713803   5.715   5.177   2.458
    1STR    N0813804   5.732   5.287   2.540
    1STR    C0913805   5.702   5.399   2.472
    1STR    O0A13806   5.774   5.438   2.381
    1STR    O0B13807   5.581   5.458   2.498
    1STR    C0C13808   5.510   5.463   2.621
    1STR    C0D13809   5.512   5.611   2.661
    1STR    C0E13810   5.361   5.422   2.614
    1STR    O0F13811   5.334   5.303   2.543
    1STR    C0G13812   5.292   5.190   2.616
    1STR    C0H13813   5.253   5.079   2.522
    1STR    C0I13814   5.400   5.136   2.708
    1STR    O0J13815   5.456   5.011   2.673
    1STR    C0K13816   5.459   4.923   2.783
    1STR    C0M13817   5.322   4.860   2.803
    1STR    C0N13818   5.572   4.821   2.762
    1STR    O0O13819   5.693   4.891   2.740
    1STR    C0P13820   5.744   4.963   2.837
    1STR    O0Q13821   5.721   4.947   2.957
    1STR    N0R13822   5.815   5.063   2.788
    1STR    C0S13823   5.836   5.180   2.856
    1STR    C0T13824   5.957   5.211   2.919
    1STR    C0U13825   5.970   5.333   2.988
    1STR    C0V13826   5.862   5.423   2.996
    1STR    C0W13827   5.876   5.550   3.074
    1STR    C0X13828   5.740   5.390   2.935
    1STR    N0Y13829   5.630   5.475   2.944
    1STR   BCK213830   5.501   5.447   2.951
    1STR    O1013831   5.417   5.529   2.921
    1STR    C1313832   5.731   5.271   2.862
    1STR    C1413833   5.814   5.110   2.385
    1STR    C1513834   5.774   5.018   2.285
    1STR    C1613835   5.638   5.010   2.245
    1STR    C1713836   5.595   4.913   2.140
    1STR    H1B13837   5.351   5.061   2.223
    1STR    H1C13838   5.510   5.208   2.478
    1STR    H1D13839   5.677   5.276   2.622
    1STR    H1E13840   5.562   5.406   2.697
    1STR    H1F13841   5.491   5.677   2.578
    1STR    H1G13842   5.433   5.639   2.729
    1STR    H1H13843   5.607   5.637   2.707
    1STR    H1I13844   5.306   5.500   2.563
    1STR    H1J13845   5.318   5.418   2.714
    1STR    H1K13846   5.205   5.217   2.675
    1STR    H1M13847   5.337   5.038   2.468
    1STR    H1N13848   5.181   5.110   2.448
    1STR    H1O13849   5.213   4.997   2.580
    1STR    H1P13850   5.481   5.205   2.710
    1STR    H1Q13851   5.351   5.131   2.804
    1STR    H1R13852   5.483   4.980   2.872
    1STR    H1S13853   5.244   4.934   2.816
    1STR    H1T13854   5.322   4.796   2.891
    1STR    H1U13855   5.297   4.798   2.718
    1STR    H1V13856   5.549   4.758   2.676
    1STR    H1W13857   5.579   4.757   2.849
    1STR    H1X13858   5.820   5.061   2.687
    1STR    H1Y13859   6.039   5.141   2.915
    1STR    H1Z13860   6.062   5.357   3.038
    1STR    H2013861   5.779   5.585   3.105
    1STR    H2113862   5.935   5.533   3.164
    1STR    H2213863   5.921   5.626   3.011
    1STR    H2313864   5.644   5.578   2.943
    1STR    H2713865   5.640   5.243   2.816
    1STR    H2813866   5.919   5.129   2.402
    1STR    H2913867   5.849   4.962   2.233
    1STR    H2A13868   5.510   4.953   2.085
    1STR    H2B13869   5.561   4.822   2.189
    1STR    H2C13870   5.675   4.891   2.071
    1STR   BCK113871   5.650   5.411   4.123
    1STR    O0313872   5.588   5.349   4.204
    1STR    N0413873   5.604   5.489   4.026
    1STR    C0513874   5.476   5.505   3.977
    1STR    C0613875   5.373   5.415   4.007
    1STR    C0713876   5.242   5.452   3.982
    1STR    N0813877   5.144   5.384   4.050
    1STR    C0913878   5.124   5.421   4.175
    1STR    O0A13879   5.093   5.533   4.208
    1STR    O0B13880   5.147   5.322   4.253
    1STR    C0C13881   5.220   5.349   4.370
    1STR    C0D13882   5.221   5.217   4.446
    1STR    C0E13883   5.359   5.395   4.330
    1STR    O0F13884   5.371   5.514   4.246
    1STR    C0G13885   5.414   5.644   4.286
    1STR    C0H13886   5.497   5.724   4.188
    1STR    C0I13887   5.290   5.728   4.306
    1STR    O0J13888   5.215   5.695   4.418
    1STR    C0K13889   5.293   5.705   4.534
    1STR    C0M13890   5.361   5.575   4.570
    1STR    C0N13891   5.388   5.824   4.550
    1STR    O0O13892   5.314   5.937   4.591
    1STR    C0P13893   5.349   5.991   4.707
    1STR    O0Q13894   5.396   6.102   4.717
    1STR    N0R13895   5.335   5.913   4.815
    1STR    C0S13896   5.261   5.798   4.828
    1STR    C0T13897   5.122   5.797   4.810
    1STR    C0U13898   5.054   5.675   4.800
    1STR    C0V13899   5.126   5.555   4.809
    1STR    C0W13900   5.061   5.420   4.783
    1STR    C0X13901   5.262   5.557   4.838
    1STR    N0Y13902   5.327   5.437   4.827
    1STR   BCK213903   5.455   5.409   4.822
    1STR    O1013904   5.542   5.456   4.895
    1STR    C1313905   5.330   5.679   4.850
    1STR    C1413906   5.214   5.559   3.897
    1STR    C1513907   5.318   5.636   3.848
    1STR    C1613908   5.448   5.611   3.890
    1STR    C1713909   5.554   5.705   3.849
    1STR    H1B13910   5.674   5.510   3.957
    1STR    H1C13911   5.393   5.331   4.068
    1STR    H1D13912   5.138   5.284   4.042
    1STR    H1E13913   5.175   5.428   4.426
    1STR    H1F13914   5.269   5.138   4.386
    1STR    H1G13915   5.274   5.224   4.540
    1STR    H1H13916   5.119   5.183   4.466
    1STR    H1I13917   5.380   5.310   4.266
    1STR    H1J13918   5.438   5.380   4.402
    1STR    H1K13919   5.487   5.644   4.364
    1STR    H1M13920   5.444   5.740   4.096
    1STR    H1N13921   5.593   5.676   4.173
    1STR    H1O13922   5.519   5.822   4.228
    1STR    H1P13923   5.309   5.834   4.306
    1STR    H1Q13924   5.230   5.710   4.220
    1STR    H1R13925   5.212   5.715   4.603
    1STR    H1S13926   5.427   5.590   4.653
    1STR    H1T13927   5.440   5.538   4.511
    1STR    H1U13928   5.291   5.495   4.587
    1STR    H1V13929   5.449   5.848   4.464
    1STR    H1W13930   5.463   5.798   4.624
    1STR    H1X13931   5.365   5.958   4.899
    1STR    H1Y13932   5.068   5.890   4.795
    1STR    H1Z13933   4.948   5.674   4.781
    1STR    H2013934   5.088   5.383   4.686
    1STR    H2113935   5.098   5.346   4.851
    1STR    H2213936   4.955   5.421   4.803
    1STR    H2313937   5.272   5.367   4.779
    1STR    H2713938   5.437   5.680   4.862
    1STR    H2813939   5.114   5.583   3.866
    1STR    H2913940   5.298   5.719   3.785
    1STR    H2A13941   5.625   5.725   3.929
    1STR    H2B13942   5.506   5.799   3.822
    1STR    H2C13943   5.602   5.659   3.763
    1STR   BCK113944   5.511   5.291   5.837
    1STR    O0313945   5.629   5.277   5.869
    1STR    N0413946   5.426   5.196   5.804
    1STR    C0513947   5.424   5.058   5.815
    1STR    C0613948   5.490   5.000   5.921
    1STR    C0713949   5.422   4.901   5.996
    1STR    N0813950   5.444   4.893   6.132
    1STR    C0913951   5.567   4.915   6.172
    1STR    O0A13952   5.646   4.825   6.189
    1STR    O0B13953   5.607   5.041   6.170
    1STR    C0C13954   5.535   5.155   6.209
    1STR    C0D13955   5.641   5.263   6.202
    1STR    C0E13956   5.409   5.210   6.144
    1STR    O0F13957   5.301   5.122   6.123
    1STR    C0G13958   5.187   5.196   6.081
    1STR    C0H13959   5.109   5.122   5.975
    1STR    C0I13960   5.098   5.208   6.200
    1STR    O0J13961   5.159   5.291   6.297
    1STR    C0K13962   5.078   5.395   6.347
    1STR    C0M13963   5.084   5.507   6.245
    1STR    C0N13964   4.937   5.347   6.389
    1STR    O0O13965   4.952   5.230   6.465
    1STR    C0P13966   4.898   5.113   6.429
    1STR    O0Q13967   4.788   5.104   6.378
    1STR    N0R13968   4.979   5.007   6.446
    1STR    C0S13969   5.116   5.000   6.470
    1STR    C0T13970   5.187   4.882   6.444
    1STR    C0U13971   5.325   4.876   6.466
    1STR    C0V13972   5.399   4.992   6.494
    1STR    C0W13973   5.546   4.982   6.523
    1STR    C0X13974   5.330   5.114   6.500
    1STR    N0Y13975   5.370   5.241   6.466
    1STR   BCK213976   5.472   5.323   6.463
    1STR    O1013977   5.451   5.435   6.420
    1STR    C1313978   5.192   5.112   6.507
    1STR    C1413979   5.305   4.842   5.947
    1STR    C1513980   5.253   4.887   5.826
    1STR    C1613981   5.316   4.992   5.758
    1STR    C1713982   5.254   5.047   5.635
    1STR    H1B13983   5.338   5.231   5.771
    1STR    H1C13984   5.575   5.054   5.956
    1STR    H1D13985   5.377   4.961   6.168
    1STR    H1E13986   5.509   5.132   6.309
    1STR    H1F13987   5.686   5.269   6.104
    1STR    H1G13988   5.602   5.362   6.226
    1STR    H1H13989   5.721   5.244   6.274
    1STR    H1I13990   5.434   5.259   6.053
    1STR    H1J13991   5.376   5.293   6.206
    1STR    H1K13992   5.210   5.295   6.043
    1STR    H1M13993   5.094   5.017   6.002
    1STR    H1N13994   5.158   5.130   5.880
    1STR    H1O13995   5.012   5.166   5.962
    1STR    H1P13996   5.000   5.243   6.166
    1STR    H1Q13997   5.083   5.108   6.239
    1STR    H1R13998   5.129   5.430   6.437
    1STR    H1S13999   5.036   5.598   6.280
    1STR    H1T14000   5.038   5.479   6.149
    1STR    H1U14001   5.188   5.531   6.224
    1STR    H1V14002   4.869   5.331   6.304
    1STR    H1W14003   4.892   5.419   6.455
    1STR    H1X14004   4.933   4.916   6.430
    1STR    H1Y14005   5.136   4.793   6.414
    1STR    H1Z14006   5.371   4.780   6.461
    1STR    H2014007   5.608   5.020   6.444
    1STR    H2114008   5.567   5.034   6.616
    1STR    H2214009   5.569   4.878   6.534
    1STR    H2314010   5.292   5.287   6.419
    1STR    H2714011   5.148   5.206   6.532
    1STR    H2814012   5.249   4.771   6.006
    1STR    H2914013   5.158   4.850   5.791
    1STR    H2A14014   5.282   5.149   5.629
    1STR    H2B14015   5.146   5.034   5.631
    1STR    H2C14016   5.299   5.014   5.545
    1HEX    C0114017   0.391   0.068   6.681
    1HEX    C0214018   0.269   0.123   6.758
    1HEX    C0314019   0.157   0.026   6.791
    1HEX    O0414020   0.176   7.121   6.865
    1HEX    O0514021   0.042   0.059   6.729
    1HEX    C0614022   7.136   7.150   6.697
    1HEX    C0714023   6.994   7.166   6.755
    1HEX    C0814024   6.928   0.111   6.724
    1HEX    O0914025   7.021   0.212   6.735
    1HEX    C0A14026   7.027   0.272   6.848
    1HEX    O0B14027   6.952   0.256   6.943
    1HEX    C0C14028   7.141   0.367   6.846
    1HEX    C0D14029   0.068   0.330   6.935
    1HEX    C0F14030   6.898   7.082   6.672
    1HEX    O0G14031   6.922   6.947   6.673
    1HEX    C0H14032   6.822   6.873   6.628
    1HEX    O0I14033   6.726   6.910   6.562
    1HEX    C0J14034   6.827   6.740   6.692
    1HEX    C0K14035   6.816   6.769   6.840
    1HEX    C0N14036   6.985   7.126   6.905
    1HEX    O0O14037   7.109   7.119   6.976
    1HEX    C0P14038   7.134   0.025   7.076
    1HEX    C0Q14039   7.110   7.171   0.031
    1HEX    C0R14040   0.034   7.078   0.072
    1HEX    O0S14041   0.135   7.164   0.119
    1HEX    C0T14042   0.247   7.116   0.160
    1HEX    O0U14043   0.289   7.006   0.135
    1HEX    C0V14044   0.328   0.025   0.237
    1HEX    C0W14045   0.376   0.134   0.142
    1HEX    C0Y14046   7.109   0.106   0.120
    1HEX    O0Z14047   7.120   0.085   0.261
    1HEX    C1014048   0.009   0.167   0.331
    1HEX    O1114049   0.095   0.242   0.286
    1HEX    C1214050   7.174   0.167   0.480
    1HEX    C1314051   0.116   0.163   0.557
    1HEX    C1514052   6.972   7.111   0.036
    1HEX    O1614053   6.931   7.091   0.168
    1HEX    C1714054   6.905   6.972   0.214
    1HEX    O1814055   6.954   6.866   0.178
    1HEX    C1914056   6.812   6.982   0.331
    1HEX    C1A14057   6.664   7.000   0.298
    1HEX    H1D14058   0.419   0.134   6.601
    1HEX    H1E14059   0.476   0.064   6.748
    1HEX    H1F14060   0.225   0.202   6.700
    1HEX    H1G14061   0.304   0.163   6.853
    1HEX    H1H14062   7.173   7.050   6.722
    1HEX    H1I14063   7.129   7.153   6.589
    1HEX    H1J14064   6.840   0.127   6.786
    1HEX    H1K14065   6.888   0.121   6.624
    1HEX    H1M14066   7.092   0.457   6.877
    1HEX    H1N14067   7.172   0.378   6.743
    1HEX    H1O14068   0.154   0.315   6.872
    1HEX    H1P14069   0.050   0.240   6.991
    1HEX    H1R14070   6.895   7.110   6.568
    1HEX    H1S14071   6.798   7.100   6.709
    1HEX    H1T14072   6.921   6.692   6.667
    1HEX    H1U14073   6.749   6.678   6.649
    1HEX    H1V14074   6.726   6.734   6.885
    1HEX    H1W14075   6.810   6.875   6.862
    1HEX    H1Y14076   6.953   7.023   6.909
    1HEX    H1Z14077   6.909   7.182   6.958
    1HEX    H2014078   7.079   0.115   7.060
    1HEX    H2114079   0.050   0.049   7.067
    1HEX    H2214080   0.070   7.019   7.177
    1HEX    H2314081   0.004   7.010   0.151
    1HEX    H2414082   0.410   7.164   0.288
    1HEX    H2514083   0.262   0.064   0.313
    1HEX    H2614084   0.395   0.225   0.198
    1HEX    H2714085   0.301   0.155   0.067
    1HEX    H2914086   7.018   0.164   0.102
    1HEX    H2A14087   0.002   0.165   0.084
    1HEX    H2B14088   7.102   0.091   0.509
    1HEX    H2C14089   7.128   0.260   0.508
    1HEX    H2D14090   0.122   0.248   0.624
    1HEX    H2E14091   0.203   0.168   0.492
    1HEX    H2G14092   6.963   7.024   7.164
    1HEX    H2H14093   6.902   7.182   7.183
    1HEX    H2I14094   6.849   7.067   0.386
    1HEX    H2J14095   6.823   6.891   0.389
    1HEX    H2K14096   6.608   7.010   0.391
    1HEX    H2M14097   6.625   6.914   0.245
    1STR    S0014098   0.369   7.094   6.610
    1STR    S0E14099   0.115   0.464   7.044
    1STR    S0M14100   6.970   6.710   6.913
    1STR    S0X14101   0.528   0.080   0.060
    1STR    S1414102   0.127   0.017   0.657
    1STR    S1B14103   6.636   7.152   0.206
    1HEX    C0114104   0.312   7.001   1.181
    1HEX    C0214105   0.288   7.022   1.330
    1HEX    C0314106   0.144   7.025   1.373
    1HEX    O0414107   0.080   6.921   1.368
    1HEX    O0514108   0.097   7.150   1.398
    1HEX    C0614109   7.149   7.181   1.370
    1HEX    C0714110   7.047   7.186   1.485
    1HEX    C0814111   7.040   0.129   1.560
    1HEX    O0914112   6.969   0.225   1.483
    1HEX    C0A14113   6.847   0.268   1.522
    1HEX    O0B14114   6.789   0.237   1.626
    1HEX    C0C14115   6.780   0.356   1.419
    1HEX    C0D14116   6.877   0.436   1.332
    1HEX    C0F14117   6.905   7.173   1.427
    1HEX    O0G14118   6.881   7.044   1.385
    1HEX    C0H14119   6.800   6.967   1.452
    1HEX    O0I14120   6.731   6.996   1.549
    1HEX    C0J14121   6.815   6.827   1.407
    1HEX    C0K14122   6.874   6.748   1.518
    1HEX    C0N14123   7.070   7.062   1.571
    1HEX    O0O14124   0.007   7.041   1.626
    1HEX    C0P14125   0.060   7.133   1.716
    1HEX    C0Q14126   0.037   7.096   1.860
    1HEX    C0R14127   0.077   6.950   1.879
    1HEX    O0S14128   0.211   6.930   1.836
    1HEX    C0T14129   0.253   6.806   1.824
    1HEX    O0U14130   0.202   6.710   1.879
    1HEX    C0V14131   0.371   6.787   1.732
    1HEX    C0W14132   0.466   6.906   1.723
    1HEX    C0Y14133   0.125   7.185   1.947
    1HEX    O0Z14134   0.063   7.179   2.071
    1HEX    C1014135   0.027   0.096   2.134
    1HEX    O1114136   0.096   0.193   2.161
    1HEX    C1214137   7.078   0.083   2.187
    1HEX    C1314138   7.085   7.180   2.304
    1HEX    C1514139   7.079   7.126   1.886
    1HEX    O1614140   7.014   7.046   1.982
    1HEX    C1714141   6.953   6.935   1.943
    1HEX    O1814142   6.971   6.873   1.839
    1HEX    C1914143   6.842   6.896   2.036
    1HEX    C1A14144   6.710   6.899   1.958
    1HEX    H1D14145   0.419   6.994   1.166
    1HEX    H1E14146   0.271   6.905   1.149
    1HEX    H1F14147   0.340   7.111   1.364
    1HEX    H1G14148   0.332   6.936   1.378
    1HEX    H1H14149   7.112   7.103   1.307
    1HEX    H1I14150   7.144   0.081   1.310
    1HEX    H1J14151   7.136   0.173   1.579
    1HEX    H1K14152   6.994   0.113   1.657
    1HEX    H1M14153   6.711   0.422   1.471
    1HEX    H1N14154   6.721   0.289   1.357
    1HEX    H1O14155   6.823   0.478   1.248
    1HEX    H1P14156   6.959   0.374   1.293
    1HEX    H1R14157   6.893   0.048   1.341
    1HEX    H1S14158   6.830   0.012   1.501
    1HEX    H1T14159   6.881   6.823   1.323
    1HEX    H1U14160   6.719   6.787   1.377
    1HEX    H1V14161   6.821   6.655   1.512
    1HEX    H1W14162   6.858   6.791   1.616
    1HEX    H1Y14163   7.071   6.982   1.500
    1HEX    H1Z14164   6.985   7.034   1.632
    1HEX    H2014165   0.049   0.048   1.695
    1HEX    H2114166   0.162   7.113   1.701
    1HEX    H2214167   0.014   6.887   1.817
    1HEX    H2314168   0.064   6.919   1.981
    1HEX    H2414169   0.331   6.763   1.633
    1HEX    H2514170   0.426   6.699   1.766
    1HEX    H2614171   0.558   6.874   1.677
    1HEX    H2714172   0.492   6.947   1.818
    1HEX    H2914173   0.130   0.096   1.908
    1HEX    H2A14174   0.226   7.148   1.953
    1HEX    H2B14175   7.009   0.047   2.112
    1HEX    H2C14176   7.041   0.180   2.216
    1HEX    H2D14177   6.992   7.187   2.359
    1HEX    H2E14178   7.159   0.032   2.369
    1HEX    H2G14179   7.022   7.123   1.798
    1HEX    H2H14180   7.068   0.041   1.911
    1HEX    H2I14181   6.841   6.962   2.123
    1HEX    H2J14182   6.865   6.797   2.073
    1HEX    H2K14183   6.640   6.826   1.996
    1HEX    H2M14184   6.725   6.882   1.851
    1STR    S0014185   0.246   7.140   1.087
    1STR    S0E14186   6.947   0.575   1.423
    1STR    S0M14187   7.052   6.731   1.490
    1STR    S0X14188   0.392   7.026   1.613
    1STR    S1414189   7.100   7.003   2.265
    1STR    S1B14190   6.636   7.060   1.978
    1HEX    C0114191   0.251   6.759   3.043
    1HEX    C0214192   0.179   6.791   3.171
    1HEX    C0314193   0.034   6.821   3.149
    1HEX    O0414194   7.151   6.725   3.137
    1HEX    O0514195   0.003   6.952   3.139
    1HEX    C0614196   7.069   6.989   3.077
    1HEX    C0714197   6.981   7.091   3.151
    1HEX    C0814198   7.027   0.048   3.139
    1HEX    O0914199   6.926   0.145   3.172
    1HEX    C0A14200   6.882   0.166   3.296
    1HEX    O0B14201   6.917   0.110   3.398
    1HEX    C0C14202   6.783   0.278   3.311
    1HEX    C0D14203   6.758   0.326   3.457
    1HEX    C0F14204   6.846   7.089   3.078
    1HEX    O0G14205   6.780   6.967   3.088
    1HEX    C0H14206   6.776   6.883   2.985
    1HEX    O0I14207   6.832   6.898   2.876
    1HEX    C0J14208   6.702   6.757   3.020
    1HEX    C0K14209   6.720   6.721   3.168
    1HEX    C0N14210   6.973   7.040   3.295
    1HEX    O0O14211   7.100   7.033   3.357
    1HEX    C0P14212   7.173   7.144   3.407
    1HEX    C0Q14213   0.011   7.121   3.555
    1HEX    C0R14214   0.058   6.977   3.563
    1HEX    O0S14215   0.175   6.962   3.487
    1HEX    C0T14216   0.282   6.909   3.542
    1HEX    O0U14217   0.297   6.878   3.659
    1HEX    C0V14218   0.386   6.879   3.438
    1HEX    C0W14219   0.411   6.999   3.350
    1HEX    C0Y14220   0.121   0.019   3.609
    1HEX    O0Z14221   0.178   7.141   3.718
    1HEX    C1014222   0.145   7.170   3.838
    1HEX    O1114223   0.124   0.094   3.876
    1HEX    C1214224   0.122   7.044   3.921
    1HEX    C1314225   0.192   7.031   4.057
    1HEX    C1514226   7.075   7.149   3.635
    1HEX    O1614227   7.047   7.047   3.727
    1HEX    C1714228   6.964   6.953   3.685
    1HEX    O1814229   6.939   6.924   3.569
    1HEX    C1914230   6.887   6.894   3.798
    1HEX    C1A14231   6.810   7.001   3.863
    1HEX    H1D14232   0.330   6.685   3.059
    1HEX    H1E14233   0.183   6.721   2.967
    1HEX    H1F14234   0.220   6.873   3.229
    1HEX    H1G14235   0.187   6.698   3.226
    1HEX    H1H14236   7.013   6.898   3.064
    1HEX    H1I14237   7.085   7.024   2.975
    1HEX    H1J14238   7.050   0.068   3.034
    1HEX    H1K14239   7.121   0.068   3.188
    1HEX    H1M14240   6.688   0.259   3.264
    1HEX    H1N14241   6.816   0.352   3.242
    1HEX    H1O14242   6.679   0.263   3.496
    1HEX    H1P14243   6.712   0.423   3.449
    1HEX    H1R14244   6.856   7.120   2.974
    1HEX    H1S14245   6.778   7.160   3.119
    1HEX    H1T14246   6.734   6.677   2.954
    1HEX    H1U14247   6.598   6.780   2.999
    1HEX    H1V14248   6.648   6.650   3.205
    1HEX    H1W14249   6.715   6.809   3.229
    1HEX    H1Y14250   6.941   6.936   3.291
    1HEX    H1Z14251   6.897   7.082   3.356
    1HEX    H2014252   7.133   0.052   3.391
    1HEX    H2114253   0.077   7.143   3.355
    1HEX    H2214254   7.173   6.912   3.523
    1HEX    H2314255   0.068   6.945   3.666
    1HEX    H2414256   0.348   6.798   3.379
    1HEX    H2514257   0.477   6.844   3.487
    1HEX    H2614258   0.320   7.053   3.328
    1HEX    H2714259   0.457   6.969   3.256
    1HEX    H2914260   0.091   0.122   3.628
    1HEX    H2A14261   0.193   0.021   3.531
    1HEX    H2B14262   0.155   6.959   3.861
    1HEX    H2C14263   0.015   7.034   3.933
    1HEX    H2D14264   0.296   7.007   4.043
    1HEX    H2E14265   0.149   6.945   4.109
    1HEX    H2G14266   6.992   7.159   3.567
    1HEX    H2H14267   7.079   0.054   3.688
    1HEX    H2I14268   6.960   6.860   3.870
    1HEX    H2J14269   6.823   6.813   3.765
    1HEX    H2K14270   6.875   7.087   3.873
    1HEX    H2M14271   6.773   6.963   3.957
    1STR    S0014272   0.323   6.915   3.002
    1STR    S0E14273   6.880   0.331   3.597
    1STR    S0M14274   6.885   6.671   3.206
    1STR    S0X14275   0.523   7.103   3.437
    1STR    S1414276   0.178   7.172   4.170
    1STR    S1B14277   6.675   7.061   3.768
    1HEX    C0114278   0.223   6.992   4.601
    1HEX    C0214279   0.198   6.878   4.699
    1HEX    C0314280   0.056   6.867   4.752
    1HEX    O0414281   7.166   6.789   4.701
    1HEX    O0514282   0.030   6.947   4.856
    1HEX    C0614283   7.089   6.937   4.907
    1HEX    C0714284   7.055   7.034   5.021
    1HEX    C0814285   7.093   7.177   4.978
    1HEX    O0914286   6.984   0.074   4.972
    1HEX    C0A14287   6.943   0.146   5.073
    1HEX    O0B14288   6.968   0.130   5.191
    1HEX    C0C14289   6.847   0.247   5.022
    1HEX    C0D14290   6.828   0.375   5.098
    1HEX    C0F14291   6.904   7.019   5.045
    1HEX    O0G14292   6.881   6.882   5.069
    1HEX    C0H14293   6.765   6.825   5.040
    1HEX    O0I14294   6.666   6.881   4.996
    1HEX    C0J14295   6.765   6.677   5.064
    1HEX    C0K14296   6.856   6.638   5.179
    1HEX    C0N14297   7.124   6.989   5.149
    1HEX    O0O14298   0.063   7.040   5.170
    1HEX    C0P14299   0.072   7.152   5.256
    1HEX    C0Q14300   0.037   7.130   5.403
    1HEX    C0R14301   0.073   6.990   5.449
    1HEX    O0S14302   0.210   6.972   5.478
    1HEX    C0T14303   0.246   6.859   5.535
    1HEX    O0U14304   0.182   6.755   5.528
    1HEX    C0V14305   0.378   6.869   5.609
    1HEX    C0W14306   0.392   7.005   5.680
    1HEX    C0Y14307   0.120   0.042   5.476
    1HEX    O0Z14308   0.062   0.058   5.601
    1HEX    C1014309   0.087   0.167   5.661
    1HEX    O1114310   0.178   0.241   5.627
    1HEX    C1214311   7.172   0.202   5.764
    1HEX    C1314312   7.161   0.112   5.885
    1HEX    C1514313   7.077   7.169   5.429
    1HEX    O1614314   7.014   7.123   5.548
    1HEX    C1714315   6.965   7.000   5.553
    1HEX    O1814316   6.987   6.915   5.469
    1HEX    C1914317   6.871   6.970   5.670
    1HEX    C1A14318   6.754   6.878   5.634
    1HEX    H1D14319   0.305   6.968   4.535
    1HEX    H1E14320   0.249   7.083   4.655
    1HEX    H1F14321   0.267   6.885   4.783
    1HEX    H1G14322   0.217   6.784   4.649
    1HEX    H1H14323   7.071   6.834   4.936
    1HEX    H1I14324   7.020   6.954   4.826
    1HEX    H1J14325   7.130   7.173   4.876
    1HEX    H1K14326   7.178   0.030   5.027
    1HEX    H1M14327   6.757   0.195   4.998
    1HEX    H1N14328   6.889   0.279   4.930
    1HEX    H1O14329   6.801   0.360   5.200
    1HEX    H1P14330   6.749   0.432   5.051
    1HEX    H1R14331   6.848   7.056   4.960
    1HEX    H1S14332   6.872   7.076   5.131
    1HEX    H1T14333   6.792   6.626   4.971
    1HEX    H1U14334   6.662   6.651   5.088
    1HEX    H1V14335   6.823   6.546   5.226
    1HEX    H1W14336   6.851   6.715   5.255
    1HEX    H1Y14337   7.140   6.884   5.138
    1HEX    H1Z14338   7.059   6.988   5.235
    1HEX    H2014339   0.017   0.049   5.222
    1HEX    H2114340   0.176   7.180   5.249
    1HEX    H2214341   0.036   6.915   5.382
    1HEX    H2314342   0.024   6.972   5.542
    1HEX    H2414343   0.460   6.850   5.541
    1HEX    H2514344   0.381   6.789   5.682
    1HEX    H2614345   0.405   6.991   5.787
    1HEX    H2714346   0.306   7.069   5.665
    1HEX    H2914347   0.118   0.136   5.422
    1HEX    H2A14348   0.225   0.016   5.488
    1HEX    H2B14349   7.076   0.206   5.712
    1HEX    H2C14350   0.005   0.300   5.802
    1HEX    H2D14351   7.098   0.159   5.959
    1HEX    H2E14352   0.069   0.095   5.930
    1HEX    H2G14353   7.014   7.143   5.346
    1HEX    H2H14354   7.070   0.087   5.433
    1HEX    H2I14355   6.834   7.062   5.714
    1HEX    H2J14356   6.924   6.924   5.751
    1HEX    H2K14357   6.708   6.840   5.725
    1HEX    H2M14358   6.788   6.794   5.574
    1STR    S0014359   0.076   7.018   4.501
    1STR    S0E14360   6.979   0.469   5.076
    1STR    S0M14361   7.028   6.619   5.125
    1STR    S0X14362   0.533   7.101   5.627
    1STR    S1414363   7.081   7.150   5.836
    1STR    S1B14364   6.627   6.966   5.542
    1HEX    C0114365   0.247   1.614   6.463
    1HEX    C0214366   0.217   1.545   6.598
    1HEX    C0314367   0.071   1.511   6.612
    1HEX    O0414368   0.022   1.418   6.549
    1HEX    O0514369   0.009   1.605   6.682
    1HEX    C0614370   7.062   1.626   6.659
    1HEX    C0714371   6.992   1.691   6.778
    1HEX    C0814372   7.052   1.828   6.798
    1HEX    O0914373   6.951   1.924   6.810
    1HEX    C0A14374   6.947   1.997   6.916
    1HEX    O0B14375   7.021   1.991   7.013
    1HEX    C0C14376   6.840   2.098   6.906
    1HEX    C0D14377   6.911   2.231   6.900
    1HEX    C0F14378   6.841   1.696   6.755
    1HEX    O0G14379   6.791   1.570   6.720
    1HEX    C0H14380   6.767   1.539   6.593
    1HEX    O0I14381   6.759   1.618   6.499
    1HEX    C0J14382   6.756   1.391   6.574
    1HEX    C0K14383   6.790   1.314   6.701
    1HEX    C0N14384   7.005   1.619   6.909
    1HEX    O0O14385   7.136   1.572   6.938
    1HEX    C0P14386   0.045   1.643   7.007
    1HEX    C0Q14387   0.025   1.643   7.158
    1HEX    C0R14388   0.015   1.498   0.016
    1HEX    O0S14389   0.134   1.428   7.178
    1HEX    C0T14390   0.132   1.297   7.169
    1HEX    O0U14391   0.037   1.228   0.012
    1HEX    C0V14392   0.258   1.234   7.113
    1HEX    C0W14393   0.378   1.327   7.115
    1HEX    C0Y14394   0.137   1.720   0.037
    1HEX    O0Z14395   0.194   1.639   0.136
    1HEX    C1014396   0.166   1.669   0.256
    1HEX    O1114397   0.149   1.782   0.295
    1HEX    C1214398   0.156   1.551   0.346
    1HEX    C1314399   0.154   1.590   0.494
    1HEX    C1514400   7.085   1.713   7.185
    1HEX    O1614401   7.082   1.791   0.108
    1HEX    C1714402   7.017   1.749   0.209
    1HEX    O1814403   7.014   1.633   0.250
    1HEX    C1914404   6.946   1.866   0.270
    1HEX    C1A14405   6.886   1.965   0.171
    1HEX    H1D14406   0.277   1.539   6.391
    1HEX    H1E14407   0.330   1.684   6.475
    1HEX    H1F14408   0.241   1.611   6.681
    1HEX    H1G14409   0.273   1.453   6.610
    1HEX    H1H14410   7.016   1.537   6.625
    1HEX    H1I14411   7.050   1.687   6.571
    1HEX    H1J14412   7.122   1.854   6.721
    1HEX    H1K14413   7.117   1.831   6.883
    1HEX    H1M14414   6.774   2.087   6.992
    1HEX    H1N14415   6.782   2.078   6.817
    1HEX    H1O14416   6.862   2.294   6.830
    1HEX    H1P14417   7.014   2.221   6.863
    1HEX    H1R14418   6.811   1.765   6.680
    1HEX    H1S14419   6.792   1.731   6.845
    1HEX    H1T14420   6.826   1.361   6.497
    1HEX    H1U14421   6.655   1.367   6.540
    1HEX    H1V14422   6.761   1.210   6.684
    1HEX    H1W14423   6.735   1.353   6.787
    1HEX    H1Y14424   6.938   1.535   6.908
    1HEX    H1Z14425   6.958   1.679   6.984
    1HEX    H2014426   0.073   1.740   6.969
    1HEX    H2114427   0.132   1.583   6.986
    1HEX    H2214428   7.124   1.452   7.152
    1HEX    H2314429   7.180   1.491   0.121
    1HEX    H2414430   0.237   1.202   7.011
    1HEX    H2514431   0.279   1.146   7.172
    1HEX    H2614432   0.472   1.275   7.095
    1HEX    H2714433   0.386   1.371   0.024
    1HEX    H2914434   0.110   1.820   0.069
    1HEX    H2A14435   0.211   1.745   7.158
    1HEX    H2B14436   0.243   1.494   0.319
    1HEX    H2C14437   0.068   1.493   0.320
    1HEX    H2D14438   0.205   1.683   0.515
    1HEX    H2E14439   0.201   1.513   0.553
    1HEX    H2G14440   7.003   1.642   7.184
    1HEX    H2H14441   7.069   1.788   7.109
    1HEX    H2I14442   7.031   1.920   0.304
    1HEX    H2J14443   6.883   1.838   0.354
    1HEX    H2K14444   6.948   1.986   0.085
    1HEX    H2M14445   6.865   2.058   0.222
    1STR    S0014446   0.107   1.704   6.389
    1STR    S0E14447   6.913   2.304   7.062
    1STR    S0M14448   6.969   1.320   6.726
    1STR    S0X14449   0.353   1.454   6.989
    1STR    S1414450   7.172   1.595   0.548
    1STR    S1B14451   6.736   1.901   0.108
    1HEX    C0114452   0.134   1.418   1.061
    1HEX    C0214453   0.186   1.464   1.197
    1HEX    C0314454   0.086   1.469   1.313
    1HEX    O0414455   0.055   1.364   1.367
    1HEX    O0514456   0.053   1.593   1.362
    1HEX    C0614457   7.104   1.616   1.381
    1HEX    C0714458   7.032   1.684   1.502
    1HEX    C0814459   7.056   1.831   1.530
    1HEX    O0914460   6.944   1.906   1.578
    1HEX    C0A14461   6.911   1.915   1.707
    1HEX    O0B14462   6.858   1.827   1.771
    1HEX    C0C14463   6.902   2.056   1.760
    1HEX    C0D14464   7.034   2.134   1.775
    1HEX    C0F14465   6.883   1.681   1.463
    1HEX    O0G14466   6.836   1.556   1.420
    1HEX    C0H14467   6.816   1.533   1.289
    1HEX    O0I14468   6.841   1.614   1.199
    1HEX    C0J14469   6.768   1.393   1.260
    1HEX    C0K14470   6.788   1.297   1.378
    1HEX    C0N14471   7.049   1.609   1.633
    1HEX    O0O14472   7.181   1.581   1.676
    1HEX    C0P14473   0.074   1.683   1.729
    1HEX    C0Q14474   0.060   1.733   1.875
    1HEX    C0R14475   0.165   1.661   1.959
    1HEX    O0S14476   0.290   1.720   1.929
    1HEX    C0T14477   0.360   1.769   2.028
    1HEX    O0U14478   0.349   1.737   2.146
    1HEX    C0V14479   0.460   1.872   1.986
    1HEX    C0W14480   0.416   1.978   1.882
    1HEX    C0Y14481   0.082   1.883   1.886
    1HEX    O0Z14482   0.110   1.914   2.021
    1HEX    C1014483   0.136   2.036   2.064
    1HEX    O1114484   0.100   2.141   2.009
    1HEX    C1214485   0.220   2.029   2.190
    1HEX    C1314486   0.214   2.145   2.291
    1HEX    C1514487   7.114   1.718   1.939
    1HEX    O1614488   7.056   1.593   1.921
    1HEX    C1714489   7.048   1.515   2.022
    1HEX    O1814490   7.132   1.505   2.111
    1HEX    C1914491   6.915   1.444   2.023
    1HEX    C1A14492   6.834   1.448   1.897
    1HEX    H1D14493   0.198   1.339   1.022
    1HEX    H1E14494   0.032   1.382   1.066
    1HEX    H1F14495   0.244   1.554   1.193
    1HEX    H1G14496   0.258   1.388   1.220
    1HEX    H1H14497   7.058   1.519   1.372
    1HEX    H1I14498   7.072   1.664   1.290
    1HEX    H1J14499   7.089   1.877   1.440
    1HEX    H1K14500   7.135   1.852   1.598
    1HEX    H1M14501   6.853   2.048   1.855
    1HEX    H1N14502   6.830   2.109   1.699
    1HEX    H1O14503   7.080   2.111   1.870
    1HEX    H1P14504   7.010   2.240   1.780
    1HEX    H1R14505   6.860   1.757   1.389
    1HEX    H1S14506   6.825   1.705   1.549
    1HEX    H1T14507   6.819   1.356   1.171
    1HEX    H1U14508   6.662   1.399   1.237
    1HEX    H1V14509   6.746   1.199   1.355
    1HEX    H1W14510   6.735   1.335   1.464
    1HEX    H1Y14511   6.996   1.517   1.623
    1HEX    H1Z14512   6.995   1.657   1.712
    1HEX    H2014513   0.098   1.759   1.658
    1HEX    H2114514   0.170   1.632   1.725
    1HEX    H2214515   0.168   1.557   1.934
    1HEX    H2314516   0.140   1.666   2.065
    1HEX    H2414517   0.547   1.818   1.954
    1HEX    H2514518   0.489   1.923   2.077
    1HEX    H2614519   0.465   2.071   1.907
    1HEX    H2714520   0.314   2.007   1.887
    1HEX    H2914521   7.186   1.937   1.852
    1HEX    H2A14522   0.159   1.912   1.818
    1HEX    H2B14523   0.323   2.020   2.160
    1HEX    H2C14524   0.199   1.935   2.240
    1HEX    H2D14525   0.268   2.231   2.255
    1HEX    H2E14526   0.264   2.113   2.382
    1HEX    H2G14527   7.044   1.790   1.901
    1HEX    H2H14528   7.122   1.742   2.044
    1HEX    H2I14529   6.859   1.497   2.093
    1HEX    H2J14530   6.918   1.346   2.066
    1HEX    H2K14531   6.772   1.360   1.891
    1HEX    H2M14532   6.894   1.454   1.807
    1STR    S0014533   0.147   1.555   0.945
    1STR    S0E14534   7.158   2.114   1.643
    1STR    S0M14535   6.963   1.282   1.415
    1STR    S0X14536   0.469   1.938   1.714
    1STR    S1414537   0.045   2.194   2.331
    1STR    S1B14538   6.729   1.592   1.908
    1HEX    C0114539   0.338   1.712   2.956
    1HEX    C0214540   0.280   1.806   3.062
    1HEX    C0314541   0.150   1.753   3.118
    1HEX    O0414542   0.127   1.634   3.111
    1HEX    O0514543   0.065   1.846   3.158
    1HEX    C0614544   7.118   1.815   3.167
    1HEX    C0714545   7.047   1.826   3.301
    1HEX    C0814546   7.051   1.967   3.359
    1HEX    O0914547   6.993   2.068   3.280
    1HEX    C0A14548   6.865   2.100   3.294
    1HEX    O0B14549   6.784   2.036   3.358
    1HEX    C0C14550   6.821   2.225   3.221
    1HEX    C0D14551   6.929   2.289   3.134
    1HEX    C0F14552   6.901   1.788   3.279
    1HEX    O0G14553   6.891   1.653   3.244
    1HEX    C0H14554   6.771   1.603   3.232
    1HEX    O0I14555   6.669   1.662   3.197
    1HEX    C0J14556   6.769   1.462   3.281
    1HEX    C0K14557   6.792   1.473   3.431
    1HEX    C0N14558   7.107   1.724   3.396
    1HEX    O0O14559   0.046   1.756   3.441
    1HEX    C0P14560   0.066   1.824   3.563
    1HEX    C0Q14561   0.015   1.766   3.694
    1HEX    C0R14562   0.032   1.614   3.701
    1HEX    O0S14563   0.167   1.573   3.699
    1HEX    C0T14564   0.195   1.444   3.678
    1HEX    O0U14565   0.112   1.357   3.654
    1HEX    C0V14566   0.342   1.412   3.673
    1HEX    C0W14567   0.431   1.536   3.677
    1HEX    C0Y14568   0.103   1.828   3.804
    1HEX    O0Z14569   0.019   1.831   3.914
    1HEX    C1014570   0.004   1.939   3.979
    1HEX    O1114571   0.088   2.023   4.004
    1HEX    C1214572   7.058   1.948   4.039
    1HEX    C1314573   7.074   1.895   4.177
    1HEX    C1514574   7.057   1.811   3.713
    1HEX    O1614575   6.985   1.740   3.813
    1HEX    C1714576   6.925   1.628   3.779
    1HEX    O1814577   6.937   1.576   3.671
    1HEX    C1914578   6.823   1.575   3.876
    1HEX    C1A14579   6.687   1.558   3.813
    1HEX    H1D14580   0.438   1.745   2.929
    1HEX    H1E14581   0.351   1.614   3.001
    1HEX    H1F14582   0.267   1.903   3.019
    1HEX    H1G14583   0.350   1.815   3.145
    1HEX    H1H14584   7.098   1.715   3.129
    1HEX    H1I14585   7.071   1.882   3.099
    1HEX    H1J14586   7.154   1.995   3.373
    1HEX    H1K14587   7.008   1.966   3.459
    1HEX    H1M14588   6.777   2.295   3.291
    1HEX    H1N14589   6.740   2.191   3.157
    1HEX    H1O14590   6.881   2.333   3.048
    1HEX    H1P14591   6.999   2.214   3.096
    1HEX    H1R14592   6.854   1.847   3.202
    1HEX    H1S14593   6.844   1.802   3.370
    1HEX    H1T14594   6.850   1.410   3.231
    1HEX    H1U14595   6.677   1.413   3.255
    1HEX    H1V14596   6.705   1.515   3.479
    1HEX    H1W14597   6.876   1.539   3.450
    1HEX    H1Y14598   7.118   1.634   3.338
    1HEX    H1Z14599   7.040   1.688   3.472
    1HEX    H2014600   0.042   1.930   3.557
    1HEX    H2114601   0.172   1.820   3.574
    1HEX    H2214602   7.166   1.569   3.621
    1HEX    H2314603   7.178   1.574   3.791
    1HEX    H2414604   0.359   1.355   3.582
    1HEX    H2514605   0.362   1.345   3.756
    1HEX    H2614606   0.536   1.510   3.685
    1HEX    H2714607   0.405   1.598   3.763
    1HEX    H2914608   0.137   1.927   3.777
    1HEX    H2A14609   0.192   1.770   3.827
    1HEX    H2B14610   6.985   1.893   3.980
    1HEX    H2C14611   7.033   2.054   4.039
    1HEX    H2D14612   7.031   1.968   4.244
    1HEX    H2E14613   7.178   1.899   4.205
    1HEX    H2G14614   6.999   1.808   3.622
    1HEX    H2H14615   7.055   1.916   3.740
    1HEX    H2I14616   6.815   1.642   3.961
    1HEX    H2J14617   6.859   1.477   3.906
    1HEX    H2K14618   6.626   1.500   3.881
    1HEX    H2M14619   6.694   1.506   3.717
    1STR    S0014620   0.240   1.696   2.802
    1STR    S0E14621   7.018   2.422   3.215
    1STR    S0M14622   6.833   1.318   3.509
    1STR    S0X14623   0.407   1.629   3.525
    1STR    S1414624   6.998   1.733   4.209
    1STR    S1B14625   6.615   1.721   3.792
    1HEX    C0114626   0.308   1.682   4.872
    1HEX    C0214627   0.250   1.554   4.937
    1HEX    C0314628   0.100   1.527   4.937
    1HEX    O0414629   0.055   1.414   4.954
    1HEX    O0514630   0.029   1.638   4.925
    1HEX    C0614631   7.087   1.643   4.879
    1HEX    C0714632   7.010   1.747   4.960
    1HEX    C0814633   7.076   1.886   4.957
    1HEX    O0914634   7.025   1.976   5.056
    1HEX    C0A14635   6.926   2.059   5.022
    1HEX    O0B14636   6.852   2.045   4.925
    1HEX    C0C14637   6.916   2.186   5.105
    1HEX    C0D14638   6.905   2.184   5.260
    1HEX    C0F14639   6.870   1.762   4.898
    1HEX    O0G14640   6.830   1.641   4.838
    1HEX    C0H14641   6.716   1.587   4.868
    1HEX    O0I14642   6.623   1.639   4.929
    1HEX    C0J14643   6.715   1.443   4.823
    1HEX    C0K14644   6.677   1.354   4.939
    1HEX    C0N14645   7.001   1.692   5.101
    1HEX    O0O14646   7.117   1.633   5.156
    1HEX    C0P14647   0.036   1.716   5.193
    1HEX    C0Q14648   0.059   1.695   5.340
    1HEX    C0R14649   0.055   1.544   5.370
    1HEX    O0S14650   0.168   1.491   5.303
    1HEX    C0T14651   0.254   1.419   5.372
    1HEX    O0U14652   0.232   1.359   5.477
    1HEX    C0V14653   0.388   1.419   5.306
    1HEX    C0W14654   0.463   1.542   5.354
    1HEX    C0Y14655   0.193   1.753   5.384
    1HEX    O0Z14656   0.224   1.701   5.512
    1HEX    C1014657   0.191   1.767   5.621
    1HEX    O1114658   0.158   1.885   5.623
    1HEX    C1214659   0.174   1.671   5.738
    1HEX    C1314660   0.259   1.697   5.862
    1HEX    C1514661   7.142   1.772   5.410
    1HEX    O1614662   7.125   1.717   5.535
    1HEX    C1714663   7.006   1.698   5.567
    1HEX    O1814664   6.925   1.637   5.499
    1HEX    C1914665   6.972   1.786   5.682
    1HEX    C1A14666   6.879   1.896   5.633
    1HEX    H1D14667   0.389   1.649   4.808
    1HEX    H1E14668   0.354   1.745   4.947
    1HEX    H1F14669   0.285   1.550   5.040
    1HEX    H1G14670   0.297   1.469   4.888
    1HEX    H1H14671   7.043   1.545   4.886
    1HEX    H1I14672   7.082   1.671   4.775
    1HEX    H1J14673   7.070   1.931   4.857
    1HEX    H1K14674   7.182   1.877   4.971
    1HEX    H1M14675   6.834   2.243   5.065
    1HEX    H1N14676   6.998   2.244   5.070
    1HEX    H1O14677   6.802   2.170   5.290
    1HEX    H1P14678   6.931   2.283   5.296
    1HEX    H1R14679   6.871   1.834   4.817
    1HEX    H1S14680   6.799   1.799   4.972
    1HEX    H1T14681   6.813   1.418   4.784
    1HEX    H1U14682   6.649   1.422   4.742
    1HEX    H1V14683   6.695   1.251   4.911
    1HEX    H1W14684   6.571   1.365   4.962
    1HEX    H1Y14685   6.934   1.609   5.096
    1HEX    H1Z14686   6.959   1.764   5.168
    1HEX    H2014687   0.019   1.821   5.172
    1HEX    H2114688   0.125   1.687   5.139
    1HEX    H2214689   7.153   1.497   5.337
    1HEX    H2314690   0.060   1.526   5.477
    1HEX    H2414691   0.377   1.419   5.198
    1HEX    H2514692   0.442   1.331   5.335
    1HEX    H2614693   0.401   1.597   5.423
    1HEX    H2714694   0.546   1.509   5.414
    1HEX    H2914695   0.194   1.862   5.383
    1HEX    H2A14696   0.269   1.723   5.314
    1HEX    H2B14697   0.193   1.570   5.703
    1HEX    H2C14698   0.069   1.674   5.765
    1HEX    H2D14699   0.362   1.668   5.845
    1HEX    H2E14700   0.220   1.635   5.943
    1HEX    H2G14701   7.051   1.776   5.352
    1HEX    H2H14702   7.174   1.874   5.427
    1HEX    H2I14703   7.067   1.828   5.713
    1HEX    H2J14704   6.937   1.732   5.768
    1HEX    H2K14705   6.861   1.888   5.526
    1HEX    H2M14706   6.921   1.995   5.645
    1STR    S0014707   0.192   1.780   4.773
    1STR    S0E14708   7.007   2.071   5.357
    1STR    S0M14709   6.770   1.400   5.084
    1STR    S0X14710   0.521   1.646   5.217
    1STR    S1414711   0.256   1.868   5.917
    1STR    S1B14712   6.724   1.882   5.720
    1HEX    C0114713   0.334   3.697   6.570
    1HEX    C0214714   0.273   3.739   6.705
    1HEX    C0314715   0.184   3.637   6.775
    1HEX    O0414716   0.232   3.546   6.841
    1HEX    O0514717   0.054   3.655   6.755
    1HEX    C0614718   7.161   3.540   6.750
    1HEX    C0714719   7.025   3.544   6.818
    1HEX    C0814720   6.993   3.678   6.879
    1HEX    O0914721   7.010   3.779   6.784
    1HEX    C0A14722   6.997   3.901   6.826
    1HEX    O0B14723   6.916   3.940   6.909
    1HEX    C0C14724   7.099   3.992   6.764
    1HEX    C0D14725   0.048   3.977   6.828
    1HEX    C0F14726   6.915   3.523   6.711
    1HEX    O0G14727   6.887   3.387   6.686
    1HEX    C0H14728   6.779   3.357   6.615
    1HEX    O0I14729   6.723   3.433   6.537
    1HEX    C0J14730   6.724   3.219   6.642
    1HEX    C0K14731   6.768   3.160   6.776
    1HEX    C0N14732   7.020   3.440   6.930
    1HEX    O0O14733   7.139   3.380   6.983
    1HEX    C0P14734   0.043   3.454   7.058
    1HEX    C0Q14735   0.036   3.453   0.024
    1HEX    C0R14736   0.122   3.345   0.088
    1HEX    O0S14737   0.252   3.390   0.116
    1HEX    C0T14738   0.331   3.318   0.195
    1HEX    O0U14739   0.318   3.200   0.222
    1HEX    C0V14740   0.451   3.395   0.243
    1HEX    C0W14741   0.424   3.545   0.249
    1HEX    C0Y14742   0.094   3.589   0.066
    1HEX    O0Z14743   0.113   3.624   0.202
    1HEX    C1014744   0.158   3.751   0.222
    1HEX    O1114745   0.176   3.836   0.136
    1HEX    C1214746   0.198   3.781   0.365
    1HEX    C1314747   0.111   3.888   0.432
    1HEX    C1514748   7.082   3.440   0.071
    1HEX    O1614749   7.033   3.312   0.105
    1HEX    C1714750   6.928   3.264   0.041
    1HEX    O1814751   6.901   3.286   7.115
    1HEX    C1914752   6.844   3.166   0.120
    1HEX    C1A14753   6.713   3.133   0.053
    1HEX    H1D14754   0.283   3.754   6.494
    1HEX    H1E14755   0.437   3.729   6.564
    1HEX    H1F14756   0.220   3.831   6.686
    1HEX    H1G14757   0.352   3.764   6.776
    1HEX    H1H14758   0.025   3.448   6.773
    1HEX    H1I14759   7.138   3.536   6.646
    1HEX    H1J14760   7.061   3.690   6.961
    1HEX    H1K14761   6.893   3.682   6.923
    1HEX    H1M14762   7.065   4.095   6.764
    1HEX    H1N14763   7.108   3.962   6.660
    1HEX    H1O14764   0.120   4.038   6.776
    1HEX    H1P14765   0.075   3.874   6.816
    1HEX    H1R14766   6.937   3.576   6.619
    1HEX    H1S14767   6.824   3.570   6.745
    1HEX    H1T14768   6.749   3.153   6.560
    1HEX    H1U14769   6.616   3.228   6.642
    1HEX    H1V14770   6.700   3.084   6.813
    1HEX    H1W14771   6.776   3.238   6.850
    1HEX    H1Y14772   6.969   3.352   6.894
    1HEX    H1Z14773   6.953   3.478   7.006
    1HEX    H2014774   0.039   3.553   7.018
    1HEX    H2114775   0.141   3.419   7.029
    1HEX    H2214776   0.125   3.263   0.021
    1HEX    H2314777   0.077   3.308   0.180
    1HEX    H2414778   0.534   3.370   0.177
    1HEX    H2514779   0.478   3.356   0.341
    1HEX    H2614780   0.387   3.573   0.345
    1HEX    H2714781   0.348   3.580   0.181
    1HEX    H2914782   0.021   3.658   0.035
    1HEX    H2A14783   0.185   3.610   0.010
    1HEX    H2B14784   0.299   3.820   0.359
    1HEX    H2C14785   0.202   3.689   0.422
    1HEX    H2D14786   0.125   3.985   0.384
    1HEX    H2E14787   0.142   3.898   0.536
    1HEX    H2G14788   7.015   3.493   0.007
    1HEX    H2H14789   7.080   3.490   0.164
    1HEX    H2I14790   6.817   3.219   0.209
    1HEX    H2J14791   6.902   3.079   0.148
    1HEX    H2K14792   6.666   3.047   0.097
    1HEX    H2M14793   6.729   3.108   7.139
    1STR    S0014794   0.327   3.521   6.525
    1STR    S0E14795   0.061   4.005   7.007
    1STR    S0M14796   6.932   3.092   6.760
    1STR    S0X14797   0.571   3.637   0.207
    1STR    S1414798   7.126   3.845   0.430
    1STR    S1B14799   6.612   3.281   0.078
    1HEX    C0114800   0.378   3.541   1.229
    1HEX    C0214801   0.335   3.620   1.351
    1HEX    C0314802   0.195   3.588   1.394
    1HEX    O0414803   0.158   3.472   1.412
    1HEX    O0514804   0.122   3.699   1.402
    1HEX    C0614805   7.178   3.701   1.360
    1HEX    C0714806   7.072   3.693   1.469
    1HEX    C0814807   7.052   3.822   1.549
    1HEX    O0914808   6.973   3.915   1.477
    1HEX    C0A14809   6.851   3.950   1.523
    1HEX    O0B14810   6.800   3.917   1.630
    1HEX    C0C14811   6.785   4.051   1.432
    1HEX    C0D14812   6.870   4.178   1.415
    1HEX    C0F14813   6.941   3.669   1.395
    1HEX    O0G14814   6.837   3.632   1.483
    1HEX    C0H14815   6.776   3.516   1.464
    1HEX    O0I14816   6.655   3.500   1.482
    1HEX    C0J14817   6.864   3.401   1.417
    1HEX    C0K14818   6.847   3.272   1.489
    1HEX    C0N14819   7.103   3.573   1.559
    1HEX    O0O14820   0.030   3.583   1.638
    1HEX    C0P14821   0.018   3.633   1.769
    1HEX    C0Q14822   7.163   3.530   1.874
    1HEX    C0R14823   0.055   3.402   1.871
    1HEX    O0S14824   0.192   3.415   1.843
    1HEX    C0T14825   0.282   3.349   1.916
    1HEX    O0U14826   0.264   3.311   2.030
    1HEX    C0V14827   0.402   3.297   1.839
    1HEX    C0W14828   0.492   3.404   1.783
    1HEX    C0Y14829   7.175   3.601   2.006
    1HEX    O0Z14830   7.132   3.518   2.110
    1HEX    C1014831   7.054   3.560   2.208
    1HEX    O1114832   7.015   3.675   2.226
    1HEX    C1214833   7.011   3.445   2.297
    1HEX    C1314834   7.058   3.307   2.244
    1HEX    C1514835   7.018   3.494   1.851
    1HEX    O1614836   6.942   3.443   1.957
    1HEX    C1714837   6.840   3.511   2.014
    1HEX    O1814838   6.774   3.462   2.104
    1HEX    C1914839   6.817   3.658   1.975
    1HEX    C1A14840   6.762   3.692   1.835
    1HEX    H1D14841   0.484   3.556   1.219
    1HEX    H1E14842   0.361   3.435   1.245
    1HEX    H1F14843   0.349   3.726   1.339
    1HEX    H1G14844   0.400   3.590   1.430
    1HEX    H1H14845   7.166   3.615   1.296
    1HEX    H1I14846   7.162   3.788   1.297
    1HEX    H1J14847   7.146   3.867   1.574
    1HEX    H1K14848   7.003   3.798   1.643
    1HEX    H1M14849   6.688   4.076   1.476
    1HEX    H1N14850   6.766   4.003   1.337
    1HEX    H1O14851   6.813   4.255   1.363
    1HEX    H1P14852   6.959   4.156   1.355
    1HEX    H1R14853   6.959   3.599   1.316
    1HEX    H1S14854   6.906   3.753   1.336
    1HEX    H1T14855   6.968   3.415   1.395
    1HEX    H1U14856   6.815   3.384   1.323
    1HEX    H1V14857   6.846   3.197   1.412
    1HEX    H1W14858   6.749   3.277   1.532
    1HEX    H1Y14859   7.126   3.487   1.497
    1HEX    H1Z14860   7.014   3.544   1.611
    1HEX    H2014861   7.147   3.723   1.773
    1HEX    H2114862   0.115   3.669   1.799
    1HEX    H2214863   0.018   3.338   1.790
    1HEX    H2314864   0.035   3.350   1.964
    1HEX    H2414865   0.370   3.233   1.758
    1HEX    H2514866   0.461   3.235   1.906
    1HEX    H2614867   0.578   3.356   1.738
    1HEX    H2714868   0.528   3.471   1.859
    1HEX    H2914869   7.114   3.690   2.004
    1HEX    H2A14870   0.088   3.629   2.020
    1HEX    H2B14871   6.903   3.449   2.299
    1HEX    H2C14872   7.043   3.467   2.398
    1HEX    H2D14873   7.031   3.300   2.139
    1HEX    H2E14874   7.005   3.227   2.294
    1HEX    H2G14875   7.013   3.419   1.775
    1HEX    H2H14876   6.975   3.580   1.806
    1HEX    H2I14877   6.907   3.712   1.995
    1HEX    H2J14878   6.746   3.694   2.049
    1HEX    H2K14879   6.829   3.691   1.750
    1HEX    H2M14880   6.725   3.793   1.838
    1STR    S0014881   0.295   3.602   1.081
    1STR    S0E14882   6.919   4.242   1.576
    1STR    S0M14883   6.962   3.223   1.621
    1STR    S0X14884   0.401   3.492   1.656
    1STR    S1414885   0.048   3.273   2.257
    1STR    S1B14886   6.625   3.589   1.793
    1HEX    C0114887   0.201   3.162   3.027
    1HEX    C0214888   0.132   3.200   3.158
    1HEX    C0314889   7.181   3.248   3.138
    1HEX    O0414890   7.097   3.183   3.076
    1HEX    O0514891   7.171   3.374   3.179
    1HEX    C0614892   7.059   3.452   3.151
    1HEX    C0714893   6.983   3.478   3.281
    1HEX    C0814894   6.981   3.623   3.319
    1HEX    O0914895   6.880   3.710   3.274
    1HEX    C0A14896   6.798   3.756   3.371
    1HEX    O0B14897   6.751   3.691   3.463
    1HEX    C0C14898   6.790   3.906   3.373
    1HEX    C0D14899   6.864   3.957   3.497
    1HEX    C0F14900   6.842   3.434   3.263
    1HEX    O0G14901   6.833   3.294   3.258
    1HEX    C0H14902   6.811   3.232   3.145
    1HEX    O0I14903   6.803   3.284   3.035
    1HEX    C0J14904   6.789   3.084   3.161
    1HEX    C0K14905   6.777   3.038   3.307
    1HEX    C0N14906   7.043   3.405   3.401
    1HEX    O0O14907   7.181   3.431   3.430
    1HEX    C0P14908   0.039   3.555   3.480
    1HEX    C0Q14909   0.074   3.564   3.629
    1HEX    C0R14910   0.154   3.439   3.672
    1HEX    O0S14911   0.245   3.410   3.569
    1HEX    C0T14912   0.358   3.472   3.570
    1HEX    O0U14913   0.420   3.506   3.669
    1HEX    C0V14914   0.400   3.511   3.432
    1HEX    C0W14915   0.549   3.493   3.413
    1HEX    C0Y14916   0.157   3.694   3.642
    1HEX    O0Z14917   0.231   3.681   3.759
    1HEX    C1014918   0.244   3.776   3.846
    1HEX    O1114919   0.208   3.893   3.832
    1HEX    C1214920   0.308   3.719   3.971
    1HEX    C1314921   0.271   3.784   4.105
    1HEX    C1514922   7.141   3.588   3.717
    1HEX    O1614923   7.091   3.485   3.800
    1HEX    C1714924   7.024   3.387   3.747
    1HEX    O1814925   7.063   3.317   3.658
    1HEX    C1914926   6.881   3.381   3.788
    1HEX    C1A14927   6.813   3.502   3.723
    1HEX    H1D14928   0.293   3.109   3.051
    1HEX    H1E14929   0.137   3.091   2.974
    1HEX    H1F14930   0.189   3.277   3.211
    1HEX    H1G14931   0.129   3.113   3.223
    1HEX    H1H14932   6.998   3.406   3.074
    1HEX    H1I14933   7.092   3.544   3.105
    1HEX    H1J14934   7.076   3.658   3.283
    1HEX    H1K14935   6.982   3.629   3.427
    1HEX    H1M14936   6.685   3.934   3.378
    1HEX    H1N14937   6.828   3.948   3.280
    1HEX    H1O14938   6.802   3.937   3.584
    1HEX    H1P14939   6.875   4.064   3.489
    1HEX    H1R14940   6.801   3.481   3.175
    1HEX    H1S14941   6.785   3.467   3.349
    1HEX    H1T14942   6.876   3.041   3.112
    1HEX    H1U14943   6.702   3.053   3.104
    1HEX    H1V14944   6.675   3.027   3.341
    1HEX    H1W14945   6.823   3.111   3.373
    1HEX    H1Y14946   7.037   3.297   3.388
    1HEX    H1Z14947   6.978   3.425   3.484
    1HEX    H2014948   7.180   3.646   3.454
    1HEX    H2114949   0.132   3.563   3.424
    1HEX    H2214950   0.094   3.351   3.682
    1HEX    H2314951   0.201   3.450   3.770
    1HEX    H2414952   0.375   3.616   3.422
    1HEX    H2514953   0.341   3.455   3.360
    1HEX    H2614954   0.591   3.567   3.348
    1HEX    H2714955   0.595   3.511   3.508
    1HEX    H2914956   0.094   3.783   3.643
    1HEX    H2A14957   0.228   3.709   3.561
    1HEX    H2B14958   0.415   3.717   3.959
    1HEX    H2C14959   0.276   3.614   3.975
    1HEX    H2D14960   0.334   3.871   4.121
    1HEX    H2E14961   0.291   3.712   4.185
    1HEX    H2G14962   7.059   3.630   3.659
    1HEX    H2H14963   7.166   3.664   3.789
    1HEX    H2I14964   6.876   3.374   3.895
    1HEX    H2J14965   6.841   3.287   3.749
    1HEX    H2K14966   6.853   3.517   3.624
    1HEX    H2M14967   6.835   3.594   3.773
    1STR    S0014968   0.243   3.298   2.914
    1STR    S0E14969   7.027   3.880   3.533
    1STR    S0M14970   6.863   2.883   3.324
    1STR    S0X14971   0.596   3.329   3.354
    1STR    S1414972   0.100   3.838   4.119
    1STR    S1B14973   6.637   3.483   3.704
    1HEX    C0114974   0.212   3.590   4.657
    1HEX    C0214975   0.238   3.455   4.724
    1HEX    C0314976   0.112   3.399   4.787
    1HEX    O0414977   0.048   3.312   4.728
    1HEX    O0514978   0.073   3.463   4.898
    1HEX    C0614979   7.125   3.455   4.929
    1HEX    C0714980   7.077   3.504   5.062
    1HEX    C0814981   7.096   3.655   5.077
    1HEX    O0914982   7.030   3.737   4.984
    1HEX    C0A14983   6.956   3.836   5.030
    1HEX    O0B14984   6.888   3.833   5.131
    1HEX    C0C14985   6.968   3.963   4.952
    1HEX    C0D14986   7.111   3.991   4.904
    1HEX    C0F14987   6.929   3.470   5.071
    1HEX    O0G14988   6.911   3.330   5.063
    1HEX    C0H14989   6.790   3.280   5.046
    1HEX    O0I14990   6.686   3.342   5.028
    1HEX    C0J14991   6.786   3.130   5.055
    1HEX    C0K14992   6.858   3.082   5.180
    1HEX    C0N14993   7.149   3.429   5.172
    1HEX    O0O14994   0.081   3.487   5.214
    1HEX    C0P14995   0.083   3.590   5.311
    1HEX    C0Q14996   0.045   3.549   5.454
    1HEX    C0R14997   0.090   3.405   5.479
    1HEX    O0S14998   0.227   3.383   5.502
    1HEX    C0T14999   0.260   3.256   5.524
    1HEX    O0U15000   0.183   3.161   5.509
    1HEX    C0V15001   0.403   3.235   5.569
    1HEX    C0W15002   0.453   3.348   5.657
    1HEX    C0Y15003   0.124   3.652   5.541
    1HEX    O0Z15004   0.140   3.626   5.679
    1HEX    C1015005   0.074   3.699   5.767
    1HEX    O1115006   0.124   3.764   5.858
    1HEX    C1215007   7.116   3.677   5.759
    1HEX    C1315008   7.045   3.654   5.890
    1HEX    C1515009   7.079   3.559   5.462
    1HEX    O1615010   7.020   3.453   5.537
    1HEX    C1715011   6.916   3.383   5.486
    1HEX    O1815012   6.854   3.410   5.384
    1HEX    C1915013   6.883   3.256   5.564
    1HEX    C1A15014   6.734   3.230   5.587
    1HEX    H1D15015   0.194   3.669   4.731
    1HEX    H1E15016   0.299   3.619   4.598
    1HEX    H1F15017   0.319   3.464   4.795
    1HEX    H1G15018   0.270   3.383   4.650
    1HEX    H1H15019   7.086   3.356   4.907
    1HEX    H1I15020   7.074   3.522   4.865
    1HEX    H1J15021   0.011   3.679   5.069
    1HEX    H1K15022   7.060   3.680   5.175
    1HEX    H1M15023   6.929   4.045   5.012
    1HEX    H1N15024   6.897   3.951   4.872
    1HEX    H1O15025   7.107   4.046   4.811
    1HEX    H1P15026   7.167   3.900   4.884
    1HEX    H1R15027   6.872   3.521   4.993
    1HEX    H1S15028   6.892   3.504   5.166
    1HEX    H1T15029   6.828   3.090   4.963
    1HEX    H1U15030   6.681   3.103   5.059
    1HEX    H1V15031   6.809   2.997   5.226
    1HEX    H1W15032   6.859   3.163   5.253
    1HEX    H1Y15033   7.178   3.336   5.127
    1HEX    H1Z15034   7.083   3.400   5.253
    1HEX    H2015035   0.036   3.684   5.285
    1HEX    H2115036   0.185   3.622   5.308
    1HEX    H2215037   0.054   3.341   5.399
    1HEX    H2315038   0.041   3.366   5.565
    1HEX    H2415039   0.468   3.216   5.484
    1HEX    H2515040   0.403   3.144   5.628
    1HEX    H2615041   0.483   3.308   5.754
    1HEX    H2715042   0.374   3.421   5.675
    1HEX    H2915043   0.086   3.752   5.523
    1HEX    H2A15044   0.228   3.656   5.508
    1HEX    H2B15045   7.112   3.588   5.702
    1HEX    H2C15046   7.063   3.744   5.697
    1HEX    H2D15047   7.004   3.748   5.927
    1HEX    H2E15048   7.113   3.615   5.965
    1HEX    H2G15049   7.034   3.565   5.363
    1HEX    H2H15050   7.049   3.654   5.503
    1HEX    H2I15051   6.931   3.257   5.659
    1HEX    H2J15052   6.924   3.173   5.511
    1HEX    H2K15053   6.720   3.131   5.626
    1HEX    H2M15054   6.680   3.238   5.493
    1STR    S0015055   0.071   3.576   4.547
    1STR    S0E15056   0.011   4.096   5.018
    1STR    S0M15057   7.025   3.033   5.133
    1STR    S0X15058   0.597   3.436   5.596
    1STR    S1415059   6.916   3.532   5.858
    1STR    S1B15060   6.669   3.346   5.708
    1HEX    C0115061   0.284   5.195   6.642
    1HEX    C0215062   0.190   5.081   6.677
    1HEX    C0315063   0.048   5.127   6.664
    1HEX    O0415064   7.176   5.111   6.559
    1HEX    O0515065   0.006   5.195   6.769
    1HEX    C0615066   7.064   5.241   6.760
    1HEX    C0715067   6.995   5.307   6.878
    1HEX    C0815068   7.041   5.450   6.878
    1HEX    O0915069   6.942   5.539   6.910
    1HEX    C0A15070   6.967   5.624   7.005
    1HEX    O0B15071   7.070   5.631   7.072
    1HEX    C0C15072   6.855   5.721   7.015
    1HEX    C0D15073   6.919   5.856   6.997
    1HEX    C0F15074   6.843   5.301   6.855
    1HEX    O0G15075   6.816   5.166   6.837
    1HEX    C0H15076   6.731   5.128   6.748
    1HEX    O0I15077   6.619   5.175   6.735
    1HEX    C0J15078   6.783   5.008   6.672
    1HEX    C0K15079   6.846   4.908   6.767
    1HEX    C0N15080   7.028   5.240   7.011
    1HEX    O0O15081   7.165   5.213   7.028
    1HEX    C0P15082   0.056   5.292   7.112
    1HEX    C0Q15083   0.058   5.251   0.068
    1HEX    C0R15084   0.034   5.102   0.086
    1HEX    O0S15085   0.114   5.031   7.183
    1HEX    C0T15086   0.200   4.937   0.029
    1HEX    O0U15087   0.206   4.881   0.138
    1HEX    C0V15088   0.296   4.901   7.107
    1HEX    C0W15089   0.406   5.002   7.087
    1HEX    C0Y15090   0.189   5.286   0.138
    1HEX    O0Z15091   0.281   5.179   0.143
    1HEX    C1015092   0.371   5.181   0.239
    1HEX    O1115093   0.446   5.275   0.262
    1HEX    C1215094   0.365   5.057   0.326
    1HEX    C1315095   0.413   5.075   0.471
    1HEX    C1515096   7.142   5.340   0.132
    1HEX    O1615097   7.082   5.278   0.243
    1HEX    C1715098   6.957   5.243   0.227
    1HEX    O1815099   6.915   5.161   0.147
    1HEX    C1915100   6.869   5.328   0.312
    1HEX    C1A15101   6.856   5.470   0.254
    1HEX    H1D15102   0.386   5.159   6.634
    1HEX    H1E15103   0.284   5.267   6.722
    1HEX    H1F15104   0.204   5.045   6.779
    1HEX    H1G15105   0.203   4.996   6.610
    1HEX    H1H15106   7.002   5.167   6.712
    1HEX    H1I15107   7.073   5.313   6.684
    1HEX    H1J15108   7.084   5.487   6.787
    1HEX    H1K15109   7.119   5.451   6.949
    1HEX    H1M15110   6.808   5.708   7.111
    1HEX    H1N15111   6.780   5.700   6.939
    1HEX    H1O15112   7.007   5.870   7.061
    1HEX    H1P15113   6.849   5.931   7.021
    1HEX    H1R15114   6.809   5.366   6.775
    1HEX    H1S15115   6.784   5.336   6.937
    1HEX    H1T15116   6.855   5.038   6.597
    1HEX    H1U15117   6.699   4.961   6.622
    1HEX    H1V15118   6.834   4.808   6.727
    1HEX    H1W15119   6.787   4.915   6.857
    1HEX    H1Y15120   6.976   5.146   7.012
    1HEX    H1Z15121   6.984   5.289   7.095
    1HEX    H2015122   0.037   5.398   7.104
    1HEX    H2115123   0.153   5.277   7.072
    1HEX    H2215124   7.120   5.085   0.065
    1HEX    H2315125   0.052   5.072   0.189
    1HEX    H2415126   0.242   4.890   7.015
    1HEX    H2515127   0.342   4.806   7.134
    1HEX    H2615128   0.438   5.036   7.186
    1HEX    H2715129   0.494   4.959   7.040
    1HEX    H2915130   0.163   5.304   0.241
    1HEX    H2A15131   0.233   5.377   0.102
    1HEX    H2B15132   0.419   4.977   0.276
    1HEX    H2C15133   0.260   5.028   0.329
    1HEX    H2D15134   0.522   5.071   0.474
    1HEX    H2E15135   0.376   4.993   0.532
    1HEX    H2G15136   7.066   5.372   0.063
    1HEX    H2H15137   7.184   5.435   0.163
    1HEX    H2I15138   6.918   5.324   0.407
    1HEX    H2J15139   6.774   5.281   0.328
    1HEX    H2K15140   6.945   5.503   0.200
    1HEX    H2M15141   6.837   5.543   0.331
    1STR    S0015142   0.232   5.272   6.488
    1STR    S0E15143   6.962   5.869   6.825
    1STR    S0M15144   7.026   4.929   6.793
    1STR    S0X15145   0.347   5.141   6.987
    1STR    S1415146   0.365   5.229   0.551
    1STR    S1B15147   6.715   5.487   0.148
    1HEX    C0115148   0.284   5.168   1.267
    1HEX    C0215149   0.218   5.106   1.390
    1HEX    C0315150   0.074   5.075   1.366
    1HEX    O0415151   0.031   4.959   1.364
    1HEX    O0515152   0.002   5.185   1.360
    1HEX    C0615153   7.058   5.182   1.322
    1HEX    C0715154   6.975   5.231   1.439
    1HEX    C0815155   6.983   5.379   1.463
    1HEX    O0915156   6.916   5.482   1.396
    1HEX    C0A15157   6.901   5.590   1.477
    1HEX    O0B15158   6.851   5.590   1.589
    1HEX    C0C15159   6.983   5.709   1.438
    1HEX    C0D15160   7.128   5.684   1.479
    1HEX    C0F15161   6.832   5.191   1.415
    1HEX    O0G15162   6.819   5.053   1.389
    1HEX    C0H15163   6.796   5.007   1.265
    1HEX    O0I15164   6.783   5.076   1.164
    1HEX    C0J15165   6.781   4.856   1.258
    1HEX    C0K15166   6.788   4.789   1.395
    1HEX    C0N15167   7.027   5.170   1.571
    1HEX    O0O15168   7.145   5.231   1.630
    1HEX    C0P15169   7.152   5.356   1.703
    1HEX    C0Q15170   7.107   5.361   1.851
    1HEX    C0R15171   7.182   5.254   1.925
    1HEX    O0S15172   0.127   5.259   1.881
    1HEX    C0T15173   0.213   5.329   1.951
    1HEX    O0U15174   0.222   5.320   2.073
    1HEX    C0V15175   0.285   5.432   1.862
    1HEX    C0W15176   0.401   5.519   1.917
    1HEX    C0Y15177   7.141   5.500   1.909
    1HEX    O0Z15178   0.035   5.513   2.024
    1HEX    C1015179   0.077   5.634   2.067
    1HEX    O1115180   0.019   5.739   2.049
    1HEX    C1215181   0.202   5.639   2.151
    1HEX    C1315182   0.190   5.738   2.267
    1HEX    C1515183   6.954   5.345   1.848
    1HEX    O1615184   6.892   5.282   1.956
    1HEX    C1715185   6.806   5.183   1.933
    1HEX    O1815186   6.815   5.096   1.847
    1HEX    C1915187   6.687   5.188   2.026
    1HEX    C1A15188   6.571   5.272   1.972
    1HEX    H1D15189   0.391   5.170   1.281
    1HEX    H1E15190   0.260   5.111   1.177
    1HEX    H1F15191   0.223   5.172   1.476
    1HEX    H1G15192   0.268   5.014   1.416
    1HEX    H1H15193   7.033   5.081   1.293
    1HEX    H1I15194   7.039   5.243   1.235
    1HEX    H1J15195   7.089   5.403   1.457
    1HEX    H1K15196   6.943   5.383   1.564
    1HEX    H1M15197   6.939   5.794   1.486
    1HEX    H1N15198   6.972   5.736   1.335
    1HEX    H1O15199   0.002   5.685   1.393
    1HEX    H1P15200   7.146   5.592   1.531
    1HEX    H1R15201   6.796   5.252   1.333
    1HEX    H1S15202   6.773   5.214   1.503
    1HEX    H1T15203   6.857   4.817   1.191
    1HEX    H1U15204   6.684   4.835   1.218
    1HEX    H1V15205   6.751   4.688   1.394
    1HEX    H1W15206   6.728   4.845   1.467
    1HEX    H1Y15207   7.058   5.074   1.538
    1HEX    H1Z15208   6.948   5.143   1.640
    1HEX    H2015209   7.107   5.442   1.659
    1HEX    H2115210   0.067   5.381   1.695
    1HEX    H2215211   7.131   5.163   1.901
    1HEX    H2315212   7.176   5.265   2.032
    1HEX    H2415213   0.211   5.500   1.824
    1HEX    H2515214   0.317   5.379   1.774
    1HEX    H2615215   0.369   5.622   1.923
    1HEX    H2715216   0.480   5.521   1.842
    1HEX    H2915217   7.051   5.557   1.921
    1HEX    H2A15218   0.006   5.550   1.832
    1HEX    H2B15219   0.282   5.678   2.091
    1HEX    H2C15220   0.229   5.538   2.183
    1HEX    H2D15221   0.179   5.840   2.229
    1HEX    H2E15222   0.278   5.731   2.331
    1HEX    H2G15223   6.924   5.296   1.759
    1HEX    H2H15224   6.904   5.441   1.834
    1HEX    H2I15225   6.714   5.223   2.125
    1HEX    H2J15226   6.655   5.086   2.038
    1HEX    H2K15227   6.490   5.274   2.045
    1HEX    H2M15228   6.534   5.216   1.888
    1STR    S0015229   0.228   5.338   1.251
    1STR    S0E15230   7.188   5.815   1.581
    1STR    S0M15231   6.961   4.788   1.446
    1STR    S0X15232   0.478   5.463   2.072
    1STR    S1415233   0.045   5.699   2.366
    1STR    S1B15234   6.602   5.442   1.914
    1HEX    C0115235   0.229   5.030   3.007
    1HEX    C0215236   0.232   5.091   3.147
    1HEX    C0315237   0.091   5.121   3.186
    1HEX    O0415238   0.006   5.032   3.181
    1HEX    O0515239   0.067   5.254   3.206
    1HEX    C0615240   7.121   5.297   3.197
    1HEX    C0715241   7.033   5.299   3.320
    1HEX    C0815242   7.046   5.435   3.387
    1HEX    O0915243   6.999   5.535   3.300
    1HEX    C0A15244   6.876   5.577   3.312
    1HEX    O0B15245   6.802   5.555   3.407
    1HEX    C0C15246   6.832   5.657   3.194
    1HEX    C0D15247   6.943   5.750   3.143
    1HEX    C0F15248   6.884   5.281   3.283
    1HEX    O0G15249   6.856   5.146   3.254
    1HEX    C0H15250   6.734   5.112   3.225
    1HEX    O0I15251   6.642   5.187   3.197
    1HEX    C0J15252   6.714   4.964   3.233
    1HEX    C0K15253   6.729   4.915   3.377
    1HEX    C0N15254   7.065   5.178   3.407
    1HEX    O0O15255   0.010   5.156   3.436
    1HEX    C0P15256   0.094   5.246   3.503
    1HEX    C0Q15257   0.090   5.213   3.649
    1HEX    C0R15258   0.124   5.066   3.658
    1HEX    O0S15259   0.252   5.049   3.603
    1HEX    C0T15260   0.329   4.953   3.643
    1HEX    O0U15261   0.305   4.878   3.737
    1HEX    C0V15262   0.457   4.948   3.561
    1HEX    C0W15263   0.523   5.083   3.538
    1HEX    C0Y15264   0.194   5.293   3.728
    1HEX    O0Z15265   0.147   5.289   3.860
    1HEX    C1015266   0.142   5.399   3.926
    1HEX    O1115267   0.230   5.484   3.933
    1HEX    C1215268   0.007   5.417   3.990
    1HEX    C1315269   7.168   5.308   4.088
    1HEX    C1515270   7.140   5.253   3.694
    1HEX    O1615271   7.062   5.168   3.774
    1HEX    C1715272   6.998   5.060   3.730
    1HEX    O1815273   7.021   4.993   3.631
    1HEX    C1915274   6.878   5.028   3.812
    1HEX    C1A15275   6.759   5.105   3.755
    1HEX    H1D15276   0.329   4.996   2.981
    1HEX    H1E15277   0.165   4.943   3.005
    1HEX    H1F15278   0.295   5.178   3.154
    1HEX    H1G15279   0.269   5.018   3.219
    1HEX    H1H15280   7.068   5.223   3.141
    1HEX    H1I15281   7.115   5.389   3.141
    1HEX    H1J15282   7.148   5.463   3.405
    1HEX    H1K15283   6.996   5.435   3.482
    1HEX    H1M15284   6.740   5.710   3.215
    1HEX    H1N15285   6.807   5.581   3.120
    1HEX    H1O15286   6.917   5.787   3.045
    1HEX    H1P15287   7.040   5.700   3.132
    1HEX    H1R15288   6.856   5.342   3.197
    1HEX    H1S15289   6.821   5.309   3.367
    1HEX    H1T15290   6.784   4.918   3.165
    1HEX    H1U15291   6.618   4.941   3.190
    1HEX    H1V15292   6.652   4.844   3.402
    1HEX    H1W15293   6.730   4.997   3.448
    1HEX    H1Y15294   7.045   5.085   3.354
    1HEX    H1Z15295   6.993   5.171   3.487
    1HEX    H2015296   0.088   5.350   3.484
    1HEX    H2115297   0.189   5.219   3.462
    1HEX    H2215298   0.058   5.004   3.599
    1HEX    H2315299   0.119   5.032   3.758
    1HEX    H2415300   0.433   4.904   3.465
    1HEX    H2515301   0.527   4.882   3.610
    1HEX    H2615302   0.624   5.067   3.502
    1HEX    H2715303   0.532   5.139   3.631
    1HEX    H2915304   0.203   5.395   3.690
    1HEX    H2A15305   0.293   5.249   3.727
    1HEX    H2B15306   7.116   5.424   3.920
    1HEX    H2C15307   0.009   5.512   4.043
    1HEX    H2D15308   7.086   5.345   4.146
    1HEX    H2E15309   0.061   5.306   4.151
    1HEX    H2G15310   7.082   5.289   3.613
    1HEX    H2H15311   7.146   5.349   3.740
    1HEX    H2I15312   6.898   5.051   3.916
    1HEX    H2J15313   6.864   4.921   3.802
    1HEX    H2K15314   6.667   5.050   3.761
    1HEX    H2M15315   6.773   5.132   3.651
    1STR    S0015316   0.170   5.145   2.881
    1STR    S0E15317   6.953   5.894   3.248
    1STR    S0M15318   6.886   4.833   3.385
    1STR    S0X15319   0.436   5.176   3.411
    1STR    S1415320   7.129   5.137   4.043
    1STR    S1B15321   6.740   5.251   3.856
    1HEX    C0115322   0.193   5.232   4.829
    1HEX    C0215323   0.161   5.086   4.871
    1HEX    C0315324   0.013   5.067   4.869
    1HEX    O0415325   7.148   4.986   4.794
    1HEX    O0515326   7.148   5.167   4.933
    1HEX    C0615327   7.014   5.189   4.908
    1HEX    C0715328   6.942   5.302   4.980
    1HEX    C0815329   6.984   5.439   4.932
    1HEX    O0915330   6.909   5.536   5.002
    1HEX    C0A15331   6.857   5.640   4.939
    1HEX    O0B15332   6.865   5.658   4.818
    1HEX    C0C15333   6.779   5.738   5.026
    1HEX    C0D15334   6.791   5.742   5.181
    1HEX    C0F15335   6.794   5.289   4.947
    1HEX    O0G15336   6.751   5.155   4.971
    1HEX    C0H15337   6.758   5.074   4.869
    1HEX    O0I15338   6.758   5.115   4.753
    1HEX    C0J15339   6.798   4.930   4.901
    1HEX    C0K15340   6.789   4.881   5.045
    1HEX    C0N15341   6.957   5.289   5.130
    1HEX    O0O15342   7.082   5.236   5.163
    1HEX    C0P15343   0.001   5.325   5.169
    1HEX    C0Q15344   0.059   5.301   5.306
    1HEX    C0R15345   0.095   5.153   5.319
    1HEX    O0S15346   0.198   5.119   5.227
    1HEX    C0T15347   0.310   5.067   5.272
    1HEX    O0U15348   0.337   5.040   5.389
    1HEX    C0V15349   0.407   5.034   5.160
    1HEX    C0W15350   0.446   5.159   5.079
    1HEX    C0Y15351   0.186   5.383   5.321
    1HEX    O0Z15352   0.238   5.345   5.445
    1HEX    C1015353   0.197   5.409   5.548
    1HEX    O1115354   0.165   5.529   5.547
    1HEX    C1215355   0.171   5.313   5.663
    1HEX    C1315356   0.253   5.340   5.787
    1HEX    C1515357   7.140   5.346   5.406
    1HEX    O1615358   7.117   5.257   5.513
    1HEX    C1715359   7.017   5.172   5.499
    1HEX    O1815360   6.962   5.146   5.394
    1HEX    C1915361   6.963   5.120   5.628
    1HEX    C1A15362   6.884   5.227   5.696
    1HEX    H1D15363   0.293   5.241   4.788
    1HEX    H1E15364   0.194   5.289   4.921
    1HEX    H1F15365   0.195   5.066   4.972
    1HEX    H1G15366   0.202   5.009   4.807
    1HEX    H1H15367   6.980   5.097   4.950
    1HEX    H1I15368   6.995   5.192   4.801
    1HEX    H1J15369   6.962   5.443   4.825
    1HEX    H1K15370   7.090   5.456   4.944
    1HEX    H1M15371   6.675   5.724   4.998
    1HEX    H1N15372   6.802   5.837   4.988
    1HEX    H1O15373   6.694   5.719   5.224
    1HEX    H1P15374   6.810   5.844   5.212
    1HEX    H1R15375   6.772   5.324   4.847
    1HEX    H1S15376   6.740   5.357   5.008
    1HEX    H1T15377   6.899   4.914   4.865
    1HEX    H1U15378   6.735   4.864   4.845
    1HEX    H1V15379   6.808   4.774   5.051
    1HEX    H1W15380   6.691   4.900   5.084
    1HEX    H1Y15381   6.886   5.217   5.168
    1HEX    H1Z15382   6.934   5.380   5.183
    1HEX    H2015383   7.162   5.428   5.156
    1HEX    H2115384   0.073   5.299   5.093
    1HEX    H2215385   0.007   5.095   5.297
    1HEX    H2315386   0.120   5.128   5.422
    1HEX    H2415387   0.357   4.962   5.096
    1HEX    H2515388   0.494   4.983   5.201
    1HEX    H2615389   0.371   5.237   5.087
    1HEX    H2715390   0.457   5.133   4.974
    1HEX    H2915391   0.165   5.489   5.313
    1HEX    H2A15392   0.259   5.358   5.245
    1HEX    H2B15393   0.186   5.210   5.630
    1HEX    H2C15394   0.066   5.319   5.690
    1HEX    H2D15395   0.347   5.290   5.784
    1HEX    H2E15396   0.204   5.292   5.871
    1HEX    H2G15397   7.046   5.366   5.358
    1HEX    H2H15398   7.159   5.444   5.447
    1HEX    H2I15399   7.045   5.086   5.691
    1HEX    H2J15400   6.894   5.039   5.609
    1HEX    H2K15401   6.948   5.313   5.698
    1HEX    H2M15402   6.859   5.193   5.795
    1STR    S0015403   0.067   5.302   4.715
    1STR    S0E15404   6.912   5.637   5.264
    1STR    S0M15405   6.909   4.953   5.155
    1STR    S0X15406   0.607   5.222   5.132
    1STR    S1415407   0.260   5.517   5.821
    1STR    S1B15408   6.734   5.270   5.607
    1HEX    C0115409   2.036   0.090   6.766
    1HEX    C0215410   1.969   7.143   6.766
    1HEX    C0315411   1.833   7.122   6.709
    1HEX    O0415412   1.809   7.014   6.659
    1HEX    O0515413   1.746   0.028   6.725
    1HEX    C0615414   1.614   7.188   6.691
    1HEX    C0715415   1.522   7.159   6.813
    1HEX    C0815416   1.448   0.097   6.855
    1HEX    O0915417   1.420   0.176   6.743
    1HEX    C0A15418   1.420   0.305   6.760
    1HEX    O0B15419   1.357   0.367   6.844
    1HEX    C0C15420   1.520   0.370   6.667
    1HEX    C0D15421   1.661   0.331   6.706
    1HEX    C0F15422   1.417   7.061   6.756
    1HEX    O0G15423   1.478   6.933   6.743
    1HEX    C0H15424   1.405   6.827   6.712
    1HEX    O0I15425   1.290   6.830   6.669
    1HEX    C0J15426   1.474   6.696   6.745
    1HEX    C0K15427   1.464   6.670   6.895
    1HEX    C0N15428   1.590   7.094   6.939
    1HEX    O0O15429   1.731   7.107   6.958
    1HEX    C0P15430   1.785   0.032   7.022
    1HEX    C0Q15431   1.819   0.010   7.170
    1HEX    C0R15432   1.856   7.052   0.006
    1HEX    O0S15433   1.975   7.034   0.082
    1HEX    C0T15434   1.997   6.916   0.140
    1HEX    O0U15435   1.924   6.819   0.129
    1HEX    C0V15436   2.126   6.907   0.220
    1HEX    C0W15437   2.174   7.042   0.274
    1HEX    C0Y15438   1.932   0.104   0.026
    1HEX    O0Z15439   1.929   0.117   0.166
    1HEX    C1015440   2.010   0.200   0.229
    1HEX    O1115441   2.119   0.238   0.187
    1HEX    C1215442   1.947   0.261   0.353
    1HEX    C1315443   1.915   0.171   0.470
    1HEX    C1515444   1.692   0.054   0.051
    1HEX    O1615445   1.666   7.175   0.167
    1HEX    C1715446   1.567   7.093   0.166
    1HEX    O1815447   1.548   7.005   0.084
    1HEX    C1915448   1.481   7.122   0.284
    1HEX    C1A15449   1.411   0.065   0.273
    1HEX    H1D15450   2.057   0.119   6.868
    1HEX    H1E15451   2.129   0.088   6.712
    1HEX    H1F15452   1.968   7.100   6.865
    1HEX    H1G15453   2.029   7.075   6.708
    1HEX    H1H15454   1.607   7.104   6.623
    1HEX    H1I15455   1.579   0.076   6.625
    1HEX    H1J15456   1.510   0.151   6.927
    1HEX    H1K15457   1.353   0.076   6.903
    1HEX    H1M15458   1.513   0.478   6.669
    1HEX    H1N15459   1.499   0.335   6.567
    1HEX    H1O15460   1.718   0.317   6.615
    1HEX    H1P15461   1.664   0.238   6.762
    1HEX    H1R15462   1.379   7.096   6.660
    1HEX    H1S15463   1.329   7.059   6.819
    1HEX    H1T15464   1.577   6.706   6.716
    1HEX    H1U15465   1.430   6.614   6.691
    1HEX    H1V15466   1.369   6.629   6.927
    1HEX    H1W15467   1.479   6.764   6.946
    1HEX    H1Y15468   1.579   6.987   6.938
    1HEX    H1Z15469   1.538   7.120   7.030
    1HEX    H2015470   1.721   0.118   7.005
    1HEX    H2115471   1.876   0.062   6.973
    1HEX    H2215472   1.863   6.997   7.104
    1HEX    H2315473   1.778   6.999   0.057
    1HEX    H2415474   2.203   6.856   0.165
    1HEX    H2515475   2.104   6.841   0.303
    1HEX    H2615476   2.189   7.034   0.381
    1HEX    H2715477   2.103   7.122   0.254
    1HEX    H2915478   1.917   0.202   7.174
    1HEX    H2A15479   2.029   0.073   7.180
    1HEX    H2B15480   1.850   0.294   0.323
    1HEX    H2C15481   2.005   0.347   0.384
    1HEX    H2D15482   1.877   0.230   0.552
    1HEX    H2E15483   2.005   0.123   0.508
    1HEX    H2G15484   1.605   0.059   7.178
    1HEX    H2H15485   1.704   0.155   0.087
    1HEX    H2I15486   1.554   7.140   0.357
    1HEX    H2J15487   1.420   7.039   0.317
    1HEX    H2K15488   1.475   0.141   0.230
    1HEX    H2M15489   1.377   0.098   0.371
    1STR    S0015490   1.959   0.232   6.700
    1STR    S0E15491   1.743   0.450   6.811
    1STR    S0M15492   1.598   6.569   6.959
    1STR    S0X15493   2.327   7.103   0.211
    1STR    S1415494   1.782   0.060   0.419
    1STR    S1B15495   1.270   0.040   0.172
    1HEX    C0115496   2.228   7.073   1.171
    1HEX    C0215497   2.150   0.011   1.209
    1HEX    C0315498   2.049   7.180   1.320
    1HEX    O0415499   2.068   7.099   1.410
    1HEX    O0515500   1.942   0.071   1.308
    1HEX    C0615501   1.815   0.010   1.316
    1HEX    C0715502   1.706   0.075   1.401
    1HEX    C0815503   1.729   0.223   1.420
    1HEX    O0915504   1.628   0.266   1.510
    1HEX    C0A15505   1.539   0.362   1.489
    1HEX    O0B15506   1.494   0.423   1.585
    1HEX    C0C15507   1.504   0.404   1.346
    1HEX    C0D15508   1.584   0.520   1.286
    1HEX    C0F15509   1.570   0.067   1.329
    1HEX    O0G15510   1.492   7.145   1.356
    1HEX    C0H15511   1.520   7.033   1.303
    1HEX    O0I15512   1.627   7.004   1.250
    1HEX    C0J15513   1.419   6.930   1.341
    1HEX    C0K15514   1.439   6.903   1.488
    1HEX    C0N15515   1.698   0.005   1.538
    1HEX    O0O15516   1.826   7.180   1.597
    1HEX    C0P15517   1.833   0.021   1.735
    1HEX    C0Q15518   1.774   7.109   1.836
    1HEX    C0R15519   1.765   6.969   1.778
    1HEX    O0S15520   1.888   6.904   1.755
    1HEX    C0T15521   1.909   6.782   1.806
    1HEX    O0U15522   1.845   6.725   1.895
    1HEX    C0V15523   2.013   6.705   1.731
    1HEX    C0W15524   2.153   6.760   1.752
    1HEX    C0Y15525   1.859   7.100   1.962
    1HEX    O0Z15526   1.870   6.971   2.022
    1HEX    C1015527   1.793   6.929   2.123
    1HEX    O1115528   1.696   6.985   2.173
    1HEX    C1215529   1.842   6.799   2.184
    1HEX    C1315530   1.991   6.761   2.165
    1HEX    C1515531   1.637   7.169   1.874
    1HEX    O1615532   1.568   7.096   1.973
    1HEX    C1715533   1.484   7.005   1.934
    1HEX    O1815534   1.468   6.971   1.818
    1HEX    C1915535   1.393   6.955   2.041
    1HEX    C1A15536   1.251   7.001   2.011
    1HEX    H1D15537   2.292   7.095   1.086
    1HEX    H1E15538   2.293   7.047   1.254
    1HEX    H1F15539   2.097   0.051   1.123
    1HEX    H1G15540   2.220   0.088   1.240
    1HEX    H1H15541   1.826   7.096   1.348
    1HEX    H1I15542   1.781   0.006   1.213
    1HEX    H1J15543   1.731   0.275   1.324
    1HEX    H1K15544   1.825   0.239   1.467
    1HEX    H1M15545   1.401   0.437   1.356
    1HEX    H1N15546   1.498   0.322   1.276
    1HEX    H1O15547   1.518   0.580   1.225
    1HEX    H1P15548   1.664   0.481   1.224
    1HEX    H1R15549   1.577   0.086   1.222
    1HEX    H1S15550   1.502   0.139   1.369
    1HEX    H1T15551   1.440   6.838   1.287
    1HEX    H1U15552   1.319   6.963   1.317
    1HEX    H1V15553   1.363   6.835   1.522
    1HEX    H1W15554   1.433   6.994   1.549
    1HEX    H1Y15555   1.659   7.096   1.524
    1HEX    H1Z15556   1.626   0.056   1.601
    1HEX    H2015557   1.790   0.118   1.748
    1HEX    H2115558   1.936   0.039   1.758
    1HEX    H2215559   1.714   6.976   1.685
    1HEX    H2315560   1.705   6.908   1.844
    1HEX    H2415561   1.981   6.709   1.628
    1HEX    H2515562   2.007   6.601   1.764
    1HEX    H2615563   2.226   6.687   1.718
    1HEX    H2715564   2.172   6.781   1.857
    1HEX    H2915565   1.815   7.168   2.031
    1HEX    H2A15566   1.960   7.132   1.944
    1HEX    H2B15567   1.780   6.720   2.143
    1HEX    H2C15568   1.820   6.807   2.290
    1HEX    H2D15569   2.007   6.725   2.064
    1HEX    H2E15570   2.013   6.678   2.232
    1HEX    H2G15571   1.572   7.184   1.788
    1HEX    H2H15572   1.650   0.077   1.917
    1HEX    H2I15573   1.430   6.991   2.136
    1HEX    H2J15574   1.397   6.846   2.043
    1HEX    H2K15575   1.184   6.967   2.089
    1HEX    H2M15576   1.215   6.958   1.917
    1STR    S0015577   2.136   6.919   1.132
    1STR    S0E15578   1.657   0.630   1.411
    1STR    S0M15579   1.605   6.833   1.491
    1STR    S0X15580   2.170   6.906   1.650
    1STR    S1415581   2.121   6.886   2.192
    1STR    S1B15582   1.244   7.182   2.001
    1HEX    C0115583   2.006   6.907   2.920
    1HEX    C0215584   1.978   6.906   3.071
    1HEX    C0315585   1.831   6.931   3.097
    1HEX    O0415586   1.752   6.839   3.085
    1HEX    O0515587   1.799   7.059   3.125
    1HEX    C0615588   1.668   7.103   3.089
    1HEX    C0715589   1.565   7.120   3.202
    1HEX    C0815590   1.564   0.075   3.253
    1HEX    O0915591   1.446   0.145   3.224
    1HEX    C0A15592   1.364   0.170   3.327
    1HEX    O0B15593   1.260   0.111   3.347
    1HEX    C0C15594   1.392   0.303   3.389
    1HEX    C0D15595   1.483   0.327   3.511
    1HEX    C0F15596   1.423   7.096   3.144
    1HEX    O0G15597   1.398   6.962   3.119
    1HEX    C0H15598   1.425   6.904   3.003
    1HEX    O0I15599   1.430   6.962   2.896
    1HEX    C0J15600   1.457   6.757   3.022
    1HEX    C0K15601   1.478   6.735   3.171
    1HEX    C0N15602   1.597   7.021   3.317
    1HEX    O0O15603   1.655   7.075   3.432
    1HEX    C0P15604   1.779   7.139   3.422
    1HEX    C0Q15605   1.834   7.137   3.562
    1HEX    C0R15606   1.870   6.993   3.589
    1HEX    O0S15607   1.962   6.960   3.491
    1HEX    C0T15608   2.066   6.898   3.526
    1HEX    O0U15609   2.091   6.860   3.639
    1HEX    C0V15610   2.150   6.872   3.406
    1HEX    C0W15611   2.186   6.999   3.331
    1HEX    C0Y15612   1.955   0.037   3.579
    1HEX    O0Z15613   2.008   0.010   3.705
    1HEX    C1015614   2.038   0.106   3.789
    1HEX    O1115615   2.011   0.226   3.779
    1HEX    C1215616   2.106   0.044   3.908
    1HEX    C1315617   2.180   0.136   4.005
    1HEX    C1515618   1.732   0.001   3.659
    1HEX    O1615619   1.693   7.095   3.751
    1HEX    C1715620   1.613   6.992   3.729
    1HEX    O1815621   1.635   6.887   3.786
    1HEX    C1915622   1.485   7.009   3.652
    1HEX    C1A15623   1.436   7.143   3.598
    1HEX    H1D15624   2.072   6.825   2.894
    1HEX    H1E15625   1.914   6.893   2.863
    1HEX    H1F15626   2.035   6.981   3.123
    1HEX    H1G15627   2.003   6.809   3.111
    1HEX    H1H15628   1.632   7.036   3.012
    1HEX    H1I15629   1.677   0.005   3.034
    1HEX    H1J15630   1.651   0.130   3.219
    1HEX    H1K15631   1.572   0.079   3.359
    1HEX    H1M15632   1.298   0.351   3.402
    1HEX    H1N15633   1.432   0.347   3.304
    1HEX    H1O15634   1.438   0.276   3.595
    1HEX    H1P15635   1.482   0.433   3.534
    1HEX    H1R15636   1.403   7.158   3.057
    1HEX    H1S15637   1.348   7.118   3.219
    1HEX    H1T15638   1.551   6.734   2.972
    1HEX    H1U15639   1.378   6.696   2.983
    1HEX    H1V15640   1.394   6.764   3.230
    1HEX    H1W15641   1.552   6.807   3.198
    1HEX    H1Y15642   1.666   6.942   3.290
    1HEX    H1Z15643   1.506   6.972   3.349
    1HEX    H2015644   1.772   0.051   3.390
    1HEX    H2115645   1.843   7.087   3.351
    1HEX    H2215646   1.787   6.926   3.572
    1HEX    H2315647   1.903   6.980   3.693
    1HEX    H2415648   2.088   6.815   3.339
    1HEX    H2515649   2.233   6.807   3.428
    1HEX    H2615650   2.224   6.971   3.234
    1HEX    H2715651   2.097   7.058   3.318
    1HEX    H2915652   1.929   0.142   3.568
    1HEX    H2A15653   2.029   0.011   3.505
    1HEX    H2B15654   2.177   7.168   3.864
    1HEX    H2C15655   2.032   7.169   3.954
    1HEX    H2D15656   2.254   0.195   3.951
    1HEX    H2E15657   2.230   0.075   4.079
    1HEX    H2G15658   1.651   0.045   3.606
    1HEX    H2H15659   1.772   0.083   3.717
    1HEX    H2I15660   1.414   6.985   3.729
    1HEX    H2J15661   1.482   6.931   3.576
    1HEX    H2K15662   1.462   7.161   3.496
    1HEX    H2M15663   1.460   0.037   3.660
    1STR    S0015664   2.083   7.065   2.879
    1STR    S0E15665   1.658   0.277   3.508
    1STR    S0M15666   1.558   6.587   3.225
    1STR    S0X15667   2.311   7.106   3.402
    1STR    S1415668   2.069   0.246   4.093
    1STR    S1B15669   1.262   7.142   3.592
    1HEX    C0115670   2.059   7.012   4.726
    1HEX    C0215671   2.052   6.993   4.877
    1HEX    C0315672   1.909   6.975   4.919
    1HEX    O0415673   1.850   6.874   4.887
    1HEX    O0515674   1.857   7.079   4.979
    1HEX    C0615675   1.716   7.097   4.985
    1HEX    C0715676   1.661   7.122   5.121
    1HEX    C0815677   1.683   0.077   5.164
    1HEX    O0915678   1.639   0.165   5.064
    1HEX    C0A15679   1.531   0.238   5.077
    1HEX    O0B15680   1.462   0.251   5.176
    1HEX    C0C15681   1.504   0.313   4.953
    1HEX    C0D15682   1.619   0.402   4.908
    1HEX    C0F15683   1.508   7.115   5.117
    1HEX    O0G15684   1.466   6.991   5.159
    1HEX    C0H15685   1.457   6.894   5.075
    1HEX    O0I15686   1.445   6.902   4.954
    1HEX    C0J15687   1.469   6.765   5.146
    1HEX    C0K15688   1.453   6.766   5.299
    1HEX    C0N15689   1.725   7.006   5.201
    1HEX    O0O15690   1.853   7.027   5.254
    1HEX    C0P15691   1.863   7.113   5.365
    1HEX    C0Q15692   1.810   7.064   5.497
    1HEX    C0R15693   1.866   6.924   5.515
    1HEX    O0S15694   2.005   6.932   5.531
    1HEX    C0T15695   2.072   6.818   5.533
    1HEX    O0U15696   2.022   6.708   5.543
    1HEX    C0V15697   2.223   6.833   5.525
    1HEX    C0W15698   2.268   6.979   5.528
    1HEX    C0Y15699   1.861   7.172   5.593
    1HEX    O0Z15700   1.756   0.076   5.606
    1HEX    C1015701   1.756   0.165   5.700
    1HEX    O1115702   1.854   0.225   5.743
    1HEX    C1215703   1.617   0.192   5.752
    1HEX    C1315704   1.603   0.150   5.898
    1HEX    C1515705   1.657   7.058   5.501
    1HEX    O1615706   1.592   7.042   5.626
    1HEX    C1715707   1.511   6.936   5.644
    1HEX    O1815708   1.523   6.827   5.590
    1HEX    C1915709   1.401   6.956   5.744
    1HEX    C1A15710   1.335   7.092   5.728
    1HEX    H1D15711   2.162   6.998   4.693
    1HEX    H1E15712   1.998   6.936   4.677
    1HEX    H1F15713   2.098   7.074   4.932
    1HEX    H1G15714   2.105   6.902   4.905
    1HEX    H1H15715   1.665   7.013   4.939
    1HEX    H1I15716   1.692   7.183   4.927
    1HEX    H1J15717   1.785   0.103   5.171
    1HEX    H1K15718   1.639   0.096   5.261
    1HEX    H1M15719   1.409   0.364   4.958
    1HEX    H1N15720   1.493   0.233   4.884
    1HEX    H1O15721   1.610   0.421   4.803
    1HEX    H1P15722   1.716   0.355   4.925
    1HEX    H1R15723   1.468   7.142   5.020
    1HEX    H1S15724   1.462   7.182   5.190
    1HEX    H1T15725   1.572   6.746   5.121
    1HEX    H1U15726   1.403   6.694   5.097
    1HEX    H1V15727   1.350   6.754   5.324
    1HEX    H1W15728   1.485   6.857   5.346
    1HEX    H1Y15729   1.742   6.922   5.134
    1HEX    H1Z15730   1.660   6.954   5.266
    1HEX    H2015731   1.828   0.024   5.352
    1HEX    H2115732   1.971   7.121   5.374
    1HEX    H2215733   1.844   6.862   5.429
    1HEX    H2315734   1.816   6.872   5.596
    1HEX    H2415735   2.257   6.782   5.436
    1HEX    H2515736   2.262   6.781   5.612
    1HEX    H2615737   2.372   6.988   5.555
    1HEX    H2715738   2.210   7.034   5.601
    1HEX    H2915739   1.952   0.033   5.561
    1HEX    H2A15740   1.890   7.128   5.686
    1HEX    H2B15741   1.547   0.141   5.687
    1HEX    H2C15742   1.595   0.297   5.741
    1HEX    H2D15743   1.512   0.191   5.941
    1HEX    H2E15744   1.686   0.185   5.959
    1HEX    H2G15745   1.620   6.977   5.444
    1HEX    H2H15746   1.620   7.148   5.453
    1HEX    H2I15747   1.443   6.947   5.843
    1HEX    H2J15748   1.328   6.876   5.735
    1HEX    H2K15749   1.406   7.172   5.710
    1HEX    H2M15750   1.286   7.115   5.821
    1STR    S0015751   2.004   7.173   4.665
    1STR    S0E15752   1.605   0.559   4.992
    1STR    S0M15753   1.534   6.625   5.373
    1STR    S0X15754   2.236   7.056   5.368
    1STR    S1415755   1.592   7.160   5.912
    1STR    S1B15756   1.213   7.092   5.596
    1HEX    C0115757   1.991   1.547   6.643
    1HEX    C0215758   1.919   1.428   6.706
    1HEX    C0315759   1.771   1.450   6.698
    1HEX    O0415760   1.703   1.395   6.611
    1HEX    O0515761   1.731   1.543   6.783
    1HEX    C0615762   1.593   1.567   6.788
    1HEX    C0715763   1.553   1.691   6.862
    1HEX    C0815764   1.652   1.800   6.826
    1HEX    O0915765   1.595   1.924   6.857
    1HEX    C0A15766   1.646   2.037   6.812
    1HEX    O0B15767   1.735   2.049   6.730
    1HEX    C0C15768   1.596   2.154   6.892
    1HEX    C0D15769   1.519   2.115   7.016
    1HEX    C0F15770   1.412   1.727   6.816
    1HEX    O0G15771   1.322   1.632   6.864
    1HEX    C0H15772   1.288   1.530   6.788
    1HEX    O0I15773   1.257   1.533   6.670
    1HEX    C0J15774   1.286   1.405   6.869
    1HEX    C0K15775   1.340   1.284   6.793
    1HEX    C0N15776   1.543   1.662   7.013
    1HEX    O0O15777   1.652   1.593   7.065
    1HEX    C0P15778   1.762   1.672   7.087
    1HEX    C0Q15779   1.818   1.650   0.034
    1HEX    C0R15780   1.831   1.500   0.052
    1HEX    O0S15781   1.920   1.456   7.143
    1HEX    C0T15782   1.987   1.346   7.160
    1HEX    O0U15783   1.963   1.261   0.056
    1HEX    C0V15784   2.105   1.341   7.066
    1HEX    C0W15785   2.189   1.470   7.068
    1HEX    C0Y15786   1.956   1.711   0.027
    1HEX    O0Z15787   2.029   1.654   0.130
    1HEX    C1015788   2.047   1.725   0.234
    1HEX    O1115789   2.040   1.847   0.233
    1HEX    C1215790   2.067   1.636   0.353
    1HEX    C1315791   2.139   1.694   0.474
    1HEX    C1515792   1.736   1.726   0.141
    1HEX    O1615793   1.690   1.651   0.252
    1HEX    C1715794   1.576   1.588   0.234
    1HEX    O1815795   1.535   1.551   0.126
    1HEX    C1915796   1.497   1.563   0.360
    1HEX    C1A15797   1.376   1.655   0.361
    1HEX    H1D15798   2.098   1.531   6.643
    1HEX    H1E15799   1.971   1.635   6.702
    1HEX    H1F15800   1.943   1.418   6.812
    1HEX    H1G15801   1.942   1.334   6.658
    1HEX    H1H15802   1.544   1.486   6.836
    1HEX    H1I15803   1.552   1.566   6.688
    1HEX    H1J15804   1.686   1.790   6.725
    1HEX    H1K15805   1.745   1.787   6.875
    1HEX    H1M15806   1.534   2.215   6.829
    1HEX    H1N15807   1.681   2.216   6.915
    1HEX    H1O15808   1.435   2.060   6.979
    1HEX    H1P15809   1.479   2.205   7.062
    1HEX    H1R15810   1.405   1.731   6.710
    1HEX    H1S15811   1.385   1.826   6.850
    1HEX    H1T15812   1.183   1.387   6.901
    1HEX    H1U15813   1.342   1.427   6.959
    1HEX    H1V15814   1.335   1.301   6.686
    1HEX    H1W15815   1.276   1.199   6.812
    1HEX    H1Y15816   1.467   1.589   7.031
    1HEX    H1Z15817   1.515   1.750   7.071
    1HEX    H2015818   1.737   1.776   7.081
    1HEX    H2115819   1.832   1.646   7.008
    1HEX    H2215820   1.737   1.451   0.035
    1HEX    H2315821   1.866   1.475   0.153
    1HEX    H2415822   2.067   1.318   6.967
    1HEX    H2515823   2.166   1.257   7.099
    1HEX    H2615824   2.174   1.518   7.165
    1HEX    H2715825   2.295   1.446   7.064
    1HEX    H2915826   1.953   1.820   0.023
    1HEX    H2A15827   2.005   1.681   7.128
    1HEX    H2B15828   2.121   1.548   0.318
    1HEX    H2C15829   1.966   1.605   0.380
    1HEX    H2D15830   2.245   1.698   0.458
    1HEX    H2E15831   2.120   1.636   0.563
    1HEX    H2G15832   1.649   1.772   0.095
    1HEX    H2H15833   1.792   1.809   0.181
    1HEX    H2I15834   1.561   1.583   0.446
    1HEX    H2J15835   1.466   1.459   0.363
    1HEX    H2K15836   1.411   1.752   0.327
    1HEX    H2M15837   1.331   1.661   0.459
    1STR    S0015838   1.936   1.578   6.473
    1STR    S0E15839   1.595   2.006   7.140
    1STR    S0M15840   1.512   1.230   6.823
    1STR    S0X15841   2.148   1.592   6.940
    1STR    S1415842   2.080   1.855   0.515
    1STR    S1B15843   1.248   1.614   0.242
    1HEX    C0115844   2.087   1.580   1.092
    1HEX    C0215845   2.047   1.503   1.218
    1HEX    C0315846   1.904   1.454   1.222
    1HEX    O0415847   1.875   1.333   1.221
    1HEX    O0515848   1.826   1.558   1.241
    1HEX    C0615849   1.690   1.551   1.265
    1HEX    C0715850   1.673   1.605   1.408
    1HEX    C0815851   1.702   1.756   1.411
    1HEX    O0915852   1.592   1.846   1.405
    1HEX    C0A15853   1.533   1.875   1.520
    1HEX    O0B15854   1.551   1.812   1.623
    1HEX    C0C15855   1.445   1.996   1.520
    1HEX    C0D15856   1.506   2.109   1.439
    1HEX    C0F15857   1.526   1.582   1.451
    1HEX    O0G15858   1.469   1.471   1.389
    1HEX    C0H15859   1.360   1.486   1.314
    1HEX    O0I15860   1.283   1.582   1.312
    1HEX    C0J15861   1.336   1.363   1.232
    1HEX    C0K15862   1.362   1.239   1.317
    1HEX    C0N15863   1.771   1.524   1.498
    1HEX    O0O15864   1.909   1.561   1.518
    1HEX    C0P15865   1.953   1.682   1.580
    1HEX    C0Q15866   1.935   1.708   1.732
    1HEX    C0R15867   2.000   1.594   1.812
    1HEX    O0S15868   2.130   1.622   1.860
    1HEX    C0T15869   2.199   1.540   1.936
    1HEX    O0U15870   2.182   1.420   1.948
    1HEX    C0V15871   2.306   1.611   2.017
    1HEX    C0W15872   2.301   1.764   2.015
    1HEX    C0Y15873   2.000   1.847   1.764
    1HEX    O0Z15874   1.933   1.944   1.841
    1HEX    C1015875   2.005   2.034   1.912
    1HEX    O1115876   2.125   2.028   1.936
    1HEX    C1215877   1.923   2.144   1.976
    1HEX    C1315878   1.920   2.127   2.129
    1HEX    C1515879   1.786   1.713   1.758
    1HEX    O1615880   1.737   1.654   1.877
    1HEX    C1715881   1.637   1.565   1.866
    1HEX    O1815882   1.599   1.506   1.767
    1HEX    C1915883   1.565   1.539   1.994
    1HEX    C1A15884   1.533   1.667   2.064
    1HEX    H1D15885   2.127   1.512   1.020
    1HEX    H1E15886   2.165   1.652   1.114
    1HEX    H1F15887   2.057   1.569   1.304
    1HEX    H1G15888   2.113   1.419   1.234
    1HEX    H1H15889   1.655   1.449   1.252
    1HEX    H1I15890   1.635   1.611   1.193
    1HEX    H1J15891   1.779   1.784   1.342
    1HEX    H1K15892   1.746   1.782   1.504
    1HEX    H1M15893   1.429   2.027   1.622
    1HEX    H1N15894   1.348   1.967   1.479
    1HEX    H1O15895   1.450   2.201   1.454
    1HEX    H1P15896   1.487   2.081   1.337
    1HEX    H1R15897   1.464   1.665   1.424
    1HEX    H1S15898   1.516   1.572   1.558
    1HEX    H1T15899   1.400   1.370   1.145
    1HEX    H1U15900   1.233   1.367   1.198
    1HEX    H1V15901   1.302   1.160   1.280
    1HEX    H1W15902   1.323   1.256   1.416
    1HEX    H1Y15903   1.779   1.429   1.451
    1HEX    H1Z15904   1.727   1.492   1.590
    1HEX    H2015905   1.939   1.769   1.517
    1HEX    H2115906   2.057   1.671   1.568
    1HEX    H2215907   2.003   1.513   1.744
    1HEX    H2315908   1.941   1.564   1.898
    1HEX    H2415909   2.402   1.573   1.987
    1HEX    H2515910   2.292   1.577   2.119
    1HEX    H2615911   2.339   1.802   2.109
    1HEX    H2715912   2.203   1.806   2.005
    1HEX    H2915913   2.033   1.896   1.674
    1HEX    H2A15914   2.091   1.831   1.816
    1HEX    H2B15915   1.824   2.152   1.932
    1HEX    H2C15916   1.975   2.235   1.950
    1HEX    H2D15917   1.926   2.221   2.181
    1HEX    H2E15918   2.004   2.067   2.163
    1HEX    H2G15919   1.731   1.673   1.677
    1HEX    H2H15920   1.756   1.815   1.747
    1HEX    H2I15921   1.628   1.476   2.052
    1HEX    H2J15922   1.478   1.482   1.972
    1HEX    H2K15923   1.622   1.725   2.062
    1HEX    H2M15924   1.506   1.646   2.165
    1STR    S0015925   1.953   1.668   1.010
    1STR    S0E15926   1.686   2.138   1.448
    1STR    S0M15927   1.539   1.194   1.322
    1STR    S0X15928   2.393   1.844   1.885
    1STR    S1415929   1.766   2.051   2.178
    1STR    S1B15930   1.402   1.772   2.007
    1HEX    C0115931   2.233   1.616   2.985
    1HEX    C0215932   2.212   1.639   3.135
    1HEX    C0315933   2.069   1.609   3.170
    1HEX    O0415934   2.026   1.495   3.159
    1HEX    O0515935   2.000   1.719   3.204
    1HEX    C0615936   1.863   1.726   3.173
    1HEX    C0715937   1.764   1.741   3.286
    1HEX    C0815938   1.741   1.886   3.324
    1HEX    O0915939   1.681   1.959   3.221
    1HEX    C0A15940   1.577   2.039   3.251
    1HEX    O0B15941   1.518   2.045   3.358
    1HEX    C0C15942   1.539   2.130   3.138
    1HEX    C0D15943   1.658   2.174   3.052
    1HEX    C0F15944   1.626   1.696   3.247
    1HEX    O0G15945   1.625   1.558   3.246
    1HEX    C0H15946   1.511   1.501   3.241
    1HEX    O0I15947   1.411   1.540   3.186
    1HEX    C0J15948   1.513   1.373   3.309
    1HEX    C0K15949   1.512   1.387   3.459
    1HEX    C0N15950   1.813   1.644   3.392
    1HEX    O0O15951   1.913   1.703   3.466
    1HEX    C0P15952   1.869   1.779   3.574
    1HEX    C0Q15953   1.765   1.719   3.670
    1HEX    C0R15954   1.807   1.576   3.704
    1HEX    O0S15955   1.940   1.546   3.668
    1HEX    C0T15956   1.996   1.438   3.714
    1HEX    O0U15957   1.988   1.398   3.828
    1HEX    C0V15958   2.078   1.364   3.612
    1HEX    C0W15959   2.211   1.427   3.577
    1HEX    C0Y15960   1.777   1.821   3.780
    1HEX    O0Z15961   1.692   1.794   3.885
    1HEX    C1015962   1.640   1.894   3.949
    1HEX    O1115963   1.684   2.007   3.953
    1HEX    C1215964   1.524   1.849   4.030
    1HEX    C1315965   1.577   1.753   4.134
    1HEX    C1515966   1.613   1.723   3.634
    1HEX    O1615967   1.524   1.691   3.741
    1HEX    C1715968   1.486   1.568   3.777
    1HEX    O1815969   1.533   1.463   3.737
    1HEX    C1915970   1.371   1.564   3.875
    1HEX    C1A15971   1.239   1.627   3.831
    1HEX    H1D15972   2.339   1.621   2.966
    1HEX    H1E15973   2.200   1.516   2.957
    1HEX    H1F15974   2.239   1.739   3.166
    1HEX    H1G15975   2.273   1.570   3.191
    1HEX    H1H15976   1.835   1.630   3.133
    1HEX    H1I15977   1.847   1.804   3.100
    1HEX    H1J15978   1.830   1.939   3.354
    1HEX    H1K15979   1.676   1.880   3.409
    1HEX    H1M15980   1.486   2.213   3.180
    1HEX    H1N15981   1.465   2.080   3.077
    1HEX    H1O15982   1.616   2.204   2.958
    1HEX    H1P15983   1.728   2.092   3.034
    1HEX    H1R15984   1.604   1.736   3.150
    1HEX    H1S15985   1.547   1.733   3.313
    1HEX    H1T15986   1.606   1.333   3.273
    1HEX    H1U15987   1.427   1.320   3.273
    1HEX    H1V15988   1.418   1.351   3.501
    1HEX    H1W15989   1.517   1.490   3.487
    1HEX    H1Y15990   1.858   1.556   3.345
    1HEX    H1Z15991   1.737   1.596   3.450
    1HEX    H2015992   1.843   1.880   3.547
    1HEX    H2115993   1.963   1.793   3.627
    1HEX    H2215994   1.749   1.508   3.643
    1HEX    H2315995   1.778   1.548   3.802
    1HEX    H2415996   2.016   1.357   3.523
    1HEX    H2515997   2.095   1.266   3.652
    1HEX    H2615998   2.277   1.354   3.533
    1HEX    H2715999   2.261   1.469   3.664
    1HEX    H2916000   1.742   1.913   3.737
    1HEX    H2A16001   1.879   1.837   3.811
    1HEX    H2B16002   1.450   1.807   3.963
    1HEX    H2C16003   1.480   1.937   4.077
    1HEX    H2D16004   1.498   1.737   4.207
    1HEX    H2E16005   1.652   1.809   4.185
    1HEX    H2G16006   1.583   1.665   3.549
    1HEX    H2H16007   1.585   1.823   3.605
    1HEX    H2I16008   1.401   1.607   3.969
    1HEX    H2J16009   1.354   1.459   3.896
    1HEX    H2K16010   1.175   1.640   3.917
    1HEX    H2M16011   1.187   1.560   3.763
    1STR    S0016012   2.156   1.744   2.882
    1STR    S0E16013   1.743   2.318   3.118
    1STR    S0M16014   1.653   1.296   3.528
    1STR    S0X16015   2.176   1.549   3.452
    1STR    S1416016   1.630   1.585   4.086
    1STR    S1B16017   1.258   1.789   3.752
    1HEX    C0116018   1.977   1.491   4.805
    1HEX    C0216019   1.887   1.528   4.922
    1HEX    C0316020   1.743   1.495   4.892
    1HEX    O0416021   1.702   1.379   4.890
    1HEX    O0516022   1.675   1.607   4.874
    1HEX    C0616023   1.535   1.609   4.855
    1HEX    C0716024   1.472   1.662   4.983
    1HEX    C0816025   1.509   1.808   5.006
    1HEX    O0916026   1.424   1.914   4.969
    1HEX    C0A16027   1.490   2.027   4.950
    1HEX    O0B16028   1.578   2.038   4.866
    1HEX    C0C16029   1.470   2.134   5.055
    1HEX    C0D16030   1.545   2.110   5.190
    1HEX    C0F16031   1.320   1.645   4.976
    1HEX    O0G16032   1.286   1.509   4.993
    1HEX    C0H16033   1.263   1.432   4.888
    1HEX    O0I16034   1.259   1.469   4.771
    1HEX    C0J16035   1.245   1.286   4.924
    1HEX    C0K16036   1.254   1.256   5.074
    1HEX    C0N16037   1.526   1.580   5.100
    1HEX    O0O16038   1.666   1.590   5.128
    1HEX    C0P16039   1.727   1.701   5.189
    1HEX    C0Q16040   1.721   1.695   5.341
    1HEX    C0R16041   1.755   1.549   5.371
    1HEX    O0S16042   1.877   1.522   5.302
    1HEX    C0T16043   1.985   1.522   5.373
    1HEX    O0U16044   2.003   1.452   5.472
    1HEX    C0V16045   2.089   1.621   5.329
    1HEX    C0W16046   2.103   1.680   5.189
    1HEX    C0Y16047   1.828   1.788   5.400
    1HEX    O0Z16048   1.879   1.732   5.520
    1HEX    C1016049   1.812   1.754   5.627
    1HEX    O1116050   1.733   1.845   5.634
    1HEX    C1216051   1.833   1.659   5.742
    1HEX    C1316052   1.874   1.721   5.876
    1HEX    C1516053   1.582   1.744   5.386
    1HEX    O1616054   1.540   1.727   5.519
    1HEX    C1716055   1.491   1.613   5.564
    1HEX    O1816056   1.559   1.535   5.628
    1HEX    C1916057   1.340   1.598   5.560
    1HEX    C1A16058   1.267   1.670   5.448
    1HEX    H1D16059   2.080   1.516   4.826
    1HEX    H1E16060   1.966   1.386   4.785
    1HEX    H1F16061   1.895   1.633   4.945
    1HEX    H1G16062   1.919   1.476   5.009
    1HEX    H1H16063   1.500   1.509   4.833
    1HEX    H1I16064   1.509   1.671   4.770
    1HEX    H1J16065   1.610   1.822   4.967
    1HEX    H1K16066   1.512   1.824   5.112
    1HEX    H1M16067   1.364   2.149   5.069
    1HEX    H1N16068   1.504   2.227   5.011
    1HEX    H1O16069   1.503   2.030   5.246
    1HEX    H1P16070   1.545   2.199   5.252
    1HEX    H1R16071   1.280   1.688   4.884
    1HEX    H1S16072   1.271   1.699   5.055
    1HEX    H1T16073   1.318   1.227   4.867
    1HEX    H1U16074   1.146   1.259   4.888
    1HEX    H1V16075   1.207   1.161   5.096
    1HEX    H1W16076   1.198   1.332   5.130
    1HEX    H1Y16077   1.519   1.478   5.066
    1HEX    H1Z16078   1.459   1.582   5.185
    1HEX    H2016079   1.702   1.797   5.152
    1HEX    H2116080   1.830   1.695   5.156
    1HEX    H2216081   1.675   1.485   5.336
    1HEX    H2316082   1.760   1.532   5.478
    1HEX    H2416083   2.179   1.573   5.355
    1HEX    H2516084   2.075   1.701   5.398
    1HEX    H2616085   2.036   1.764   5.171
    1HEX    H2716086   2.085   1.606   5.112
    1HEX    H2916087   1.786   1.886   5.416
    1HEX    H2A16088   1.908   1.809   5.332
    1HEX    H2B16089   1.902   1.581   5.710
    1HEX    H2C16090   1.738   1.608   5.757
    1HEX    H2D16091   1.964   1.667   5.900
    1HEX    H2E16092   1.814   1.685   5.958
    1HEX    H2G16093   1.504   1.707   5.323
    1HEX    H2H16094   1.576   1.851   5.370
    1HEX    H2I16095   1.297   1.627   5.655
    1HEX    H2J16096   1.320   1.492   5.549
    1HEX    H2K16097   1.163   1.640   5.446
    1HEX    H2M16098   1.307   1.640   5.352
    1STR    S0016099   1.924   1.571   4.656
    1STR    S0E16100   1.709   2.043   5.176
    1STR    S0M16101   1.426   1.247   5.131
    1STR    S0X16102   2.274   1.740   5.168
    1STR    S1416103   1.921   1.899   5.890
    1STR    S1B16104   1.274   1.848   5.474
    1HEX    C0116105   1.798   3.445   6.551
    1HEX    C0216106   1.739   3.310   6.592
    1HEX    C0316107   1.605   3.339   6.647
    1HEX    O0416108   1.507   3.305   6.582
    1HEX    O0516109   1.619   3.434   6.740
    1HEX    C0616110   1.538   3.549   6.744
    1HEX    C0716111   1.426   3.525   6.840
    1HEX    C0816112   1.345   3.655   6.860
    1HEX    O0916113   1.407   3.772   6.809
    1HEX    C0A16114   1.341   3.844   6.719
    1HEX    O0B16115   1.248   3.807   6.649
    1HEX    C0C16116   1.403   3.980   6.702
    1HEX    C0D16117   1.540   3.961   6.638
    1HEX    C0F16118   1.330   3.425   6.775
    1HEX    O0G16119   1.362   3.292   6.807
    1HEX    C0H16120   1.299   3.196   6.740
    1HEX    O0I16121   1.200   3.213   6.669
    1HEX    C0J16122   1.364   3.061   6.754
    1HEX    C0K16123   1.430   3.043   6.891
    1HEX    C0N16124   1.486   3.474   6.972
    1HEX    O0O16125   1.530   3.581   7.053
    1HEX    C0P16126   1.667   3.617   7.064
    1HEX    C0Q16127   1.719   3.609   0.021
    1HEX    C0R16128   1.778   3.469   0.052
    1HEX    O0S16129   1.920   3.467   0.050
    1HEX    C0T16130   1.991   3.361   0.089
    1HEX    O0U16131   1.950   3.246   0.093
    1HEX    C0V16132   2.135   3.393   0.127
    1HEX    C0W16133   2.138   3.517   0.217
    1HEX    C0Y16134   1.826   3.720   0.045
    1HEX    O0Z16135   1.823   3.775   0.175
    1HEX    C1016136   1.931   3.839   0.222
    1HEX    O1116137   2.042   3.838   0.170
    1HEX    C1216138   1.902   3.923   0.346
    1HEX    C1316139   1.863   3.860   0.479
    1HEX    C1516140   1.598   3.644   0.112
    1HEX    O1616141   1.601   3.598   0.244
    1HEX    C1716142   1.535   3.489   0.272
    1HEX    O1816143   1.519   3.394   0.196
    1HEX    C1916144   1.478   3.491   0.411
    1HEX    C1A16145   1.363   3.590   0.419
    1HEX    H1D16146   1.883   3.422   6.490
    1HEX    H1E16147   1.833   3.502   6.637
    1HEX    H1F16148   1.801   3.255   6.662
    1HEX    H1G16149   1.718   3.247   6.507
    1HEX    H1H16150   1.497   3.577   6.648
    1HEX    H1I16151   1.601   3.631   6.779
    1HEX    H1J16152   1.327   3.668   6.965
    1HEX    H1K16153   1.246   3.647   6.818
    1HEX    H1M16154   1.406   4.029   6.799
    1HEX    H1N16155   1.338   4.040   6.638
    1HEX    H1O16156   1.525   3.968   6.531
    1HEX    H1P16157   1.582   3.863   6.661
    1HEX    H1R16158   1.329   3.439   6.667
    1HEX    H1S16159   1.228   3.444   6.798
    1HEX    H1T16160   1.434   3.049   6.672
    1HEX    H1U16161   1.284   2.988   6.739
    1HEX    H1V16162   1.418   2.940   6.924
    1HEX    H1W16163   1.379   3.106   6.964
    1HEX    H1Y16164   1.561   3.397   6.961
    1HEX    H1Z16165   1.408   3.424   7.026
    1HEX    H2016166   1.667   3.721   7.032
    1HEX    H2116167   1.730   3.568   6.992
    1HEX    H2216168   1.734   3.393   7.178
    1HEX    H2316169   1.753   3.439   0.151
    1HEX    H2416170   2.194   3.409   0.039
    1HEX    H2516171   2.176   3.307   0.179
    1HEX    H2616172   2.131   3.485   0.317
    1HEX    H2716173   2.057   3.585   0.195
    1HEX    H2916174   1.812   3.801   7.166
    1HEX    H2A16175   1.926   3.688   0.025
    1HEX    H2B16176   1.816   3.981   0.323
    1HEX    H2C16177   1.983   3.994   0.359
    1HEX    H2D16178   1.809   3.935   0.537
    1HEX    H2E16179   1.953   3.836   0.535
    1HEX    H2G16180   1.502   3.612   0.073
    1HEX    H2H16181   1.588   3.750   0.118
    1HEX    H2I16182   1.555   3.519   0.483
    1HEX    H2J16183   1.443   3.391   0.435
    1HEX    H2K16184   1.397   3.692   0.407
    1HEX    H2M16185   1.319   3.583   0.518
    1STR    S0016186   1.674   3.544   6.461
    1STR    S0E16187   1.659   4.087   6.683
    1STR    S0M16188   1.606   3.085   6.888
    1STR    S0X16189   2.289   3.610   0.229
    1STR    S1416190   1.755   3.717   0.461
    1STR    S1B16191   1.238   3.546   0.296
    1HEX    C0116192   2.111   3.734   1.291
    1HEX    C0216193   1.982   3.803   1.340
    1HEX    C0316194   1.899   3.719   1.433
    1HEX    O0416195   1.947   3.618   1.481
    1HEX    O0516196   1.780   3.766   1.467
    1HEX    C0616197   1.675   3.751   1.373
    1HEX    C0716198   1.543   3.696   1.428
    1HEX    C0816199   1.481   3.786   1.534
    1HEX    O0916200   1.431   3.899   1.466
    1HEX    C0A16201   1.426   4.017   1.519
    1HEX    O0B16202   1.466   4.051   1.629
    1HEX    C0C16203   1.377   4.117   1.418
    1HEX    C0D16204   1.454   4.101   1.287
    1HEX    C0F16205   1.450   3.689   1.302
    1HEX    O0G16206   1.354   3.586   1.299
    1HEX    C0H16207   1.391   3.470   1.253
    1HEX    O0I16208   1.504   3.447   1.215
    1HEX    C0J16209   1.286   3.362   1.262
    1HEX    C0K16210   1.307   3.279   1.388
    1HEX    C0N16211   1.568   3.557   1.488
    1HEX    O0O16212   1.608   3.544   1.625
    1HEX    C0P16213   1.745   3.515   1.645
    1HEX    C0Q16214   1.782   3.454   1.782
    1HEX    C0R16215   1.791   3.301   1.793
    1HEX    O0S16216   1.885   3.253   1.700
    1HEX    C0T16217   1.944   3.137   1.720
    1HEX    O0U16218   1.921   3.056   1.810
    1HEX    C0V16219   2.055   3.117   1.619
    1HEX    C0W16220   2.162   3.223   1.640
    1HEX    C0Y16221   1.918   3.512   1.819
    1HEX    O0Z16222   2.011   3.435   1.894
    1HEX    C1016223   2.122   3.501   1.930
    1HEX    O1116224   2.139   3.622   1.921
    1HEX    C1216225   2.225   3.422   2.003
    1HEX    C1316226   2.221   3.466   2.148
    1HEX    C1516227   1.674   3.508   1.870
    1HEX    O1616228   1.699   3.480   2.002
    1HEX    C1716229   1.620   3.399   2.063
    1HEX    O1816230   1.652   3.284   2.088
    1HEX    C1916231   1.491   3.461   2.113
    1HEX    C1A16232   1.445   3.587   2.040
    1HEX    H1D16233   2.159   3.794   1.216
    1HEX    H1E16234   2.181   3.728   1.374
    1HEX    H1F16235   1.918   3.830   1.258
    1HEX    H1G16236   2.007   3.895   1.393
    1HEX    H1H16237   1.705   3.682   1.296
    1HEX    H1I16238   1.657   3.846   1.324
    1HEX    H1J16239   1.554   3.811   1.609
    1HEX    H1K16240   1.400   3.735   1.584
    1HEX    H1M16241   1.384   4.217   1.459
    1HEX    H1N16242   1.272   4.095   1.399
    1HEX    H1O16243   1.400   4.151   1.207
    1HEX    H1P16244   1.466   3.998   1.256
    1HEX    H1R16245   1.508   3.684   1.210
    1HEX    H1S16246   1.390   3.778   1.287
    1HEX    H1T16247   1.293   3.296   1.176
    1HEX    H1U16248   1.187   3.406   1.257
    1HEX    H1V16249   1.234   3.198   1.393
    1HEX    H1W16250   1.300   3.338   1.479
    1HEX    H1Y16251   1.631   3.500   1.421
    1HEX    H1Z16252   1.472   3.508   1.490
    1HEX    H2016253   1.786   3.615   1.646
    1HEX    H2116254   1.795   3.459   1.565
    1HEX    H2216255   1.698   3.248   1.779
    1HEX    H2316256   1.824   3.275   1.893
    1HEX    H2416257   2.014   3.122   1.519
    1HEX    H2516258   2.100   3.021   1.635
    1HEX    H2616259   2.260   3.192   1.605
    1HEX    H2716260   2.171   3.245   1.746
    1HEX    H2916261   1.904   3.609   1.865
    1HEX    H2A16262   1.971   3.527   1.727
    1HEX    H2B16263   2.321   3.451   1.960
    1HEX    H2C16264   2.211   3.316   1.986
    1HEX    H2D16265   2.228   3.574   2.159
    1HEX    H2E16266   2.304   3.423   2.203
    1HEX    H2G16267   1.580   3.464   1.840
    1HEX    H2H16268   1.667   3.617   1.858
    1HEX    H2I16269   1.502   3.483   2.218
    1HEX    H2J16270   1.412   3.388   2.099
    1HEX    H2K16271   1.416   3.564   1.939
    1HEX    H2M16272   1.522   3.661   2.026
    1STR    S0016273   2.104   3.564   1.227
    1STR    S0E16274   1.614   4.180   1.303
    1STR    S0M16275   1.470   3.207   1.380
    1STR    S0X16276   2.113   3.373   1.553
    1STR    S1416277   2.065   3.405   2.215
    1STR    S1B16278   1.305   3.659   2.125
    1HEX    C0116279   2.056   3.297   2.902
    1HEX    C0216280   2.041   3.329   3.050
    1HEX    C0316281   1.908   3.279   3.101
    1HEX    O0416282   1.876   3.162   3.082
    1HEX    O0516283   1.831   3.372   3.159
    1HEX    C0616284   1.695   3.334   3.172
    1HEX    C0716285   1.591   3.425   3.239
    1HEX    C0816286   1.616   3.575   3.236
    1HEX    O0916287   1.508   3.655   3.197
    1HEX    C0A16288   1.424   3.695   3.287
    1HEX    O0B16289   1.379   3.627   3.377
    1HEX    C0C16290   1.424   3.842   3.296
    1HEX    C0D16291   1.501   3.871   3.422
    1HEX    C0F16292   1.454   3.402   3.173
    1HEX    O0G16293   1.421   3.269   3.152
    1HEX    C0H16294   1.417   3.221   3.028
    1HEX    O0I16295   1.444   3.281   2.924
    1HEX    C0J16296   1.379   3.076   3.027
    1HEX    C0K16297   1.410   3.008   3.159
    1HEX    C0N16298   1.585   3.387   3.385
    1HEX    O0O16299   1.715   3.369   3.441
    1HEX    C0P16300   1.809   3.476   3.443
    1HEX    C0Q16301   1.818   3.559   3.571
    1HEX    C0R16302   1.884   3.470   3.673
    1HEX    O0S16303   2.012   3.438   3.622
    1HEX    C0T16304   2.111   3.416   3.702
    1HEX    O0U16305   2.137   3.309   3.756
    1HEX    C0V16306   2.196   3.537   3.723
    1HEX    C0W16307   2.228   3.626   3.602
    1HEX    C0Y16308   1.912   3.677   3.552
    1HEX    O0Z16309   1.939   3.736   3.679
    1HEX    C1016310   1.916   3.864   3.701
    1HEX    O1116311   1.901   3.950   3.615
    1HEX    C1216312   1.904   3.896   3.848
    1HEX    C1316313   2.032   3.859   3.924
    1HEX    C1516314   1.685   3.623   3.614
    1HEX    O1616315   1.620   3.571   3.726
    1HEX    C1716316   1.533   3.475   3.707
    1HEX    O1816317   1.552   3.367   3.654
    1HEX    C1916318   1.404   3.507   3.772
    1HEX    C1A16319   1.322   3.595   3.682
    1HEX    H1D16320   2.160   3.310   2.874
    1HEX    H1E16321   2.029   3.193   2.883
    1HEX    H1F16322   2.057   3.434   3.072
    1HEX    H1G16323   2.119   3.278   3.105
    1HEX    H1H16324   1.699   3.244   3.230
    1HEX    H1I16325   1.660   3.301   3.075
    1HEX    H1J16326   1.708   3.600   3.187
    1HEX    H1K16327   1.637   3.613   3.334
    1HEX    H1M16328   1.322   3.875   3.304
    1HEX    H1N16329   1.467   3.889   3.208
    1HEX    H1O16330   1.486   3.797   3.498
    1HEX    H1P16331   1.463   3.961   3.465
    1HEX    H1R16332   1.447   3.459   3.081
    1HEX    H1S16333   1.375   3.444   3.232
    1HEX    H1T16334   1.435   3.027   2.949
    1HEX    H1U16335   1.273   3.070   3.005
    1HEX    H1V16336   1.385   2.904   3.152
    1HEX    H1W16337   1.352   3.052   3.240
    1HEX    H1Y16338   1.529   3.295   3.397
    1HEX    H1Z16339   1.525   3.457   3.441
    1HEX    H2016340   1.821   3.535   3.354
    1HEX    H2116341   1.899   3.419   3.432
    1HEX    H2216342   1.827   3.379   3.684
    1HEX    H2316343   1.891   3.523   3.767
    1HEX    H2416344   2.285   3.502   3.768
    1HEX    H2516345   2.148   3.594   3.801
    1HEX    H2616346   2.321   3.676   3.630
    1HEX    H2716347   2.161   3.710   3.597
    1HEX    H2916348   1.878   3.748   3.479
    1HEX    H2A16349   1.999   3.638   3.504
    1HEX    H2B16350   1.819   3.839   3.881
    1HEX    H2C16351   1.876   4.000   3.865
    1HEX    H2D16352   2.103   3.941   3.927
    1HEX    H2E16353   2.084   3.777   3.876
    1HEX    H2G16354   1.615   3.624   3.532
    1HEX    H2H16355   1.697   3.728   3.639
    1HEX    H2I16356   1.422   3.557   3.866
    1HEX    H2J16357   1.361   3.412   3.795
    1HEX    H2K16358   1.386   3.643   3.610
    1HEX    H2M16359   1.283   3.670   3.747
    1STR    S0016360   1.955   3.403   2.796
    1STR    S0E16361   1.678   3.870   3.398
    1STR    S0M16362   1.585   3.019   3.199
    1STR    S0X16363   2.264   3.554   3.435
    1STR    S1416364   1.995   3.811   4.093
    1STR    S1B16365   1.179   3.525   3.601
    1HEX    C0116366   2.067   3.509   4.663
    1HEX    C0216367   2.057   3.566   4.802
    1HEX    C0316368   1.933   3.514   4.868
    1HEX    O0416369   1.918   3.393   4.878
    1HEX    O0516370   1.841   3.608   4.888
    1HEX    C0616371   1.709   3.570   4.921
    1HEX    C0716372   1.682   3.601   5.067
    1HEX    C0816373   1.696   3.756   5.089
    1HEX    O0916374   1.578   3.831   5.073
    1HEX    C0A16375   1.509   3.867   5.181
    1HEX    O0B16376   1.515   3.815   5.291
    1HEX    C0C16377   1.426   3.993   5.161
    1HEX    C0D16378   1.516   4.106   5.116
    1HEX    C0F16379   1.544   3.555   5.111
    1HEX    O0G16380   1.531   3.415   5.096
    1HEX    C0H16381   1.473   3.375   4.986
    1HEX    O0I16382   1.434   3.452   4.901
    1HEX    C0J16383   1.455   3.227   4.969
    1HEX    C0K16384   1.443   3.143   5.095
    1HEX    C0N16385   1.781   3.517   5.147
    1HEX    O0O16386   1.880   3.607   5.184
    1HEX    C0P16387   1.946   3.584   5.304
    1HEX    C0Q16388   1.868   3.565   5.432
    1HEX    C0R16389   1.848   3.417   5.458
    1HEX    O0S16390   1.976   3.358   5.456
    1HEX    C0T16391   1.992   3.231   5.432
    1HEX    O0U16392   1.904   3.149   5.416
    1HEX    C0V16393   2.136   3.193   5.418
    1HEX    C0W16394   2.235   3.307   5.447
    1HEX    C0Y16395   1.954   3.619   5.546
    1HEX    O0Z16396   1.865   3.622   5.651
    1HEX    C1016397   1.866   3.721   5.730
    1HEX    O1116398   1.966   3.782   5.767
    1HEX    C1216399   1.729   3.739   5.788
    1HEX    C1316400   1.703   3.634   5.890
    1HEX    C1516401   1.741   3.651   5.423
    1HEX    O1616402   1.642   3.637   5.521
    1HEX    C1716403   1.547   3.551   5.504
    1HEX    O1816404   1.541   3.467   5.416
    1HEX    C1916405   1.440   3.561   5.609
    1HEX    C1A16406   1.382   3.698   5.640
    1HEX    H1D16407   2.162   3.535   4.617
    1HEX    H1E16408   2.054   3.401   4.660
    1HEX    H1F16409   2.054   3.674   4.796
    1HEX    H1G16410   2.139   3.533   4.861
    1HEX    H1H16411   1.693   3.464   4.902
    1HEX    H1I16412   1.635   3.617   4.859
    1HEX    H1J16413   1.768   3.796   5.018
    1HEX    H1K16414   1.740   3.783   5.184
    1HEX    H1M16415   1.377   4.017   5.256
    1HEX    H1N16416   1.347   3.982   5.089
    1HEX    H1O16417   1.459   4.189   5.075
    1HEX    H1P16418   1.590   4.072   5.043
    1HEX    H1R16419   1.468   3.612   5.058
    1HEX    H1S16420   1.525   3.578   5.214
    1HEX    H1T16421   1.537   3.194   4.906
    1HEX    H1U16422   1.363   3.216   4.913
    1HEX    H1V16423   1.360   3.073   5.085
    1HEX    H1W16424   1.425   3.205   5.183
    1HEX    H1Y16425   1.821   3.432   5.092
    1HEX    H1Z16426   1.729   3.470   5.228
    1HEX    H2016427   1.995   3.678   5.316
    1HEX    H2116428   2.018   3.506   5.286
    1HEX    H2216429   1.781   3.368   5.390
    1HEX    H2316430   1.802   3.403   5.553
    1HEX    H2416431   2.151   3.148   5.321
    1HEX    H2516432   2.151   3.113   5.489
    1HEX    H2616433   2.327   3.254   5.463
    1HEX    H2716434   2.208   3.362   5.537
    1HEX    H2916435   1.994   3.718   5.524
    1HEX    H2A16436   2.038   3.555   5.572
    1HEX    H2B16437   1.655   3.740   5.713
    1HEX    H2C16438   1.725   3.834   5.838
    1HEX    H2D16439   1.622   3.671   5.953
    1HEX    H2E16440   1.792   3.639   5.945
    1HEX    H2G16441   1.689   3.644   5.330
    1HEX    H2H16442   1.775   3.752   5.425
    1HEX    H2I16443   1.474   3.518   5.699
    1HEX    H2J16444   1.361   3.497   5.576
    1HEX    H2K16445   1.457   3.766   5.676
    1HEX    H2M16446   1.316   3.688   5.724
    1STR    S0016447   1.938   3.597   4.578
    1STR    S0E16448   1.600   4.158   5.263
    1STR    S0M16449   1.591   3.045   5.109
    1STR    S0X16450   2.266   3.421   5.308
    1STR    S1416451   1.655   3.464   5.852
    1STR    S1B16452   1.299   3.769   5.498
    1HEX    C0116453   2.069   5.242   6.709
    1HEX    C0216454   1.970   5.327   6.787
    1HEX    C0316455   1.831   5.269   6.787
    1HEX    O0416456   1.813   5.149   6.765
    1HEX    O0516457   1.739   5.362   6.816
    1HEX    C0616458   1.602   5.331   6.805
    1HEX    C0716459   1.514   5.332   6.929
    1HEX    C0816460   1.520   5.467   6.996
    1HEX    O0916461   1.449   5.568   6.929
    1HEX    C0A16462   1.517   5.668   6.882
    1HEX    O0B16463   1.613   5.658   6.806
    1HEX    C0C16464   1.477   5.796   6.950
    1HEX    C0D16465   1.490   5.787   7.103
    1HEX    C0F16466   1.367   5.314   6.886
    1HEX    O0G16467   1.314   5.192   6.929
    1HEX    C0H16468   1.285   5.096   6.843
    1HEX    O0I16469   1.254   5.110   6.725
    1HEX    C0J16470   1.299   4.961   6.905
    1HEX    C0K16471   1.408   4.873   6.840
    1HEX    C0N16472   1.555   5.225   7.031
    1HEX    O0O16473   1.691   5.189   7.035
    1HEX    C0P16474   1.787   5.282   7.077
    1HEX    C0Q16475   1.821   5.285   0.033
    1HEX    C0R16476   1.840   5.141   0.077
    1HEX    O0S16477   1.942   5.078   0.000
    1HEX    C0T16478   2.053   5.037   0.058
    1HEX    O0U16479   2.075   5.030   0.178
    1HEX    C0V16480   2.154   4.992   7.146
    1HEX    C0W16481   2.169   5.094   7.032
    1HEX    C0Y16482   1.954   5.360   0.034
    1HEX    O0Z16483   2.014   5.327   0.154
    1HEX    C1016484   1.987   5.403   0.252
    1HEX    O1116485   1.970   5.525   0.242
    1HEX    C1216486   1.964   5.320   0.376
    1HEX    C1316487   2.039   5.365   0.501
    1HEX    C1516488   1.712   5.362   0.112
    1HEX    O1616489   1.661   5.308   0.234
    1HEX    C1716490   1.563   5.217   0.229
    1HEX    O1816491   1.536   5.151   0.131
    1HEX    C1916492   1.483   5.200   0.356
    1HEX    C1A16493   1.334   5.162   0.335
    1HEX    H1D16494   2.170   5.268   6.736
    1HEX    H1E16495   2.049   5.139   6.736
    1HEX    H1F16496   1.967   5.430   6.752
    1HEX    H1G16497   2.004   5.329   6.890
    1HEX    H1H16498   1.586   5.236   6.755
    1HEX    H1I16499   1.565   5.412   6.745
    1HEX    H1J16500   1.622   5.496   7.011
    1HEX    H1K16501   1.475   5.461   7.094
    1HEX    H1M16502   1.372   5.811   6.925
    1HEX    H1N16503   1.526   5.881   6.905
    1HEX    H1O16504   1.406   5.725   7.125
    1HEX    H1P16505   1.469   5.881   7.154
    1HEX    H1R16506   1.355   5.330   6.780
    1HEX    H1S16507   1.303   5.390   6.928
    1HEX    H1T16508   1.201   4.913   6.898
    1HEX    H1U16509   1.311   4.981   7.011
    1HEX    H1V16510   1.381   4.867   6.735
    1HEX    H1W16511   1.403   4.771   6.878
    1HEX    H1Y16512   1.510   5.130   7.012
    1HEX    H1Z16513   1.511   5.251   7.126
    1HEX    H2016514   1.780   5.383   7.039
    1HEX    H2116515   1.873   5.239   7.029
    1HEX    H2216516   1.749   5.089   0.058
    1HEX    H2316517   1.857   5.138   0.184
    1HEX    H2416518   2.118   4.897   7.107
    1HEX    H2516519   2.248   4.974   0.007
    1HEX    H2616520   2.090   5.169   7.035
    1HEX    H2716521   2.159   5.046   6.937
    1HEX    H2916522   1.941   5.467   0.017
    1HEX    H2A16523   2.024   5.328   7.148
    1HEX    H2B16524   1.987   5.216   0.354
    1HEX    H2C16525   1.857   5.318   0.392
    1HEX    H2D16526   2.142   5.332   0.497
    1HEX    H2E16527   1.989   5.318   0.584
    1HEX    H2G16528   1.630   5.382   0.047
    1HEX    H2H16529   1.747   5.462   0.138
    1HEX    H2I16530   1.496   5.286   0.419
    1HEX    H2J16531   1.531   5.118   0.408
    1HEX    H2K16532   1.290   5.137   0.431
    1HEX    H2M16533   1.327   5.073   0.275
    1STR    S0016534   2.058   5.253   6.530
    1STR    S0E16535   1.618   5.693   0.004
    1STR    S0M16536   1.578   4.942   6.844
    1STR    S0X16537   2.327   5.180   7.044
    1STR    S1416538   2.027   5.544   0.528
    1STR    S1B16539   1.224   5.279   0.253
    1HEX    C0116540   2.112   5.443   1.301
    1HEX    C0216541   2.008   5.359   1.369
    1HEX    C0316542   1.927   5.261   1.291
    1HEX    O0416543   1.972   5.154   1.251
    1HEX    O0516544   1.801   5.298   1.289
    1HEX    C0616545   1.702   5.200   1.310
    1HEX    C0716546   1.635   5.222   1.447
    1HEX    C0816547   1.585   5.363   1.465
    1HEX    O0916548   1.446   5.387   1.455
    1HEX    C0A16549   1.387   5.511   1.457
    1HEX    O0B16550   1.272   5.523   1.418
    1HEX    C0C16551   1.461   5.638   1.504
    1HEX    C0D16552   1.596   5.631   1.575
    1HEX    C0F16553   1.512   5.132   1.449
    1HEX    O0G16554   1.541   4.996   1.425
    1HEX    C0H16555   1.505   4.939   1.310
    1HEX    O0I16556   1.472   5.000   1.208
    1HEX    C0J16557   1.507   4.788   1.313
    1HEX    C0K16558   1.495   4.725   1.452
    1HEX    C0N16559   1.726   5.191   1.569
    1HEX    O0O16560   1.853   5.256   1.580
    1HEX    C0P16561   1.880   5.381   1.647
    1HEX    C0Q16562   1.867   5.393   1.799
    1HEX    C0R16563   1.904   5.260   1.861
    1HEX    O0S16564   2.041   5.253   1.889
    1HEX    C0T16565   2.088   5.140   1.936
    1HEX    O0U16566   2.043   5.029   1.911
    1HEX    C0V16567   2.209   5.161   2.024
    1HEX    C0W16568   2.238   5.309   2.053
    1HEX    C0Y16569   1.958   5.506   1.851
    1HEX    O0Z16570   1.954   5.516   1.992
    1HEX    C1016571   1.942   5.634   2.051
    1HEX    O1116572   1.930   5.743   1.995
    1HEX    C1216573   1.940   5.627   2.203
    1HEX    C1316574   1.944   5.485   2.257
    1HEX    C1516575   1.724   5.434   1.826
    1HEX    O1616576   1.670   5.416   1.953
    1HEX    C1716577   1.593   5.312   1.971
    1HEX    O1816578   1.598   5.208   1.906
    1HEX    C1916579   1.490   5.334   2.079
    1HEX    C1A16580   1.400   5.451   2.048
    1HEX    H1D16581   2.182   5.384   1.243
    1HEX    H1E16582   2.166   5.501   1.375
    1HEX    H1F16583   1.939   5.423   1.420
    1HEX    H1G16584   2.052   5.301   1.447
    1HEX    H1H16585   1.741   5.099   1.302
    1HEX    H1I16586   1.629   5.205   1.230
    1HEX    H1J16587   1.637   5.427   1.397
    1HEX    H1K16588   1.611   5.389   1.565
    1HEX    H1M16589   1.391   5.686   1.571
    1HEX    H1N16590   1.467   5.705   1.419
    1HEX    H1O16591   1.671   5.574   1.525
    1HEX    H1P16592   1.580   5.599   1.676
    1HEX    H1R16593   1.438   5.167   1.377
    1HEX    H1S16594   1.465   5.142   1.545
    1HEX    H1T16595   1.596   4.753   1.261
    1HEX    H1U16596   1.421   4.758   1.253
    1HEX    H1V16597   1.454   4.625   1.444
    1HEX    H1W16598   1.429   4.781   1.517
    1HEX    H1Y16599   1.753   5.088   1.555
    1HEX    H1Z16600   1.672   5.191   1.663
    1HEX    H2016601   1.830   5.464   1.599
    1HEX    H2116602   1.986   5.398   1.630
    1HEX    H2216603   1.873   5.178   1.798
    1HEX    H2316604   1.852   5.249   1.954
    1HEX    H2416605   2.295   5.108   1.983
    1HEX    H2516606   2.183   5.110   2.117
    1HEX    H2616607   2.279   5.315   2.154
    1HEX    H2716608   2.147   5.369   2.054
    1HEX    H2916609   1.932   5.599   1.803
    1HEX    H2A16610   2.061   5.490   1.823
    1HEX    H2B16611   1.852   5.678   2.240
    1HEX    H2C16612   2.026   5.683   2.237
    1HEX    H2D16613   1.959   5.486   2.364
    1HEX    H2E16614   2.024   5.428   2.212
    1HEX    H2G16615   1.661   5.385   1.755
    1HEX    H2H16616   1.716   5.539   1.809
    1HEX    H2I16617   1.538   5.363   2.171
    1HEX    H2J16618   1.438   5.241   2.097
    1HEX    H2K16619   1.463   5.535   2.029
    1HEX    H2M16620   1.337   5.472   2.132
    1STR    S0016621   2.030   5.561   1.197
    1STR    S0E16622   1.700   5.774   1.566
    1STR    S0M16623   1.658   4.711   1.526
    1STR    S0X16624   2.358   5.388   1.944
    1STR    S1416625   1.787   5.406   2.223
    1STR    S1B16626   1.289   5.431   1.911
    1HEX    C0116627   2.206   5.291   3.056
    1HEX    C0216628   2.098   5.394   3.093
    1HEX    C0316629   1.960   5.341   3.134
    1HEX    O0416630   1.946   5.225   3.170
    1HEX    O0516631   1.863   5.433   3.117
    1HEX    C0616632   1.726   5.407   3.143
    1HEX    C0716633   1.680   5.430   3.290
    1HEX    C0816634   1.722   5.567   3.340
    1HEX    O0916635   1.681   5.662   3.243
    1HEX    C0A16636   1.568   5.730   3.259
    1HEX    O0B16637   1.506   5.745   3.364
    1HEX    C0C16638   1.521   5.791   3.130
    1HEX    C0D16639   1.613   5.905   3.086
    1HEX    C0F16640   1.528   5.433   3.310
    1HEX    O0G16641   1.473   5.317   3.262
    1HEX    C0H16642   1.429   5.315   3.138
    1HEX    O0I16643   1.415   5.412   3.063
    1HEX    C0J16644   1.408   5.177   3.094
    1HEX    C0K16645   1.438   5.072   3.198
    1HEX    C0N16646   1.729   5.313   3.373
    1HEX    O0O16647   1.838   5.338   3.454
    1HEX    C0P16648   1.816   5.365   3.589
    1HEX    C0Q16649   1.726   5.271   3.674
    1HEX    C0R16650   1.761   5.125   3.652
    1HEX    O0S16651   1.899   5.101   3.638
    1HEX    C0T16652   1.937   4.974   3.635
    1HEX    O0U16653   1.879   4.883   3.692
    1HEX    C0V16654   2.062   4.945   3.555
    1HEX    C0W16655   2.156   5.064   3.544
    1HEX    C0Y16656   1.758   5.302   3.817
    1HEX    O0Z16657   1.734   5.191   3.901
    1HEX    C1016658   1.669   5.202   4.014
    1HEX    O1116659   1.620   5.306   4.056
    1HEX    C1216660   1.661   5.070   4.089
    1HEX    C1316661   1.706   4.945   4.009
    1HEX    C1516662   1.576   5.297   3.653
    1HEX    O1616663   1.500   5.286   3.771
    1HEX    C1716664   1.444   5.170   3.804
    1HEX    O1816665   1.472   5.059   3.759
    1HEX    C1916666   1.340   5.190   3.912
    1HEX    C1A16667   1.210   5.250   3.859
    1HEX    H1D16668   2.290   5.346   3.016
    1HEX    H1E16669   2.237   5.237   3.144
    1HEX    H1F16670   2.084   5.467   3.013
    1HEX    H1G16671   2.138   5.446   3.176
    1HEX    H1H16672   1.702   5.306   3.109
    1HEX    H1I16673   1.670   5.474   3.077
    1HEX    H1J16674   1.827   5.574   3.362
    1HEX    H1K16675   1.674   5.584   3.435
    1HEX    H1M16676   1.419   5.826   3.145
    1HEX    H1N16677   1.517   5.712   3.055
    1HEX    H1O16678   1.569   5.961   3.004
    1HEX    H1P16679   1.708   5.864   3.053
    1HEX    H1R16680   1.475   5.514   3.263
    1HEX    H1S16681   1.500   5.440   3.414
    1HEX    H1T16682   1.484   5.170   3.021
    1HEX    H1U16683   1.311   5.163   3.047
    1HEX    H1V16684   1.389   4.980   3.170
    1HEX    H1W16685   1.402   5.098   3.297
    1HEX    H1Y16686   1.768   5.238   3.309
    1HEX    H1Z16687   1.650   5.257   3.419
    1HEX    H2016688   1.788   5.467   3.600
    1HEX    H2116689   1.918   5.362   3.627
    1HEX    H2216690   1.709   5.097   3.563
    1HEX    H2316691   1.717   5.057   3.724
    1HEX    H2416692   2.031   4.911   3.457
    1HEX    H2516693   2.112   4.863   3.605
    1HEX    H2616694   2.255   5.034   3.512
    1HEX    H2716695   2.164   5.110   3.642
    1HEX    H2916696   1.712   5.394   3.850
    1HEX    H2A16697   1.863   5.318   3.814
    1HEX    H2B16698   1.556   5.058   4.116
    1HEX    H2C16699   1.715   5.078   4.183
    1HEX    H2D16700   1.657   4.946   3.912
    1HEX    H2E16701   1.671   4.858   4.062
    1HEX    H2G16702   1.530   5.232   3.578
    1HEX    H2H16703   1.562   5.399   3.618
    1HEX    H2I16704   1.381   5.253   3.990
    1HEX    H2J16705   1.319   5.093   3.956
    1HEX    H2K16706   1.137   5.253   3.938
    1HEX    H2M16707   1.167   5.185   3.782
    1STR    S0016708   2.164   5.173   2.928
    1STR    S0E16709   1.643   6.017   3.225
    1STR    S0M16710   1.616   5.056   3.202
    1STR    S0X16711   2.092   5.183   3.423
    1STR    S1416712   1.885   4.917   3.980
    1STR    S1B16713   1.233   5.418   3.795
    1HEX    C0116714   1.871   5.130   4.797
    1HEX    C0216715   1.765   5.039   4.857
    1HEX    C0316716   1.627   5.086   4.822
    1HEX    O0416717   1.546   5.018   4.761
    1HEX    O0516718   1.610   5.208   4.864
    1HEX    C0616719   1.484   5.263   4.890
    1HEX    C0716720   1.472   5.277   5.044
    1HEX    C0816721   1.486   5.422   5.086
    1HEX    O0916722   1.374   5.491   5.138
    1HEX    C0A16723   1.361   5.494   5.269
    1HEX    O0B16724   1.383   5.399   5.343
    1HEX    C0C16725   1.350   5.634   5.323
    1HEX    C0D16726   1.461   5.658   5.424
    1HEX    C0F16727   1.335   5.221   5.084
    1HEX    O0G16728   1.336   5.084   5.051
    1HEX    C0H16729   1.249   5.036   4.963
    1HEX    O0I16730   1.150   5.096   4.923
    1HEX    C0J16731   1.285   4.898   4.912
    1HEX    C0K16732   1.344   4.809   5.021
    1HEX    C0N16733   1.584   5.203   5.119
    1HEX    O0O16734   1.716   5.252   5.102
    1HEX    C0P16735   1.780   5.340   5.195
    1HEX    C0Q16736   1.821   5.283   5.329
    1HEX    C0R16737   1.872   5.141   5.302
    1HEX    O0S16738   1.976   5.145   5.206
    1HEX    C0T16739   2.102   5.143   5.245
    1HEX    O0U16740   2.142   5.112   5.358
    1HEX    C0V16741   2.195   5.179   5.133
    1HEX    C0W16742   2.185   5.326   5.092
    1HEX    C0Y16743   1.934   5.370   5.381
    1HEX    O0Z16744   1.979   5.305   5.496
    1HEX    C1016745   2.032   5.372   5.591
    1HEX    O1116746   2.046   5.495   5.588
    1HEX    C1216747   2.057   5.280   5.708
    1HEX    C1316748   2.114   5.335   5.840
    1HEX    C1516749   1.712   5.290   5.436
    1HEX    O1616750   1.739   5.183   5.523
    1HEX    C1716751   1.654   5.117   5.597
    1HEX    O1816752   1.697   5.059   5.696
    1HEX    C1916753   1.505   5.120   5.562
    1HEX    C1A16754   1.472   5.094   5.416
    1HEX    H1D16755   1.954   5.066   4.771
    1HEX    H1E16756   1.832   5.174   4.705
    1HEX    H1F16757   1.776   5.030   4.965
    1HEX    H1G16758   1.777   4.940   4.815
    1HEX    H1H16759   1.406   5.203   4.845
    1HEX    H1I16760   1.478   5.358   4.838
    1HEX    H1J16761   1.541   5.476   5.010
    1HEX    H1K16762   1.554   5.426   5.168
    1HEX    H1M16763   1.259   5.651   5.378
    1HEX    H1N16764   1.353   5.708   5.243
    1HEX    H1O16765   1.435   5.609   5.515
    1HEX    H1P16766   1.475   5.764   5.442
    1HEX    H1R16767   1.257   5.277   5.032
    1HEX    H1S16768   1.314   5.228   5.189
    1HEX    H1T16769   1.349   4.907   4.826
    1HEX    H1U16770   1.192   4.854   4.877
    1HEX    H1V16771   1.336   4.704   4.994
    1HEX    H1W16772   1.283   4.824   5.110
    1HEX    H1Y16773   1.584   5.098   5.092
    1HEX    H1Z16774   1.567   5.205   5.222
    1HEX    H2016775   1.745   5.441   5.200
    1HEX    H2116776   1.875   5.356   5.148
    1HEX    H2216777   1.792   5.079   5.265
    1HEX    H2316778   1.908   5.095   5.394
    1HEX    H2416779   2.164   5.116   5.049
    1HEX    H2516780   2.296   5.150   5.154
    1HEX    H2616781   2.201   5.329   4.985
    1HEX    H2716782   2.086   5.366   5.110
    1HEX    H2916783   1.900   5.472   5.399
    1HEX    H2A16784   2.017   5.377   5.313
    1HEX    H2B16785   2.120   5.199   5.670
    1HEX    H2C16786   1.960   5.234   5.727
    1HEX    H2D16787   2.220   5.320   5.847
    1HEX    H2E16788   2.071   5.280   5.923
    1HEX    H2G16789   1.614   5.298   5.395
    1HEX    H2H16790   1.721   5.380   5.496
    1HEX    H2I16791   1.461   5.214   5.592
    1HEX    H2J16792   1.456   5.045   5.625
    1HEX    H2K16793   1.556   5.053   5.363
    1HEX    H2M16794   1.450   5.188   5.374
    1STR    S0016795   1.937   5.258   4.907
    1STR    S0E16796   1.619   5.599   5.365
    1STR    S0M16797   1.519   4.843   5.059
    1STR    S0X16798   2.306   5.439   5.163
    1STR    S1416799   2.085   5.509   5.874
    1STR    S1B16800   1.322   5.006   5.374
    1HEX    C0116801   3.780   6.906   6.606
    1HEX    C0216802   3.690   6.807   6.676
    1HEX    C0316803   3.555   6.868   6.701
    1HEX    O0416804   3.452   6.806   6.677
    1HEX    O0516805   3.568   6.995   6.732
    1HEX    C0616806   3.455   7.078   6.725
    1HEX    C0716807   3.426   7.137   6.859
    1HEX    C0816808   3.492   0.085   6.865
    1HEX    O0916809   3.456   0.171   6.757
    1HEX    C0A16810   3.350   0.249   6.765
    1HEX    O0B16811   3.272   0.255   6.859
    1HEX    C0C16812   3.341   0.348   6.652
    1HEX    C0D16813   3.444   0.461   6.669
    1HEX    C0F16814   3.276   7.149   6.869
    1HEX    O0G16815   3.227   7.022   6.899
    1HEX    C0H16816   3.191   6.934   6.807
    1HEX    O0I16817   3.157   6.960   6.691
    1HEX    C0J16818   3.189   6.795   6.864
    1HEX    C0K16819   3.230   6.786   7.014
    1HEX    C0N16820   3.471   7.041   6.971
    1HEX    O0O16821   3.608   7.033   6.997
    1HEX    C0P16822   3.668   7.126   7.084
    1HEX    C0Q16823   3.626   7.130   0.039
    1HEX    C0R16824   3.609   6.986   0.082
    1HEX    O0S16825   3.734   6.922   0.089
    1HEX    C0T16826   3.733   6.792   0.107
    1HEX    O0U16827   3.633   6.721   0.100
    1HEX    C0V16828   3.866   6.733   0.145
    1HEX    C0W16829   3.967   6.830   0.207
    1HEX    C0Y16830   3.740   0.011   0.115
    1HEX    O0Z16831   3.689   0.065   0.234
    1HEX    C1016832   3.762   0.146   0.307
    1HEX    O1116833   3.882   0.165   0.297
    1HEX    C1216834   3.673   0.223   0.401
    1HEX    C1316835   3.647   0.170   0.539
    1HEX    C1516836   3.499   0.024   0.053
    1HEX    O1616837   3.427   7.189   0.171
    1HEX    C1716838   3.327   7.101   0.170
    1HEX    O1816839   3.301   7.022   0.081
    1HEX    C1916840   3.235   7.116   0.287
    1HEX    C1A16841   3.201   0.073   0.311
    1HEX    H1D16842   3.793   6.998   6.661
    1HEX    H1E16843   3.877   6.862   6.584
    1HEX    H1F16844   3.730   6.780   6.773
    1HEX    H1G16845   3.674   6.718   6.616
    1HEX    H1H16846   3.374   7.029   6.674
    1HEX    H1I16847   3.472   7.161   6.661
    1HEX    H1J16848   3.600   0.072   6.854
    1HEX    H1K16849   3.475   0.132   6.961
    1HEX    H1M16850   3.240   0.388   6.651
    1HEX    H1N16851   3.355   0.296   6.558
    1HEX    H1O16852   3.420   0.541   6.599
    1HEX    H1P16853   3.543   0.427   6.646
    1HEX    H1R16854   3.228   0.001   6.781
    1HEX    H1S16855   3.255   0.020   6.955
    1HEX    H1T16856   3.251   6.736   6.798
    1HEX    H1U16857   3.089   6.755   6.850
    1HEX    H1V16858   3.156   6.730   7.069
    1HEX    H1W16859   3.242   6.879   7.067
    1HEX    H1Y16860   3.449   6.940   6.937
    1HEX    H1Z16861   3.410   7.046   7.059
    1HEX    H2016862   3.683   0.035   7.042
    1HEX    H2116863   3.764   7.080   7.094
    1HEX    H2216864   3.542   6.931   0.015
    1HEX    H2316865   3.562   6.981   0.178
    1HEX    H2416866   3.906   6.684   0.057
    1HEX    H2516867   3.841   6.657   0.218
    1HEX    H2616868   4.005   6.793   0.300
    1HEX    H2716869   3.923   6.928   0.228
    1HEX    H2916870   3.778   0.094   0.056
    1HEX    H2A16871   3.825   7.136   0.135
    1HEX    H2B16872   3.577   0.223   0.353
    1HEX    H2C16873   3.712   0.325   0.408
    1HEX    H2D16874   3.642   0.254   0.607
    1HEX    H2E16875   3.731   0.109   0.569
    1HEX    H2G16876   3.433   0.026   7.157
    1HEX    H2H16877   3.532   0.125   0.061
    1HEX    H2I16878   3.284   7.073   0.372
    1HEX    H2J16879   3.146   7.056   0.269
    1HEX    H2K16880   3.265   0.140   0.255
    1HEX    H2M16881   3.214   0.097   0.416
    1STR    S0016882   3.699   6.954   6.457
    1STR    S0E16883   3.452   0.532   6.836
    1STR    S0M16884   3.380   6.694   7.031
    1STR    S0X16885   4.107   6.847   0.098
    1STR    S1416886   3.483   0.090   0.545
    1STR    S1B16887   3.030   0.108   0.267
    1HEX    C0116888   3.962   7.079   1.326
    1HEX    C0216889   3.850   7.000   1.402
    1HEX    C0316890   3.709   6.982   1.351
    1HEX    O0416891   3.661   6.869   1.346
    1HEX    O0516892   3.643   7.098   1.334
    1HEX    C0616893   3.510   7.100   1.284
    1HEX    C0716894   3.399   7.106   1.391
    1HEX    C0816895   3.387   0.057   1.448
    1HEX    O0916896   3.305   0.147   1.376
    1HEX    C0A16897   3.359   0.241   1.300
    1HEX    O0B16898   3.464   0.230   1.236
    1HEX    C0C16899   3.283   0.372   1.307
    1HEX    C0D16900   3.247   0.422   1.450
    1HEX    C0F16901   3.263   7.072   1.325
    1HEX    O0G16902   3.186   6.988   1.408
    1HEX    C0H16903   3.125   6.885   1.352
    1HEX    O0I16904   3.057   6.890   1.250
    1HEX    C0J16905   3.154   6.757   1.426
    1HEX    C0K16906   3.138   6.632   1.339
    1HEX    C0N16907   3.433   7.000   1.500
    1HEX    O0O16908   3.555   7.013   1.573
    1HEX    C0P16909   3.579   7.113   1.671
    1HEX    C0Q16910   3.542   7.072   1.812
    1HEX    C0R16911   3.587   6.928   1.837
    1HEX    O0S16912   3.727   6.911   1.827
    1HEX    C0T16913   3.786   6.816   1.900
    1HEX    O0U16914   3.736   6.749   1.989
    1HEX    C0V16915   3.929   6.791   1.862
    1HEX    C0W16916   4.004   6.921   1.853
    1HEX    C0Y16917   3.595   7.173   1.914
    1HEX    O0Z16918   3.706   7.127   1.985
    1HEX    C1016919   3.743   0.009   2.090
    1HEX    O1116920   3.716   0.127   2.108
    1HEX    C1216921   3.820   7.118   2.190
    1HEX    C1316922   3.767   6.976   2.209
    1HEX    C1516923   3.392   7.088   1.822
    1HEX    O1616924   3.329   7.021   1.929
    1HEX    C1716925   3.282   6.899   1.908
    1HEX    O1816926   3.302   6.832   1.808
    1HEX    C1916927   3.183   6.857   2.013
    1HEX    C1A16928   3.040   6.881   1.964
    1HEX    H1D16929   4.015   7.143   1.396
    1HEX    H1E16930   4.038   7.008   1.294
    1HEX    H1F16931   3.826   7.046   1.496
    1HEX    H1G16932   3.886   6.902   1.425
    1HEX    H1H16933   3.501   7.011   1.226
    1HEX    H1I16934   3.502   7.183   1.214
    1HEX    H1J16935   3.486   0.102   1.456
    1HEX    H1K16936   3.346   0.053   1.548
    1HEX    H1M16937   3.194   0.365   1.245
    1HEX    H1N16938   3.348   0.447   1.261
    1HEX    H1O16939   3.143   0.402   1.469
    1HEX    H1P16940   3.260   0.530   1.453
    1HEX    H1R16941   3.282   7.023   1.230
    1HEX    H1S16942   3.202   7.156   1.296
    1HEX    H1T16943   3.094   6.751   1.516
    1HEX    H1U16944   3.257   6.765   1.459
    1HEX    H1V16945   3.182   6.649   1.240
    1HEX    H1W16946   3.034   6.605   1.325
    1HEX    H1Y16947   3.445   6.906   1.447
    1HEX    H1Z16948   3.350   6.975   1.563
    1HEX    H2016949   3.537   0.019   1.647
    1HEX    H2116950   3.686   7.125   1.668
    1HEX    H2216951   3.542   6.860   1.765
    1HEX    H2316952   3.553   6.895   1.933
    1HEX    H2416953   3.934   6.735   1.769
    1HEX    H2516954   3.973   6.729   1.939
    1HEX    H2616955   3.975   6.988   1.934
    1HEX    H2716956   4.108   6.894   1.862
    1HEX    H2916957   3.519   0.005   1.990
    1HEX    H2A16958   3.616   0.078   1.868
    1HEX    H2B16959   3.813   7.175   2.281
    1HEX    H2C16960   3.923   7.116   2.159
    1HEX    H2D16961   3.840   6.914   2.259
    1HEX    H2E16962   3.746   6.934   2.114
    1HEX    H2G16963   3.345   7.054   1.734
    1HEX    H2H16964   3.367   0.004   1.823
    1HEX    H2I16965   3.203   6.904   2.108
    1HEX    H2J16966   3.199   6.752   2.031
    1HEX    H2K16967   2.971   6.866   2.048
    1HEX    H2M16968   3.021   6.803   1.891
    1STR    S0016969   3.918   7.183   1.184
    1STR    S0E16970   3.345   0.355   1.588
    1STR    S0M16971   3.226   6.496   1.418
    1STR    S0X16972   3.974   6.993   1.692
    1STR    S1416973   3.614   6.962   2.301
    1STR    S1B16974   3.006   7.043   1.888
    1HEX    C0116975   3.782   7.063   2.932
    1HEX    C0216976   3.718   6.943   2.998
    1HEX    C0316977   3.571   6.917   2.976
    1HEX    O0416978   3.530   6.803   2.961
    1HEX    O0516979   3.497   7.026   3.002
    1HEX    C0616980   3.361   7.005   3.035
    1HEX    C0716981   3.338   7.036   3.184
    1HEX    C0816982   3.323   7.184   3.202
    1HEX    O0916983   3.199   0.048   3.160
    1HEX    C0A16984   3.160   0.171   3.202
    1HEX    O0B16985   3.049   0.191   3.249
    1HEX    C0C16986   3.259   0.287   3.185
    1HEX    C0D16987   3.384   0.275   3.273
    1HEX    C0F16988   3.206   6.969   3.227
    1HEX    O0G16989   3.228   6.829   3.232
    1HEX    C0H16990   3.165   6.749   3.148
    1HEX    O0I16991   3.072   6.780   3.075
    1HEX    C0J16992   3.223   6.608   3.146
    1HEX    C0K16993   3.263   6.555   3.283
    1HEX    C0N16994   3.451   6.984   3.276
    1HEX    O0O16995   3.578   7.052   3.283
    1HEX    C0P16996   3.605   7.179   3.343
    1HEX    C0Q16997   3.595   0.011   3.494
    1HEX    C0R16998   3.693   7.102   3.555
    1HEX    O0S16999   3.820   7.167   3.548
    1HEX    C0T17000   3.866   0.028   3.661
    1HEX    O0U17001   3.834   7.174   3.770
    1HEX    C0V17002   3.956   0.150   3.646
    1HEX    C0W17003   4.029   0.199   3.774
    1HEX    C0Y17004   3.627   0.155   3.543
    1HEX    O0Z17005   3.624   0.163   3.687
    1HEX    C1017006   3.656   0.273   3.755
    1HEX    O1117007   3.692   0.379   3.706
    1HEX    C1217008   3.636   0.264   3.906
    1HEX    C1317009   3.718   0.160   3.981
    1HEX    C1517010   3.452   7.185   3.537
    1HEX    O1617011   3.450   7.169   3.675
    1HEX    C1717012   3.394   7.063   3.720
    1HEX    O1817013   3.379   6.957   3.660
    1HEX    C1917014   3.331   7.092   3.851
    1HEX    C1A17015   3.266   0.040   3.856
    1HEX    H1D17016   3.709   7.119   2.875
    1HEX    H1E17017   3.859   7.029   2.864
    1HEX    H1F17018   3.716   6.966   3.102
    1HEX    H1G17019   3.774   6.852   2.979
    1HEX    H1H17020   3.329   6.904   3.013
    1HEX    H1I17021   3.298   7.067   2.973
    1HEX    H1J17022   3.405   0.034   3.143
    1HEX    H1K17023   3.336   0.019   3.306
    1HEX    H1M17024   3.201   0.376   3.207
    1HEX    H1N17025   3.283   0.303   3.081
    1HEX    H1O17026   3.447   0.208   3.221
    1HEX    H1P17027   3.360   0.238   3.372
    1HEX    H1R17028   3.126   6.998   3.159
    1HEX    H1S17029   3.176   7.004   3.325
    1HEX    H1T17030   3.307   6.607   3.076
    1HEX    H1U17031   3.145   6.545   3.104
    1HEX    H1V17032   3.242   6.449   3.289
    1HEX    H1W17033   3.205   6.603   3.362
    1HEX    H1Y17034   3.476   6.886   3.236
    1HEX    H1Z17035   3.413   6.956   3.373
    1HEX    H2017036   3.562   0.069   3.288
    1HEX    H2117037   3.711   0.000   3.325
    1HEX    H2217038   3.696   7.008   3.502
    1HEX    H2317039   3.663   7.078   3.656
    1HEX    H2417040   3.897   0.232   3.606
    1HEX    H2517041   4.027   0.127   3.568
    1HEX    H2617042   3.966   0.266   3.831
    1HEX    H2717043   4.115   0.256   3.741
    1HEX    H2917044   3.551   0.220   3.505
    1HEX    H2A17045   3.719   0.193   3.500
    1HEX    H2B17046   3.530   0.250   3.927
    1HEX    H2C17047   3.662   0.362   3.945
    1HEX    H2D17048   3.739   0.189   4.084
    1HEX    H2E17049   3.815   0.144   3.935
    1HEX    H2G17050   3.398   7.108   3.487
    1HEX    H2H17051   3.394   0.083   3.514
    1HEX    H2I17052   3.407   7.083   3.926
    1HEX    H2J17053   3.265   7.010   3.869
    1HEX    H2K17054   3.344   0.112   3.876
    1HEX    H2M17055   3.196   0.050   3.937
    1STR    S0017056   3.864   7.155   3.066
    1STR    S0E17057   3.507   0.404   3.274
    1STR    S0M17058   3.442   6.576   3.310
    1STR    S0X17059   4.092   0.071   3.886
    1STR    S1417060   3.626   0.007   3.985
    1STR    S1B17061   3.184   0.100   3.705
    1HEX    C0117062   3.871   7.065   4.704
    1HEX    C0217063   3.888   7.057   4.854
    1HEX    C0317064   3.752   7.043   4.920
    1HEX    O0417065   3.699   6.933   4.925
    1HEX    O0517066   3.700   7.160   4.958
    1HEX    C0617067   3.558   7.180   4.957
    1HEX    C0717068   3.503   0.041   5.088
    1HEX    C0817069   3.550   0.185   5.106
    1HEX    O0917070   3.501   0.265   4.999
    1HEX    C0A17071   3.387   0.333   5.012
    1HEX    O0B17072   3.316   0.338   5.113
    1HEX    C0C17073   3.356   0.417   4.891
    1HEX    C0D17074   3.453   0.535   4.881
    1HEX    C0F17075   3.350   0.046   5.100
    1HEX    O0G17076   3.295   7.113   5.074
    1HEX    C0H17077   3.271   7.085   4.948
    1HEX    O0I17078   3.286   7.163   4.854
    1HEX    C0J17079   3.232   6.942   4.931
    1HEX    C0K17080   3.240   6.864   5.059
    1HEX    C0N17081   3.545   7.127   5.188
    1HEX    O0O17082   3.676   7.136   5.226
    1HEX    C0P17083   3.708   0.030   5.331
    1HEX    C0Q17084   3.641   7.189   5.459
    1HEX    C0R17085   3.622   7.039   5.476
    1HEX    O0S17086   3.741   6.974   5.441
    1HEX    C0T17087   3.745   6.846   5.461
    1HEX    O0U17088   3.695   6.789   5.556
    1HEX    C0V17089   3.827   6.772   5.361
    1HEX    C0W17090   3.943   6.852   5.307
    1HEX    C0Y17091   3.737   0.053   5.563
    1HEX    O0Z17092   3.658   0.065   5.675
    1HEX    C1017093   3.672   0.167   5.750
    1HEX    O1117094   3.776   0.229   5.769
    1HEX    C1217095   3.543   0.196   5.818
    1HEX    C1317096   3.518   0.092   5.922
    1HEX    C1517097   3.510   0.076   5.461
    1HEX    O1617098   3.427   0.038   5.567
    1HEX    C1717099   3.325   7.150   5.547
    1HEX    O1817100   3.309   7.064   5.461
    1HEX    C1917101   3.217   0.003   5.641
    1HEX    C1A17102   3.193   0.153   5.616
    1HEX    H1D17103   3.968   7.082   4.657
    1HEX    H1E17104   3.829   6.972   4.665
    1HEX    H1F17105   3.938   7.146   4.889
    1HEX    H1G17106   3.949   6.973   4.883
    1HEX    H1H17107   3.512   7.086   4.931
    1HEX    H1I17108   3.530   0.061   4.880
    1HEX    H1J17109   3.658   0.191   5.104
    1HEX    H1K17110   3.518   0.223   5.203
    1HEX    H1M17111   3.254   0.454   4.900
    1HEX    H1N17112   3.361   0.354   4.803
    1HEX    H1O17113   3.415   0.604   4.806
    1HEX    H1P17114   3.552   0.500   4.852
    1HEX    H1R17115   3.302   0.115   5.032
    1HEX    H1S17116   3.318   0.077   5.199
    1HEX    H1T17117   3.290   6.894   4.855
    1HEX    H1U17118   3.130   6.946   4.897
    1HEX    H1V17119   3.181   6.775   5.044
    1HEX    H1W17120   3.197   6.914   5.144
    1HEX    H1Y17121   3.554   7.033   5.137
    1HEX    H1Z17122   3.470   7.102   5.262
    1HEX    H2017123   3.705   0.136   5.307
    1HEX    H2117124   3.811   0.003   5.350
    1HEX    H2217125   3.543   6.996   5.416
    1HEX    H2317126   3.591   7.017   5.576
    1HEX    H2417127   3.759   6.742   5.281
    1HEX    H2517128   3.866   6.686   5.413
    1HEX    H2617129   4.013   6.781   5.269
    1HEX    H2717130   3.988   6.914   5.385
    1HEX    H2917131   3.778   0.150   5.533
    1HEX    H2A17132   3.821   7.176   5.580
    1HEX    H2B17133   3.462   0.199   5.746
    1HEX    H2C17134   3.551   0.294   5.866
    1HEX    H2D17135   3.434   0.124   5.982
    1HEX    H2E17136   3.600   0.100   5.987
    1HEX    H2G17137   3.453   0.080   5.370
    1HEX    H2H17138   3.537   0.178   5.478
    1HEX    H2I17139   3.256   7.172   5.740
    1HEX    H2J17140   3.131   7.131   5.624
    1HEX    H2K17141   3.244   0.183   5.525
    1HEX    H2M17142   3.232   0.217   5.694
    1STR    S0017143   3.764   0.015   4.665
    1STR    S0E17144   3.466   0.623   5.038
    1STR    S0M17145   3.413   6.836   5.100
    1STR    S0X17146   3.895   6.947   5.165
    1STR    S1417147   3.483   7.109   5.870
    1STR    S1B17148   3.020   0.187   5.581
    1HEX    C0117149   3.841   1.595   6.529
    1HEX    C0217150   3.820   1.631   6.675
    1HEX    C0317151   3.681   1.599   6.724
    1HEX    O0417152   3.637   1.484   6.712
    1HEX    O0517153   3.616   1.707   6.770
    1HEX    C0617154   3.475   1.713   6.757
    1HEX    C0717155   3.381   1.709   6.874
    1HEX    C0817156   3.386   1.836   6.950
    1HEX    O0917157   3.304   1.949   6.923
    1HEX    C0A17158   3.325   2.042   7.017
    1HEX    O0B17159   3.390   2.018   7.116
    1HEX    C0C17160   3.270   2.182   7.001
    1HEX    C0D17161   3.308   2.269   7.125
    1HEX    C0F17162   3.236   1.685   6.830
    1HEX    O0G17163   3.226   1.556   6.775
    1HEX    C0H17164   3.108   1.500   6.761
    1HEX    O0I17165   3.001   1.561   6.767
    1HEX    C0J17166   3.118   1.354   6.721
    1HEX    C0K17167   3.173   1.262   6.829
    1HEX    C0N17168   3.421   1.594   6.963
    1HEX    O0O17169   3.556   1.564   6.985
    1HEX    C0P17170   3.639   1.658   7.045
    1HEX    C0Q17171   3.675   1.622   7.186
    1HEX    C0R17172   3.702   1.475   7.190
    1HEX    O0S17173   3.784   1.439   7.078
    1HEX    C0T17174   3.915   1.428   7.089
    1HEX    O0U17175   3.978   1.415   0.003
    1HEX    C0V17176   3.982   1.434   6.954
    1HEX    C0W17177   4.057   1.566   6.925
    1HEX    C0Y17178   3.800   1.688   0.041
    1HEX    O0Z17179   3.841   1.631   0.163
    1HEX    C1017180   3.810   1.693   0.268
    1HEX    O1117181   3.785   1.813   0.270
    1HEX    C1217182   3.784   1.598   0.383
    1HEX    C1317183   3.866   1.619   0.510
    1HEX    C1517184   3.558   1.676   0.076
    1HEX    O1617185   3.546   1.634   0.208
    1HEX    C1717186   3.471   1.530   0.228
    1HEX    O1817187   3.511   1.416   0.233
    1HEX    C1917188   3.329   1.567   0.258
    1HEX    C1A17189   3.229   1.542   0.147
    1HEX    H1D17190   3.946   1.578   6.510
    1HEX    H1E17191   3.787   1.504   6.504
    1HEX    H1F17192   3.844   1.735   6.696
    1HEX    H1G17193   3.884   1.567   6.733
    1HEX    H1H17194   3.445   1.626   6.702
    1HEX    H1I17195   3.455   1.804   6.703
    1HEX    H1J17196   3.485   1.876   6.934
    1HEX    H1K17197   3.374   1.805   7.054
    1HEX    H1M17198   3.163   2.182   6.991
    1HEX    H1N17199   3.307   2.223   6.907
    1HEX    H1O17200   3.247   2.229   0.014
    1HEX    H1P17201   3.269   2.368   7.111
    1HEX    H1R17202   3.203   1.760   6.759
    1HEX    H1S17203   3.170   1.691   6.915
    1HEX    H1T17204   3.177   1.341   6.631
    1HEX    H1U17205   3.018   1.322   6.695
    1HEX    H1V17206   3.146   1.161   6.800
    1HEX    H1W17207   3.119   1.281   6.922
    1HEX    H1Y17208   3.401   1.510   6.901
    1HEX    H1Z17209   3.359   1.586   7.050
    1HEX    H2017210   3.603   1.758   7.042
    1HEX    H2117211   3.726   1.654   6.983
    1HEX    H2217212   3.605   1.435   7.182
    1HEX    H2317213   3.739   1.439   0.095
    1HEX    H2417214   3.907   1.412   6.879
    1HEX    H2517215   4.054   1.353   6.954
    1HEX    H2617216   4.103   1.565   6.827
    1HEX    H2717217   4.135   1.576   6.994
    1HEX    H2917218   3.794   1.797   0.039
    1HEX    H2A17219   3.879   1.661   7.166
    1HEX    H2B17220   3.793   1.496   0.348
    1HEX    H2C17221   3.678   1.604   0.407
    1HEX    H2D17222   3.957   1.560   0.500
    1HEX    H2E17223   3.808   1.576   0.592
    1HEX    H2G17224   3.464   1.661   0.025
    1HEX    H2H17225   3.575   1.783   0.079
    1HEX    H2I17226   3.329   1.673   0.278
    1HEX    H2J17227   3.301   1.515   0.347
    1HEX    H2K17228   3.202   1.439   0.135
    1HEX    H2M17229   3.272   1.569   0.051
    1STR    S0017230   3.787   1.732   6.423
    1STR    S0E17231   3.483   2.273   0.003
    1STR    S0M17232   3.354   1.261   6.854
    1STR    S0X17233   3.962   1.716   6.941
    1STR    S1417234   3.916   1.789   0.555
    1STR    S1B17235   3.088   1.649   0.184
    1HEX    C0117236   3.878   1.714   1.200
    1HEX    C0217237   3.855   1.569   1.162
    1HEX    C0317238   3.716   1.516   1.190
    1HEX    O0417239   3.688   1.401   1.157
    1HEX    O0517240   3.639   1.602   1.257
    1HEX    C0617241   3.509   1.559   1.294
    1HEX    C0717242   3.465   1.620   1.428
    1HEX    C0817243   3.437   1.767   1.418
    1HEX    O0917244   3.310   1.800   1.467
    1HEX    C0A17245   3.264   1.921   1.503
    1HEX    O0B17246   3.156   1.931   1.559
    1HEX    C0C17247   3.343   2.050   1.473
    1HEX    C0D17248   3.496   2.051   1.489
    1HEX    C0F17249   3.341   1.541   1.472
    1HEX    O0G17250   3.367   1.403   1.492
    1HEX    C0H17251   3.266   1.318   1.478
    1HEX    O0I17252   3.162   1.336   1.416
    1HEX    C0J17253   3.286   1.188   1.552
    1HEX    C0K17254   3.255   1.202   1.703
    1HEX    C0N17255   3.566   1.604   1.539
    1HEX    O0O17256   3.699   1.654   1.525
    1HEX    C0P17257   3.737   1.777   1.586
    1HEX    C0Q17258   3.716   1.792   1.739
    1HEX    C0R17259   3.768   1.667   1.814
    1HEX    O0S17260   3.875   1.695   1.905
    1HEX    C0T17261   3.918   1.603   1.989
    1HEX    O0U17262   3.871   1.493   2.001
    1HEX    C0V17263   4.040   1.640   2.071
    1HEX    C0W17264   4.040   1.787   2.112
    1HEX    C0Y17265   3.796   1.915   1.782
    1HEX    O0Z17266   3.767   1.925   1.919
    1HEX    C1017267   3.741   2.039   1.969
    1HEX    O1117268   3.781   2.146   1.927
    1HEX    C1217269   3.653   2.026   2.089
    1HEX    C1317270   3.726   2.081   2.210
    1HEX    C1517271   3.569   1.830   1.767
    1HEX    O1617272   3.501   1.755   1.863
    1HEX    C1717273   3.372   1.733   1.845
    1HEX    O1817274   3.312   1.758   1.742
    1HEX    C1917275   3.301   1.671   1.961
    1HEX    C1A17276   3.252   1.772   2.064
    1HEX    H1D17277   3.981   1.746   1.188
    1HEX    H1E17278   3.844   1.734   1.302
    1HEX    H1F17279   3.921   1.506   1.221
    1HEX    H1G17280   3.877   1.552   1.057
    1HEX    H1H17281   3.505   1.450   1.301
    1HEX    H1I17282   3.439   1.584   1.215
    1HEX    H1J17283   3.457   1.799   1.320
    1HEX    H1K17284   3.511   1.814   1.475
    1HEX    H1M17285   3.298   2.119   1.542
    1HEX    H1N17286   3.310   2.089   1.379
    1HEX    H1O17287   3.546   2.001   1.409
    1HEX    H1P17288   3.523   1.999   1.577
    1HEX    H1R17289   3.262   1.556   1.400
    1HEX    H1S17290   3.301   1.579   1.565
    1HEX    H1T17291   3.384   1.151   1.527
    1HEX    H1U17292   3.216   1.117   1.510
    1HEX    H1V17293   3.196   1.118   1.736
    1HEX    H1W17294   3.196   1.292   1.716
    1HEX    H1Y17295   3.576   1.500   1.534
    1HEX    H1Z17296   3.519   1.626   1.634
    1HEX    H2017297   3.701   1.863   1.532
    1HEX    H2117298   3.843   1.780   1.568
    1HEX    H2217299   3.802   1.593   1.743
    1HEX    H2317300   3.689   1.616   1.868
    1HEX    H2417301   4.131   1.610   2.021
    1HEX    H2517302   4.041   1.574   2.156
    1HEX    H2617303   4.044   1.792   2.220
    1HEX    H2717304   3.948   1.837   2.081
    1HEX    H2917305   3.765   2.004   1.726
    1HEX    H2A17306   3.902   1.907   1.769
    1HEX    H2B17307   3.630   1.920   2.092
    1HEX    H2C17308   3.557   2.069   2.075
    1HEX    H2D17309   3.713   2.189   2.214
    1HEX    H2E17310   3.833   2.060   2.202
    1HEX    H2G17311   3.515   1.826   1.675
    1HEX    H2H17312   3.557   1.934   1.798
    1HEX    H2I17313   3.347   1.582   2.002
    1HEX    H2J17314   3.221   1.622   1.913
    1HEX    H2K17315   3.301   1.868   2.049
    1HEX    H2M17316   3.277   1.739   2.164
    1STR    S0017317   3.794   1.822   1.090
    1STR    S0E17318   3.580   2.209   1.497
    1STR    S0M17319   3.393   1.224   1.816
    1STR    S0X17320   4.182   1.880   2.048
    1STR    S1417321   3.658   2.005   2.359
    1STR    S1B17322   3.074   1.791   2.053
    1HEX    C0117323   4.002   1.672   3.081
    1HEX    C0217324   3.924   1.788   3.140
    1HEX    C0317325   3.786   1.744   3.185
    1HEX    O0417326   3.770   1.644   3.255
    1HEX    O0517327   3.692   1.833   3.152
    1HEX    C0617328   3.560   1.788   3.132
    1HEX    C0717329   3.450   1.852   3.216
    1HEX    C0817330   3.469   2.000   3.245
    1HEX    O0917331   3.370   2.037   3.340
    1HEX    C0A17332   3.281   2.134   3.328
    1HEX    O0B17333   3.244   2.197   3.426
    1HEX    C0C17334   3.230   2.170   3.189
    1HEX    C0D17335   3.305   2.283   3.117
    1HEX    C0F17336   3.324   1.841   3.131
    1HEX    O0G17337   3.308   1.706   3.099
    1HEX    C0H17338   3.196   1.665   3.046
    1HEX    O0I17339   3.120   1.733   2.976
    1HEX    C0J17340   3.160   1.526   3.092
    1HEX    C0K17341   3.217   1.490   3.229
    1HEX    C0N17342   3.433   1.776   3.349
    1HEX    O0O17343   3.558   1.753   3.410
    1HEX    C0P17344   3.574   1.787   3.546
    1HEX    C0Q17345   3.503   1.699   3.648
    1HEX    C0R17346   3.495   1.555   3.603
    1HEX    O0S17347   3.623   1.495   3.586
    1HEX    C0T17348   3.639   1.365   3.615
    1HEX    O0U17349   3.556   1.292   3.670
    1HEX    C0V17350   3.769   1.307   3.567
    1HEX    C0W17351   3.890   1.383   3.616
    1HEX    C0Y17352   3.580   1.701   3.780
    1HEX    O0Z17353   3.609   1.573   3.835
    1HEX    C1017354   3.546   1.528   3.942
    1HEX    O1117355   3.455   1.584   4.003
    1HEX    C1217356   3.605   1.399   3.996
    1HEX    C1317357   3.749   1.362   3.952
    1HEX    C1517358   3.363   1.758   3.673
    1HEX    O1617359   3.302   1.699   3.784
    1HEX    C1717360   3.219   1.597   3.767
    1HEX    O1817361   3.188   1.547   3.660
    1HEX    C1917362   3.162   1.550   3.899
    1HEX    C1A17363   3.021   1.601   3.920
    1HEX    H1D17364   4.105   1.700   3.062
    1HEX    H1E17365   4.004   1.590   3.153
    1HEX    H1F17366   3.912   1.873   3.073
    1HEX    H1G17367   3.977   1.823   3.226
    1HEX    H1H17368   3.555   1.680   3.145
    1HEX    H1I17369   3.541   1.807   3.027
    1HEX    H1J17370   3.472   2.060   3.155
    1HEX    H1K17371   3.565   2.015   3.294
    1HEX    H1M17372   3.130   2.206   3.209
    1HEX    H1N17373   3.217   2.082   3.126
    1HEX    H1O17374   3.243   2.327   3.040
    1HEX    H1P17375   3.395   2.245   3.067
    1HEX    H1R17376   3.331   1.899   3.039
    1HEX    H1S17377   3.240   1.877   3.188
    1HEX    H1T17378   3.199   1.451   3.026
    1HEX    H1U17379   3.054   1.515   3.087
    1HEX    H1V17380   3.155   1.413   3.271
    1HEX    H1W17381   3.219   1.565   3.305
    1HEX    H1Y17382   3.392   1.679   3.331
    1HEX    H1Z17383   3.362   1.825   3.413
    1HEX    H2017384   3.556   1.893   3.562
    1HEX    H2117385   3.680   1.774   3.561
    1HEX    H2217386   3.438   1.558   3.512
    1HEX    H2317387   3.437   1.499   3.675
    1HEX    H2417388   3.769   1.304   3.458
    1HEX    H2517389   3.773   1.205   3.602
    1HEX    H2617390   3.979   1.322   3.624
    1HEX    H2717391   3.869   1.431   3.710
    1HEX    H2917392   3.521   1.760   3.847
    1HEX    H2A17393   3.676   1.750   3.768
    1HEX    H2B17394   3.538   1.319   3.967
    1HEX    H2C17395   3.601   1.405   4.104
    1HEX    H2D17396   3.742   1.331   3.849
    1HEX    H2E17397   3.779   1.274   4.007
    1HEX    H2G17398   3.297   1.747   3.587
    1HEX    H2H17399   3.369   1.864   3.693
    1HEX    H2I17400   3.225   1.585   3.980
    1HEX    H2J17401   3.165   1.442   3.900
    1HEX    H2K17402   2.983   1.561   4.012
    1HEX    H2M17403   2.956   1.564   3.840
    1STR    S0017404   3.931   1.610   2.927
    1STR    S0E17405   3.353   2.413   3.232
    1STR    S0M17406   3.389   1.448   3.203
    1STR    S0X17407   3.923   1.513   3.501
    1STR    S1417408   3.888   1.482   3.966
    1STR    S1B17409   3.022   1.783   3.927
    1HEX    C0117410   3.950   1.497   4.720
    1HEX    C0217411   3.918   1.532   4.863
    1HEX    C0317412   3.769   1.523   4.891
    1HEX    O0417413   3.707   1.427   4.847
    1HEX    O0517414   3.716   1.627   4.963
    1HEX    C0617415   3.580   1.655   4.942
    1HEX    C0717416   3.483   1.720   5.043
    1HEX    C0817417   3.495   1.867   5.087
    1HEX    O0917418   3.403   1.966   5.039
    1HEX    C0A17419   3.279   1.985   5.089
    1HEX    O0B17420   3.177   1.940   5.037
    1HEX    C0C17421   3.260   2.097   5.188
    1HEX    C0D17422   3.328   2.102   5.326
    1HEX    C0F17423   3.347   1.710   4.974
    1HEX    O0G17424   3.310   1.580   4.940
    1HEX    C0H17425   3.340   1.527   4.825
    1HEX    O0I17426   3.350   1.588   4.720
    1HEX    C0J17427   3.371   1.380   4.839
    1HEX    C0K17428   3.365   1.333   4.987
    1HEX    C0N17429   3.491   1.638   5.171
    1HEX    O0O17430   3.619   1.617   5.229
    1HEX    C0P17431   3.689   1.727   5.286
    1HEX    C0Q17432   3.681   1.757   5.437
    1HEX    C0R17433   3.748   1.648   5.519
    1HEX    O0S17434   3.876   1.635   5.464
    1HEX    C0T17435   3.978   1.636   5.539
    1HEX    O0U17436   3.985   1.594   5.654
    1HEX    C0V17437   4.094   1.701   5.468
    1HEX    C0W17438   4.062   1.805   5.359
    1HEX    C0Y17439   3.742   1.896   5.472
    1HEX    O0Z17440   3.851   1.890   5.563
    1HEX    C1017441   3.839   1.931   5.688
    1HEX    O1117442   3.746   1.999   5.732
    1HEX    C1217443   3.948   1.871   5.774
    1HEX    C1317444   3.978   1.937   5.909
    1HEX    C1517445   3.538   1.758   5.477
    1HEX    O1617446   3.485   1.628   5.471
    1HEX    C1717447   3.358   1.605   5.451
    1HEX    O1817448   3.315   1.500   5.410
    1HEX    C1917449   3.265   1.720   5.469
    1HEX    C1A17450   3.214   1.781   5.340
    1HEX    H1D17451   4.054   1.467   4.712
    1HEX    H1E17452   3.886   1.416   4.689
    1HEX    H1F17453   3.956   1.631   4.887
    1HEX    H1G17454   3.969   1.459   4.923
    1HEX    H1H17455   3.544   1.554   4.942
    1HEX    H1I17456   3.562   1.691   4.842
    1HEX    H1J17457   3.598   1.897   5.069
    1HEX    H1K17458   3.488   1.874   5.194
    1HEX    H1M17459   3.154   2.100   5.210
    1HEX    H1N17460   3.275   2.185   5.131
    1HEX    H1O17461   3.282   2.035   5.398
    1HEX    H1P17462   3.305   2.198   5.369
    1HEX    H1R17463   3.338   1.777   4.888
    1HEX    H1S17464   3.272   1.735   5.045
    1HEX    H1T17465   3.470   1.363   4.797
    1HEX    H1U17466   3.301   1.325   4.777
    1HEX    H1V17467   3.297   1.252   4.997
    1HEX    H1W17468   3.318   1.401   5.056
    1HEX    H1Y17469   3.444   1.543   5.156
    1HEX    H1Z17470   3.426   1.681   5.242
    1HEX    H2017471   3.694   1.817   5.226
    1HEX    H2117472   3.787   1.690   5.274
    1HEX    H2217473   3.695   1.557   5.507
    1HEX    H2317474   3.748   1.669   5.626
    1HEX    H2417475   4.142   1.614   5.426
    1HEX    H2517476   4.157   1.747   5.541
    1HEX    H2617477   4.112   1.899   5.382
    1HEX    H2717478   3.957   1.827   5.350
    1HEX    H2917479   3.667   1.964   5.511
    1HEX    H2A17480   3.781   1.944   5.384
    1HEX    H2B17481   4.039   1.866   5.716
    1HEX    H2C17482   3.919   1.768   5.794
    1HEX    H2D17483   4.013   2.039   5.896
    1HEX    H2E17484   4.057   1.880   5.957
    1HEX    H2G17485   3.485   1.830   5.416
    1HEX    H2H17486   3.537   1.790   5.578
    1HEX    H2I17487   3.307   1.797   5.532
    1HEX    H2J17488   3.188   1.681   5.530
    1HEX    H2K17489   3.295   1.823   5.284
    1HEX    H2M17490   3.162   1.866   5.375
    1STR    S0017491   3.927   1.640   4.615
    1STR    S0E17492   3.506   2.085   5.346
    1STR    S0M17493   3.526   1.307   5.062
    1STR    S0X17494   4.116   1.749   5.198
    1STR    S1417495   3.839   1.939   6.025
    1STR    S1B17496   3.098   1.700   5.226
    1HEX    C0117497   3.645   3.309   6.433
    1HEX    C0217498   3.669   3.269   6.576
    1HEX    C0317499   3.548   3.309   6.653
    1HEX    O0417500   3.442   3.250   6.631
    1HEX    O0517501   3.568   3.420   6.722
    1HEX    C0617502   3.460   3.508   6.739
    1HEX    C0717503   3.407   3.525   6.880
    1HEX    C0817504   3.427   3.671   6.921
    1HEX    O0917505   3.354   3.754   6.832
    1HEX    C0A17506   3.269   3.842   6.881
    1HEX    O0B17507   3.245   3.860   7.000
    1HEX    C0C17508   3.212   3.934   6.777
    1HEX    C0D17509   3.313   4.038   6.730
    1HEX    C0F17510   3.259   3.495   6.876
    1HEX    O0G17511   3.236   3.355   6.865
    1HEX    C0H17512   3.190   3.298   6.753
    1HEX    O0I17513   3.164   3.354   6.647
    1HEX    C0J17514   3.167   3.149   6.769
    1HEX    C0K17515   3.238   3.084   6.889
    1HEX    C0N17516   3.467   3.424   6.976
    1HEX    O0O17517   3.601   3.437   7.018
    1HEX    C0P17518   3.637   3.529   7.119
    1HEX    C0Q17519   3.592   3.500   0.070
    1HEX    C0R17520   3.613   3.351   0.097
    1HEX    O0S17521   3.752   3.319   0.109
    1HEX    C0T17522   3.786   3.191   0.118
    1HEX    O0U17523   3.711   3.096   0.102
    1HEX    C0V17524   3.930   3.162   0.153
    1HEX    C0W17525   4.013   3.283   0.193
    1HEX    C0Y17526   3.675   3.590   0.165
    1HEX    O0Z17527   3.590   3.624   0.271
    1HEX    C1017528   3.615   3.726   0.347
    1HEX    O1117529   3.724   3.778   0.367
    1HEX    C1217530   3.490   3.766   0.420
    1HEX    C1317531   3.476   3.688   0.548
    1HEX    C1517532   3.446   3.544   0.081
    1HEX    O1617533   3.374   3.496   0.192
    1HEX    C1717534   3.287   3.397   0.171
    1HEX    O1817535   3.297   3.311   0.084
    1HEX    C1917536   3.167   3.400   0.264
    1HEX    C1A17537   3.129   3.539   0.321
    1HEX    H1D17538   3.706   3.247   6.370
    1HEX    H1E17539   3.540   3.302   6.403
    1HEX    H1F17540   3.759   3.313   6.620
    1HEX    H1G17541   3.678   3.162   6.580
    1HEX    H1H17542   3.379   3.485   6.669
    1HEX    H1I17543   3.495   3.605   6.707
    1HEX    H1J17544   3.531   3.700   6.913
    1HEX    H1K17545   3.398   3.684   7.025
    1HEX    H1M17546   3.128   3.987   6.819
    1HEX    H1N17547   3.174   3.872   6.696
    1HEX    H1O17548   3.263   4.108   6.665
    1HEX    H1P17549   3.390   3.992   6.670
    1HEX    H1R17550   3.209   3.551   6.798
    1HEX    H1S17551   3.218   3.527   6.971
    1HEX    H1T17552   3.193   3.101   6.676
    1HEX    H1U17553   3.060   3.141   6.784
    1HEX    H1V17554   3.182   2.998   6.924
    1HEX    H1W17555   3.239   3.153   6.973
    1HEX    H1Y17556   3.467   3.338   6.913
    1HEX    H1Z17557   3.399   3.388   7.053
    1HEX    H2017558   3.621   3.633   7.092
    1HEX    H2117559   3.744   3.519   7.127
    1HEX    H2217560   3.567   3.292   0.020
    1HEX    H2317561   3.560   3.322   0.186
    1HEX    H2417562   3.976   3.107   0.071
    1HEX    H2517563   3.926   3.093   0.237
    1HEX    H2617564   4.094   3.257   0.259
    1HEX    H2717565   3.950   3.356   0.244
    1HEX    H2917566   3.707   3.681   0.115
    1HEX    H2A17567   3.764   3.540   0.201
    1HEX    H2B17568   3.404   3.756   0.353
    1HEX    H2C17569   3.503   3.870   0.446
    1HEX    H2D17570   3.454   3.757   0.628
    1HEX    H2E17571   3.570   3.639   0.569
    1HEX    H2G17572   3.387   3.530   7.182
    1HEX    H2H17573   3.447   3.652   0.087
    1HEX    H2I17574   3.192   3.333   0.346
    1HEX    H2J17575   3.085   3.353   0.212
    1HEX    H2K17576   3.215   3.605   0.321
    1HEX    H2M17577   3.095   3.527   0.423
    1STR    S0017578   3.700   3.477   6.424
    1STR    S0E17579   3.382   4.132   6.869
    1STR    S0M17580   3.406   3.032   6.847
    1STR    S0X17581   4.081   3.354   0.044
    1STR    S1417582   3.347   3.564   0.546
    1STR    S1B17583   3.002   3.632   0.233
    1HEX    C0117584   3.755   3.540   1.313
    1HEX    C0217585   3.746   3.389   1.318
    1HEX    C0317586   3.612   3.335   1.355
    1HEX    O0417587   3.598   3.231   1.418
    1HEX    O0517588   3.520   3.403   1.293
    1HEX    C0617589   3.384   3.379   1.309
    1HEX    C0717590   3.318   3.498   1.378
    1HEX    C0817591   3.390   3.622   1.325
    1HEX    O0917592   3.333   3.747   1.354
    1HEX    C0A17593   3.414   3.852   1.334
    1HEX    O0B17594   3.523   3.849   1.279
    1HEX    C0C17595   3.369   3.978   1.401
    1HEX    C0D17596   3.290   3.950   1.528
    1HEX    C0F17597   3.172   3.500   1.338
    1HEX    O0G17598   3.112   3.375   1.368
    1HEX    C0H17599   3.091   3.285   1.272
    1HEX    O0I17600   3.127   3.295   1.155
    1HEX    C0J17601   3.007   3.168   1.320
    1HEX    C0K17602   3.066   3.032   1.282
    1HEX    C0N17603   3.324   3.481   1.531
    1HEX    O0O17604   3.445   3.422   1.573
    1HEX    C0P17605   3.539   3.507   1.634
    1HEX    C0Q17606   3.569   3.456   1.774
    1HEX    C0R17607   3.598   3.305   1.770
    1HEX    O0S17608   3.701   3.269   1.681
    1HEX    C0T17609   3.806   3.197   1.722
    1HEX    O0U17610   3.827   3.147   1.832
    1HEX    C0V17611   3.905   3.182   1.609
    1HEX    C0W17612   4.000   3.300   1.609
    1HEX    C0Y17613   3.684   3.538   1.832
    1HEX    O0Z17614   3.766   3.444   1.898
    1HEX    C1017615   3.805   3.470   2.016
    1HEX    O1117616   3.827   3.583   2.059
    1HEX    C1217617   3.816   3.346   2.100
    1HEX    C1317618   3.876   3.374   2.237
    1HEX    C1517619   3.448   3.474   1.864
    1HEX    O1617620   3.486   3.423   1.990
    1HEX    C1717621   3.418   3.323   2.043
    1HEX    O1817622   3.464   3.211   2.062
    1HEX    C1917623   3.282   3.363   2.094
    1HEX    C1A17624   3.170   3.298   2.017
    1HEX    H1D17625   3.859   3.569   1.324
    1HEX    H1E17626   3.701   3.580   1.398
    1HEX    H1F17627   3.820   3.346   1.384
    1HEX    H1G17628   3.767   3.353   1.220
    1HEX    H1H17629   3.362   3.291   1.365
    1HEX    H1I17630   3.346   3.364   1.208
    1HEX    H1J17631   3.401   3.617   1.217
    1HEX    H1K17632   3.489   3.622   1.369
    1HEX    H1M17633   3.309   4.035   1.330
    1HEX    H1N17634   3.458   4.037   1.423
    1HEX    H1O17635   3.194   3.913   1.495
    1HEX    H1P17636   3.278   4.040   1.587
    1HEX    H1R17637   3.159   3.528   1.233
    1HEX    H1S17638   3.125   3.577   1.397
    1HEX    H1T17639   2.908   3.179   1.277
    1HEX    H1U17640   2.993   3.174   1.428
    1HEX    H1V17641   3.132   3.037   1.196
    1HEX    H1W17642   2.987   2.961   1.263
    1HEX    H1Y17643   3.250   3.407   1.561
    1HEX    H1Z17644   3.297   3.570   1.585
    1HEX    H2017645   3.511   3.611   1.637
    1HEX    H2117646   3.630   3.500   1.577
    1HEX    H2217647   3.508   3.260   1.734
    1HEX    H2317648   3.616   3.263   1.868
    1HEX    H2417649   3.849   3.174   1.516
    1HEX    H2517650   3.959   3.089   1.623
    1HEX    H2617651   4.054   3.297   1.703
    1HEX    H2717652   4.069   3.299   1.524
    1HEX    H2917653   3.646   3.615   1.899
    1HEX    H2A17654   3.741   3.592   1.758
    1HEX    H2B17655   3.879   3.277   2.044
    1HEX    H2C17656   3.718   3.300   2.107
    1HEX    H2D17657   3.971   3.426   2.225
    1HEX    H2E17658   3.894   3.281   2.289
    1HEX    H2G17659   3.365   3.419   1.822
    1HEX    H2H17660   3.418   3.578   1.874
    1HEX    H2I17661   3.276   3.469   2.074
    1HEX    H2J17662   3.276   3.347   2.201
    1HEX    H2K17663   3.137   3.207   2.065
    1HEX    H2M17664   3.205   3.277   1.917
    1STR    S0017665   3.682   3.611   1.163
    1STR    S0E17666   3.360   3.821   1.636
    1STR    S0M17667   3.161   2.969   1.418
    1STR    S0X17668   3.904   3.451   1.608
    1STR    S1417669   3.776   3.482   2.342
    1STR    S1B17670   3.039   3.418   2.004
    1HEX    C0117671   3.815   3.327   2.905
    1HEX    C0217672   3.804   3.284   3.051
    1HEX    C0317673   3.667   3.237   3.085
    1HEX    O0417674   3.634   3.121   3.063
    1HEX    O0517675   3.594   3.334   3.135
    1HEX    C0617676   3.455   3.326   3.130
    1HEX    C0717677   3.386   3.394   3.247
    1HEX    C0817678   3.399   3.542   3.230
    1HEX    O0917679   3.291   3.612   3.173
    1HEX    C0A17680   3.208   3.680   3.251
    1HEX    O0B17681   3.115   3.628   3.311
    1HEX    C0C17682   3.253   3.824   3.270
    1HEX    C0D17683   3.401   3.825   3.310
    1HEX    C0F17684   3.234   3.355   3.240
    1HEX    O0G17685   3.202   3.225   3.191
    1HEX    C0H17686   3.175   3.210   3.058
    1HEX    O0I17687   3.167   3.301   2.976
    1HEX    C0J17688   3.154   3.068   3.010
    1HEX    C0K17689   3.207   2.957   3.100
    1HEX    C0N17690   3.461   3.372   3.383
    1HEX    O0O17691   3.603   3.401   3.386
    1HEX    C0P17692   3.663   3.532   3.408
    1HEX    C0Q17693   3.668   3.582   3.555
    1HEX    C0R17694   3.711   3.460   3.640
    1HEX    O0S17695   3.843   3.471   3.694
    1HEX    C0T17696   3.901   3.376   3.768
    1HEX    O0U17697   3.880   3.256   3.765
    1HEX    C0V17698   4.008   3.430   3.862
    1HEX    C0W17699   4.036   3.580   3.849
    1HEX    C0Y17700   3.764   3.699   3.585
    1HEX    O0Z17701   3.755   3.720   3.725
    1HEX    C1017702   3.777   3.836   3.782
    1HEX    O1117703   3.834   3.932   3.734
    1HEX    C1217704   3.708   3.842   3.917
    1HEX    C1317705   3.765   3.757   4.031
    1HEX    C1517706   3.533   3.650   3.586
    1HEX    O1617707   3.495   3.685   3.718
    1HEX    C1717708   3.420   3.599   3.777
    1HEX    O1817709   3.410   3.483   3.738
    1HEX    C1917710   3.347   3.649   3.902
    1HEX    C1A17711   3.230   3.747   3.900
    1HEX    H1D17712   3.845   3.242   2.844
    1HEX    H1E17713   3.892   3.404   2.900
    1HEX    H1F17714   3.825   3.368   3.118
    1HEX    H1G17715   3.874   3.204   3.072
    1HEX    H1H17716   3.427   3.223   3.127
    1HEX    H1I17717   3.419   3.367   3.036
    1HEX    H1J17718   3.489   3.565   3.175
    1HEX    H1K17719   3.411   3.584   3.328
    1HEX    H1M17720   3.186   3.863   3.345
    1HEX    H1N17721   3.234   3.882   3.181
    1HEX    H1O17722   3.457   3.771   3.236
    1HEX    H1P17723   3.402   3.777   3.406
    1HEX    H1R17724   3.181   3.422   3.173
    1HEX    H1S17725   3.181   3.377   3.331
    1HEX    H1T17726   3.203   3.061   2.913
    1HEX    H1U17727   3.048   3.055   2.994
    1HEX    H1V17728   3.183   2.860   3.058
    1HEX    H1W17729   3.163   2.964   3.197
    1HEX    H1Y17730   3.446   3.270   3.410
    1HEX    H1Z17731   3.412   3.422   3.465
    1HEX    H2017732   3.626   3.610   3.341
    1HEX    H2117733   3.766   3.518   3.377
    1HEX    H2217734   3.704   3.367   3.586
    1HEX    H2317735   3.640   3.456   3.720
    1HEX    H2417736   4.098   3.371   3.853
    1HEX    H2517737   3.967   3.412   3.961
    1HEX    H2617738   4.070   3.619   3.944
    1HEX    H2717739   3.947   3.636   3.822
    1HEX    H2917740   3.742   3.788   3.529
    1HEX    H2A17741   3.864   3.676   3.556
    1HEX    H2B17742   3.612   3.800   3.895
    1HEX    H2C17743   3.695   3.946   3.948
    1HEX    H2D17744   3.801   3.823   4.110
    1HEX    H2E17745   3.849   3.696   3.999
    1HEX    H2G17746   3.450   3.602   3.537
    1HEX    H2H17747   3.537   3.746   3.541
    1HEX    H2I17748   3.419   3.692   3.968
    1HEX    H2J17749   3.310   3.560   3.949
    1HEX    H2K17750   3.267   3.846   3.906
    1HEX    H2M17751   3.176   3.733   3.993
    1STR    S0017752   3.663   3.396   2.837
    1STR    S0E17753   3.511   3.963   3.313
    1STR    S0M17754   3.382   2.969   3.125
    1STR    S0X17755   4.163   3.620   3.729
    1STR    S1417756   3.634   3.651   4.099
    1STR    S1B17757   3.107   3.736   3.770
    1HEX    C0117758   4.019   3.425   4.924
    1HEX    C0217759   3.968   3.518   5.034
    1HEX    C0317760   3.819   3.508   5.054
    1HEX    O0417761   3.766   3.398   5.066
    1HEX    O0517762   3.756   3.626   5.051
    1HEX    C0617763   3.626   3.631   4.996
    1HEX    C0717764   3.513   3.675   5.085
    1HEX    C0817765   3.522   3.822   5.123
    1HEX    O0917766   3.415   3.896   5.070
    1HEX    C0A17767   3.305   3.915   5.143
    1HEX    O0B17768   3.287   3.874   5.258
    1HEX    C0C17769   3.207   4.002   5.072
    1HEX    C0D17770   3.277   4.123   5.013
    1HEX    C0F17771   3.382   3.655   5.009
    1HEX    O0G17772   3.356   3.521   5.000
    1HEX    C0H17773   3.238   3.487   4.963
    1HEX    O0I17774   3.159   3.562   4.907
    1HEX    C0J17775   3.213   3.341   4.983
    1HEX    C0K17776   3.275   3.290   5.108
    1HEX    C0N17777   3.507   3.584   5.204
    1HEX    O0O17778   3.605   3.611   5.298
    1HEX    C0P17779   3.557   3.615   5.430
    1HEX    C0Q17780   3.461   3.503   5.484
    1HEX    C0R17781   3.499   3.360   5.448
    1HEX    O0S17782   3.626   3.318   5.492
    1HEX    C0T17783   3.661   3.192   5.473
    1HEX    O0U17784   3.584   3.096   5.475
    1HEX    C0V17785   3.809   3.171   5.440
    1HEX    C0W17786   3.900   3.293   5.449
    1HEX    C0Y17787   3.480   3.514   5.630
    1HEX    O0Z17788   3.420   3.413   5.707
    1HEX    C1017789   3.395   3.442   5.831
    1HEX    O1117790   3.404   3.555   5.878
    1HEX    C1217791   3.368   3.321   5.918
    1HEX    C1317792   3.409   3.180   5.866
    1HEX    C1517793   3.312   3.530   5.455
    1HEX    O1617794   3.230   3.467   5.550
    1HEX    C1717795   3.176   3.348   5.529
    1HEX    O1817796   3.177   3.286   5.423
    1HEX    C1917797   3.117   3.291   5.656
    1HEX    C1A17798   2.987   3.354   5.711
    1HEX    H1D17799   4.127   3.419   4.927
    1HEX    H1E17800   3.980   3.324   4.938
    1HEX    H1F17801   3.997   3.620   5.016
    1HEX    H1G17802   4.012   3.484   5.126
    1HEX    H1H17803   3.602   3.530   4.966
    1HEX    H1I17804   3.626   3.695   4.910
    1HEX    H1J17805   3.611   3.868   5.084
    1HEX    H1K17806   3.528   3.829   5.231
    1HEX    H1M17807   3.128   4.032   5.139
    1HEX    H1N17808   3.164   3.943   4.991
    1HEX    H1O17809   3.207   4.181   4.954
    1HEX    H1P17810   3.356   4.088   4.949
    1HEX    H1R17811   3.379   3.703   4.912
    1HEX    H1S17812   3.297   3.690   5.068
    1HEX    H1T17813   3.249   3.285   4.900
    1HEX    H1U17814   3.109   3.323   4.979
    1HEX    H1V17815   3.223   3.202   5.144
    1HEX    H1W17816   3.274   3.363   5.189
    1HEX    H1Y17817   3.522   3.481   5.173
    1HEX    H1Z17818   3.407   3.596   5.242
    1HEX    H2017819   3.509   3.711   5.444
    1HEX    H2117820   3.648   3.621   5.488
    1HEX    H2217821   3.494   3.354   5.341
    1HEX    H2317822   3.425   3.289   5.486
    1HEX    H2417823   3.813   3.137   5.338
    1HEX    H2517824   3.845   3.091   5.504
    1HEX    H2617825   4.000   3.269   5.414
    1HEX    H2717826   3.907   3.322   5.551
    1HEX    H2917827   3.458   3.616   5.663
    1HEX    H2A17828   3.584   3.495   5.640
    1HEX    H2B17829   3.263   3.323   5.942
    1HEX    H2C17830   3.418   3.342   6.012
    1HEX    H2D17831   3.331   3.140   5.803
    1HEX    H2E17832   3.419   3.116   5.953
    1HEX    H2G17833   3.279   3.497   5.357
    1HEX    H2H17834   3.291   3.636   5.462
    1HEX    H2I17835   3.194   3.307   5.730
    1HEX    H2J17836   3.106   3.184   5.643
    1HEX    H2K17837   2.985   3.341   5.819
    1HEX    H2M17838   2.901   3.305   5.669
    1STR    S0017839   3.973   3.486   4.762
    1STR    S0E17840   3.350   4.226   5.144
    1STR    S0M17841   3.442   3.259   5.052
    1STR    S0X17842   3.841   3.434   5.357
    1STR    S1417843   3.564   3.157   5.772
    1STR    S1B17844   2.970   3.533   5.685
    1HEX    C0117845   3.786   5.036   6.603
    1HEX    C0217846   3.790   5.096   6.744
    1HEX    C0317847   3.651   5.112   6.796
    1HEX    O0417848   3.590   5.012   6.833
    1HEX    O0517849   3.601   5.235   6.779
    1HEX    C0617850   3.460   5.244   6.766
    1HEX    C0717851   3.373   5.324   6.860
    1HEX    C0817852   3.398   5.472   6.825
    1HEX    O0917853   3.294   5.566   6.847
    1HEX    C0A17854   3.276   5.612   6.966
    1HEX    O0B17855   3.317   5.560   7.067
    1HEX    C0C17856   3.212   5.748   6.970
    1HEX    C0D17857   3.231   5.830   7.100
    1HEX    C0F17858   3.228   5.281   6.831
    1HEX    O0G17859   3.219   5.147   6.876
    1HEX    C0H17860   3.105   5.086   6.903
    1HEX    O0I17861   2.995   5.115   6.858
    1HEX    C0J17862   3.127   4.972   6.999
    1HEX    C0K17863   3.116   4.834   6.934
    1HEX    C0N17864   3.407   5.280   7.002
    1HEX    O0O17865   3.544   5.294   7.015
    1HEX    C0P17866   3.586   5.387   7.106
    1HEX    C0Q17867   3.571   5.345   0.062
    1HEX    C0R17868   3.605   5.198   0.080
    1HEX    O0S17869   3.693   5.158   7.169
    1HEX    C0T17870   3.819   5.158   7.188
    1HEX    O0U17871   3.875   5.132   0.104
    1HEX    C0V17872   3.890   5.198   7.062
    1HEX    C0W17873   3.990   5.308   7.092
    1HEX    C0Y17874   3.669   5.441   0.130
    1HEX    O0Z17875   3.770   5.375   0.203
    1HEX    C1017876   3.893   5.423   0.198
    1HEX    O1117877   3.930   5.515   0.126
    1HEX    C1217878   3.989   5.351   0.292
    1HEX    C1317879   4.011   5.416   0.430
    1HEX    C1517880   3.429   5.373   0.115
    1HEX    O1617881   3.330   5.272   0.117
    1HEX    C1717882   3.316   5.200   0.229
    1HEX    O1817883   3.407   5.174   0.308
    1HEX    C1917884   3.173   5.161   0.263
    1HEX    C1A17885   3.079   5.153   0.145
    1HEX    H1D17886   3.885   4.999   6.580
    1HEX    H1E17887   3.720   4.950   6.599
    1HEX    H1F17888   3.842   5.190   6.750
    1HEX    H1G17889   3.841   5.025   6.808
    1HEX    H1H17890   3.419   5.145   6.764
    1HEX    H1I17891   3.441   5.287   6.670
    1HEX    H1J17892   3.417   5.482   6.720
    1HEX    H1K17893   3.490   5.504   6.872
    1HEX    H1M17894   3.106   5.736   6.949
    1HEX    H1N17895   3.247   5.802   6.883
    1HEX    H1O17896   3.143   5.820   7.161
    1HEX    H1P17897   3.228   5.934   7.070
    1HEX    H1R17898   3.209   5.287   6.726
    1HEX    H1S17899   3.156   5.347   6.877
    1HEX    H1T17900   3.059   4.981   7.083
    1HEX    H1U17901   3.227   4.990   7.037
    1HEX    H1V17902   3.134   4.838   6.827
    1HEX    H1W17903   3.016   4.795   6.950
    1HEX    H1Y17904   3.392   5.174   7.019
    1HEX    H1Z17905   3.346   5.330   7.074
    1HEX    H2017906   3.541   5.482   7.089
    1HEX    H2117907   3.691   5.398   7.082
    1HEX    H2217908   3.517   5.138   0.061
    1HEX    H2317909   3.639   5.175   0.181
    1HEX    H2417910   3.816   5.233   6.990
    1HEX    H2517911   3.932   5.108   7.019
    1HEX    H2617912   3.939   5.403   7.096
    1HEX    H2717913   4.035   5.297   7.190
    1HEX    H2917914   3.616   5.509   0.194
    1HEX    H2A17915   3.710   5.515   0.062
    1HEX    H2B17916   4.084   5.341   0.241
    1HEX    H2C17917   3.951   5.251   0.305
    1HEX    H2D17918   4.116   5.441   0.443
    1HEX    H2E17919   3.987   5.343   0.507
    1HEX    H2G17920   3.390   5.458   0.064
    1HEX    H2H17921   3.434   5.411   0.214
    1HEX    H2I17922   3.129   5.230   0.334
    1HEX    H2J17923   3.176   5.068   0.316
    1HEX    H2K17924   2.998   5.083   0.165
    1HEX    H2M17925   3.133   5.117   0.058
    1STR    S0017926   3.749   5.157   6.474
    1STR    S0E17927   3.369   5.803   0.031
    1STR    S0M17928   3.236   4.722   7.010
    1STR    S0X17929   4.118   5.319   6.965
    1STR    S1417930   3.910   5.563   0.460
    1STR    S1B17931   3.007   5.315   0.127
    1HEX    C0117932   3.889   5.291   1.153
    1HEX    C0217933   3.886   5.160   1.233
    1HEX    C0317934   3.744   5.123   1.272
    1HEX    O0417935   3.689   5.024   1.223
    1HEX    O0517936   3.692   5.211   1.358
    1HEX    C0617937   3.552   5.215   1.372
    1HEX    C0717938   3.495   5.273   1.500
    1HEX    C0817939   3.525   5.422   1.513
    1HEX    O0917940   3.463   5.506   1.420
    1HEX    C0A17941   3.359   5.577   1.458
    1HEX    O0B17942   3.270   5.540   1.533
    1HEX    C0C17943   3.362   5.718   1.405
    1HEX    C0D17944   3.492   5.759   1.338
    1HEX    C0F17945   3.346   5.248   1.495
    1HEX    O0G17946   3.325   5.109   1.497
    1HEX    C0H17947   3.248   5.050   1.407
    1HEX    O0I17948   3.192   5.105   1.314
    1HEX    C0J17949   3.234   4.902   1.428
    1HEX    C0K17950   3.302   4.855   1.556
    1HEX    C0N17951   3.550   5.197   1.618
    1HEX    O0O17952   3.674   5.246   1.666
    1HEX    C0P17953   3.679   5.352   1.762
    1HEX    C0Q17954   3.594   5.335   1.888
    1HEX    C0R17955   3.615   5.189   1.933
    1HEX    O0S17956   3.751   5.161   1.956
    1HEX    C0T17957   3.797   5.037   1.945
    1HEX    O0U17958   3.732   4.938   1.909
    1HEX    C0V17959   3.942   5.022   1.983
    1HEX    C0W17960   3.991   5.122   2.087
    1HEX    C0Y17961   3.649   5.435   1.994
    1HEX    O0Z17962   3.544   5.505   2.057
    1HEX    C1017963   3.569   5.598   2.147
    1HEX    O1117964   3.679   5.643   2.178
    1HEX    C1217965   3.441   5.642   2.213
    1HEX    C1317966   3.405   5.560   2.338
    1HEX    C1517967   3.446   5.373   1.862
    1HEX    O1617968   3.360   5.326   1.963
    1HEX    C1717969   3.298   5.210   1.946
    1HEX    O1817970   3.320   5.128   1.858
    1HEX    C1917971   3.192   5.189   2.050
    1HEX    C1A17972   3.102   5.311   2.073
    1HEX    H1D17973   3.989   5.307   1.113
    1HEX    H1E17974   3.864   5.376   1.217
    1HEX    H1F17975   3.946   5.168   1.323
    1HEX    H1G17976   3.926   5.079   1.173
    1HEX    H1H17977   3.507   5.119   1.348
    1HEX    H1I17978   3.514   5.285   1.301
    1HEX    H1J17979   3.632   5.438   1.503
    1HEX    H1K17980   3.495   5.456   1.611
    1HEX    H1M17981   3.334   5.788   1.482
    1HEX    H1N17982   3.284   5.723   1.333
    1HEX    H1O17983   3.459   5.822   1.257
    1HEX    H1P17984   3.552   5.677   1.297
    1HEX    H1R17985   3.300   5.296   1.408
    1HEX    H1S17986   3.299   5.287   1.583
    1HEX    H1T17987   3.269   4.849   1.340
    1HEX    H1U17988   3.128   4.882   1.436
    1HEX    H1V17989   3.250   4.770   1.597
    1HEX    H1W17990   3.297   4.929   1.636
    1HEX    H1Y17991   3.561   5.095   1.587
    1HEX    H1Z17992   3.476   5.179   1.693
    1HEX    H2017993   3.669   5.452   1.722
    1HEX    H2117994   3.781   5.352   1.797
    1HEX    H2217995   3.575   5.118   1.862
    1HEX    H2317996   3.556   5.171   2.021
    1HEX    H2417997   4.003   5.022   1.893
    1HEX    H2517998   3.952   4.922   2.025
    1HEX    H2617999   4.031   5.067   2.170
    1HEX    H2718000   3.913   5.188   2.123
    1HEX    H2918001   3.715   5.509   1.950
    1HEX    H2A18002   3.707   5.382   2.070
    1HEX    H2B18003   3.361   5.635   2.140
    1HEX    H2C18004   3.455   5.745   2.242
    1HEX    H2D18005   3.321   5.607   2.388
    1HEX    H2E18006   3.489   5.559   2.407
    1HEX    H2G18007   3.404   5.345   1.768
    1HEX    H2H18008   3.436   5.481   1.858
    1HEX    H2I18009   3.243   5.166   2.143
    1HEX    H2J18010   3.134   5.100   2.025
    1HEX    H2K18011   3.162   5.399   2.093
    1HEX    H2M18012   3.042   5.290   2.161
    1STR    S0018013   3.771   5.280   1.017
    1STR    S0E18014   3.597   5.873   1.425
    1STR    S0M18015   3.475   4.817   1.517
    1STR    S0X18016   4.122   5.230   2.035
    1STR    S1418017   3.356   5.391   2.295
    1STR    S1B18018   2.994   5.342   1.932
    1HEX    C0118019   3.994   5.262   3.133
    1HEX    C0218020   3.911   5.375   3.197
    1HEX    C0318021   3.777   5.326   3.246
    1HEX    O0418022   3.761   5.210   3.277
    1HEX    O0518023   3.682   5.417   3.251
    1HEX    C0618024   3.555   5.387   3.199
    1HEX    C0718025   3.427   5.417   3.281
    1HEX    C0818026   3.429   5.543   3.369
    1HEX    O0918027   3.369   5.648   3.296
    1HEX    C0A18028   3.295   5.736   3.359
    1HEX    O0B18029   3.316   5.776   3.473
    1HEX    C0C18030   3.195   5.799   3.266
    1HEX    C0D18031   3.262   5.875   3.152
    1HEX    C0F18032   3.309   5.434   3.181
    1HEX    O0G18033   3.261   5.319   3.116
    1HEX    C0H18034   3.323   5.263   3.017
    1HEX    O0I18035   3.419   5.308   2.957
    1HEX    C0J18036   3.262   5.128   2.985
    1HEX    C0K18037   3.264   5.024   3.093
    1HEX    C0N18038   3.397   5.300   3.374
    1HEX    O0O18039   3.504   5.217   3.405
    1HEX    C0P18040   3.579   5.250   3.516
    1HEX    C0Q18041   3.541   5.177   3.643
    1HEX    C0R18042   3.546   5.026   3.627
    1HEX    O0S18043   3.666   4.979   3.567
    1HEX    C0T18044   3.704   4.852   3.588
    1HEX    O0U18045   3.654   4.771   3.666
    1HEX    C0V18046   3.823   4.814   3.504
    1HEX    C0W18047   3.948   4.894   3.539
    1HEX    C0Y18048   3.649   5.217   3.735
    1HEX    O0Z18049   3.632   5.152   3.855
    1HEX    C1018050   3.712   5.051   3.884
    1HEX    O1118051   3.788   4.986   3.814
    1HEX    C1218052   3.733   5.055   4.027
    1HEX    C1318053   3.864   5.128   4.038
    1HEX    C1518054   3.405   5.230   3.689
    1HEX    O1618055   3.363   5.228   3.825
    1HEX    C1718056   3.333   5.116   3.891
    1HEX    O1818057   3.397   5.013   3.895
    1HEX    C1918058   3.220   5.133   3.988
    1HEX    C1A18059   3.080   5.175   3.942
    1HEX    H1D18060   4.096   5.296   3.117
    1HEX    H1E18061   4.000   5.179   3.203
    1HEX    H1F18062   3.895   5.455   3.125
    1HEX    H1G18063   3.962   5.419   3.282
    1HEX    H1H18064   3.552   5.282   3.170
    1HEX    H1I18065   3.552   5.442   3.106
    1HEX    H1J18066   3.527   5.568   3.406
    1HEX    H1K18067   3.368   5.528   3.459
    1HEX    H1M18068   3.129   5.863   3.324
    1HEX    H1N18069   3.134   5.719   3.224
    1HEX    H1O18070   3.188   5.916   3.085
    1HEX    H1P18071   3.330   5.811   3.096
    1HEX    H1R18072   3.333   5.508   3.105
    1HEX    H1S18073   3.222   5.468   3.236
    1HEX    H1T18074   3.327   5.083   2.914
    1HEX    H1U18075   3.163   5.138   2.942
    1HEX    H1V18076   3.256   4.924   3.053
    1HEX    H1W18077   3.179   5.037   3.157
    1HEX    H1Y18078   3.339   5.233   3.316
    1HEX    H1Z18079   3.330   5.323   3.456
    1HEX    H2018080   3.574   5.357   3.528
    1HEX    H2118081   3.680   5.222   3.491
    1HEX    H2218082   3.461   4.993   3.574
    1HEX    H2318083   3.537   4.975   3.722
    1HEX    H2418084   3.795   4.825   3.401
    1HEX    H2518085   3.843   4.708   3.521
    1HEX    H2618086   3.955   4.909   3.646
    1HEX    H2718087   4.038   4.844   3.504
    1HEX    H2918088   3.645   5.323   3.748
    1HEX    H2A18089   3.747   5.195   3.694
    1HEX    H2B18090   3.737   4.955   4.068
    1HEX    H2C18091   3.650   5.108   4.074
    1HEX    H2D18092   3.937   5.050   4.026
    1HEX    H2E18093   3.856   5.158   4.141
    1HEX    H2G18094   3.332   5.183   3.624
    1HEX    H2H18095   3.398   5.336   3.665
    1HEX    H2I18096   3.262   5.207   4.049
    1HEX    H2J18097   3.215   5.041   4.045
    1HEX    H2K18098   3.018   5.180   4.030
    1HEX    H2M18099   3.037   5.097   3.879
    1STR    S0018100   3.937   5.196   2.972
    1STR    S0E18101   3.356   6.012   3.222
    1STR    S0M18102   3.420   5.037   3.179
    1STR    S0X18103   3.936   5.053   3.455
    1STR    S1418104   3.913   5.267   3.920
    1STR    S1B18105   3.068   5.338   3.864
    1HEX    C0118106   3.691   5.019   4.689
    1HEX    C0218107   3.735   4.939   4.810
    1HEX    C0318108   3.634   4.935   4.924
    1HEX    O0418109   3.596   4.827   4.969
    1HEX    O0518110   3.600   5.054   4.975
    1HEX    C0618111   3.471   5.069   5.028
    1HEX    C0718112   3.433   5.176   5.132
    1HEX    C0818113   3.468   5.304   5.070
    1HEX    O0918114   3.433   5.403   5.157
    1HEX    C0A18115   3.477   5.523   5.157
    1HEX    O0B18116   3.423   5.600   5.231
    1HEX    C0C18117   3.604   5.561   5.080
    1HEX    C0D18118   3.713   5.631   5.158
    1HEX    C0F18119   3.279   5.173   5.154
    1HEX    O0G18120   3.212   5.064   5.096
    1HEX    C0H18121   3.163   5.073   4.972
    1HEX    O0I18122   3.161   5.174   4.902
    1HEX    C0J18123   3.111   4.940   4.921
    1HEX    C0K18124   3.125   4.822   5.018
    1HEX    C0N18125   3.495   5.171   5.271
    1HEX    O0O18126   3.635   5.182   5.283
    1HEX    C0P18127   3.708   5.302   5.306
    1HEX    C0Q18128   3.699   5.371   5.443
    1HEX    C0R18129   3.718   5.259   5.544
    1HEX    O0S18130   3.850   5.211   5.534
    1HEX    C0T18131   3.920   5.191   5.644
    1HEX    O0U18132   3.876   5.184   5.758
    1HEX    C0V18133   4.067   5.184   5.614
    1HEX    C0W18134   4.127   5.324   5.597
    1HEX    C0Y18135   3.813   5.470   5.456
    1HEX    O0Z18136   3.786   5.558   5.561
    1HEX    C1018137   3.777   5.687   5.537
    1HEX    O1118138   3.819   5.745   5.438
    1HEX    C1218139   3.696   5.759   5.641
    1HEX    C1318140   3.676   5.681   5.771
    1HEX    C1518141   3.569   5.451   5.434
    1HEX    O1618142   3.482   5.506   5.528
    1HEX    C1718143   3.351   5.485   5.504
    1HEX    O1818144   3.305   5.384   5.453
    1HEX    C1918145   3.260   5.600   5.542
    1HEX    C1A18146   3.157   5.630   5.432
    1HEX    H1D18147   3.769   5.010   4.615
    1HEX    H1E18148   3.601   4.977   4.644
    1HEX    H1F18149   3.830   4.979   4.841
    1HEX    H1G18150   3.751   4.837   4.779
    1HEX    H1H18151   3.437   4.977   5.064
    1HEX    H1I18152   3.409   5.081   4.941
    1HEX    H1J18153   3.392   5.310   4.996
    1HEX    H1K18154   3.566   5.301   5.026
    1HEX    H1M18155   3.567   5.631   5.008
    1HEX    H1N18156   3.650   5.479   5.028
    1HEX    H1O18157   3.803   5.573   5.158
    1HEX    H1P18158   3.685   5.649   5.260
    1HEX    H1R18159   3.231   5.265   5.124
    1HEX    H1S18160   3.258   5.165   5.260
    1HEX    H1T18161   3.160   4.919   4.826
    1HEX    H1U18162   3.005   4.956   4.904
    1HEX    H1V18163   3.067   4.738   4.983
    1HEX    H1W18164   3.083   4.848   5.115
    1HEX    H1Y18165   3.464   5.078   5.309
    1HEX    H1Z18166   3.441   5.229   5.342
    1HEX    H2018167   3.692   5.370   5.225
    1HEX    H2118168   3.809   5.266   5.300
    1HEX    H2218169   3.654   5.175   5.520
    1HEX    H2318170   3.696   5.293   5.644
    1HEX    H2418171   4.080   5.122   5.525
    1HEX    H2518172   4.113   5.131   5.697
    1HEX    H2618173   4.205   5.336   5.672
    1HEX    H2718174   4.056   5.403   5.617
    1HEX    H2918175   3.832   5.522   5.363
    1HEX    H2A18176   3.906   5.423   5.478
    1HEX    H2B18177   3.600   5.772   5.592
    1HEX    H2C18178   3.740   5.857   5.656
    1HEX    H2D18179   3.718   5.730   5.855
    1HEX    H2E18180   3.731   5.587   5.775
    1HEX    H2G18181   3.510   5.404   5.362
    1HEX    H2H18182   3.594   5.544   5.390
    1HEX    H2I18183   3.324   5.686   5.558
    1HEX    H2J18184   3.210   5.575   5.634
    1HEX    H2K18185   3.200   5.624   5.333
    1HEX    H2M18186   3.115   5.728   5.445
    1STR    S0018187   3.672   5.193   4.729
    1STR    S0E18188   3.741   5.797   5.098
    1STR    S0M18189   3.298   4.769   5.034
    1STR    S0X18190   4.204   5.341   5.434
    1STR    S1418191   3.499   5.658   5.797
    1STR    S1B18192   3.017   5.518   5.441
    1HEX    C0118193   5.646   6.949   6.589
    1HEX    C0218194   5.645   7.037   6.714
    1HEX    C0318195   5.508   7.035   6.769
    1HEX    O0418196   5.462   6.925   6.794
    1HEX    O0518197   5.446   7.154   6.766
    1HEX    C0618198   5.304   7.159   6.758
    1HEX    C0718199   5.236   0.014   6.886
    1HEX    C0818200   5.254   0.162   6.911
    1HEX    O0918201   5.179   0.242   6.821
    1HEX    C0A18202   5.070   0.301   6.865
    1HEX    O0B18203   5.020   0.286   6.976
    1HEX    C0C18204   5.013   0.400   6.767
    1HEX    C0D18205   5.076   0.538   6.785
    1HEX    C0F18206   5.085   7.183   6.882
    1HEX    O0G18207   5.050   7.057   6.839
    1HEX    C0H18208   5.026   7.032   6.711
    1HEX    O0I18209   5.005   7.115   6.622
    1HEX    C0J18210   5.025   6.884   6.685
    1HEX    C0K18211   5.042   6.805   6.816
    1HEX    C0N18212   5.297   7.119   6.996
    1HEX    O0O18213   5.424   7.158   7.042
    1HEX    C0P18214   5.431   0.051   7.155
    1HEX    C0Q18215   5.353   0.005   0.088
    1HEX    C0R18216   5.381   7.045   0.108
    1HEX    O0S18217   5.513   7.001   0.078
    1HEX    C0T18218   5.529   6.867   0.080
    1HEX    O0U18219   5.451   6.788   0.132
    1HEX    C0V18220   5.650   6.815   0.005
    1HEX    C0W18221   5.774   6.901   0.007
    1HEX    C0Y18222   5.408   0.089   0.203
    1HEX    O0Z18223   5.309   0.091   0.304
    1HEX    C1018224   5.294   0.189   0.391
    1HEX    O1118225   5.377   0.269   0.431
    1HEX    C1218226   5.159   0.184   0.454
    1HEX    C1318227   5.168   0.103   0.583
    1HEX    C1518228   5.202   0.041   0.080
    1HEX    O1618229   5.126   7.164   0.179
    1HEX    C1718230   5.074   7.045   0.151
    1HEX    O1818231   5.074   6.993   0.040
    1HEX    C1918232   5.010   6.979   0.270
    1HEX    C1A18233   4.911   7.069   0.347
    1HEX    H1D18234   5.748   6.938   6.559
    1HEX    H1E18235   5.613   6.850   6.618
    1HEX    H1F18236   5.680   7.138   6.704
    1HEX    H1G18237   5.709   6.992   6.789
    1HEX    H1H18238   5.271   7.060   6.728
    1HEX    H1I18239   5.270   0.034   6.680
    1HEX    H1J18240   5.356   0.190   6.898
    1HEX    H1K18241   5.231   0.182   7.014
    1HEX    H1M18242   4.906   0.404   6.781
    1HEX    H1N18243   5.034   0.364   6.667
    1HEX    H1O18244   5.023   0.609   6.722
    1HEX    H1P18245   5.180   0.538   6.753
    1HEX    H1R18246   5.034   0.062   6.816
    1HEX    H1S18247   5.043   0.008   6.981
    1HEX    H1T18248   5.106   6.861   6.616
    1HEX    H1U18249   4.932   6.860   6.636
    1HEX    H1V18250   5.017   6.705   6.791
    1HEX    H1W18251   4.984   6.837   6.901
    1HEX    H1Y18252   5.326   7.029   6.949
    1HEX    H1Z18253   5.228   7.074   7.065
    1HEX    H2018254   5.406   0.152   7.128
    1HEX    H2118255   5.536   0.054   7.180
    1HEX    H2218256   5.317   6.989   0.043
    1HEX    H2318257   5.353   7.009   0.206
    1HEX    H2418258   5.618   6.801   7.093
    1HEX    H2518259   5.675   6.717   0.045
    1HEX    H2618260   5.864   6.841   7.183
    1HEX    H2718261   5.786   6.956   0.100
    1HEX    H2918262   5.421   0.187   0.165
    1HEX    H2A18263   5.508   0.058   0.231
    1HEX    H2B18264   5.087   0.146   0.382
    1HEX    H2C18265   5.134   0.288   0.476
    1HEX    H2D18266   5.090   0.133   0.651
    1HEX    H2E18267   5.263   0.123   0.632
    1HEX    H2G18268   5.154   0.030   7.174
    1HEX    H2H18269   5.191   0.147   0.096
    1HEX    H2I18270   5.091   6.945   0.335
    1HEX    H2J18271   4.960   6.889   0.236
    1HEX    H2K18272   4.964   7.153   0.389
    1HEX    H2M18273   4.865   7.013   0.428
    1STR    S0018274   5.544   6.993   6.443
    1STR    S0E18275   5.067   0.601   6.953
    1STR    S0M18276   5.211   6.817   6.868
    1STR    S0X18277   5.758   7.010   7.058
    1STR    S1418278   5.151   7.116   0.553
    1STR    S1B18279   4.786   7.155   0.251
    1HEX    C0118280   5.521   6.772   1.274
    1HEX    C0218281   5.504   6.833   1.412
    1HEX    C0318282   5.359   6.823   1.442
    1HEX    O0418283   5.310   6.719   1.484
    1HEX    O0518284   5.300   6.931   1.403
    1HEX    C0618285   5.163   6.937   1.388
    1HEX    C0718286   5.114   7.073   1.434
    1HEX    C0818287   5.153   7.185   1.339
    1HEX    O0918288   5.077   0.111   1.366
    1HEX    C0A18289   5.091   0.214   1.283
    1HEX    O0B18290   5.119   0.205   1.163
    1HEX    C0C18291   5.073   0.350   1.347
    1HEX    C0D18292   5.047   0.353   1.498
    1HEX    C0F18293   4.959   7.067   1.424
    1HEX    O0G18294   4.904   6.937   1.440
    1HEX    C0H18295   4.863   6.870   1.332
    1HEX    O0I18296   4.855   6.917   1.219
    1HEX    C0J18297   4.826   6.725   1.358
    1HEX    C0K18298   4.843   6.679   1.502
    1HEX    C0N18299   5.181   7.098   1.572
    1HEX    O0O18300   5.321   7.118   1.563
    1HEX    C0P18301   5.389   7.190   1.664
    1HEX    C0Q18302   5.435   7.110   1.787
    1HEX    C0R18303   5.488   6.977   1.740
    1HEX    O0S18304   5.602   6.988   1.655
    1HEX    C0T18305   5.719   6.936   1.695
    1HEX    O0U18306   5.743   6.881   1.803
    1HEX    C0V18307   5.826   6.938   1.589
    1HEX    C0W18308   5.820   7.054   1.490
    1HEX    C0Y18309   5.549   7.188   1.853
    1HEX    O0Z18310   5.609   7.098   1.943
    1HEX    C1018311   5.603   7.116   2.071
    1HEX    O1118312   5.588   0.033   2.128
    1HEX    C1218313   5.606   6.982   2.140
    1HEX    C1318314   5.680   6.975   2.273
    1HEX    C1518315   5.319   7.090   1.888
    1HEX    O1618316   5.341   6.977   1.971
    1HEX    C1718317   5.255   6.933   2.066
    1HEX    O1818318   5.287   6.854   2.154
    1HEX    C1918319   5.115   6.989   2.067
    1HEX    C1A18320   5.023   6.956   1.954
    1HEX    H1D18321   5.499   6.666   1.283
    1HEX    H1E18322   5.624   6.776   1.244
    1HEX    H1F18323   5.530   6.939   1.416
    1HEX    H1G18324   5.563   6.781   1.486
    1HEX    H1H18325   5.121   6.864   1.453
    1HEX    H1I18326   5.134   6.912   1.286
    1HEX    H1J18327   5.136   7.154   1.237
    1HEX    H1K18328   5.258   0.019   1.353
    1HEX    H1M18329   4.994   0.402   1.294
    1HEX    H1N18330   5.165   0.402   1.325
    1HEX    H1O18331   4.951   0.308   1.518
    1HEX    H1P18332   5.047   0.454   1.538
    1HEX    H1R18333   4.928   7.107   1.327
    1HEX    H1S18334   4.910   7.135   1.492
    1HEX    H1T18335   4.884   6.662   1.289
    1HEX    H1U18336   4.722   6.713   1.333
    1HEX    H1V18337   4.790   6.586   1.520
    1HEX    H1W18338   4.804   6.754   1.570
    1HEX    H1Y18339   5.164   7.014   1.638
    1HEX    H1Z18340   5.145   7.188   1.615
    1HEX    H2018341   5.339   0.090   1.694
    1HEX    H2118342   5.478   0.031   1.612
    1HEX    H2218343   5.407   6.927   1.688
    1HEX    H2318344   5.511   6.916   1.827
    1HEX    H2418345   5.811   6.847   1.531
    1HEX    H2518346   5.923   6.927   1.634
    1HEX    H2618347   5.720   7.056   1.452
    1HEX    H2718348   5.893   7.037   1.413
    1HEX    H2918349   5.516   0.090   1.900
    1HEX    H2A18350   5.624   0.024   1.780
    1HEX    H2B18351   5.652   6.913   2.069
    1HEX    H2C18352   5.505   6.948   2.151
    1HEX    H2D18353   5.781   7.011   2.263
    1HEX    H2E18354   5.686   6.870   2.302
    1HEX    H2G18355   5.226   7.081   1.835
    1HEX    H2H18356   5.312   7.177   1.952
    1HEX    H2I18357   5.130   7.095   2.070
    1HEX    H2J18358   5.067   6.956   2.158
    1HEX    H2K18359   4.961   6.870   1.975
    1HEX    H2M18360   5.080   6.933   1.864
    1STR    S0018361   5.405   6.835   1.147
    1STR    S0E18362   5.173   0.259   1.584
    1STR    S0M18363   5.017   6.650   1.534
    1STR    S0X18364   5.851   0.034   1.537
    1STR    S1418365   5.608   7.068   2.409
    1STR    S1B18366   4.920   7.103   1.934
    1HEX    C0118367   5.631   7.026   2.806
    1HEX    C0218368   5.653   7.005   2.956
    1HEX    C0318369   5.529   6.965   3.031
    1HEX    O0418370   5.472   6.862   2.999
    1HEX    O0518371   5.503   7.040   3.142
    1HEX    C0618372   5.391   7.128   3.146
    1HEX    C0718373   5.271   7.103   3.241
    1HEX    C0818374   5.204   0.041   3.290
    1HEX    O0918375   5.123   0.103   3.194
    1HEX    C0A18376   5.045   0.206   3.232
    1HEX    O0B18377   4.930   0.224   3.196
    1HEX    C0C18378   5.115   0.307   3.319
    1HEX    C0D18379   5.247   0.351   3.256
    1HEX    C0F18380   5.163   7.030   3.158
    1HEX    O0G18381   5.177   6.892   3.171
    1HEX    C0H18382   5.195   6.810   3.070
    1HEX    O0I18383   5.204   6.842   2.952
    1HEX    C0J18384   5.209   6.666   3.116
    1HEX    C0K18385   5.168   6.647   3.264
    1HEX    C0N18386   5.315   7.038   3.373
    1HEX    O0O18387   5.449   7.070   3.405
    1HEX    C0P18388   5.484   7.185   3.481
    1HEX    C0Q18389   5.458   7.176   3.633
    1HEX    C0R18390   5.482   7.030   3.676
    1HEX    O0S18391   5.606   7.013   3.742
    1HEX    C0T18392   5.641   6.896   3.793
    1HEX    O0U18393   5.585   6.789   3.769
    1HEX    C0V18394   5.768   6.904   3.877
    1HEX    C0W18395   5.811   7.047   3.920
    1HEX    C0Y18396   5.556   0.084   3.704
    1HEX    O0Z18397   5.526   0.114   3.839
    1HEX    C1018398   5.492   0.237   3.873
    1HEX    O1118399   5.478   0.332   3.797
    1HEX    C1218400   5.472   0.260   4.021
    1HEX    C1318401   5.464   0.138   4.110
    1HEX    C1518402   5.316   0.040   3.653
    1HEX    O1618403   5.249   0.008   3.772
    1HEX    C1718404   5.159   7.104   3.770
    1HEX    O1818405   5.161   7.011   3.690
    1HEX    C1918406   5.061   7.108   3.886
    1HEX    C1A18407   4.959   0.033   3.894
    1HEX    H1D18408   5.639   6.931   2.754
    1HEX    H1E18409   5.707   7.093   2.767
    1HEX    H1F18410   5.693   7.097   3.000
    1HEX    H1G18411   5.727   6.927   2.969
    1HEX    H1H18412   5.350   7.118   3.048
    1HEX    H1I18413   5.427   0.040   3.155
    1HEX    H1J18414   5.278   0.106   3.333
    1HEX    H1K18415   5.136   0.019   3.372
    1HEX    H1M18416   5.130   0.264   3.417
    1HEX    H1N18417   5.047   0.390   3.333
    1HEX    H1O18418   5.226   0.407   3.168
    1HEX    H1P18419   5.314   0.272   3.225
    1HEX    H1R18420   5.161   7.061   3.054
    1HEX    H1S18421   5.063   7.059   3.188
    1HEX    H1T18422   5.313   6.638   3.099
    1HEX    H1U18423   5.149   6.603   3.051
    1HEX    H1V18424   5.064   6.623   3.270
    1HEX    H1W18425   5.179   6.737   3.324
    1HEX    H1Y18426   5.307   6.931   3.360
    1HEX    H1Z18427   5.246   7.050   3.456
    1HEX    H2018428   5.448   0.087   3.439
    1HEX    H2118429   5.590   0.003   3.467
    1HEX    H2218430   5.476   6.958   3.596
    1HEX    H2318431   5.403   6.997   3.739
    1HEX    H2418432   5.849   6.851   3.828
    1HEX    H2518433   5.747   6.847   3.966
    1HEX    H2618434   5.832   7.046   4.026
    1HEX    H2718435   5.735   7.122   3.904
    1HEX    H2918436   5.571   0.174   3.646
    1HEX    H2A18437   5.656   0.048   3.708
    1HEX    H2B18438   5.380   0.316   4.032
    1HEX    H2C18439   5.552   0.325   4.054
    1HEX    H2D18440   5.435   0.170   4.209
    1HEX    H2E18441   5.562   0.092   4.116
    1HEX    H2G18442   5.249   0.025   3.570
    1HEX    H2H18443   5.324   0.147   3.656
    1HEX    H2I18444   5.115   7.113   3.978
    1HEX    H2J18445   5.011   7.012   3.895
    1HEX    H2K18446   5.004   0.118   3.942
    1HEX    H2M18447   4.884   0.002   3.967
    1STR    S0018448   5.469   7.095   2.769
    1STR    S0E18449   5.331   0.459   3.366
    1STR    S0M18450   5.270   6.531   3.356
    1STR    S0X18451   5.956   7.112   3.835
    1STR    S1418452   5.335   0.024   4.055
    1STR    S1B18453   4.863   0.091   3.751
    1HEX    C0118454   5.828   7.075   4.751
    1HEX    C0218455   5.744   7.191   4.809
    1HEX    C0318456   5.623   7.146   4.887
    1HEX    O0418457   5.634   7.058   4.972
    1HEX    O0518458   5.512   0.015   4.842
    1HEX    C0618459   5.381   7.155   4.866
    1HEX    C0718460   5.325   7.182   5.006
    1HEX    C0818461   5.370   0.131   5.046
    1HEX    O0918462   5.298   0.228   4.973
    1HEX    C0A18463   5.202   0.292   5.037
    1HEX    O0B18464   5.165   0.267   5.151
    1HEX    C0C18465   5.147   0.404   4.954
    1HEX    C0D18466   5.261   0.496   4.911
    1HEX    C0F18467   5.172   7.187   5.003
    1HEX    O0G18468   5.106   7.065   4.997
    1HEX    C0H18469   5.026   7.034   4.896
    1HEX    O0I18470   5.009   7.102   4.797
    1HEX    C0J18471   4.942   6.911   4.917
    1HEX    C0K18472   4.993   6.830   5.034
    1HEX    C0N18473   5.367   7.069   5.102
    1HEX    O0O18474   5.483   7.078   5.182
    1HEX    C0P18475   5.475   7.130   5.313
    1HEX    C0Q18476   5.389   7.064   5.421
    1HEX    C0R18477   5.400   6.916   5.397
    1HEX    O0S18478   5.528   6.859   5.413
    1HEX    C0T18479   5.534   6.726   5.414
    1HEX    O0U18480   5.446   6.650   5.452
    1HEX    C0V18481   5.664   6.670   5.362
    1HEX    C0W18482   5.783   6.760   5.384
    1HEX    C0Y18483   5.439   7.084   5.564
    1HEX    O0Z18484   5.416   6.968   5.644
    1HEX    C1018485   5.324   6.963   5.738
    1HEX    O1118486   5.243   7.052   5.764
    1HEX    C1218487   5.328   6.836   5.822
    1HEX    C1318488   5.441   6.735   5.793
    1HEX    C1518489   5.251   7.132   5.408
    1HEX    O1618490   5.161   7.115   5.514
    1HEX    C1718491   5.061   7.032   5.498
    1HEX    O1818492   5.044   6.963   5.397
    1HEX    C1918493   4.971   7.021   5.620
    1HEX    C1A18494   4.858   6.919   5.603
    1HEX    H1D18495   5.876   7.109   4.659
    1HEX    H1E18496   5.905   7.048   4.822
    1HEX    H1F18497   5.706   0.062   4.727
    1HEX    H1G18498   5.803   0.067   4.871
    1HEX    H1H18499   5.373   7.050   4.843
    1HEX    H1I18500   5.318   0.016   4.792
    1HEX    H1J18501   5.471   0.149   5.019
    1HEX    H1K18502   5.363   0.148   5.153
    1HEX    H1M18503   5.075   0.460   5.013
    1HEX    H1N18504   5.096   0.362   4.868
    1HEX    H1O18505   5.221   0.577   4.851
    1HEX    H1P18506   5.335   0.441   4.853
    1HEX    H1R18507   5.136   0.065   4.925
    1HEX    H1S18508   5.137   0.038   5.097
    1HEX    H1T18509   4.946   6.851   4.828
    1HEX    H1U18510   4.838   6.940   4.930
    1HEX    H1V18511   4.938   6.738   5.046
    1HEX    H1W18512   4.986   6.889   5.126
    1HEX    H1Y18513   5.391   6.983   5.041
    1HEX    H1Z18514   5.282   7.034   5.157
    1HEX    H2018515   5.449   0.041   5.295
    1HEX    H2118516   5.575   7.127   5.351
    1HEX    H2218517   5.383   6.903   5.294
    1HEX    H2318518   5.328   6.859   5.450
    1HEX    H2418519   5.650   6.650   5.256
    1HEX    H2518520   5.682   6.576   5.413
    1HEX    H2618521   5.877   6.706   5.378
    1HEX    H2718522   5.775   6.802   5.484
    1HEX    H2918523   5.398   7.173   5.610
    1HEX    H2A18524   5.547   7.096   5.563
    1HEX    H2B18525   5.232   6.787   5.812
    1HEX    H2C18526   5.332   6.866   5.926
    1HEX    H2D18527   5.435   6.703   5.690
    1HEX    H2E18528   5.424   6.648   5.856
    1HEX    H2G18529   5.201   7.116   5.314
    1HEX    H2H18530   5.270   0.047   5.406
    1HEX    H2I18531   4.935   7.119   5.650
    1HEX    H2J18532   5.031   6.985   5.702
    1HEX    H2K18533   4.821   6.892   5.701
    1HEX    H2M18534   4.895   6.828   5.556
    1STR    S0018535   5.740   6.920   4.711
    1STR    S0E18536   5.338   0.566   5.057
    1STR    S0M18537   5.164   6.794   4.994
    1STR    S0X18538   5.783   6.886   5.255
    1STR    S1418539   5.613   6.788   5.819
    1STR    S1B18540   4.719   6.983   5.506
    1HEX    C0118541   5.720   1.741   6.580
    1HEX    C0218542   5.629   1.815   6.679
    1HEX    C0318543   5.511   1.732   6.728
    1HEX    O0418544   5.524   1.611   6.743
    1HEX    O0518545   5.397   1.803   6.750
    1HEX    C0618546   5.272   1.734   6.743
    1HEX    C0718547   5.166   1.742   6.852
    1HEX    C0818548   5.126   1.887   6.876
    1HEX    O0918549   5.003   1.897   6.944
    1HEX    C0A18550   5.003   1.941   7.067
    1HEX    O0B18551   4.990   1.869   7.166
    1HEX    C0C18552   5.012   2.092   7.074
    1HEX    C0D18553   5.117   2.140   7.172
    1HEX    C0F18554   5.034   1.674   6.814
    1HEX    O0G18555   5.040   1.542   6.770
    1HEX    C0H18556   4.930   1.486   6.719
    1HEX    O0I18557   4.832   1.545   6.674
    1HEX    C0J18558   4.931   1.335   6.721
    1HEX    C0K18559   5.013   1.278   6.835
    1HEX    C0N18560   5.216   1.670   6.974
    1HEX    O0O18561   5.356   1.666   6.982
    1HEX    C0P18562   5.423   1.783   7.022
    1HEX    C0Q18563   5.479   1.768   7.159
    1HEX    C0R18564   5.562   1.640   7.148
    1HEX    O0S18565   5.673   1.673   7.065
    1HEX    C0T18566   5.725   1.593   6.974
    1HEX    O0U18567   5.687   1.481   6.944
    1HEX    C0V18568   5.845   1.654   6.905
    1HEX    C0W18569   5.878   1.799   6.944
    1HEX    C0Y18570   5.565   1.892   7.185
    1HEX    O0Z18571   5.602   1.896   0.130
    1HEX    C1018572   5.611   2.011   0.190
    1HEX    O1118573   5.556   2.117   0.159
    1HEX    C1218574   5.691   1.997   0.315
    1HEX    C1318575   5.729   2.131   0.377
    1HEX    C1518576   5.366   1.770   0.073
    1HEX    O1618577   5.366   1.660   0.159
    1HEX    C1718578   5.287   1.560   0.129
    1HEX    O1818579   5.236   1.537   0.022
    1HEX    C1918580   5.267   1.471   0.245
    1HEX    C1A18581   5.121   1.443   0.287
    1HEX    H1D18582   5.821   1.782   6.587
    1HEX    H1E18583   5.725   1.634   6.601
    1HEX    H1F18584   5.596   1.904   6.629
    1HEX    H1G18585   5.684   1.848   6.766
    1HEX    H1H18586   5.285   1.628   6.724
    1HEX    H1I18587   5.228   1.783   6.659
    1HEX    H1J18588   5.121   1.944   6.784
    1HEX    H1K18589   5.200   1.935   6.933
    1HEX    H1M18590   4.914   2.130   7.104
    1HEX    H1N18591   5.034   2.132   6.976
    1HEX    H1O18592   5.081   2.116   0.080
    1HEX    H1P18593   5.134   2.246   7.165
    1HEX    H1R18594   4.974   1.734   6.747
    1HEX    H1S18595   4.979   1.666   6.906
    1HEX    H1T18596   4.966   1.294   6.628
    1HEX    H1U18597   4.828   1.303   6.732
    1HEX    H1V18598   4.995   1.171   6.840
    1HEX    H1W18599   4.981   1.321   6.930
    1HEX    H1Y18600   5.189   1.565   6.968
    1HEX    H1Z18601   5.165   1.707   7.062
    1HEX    H2018602   5.364   1.869   7.013
    1HEX    H2118603   5.507   1.801   6.958
    1HEX    H2218604   5.506   1.556   7.107
    1HEX    H2318605   5.589   1.607   0.056
    1HEX    H2418606   5.824   1.648   6.799
    1HEX    H2518607   5.930   1.588   6.922
    1HEX    H2618608   5.937   1.843   6.865
    1HEX    H2718609   5.790   1.861   6.957
    1HEX    H2918610   5.516   1.983   7.157
    1HEX    H2A18611   5.652   1.895   7.121
    1HEX    H2B18612   5.784   1.947   0.287
    1HEX    H2C18613   5.641   1.929   0.382
    1HEX    H2D18614   5.769   2.197   0.301
    1HEX    H2E18615   5.808   2.098   0.440
    1HEX    H2G18616   5.268   1.783   0.029
    1HEX    H2H18617   5.373   1.857   0.138
    1HEX    H2I18618   5.325   1.512   0.325
    1HEX    H2J18619   5.324   1.385   0.225
    1HEX    H2K18620   5.074   1.537   0.310
    1HEX    H2M18621   5.123   1.384   0.378
    1STR    S0018622   5.665   1.767   6.410
    1STR    S0E18623   5.275   2.061   7.154
    1STR    S0M18624   5.191   1.307   6.820
    1STR    S0X18625   5.980   1.806   7.091
    1STR    S1418626   5.617   2.222   0.489
    1STR    S1B18627   5.008   1.367   0.170
    1HEX    C0118628   5.684   1.596   1.120
    1HEX    C0218629   5.678   1.544   1.261
    1HEX    C0318630   5.534   1.528   1.301
    1HEX    O0418631   5.468   1.435   1.256
    1HEX    O0518632   5.488   1.635   1.367
    1HEX    C0618633   5.349   1.663   1.368
    1HEX    C0718634   5.276   1.670   1.500
    1HEX    C0818635   5.248   1.815   1.545
    1HEX    O0918636   5.196   1.888   1.437
    1HEX    C0A18637   5.158   2.012   1.458
    1HEX    O0B18638   5.102   2.057   1.556
    1HEX    C0C18639   5.190   2.098   1.341
    1HEX    C0D18640   5.338   2.132   1.334
    1HEX    C0F18641   5.140   1.603   1.484
    1HEX    O0G18642   5.159   1.464   1.476
    1HEX    C0H18643   5.091   1.386   1.394
    1HEX    O0I18644   5.021   1.422   1.300
    1HEX    C0J18645   5.097   1.240   1.428
    1HEX    C0K18646   5.182   1.215   1.551
    1HEX    C0N18647   5.360   1.586   1.594
    1HEX    O0O18648   5.484   1.643   1.627
    1HEX    C0P18649   5.501   1.729   1.736
    1HEX    C0Q18650   5.460   1.675   1.870
    1HEX    C0R18651   5.495   1.529   1.879
    1HEX    O0S18652   5.634   1.511   1.869
    1HEX    C0T18653   5.686   1.398   1.912
    1HEX    O0U18654   5.621   1.300   1.947
    1HEX    C0V18655   5.837   1.403   1.925
    1HEX    C0W18656   5.890   1.543   1.962
    1HEX    C0Y18657   5.548   1.747   1.974
    1HEX    O0Z18658   5.469   1.798   2.075
    1HEX    C1018659   5.416   1.911   2.055
    1HEX    O1118660   5.456   1.989   1.972
    1HEX    C1218661   5.280   1.919   2.118
    1HEX    C1318662   5.291   1.967   2.260
    1HEX    C1518663   5.307   1.702   1.877
    1HEX    O1618664   5.232   1.629   1.971
    1HEX    C1718665   5.131   1.553   1.927
    1HEX    O1818666   5.119   1.505   1.815
    1HEX    C1918667   5.024   1.536   2.030
    1HEX    C1A18668   4.966   1.670   2.074
    1HEX    H1D18669   5.789   1.596   1.090
    1HEX    H1E18670   5.628   1.532   1.052
    1HEX    H1F18671   5.729   1.614   1.324
    1HEX    H1G18672   5.728   1.447   1.269
    1HEX    H1H18673   5.298   1.586   1.312
    1HEX    H1I18674   5.339   1.757   1.318
    1HEX    H1J18675   5.339   1.866   1.574
    1HEX    H1K18676   5.180   1.819   1.629
    1HEX    H1M18677   5.125   2.185   1.341
    1HEX    H1N18678   5.163   2.035   1.260
    1HEX    H1O18679   5.372   2.143   1.231
    1HEX    H1P18680   5.401   2.055   1.381
    1HEX    H1R18681   5.086   1.644   1.399
    1HEX    H1S18682   5.083   1.621   1.574
    1HEX    H1T18683   5.134   1.185   1.342
    1HEX    H1U18684   4.995   1.210   1.449
    1HEX    H1V18685   5.154   1.127   1.606
    1HEX    H1W18686   5.164   1.294   1.624
    1HEX    H1Y18687   5.388   1.500   1.536
    1HEX    H1Z18688   5.303   1.538   1.671
    1HEX    H2018689   5.467   1.832   1.724
    1HEX    H2118690   5.607   1.735   1.739
    1HEX    H2218691   5.448   1.477   1.801
    1HEX    H2318692   5.455   1.486   1.968
    1HEX    H2418693   5.880   1.364   1.832
    1HEX    H2518694   5.862   1.330   2.002
    1HEX    H2618695   5.983   1.535   2.016
    1HEX    H2718696   5.819   1.599   2.022
    1HEX    H2918697   5.612   1.824   1.931
    1HEX    H2A18698   5.619   1.681   2.022
    1HEX    H2B18699   5.245   1.818   2.113
    1HEX    H2C18700   5.211   1.976   2.057
    1HEX    H2D18701   5.271   2.074   2.264
    1HEX    H2E18702   5.393   1.956   2.296
    1HEX    H2G18703   5.258   1.693   1.782
    1HEX    H2H18704   5.285   1.807   1.886
    1HEX    H2I18705   5.067   1.484   2.115
    1HEX    H2J18706   4.947   1.470   1.992
    1HEX    H2K18707   5.043   1.745   2.086
    1HEX    H2M18708   4.913   1.656   2.167
    1STR    S0018709   5.624   1.766   1.119
    1STR    S0E18710   5.357   2.288   1.418
    1STR    S0M18711   5.355   1.206   1.498
    1STR    S0X18712   5.922   1.632   1.810
    1STR    S1418713   5.167   1.879   2.359
    1STR    S1B18714   4.840   1.735   1.967
    1HEX    C0118715   5.620   1.571   3.190
    1HEX    C0218716   5.510   1.501   3.265
    1HEX    C0318717   5.371   1.513   3.215
    1HEX    O0418718   5.300   1.414   3.221
    1HEX    O0518719   5.340   1.636   3.175
    1HEX    C0618720   5.206   1.669   3.148
    1HEX    C0718721   5.160   1.781   3.239
    1HEX    C0818722   5.249   1.903   3.223
    1HEX    O0918723   5.190   2.003   3.302
    1HEX    C0A18724   5.146   2.115   3.252
    1HEX    O0B18725   5.159   2.150   3.135
    1HEX    C0C18726   5.073   2.201   3.353
    1HEX    C0D18727   5.031   2.133   3.485
    1HEX    C0F18728   5.019   1.823   3.202
    1HEX    O0G18729   4.931   1.714   3.201
    1HEX    C0H18730   4.898   1.654   3.089
    1HEX    O0I18731   4.920   1.694   2.975
    1HEX    C0J18732   4.819   1.528   3.115
    1HEX    C0K18733   4.841   1.474   3.257
    1HEX    C0N18734   5.158   1.736   3.385
    1HEX    O0O18735   5.278   1.671   3.418
    1HEX    C0P18736   5.367   1.728   3.510
    1HEX    C0Q18737   5.345   1.665   3.646
    1HEX    C0R18738   5.328   1.516   3.637
    1HEX    O0S18739   5.437   1.462   3.566
    1HEX    C0T18740   5.495   1.352   3.606
    1HEX    O0U18741   5.454   1.271   3.689
    1HEX    C0V18742   5.629   1.335   3.538
    1HEX    C0W18743   5.730   1.439   3.586
    1HEX    C0Y18744   5.457   1.695   3.741
    1HEX    O0Z18745   5.548   1.594   3.779
    1HEX    C1018746   5.534   1.532   3.896
    1HEX    O1118747   5.428   1.500   3.949
    1HEX    C1218748   5.668   1.516   3.965
    1HEX    C1318749   5.704   1.631   4.060
    1HEX    C1518750   5.221   1.732   3.702
    1HEX    O1618751   5.176   1.677   3.823
    1HEX    C1718752   5.059   1.621   3.817
    1HEX    O1818753   5.020   1.552   3.725
    1HEX    C1918754   4.962   1.687   3.909
    1HEX    C1A18755   4.944   1.827   3.851
    1HEX    H1D18756   5.708   1.545   3.246
    1HEX    H1E18757   5.633   1.524   3.095
    1HEX    H1F18758   5.508   1.535   3.367
    1HEX    H1G18759   5.528   1.395   3.262
    1HEX    H1H18760   5.143   1.583   3.166
    1HEX    H1I18761   5.194   1.697   3.044
    1HEX    H1J18762   5.258   1.931   3.118
    1HEX    H1K18763   5.349   1.882   3.260
    1HEX    H1M18764   4.984   2.239   3.303
    1HEX    H1N18765   5.136   2.287   3.372
    1HEX    H1O18766   4.960   2.053   3.462
    1HEX    H1P18767   4.981   2.206   3.547
    1HEX    H1R18768   5.015   1.880   3.109
    1HEX    H1S18769   4.985   1.886   3.282
    1HEX    H1T18770   4.848   1.454   3.041
    1HEX    H1U18771   4.716   1.555   3.099
    1HEX    H1V18772   4.763   1.406   3.291
    1HEX    H1W18773   4.853   1.551   3.333
    1HEX    H1Y18774   5.078   1.664   3.402
    1HEX    H1Z18775   5.136   1.822   3.449
    1HEX    H2018776   5.359   1.836   3.514
    1HEX    H2118777   5.466   1.705   3.476
    1HEX    H2218778   5.237   1.501   3.585
    1HEX    H2318779   5.317   1.472   3.736
    1HEX    H2418780   5.619   1.333   3.431
    1HEX    H2518781   5.664   1.236   3.567
    1HEX    H2618782   5.723   1.435   3.694
    1HEX    H2718783   5.832   1.406   3.564
    1HEX    H2918784   5.404   1.720   3.831
    1HEX    H2A18785   5.511   1.784   3.710
    1HEX    H2B18786   5.746   1.503   3.893
    1HEX    H2C18787   5.664   1.424   4.020
    1HEX    H2D18788   5.805   1.615   4.097
    1HEX    H2E18789   5.637   1.630   4.145
    1HEX    H2G18790   5.141   1.732   3.630
    1HEX    H2H18791   5.243   1.837   3.719
    1HEX    H2I18792   5.001   1.686   4.010
    1HEX    H2J18793   4.868   1.632   3.908
    1HEX    H2K18794   5.037   1.879   3.840
    1HEX    H2M18795   4.882   1.886   3.919
    1STR    S0018796   5.617   1.753   3.188
    1STR    S0E18797   5.161   2.060   3.588
    1STR    S0M18798   4.994   1.389   3.261
    1STR    S0X18799   5.709   1.614   3.533
    1STR    S1418800   5.703   1.797   3.984
    1STR    S1B18801   4.876   1.826   3.684
    1HEX    C0118802   5.596   1.556   4.762
    1HEX    C0218803   5.540   1.532   4.901
    1HEX    C0318804   5.394   1.501   4.890
    1HEX    O0418805   5.354   1.385   4.882
    1HEX    O0518806   5.323   1.612   4.889
    1HEX    C0618807   5.188   1.606   4.921
    1HEX    C0718808   5.170   1.662   5.062
    1HEX    C0818809   5.199   1.810   5.070
    1HEX    O0918810   5.108   1.905   5.020
    1HEX    C0A18811   5.090   2.013   5.097
    1HEX    O0B18812   5.007   2.021   5.186
    1HEX    C0C18813   5.194   2.122   5.080
    1HEX    C0D18814   5.328   2.079   5.140
    1HEX    C0F18815   5.023   1.641   5.100
    1HEX    O0G18816   4.960   1.523   5.055
    1HEX    C0H18817   4.893   1.521   4.938
    1HEX    O0I18818   4.880   1.614   4.859
    1HEX    C0J18819   4.836   1.385   4.905
    1HEX    C0K18820   4.877   1.274   5.000
    1HEX    C0N18821   5.267   1.594   5.163
    1HEX    O0O18822   5.408   1.628   5.162
    1HEX    C0P18823   5.469   1.748   5.215
    1HEX    C0Q18824   5.473   1.770   5.368
    1HEX    C0R18825   5.529   1.643   5.433
    1HEX    O0S18826   5.622   1.677   5.536
    1HEX    C0T18827   5.718   1.593   5.571
    1HEX    O0U18828   5.738   1.482   5.523
    1HEX    C0V18829   5.804   1.646   5.681
    1HEX    C0W18830   5.888   1.761   5.631
    1HEX    C0Y18831   5.564   1.891   5.403
    1HEX    O0Z18832   5.523   1.936   5.532
    1HEX    C1018833   5.600   1.995   5.621
    1HEX    O1118834   5.716   2.030   5.607
    1HEX    C1218835   5.525   2.028   5.747
    1HEX    C1318836   5.554   1.945   5.871
    1HEX    C1518837   5.332   1.809   5.412
    1HEX    O1618838   5.302   1.785   5.547
    1HEX    C1718839   5.217   1.688   5.569
    1HEX    O1818840   5.209   1.582   5.508
    1HEX    C1918841   5.120   1.726   5.675
    1HEX    C1A18842   5.029   1.844   5.645
    1HEX    H1D18843   5.571   1.474   4.697
    1HEX    H1E18844   5.701   1.570   4.753
    1HEX    H1F18845   5.553   1.619   4.966
    1HEX    H1G18846   5.587   1.450   4.953
    1HEX    H1H18847   5.153   1.504   4.915
    1HEX    H1I18848   5.128   1.661   4.849
    1HEX    H1J18849   5.293   1.825   5.023
    1HEX    H1K18850   5.211   1.833   5.175
    1HEX    H1M18851   5.151   2.210   5.124
    1HEX    H1N18852   5.205   2.151   4.979
    1HEX    H1O18853   5.378   2.013   5.071
    1HEX    H1P18854   5.309   2.026   5.232
    1HEX    H1R18855   4.961   1.727   5.071
    1HEX    H1S18856   5.021   1.634   5.207
    1HEX    H1T18857   4.872   1.360   4.807
    1HEX    H1U18858   4.728   1.395   4.904
    1HEX    H1V18859   4.831   1.179   4.976
    1HEX    H1W18860   4.847   1.303   5.101
    1HEX    H1Y18861   5.266   1.491   5.134
    1HEX    H1Z18862   5.226   1.587   5.264
    1HEX    H2018863   5.436   1.837   5.166
    1HEX    H2118864   5.571   1.741   5.182
    1HEX    H2218865   5.579   1.582   5.357
    1HEX    H2318866   5.449   1.579   5.469
    1HEX    H2418867   5.866   1.565   5.719
    1HEX    H2518868   5.739   1.678   5.762
    1HEX    H2618869   5.949   1.803   5.711
    1HEX    H2718870   5.822   1.836   5.593
    1HEX    H2918871   5.553   1.970   5.331
    1HEX    H2A18872   5.670   1.865   5.402
    1HEX    H2B18873   5.426   1.999   5.719
    1HEX    H2C18874   5.525   2.135   5.765
    1HEX    H2D18875   5.590   2.008   5.952
    1HEX    H2E18876   5.629   1.870   5.850
    1HEX    H2G18877   5.255   1.763   5.353
    1HEX    H2H18878   5.314   1.915   5.399
    1HEX    H2I18879   5.175   1.761   5.760
    1HEX    H2J18880   5.069   1.634   5.696
    1HEX    H2K18881   5.081   1.930   5.676
    1HEX    H2M18882   4.946   1.853   5.713
    1STR    S0018883   5.522   1.700   4.694
    1STR    S0E18884   5.450   2.205   5.174
    1STR    S0M18885   5.055   1.252   4.989
    1STR    S0X18886   5.993   1.717   5.492
    1STR    S1418887   5.396   1.869   5.920
    1STR    S1B18888   4.991   1.873   5.473
    1HEX    C0118889   5.594   3.291   6.489
    1HEX    C0218890   5.591   3.312   6.640
    1HEX    C0318891   5.449   3.335   6.684
    1HEX    O0418892   5.365   3.246   6.674
    1HEX    O0518893   5.426   3.464   6.713
    1HEX    C0618894   5.292   3.507   6.724
    1HEX    C0718895   5.246   3.528   6.865
    1HEX    C0818896   5.295   3.664   6.911
    1HEX    O0918897   5.224   3.775   6.857
    1HEX    C0A18898   5.145   3.844   6.940
    1HEX    O0B18899   5.128   3.818   7.058
    1HEX    C0C18900   5.072   3.958   6.872
    1HEX    C0D18901   5.126   4.097   6.909
    1HEX    C0F18902   5.094   3.537   6.869
    1HEX    O0G18903   5.045   3.408   6.859
    1HEX    C0H18904   5.020   3.352   6.743
    1HEX    O0I18905   5.000   3.408   6.636
    1HEX    C0J18906   5.014   3.204   6.759
    1HEX    C0K18907   4.970   3.165   6.900
    1HEX    C0N18908   5.292   3.407   6.947
    1HEX    O0O18909   5.427   3.401   6.984
    1HEX    C0P18910   5.464   3.482   7.092
    1HEX    C0Q18911   5.389   3.474   0.034
    1HEX    C0R18912   5.389   3.326   0.074
    1HEX    O0S18913   5.520   3.275   0.086
    1HEX    C0T18914   5.537   3.144   0.081
    1HEX    O0U18915   5.452   3.058   0.058
    1HEX    C0V18916   5.680   3.105   0.113
    1HEX    C0W18917   5.783   3.210   0.072
    1HEX    C0Y18918   5.479   3.557   0.125
    1HEX    O0Z18919   5.405   3.573   0.239
    1HEX    C1018920   5.387   3.686   0.298
    1HEX    O1118921   5.467   3.777   0.310
    1HEX    C1218922   5.260   3.683   0.372
    1HEX    C1318923   5.276   3.581   0.481
    1HEX    C1518924   5.245   3.537   0.040
    1HEX    O1618925   5.172   3.496   0.154
    1HEX    C1718926   5.098   3.388   0.154
    1HEX    O1818927   5.086   3.309   0.062
    1HEX    C1918928   5.032   3.364   0.287
    1HEX    C1A18929   4.888   3.318   0.275
    1HEX    H1D18930   5.691   3.255   6.458
    1HEX    H1E18931   5.518   3.219   6.459
    1HEX    H1F18932   5.654   3.396   6.669
    1HEX    H1G18933   5.626   3.225   6.692
    1HEX    H1H18934   5.231   3.441   6.666
    1HEX    H1I18935   5.277   3.603   6.680
    1HEX    H1J18936   5.399   3.679   6.889
    1HEX    H1K18937   5.288   3.662   7.018
    1HEX    H1M18938   4.969   3.953   6.904
    1HEX    H1N18939   5.074   3.943   6.765
    1HEX    H1O18940   5.062   4.172   6.864
    1HEX    H1P18941   5.227   4.111   6.871
    1HEX    H1R18942   5.052   3.603   6.793
    1HEX    H1S18943   5.061   3.576   6.965
    1HEX    H1T18944   5.113   3.167   6.736
    1HEX    H1U18945   4.945   3.168   6.684
    1HEX    H1V18946   4.914   3.073   6.900
    1HEX    H1W18947   4.907   3.237   6.948
    1HEX    H1Y18948   5.280   3.319   6.886
    1HEX    H1Z18949   5.227   3.381   7.029
    1HEX    H2018950   5.480   3.582   7.059
    1HEX    H2118951   5.563   3.446   7.115
    1HEX    H2218952   5.332   3.267   0.001
    1HEX    H2318953   5.339   3.311   0.170
    1HEX    H2418954   5.701   3.009   0.068
    1HEX    H2518955   5.682   3.089   0.220
    1HEX    H2618956   5.884   3.183   0.101
    1HEX    H2718957   5.757   3.301   0.124
    1HEX    H2918958   5.503   3.653   0.084
    1HEX    H2A18959   5.573   3.508   0.148
    1HEX    H2B18960   5.179   3.659   0.306
    1HEX    H2C18961   5.239   3.782   0.412
    1HEX    H2D18962   5.182   3.579   0.534
    1HEX    H2E18963   5.345   3.632   0.545
    1HEX    H2G18964   5.178   3.525   7.147
    1HEX    H2H18965   5.253   3.645   0.049
    1HEX    H2I18966   5.038   3.457   0.345
    1HEX    H2J18967   5.092   3.288   0.336
    1HEX    H2K18968   4.851   3.287   0.371
    1HEX    H2M18969   4.881   3.234   0.206
    1STR    S0018970   5.562   3.448   6.409
    1STR    S0E18971   5.121   4.122   7.088
    1STR    S0M18972   5.113   3.147   7.006
    1STR    S0X18973   5.782   3.252   7.087
    1STR    S1418974   5.316   3.404   0.441
    1STR    S1B18975   4.789   3.457   0.218
    1HEX    C0118976   5.586   3.221   1.220
    1HEX    C0218977   5.517   3.261   1.347
    1HEX    C0318978   5.369   3.274   1.334
    1HEX    O0418979   5.294   3.177   1.323
    1HEX    O0518980   5.337   3.402   1.337
    1HEX    C0618981   5.206   3.445   1.320
    1HEX    C0718982   5.143   3.473   1.453
    1HEX    C0818983   5.185   3.608   1.502
    1HEX    O0918984   5.126   3.724   1.454
    1HEX    C0A18985   5.187   3.832   1.500
    1HEX    O0B18986   5.305   3.834   1.529
    1HEX    C0C18987   5.101   3.952   1.516
    1HEX    C0D18988   5.132   4.048   1.634
    1HEX    C0F18989   4.994   3.454   1.423
    1HEX    O0G18990   4.977   3.315   1.398
    1HEX    C0H18991   4.858   3.261   1.394
    1HEX    O0I18992   4.751   3.319   1.405
    1HEX    C0J18993   4.867   3.113   1.369
    1HEX    C0K18994   4.899   3.034   1.495
    1HEX    C0N18995   5.192   3.380   1.563
    1HEX    O0O18996   5.333   3.370   1.582
    1HEX    C0P18997   5.413   3.467   1.647
    1HEX    C0Q18998   5.459   3.396   1.772
    1HEX    C0R18999   5.502   3.252   1.739
    1HEX    O0S19000   5.602   3.250   1.638
    1HEX    C0T19001   5.726   3.207   1.665
    1HEX    O0U19002   5.768   3.167   1.773
    1HEX    C0V19003   5.816   3.211   1.542
    1HEX    C0W19004   5.820   3.348   1.472
    1HEX    C0Y19005   5.579   3.464   1.829
    1HEX    O0Z19006   5.616   3.398   1.948
    1HEX    C1019007   5.584   3.455   2.061
    1HEX    O1119008   5.548   3.572   2.072
    1HEX    C1219009   5.582   3.355   2.174
    1HEX    C1319010   5.682   3.380   2.287
    1HEX    C1519011   5.345   3.411   1.872
    1HEX    O1619012   5.347   3.308   1.968
    1HEX    C1719013   5.257   3.302   2.065
    1HEX    O1819014   5.275   3.236   2.167
    1HEX    C1919015   5.131   3.384   2.051
    1HEX    C1A19016   5.029   3.359   1.945
    1HEX    H1D19017   5.694   3.231   1.231
    1HEX    H1E19018   5.565   3.116   1.198
    1HEX    H1F19019   5.548   3.360   1.378
    1HEX    H1G19020   5.537   3.191   1.427
    1HEX    H1H19021   5.153   3.369   1.265
    1HEX    H1I19022   5.203   3.536   1.262
    1HEX    H1J19023   5.292   3.612   1.478
    1HEX    H1K19024   5.174   3.613   1.610
    1HEX    H1M19025   5.000   3.916   1.523
    1HEX    H1N19026   5.105   4.005   1.422
    1HEX    H1O19027   5.036   4.075   1.675
    1HEX    H1P19028   5.160   4.142   1.592
    1HEX    H1R19029   4.964   3.511   1.336
    1HEX    H1S19030   4.927   3.491   1.497
    1HEX    H1T19031   4.940   3.092   1.292
    1HEX    H1U19032   4.770   3.083   1.330
    1HEX    H1V19033   4.884   2.928   1.476
    1HEX    H1W19034   4.827   3.062   1.571
    1HEX    H1Y19035   5.169   3.282   1.529
    1HEX    H1Z19036   5.138   3.395   1.654
    1HEX    H2019037   5.367   3.562   1.673
    1HEX    H2119038   5.497   3.491   1.582
    1HEX    H2219039   5.418   3.195   1.705
    1HEX    H2319040   5.540   3.206   1.830
    1HEX    H2419041   5.779   3.137   1.473
    1HEX    H2519042   5.916   3.179   1.569
    1HEX    H2619043   5.722   3.393   1.465
    1HEX    H2719044   5.862   3.341   1.373
    1HEX    H2919045   5.565   3.572   1.838
    1HEX    H2A19046   5.657   3.446   1.758
    1HEX    H2B19047   5.596   3.255   2.132
    1HEX    H2C19048   5.481   3.358   2.213
    1HEX    H2D19049   5.782   3.356   2.255
    1HEX    H2E19050   5.657   3.314   2.370
    1HEX    H2G19051   5.253   3.413   1.819
    1HEX    H2H19052   5.352   3.507   1.922
    1HEX    H2I19053   5.158   3.489   2.061
    1HEX    H2J19054   5.072   3.350   2.132
    1HEX    H2K19055   4.963   3.276   1.967
    1HEX    H2M19056   5.073   3.339   1.850
    1STR    S0019057   5.534   3.315   1.076
    1STR    S0E19058   5.231   4.017   1.786
    1STR    S0M19059   5.071   3.054   1.552
    1STR    S0X19060   5.917   3.467   1.563
    1STR    S1419061   5.670   3.551   2.345
    1STR    S1B19062   4.931   3.509   1.941
    1HEX    C0119063   5.602   3.432   2.913
    1HEX    C0219064   5.581   3.282   2.931
    1HEX    C0319065   5.441   3.252   2.977
    1HEX    O0419066   5.376   3.160   2.927
    1HEX    O0519067   5.401   3.335   3.072
    1HEX    C0619068   5.267   3.323   3.113
    1HEX    C0719069   5.235   3.394   3.243
    1HEX    C0819070   5.239   3.544   3.231
    1HEX    O0919071   5.121   3.603   3.184
    1HEX    C0A19072   5.055   3.680   3.269
    1HEX    O0B19073   5.029   3.648   3.383
    1HEX    C0C19074   5.059   3.822   3.232
    1HEX    C0D19075   5.207   3.857   3.233
    1HEX    C0F19076   5.095   3.354   3.280
    1HEX    O0G19077   5.080   3.216   3.294
    1HEX    C0H19078   5.016   3.144   3.201
    1HEX    O0I19079   4.972   3.185   3.094
    1HEX    C0J19080   5.000   3.000   3.242
    1HEX    C0K19081   5.071   2.970   3.375
    1HEX    C0N19082   5.328   3.352   3.356
    1HEX    O0O19083   5.441   3.438   3.373
    1HEX    C0P19084   5.445   3.542   3.471
    1HEX    C0Q19085   5.409   3.514   3.617
    1HEX    C0R19086   5.451   3.371   3.653
    1HEX    O0S19087   5.584   3.357   3.697
    1HEX    C0T19088   5.619   3.239   3.742
    1HEX    O0U19089   5.548   3.140   3.732
    1HEX    C0V19090   5.756   3.233   3.807
    1HEX    C0W19091   5.792   3.360   3.885
    1HEX    C0Y19092   5.483   3.620   3.704
    1HEX    O0Z19093   5.398   3.689   3.792
    1HEX    C1019094   5.445   3.786   3.869
    1HEX    O1119095   5.551   3.847   3.854
    1HEX    C1219096   5.348   3.818   3.981
    1HEX    C1319097   5.354   3.728   4.101
    1HEX    C1519098   5.257   3.532   3.632
    1HEX    O1619099   5.209   3.502   3.762
    1HEX    C1719100   5.139   3.392   3.785
    1HEX    O1819101   5.140   3.291   3.717
    1HEX    C1919102   5.057   3.400   3.913
    1HEX    C1A19103   4.996   3.538   3.935
    1HEX    H1D19104   5.696   3.443   2.863
    1HEX    H1E19105   5.604   3.482   3.010
    1HEX    H1F19106   5.650   3.241   3.004
    1HEX    H1G19107   5.598   3.229   2.838
    1HEX    H1H19108   5.247   3.217   3.123
    1HEX    H1I19109   5.201   3.360   3.035
    1HEX    H1J19110   5.326   3.577   3.176
    1HEX    H1K19111   5.250   3.581   3.331
    1HEX    H1M19112   5.001   3.876   3.306
    1HEX    H1N19113   5.007   3.839   3.141
    1HEX    H1O19114   5.266   3.824   3.150
    1HEX    H1P19115   5.256   3.806   3.316
    1HEX    H1R19116   5.030   3.391   3.203
    1HEX    H1S19117   5.067   3.401   3.374
    1HEX    H1T19118   5.037   2.938   3.161
    1HEX    H1U19119   4.894   2.984   3.251
    1HEX    H1V19120   5.031   2.882   3.423
    1HEX    H1W19121   5.052   3.049   3.447
    1HEX    H1Y19122   5.370   3.256   3.329
    1HEX    H1Z19123   5.273   3.331   3.447
    1HEX    H2019124   5.400   3.636   3.441
    1HEX    H2119125   5.548   3.568   3.471
    1HEX    H2219126   5.437   3.302   3.572
    1HEX    H2319127   5.386   3.331   3.729
    1HEX    H2419128   5.832   3.204   3.736
    1HEX    H2519129   5.749   3.152   3.879
    1HEX    H2619130   5.827   3.331   3.984
    1HEX    H2719131   5.705   3.422   3.899
    1HEX    H2919132   5.531   3.695   3.643
    1HEX    H2A19133   5.564   3.577   3.762
    1HEX    H2B19134   5.248   3.815   3.940
    1HEX    H2C19135   5.369   3.916   4.021
    1HEX    H2D19136   5.288   3.767   4.178
    1HEX    H2E19137   5.455   3.722   4.140
    1HEX    H2G19138   5.197   3.480   3.559
    1HEX    H2H19139   5.233   3.637   3.614
    1HEX    H2I19140   5.121   3.375   3.996
    1HEX    H2J19141   4.982   3.322   3.912
    1HEX    H2K19142   5.063   3.621   3.911
    1HEX    H2M19143   4.961   3.551   4.037
    1STR    S0019144   5.470   3.504   2.814
    1STR    S0E19145   5.220   4.031   3.259
    1STR    S0M19146   5.248   2.949   3.343
    1STR    S0X19147   5.920   3.462   3.813
    1STR    S1419148   5.292   3.569   4.048
    1STR    S1B19149   4.857   3.549   3.826
    1HEX    C0119150   5.743   3.655   4.800
    1HEX    C0219151   5.648   3.761   4.860
    1HEX    C0319152   5.539   3.703   4.949
    1HEX    O0419153   5.556   3.604   5.020
    1HEX    O0519154   5.423   3.762   4.930
    1HEX    C0619155   5.307   3.682   4.944
    1HEX    C0719156   5.212   3.725   5.058
    1HEX    C0819157   5.242   3.863   5.100
    1HEX    O0919158   5.149   3.912   5.198
    1HEX    C0A19159   5.080   4.027   5.189
    1HEX    O0B19160   5.071   4.103   5.285
    1HEX    C0C19161   5.014   4.067   5.056
    1HEX    C0D19162   5.103   4.140   4.954
    1HEX    C0F19163   5.073   3.746   5.005
    1HEX    O0G19164   5.012   3.626   4.984
    1HEX    C0H19165   5.024   3.582   4.868
    1HEX    O0I19166   4.995   3.639   4.763
    1HEX    C0J19167   5.089   3.452   4.879
    1HEX    C0K19168   4.979   3.352   4.884
    1HEX    C0N19169   5.220   3.634   5.183
    1HEX    O0O19170   5.339   3.556   5.189
    1HEX    C0P19171   5.423   3.560   5.304
    1HEX    C0Q19172   5.377   3.475   5.425
    1HEX    C0R19173   5.345   3.334   5.377
    1HEX    O0S19174   5.454   3.265   5.319
    1HEX    C0T19175   5.490   3.145   5.367
    1HEX    O0U19176   5.432   3.078   5.454
    1HEX    C0V19177   5.621   3.097   5.313
    1HEX    C0W19178   5.736   3.178   5.371
    1HEX    C0Y19179   5.484   3.463   5.534
    1HEX    O0Z19180   5.530   3.335   5.576
    1HEX    C1019181   5.462   3.265   5.670
    1HEX    O1119182   5.345   3.275   5.702
    1HEX    C1219183   5.548   3.168   5.749
    1HEX    C1319184   5.698   3.196   5.761
    1HEX    C1519185   5.256   3.553   5.485
    1HEX    O1619186   5.206   3.507   5.608
    1HEX    C1719187   5.121   3.407   5.604
    1HEX    O1819188   5.097   3.340   5.505
    1HEX    C1919189   5.046   3.384   5.731
    1HEX    C1A19190   4.899   3.356   5.696
    1HEX    H1D19191   5.786   3.694   4.708
    1HEX    H1E19192   5.826   3.636   4.867
    1HEX    H1F19193   5.598   3.812   4.778
    1HEX    H1G19194   5.706   3.838   4.909
    1HEX    H1H19195   5.331   3.576   4.953
    1HEX    H1I19196   5.259   3.691   4.847
    1HEX    H1J19197   5.252   3.924   5.011
    1HEX    H1K19198   5.341   3.853   5.143
    1HEX    H1M19199   4.937   4.137   5.086
    1HEX    H1N19200   4.960   3.986   5.010
    1HEX    H1O19201   5.041   4.200   4.888
    1HEX    H1P19202   5.159   4.071   4.890
    1HEX    H1R19203   5.073   3.811   4.916
    1HEX    H1S19204   5.011   3.794   5.076
    1HEX    H1T19205   5.150   3.456   4.968
    1HEX    H1U19206   5.157   3.449   4.799
    1HEX    H1V19207   4.950   3.333   4.782
    1HEX    H1W19208   4.896   3.395   4.939
    1HEX    H1Y19209   5.137   3.563   5.185
    1HEX    H1Z19210   5.207   3.695   5.272
    1HEX    H2019211   5.445   3.662   5.334
    1HEX    H2119212   5.517   3.517   5.270
    1HEX    H2219213   5.263   3.341   5.311
    1HEX    H2319214   5.311   3.278   5.462
    1HEX    H2419215   5.620   3.101   5.205
    1HEX    H2519216   5.630   2.993   5.339
    1HEX    H2619217   5.830   3.124   5.366
    1HEX    H2719218   5.714   3.201   5.474
    1HEX    H2919219   5.444   3.507   5.623
    1HEX    H2A19220   5.569   3.525   5.510
    1HEX    H2B19221   5.530   3.070   5.706
    1HEX    H2C19222   5.504   3.168   5.848
    1HEX    H2D19223   5.749   3.161   5.673
    1HEX    H2E19224   5.736   3.137   5.844
    1HEX    H2G19225   5.172   3.553   5.416
    1HEX    H2H19226   5.284   3.656   5.501
    1HEX    H2I19227   5.054   3.473   5.795
    1HEX    H2J19228   5.093   3.301   5.782
    1HEX    H2K19229   4.847   3.317   5.782
    1HEX    H2M19230   4.889   3.286   5.613
    1STR    S0019231   5.666   3.495   4.765
    1STR    S0E19232   5.218   4.250   5.038
    1STR    S0M19233   5.016   3.199   4.967
    1STR    S0X19234   5.749   3.333   5.282
    1STR    S1419235   5.759   3.366   5.790
    1STR    S1B19236   4.823   3.512   5.651
    1HEX    C0119237   5.654   5.449   6.606
    1HEX    C0219238   5.545   5.474   6.708
    1HEX    C0319239   5.498   5.347   6.774
    1HEX    O0419240   5.573   5.275   6.838
    1HEX    O0519241   5.378   5.315   6.738
    1HEX    C0619242   5.307   5.219   6.812
    1HEX    C0719243   5.218   5.288   6.915
    1HEX    C0819244   5.206   5.431   6.873
    1HEX    O0919245   5.121   5.492   6.964
    1HEX    C0A19246   5.071   5.597   6.919
    1HEX    O0B19247   4.952   5.616   6.898
    1HEX    C0C19248   5.173   5.699   6.885
    1HEX    C0D19249   5.290   5.731   6.978
    1HEX    C0F19250   5.075   5.237   6.913
    1HEX    O0G19251   5.074   5.099   6.893
    1HEX    C0H19252   5.001   5.049   6.797
    1HEX    O0I19253   4.914   5.108   6.734
    1HEX    C0J19254   5.024   4.901   6.779
    1HEX    C0K19255   5.167   4.844   6.783
    1HEX    C0N19256   5.271   5.274   7.057
    1HEX    O0O19257   5.407   5.304   7.072
    1HEX    C0P19258   5.436   5.435   7.110
    1HEX    C0Q19259   5.422   5.473   0.067
    1HEX    C0R19260   5.472   5.356   0.150
    1HEX    O0S19261   5.611   5.347   0.127
    1HEX    C0T19262   5.688   5.285   0.214
    1HEX    O0U19263   5.653   5.206   0.300
    1HEX    C0V19264   5.833   5.325   0.205
    1HEX    C0W19265   5.860   5.458   0.132
    1HEX    C0Y19266   5.516   5.591   0.091
    1HEX    O0Z19267   5.520   5.621   0.230
    1HEX    C1019268   5.627   5.678   0.284
    1HEX    O1119269   5.715   5.735   0.220
    1HEX    C1219270   5.628   5.678   0.437
    1HEX    C1319271   5.624   5.539   0.498
    1HEX    C1519272   5.280   5.526   0.102
    1HEX    O1619273   5.198   5.442   0.176
    1HEX    C1719274   5.075   5.425   0.128
    1HEX    O1819275   5.042   5.325   0.068
    1HEX    C1919276   4.979   5.540   0.149
    1HEX    C1A19277   4.904   5.584   0.023
    1HEX    H1D19278   5.658   5.528   6.532
    1HEX    H1E19279   5.745   5.451   6.663
    1HEX    H1F19280   5.460   5.525   6.662
    1HEX    H1G19281   5.587   5.540   6.783
    1HEX    H1H19282   5.373   5.148   6.859
    1HEX    H1I19283   5.246   5.163   6.742
    1HEX    H1J19284   5.166   5.436   6.772
    1HEX    H1K19285   5.300   5.482   6.870
    1HEX    H1M19286   5.104   5.775   6.910
    1HEX    H1N19287   5.196   5.695   6.779
    1HEX    H1O19288   5.281   5.677   7.069
    1HEX    H1P19289   5.285   5.832   7.014
    1HEX    H1R19290   5.014   5.289   6.839
    1HEX    H1S19291   5.028   5.257   7.008
    1HEX    H1T19292   4.979   4.874   6.685
    1HEX    H1U19293   4.965   4.859   6.859
    1HEX    H1V19294   5.213   4.860   6.688
    1HEX    H1W19295   5.159   4.737   6.797
    1HEX    H1Y19296   5.250   5.175   7.093
    1HEX    H1Z19297   5.215   5.339   7.120
    1HEX    H2019298   5.385   5.504   7.048
    1HEX    H2119299   5.539   5.447   7.082
    1HEX    H2219300   5.421   5.263   0.125
    1HEX    H2319301   5.453   5.377   0.253
    1HEX    H2419302   5.887   5.241   0.165
    1HEX    H2519303   5.866   5.336   0.307
    1HEX    H2619304   5.943   5.508   0.181
    1HEX    H2719305   5.778   5.524   0.148
    1HEX    H2919306   5.485   5.672   0.028
    1HEX    H2A19307   5.614   5.571   0.050
    1HEX    H2B19308   5.546   5.738   0.476
    1HEX    H2C19309   5.720   5.727   0.469
    1HEX    H2D19310   5.658   5.540   0.602
    1HEX    H2E19311   5.687   5.468   0.443
    1HEX    H2G19312   5.227   5.547   0.010
    1HEX    H2H19313   5.283   5.621   0.155
    1HEX    H2I19314   5.033   5.623   0.192
    1HEX    H2J19315   4.907   5.511   0.221
    1HEX    H2K19316   4.975   5.582   7.134
    1HEX    H2M19317   4.873   5.687   0.037
    1STR    S0019318   5.627   5.289   6.526
    1STR    S0E19319   5.456   5.715   6.913
    1STR    S0M19320   5.288   4.905   6.903
    1STR    S0X19321   5.900   5.458   7.145
    1STR    S1419322   5.454   5.482   0.494
    1STR    S1B19323   4.753   5.500   7.164
    1HEX    C0119324   5.566   5.329   1.091
    1HEX    C0219325   5.551   5.377   1.234
    1HEX    C0319326   5.431   5.309   1.292
    1HEX    O0419327   5.410   5.192   1.264
    1HEX    O0519328   5.346   5.391   1.348
    1HEX    C0619329   5.219   5.340   1.382
    1HEX    C0719330   5.206   5.326   1.531
    1HEX    C0819331   5.204   5.464   1.595
    1HEX    O0919332   5.167   5.562   1.501
    1HEX    C0A19333   5.044   5.600   1.484
    1HEX    O0B19334   4.956   5.590   1.568
    1HEX    C0C19335   5.023   5.668   1.352
    1HEX    C0D19336   5.152   5.698   1.276
    1HEX    C0F19337   5.072   5.257   1.560
    1HEX    O0G19338   5.080   5.116   1.553
    1HEX    C0H19339   5.001   5.053   1.469
    1HEX    O0I19340   4.943   5.107   1.378
    1HEX    C0J19341   4.985   4.904   1.487
    1HEX    C0K19342   5.009   4.851   1.627
    1HEX    C0N19343   5.321   5.235   1.577
    1HEX    O0O19344   5.444   5.295   1.608
    1HEX    C0P19345   5.468   5.341   1.740
    1HEX    C0Q19346   5.408   5.275   1.864
    1HEX    C0R19347   5.456   5.130   1.881
    1HEX    O0S19348   5.589   5.134   1.928
    1HEX    C0T19349   5.691   5.075   1.873
    1HEX    O0U19350   5.693   4.992   1.782
    1HEX    C0V19351   5.817   5.132   1.930
    1HEX    C0W19352   5.840   5.272   1.876
    1HEX    C0Y19353   5.469   5.356   1.978
    1HEX    O0Z19354   5.364   5.424   2.036
    1HEX    C1019355   5.374   5.540   2.076
    1HEX    O1119356   5.467   5.615   2.051
    1HEX    C1219357   5.250   5.575   2.153
    1HEX    C1319358   5.233   5.492   2.282
    1HEX    C1519359   5.253   5.291   1.865
    1HEX    O1619360   5.178   5.239   1.972
    1HEX    C1719361   5.059   5.183   1.944
    1HEX    O1819362   5.027   5.126   1.841
    1HEX    C1919363   4.956   5.212   2.048
    1HEX    C1A19364   4.928   5.362   2.067
    1HEX    H1D19365   5.662   5.352   1.055
    1HEX    H1E19366   5.559   5.221   1.084
    1HEX    H1F19367   5.538   5.485   1.238
    1HEX    H1G19368   5.634   5.348   1.297
    1HEX    H1H19369   5.198   5.242   1.341
    1HEX    H1I19370   5.141   5.401   1.339
    1HEX    H1J19371   5.302   5.495   1.626
    1HEX    H1K19372   5.139   5.462   1.680
    1HEX    H1M19373   4.958   5.754   1.362
    1HEX    H1N19374   4.970   5.595   1.291
    1HEX    H1O19375   5.126   5.703   1.171
    1HEX    H1P19376   5.229   5.622   1.287
    1HEX    H1R19377   4.995   5.300   1.495
    1HEX    H1S19378   5.034   5.279   1.659
    1HEX    H1T19379   5.044   4.854   1.411
    1HEX    H1U19380   4.883   4.884   1.460
    1HEX    H1V19381   4.934   4.778   1.654
    1HEX    H1W19382   5.005   4.930   1.703
    1HEX    H1Y19383   5.342   5.171   1.493
    1HEX    H1Z19384   5.293   5.159   1.646
    1HEX    H2019385   5.455   5.449   1.746
    1HEX    H2119386   5.575   5.329   1.749
    1HEX    H2219387   5.452   5.076   1.788
    1HEX    H2319388   5.393   5.079   1.953
    1HEX    H2419389   5.899   5.068   1.902
    1HEX    H2519390   5.812   5.134   2.038
    1HEX    H2619391   5.936   5.311   1.909
    1HEX    H2719392   5.763   5.338   1.914
    1HEX    H2919393   5.551   5.421   1.948
    1HEX    H2A19394   5.512   5.295   2.056
    1HEX    H2B19395   5.166   5.560   2.086
    1HEX    H2C19396   5.257   5.679   2.180
    1HEX    H2D19397   5.144   5.524   2.334
    1HEX    H2E19398   5.316   5.515   2.348
    1HEX    H2G19399   5.204   5.255   1.780
    1HEX    H2H19400   5.228   5.396   1.860
    1HEX    H2I19401   4.989   5.162   2.139
    1HEX    H2J19402   4.866   5.160   2.015
    1HEX    H2K19403   5.001   5.402   2.136
    1HEX    H2M19404   4.830   5.373   2.113
    1STR    S0019405   5.459   5.415   0.976
    1STR    S0E19406   5.217   5.860   1.316
    1STR    S0M19407   5.170   4.772   1.623
    1STR    S0X19408   5.834   5.263   1.696
    1STR    S1419409   5.222   5.312   2.260
    1STR    S1B19410   4.931   5.465   1.916
    1HEX    C0119411   5.525   5.206   3.104
    1HEX    C0219412   5.470   5.066   3.135
    1HEX    C0319413   5.321   5.058   3.131
    1HEX    O0419414   5.261   4.959   3.093
    1HEX    O0519415   5.270   5.172   3.169
    1HEX    C0619416   5.139   5.204   3.136
    1HEX    C0719417   5.087   5.279   3.257
    1HEX    C0819418   5.155   5.411   3.273
    1HEX    O0919419   5.118   5.501   3.171
    1HEX    C0A19420   5.210   5.587   3.135
    1HEX    O0B19421   5.329   5.571   3.154
    1HEX    C0C19422   5.157   5.721   3.096
    1HEX    C0D19423   5.097   5.800   3.214
    1HEX    C0F19424   4.938   5.303   3.239
    1HEX    O0G19425   4.880   5.176   3.229
    1HEX    C0H19426   4.824   5.135   3.117
    1HEX    O0I19427   4.786   5.208   3.026
    1HEX    C0J19428   4.820   4.984   3.107
    1HEX    C0K19429   4.749   4.904   3.218
    1HEX    C0N19430   5.108   5.199   3.385
    1HEX    O0O19431   5.234   5.148   3.428
    1HEX    C0P19432   5.339   5.238   3.460
    1HEX    C0Q19433   5.426   5.169   3.565
    1HEX    C0R19434   5.486   5.038   3.508
    1HEX    O0S19435   5.611   5.059   3.442
    1HEX    C0T19436   5.676   4.953   3.395
    1HEX    O0U19437   5.632   4.840   3.388
    1HEX    C0V19438   5.818   4.980   3.351
    1HEX    C0W19439   5.831   5.079   3.235
    1HEX    C0Y19440   5.541   5.260   3.602
    1HEX    O0Z19441   5.602   5.194   3.710
    1HEX    C1019442   5.638   5.265   3.811
    1HEX    O1119443   5.657   5.385   3.800
    1HEX    C1219444   5.640   5.186   3.942
    1HEX    C1319445   5.764   5.194   4.035
    1HEX    C1519446   5.341   5.150   3.693
    1HEX    O1619447   5.395   5.055   3.783
    1HEX    C1719448   5.336   5.016   3.898
    1HEX    O1819449   5.373   4.918   3.960
    1HEX    C1919450   5.223   5.102   3.954
    1HEX    C1A19451   5.084   5.057   3.910
    1HEX    H1D19452   5.627   5.196   3.072
    1HEX    H1E19453   5.521   5.269   3.192
    1HEX    H1F19454   5.499   5.037   3.234
    1HEX    H1G19455   5.510   4.990   3.070
    1HEX    H1H19456   5.082   5.114   3.116
    1HEX    H1I19457   5.137   5.266   3.047
    1HEX    H1J19458   5.261   5.391   3.274
    1HEX    H1K19459   5.128   5.452   3.370
    1HEX    H1M19460   5.087   5.706   3.016
    1HEX    H1N19461   5.243   5.776   3.056
    1HEX    H1O19462   4.995   5.824   3.187
    1HEX    H1P19463   5.149   5.894   3.227
    1HEX    H1R19464   4.920   5.365   3.151
    1HEX    H1S19465   4.898   5.356   3.325
    1HEX    H1T19466   4.922   4.949   3.094
    1HEX    H1U19467   4.771   4.962   3.013
    1HEX    H1V19468   4.769   4.799   3.198
    1HEX    H1W19469   4.642   4.916   3.208
    1HEX    H1Y19470   5.060   5.110   3.357
    1HEX    H1Z19471   5.045   5.237   3.464
    1HEX    H2019472   5.301   5.333   3.497
    1HEX    H2119473   5.398   5.258   3.371
    1HEX    H2219474   5.418   4.990   3.439
    1HEX    H2319475   5.504   4.968   3.588
    1HEX    H2419476   5.858   4.885   3.318
    1HEX    H2519477   5.876   5.010   3.437
    1HEX    H2619478   5.766   5.046   3.156
    1HEX    H2719479   5.933   5.079   3.197
    1HEX    H2919480   5.502   5.359   3.628
    1HEX    H2A19481   5.612   5.276   3.522
    1HEX    H2B19482   5.623   5.083   3.916
    1HEX    H2C19483   5.550   5.210   3.996
    1HEX    H2D19484   5.853   5.162   3.985
    1HEX    H2E19485   5.746   5.128   4.119
    1HEX    H2G19486   5.240   5.118   3.669
    1HEX    H2H19487   5.335   5.247   3.741
    1HEX    H2I19488   5.243   5.202   3.922
    1HEX    H2J19489   5.229   5.100   4.063
    1HEX    H2K19490   5.048   4.970   3.964
    1HEX    H2M19491   5.090   5.032   3.805
    1STR    S0019492   5.435   5.294   2.975
    1STR    S0E19493   5.077   5.718   3.376
    1STR    S0M19494   4.794   4.932   3.393
    1STR    S0X19495   5.784   5.247   3.276
    1STR    S1419496   5.801   5.357   4.104
    1STR    S1B19497   4.961   5.187   3.913
    1HEX    C0119498   5.610   5.186   4.763
    1HEX    C0219499   5.568   5.135   4.899
    1HEX    C0319500   5.426   5.088   4.908
    1HEX    O0419501   5.393   4.977   4.865
    1HEX    O0519502   5.351   5.172   4.979
    1HEX    C0619503   5.215   5.143   4.990
    1HEX    C0719504   5.140   5.213   5.105
    1HEX    C0819505   5.145   5.363   5.100
    1HEX    O0919506   5.027   5.427   5.058
    1HEX    C0A19507   4.996   5.554   5.078
    1HEX    O0B19508   4.885   5.597   5.047
    1HEX    C0C19509   5.095   5.646   5.147
    1HEX    C0D19510   5.248   5.623   5.152
    1HEX    C0F19511   4.991   5.174   5.089
    1HEX    O0G19512   4.962   5.042   5.047
    1HEX    C0H19513   4.935   5.020   4.916
    1HEX    O0I19514   4.953   5.102   4.825
    1HEX    C0J19515   4.879   4.884   4.884
    1HEX    C0K19516   4.929   4.767   4.966
    1HEX    C0N19517   5.203   5.182   5.243
    1HEX    O0O19518   5.345   5.203   5.256
    1HEX    C0P19519   5.414   5.329   5.271
    1HEX    C0Q19520   5.420   5.383   5.416
    1HEX    C0R19521   5.474   5.268   5.500
    1HEX    O0S19522   5.615   5.273   5.508
    1HEX    C0T19523   5.681   5.190   5.587
    1HEX    O0U19524   5.649   5.074   5.611
    1HEX    C0V19525   5.813   5.250   5.631
    1HEX    C0W19526   5.802   5.401   5.646
    1HEX    C0Y19527   5.512   5.503   5.439
    1HEX    O0Z19528   5.508   5.544   5.575
    1HEX    C1019529   5.571   5.654   5.619
    1HEX    O1119530   5.635   5.730   5.549
    1HEX    C1219531   5.555   5.683   5.768
    1HEX    C1319532   5.569   5.564   5.863
    1HEX    C1519533   5.283   5.437   5.459
    1HEX    O1619534   5.254   5.443   5.597
    1HEX    C1719535   5.154   5.373   5.637
    1HEX    O1819536   5.117   5.275   5.579
    1HEX    C1919537   5.082   5.419   5.759
    1HEX    C1A19538   4.938   5.464   5.730
    1HEX    H1D19539   5.620   5.104   4.692
    1HEX    H1E19540   5.704   5.241   4.767
    1HEX    H1F19541   5.584   5.211   4.975
    1HEX    H1G19542   5.626   5.048   4.921
    1HEX    H1H19543   5.201   5.036   5.001
    1HEX    H1I19544   5.173   5.164   4.892
    1HEX    H1J19545   5.229   5.384   5.037
    1HEX    H1K19546   5.162   5.400   5.199
    1HEX    H1M19547   5.057   5.640   5.248
    1HEX    H1N19548   5.075   5.745   5.105
    1HEX    H1O19549   5.287   5.565   5.072
    1HEX    H1P19550   5.274   5.572   5.242
    1HEX    H1R19551   4.942   5.235   5.013
    1HEX    H1S19552   4.935   5.203   5.176
    1HEX    H1T19553   4.892   4.866   4.778
    1HEX    H1U19554   4.772   4.890   4.904
    1HEX    H1V19555   4.897   4.673   4.923
    1HEX    H1W19556   4.884   4.775   5.065
    1HEX    H1Y19557   5.185   5.079   5.260
    1HEX    H1Z19558   5.145   5.223   5.324
    1HEX    H2019559   5.385   5.402   5.197
    1HEX    H2119560   5.516   5.308   5.243
    1HEX    H2219561   5.439   5.170   5.471
    1HEX    H2319562   5.437   5.290   5.597
    1HEX    H2419563   5.895   5.225   5.566
    1HEX    H2519564   5.835   5.204   5.727
    1HEX    H2619565   5.839   5.425   5.743
    1HEX    H2719566   5.699   5.433   5.647
    1HEX    H2919567   5.489   5.580   5.371
    1HEX    H2A19568   5.612   5.483   5.413
    1HEX    H2B19569   5.461   5.732   5.787
    1HEX    H2C19570   5.630   5.757   5.793
    1HEX    H2D19571   5.567   5.597   5.967
    1HEX    H2E19572   5.663   5.514   5.847
    1HEX    H2G19573   5.201   5.397   5.402
    1HEX    H2H19574   5.277   5.541   5.436
    1HEX    H2I19575   5.139   5.492   5.815
    1HEX    H2J19576   5.077   5.333   5.824
    1HEX    H2K19577   4.931   5.565   5.768
    1HEX    H2M19578   4.870   5.412   5.795
    1STR    S0019579   5.484   5.294   4.702
    1STR    S0E19580   5.359   5.760   5.144
    1STR    S0M19581   5.109   4.773   4.972
    1STR    S0X19582   5.895   5.505   5.530
    1STR    S1419583   5.438   5.445   5.842
    1STR    S1B19584   4.868   5.472   5.559
    2ACC    C0019585   6.761   5.643   4.461
    2ACC    C0119586   6.616   5.607   4.457
    2ACC    O0219587   6.534   5.680   4.400
    2ACC    O0319588   6.591   5.488   4.512
    2ACC    C0419589   6.459   5.437   4.505
    2ACC    C0519590   6.447   5.355   4.376
    2ACC    N0619591   6.314   5.359   4.310
    2ACC    C0719592   6.195   5.337   4.395
    2ACC    C0819593   6.298   5.494   4.249
    2ACC    C0919594   6.315   5.251   4.208
    2ACC    H0A19595   6.776   5.742   4.417
    2ACC    H0B19596   6.816   5.573   4.400
    2ACC    H0C19597   6.799   5.642   4.563
    2ACC    H0D19598   6.387   5.518   4.512
    2ACC    H0E19599   6.439   5.375   4.592
    2ACC    H0F19600   6.480   5.254   4.399
    2ACC    H0G19601   6.521   5.390   4.304
    2ACC    H0H19602   6.188   5.408   4.476
    2ACC    H0I19603   6.193   5.237   4.436
    2ACC    H0J19604   6.102   5.346   4.339
    2ACC    H0K19605   6.343   5.573   4.307
    2ACC    H0M19606   6.194   5.525   4.246
    2ACC    H0N19607   6.338   5.498   4.149
    2ACC    H0O19608   6.345   5.155   4.249
    2ACC    H0P19609   6.384   5.274   4.126
    2ACC    H0Q19610   6.216   5.234   4.167
    3ACC    C0019611   5.800   4.627   0.200
    3ACC    C0119612   5.920   4.687   0.262
    3ACC    O0219613   6.031   4.643   0.236
    3ACC    O0319614   5.886   4.790   0.338
    3ACC    C0419615   5.977   4.840   0.432
    3ACC    C0519616   6.100   4.904   0.366
    3ACC    N0619617   6.191   4.967   0.464
    3ACC    C0719618   6.141   5.099   0.506
    3ACC    C0819619   6.216   4.881   0.581
    3ACC    C0919620   6.325   4.980   0.405
    3ACC    H0A19621   5.787   4.538   0.260
    3ACC    H0B19622   5.820   4.605   0.096
    3ACC    H0C19623   5.712   4.691   0.211
    3ACC    H0D19624   6.005   4.756   0.495
    3ACC    H0E19625   5.924   4.912   0.494
    3ACC    H0F19626   6.071   4.974   0.289
    3ACC    H0G19627   6.156   4.826   0.314
    3ACC    H0H19628   6.046   5.090   0.560
    3ACC    H0I19629   6.122   5.166   0.423
    3ACC    H0J19630   6.210   5.149   0.575
    3ACC    H0K19631   6.126   4.859   0.638
    3ACC    H0M19632   6.282   4.931   0.651
    3ACC    H0N19633   6.260   4.786   0.551
    3ACC    H0O19634   6.328   5.039   0.315
    3ACC    H0P19635   6.368   4.884   0.378
    3ACC    H0Q19636   6.389   5.025   0.479
    4ACC    C0019637   5.849   0.700   4.867
    4ACC    C0119638   5.804   0.574   4.800
    4ACC    O0219639   5.695   0.524   4.826
    4ACC    O0319640   5.889   0.528   4.708
    4ACC    C0419641   5.845   0.419   4.630
    4ACC    C0519642   5.774   0.473   4.506
    4ACC    N0619643   5.660   0.389   4.462
    4ACC    C0719644   5.694   0.245   4.455
    4ACC    C0819645   5.543   0.412   4.550
    4ACC    C0919646   5.626   0.432   4.325
    4ACC    H0A19647   5.776   0.726   4.942
    4ACC    H0B19648   5.856   0.781   4.795
    4ACC    H0C19649   5.945   0.684   4.917
    4ACC    H0D19650   5.784   0.353   4.691
    4ACC    H0E19651   5.926   0.358   4.594
    4ACC    H0F19652   5.851   0.477   4.428
    4ACC    H0G19653   5.742   0.576   4.520
    4ACC    H0H19654   5.713   0.201   4.553
    4ACC    H0I19655   5.782   0.229   4.394
    4ACC    H0J19656   5.612   0.187   4.413
    4ACC    H0K19657   5.561   0.377   4.652
    4ACC    H0M19658   5.454   0.363   4.513
    4ACC    H0N19659   5.520   0.519   4.557
    4ACC    H0O19660   5.711   0.422   4.257
    4ACC    H0P19661   5.595   0.536   4.323
    4ACC    H0Q19662   5.544   0.373   4.285
    5ACC    C0019663   0.890   6.587   2.794
    5ACC    C0119664   0.790   6.486   2.745
    5ACC    O0219665   0.670   6.494   2.771
    5ACC    O0319666   0.848   6.393   2.670
    5ACC    C0419667   0.771   6.291   2.614
    5ACC    C0519668   0.683   6.347   2.501
    5ACC    N0619669   0.566   6.262   2.465
    5ACC    C0719670   0.603   6.123   2.432
    5ACC    C0819671   0.466   6.259   2.574
    5ACC    C0919672   0.505   6.323   2.346
    5ACC    H0A19673   0.844   6.656   2.864
    5ACC    H0B19674   0.935   6.639   2.710
    5ACC    H0C19675   0.969   6.533   2.847
    5ACC    H0D19676   0.714   6.240   2.691
    5ACC    H0E19677   0.841   6.219   2.573
    5ACC    H0F19678   0.750   6.363   2.416
    5ACC    H0G19679   0.647   6.447   2.527
    5ACC    H0H19680   0.617   6.063   2.521
    5ACC    H0I19681   0.697   6.118   2.377
    5ACC    H0J19682   0.527   6.071   2.375
    5ACC    H0K19683   0.498   6.192   2.654
    5ACC    H0M19684   0.370   6.220   2.540
    5ACC    H0N19685   0.450   6.358   2.617
    5ACC    H0O19686   0.577   6.352   2.269
    5ACC    H0P19687   0.450   6.411   2.375
    5ACC    H0Q19688   0.434   6.254   2.300
    6ACC    C0019689   2.803   1.850   5.922
    6ACC    C0119690   2.677   1.812   5.993
    6ACC    O0219691   2.650   1.857   6.104
    6ACC    O0319692   2.599   1.735   5.917
    6ACC    C0419693   2.464   1.722   5.953
    6ACC    C0519694   2.394   1.850   5.903
    6ACC    N0619695   2.291   1.905   5.994
    6ACC    C0719696   2.196   1.799   6.034
    6ACC    C0819697   2.353   1.963   6.115
    6ACC    C0919698   2.221   2.013   5.922
    6ACC    H0A19699   2.881   1.873   5.992
    6ACC    H0B19700   2.784   1.934   5.855
    6ACC    H0C19701   2.830   1.765   5.861
    6ACC    H0D19702   2.456   1.703   6.060
    6ACC    H0E19703   2.421   1.634   5.905
    6ACC    H0F19704   2.349   1.827   5.806
    6ACC    H0G19705   2.467   1.928   5.880
    6ACC    H0H19706   2.241   1.723   6.098
    6ACC    H0I19707   2.160   1.745   5.948
    6ACC    H0J19708   2.110   1.838   6.089
    6ACC    H0K19709   2.408   1.888   6.170
    6ACC    H0M19710   2.278   2.005   6.182
    6ACC    H0N19711   2.425   2.041   6.090
    6ACC    H0O19712   2.176   1.976   5.830
    6ACC    H0P19713   2.287   2.094   5.892
    6ACC    H0Q19714   2.140   2.056   5.981
    7ACC    C0019715   2.166   5.211   1.039
    7ACC    C0119716   2.152   5.229   0.892
    7ACC    O0219717   2.211   5.318   0.829
    7ACC    O0319718   2.065   5.143   0.844
    7ACC    C0419719   2.074   5.105   0.711
    7ACC    C0519720   2.136   4.966   0.706
    7ACC    N0619721   2.225   4.944   0.590
    7ACC    C0719722   2.151   4.959   0.463
    7ACC    C0819723   2.342   5.036   0.595
    7ACC    C0919724   2.278   4.806   0.601
    7ACC    H0A19725   2.268   5.234   1.070
    7ACC    H0B19726   2.145   5.107   1.065
    7ACC    H0C19727   2.093   5.276   1.084
    7ACC    H0D19728   2.132   5.177   0.655
    7ACC    H0E19729   1.974   5.105   0.670
    7ACC    H0F19730   2.055   4.893   0.708
    7ACC    H0G19731   2.192   4.949   0.798
    7ACC    H0H19732   2.125   5.063   0.442
    7ACC    H0I19733   2.056   4.904   0.464
    7ACC    H0J19734   2.208   4.924   0.377
    7ACC    H0K19735   2.318   5.138   0.568
    7ACC    H0M19736   2.422   5.002   0.529
    7ACC    H0N19737   2.385   5.040   0.696
    7ACC    H0O19738   2.197   4.733   0.601
    7ACC    H0P19739   2.334   4.794   0.694
    7ACC    H0Q19740   2.345   4.782   0.518
    8ACC    C0019741   1.101   6.958   3.028
    8ACC    C0119742   1.127   6.827   3.098
    8ACC    O0219743   1.147   6.723   3.036
    8ACC    O0319744   1.128   6.842   3.230
    8ACC    C0419745   1.103   6.733   3.316
    8ACC    C0519746   1.224   6.656   3.370
    8ACC    N0619747   1.193   6.544   3.462
    8ACC    C0719748   1.116   6.578   3.584
    8ACC    C0819749   1.116   6.442   3.392
    8ACC    C0919750   1.321   6.485   3.504
    8ACC    H0A19751   1.140   6.954   2.927
    8ACC    H0B19752   1.148   7.040   3.082
    8ACC    H0C19753   0.993   6.975   3.024
    8ACC    H0D19754   1.034   6.666   3.267
    8ACC    H0E19755   1.051   6.779   3.399
    8ACC    H0F19756   1.294   6.724   3.417
    8ACC    H0G19757   1.272   6.611   3.283
    8ACC    H0H19758   1.020   6.621   3.561
    8ACC    H0I19759   1.168   6.645   3.649
    8ACC    H0J19760   1.093   6.489   3.642
    8ACC    H0K19761   1.011   6.469   3.384
    8ACC    H0M19762   1.121   6.351   3.449
    8ACC    H0N19763   1.154   6.421   3.292
    8ACC    H0O19764   1.384   6.554   3.559
    8ACC    H0P19765   1.377   6.447   3.419
    8ACC    H0Q19766   1.304   6.400   3.570
    9ACC    C0019767   4.824   6.536   2.379
    9ACC    C0119768   4.950   6.613   2.411
    9ACC    O0219769   4.947   6.727   2.455
    9ACC    O0319770   5.059   6.543   2.381
    9ACC    C0419771   5.186   6.598   2.407
    9ACC    C0519772   5.235   6.537   2.538
    9ACC    N0619773   5.361   6.594   2.591
    9ACC    C0719774   5.469   6.589   2.490
    9ACC    C0819775   5.339   6.733   2.636
    9ACC    C0919776   5.399   6.515   2.710
    9ACC    H0A19777   4.739   6.585   2.425
    9ACC    H0B19778   4.832   6.433   2.414
    9ACC    H0C19779   4.810   6.536   2.271
    9ACC    H0D19780   5.183   6.707   2.409
    9ACC    H0E19781   5.254   6.570   2.328
    9ACC    H0F19782   5.249   6.430   2.522
    9ACC    H0G19783   5.156   6.546   2.612
    9ACC    H0H19784   5.452   6.658   2.407
    9ACC    H0I19785   5.476   6.489   2.447
    9ACC    H0J19786   5.566   6.611   2.533
    9ACC    H0K19787   5.319   6.797   2.550
    9ACC    H0M19788   5.425   6.776   2.687
    9ACC    H0N19789   5.253   6.740   2.704
    9ACC    H0O19790   5.417   6.411   2.684
    9ACC    H0P19791   5.319   6.518   2.786
    9ACC    H0Q19792   5.490   6.553   2.756
   10ACC    C0019793   4.941   5.460   4.495
   10ACC    C0119794   4.815   5.524   4.543
   10ACC    O0219795   4.728   5.564   4.468
   10ACC    O0319796   4.807   5.518   4.673
   10ACC    C0419797   4.682   5.508   4.733
   10ACC    C0519798   4.616   5.381   4.677
   10ACC    N0619799   4.488   5.346   4.740
   10ACC    C0719800   4.515   5.272   4.865
   10ACC    C0819801   4.406   5.467   4.765
   10ACC    C0919802   4.416   5.259   4.645
   10ACC    H0A19803   4.943   5.444   4.389
   10ACC    H0B19804   4.948   5.360   4.537
   10ACC    H0C19805   5.024   5.524   4.525
   10ACC    H0D19806   4.627   5.600   4.710
   10ACC    H0E19807   4.697   5.502   4.841
   10ACC    H0F19808   4.686   5.296   4.684
   10ACC    H0G19809   4.600   5.391   4.570
   10ACC    H0H19810   4.550   5.336   4.945
   10ACC    H0I19811   4.592   5.196   4.853
   10ACC    H0J19812   4.428   5.217   4.901
   10ACC    H0K19813   4.438   5.521   4.854
   10ACC    H0M19814   4.302   5.442   4.770
   10ACC    H0N19815   4.417   5.543   4.690
   10ACC    H0O19816   4.476   5.174   4.616
   10ACC    H0P19817   4.388   5.307   4.552
   10ACC    H0Q19818   4.327   5.219   4.691
   11ACC    C0019819   6.177   2.438   5.972
   11ACC    C0119820   6.102   2.338   5.890
   11ACC    O0219821   5.979   2.344   5.875
   11ACC    O0319822   6.184   2.251   5.834
   11ACC    C0419823   6.133   2.166   5.735
   11ACC    C0519824   6.120   2.250   5.606
   11ACC    N0619825   6.005   2.212   5.520
   11ACC    C0719826   5.995   2.066   5.501
   11ACC    C0819827   5.880   2.266   5.578
   11ACC    C0919828   6.021   2.271   5.385
   11ACC    H0A19829   6.109   2.521   5.991
   11ACC    H0B19830   6.261   2.477   5.914
   11ACC    H0C19831   6.211   2.392   6.064
   11ACC    H0D19832   6.039   2.125   5.770
   11ACC    H0E19833   6.202   2.083   5.719
   11ACC    H0F19834   6.214   2.240   5.553
   11ACC    H0G19835   6.114   2.356   5.628
   11ACC    H0H19836   5.981   2.013   5.595
   11ACC    H0I19837   6.083   2.024   5.453
   11ACC    H0J19838   5.908   2.044   5.440
   11ACC    H0K19839   5.859   2.223   5.676
   11ACC    H0M19840   5.794   2.246   5.514
   11ACC    H0N19841   5.886   2.374   5.593
   11ACC    H0O19842   6.110   2.231   5.336
   11ACC    H0P19843   6.033   2.379   5.390
   11ACC    H0Q19844   5.936   2.248   5.321
   12ACC    C0019845   2.285   1.715   6.388
   12ACC    C0119846   2.412   1.765   6.452
   12ACC    O0219847   2.483   1.848   6.396
   12ACC    O0319848   2.434   1.711   6.572
   12ACC    C0419849   2.545   1.757   6.646
   12ACC    C0519850   2.509   1.892   6.710
   12ACC    N0619851   2.620   1.991   6.712
   12ACC    C0719852   2.748   1.935   6.761
   12ACC    C0819853   2.641   2.050   6.578
   12ACC    C0919854   2.579   2.101   6.803
   12ACC    H0A19855   2.241   1.793   6.327
   12ACC    H0B19856   2.212   1.687   6.464
   12ACC    H0C19857   2.305   1.629   6.324
   12ACC    H0D19858   2.632   1.762   6.580
   12ACC    H0E19859   2.569   1.685   6.724
   12ACC    H0F19860   2.474   1.873   6.812
   12ACC    H0G19861   2.424   1.938   6.659
   12ACC    H0H19862   2.796   1.868   6.689
   12ACC    H0I19863   2.736   1.877   6.852
   12ACC    H0J19864   2.818   2.015   6.782
   12ACC    H0K19865   2.677   1.977   6.506
   12ACC    H0M19866   2.712   2.133   6.581
   12ACC    H0N19867   2.548   2.092   6.538
   12ACC    H0O19868   2.581   2.068   6.905
   12ACC    H0P19869   2.477   2.134   6.783
   12ACC    H0Q19870   2.642   2.189   6.796
   13ACC    C0019871   6.245   4.971   5.795
   13ACC    C0119872   6.173   5.103   5.805
   13ACC    O0219873   6.091   5.140   5.721
   13ACC    O0319874   6.210   5.170   5.913
   13ACC    C0419875   6.198   5.309   5.920
   13ACC    C0519876   6.054   5.361   5.933
   13ACC    N0619877   6.044   5.509   5.957
   13ACC    C0719878   6.120   5.544   6.079
   13ACC    C0819879   6.093   5.590   5.842
   13ACC    C0919880   5.903   5.547   5.977
   13ACC    H0A19881   6.240   4.931   5.695
   13ACC    H0B19882   6.199   4.901   5.863
   13ACC    H0C19883   6.349   4.982   5.827
   13ACC    H0D19884   6.246   5.352   5.832
   13ACC    H0E19885   6.259   5.338   6.005
   13ACC    H0F19886   6.006   5.309   6.016
   13ACC    H0G19887   6.000   5.334   5.843
   13ACC    H0H19888   6.228   5.545   6.064
   13ACC    H0I19889   6.101   5.472   6.158
   13ACC    H0J19890   6.095   5.643   6.118
   13ACC    H0K19891   6.194   5.565   5.812
   13ACC    H0M19892   6.094   5.696   5.866
   13ACC    H0N19893   6.035   5.575   5.752
   13ACC    H0O19894   5.844   5.465   6.020
   13ACC    H0P19895   5.856   5.580   5.886
   13ACC    H0Q19896   5.892   5.631   6.046
   14ACC    C0019897   3.922   6.669   4.730
   14ACC    C0119898   3.919   6.526   4.776
   14ACC    O0219899   3.887   6.435   4.701
   14ACC    O0319900   3.954   6.516   4.903
   14ACC    C0419901   3.941   6.390   4.965
   14ACC    C0519902   4.072   6.317   4.973
   14ACC    N0619903   4.062   6.188   5.045
   14ACC    C0719904   4.009   6.199   5.183
   14ACC    C0819905   3.976   6.094   4.970
   14ACC    C0919906   4.199   6.135   5.055
   14ACC    H0A19907   3.866   6.674   4.637
   14ACC    H0B19908   4.025   6.698   4.716
   14ACC    H0C19909   3.874   6.731   4.806
   14ACC    H0D19910   3.865   6.330   4.914
   14ACC    H0E19911   3.910   6.411   5.065
   14ACC    H0F19912   4.144   6.382   5.023
   14ACC    H0G19913   4.111   6.302   4.872
   14ACC    H0H19914   3.902   6.218   5.183
   14ACC    H0I19915   4.060   6.278   5.238
   14ACC    H0J19916   4.022   6.106   5.238
   14ACC    H0K19917   3.872   6.126   4.961
   14ACC    H0M19918   3.971   6.000   5.024
   14ACC    H0N19919   4.010   6.077   4.868
   14ACC    H0O19920   4.263   6.204   5.111
   14ACC    H0P19921   4.244   6.122   4.956
   14ACC    H0Q19922   4.202   6.040   5.109
   15ACC    C0019923   2.366   3.949   1.395
   15ACC    C0119924   2.424   3.854   1.294
   15ACC    O0219925   2.435   3.734   1.316
   15ACC    O0319926   2.456   3.916   1.182
   15ACC    C0419927   2.526   3.845   1.082
   15ACC    C0519928   2.430   3.758   1.000
   15ACC    N0619929   2.498   3.677   0.895
   15ACC    C0719930   2.558   3.762   0.789
   15ACC    C0819931   2.598   3.586   0.955
   15ACC    C0919932   2.396   3.594   0.830
   15ACC    H0A19933   2.312   3.895   1.472
   15ACC    H0B19934   2.299   4.018   1.346
   15ACC    H0C19935   2.447   4.005   1.441
   15ACC    H0D19936   2.605   3.787   1.129
   15ACC    H0E19937   2.574   3.920   1.019
   15ACC    H0F19938   2.356   3.823   0.954
   15ACC    H0G19939   2.376   3.691   1.067
   15ACC    H0H19940   2.634   3.830   0.828
   15ACC    H0I19941   2.482   3.825   0.742
   15ACC    H0J19942   2.602   3.702   0.710
   15ACC    H0K19943   2.687   3.636   0.992
   15ACC    H0M19944   2.632   3.510   0.885
   15ACC    H0N19945   2.553   3.532   1.039
   15ACC    H0O19946   2.321   3.655   0.779
   15ACC    H0P19947   2.347   3.526   0.899
   15ACC    H0Q19948   2.445   3.532   0.755
   16ACC    C0019949   0.693   4.359   4.214
   16ACC    C0119950   0.771   4.411   4.096
   16ACC    O0219951   0.746   4.519   4.042
   16ACC    O0319952   0.866   4.325   4.060
   16ACC    C0419953   0.938   4.352   3.942
   16ACC    C0519954   1.047   4.457   3.966
   16ACC    N0619955   1.077   4.547   3.849
   16ACC    C0719956   1.046   4.495   3.713
   16ACC    C0819957   1.002   4.674   3.868
   16ACC    C0919958   1.222   4.576   3.853
   16ACC    H0A19959   0.616   4.431   4.241
   16ACC    H0B19960   0.760   4.342   4.298
   16ACC    H0C19961   0.645   4.265   4.187
   16ACC    H0D19962   0.869   4.382   3.866
   16ACC    H0E19963   0.979   4.258   3.908
   16ACC    H0F19964   1.135   4.400   3.996
   16ACC    H0G19965   1.023   4.515   4.054
   16ACC    H0H19966   0.940   4.487   3.693
   16ACC    H0I19967   1.087   4.396   3.696
   16ACC    H0J19968   1.086   4.559   3.636
   16ACC    H0K19969   0.894   4.656   3.871
   16ACC    H0M19970   1.021   4.746   3.788
   16ACC    H0N19971   1.028   4.723   3.962
   16ACC    H0O19972   1.282   4.486   3.836
   16ACC    H0P19973   1.250   4.615   3.950
   16ACC    H0Q19974   1.252   4.649   3.777
   17ACC    C0019975   6.326   5.944   3.961
   17ACC    C0119976   6.470   5.981   3.987
   17ACC    O0219977   6.541   6.031   3.900
   17ACC    O0319978   6.507   5.955   4.112
   17ACC    C0419979   6.634   5.998   4.157
   17ACC    C0519980   6.624   6.148   4.186
   17ACC    N0619981   6.749   6.215   4.233
   17ACC    C0719982   6.790   6.168   4.367
   17ACC    C0819983   6.862   6.196   4.138
   17ACC    C0919984   6.717   6.359   4.243
   17ACC    H0A19985   6.302   5.961   3.856
   17ACC    H0B19986   6.263   6.007   4.023
   17ACC    H0C19987   6.309   5.840   3.987
   17ACC    H0D19988   6.709   5.977   4.080
   17ACC    H0E19989   6.662   5.941   4.245
   17ACC    H0F19990   6.543   6.165   4.256
   17ACC    H0G19991   6.595   6.195   4.094
   17ACC    H0H19992   6.819   6.063   4.366
   17ACC    H0I19993   6.710   6.182   4.440
   17ACC    H0J19994   6.877   6.224   4.401
   17ACC    H0K19995   6.900   6.093   4.139
   17ACC    H0M19996   6.946   6.259   4.167
   17ACC    H0N19997   6.837   6.221   4.036
   17ACC    H0O19998   6.641   6.379   4.319
   17ACC    H0P19999   6.678   6.398   4.150
   17ACC    H0Q20000   6.805   6.418   4.270
   18ACC    C0020001   2.178   0.525   3.963
   18ACC    C0120002   2.129   0.584   4.093
   18ACC    O0220003   2.196   0.664   4.156
   18ACC    O0320004   2.006   0.541   4.124
   18ACC    C0420005   1.943   0.591   4.239
   18ACC    C0520006   1.829   0.680   4.191
   18ACC    N0620007   1.762   0.764   4.293
   18ACC    C0720008   1.682   0.683   4.388
   18ACC    C0820009   1.865   0.844   4.363
   18ACC    C0920010   1.670   0.858   4.226
   18ACC    H0A20011   2.241   0.596   3.911
   18ACC    H0B20012   2.095   0.497   3.897
   18ACC    H0C20013   2.238   0.436   3.982
   18ACC    H0D20014   2.014   0.642   4.304
   18ACC    H0E20015   1.907   0.507   4.297
   18ACC    H0F20016   1.758   0.618   4.138
   18ACC    H0G20017   1.873   0.749   4.120
   18ACC    H0H20018   1.740   0.604   4.434
   18ACC    H0I20019   1.596   0.638   4.339
   18ACC    H0J20020   1.644   0.746   4.469
   18ACC    H0K20021   1.919   0.788   4.438
   18ACC    H0M20022   1.821   0.931   4.412
   18ACC    H0N20023   1.941   0.881   4.295
   18ACC    H0O20024   1.585   0.808   4.180
   18ACC    H0P20025   1.720   0.916   4.149
   18ACC    H0Q20026   1.631   0.931   4.297
   19ACC    C0020027   0.077   6.271   5.783
   19ACC    C0120028   0.144   6.137   5.780
   19ACC    O0220029   0.122   6.050   5.864
   19ACC    O0320030   0.229   6.128   5.681
   19ACC    C0420031   0.361   6.096   5.716
   19ACC    C0520032   0.382   5.945   5.719
   19ACC    N0620033   0.459   5.898   5.837
   19ACC    C0720034   0.583   5.974   5.866
   19ACC    C0820035   0.373   5.898   5.957
   19ACC    C0920036   0.502   5.760   5.808
   19ACC    H0A20037   0.051   6.293   5.886
   19ACC    H0B20038   7.180   6.274   5.720
   19ACC    H0C20039   0.149   6.346   5.750
   19ACC    H0D20040   0.384   6.146   5.810
   19ACC    H0E20041   0.427   6.140   5.643
   19ACC    H0F20042   0.433   5.919   5.626
   19ACC    H0G20043   0.286   5.894   5.712
   19ACC    H0H20044   0.568   6.079   5.885
   19ACC    H0I20045   0.652   5.968   5.782
   19ACC    H0J20046   0.634   5.932   5.953
   19ACC    H0K20047   0.347   6.000   5.987
   19ACC    H0M20048   0.423   5.851   6.042
   19ACC    H0N20049   0.279   5.844   5.939
   19ACC    H0O20050   0.576   5.756   5.727
   19ACC    H0P20051   0.417   5.705   5.773
   19ACC    H0Q20052   0.544   5.711   5.895
   20ACC    C0020053   5.920   2.953   4.322
   20ACC    C0120054   5.932   2.817   4.262
   20ACC    O0220055   5.992   2.798   4.156
   20ACC    O0320056   5.877   2.723   4.339
   20ACC    C0420057   5.884   2.590   4.294
   20ACC    C0520058   6.028   2.539   4.318
   20ACC    N0620059   6.074   2.435   4.223
   20ACC    C0720060   5.985   2.316   4.231
   20ACC    C0820061   6.078   2.489   4.085
   20ACC    C0920062   6.211   2.397   4.264
   20ACC    H0A20063   5.971   3.023   4.257
   20ACC    H0B20064   5.969   2.953   4.420
   20ACC    H0C20065   5.815   2.980   4.330
   20ACC    H0D20066   5.852   2.590   4.190
   20ACC    H0E20067   5.810   2.528   4.345
   20ACC    H0F20068   6.036   2.504   4.421
   20ACC    H0G20069   6.098   2.623   4.313
   20ACC    H0H20070   5.883   2.340   4.200
   20ACC    H0I20071   5.980   2.278   4.334
   20ACC    H0J20072   6.021   2.236   4.168
   20ACC    H0K20073   5.979   2.509   4.044
   20ACC    H0M20074   6.126   2.420   4.016
   20ACC    H0N20075   6.133   2.584   4.081
   20ACC    H0O20076   6.214   2.360   4.367
   20ACC    H0P20077   6.279   2.483   4.261
   20ACC    H0Q20078   6.253   2.320   4.199
   21ACC    C0020079   6.572   5.329   6.489
   21ACC    C0120080   6.578   5.183   6.455
   21ACC    O0220081   6.482   5.107   6.466
   21ACC    O0320082   6.699   5.150   6.415
   21ACC    C0420083   6.716   5.025   6.353
   21ACC    C0520084   6.694   5.051   6.205
   21ACC    N0620085   6.719   4.935   6.118
   21ACC    C0720086   6.848   4.869   6.145
   21ACC    C0820087   6.610   4.838   6.138
   21ACC    C0920088   6.720   4.980   5.977
   21ACC    H0A20089   6.561   5.389   6.399
   21ACC    H0B20090   6.660   5.362   6.541
   21ACC    H0C20091   6.492   5.351   6.558
   21ACC    H0D20092   6.651   4.948   6.394
   21ACC    H0E20093   6.817   4.993   6.375
   21ACC    H0F20094   6.763   5.129   6.179
   21ACC    H0G20095   6.595   5.093   6.188
   21ACC    H0H20096   6.841   4.809   6.235
   21ACC    H0I20097   6.930   4.940   6.158
   21ACC    H0J20098   6.876   4.802   6.065
   21ACC    H0K20099   6.605   4.800   6.240
   21ACC    H0M20100   6.624   4.752   6.072
   21ACC    H0N20101   6.513   4.883   6.116
   21ACC    H0O20102   6.807   5.044   5.960
   21ACC    H0P20103   6.630   5.035   5.951
   21ACC    H0Q20104   6.729   4.895   5.909
   22ACC    C0020105   3.172   4.469   4.913
   22ACC    C0120106   3.101   4.438   5.042
   22ACC    O0220107   3.045   4.330   5.061
   22ACC    O0320108   3.112   4.536   5.131
   22ACC    C0420109   3.059   4.520   5.261
   22ACC    C0520110   3.164   4.453   5.352
   22ACC    N0620111   3.116   4.338   5.435
   22ACC    C0720112   3.031   4.379   5.548
   22ACC    C0820113   3.040   4.238   5.356
   22ACC    C0920114   3.235   4.270   5.492
   22ACC    H0A20115   3.163   4.387   4.843
   22ACC    H0B20116   3.278   4.489   4.933
   22ACC    H0C20117   3.128   4.557   4.866
   22ACC    H0D20118   2.960   4.475   5.259
   22ACC    H0E20119   3.041   4.621   5.299
   22ACC    H0F20120   3.204   4.531   5.417
   22ACC    H0G20121   3.248   4.424   5.290
   22ACC    H0H20122   2.931   4.403   5.512
   22ACC    H0I20123   3.071   4.467   5.599
   22ACC    H0J20124   3.017   4.301   5.622
   22ACC    H0K20125   2.945   4.276   5.319
   22ACC    H0M20126   3.015   4.153   5.420
   22ACC    H0N20127   3.098   4.204   5.271
   22ACC    H0O20128   3.291   4.335   5.556
   22ACC    H0P20129   3.304   4.237   5.415
   22ACC    H0Q20130   3.206   4.185   5.553
   23ACC    C0020131   4.839   4.597   0.575
   23ACC    C0120132   4.819   4.589   0.724
   23ACC    O0220133   4.914   4.588   0.803
   23ACC    O0320134   4.691   4.587   0.755
   23ACC    C0420135   4.652   4.567   0.888
   23ACC    C0520136   4.650   4.705   0.953
   23ACC    N0620137   4.666   4.702   1.101
   23ACC    C0720138   4.559   4.619   1.162
   23ACC    C0820139   4.801   4.651   1.135
   23ACC    C0920140   4.653   4.841   1.151
   23ACC    H0A20141   4.945   4.601   0.553
   23ACC    H0B20142   4.788   4.686   0.537
   23ACC    H0C20143   4.794   4.509   0.530
   23ACC    H0D20144   4.720   4.495   0.935
   23ACC    H0E20145   4.554   4.521   0.888
   23ACC    H0F20146   4.558   4.755   0.924
   23ACC    H0G20147   4.730   4.767   0.911
   23ACC    H0H20148   4.574   4.512   1.146
   23ACC    H0I20149   4.460   4.645   1.123
   23ACC    H0J20150   4.554   4.633   1.270
   23ACC    H0K20151   4.807   4.542   1.132
   23ACC    H0M20152   4.831   4.679   1.236
   23ACC    H0N20153   4.878   4.690   1.069
   23ACC    H0O20154   4.554   4.882   1.131
   23ACC    H0P20155   4.725   4.906   1.103
   23ACC    H0Q20156   4.669   4.845   1.259
   24ACC    C0020157   1.487   2.028   2.475
   24ACC    C0120158   1.606   2.114   2.510
   24ACC    O0220159   1.682   2.151   2.424
   24ACC    O0320160   1.622   2.141   2.639
   24ACC    C0420161   1.733   2.211   2.694
   24ACC    C0520162   1.867   2.213   2.618
   24ACC    N0620163   1.977   2.281   2.690
   24ACC    C0720164   1.946   2.426   2.702
   24ACC    C0820165   2.003   2.223   2.824
   24ACC    C0920166   2.099   2.265   2.607
   24ACC    H0A20167   1.515   1.924   2.466
   24ACC    H0B20168   1.449   2.056   2.377
   24ACC    H0C20169   1.407   2.034   2.548
   24ACC    H0D20170   1.748   2.163   2.790
   24ACC    H0E20171   1.701   2.312   2.714
   24ACC    H0F20172   1.853   2.266   2.524
   24ACC    H0G20173   1.899   2.113   2.589
   24ACC    H0H20174   1.866   2.445   2.774
   24ACC    H0I20175   1.912   2.465   2.606
   24ACC    H0J20176   2.032   2.485   2.732
   24ACC    H0K20177   1.923   2.243   2.895
   24ACC    H0M20178   2.094   2.264   2.868
   24ACC    H0N20179   2.018   2.114   2.818
   24ACC    H0O20180   2.085   2.304   2.507
   24ACC    H0P20181   2.127   2.160   2.600
   24ACC    H0Q20182   2.184   2.317   2.651
   25ACC    C0020183   4.735   6.303   2.956
   25ACC    C0120184   4.837   6.207   2.904
   25ACC    O0220185   4.806   6.115   2.829
   25ACC    O0320186   4.961   6.237   2.943
   25ACC    C0420187   5.070   6.176   2.877
   25ACC    C0520188   5.071   6.232   2.733
   25ACC    N0620189   5.108   6.133   2.629
   25ACC    C0720190   5.256   6.118   2.625
   25ACC    C0820191   5.045   6.000   2.648
   25ACC    C0920192   5.056   6.189   2.502
   25ACC    H0A20193   4.642   6.292   2.901
   25ACC    H0B20194   4.772   6.404   2.943
   25ACC    H0C20195   4.721   6.281   3.061
   25ACC    H0D20196   5.057   6.069   2.888
   25ACC    H0E20197   5.164   6.200   2.925
   25ACC    H0F20198   5.135   6.320   2.730
   25ACC    H0G20199   4.973   6.274   2.711
   25ACC    H0H20200   5.295   6.071   2.715
   25ACC    H0I20201   5.308   6.212   2.612
   25ACC    H0J20202   5.288   6.055   2.542
   25ACC    H0K20203   5.089   5.943   2.729
   25ACC    H0M20204   5.061   5.935   2.563
   25ACC    H0N20205   4.937   6.006   2.660
   25ACC    H0O20206   5.115   6.273   2.465
   25ACC    H0P20207   4.952   6.221   2.508
   25ACC    H0Q20208   5.056   6.113   2.425
   26ACC    C0020209   4.510   6.046   4.893
   26ACC    C0120210   4.500   5.902   4.934
   26ACC    O0220211   4.489   5.809   4.854
   26ACC    O0320212   4.498   5.892   5.065
   26ACC    C0420213   4.447   5.778   5.127
   26ACC    C0520214   4.545   5.661   5.126
   26ACC    N0620215   4.495   5.542   5.202
   26ACC    C0720216   4.454   5.579   5.339
   26ACC    C0820217   4.377   5.475   5.140
   26ACC    C0920218   4.609   5.447   5.207
   26ACC    H0A20219   4.429   6.070   4.824
   26ACC    H0B20220   4.606   6.069   4.846
   26ACC    H0C20221   4.499   6.113   4.978
   26ACC    H0D20222   4.352   5.750   5.082
   26ACC    H0E20223   4.428   5.811   5.228
   26ACC    H0F20224   4.638   5.696   5.171
   26ACC    H0G20225   4.570   5.634   5.024
   26ACC    H0H20226   4.366   5.643   5.343
   26ACC    H0I20227   4.534   5.628   5.395
   26ACC    H0J20228   4.424   5.491   5.393
   26ACC    H0K20229   4.287   5.535   5.150
   26ACC    H0M20230   4.355   5.380   5.188
   26ACC    H0N20231   4.391   5.452   5.037
   26ACC    H0O20232   4.688   5.487   5.271
   26ACC    H0P20233   4.655   5.429   5.110
   26ACC    H0Q20234   4.580   5.350   5.248
   27ACC    C0020235   6.628   4.459   6.093
   27ACC    C0120236   6.726   4.509   6.195
   27ACC    O0220237   6.691   4.576   6.292
   27ACC    O0320238   6.849   4.469   6.168
   27ACC    C0420239   6.957   4.537   6.227
   27ACC    C0520240   7.085   4.454   6.213
   27ACC    N0620241   0.014   4.513   6.280
   27ACC    C0720242   0.040   4.649   6.228
   27ACC    C0820243   0.003   4.517   6.428
   27ACC    C0920244   0.130   4.427   6.249
   27ACC    H0A20245   6.530   4.502   6.112
   27ACC    H0B20246   6.621   4.351   6.096
   27ACC    H0C20247   6.663   4.492   5.995
   27ACC    H0D20248   6.933   4.562   6.330
   27ACC    H0E20249   6.967   4.631   6.175
   27ACC    H0F20250   7.103   4.445   6.105
   27ACC    H0G20251   7.068   4.353   6.248
   27ACC    H0H20252   7.151   4.719   6.254
   27ACC    H0I20253   0.045   4.647   6.119
   27ACC    H0J20254   0.131   4.692   6.268
   27ACC    H0K20255   7.097   4.552   6.464
   27ACC    H0M20256   0.076   4.585   6.473
   27ACC    H0N20257   0.019   4.420   6.474
   27ACC    H0O20258   0.149   4.421   6.142
   27ACC    H0P20259   0.113   4.324   6.283
   27ACC    H0Q20260   0.220   4.461   6.299
   28ACC    C0020261   6.458   4.187   5.506
   28ACC    C0120262   6.344   4.139   5.423
   28ACC    O0220263   6.236   4.113   5.475
   28ACC    O0320264   6.372   4.146   5.294
   28ACC    C0420265   6.271   4.177   5.202
   28ACC    C0520266   6.271   4.331   5.191
   28ACC    N0620267   6.147   4.400   5.234
   28ACC    C0720268   6.047   4.360   5.135
   28ACC    C0820269   6.111   4.363   5.372
   28ACC    C0920270   6.158   4.548   5.230
   28ACC    H0A20271   6.442   4.291   5.528
   28ACC    H0B20272   6.548   4.180   5.447
   28ACC    H0C20273   6.466   4.129   5.597
   28ACC    H0D20274   6.176   4.131   5.226
   28ACC    H0E20275   6.302   4.134   5.106
   28ACC    H0F20276   6.292   4.355   5.088
   28ACC    H0G20277   6.354   4.368   5.248
   28ACC    H0H20278   6.015   4.257   5.154
   28ACC    H0I20279   6.081   4.362   5.032
   28ACC    H0J20280   5.960   4.423   5.138
   28ACC    H0K20281   6.075   4.261   5.378
   28ACC    H0M20282   6.035   4.428   5.414
   28ACC    H0N20283   6.196   4.369   5.440
   28ACC    H0O20284   6.187   4.585   5.132
   28ACC    H0P20285   6.228   4.588   5.302
   28ACC    H0Q20286   6.063   4.594   5.257
   29ACC    C0020287   2.186   1.232   4.700
   29ACC    C0120288   2.179   1.249   4.850
   29ACC    O0220289   2.082   1.214   4.916
   29ACC    O0320290   2.286   1.311   4.899
   29ACC    C0420291   2.282   1.360   5.031
   29ACC    C0520292   2.313   1.246   5.130
   29ACC    N0620293   2.249   1.259   5.263
   29ACC    C0720294   2.316   1.369   5.333
   29ACC    C0820295   2.103   1.272   5.244
   29ACC    C0920296   2.263   1.143   5.354
   29ACC    H0A20297   2.091   1.254   4.652
   29ACC    H0B20298   2.213   1.129   4.674
   29ACC    H0C20299   2.261   1.298   4.657
   29ACC    H0D20300   2.186   1.409   5.042
   29ACC    H0E20301   2.354   1.441   5.042
   29ACC    H0F20302   2.421   1.241   5.142
   29ACC    H0G20303   2.285   1.151   5.087
   29ACC    H0H20304   2.326   1.459   5.272
   29ACC    H0I20305   2.418   1.342   5.359
   29ACC    H0J20306   2.262   1.390   5.426
   29ACC    H0K20307   2.070   1.197   5.174
   29ACC    H0M20308   2.075   1.368   5.204
   29ACC    H0N20309   2.046   1.258   5.336
   29ACC    H0O20310   2.362   1.134   5.397
   29ACC    H0P20311   2.239   1.048   5.306
   29ACC    H0Q20312   2.202   1.155   5.443
   30ACC    C0020313   3.041   5.872   0.745
   30ACC    C0120314   2.972   5.955   0.849
   30ACC    O0220315   2.872   6.023   0.825
   30ACC    O0320316   3.031   5.943   0.967
   30ACC    C0420317   2.973   6.004   1.081
   30ACC    C0520318   2.846   5.924   1.119
   30ACC    N0620319   2.779   5.971   1.242
   30ACC    C0720320   2.872   5.977   1.357
   30ACC    C0820321   2.717   6.104   1.219
   30ACC    C0920322   2.672   5.874   1.278
   30ACC    H0A20323   2.983   5.871   0.653
   30ACC    H0B20324   3.052   5.769   0.782
   30ACC    H0C20325   3.140   5.913   0.726
   30ACC    H0D20326   2.952   6.109   1.060
   30ACC    H0E20327   3.049   5.999   1.158
   30ACC    H0F20328   2.874   5.819   1.129
   30ACC    H0G20329   2.776   5.926   1.036
   30ACC    H0H20330   2.952   6.049   1.342
   30ACC    H0I20331   2.919   5.881   1.378
   30ACC    H0J20332   2.821   6.010   1.447
   30ACC    H0K20333   2.794   6.179   1.198
   30ACC    H0M20334   2.664   6.139   1.308
   30ACC    H0N20335   2.648   6.104   1.135
   30ACC    H0O20336   2.715   5.776   1.300
   30ACC    H0P20337   2.601   5.862   1.197
   30ACC    H0Q20338   2.618   5.907   1.367
   31ACC    C0020339   6.450   2.856   2.126
   31ACC    C0120340   6.315   2.805   2.085
   31ACC    O0220341   6.300   2.740   1.982
   31ACC    O0320342   6.222   2.840   2.172
   31ACC    C0420343   6.090   2.796   2.152
   31ACC    C0520344   6.081   2.650   2.196
   31ACC    N0620345   5.952   2.586   2.161
   31ACC    C0720346   5.838   2.657   2.222
   31ACC    C0820347   5.940   2.578   2.013
   31ACC    C0920348   5.952   2.448   2.216
   31ACC    H0A20349   6.528   2.798   2.079
   31ACC    H0B20350   6.460   2.847   2.234
   31ACC    H0C20351   6.455   2.960   2.097
   31ACC    H0D20352   6.063   2.812   2.047
   31ACC    H0E20353   6.025   2.859   2.212
   31ACC    H0F20354   6.098   2.643   2.303
   31ACC    H0G20355   6.161   2.591   2.150
   31ACC    H0H20356   5.822   2.755   2.177
   31ACC    H0I20357   5.854   2.670   2.329
   31ACC    H0J20358   5.746   2.601   2.210
   31ACC    H0K20359   5.912   2.672   1.966
   31ACC    H0M20360   5.868   2.503   1.983
   31ACC    H0N20361   6.032   2.543   1.966
   31ACC    H0O20362   5.954   2.447   2.325
   31ACC    H0P20363   6.039   2.392   2.183
   31ACC    H0Q20364   5.864   2.391   2.185
   32ACC    C0020365   1.602   1.401   4.601
   32ACC    C0120366   1.517   1.463   4.494
   32ACC    O0220367   1.563   1.537   4.408
   32ACC    O0320368   1.392   1.421   4.502
   32ACC    C0420369   1.320   1.403   4.383
   32ACC    C0520370   1.327   1.252   4.354
   32ACC    N0620371   1.395   1.212   4.228
   32ACC    C0720372   1.334   1.275   4.109
   32ACC    C0820373   1.541   1.244   4.234
   32ACC    C0920374   1.380   1.066   4.215
   32ACC    H0A20375   1.666   1.324   4.558
   32ACC    H0B20376   1.540   1.355   4.677
   32ACC    H0C20377   1.662   1.479   4.644
   32ACC    H0D20378   1.357   1.467   4.303
   32ACC    H0E20379   1.218   1.433   4.403
   32ACC    H0F20380   1.225   1.214   4.356
   32ACC    H0G20381   1.375   1.202   4.439
   32ACC    H0H20382   1.351   1.382   4.107
   32ACC    H0I20383   1.226   1.257   4.107
   32ACC    H0J20384   1.378   1.234   4.018
   32ACC    H0K20385   1.561   1.351   4.238
   32ACC    H0M20386   1.595   1.207   4.146
   32ACC    H0N20387   1.589   1.200   4.321
   32ACC    H0O20388   1.275   1.035   4.207
   32ACC    H0P20389   1.420   1.014   4.302
   32ACC    H0Q20390   1.432   1.027   4.127
   33ACC    C0020391   2.777   1.224   5.389
   33ACC    C0120392   2.889   1.188   5.297
   33ACC    O0220393   2.880   1.202   5.176
   33ACC    O0320394   2.997   1.147   5.364
   33ACC    C0420395   3.094   1.059   5.310
   33ACC    C0520396   3.145   1.086   5.166
   33ACC    N0620397   3.232   0.979   5.108
   33ACC    C0720398   3.351   0.951   5.187
   33ACC    C0820399   3.158   0.853   5.096
   33ACC    C0920400   3.277   1.013   4.971
   33ACC    H0A20401   2.702   1.282   5.335
   33ACC    H0B20402   2.815   1.280   5.473
   33ACC    H0C20403   2.729   1.133   5.427
   33ACC    H0D20404   3.053   0.960   5.319
   33ACC    H0E20405   3.177   1.058   5.380
   33ACC    H0F20406   3.193   1.183   5.169
   33ACC    H0G20407   3.062   1.097   5.097
   33ACC    H0H20408   3.321   0.893   5.273
   33ACC    H0I20409   3.399   1.042   5.221
   33ACC    H0J20410   3.423   0.890   5.134
   33ACC    H0K20411   3.132   0.810   5.193
   33ACC    H0M20412   3.217   0.775   5.049
   33ACC    H0N20413   3.069   0.870   5.035
   33ACC    H0O20414   3.372   1.065   4.971
   33ACC    H0P20415   3.201   1.071   4.919
   33ACC    H0Q20416   3.294   0.924   4.910
   34ACC    C0020417   2.180   4.628   6.411
   34ACC    C0120418   2.265   4.697   6.514
   34ACC    O0220419   2.386   4.679   6.517
   34ACC    O0320420   2.193   4.772   6.601
   34ACC    C0420421   2.260   4.837   6.708
   34ACC    C0520422   2.289   4.982   6.673
   34ACC    N0620423   2.429   5.025   6.698
   34ACC    C0720424   2.484   4.985   6.831
   34ACC    C0820425   2.513   4.965   6.595
   34ACC    C0920426   2.437   5.172   6.679
   34ACC    H0A20427   2.231   4.538   6.378
   34ACC    H0B20428   2.171   4.694   6.326
   34ACC    H0C20429   2.083   4.601   6.451
   34ACC    H0D20430   2.351   4.785   6.734
   34ACC    H0E20431   2.197   4.832   6.796
   34ACC    H0F20432   2.227   5.043   6.735
   34ACC    H0G20433   2.260   5.004   6.570
   34ACC    H0H20434   2.533   4.888   6.829
   34ACC    H0I20435   2.407   4.977   6.907
   34ACC    H0J20436   2.560   5.055   6.866
   34ACC    H0K20437   2.517   4.857   6.603
   34ACC    H0M20438   2.616   4.999   6.606
   34ACC    H0N20439   2.478   4.989   6.496
   34ACC    H0O20440   2.388   5.224   6.760
   34ACC    H0P20441   2.391   5.203   6.586
   34ACC    H0Q20442   2.540   5.206   6.677
   35ACC    C0020443   3.029   1.179   0.742
   35ACC    C0120444   2.915   1.247   0.810
   35ACC    O0220445   2.806   1.191   0.817
   35ACC    O0320446   2.949   1.359   0.867
   35ACC    C0420447   2.869   1.401   0.975
   35ACC    C0520448   2.904   1.304   1.090
   35ACC    N0620449   2.811   1.305   1.205
   35ACC    C0720450   2.806   1.438   1.264
   35ACC    C0820451   2.674   1.264   1.166
   35ACC    C0920452   2.863   1.211   1.305
   35ACC    H0A20453   3.059   1.092   0.799
   35ACC    H0B20454   3.112   1.246   0.726
   35ACC    H0C20455   2.985   1.148   0.650
   35ACC    H0D20456   2.764   1.399   0.944
   35ACC    H0E20457   2.892   1.504   1.000
   35ACC    H0F20458   3.005   1.330   1.122
   35ACC    H0G20459   2.910   1.202   1.054
   35ACC    H0H20460   2.747   1.501   1.199
   35ACC    H0I20461   2.905   1.483   1.273
   35ACC    H0J20462   2.758   1.438   1.362
   35ACC    H0K20463   2.630   1.332   1.094
   35ACC    H0M20464   2.608   1.264   1.252
   35ACC    H0N20465   2.673   1.164   1.122
   35ACC    H0O20466   2.962   1.242   1.337
   35ACC    H0P20467   2.873   1.112   1.263
   35ACC    H0Q20468   2.798   1.205   1.392
   36ACC    C0020469   6.173   0.791   1.992
   36ACC    C0120470   6.267   0.856   1.894
   36ACC    O0220471   6.231   0.950   1.823
   36ACC    O0320472   6.389   0.801   1.897
   36ACC    C0420473   6.482   0.833   1.795
   36ACC    C0520474   6.534   0.976   1.815
   36ACC    N0620475   6.609   1.032   1.699
   36ACC    C0720476   6.746   0.978   1.691
   36ACC    C0820477   6.543   1.010   1.568
   36ACC    C0920478   6.617   1.177   1.724
   36ACC    H0A20479   6.078   0.845   1.992
   36ACC    H0B20480   6.215   0.792   2.092
   36ACC    H0C20481   6.154   0.688   1.961
   36ACC    H0D20482   6.431   0.820   1.700
   36ACC    H0E20483   6.565   0.761   1.796
   36ACC    H0F20484   6.596   0.980   1.904
   36ACC    H0G20485   6.450   1.041   1.836
   36ACC    H0H20486   6.745   0.874   1.660
   36ACC    H0I20487   6.799   0.984   1.786
   36ACC    H0J20488   6.806   1.030   1.616
   36ACC    H0K20489   6.546   0.906   1.537
   36ACC    H0M20490   6.597   1.063   1.488
   36ACC    H0N20491   6.440   1.045   1.566
   36ACC    H0O20492   6.683   1.196   1.807
   36ACC    H0P20493   6.520   1.221   1.747
   36ACC    H0Q20494   6.653   1.230   1.637
   37ACC    C0020495   1.163   6.846   0.794
   37ACC    C0120496   1.149   6.696   0.804
   37ACC    O0220497   1.049   6.638   0.762
   37ACC    O0320498   1.255   6.636   0.859
   37ACC    C0420499   1.244   6.498   0.892
   37ACC    C0520500   1.252   6.413   0.764
   37ACC    N0620501   1.164   6.293   0.764
   37ACC    C0720502   1.194   6.201   0.877
   37ACC    C0820503   1.020   6.332   0.768
   37ACC    C0920504   1.187   6.221   0.637
   37ACC    H0A20505   1.071   6.890   0.757
   37ACC    H0B20506   1.245   6.874   0.727
   37ACC    H0C20507   1.181   6.887   0.892
   37ACC    H0D20508   1.152   6.486   0.950
   37ACC    H0E20509   1.324   6.471   0.961
   37ACC    H0F20510   1.356   6.384   0.748
   37ACC    H0G20511   1.226   6.474   0.678
   37ACC    H0H20512   1.176   6.248   0.974
   37ACC    H0I20513   1.299   6.170   0.875
   37ACC    H0J20514   1.133   6.112   0.873
   37ACC    H0K20515   0.992   6.381   0.861
   37ACC    H0M20516   0.954   6.246   0.757
   37ACC    H0N20517   0.996   6.402   0.687
   37ACC    H0O20518   1.289   6.186   0.625
   37ACC    H0P20519   1.166   6.283   0.549
   37ACC    H0Q20520   1.123   6.133   0.626
   38ACC    C0020521   6.625   4.856   3.958
   38ACC    C0120522   6.515   4.865   3.855
   38ACC    O0220523   6.403   4.902   3.888
   38ACC    O0320524   6.558   4.835   3.732
   38ACC    C0420525   6.463   4.813   3.629
   38ACC    C0520526   6.414   4.944   3.566
   38ACC    N0620527   6.312   4.928   3.457
   38ACC    C0720528   6.376   4.882   3.333
   38ACC    C0820529   6.208   4.829   3.495
   38ACC    C0920530   6.248   5.059   3.428
   38ACC    H0A20531   6.585   4.806   4.046
   38ACC    H0B20532   6.658   4.956   3.984
   38ACC    H0C20533   6.708   4.796   3.919
   38ACC    H0D20534   6.380   4.759   3.675
   38ACC    H0E20535   6.509   4.747   3.556
   38ACC    H0F20536   6.497   5.005   3.531
   38ACC    H0G20537   6.369   5.001   3.647
   38ACC    H0H20538   6.436   4.791   3.345
   38ACC    H0I20539   6.441   4.959   3.293
   38ACC    H0J20540   6.303   4.862   3.255
   38ACC    H0K20541   6.245   4.728   3.492
   38ACC    H0M20542   6.120   4.833   3.430
   38ACC    H0N20543   6.175   4.844   3.597
   38ACC    H0O20544   6.265   5.095   3.327
   38ACC    H0P20545   6.280   5.138   3.497
   38ACC    H0Q20546   6.140   5.054   3.441
   39ACC    C0020547   4.074   6.257   4.537
   39ACC    C0120548   4.111   6.376   4.452
   39ACC    O0220549   4.182   6.365   4.353
   39ACC    O0320550   4.058   6.488   4.497
   39ACC    C0420551   4.083   6.610   4.431
   39ACC    C0520552   4.017   6.611   4.293
   39ACC    N0620553   3.944   6.736   4.261
   39ACC    C0720554   3.809   6.722   4.316
   39ACC    C0820555   4.008   6.859   4.315
   39ACC    C0920556   3.931   6.753   4.116
   39ACC    H0A20557   4.110   6.164   4.493
   39ACC    H0B20558   3.965   6.251   4.546
   39ACC    H0C20559   4.115   6.269   4.636
   39ACC    H0D20560   4.191   6.626   4.423
   39ACC    H0E20561   4.044   6.686   4.496
   39ACC    H0F20562   3.951   6.526   4.284
   39ACC    H0G20563   4.095   6.594   4.220
   39ACC    H0H20564   3.805   6.709   4.424
   39ACC    H0I20565   3.752   6.642   4.271
   39ACC    H0J20566   3.759   6.813   4.292
   39ACC    H0K20567   3.978   6.882   4.417
   39ACC    H0M20568   3.985   6.947   4.254
   39ACC    H0N20569   4.116   6.849   4.315
   39ACC    H0O20570   3.892   6.666   4.063
   39ACC    H0P20571   4.026   6.780   4.072
   39ACC    H0Q20572   3.865   6.835   4.092
   40ACC    C0020573   2.769   1.062   2.390
   40ACC    C0120574   2.635   1.131   2.394
   40ACC    O0220575   2.542   1.098   2.321
   40ACC    O0320576   2.632   1.228   2.484
   40ACC    C0420577   2.510   1.294   2.508
   40ACC    C0520578   2.424   1.207   2.600
   40ACC    N0620579   2.281   1.249   2.608
   40ACC    C0720580   2.268   1.397   2.618
   40ACC    C0820581   2.209   1.197   2.489
   40ACC    C0920582   2.223   1.187   2.729
   40ACC    H0A20583   2.762   0.973   2.329
   40ACC    H0B20584   2.799   1.035   2.491
   40ACC    H0C20585   2.843   1.129   2.348
   40ACC    H0D20586   2.461   1.317   2.414
   40ACC    H0E20587   2.534   1.389   2.557
   40ACC    H0F20588   2.470   1.208   2.699
   40ACC    H0G20589   2.429   1.102   2.569
   40ACC    H0H20590   2.278   1.446   2.521
   40ACC    H0I20591   2.343   1.440   2.684
   40ACC    H0J20592   2.173   1.427   2.660
   40ACC    H0K20593   2.248   1.236   2.395
   40ACC    H0M20594   2.103   1.222   2.492
   40ACC    H0N20595   2.213   1.088   2.483
   40ACC    H0O20596   2.268   1.228   2.820
   40ACC    H0P20597   2.238   1.079   2.731
   40ACC    H0Q20598   2.115   1.203   2.735
   41ACC    C0020599   0.214   4.716   1.414
   41ACC    C0120600   0.228   4.740   1.266
   41ACC    O0220601   0.279   4.842   1.221
   41ACC    O0320602   0.184   4.636   1.195
   41ACC    C0420603   0.221   4.626   1.059
   41ACC    C0520604   0.365   4.572   1.056
   41ACC    N0620605   0.422   4.545   0.922
   41ACC    C0720606   0.364   4.421   0.866
   41ACC    C0820607   0.401   4.657   0.829
   41ACC    C0920608   0.568   4.522   0.938
   41ACC    H0A20609   0.246   4.803   1.471
   41ACC    H0B20610   0.277   4.632   1.443
   41ACC    H0C20611   0.110   4.694   1.438
   41ACC    H0D20612   0.212   4.723   1.011
   41ACC    H0E20613   0.151   4.557   1.011
   41ACC    H0F20614   0.368   4.480   1.116
   41ACC    H0G20615   0.429   4.641   1.110
   41ACC    H0H20616   0.256   4.427   0.851
   41ACC    H0I20617   0.384   4.339   0.934
   41ACC    H0J20618   0.408   4.396   0.769
   41ACC    H0K20619   0.297   4.667   0.797
   41ACC    H0M20620   0.462   4.646   0.739
   41ACC    H0N20621   0.430   4.752   0.874
   41ACC    H0O20622   0.591   4.455   1.022
   41ACC    H0P20623   0.620   4.616   0.954
   41ACC    H0Q20624   0.613   4.479   0.849
   42ACC    C0020625   3.786   2.938   0.805
   42ACC    C0120626   3.926   2.982   0.773
   42ACC    O0220627   3.965   2.997   0.657
   42ACC    O0320628   4.001   2.997   0.882
   42ACC    C0420629   4.136   3.031   0.868
   42ACC    C0520630   4.154   3.184   0.874
   42ACC    N0620631   4.269   3.237   0.796
   42ACC    C0720632   4.387   3.147   0.800
   42ACC    C0820633   4.228   3.257   0.655
   42ACC    C0920634   4.305   3.369   0.853
   42ACC    H0A20635   3.723   3.024   0.822
   42ACC    H0B20636   3.786   2.877   0.895
   42ACC    H0C20637   3.744   2.881   0.722
   42ACC    H0D20638   4.175   2.988   0.776
   42ACC    H0E20639   4.192   2.986   0.950
   42ACC    H0F20640   4.169   3.208   0.980
   42ACC    H0G20641   4.062   3.235   0.845
   42ACC    H0H20642   4.376   3.060   0.736
   42ACC    H0I20643   4.404   3.112   0.902
   42ACC    H0J20644   4.477   3.200   0.770
   42ACC    H0K20645   4.190   3.165   0.610
   42ACC    H0M20646   4.311   3.294   0.595
   42ACC    H0N20647   4.148   3.331   0.648
   42ACC    H0O20648   4.336   3.360   0.957
   42ACC    H0P20649   4.221   3.439   0.851
   42ACC    H0Q20650   4.389   3.415   0.800
   43ACC    C0020651   2.855   4.204   7.129
   43ACC    C0120652   2.751   4.223   7.023
   43ACC    O0220653   2.635   4.182   7.035
   43ACC    O0320654   2.800   4.287   6.918
   43ACC    C0420655   2.717   4.307   6.808
   43ACC    C0520656   2.637   4.433   6.833
   43ACC    N0620657   2.504   4.429   6.769
   43ACC    C0720658   2.516   4.405   6.623
   43ACC    C0820659   2.418   4.328   6.836
   43ACC    C0920660   2.446   4.563   6.790
   43ACC    H0A20661   2.807   4.200   0.037
   43ACC    H0B20662   2.923   4.290   7.129
   43ACC    H0C20663   2.912   4.113   7.109
   43ACC    H0D20664   2.660   4.216   6.791
   43ACC    H0E20665   2.775   4.319   6.717
   43ACC    H0F20666   2.694   4.519   6.798
   43ACC    H0G20667   2.626   4.449   6.941
   43ACC    H0H20668   2.558   4.307   6.599
   43ACC    H0I20669   2.581   4.480   6.578
   43ACC    H0J20670   2.421   4.413   6.571
   43ACC    H0K20671   2.450   4.226   6.817
   43ACC    H0M20672   2.315   4.335   6.805
   43ACC    H0N20673   2.421   4.341   6.945
   43ACC    H0O20674   2.508   4.637   6.738
   43ACC    H0P20675   2.444   4.591   6.895
   43ACC    H0Q20676   2.345   4.566   6.750
   44ACC    C0020677   5.712   3.990   0.860
   44ACC    C0120678   5.581   4.050   0.900
   44ACC    O0220679   5.515   4.007   0.994
   44ACC    O0320680   5.556   4.162   0.832
   44ACC    C0420681   5.488   4.264   0.901
   44ACC    C0520682   5.589   4.310   1.006
   44ACC    N0620683   5.545   4.422   1.091
   44ACC    C0720684   5.520   4.550   1.020
   44ACC    C0820685   5.419   4.381   1.155
   44ACC    C0920686   5.655   4.440   1.190
   44ACC    H0A20687   5.739   3.918   0.936
   44ACC    H0B20688   5.788   4.068   0.861
   44ACC    H0C20689   5.705   3.947   0.762
   44ACC    H0D20690   5.396   4.225   0.944
   44ACC    H0E20691   5.463   4.344   0.833
   44ACC    H0F20692   5.685   4.327   0.958
   44ACC    H0G20693   5.609   4.227   1.074
   44ACC    H0H20694   5.415   4.579   1.022
   44ACC    H0I20695   5.550   4.544   0.916
   44ACC    H0J20696   5.571   4.634   1.065
   44ACC    H0K20697   5.334   4.383   1.088
   44ACC    H0M20698   5.393   4.449   1.236
   44ACC    H0N20699   5.426   4.280   1.195
   44ACC    H0O20700   5.711   4.530   1.176
   44ACC    H0P20701   5.732   4.364   1.187
   44ACC    H0Q20702   5.618   4.441   1.291
   45ACC    C0020703   6.564   4.665   2.108
   45ACC    C0120704   6.428   4.714   2.066
   45ACC    O0220705   6.414   4.820   2.008
   45ACC    O0320706   6.330   4.627   2.097
   45ACC    C0420707   6.195   4.666   2.079
   45ACC    C0520708   6.154   4.658   1.930
   45ACC    N0620709   6.048   4.756   1.894
   45ACC    C0720710   5.921   4.732   1.967
   45ACC    C0820711   6.096   4.893   1.921
   45ACC    C0920712   6.020   4.745   1.749
   45ACC    H0A20713   6.636   4.746   2.100
   45ACC    H0B20714   6.598   4.584   2.045
   45ACC    H0C20715   6.562   4.633   2.212
   45ACC    H0D20716   6.185   4.766   2.122
   45ACC    H0E20717   6.131   4.601   2.138
   45ACC    H0F20718   6.122   4.557   1.904
   45ACC    H0G20719   6.241   4.678   1.867
   45ACC    H0H20720   5.933   4.735   2.075
   45ACC    H0I20721   5.876   4.636   1.940
   45ACC    H0J20722   5.850   4.810   1.941
   45ACC    H0K20723   6.068   4.928   2.020
   45ACC    H0M20724   6.060   4.965   1.849
   45ACC    H0N20725   6.204   4.900   1.916
   45ACC    H0O20726   5.983   4.646   1.723
   45ACC    H0P20727   6.109   4.762   1.689
   45ACC    H0Q20728   5.944   4.816   1.716
   46ACC    C0020729   1.941   5.932   5.571
   46ACC    C0120730   1.867   6.011   5.677
   46ACC    O0220731   1.926   6.063   5.771
   46ACC    O0320732   1.737   6.009   5.657
   46ACC    C0420733   1.646   6.061   5.752
   46ACC    C0520734   1.638   6.214   5.752
   46ACC    N0620735   1.522   6.272   5.826
   46ACC    C0720736   1.389   6.221   5.786
   46ACC    C0820737   1.535   6.249   5.971
   46ACC    C0920738   1.524   6.418   5.803
   46ACC    H0A20739   2.049   5.945   5.583
   46ACC    H0B20740   1.911   5.964   5.472
   46ACC    H0C20741   1.918   5.826   5.581
   46ACC    H0D20742   1.674   6.025   5.849
   46ACC    H0E20743   1.551   6.016   5.728
   46ACC    H0F20744   1.638   6.248   5.649
   46ACC    H0G20745   1.732   6.253   5.792
   46ACC    H0H20746   1.379   6.114   5.803
   46ACC    H0I20747   1.364   6.239   5.682
   46ACC    H0J20748   1.309   6.266   5.846
   46ACC    H0K20749   1.524   6.144   5.993
   46ACC    H0M20750   1.455   6.299   6.027
   46ACC    H0N20751   1.630   6.282   6.011
   46ACC    H0O20752   1.513   6.443   5.698
   46ACC    H0P20753   1.618   6.459   5.838
   46ACC    H0Q20754   1.443   6.468   5.857
   47ACC    C0020755   4.742   3.281   2.169
   47ACC    C0120756   4.673   3.413   2.184
   47ACC    O0220757   4.644   3.483   2.087
   47ACC    O0320758   4.651   3.443   2.311
   47ACC    C0420759   4.628   3.577   2.347
   47ACC    C0520760   4.483   3.615   2.316
   47ACC    N0620761   4.458   3.761   2.319
   47ACC    C0720762   4.489   3.821   2.450
   47ACC    C0820763   4.532   3.832   2.213
   47ACC    C0920764   4.315   3.782   2.292
   47ACC    H0A20765   4.849   3.298   2.179
   47ACC    H0B20766   4.721   3.240   2.071
   47ACC    H0C20767   4.709   3.213   2.247
   47ACC    H0D20768   4.699   3.640   2.293
   47ACC    H0E20769   4.650   3.589   2.453
   47ACC    H0F20770   4.419   3.563   2.388
   47ACC    H0G20771   4.455   3.576   2.218
   47ACC    H0H20772   4.595   3.822   2.473
   47ACC    H0I20773   4.438   3.769   2.532
   47ACC    H0J20774   4.456   3.925   2.453
   47ACC    H0K20775   4.639   3.840   2.232
   47ACC    H0M20776   4.495   3.934   2.201
   47ACC    H0N20777   4.520   3.781   2.117
   47ACC    H0O20778   4.251   3.726   2.360
   47ACC    H0P20779   4.299   3.750   2.190
   47ACC    H0Q20780   4.286   3.887   2.297
   48ACC    C0020781   4.393   5.475   4.139
   48ACC    C0120782   4.476   5.369   4.202
   48ACC    O0220783   4.514   5.377   4.318
   48ACC    O0320784   4.496   5.268   4.120
   48ACC    C0420785   4.543   5.146   4.172
   48ACC    C0520786   4.436   5.099   4.270
   48ACC    N0620787   4.446   4.961   4.316
   48ACC    C0720788   4.435   4.865   4.203
   48ACC    C0820789   4.576   4.949   4.383
   48ACC    C0920790   4.337   4.940   4.415
   48ACC    H0A20791   4.390   5.569   4.192
   48ACC    H0B20792   4.295   5.440   4.127
   48ACC    H0C20793   4.427   5.498   4.040
   48ACC    H0D20794   4.638   5.161   4.222
   48ACC    H0E20795   4.560   5.078   4.089
   48ACC    H0F20796   4.340   5.112   4.227
   48ACC    H0G20797   4.438   5.162   4.359
   48ACC    H0H20798   4.519   4.871   4.133
   48ACC    H0I20799   4.343   4.878   4.147
   48ACC    H0J20800   4.432   4.763   4.237
   48ACC    H0K20801   4.656   4.939   4.312
   48ACC    H0M20802   4.578   4.866   4.453
   48ACC    H0N20803   4.602   5.038   4.440
   48ACC    H0O20804   4.245   4.905   4.367
   48ACC    H0P20805   4.314   5.027   4.475
   48ACC    H0Q20806   4.364   4.865   4.489
   49ACC    C0020807   1.273   6.038   3.304
   49ACC    C0120808   1.270   6.159   3.215
   49ACC    O0220809   1.340   6.258   3.238
   49ACC    O0320810   1.185   6.143   3.114
   49ACC    C0420811   1.171   6.248   3.021
   49ACC    C0520812   1.279   6.235   2.913
   49ACC    N0620813   1.344   6.363   2.875
   49ACC    C0720814   1.242   6.465   2.837
   49ACC    C0820815   1.428   6.412   2.986
   49ACC    C0920816   1.432   6.336   2.759
   49ACC    H0A20817   1.362   6.039   3.367
   49ACC    H0B20818   1.271   5.948   3.244
   49ACC    H0C20819   1.187   6.040   3.368
   49ACC    H0D20820   1.176   6.343   3.074
   49ACC    H0E20821   1.072   6.245   2.976
   49ACC    H0F20822   1.232   6.189   2.825
   49ACC    H0G20823   1.356   6.165   2.945
   49ACC    H0H20824   1.184   6.499   2.922
   49ACC    H0I20825   1.172   6.424   2.764
   49ACC    H0J20826   1.287   6.552   2.791
   49ACC    H0K20827   1.368   6.446   3.071
   49ACC    H0M20828   1.490   6.496   2.955
   49ACC    H0N20829   1.497   6.336   3.023
   49ACC    H0O20830   1.375   6.308   2.671
   49ACC    H0P20831   1.504   6.257   2.781
   49ACC    H0Q20832   1.492   6.424   2.732
   50ACC    C0020833   4.126   4.102   6.420
   50ACC    C0120834   4.104   4.033   6.290
   50ACC    O0220835   3.999   4.045   6.226
   50ACC    O0320836   4.209   3.958   6.257
   50ACC    C0420837   4.211   3.891   6.135
   50ACC    C0520838   4.246   3.988   6.023
   50ACC    N0620839   4.170   3.964   5.899
   50ACC    C0720840   4.184   3.823   5.858
   50ACC    C0820841   4.028   4.003   5.921
   50ACC    C0920842   4.224   4.054   5.794
   50ACC    H0A20843   4.031   4.121   6.468
   50ACC    H0B20844   4.177   4.196   6.401
   50ACC    H0C20845   4.188   4.038   6.482
   50ACC    H0D20846   4.113   3.848   6.120
   50ACC    H0E20847   4.282   3.809   6.139
   50ACC    H0F20848   4.353   3.984   6.005
   50ACC    H0G20849   4.226   4.089   6.057
   50ACC    H0H20850   4.281   3.783   5.886
   50ACC    H0I20851   4.176   3.812   5.750
   50ACC    H0J20852   4.109   3.759   5.906
   50ACC    H0K20853   3.975   3.933   5.985
   50ACC    H0M20854   3.972   4.015   5.829
   50ACC    H0N20855   4.022   4.100   5.972
   50ACC    H0O20856   4.327   4.028   5.767
   50ACC    H0P20857   4.226   4.158   5.828
   50ACC    H0Q20858   4.164   4.052   5.704
   51ACC    C0020859   4.583   4.521   2.443
   51ACC    C0120860   4.568   4.438   2.568
   51ACC    O0220861   4.665   4.378   2.615
   51ACC    O0320862   4.443   4.438   2.615
   51ACC    C0420863   4.414   4.360   2.728
   51ACC    C0520864   4.460   4.433   2.856
   51ACC    N0620865   4.467   4.347   2.977
   51ACC    C0720866   4.339   4.277   3.002
   51ACC    C0820867   4.578   4.249   2.966
   51ACC    C0920868   4.496   4.434   3.094
   51ACC    H0A20869   4.681   4.504   2.400
   51ACC    H0B20870   4.573   4.626   2.469
   51ACC    H0C20871   4.507   4.492   2.371
   51ACC    H0D20872   4.462   4.263   2.716
   51ACC    H0E20873   4.307   4.342   2.731
   51ACC    H0F20874   4.396   4.519   2.874
   51ACC    H0G20875   4.559   4.475   2.839
   51ACC    H0H20876   4.317   4.205   2.923
   51ACC    H0I20877   4.257   4.349   3.009
   51ACC    H0J20878   4.344   4.222   3.096
   51ACC    H0K20879   4.562   4.175   2.887
   51ACC    H0M20880   4.592   4.192   3.058
   51ACC    H0N20881   4.672   4.298   2.944
   51ACC    H0O20882   4.425   4.517   3.101
   51ACC    H0P20883   4.595   4.478   3.087
   51ACC    H0Q20884   4.491   4.379   3.188
   52ACC    C0020885   0.554   0.617   5.848
   52ACC    C0120886   0.594   0.726   5.944
   52ACC    O0220887   0.602   0.842   5.907
   52ACC    O0320888   0.613   0.681   6.068
   52ACC    C0420889   0.674   0.766   6.162
   52ACC    C0520890   0.579   0.875   6.213
   52ACC    N0620891   0.639   1.011   6.229
   52ACC    C0720892   0.740   1.008   6.337
   52ACC    C0820893   0.698   1.061   6.103
   52ACC    C0920894   0.532   1.105   6.268
   52ACC    H0A20895   0.600   0.633   5.751
   52ACC    H0B20896   0.447   0.620   5.837
   52ACC    H0C20897   0.586   0.520   5.886
   52ACC    H0D20898   0.768   0.803   6.120
   52ACC    H0E20899   0.699   0.703   6.247
   52ACC    H0F20900   0.540   0.842   6.309
   52ACC    H0G20901   0.493   0.879   6.149
   52ACC    H0H20902   0.817   0.933   6.319
   52ACC    H0I20903   0.694   0.983   6.433
   52ACC    H0J20904   0.790   1.104   6.348
   52ACC    H0K20905   0.790   1.009   6.075
   52ACC    H0M20906   0.723   1.167   6.110
   52ACC    H0N20907   0.629   1.053   6.019
   52ACC    H0O20908   0.474   1.068   6.353
   52ACC    H0P20909   0.462   1.123   6.187
   52ACC    H0Q20910   0.572   1.203   6.296
   53ACC    C0020911   0.043   1.165   0.341
   53ACC    C0120912   0.161   1.228   0.410
   53ACC    O0220913   0.152   1.270   0.524
   53ACC    O0320914   0.270   1.233   0.332
   53ACC    C0420915   0.385   1.303   0.377
   53ACC    C0520916   0.494   1.207   0.425
   53ACC    N0620917   0.526   1.216   0.570
   53ACC    C0720918   0.576   1.351   0.608
   53ACC    C0820919   0.410   1.182   0.655
   53ACC    C0920920   0.633   1.117   0.596
   53ACC    H0A20921   7.141   1.195   0.391
   53ACC    H0B20922   0.052   1.057   0.340
   53ACC    H0C20923   0.038   1.201   0.240
   53ACC    H0D20924   0.361   1.377   0.452
   53ACC    H0E20925   0.424   1.358   0.292
   53ACC    H0F20926   0.584   1.229   0.368
   53ACC    H0G20927   0.466   1.105   0.397
   53ACC    H0H20928   0.503   1.431   0.599
   53ACC    H0I20929   0.664   1.379   0.550
   53ACC    H0J20930   0.608   1.351   0.713
   53ACC    H0K20931   0.341   1.266   0.664
   53ACC    H0M20932   0.441   1.157   0.757
   53ACC    H0N20933   0.354   1.097   0.615
   53ACC    H0O20934   0.724   1.141   0.540
   53ACC    H0P20935   0.604   1.015   0.571
   53ACC    H0Q20936   0.664   1.117   0.701
   54ACC    C0020937   1.679   0.441   0.691
   54ACC    C0120938   1.635   0.583   0.669
   54ACC    O0220939   1.644   0.668   0.757
   54ACC    O0320940   1.591   0.601   0.546
   54ACC    C0420941   1.551   0.729   0.501
   54ACC    C0520942   1.675   0.815   0.475
   54ACC    N0620943   1.650   0.945   0.404
   54ACC    C0720944   1.535   0.940   0.309
   54ACC    C0820945   1.616   1.049   0.502
   54ACC    C0920946   1.774   0.980   0.329
   54ACC    H0A20947   1.724   0.430   0.790
   54ACC    H0B20948   1.754   0.415   0.617
   54ACC    H0C20949   1.594   0.374   0.682
   54ACC    H0D20950   1.481   0.775   0.571
   54ACC    H0E20951   1.497   0.709   0.408
   54ACC    H0F20952   1.745   0.752   0.421
   54ACC    H0G20953   1.733   0.830   0.566
   54ACC    H0H20954   1.439   0.925   0.357
   54ACC    H0I20955   1.545   0.858   0.240
   54ACC    H0J20956   1.527   1.028   0.246
   54ACC    H0K20957   1.520   1.027   0.547
   54ACC    H0M20958   1.606   1.148   0.459
   54ACC    H0N20959   1.692   1.057   0.579
   54ACC    H0O20960   1.774   0.940   0.229
   54ACC    H0P20961   1.863   0.939   0.376
   54ACC    H0Q20962   1.789   1.087   0.316
   55ACC    C0020963   6.461   4.392   5.789
   55ACC    C0120964   6.311   4.405   5.777
   55ACC    O0220965   6.256   4.450   5.677
   55ACC    O0320966   6.251   4.360   5.887
   55ACC    C0420967   6.111   4.365   5.892
   55ACC    C0520968   6.059   4.253   5.801
   55ACC    N0620969   5.912   4.235   5.803
   55ACC    C0720970   5.866   4.177   5.931
   55ACC    C0820971   5.840   4.361   5.772
   55ACC    C0920972   5.884   4.137   5.696
   55ACC    H0A20973   6.508   4.401   5.693
   55ACC    H0B20974   6.486   4.297   5.834
   55ACC    H0C20975   6.496   4.473   5.852
   55ACC    H0D20976   6.080   4.465   5.863
   55ACC    H0E20977   6.081   4.352   5.995
   55ACC    H0F20978   6.108   4.160   5.829
   55ACC    H0G20979   6.090   4.273   5.699
   55ACC    H0H20980   5.884   4.245   6.014
   55ACC    H0I20981   5.916   4.083   5.954
   55ACC    H0J20982   5.759   4.158   5.930
   55ACC    H0K20983   5.872   4.444   5.834
   55ACC    H0M20984   5.734   4.352   5.795
   55ACC    H0N20985   5.852   4.391   5.668
   55ACC    H0O20986   5.939   4.045   5.712
   55ACC    H0P20987   5.915   4.173   5.599
   55ACC    H0Q20988   5.777   4.115   5.690
   56ACC    C0020989   1.507   5.835   6.004
   56ACC    C0120990   1.365   5.877   6.006
   56ACC    O0220991   1.339   5.995   6.017
   56ACC    O0320992   1.277   5.778   5.994
   56ACC    C0420993   1.140   5.810   5.984
   56ACC    C0520994   1.120   5.872   5.846
   56ACC    N0620995   0.988   5.930   5.813
   56ACC    C0720996   0.885   5.824   5.797
   56ACC    C0820997   0.950   6.030   5.916
   56ACC    C0920998   1.002   6.003   5.685
   56ACC    H0A20999   1.569   5.922   5.996
   56ACC    H0B21000   1.526   5.772   5.917
   56ACC    H0C21001   1.528   5.786   6.098
   56ACC    H0D21002   1.113   5.878   6.065
   56ACC    H0E21003   1.080   5.720   5.997
   56ACC    H0F21004   1.151   5.798   5.773
   56ACC    H0G21005   1.191   5.954   5.835
   56ACC    H0H21006   0.811   5.832   5.876
   56ACC    H0I21007   0.925   5.723   5.809
   56ACC    H0J21008   0.832   5.829   5.702
   56ACC    H0K21009   0.931   5.985   6.013
   56ACC    H0M21010   0.862   6.087   5.887
   56ACC    H0N21011   1.031   6.101   5.930
   56ACC    H0O21012   1.038   5.939   5.605
   56ACC    H0P21013   1.076   6.083   5.691
   56ACC    H0Q21014   0.908   6.047   5.653
   57ACC    C0021015   2.285   0.556   2.181
   57ACC    C0121016   2.371   0.636   2.088
   57ACC    O0221017   2.405   0.752   2.112
   57ACC    O0321018   2.409   0.563   1.984
   57ACC    C0421019   2.506   0.615   1.899
   57ACC    C0521020   2.640   0.595   1.970
   57ACC    N0621021   2.754   0.652   1.896
   57ACC    C0721022   2.772   0.578   1.769
   57ACC    C0821023   2.734   0.797   1.869
   57ACC    C0921024   2.876   0.635   1.978
   57ACC    H0A21025   2.206   0.617   2.223
   57ACC    H0B21026   2.345   0.516   2.262
   57ACC    H0C21027   2.244   0.476   2.122
   57ACC    H0D21028   2.482   0.718   1.875
   57ACC    H0E21029   2.504   0.562   1.804
   57ACC    H0F21030   2.654   0.487   1.985
   57ACC    H0G21031   2.635   0.640   2.069
   57ACC    H0H21032   2.693   0.600   1.697
   57ACC    H0I21033   2.767   0.471   1.786
   57ACC    H0J21034   2.867   0.604   1.723
   57ACC    H0K21035   2.660   0.814   1.791
   57ACC    H0M21036   2.825   0.844   1.836
   57ACC    H0N21037   2.700   0.849   1.959
   57ACC    H0O21038   2.895   0.529   1.999
   57ACC    H0P21039   2.867   0.686   2.074
   57ACC    H0Q21040   2.964   0.676   1.927
   58ACC    C0021041   3.646   6.587   5.755
   58ACC    C0121042   3.498   6.580   5.725
   58ACC    O0221043   3.421   6.511   5.792
   58ACC    O0321044   3.466   6.658   5.623
   58ACC    C0421045   3.331   6.680   5.591
   58ACC    C0521046   3.269   6.771   5.698
   58ACC    N0621047   3.121   6.774   5.697
   58ACC    C0721048   3.071   6.826   5.568
   58ACC    C0821049   3.065   6.639   5.720
   58ACC    C0921050   3.077   6.864   5.806
   58ACC    H0A21051   3.673   6.518   5.834
   58ACC    H0B21052   3.672   6.687   5.788
   58ACC    H0C21053   3.703   6.565   5.666
   58ACC    H0D21054   3.283   6.583   5.580
   58ACC    H0E21055   3.325   6.731   5.496
   58ACC    H0F21056   3.310   6.871   5.681
   58ACC    H0G21057   3.305   6.742   5.796
   58ACC    H0H21058   3.099   6.758   5.488
   58ACC    H0I21059   3.114   6.922   5.540
   58ACC    H0J21060   2.962   6.836   5.565
   58ACC    H0K21061   3.078   6.573   5.635
   58ACC    H0M21062   2.958   6.642   5.740
   58ACC    H0N21063   3.114   6.590   5.805
   58ACC    H0O21064   3.118   6.964   5.793
   58ACC    H0P21065   3.111   6.826   5.902
   58ACC    H0Q21066   2.968   6.872   5.809
   59ACC    C0021067   2.186   6.532   6.146
   59ACC    C0121068   2.259   6.498   6.273
   59ACC    O0221069   2.369   6.444   6.272
   59ACC    O0321070   2.192   6.536   6.382
   59ACC    C0421071   2.252   6.518   6.508
   59ACC    C0521072   2.347   6.636   6.533
   59ACC    N0621073   2.435   6.622   6.652
   59ACC    C0721074   2.359   6.602   6.777
   59ACC    C0821075   2.528   6.508   6.638
   59ACC    C0921076   2.512   6.749   6.664
   59ACC    H0A21077   2.194   6.449   6.076
   59ACC    H0B21078   2.231   6.621   6.102
   59ACC    H0C21079   2.081   6.551   6.164
   59ACC    H0D21080   2.302   6.422   6.511
   59ACC    H0E21081   2.175   6.515   6.585
   59ACC    H0F21082   2.284   6.724   6.543
   59ACC    H0G21083   2.409   6.651   6.445
   59ACC    H0H21084   2.318   6.502   6.777
   59ACC    H0I21085   2.279   6.674   6.789
   59ACC    H0J21086   2.424   6.608   6.864
   59ACC    H0K21087   2.477   6.411   6.635
   59ACC    H0M21088   2.595   6.501   6.724
   59ACC    H0N21089   2.591   6.516   6.549
   59ACC    H0O21090   2.448   6.836   6.668
   59ACC    H0P21091   2.582   6.762   6.581
   59ACC    H0Q21092   2.572   6.750   6.755
   60ACC    C0021093   0.690   4.047   3.908
   60ACC    C0121094   0.676   4.109   3.771
   60ACC    O0221095   0.636   4.046   3.673
   60ACC    O0321096   0.720   4.232   3.768
   60ACC    C0421097   0.671   4.322   3.673
   60ACC    C0521098   0.644   4.449   3.753
   60ACC    N0621099   0.552   4.546   3.693
   60ACC    C0721100   0.600   4.592   3.559
   60ACC    C0821101   0.416   4.489   3.685
   60ACC    C0921102   0.549   4.659   3.788
   60ACC    H0A21103   0.597   3.998   3.934
   60ACC    H0B21104   0.706   4.126   3.981
   60ACC    H0C21105   0.773   3.978   3.913
   60ACC    H0D21106   0.581   4.285   3.626
   60ACC    H0E21107   0.746   4.339   3.596
   60ACC    H0F21108   0.737   4.501   3.773
   60ACC    H0G21109   0.605   4.419   3.851
   60ACC    H0H21110   0.603   4.511   3.486
   60ACC    H0I21111   0.700   4.634   3.563
   60ACC    H0J21112   0.535   4.667   3.515
   60ACC    H0K21113   0.404   4.430   3.594
   60ACC    H0M21114   0.339   4.565   3.683
   60ACC    H0N21115   0.392   4.425   3.770
   60ACC    H0O21116   0.645   4.709   3.798
   60ACC    H0P21117   0.518   4.626   3.888
   60ACC    H0Q21118   0.477   4.732   3.756
   61ACC    C0021119   2.865   0.893   5.568
   61ACC    C0121120   2.858   0.822   5.436
   61ACC    O0221121   2.885   0.704   5.424
   61ACC    O0321122   2.817   0.902   5.339
   61ACC    C0421123   2.830   0.861   5.205
   61ACC    C0521124   2.735   0.750   5.162
   61ACC    N0621125   2.773   0.684   5.035
   61ACC    C0721126   2.778   0.779   4.922
   61ACC    C0821127   2.901   0.609   5.046
   61ACC    C0921128   2.667   0.587   5.009
   61ACC    H0A21129   2.904   0.825   5.643
   61ACC    H0B21130   2.766   0.929   5.596
   61ACC    H0C21131   2.935   0.977   5.559
   61ACC    H0D21132   2.930   0.827   5.194
   61ACC    H0E21133   2.815   0.949   5.143
   61ACC    H0F21134   2.633   0.788   5.154
   61ACC    H0G21135   2.728   0.676   5.240
   61ACC    H0H21136   2.858   0.853   4.934
   61ACC    H0I21137   2.683   0.832   4.914
   61ACC    H0J21138   2.797   0.728   4.828
   61ACC    H0K21139   2.987   0.674   5.047
   61ACC    H0M21140   2.917   0.545   4.959
   61ACC    H0N21141   2.905   0.549   5.136
   61ACC    H0O21142   2.571   0.637   5.001
   61ACC    H0P21143   2.659   0.518   5.092
   61ACC    H0Q21144   2.686   0.530   4.918
   62ACC    C0021145   2.794   0.572   0.825
   62ACC    C0121146   2.862   0.620   0.950
   62ACC    O0221147   2.905   0.734   0.960
   62ACC    O0321148   2.861   0.527   1.045
   62ACC    C0421149   2.913   0.559   1.171
   62ACC    C0521150   2.810   0.641   1.251
   62ACC    N0621151   2.864   0.712   1.369
   62ACC    C0721152   2.948   0.621   1.448
   62ACC    C0821153   2.942   0.831   1.327
   62ACC    C0921154   2.751   0.759   1.452
   62ACC    H0A21155   2.802   0.647   0.747
   62ACC    H0B21156   2.689   0.554   0.847
   62ACC    H0C21157   2.841   0.481   0.790
   62ACC    H0D21158   3.008   0.612   1.158
   62ACC    H0E21159   2.934   0.466   1.224
   62ACC    H0F21160   2.731   0.573   1.281
   62ACC    H0G21161   2.762   0.715   1.188
   62ACC    H0H21162   3.042   0.599   1.397
   62ACC    H0I21163   2.895   0.528   1.466
   62ACC    H0J21164   2.974   0.664   1.544
   62ACC    H0K21165   3.028   0.806   1.265
   62ACC    H0M21166   2.978   0.887   1.414
   62ACC    H0N21167   2.878   0.898   1.269
   62ACC    H0O21168   2.686   0.678   1.484
   62ACC    H0P21169   2.687   0.826   1.395
   62ACC    H0Q21170   2.784   0.814   1.540
   63ACC    C0021171   6.610   6.397   3.267
   63ACC    C0121172   6.749   6.380   3.216
   63ACC    O0221173   6.842   6.395   3.292
   63ACC    O0321174   6.757   6.350   3.087
   63ACC    C0421175   6.883   6.350   3.019
   63ACC    C0521176   6.994   6.275   3.095
   63ACC    N0621177   7.077   6.182   3.015
   63ACC    C0721178   6.994   6.070   2.965
   63ACC    C0821179   7.145   6.250   2.903
   63ACC    C0921180   7.180   6.128   3.106
   63ACC    H0A21181   6.618   6.460   3.355
   63ACC    H0B21182   6.565   6.302   3.295
   63ACC    H0C21183   6.548   6.449   3.195
   63ACC    H0D21184   6.915   6.453   3.004
   63ACC    H0E21185   6.867   6.309   2.921
   63ACC    H0F21186   6.949   6.215   3.173
   63ACC    H0G21187   7.057   6.349   3.145
   63ACC    H0H21188   6.952   6.091   2.867
   63ACC    H0I21189   6.911   6.049   3.031
   63ACC    H0J21190   7.050   5.978   2.957
   63ACC    H0K21191   7.076   6.286   2.827
   63ACC    H0M21192   0.025   6.182   2.854
   63ACC    H0N21193   0.014   6.335   2.939
   63ACC    H0O21194   7.141   6.094   3.201
   63ACC    H0P21195   0.069   6.200   3.127
   63ACC    H0Q21196   0.037   6.041   3.064
   64ACC    C0021197   1.108   5.204   1.321
   64ACC    C0121198   1.029   5.088   1.267
   64ACC    O0221199   1.057   4.972   1.298
   64ACC    O0321200   0.929   5.128   1.188
   64ACC    C0421201   0.843   5.031   1.131
   64ACC    C0521202   0.744   4.988   1.240
   64ACC    N0621203   0.651   4.879   1.202
   64ACC    C0721204   0.555   4.928   1.100
   64ACC    C0821205   0.727   4.760   1.156
   64ACC    C0921206   0.571   4.835   1.318
   64ACC    H0A21207   1.211   5.173   1.337
   64ACC    H0B21208   1.066   5.236   1.416
   64ACC    H0C21209   1.106   5.287   1.251
   64ACC    H0D21210   0.902   4.948   1.092
   64ACC    H0E21211   0.792   5.076   1.046
   64ACC    H0F21212   0.688   5.076   1.269
   64ACC    H0G21213   0.800   4.955   1.327
   64ACC    H0H21214   0.604   4.970   1.014
   64ACC    H0I21215   0.490   5.006   1.140
   64ACC    H0J21216   0.491   4.848   1.065
   64ACC    H0K21217   0.766   4.773   1.055
   64ACC    H0M21218   0.666   4.671   1.157
   64ACC    H0N21219   0.810   4.739   1.223
   64ACC    H0O21220   0.505   4.913   1.356
   64ACC    H0P21221   0.634   4.798   1.400
   64ACC    H0Q21222   0.505   4.754   1.292
   65ACC    C0021223   6.224   1.806   1.051
   65ACC    C0121224   6.083   1.797   1.001
   65ACC    O0221225   5.987   1.769   1.072
   65ACC    O0321226   6.074   1.823   0.872
   65ACC    C0421227   5.949   1.800   0.812
   65ACC    C0521228   5.851   1.910   0.854
   65ACC    N0621229   5.716   1.901   0.792
   65ACC    C0721230   5.724   1.931   0.649
   65ACC    C0821231   5.652   1.767   0.804
   65ACC    C0921232   5.636   2.006   0.857
   65ACC    H0A21233   6.225   1.777   1.155
   65ACC    H0B21234   6.263   1.907   1.042
   65ACC    H0C21235   6.287   1.736   0.996
   65ACC    H0D21236   5.916   1.702   0.845
   65ACC    H0E21237   5.965   1.797   0.705
   65ACC    H0F21238   5.897   2.006   0.833
   65ACC    H0G21239   5.838   1.908   0.962
   65ACC    H0H21240   5.780   1.855   0.595
   65ACC    H0I21241   5.774   2.026   0.635
   65ACC    H0J21242   5.625   1.934   0.605
   65ACC    H0K21243   5.651   1.711   0.711
   65ACC    H0M21244   5.548   1.776   0.836
   65ACC    H0N21245   5.703   1.703   0.874
   65ACC    H0O21246   5.686   2.103   0.854
   65ACC    H0P21247   5.616   1.985   0.961
   65ACC    H0Q21248   5.542   2.017   0.805
   66ACC    C0021249   5.493   4.545   0.606
   66ACC    C0121250   5.604   4.617   0.679
   66ACC    O0221251   5.603   4.739   0.695
   66ACC    O0321252   5.697   4.532   0.722
   66ACC    C0421253   5.822   4.579   0.770
   66ACC    C0521254   5.825   4.593   0.924
   66ACC    N0621255   5.959   4.612   0.986
   66ACC    C0721256   6.044   4.491   0.972
   66ACC    C0821257   6.021   4.734   0.932
   66ACC    C0921258   5.946   4.633   1.133
   66ACC    H0A21259   5.406   4.609   0.594
   66ACC    H0B21260   5.461   4.457   0.660
   66ACC    H0C21261   5.528   4.513   0.508
   66ACC    H0D21262   5.849   4.673   0.721
   66ACC    H0E21263   5.893   4.505   0.736
   66ACC    H0F21264   5.785   4.502   0.967
   66ACC    H0G21265   5.760   4.676   0.952
   66ACC    H0H21266   6.041   4.447   0.873
   66ACC    H0I21267   6.012   4.409   1.037
   66ACC    H0J21268   6.148   4.513   0.995
   66ACC    H0K21269   6.038   4.729   0.825
   66ACC    H0M21270   6.117   4.757   0.978
   66ACC    H0N21271   5.957   4.820   0.948
   66ACC    H0O21272   5.928   4.541   1.188
   66ACC    H0P21273   5.865   4.701   1.158
   66ACC    H0Q21274   6.036   4.675   1.176
   67ACC    C0021275   4.774   2.999   7.181
   67ACC    C0121276   4.766   2.878   0.081
   67ACC    O0221277   4.667   2.804   0.081
   67ACC    O0321278   4.876   2.860   0.153
   67ACC    C0421279   4.889   2.743   0.231
   67ACC    C0521280   4.938   2.628   0.142
   67ACC    N0621281   4.889   2.493   0.178
   67ACC    C0721282   4.911   2.458   0.319
   67ACC    C0821283   4.745   2.476   0.148
   67ACC    C0921284   4.968   2.399   0.099
   67ACC    H0A21285   4.677   3.044   7.167
   67ACC    H0B21286   4.815   2.970   7.085
   67ACC    H0C21287   4.842   3.074   0.034
   67ACC    H0D21288   4.795   2.722   0.282
   67ACC    H0E21289   4.965   2.763   0.307
   67ACC    H0F21290   5.047   2.629   0.151
   67ACC    H0G21291   4.917   2.648   0.037
   67ACC    H0H21292   4.858   2.526   0.384
   67ACC    H0I21293   5.016   2.462   0.340
   67ACC    H0J21294   4.879   2.356   0.341
   67ACC    H0K21295   4.681   2.545   0.201
   67ACC    H0M21296   4.712   2.374   0.170
   67ACC    H0N21297   4.727   2.490   0.043
   67ACC    H0O21298   5.075   2.416   0.110
   67ACC    H0P21299   4.942   2.405   7.184
   67ACC    H0Q21300   4.948   2.297   0.128
   68ACC    C0021301   4.733   3.986   0.632
   68ACC    C0121302   4.652   3.945   0.751
   68ACC    O0221303   4.562   3.861   0.743
   68ACC    O0321304   4.692   4.008   0.861
   68ACC    C0421305   4.612   4.001   0.977
   68ACC    C0521306   4.629   3.862   1.042
   68ACC    N0621307   4.556   3.847   1.170
   68ACC    C0721308   4.610   3.939   1.273
   68ACC    C0821309   4.414   3.879   1.155
   68ACC    C0921310   4.566   3.704   1.210
   68ACC    H0A21311   4.668   3.984   0.544
   68ACC    H0B21312   4.817   3.919   0.617
   68ACC    H0C21313   4.768   4.088   0.646
   68ACC    H0D21314   4.509   4.021   0.948
   68ACC    H0E21315   4.644   4.080   1.044
   68ACC    H0F21316   4.735   3.843   1.058
   68ACC    H0G21317   4.595   3.785   0.973
   68ACC    H0H21318   4.578   4.042   1.259
   68ACC    H0I21319   4.719   3.939   1.272
   68ACC    H0J21320   4.579   3.908   1.373
   68ACC    H0K21321   4.394   3.983   1.127
   68ACC    H0M21322   4.365   3.868   1.252
   68ACC    H0N21323   4.367   3.816   1.080
   68ACC    H0O21324   4.669   3.669   1.205
   68ACC    H0P21325   4.510   3.637   1.145
   68ACC    H0Q21326   4.533   3.687   1.312
   69ACC    C0021327   4.306   6.095   6.251
   69ACC    C0121328   4.162   6.055   6.241
   69ACC    O0221329   4.087   6.059   6.339
   69ACC    O0321330   4.128   6.019   6.118
   69ACC    C0421331   3.999   5.967   6.096
   69ACC    C0521332   3.903   6.084   6.070
   69ACC    N0621333   3.758   6.050   6.072
   69ACC    C0721334   3.727   5.950   5.969
   69ACC    C0821335   3.714   6.003   6.206
   69ACC    C0921336   3.680   6.170   6.037
   69ACC    H0A21337   4.325   6.146   6.345
   69ACC    H0B21338   4.336   6.161   6.170
   69ACC    H0C21339   4.369   6.006   6.248
   69ACC    H0D21340   3.970   5.906   6.181
   69ACC    H0E21341   4.005   5.899   6.011
   69ACC    H0F21342   3.928   6.128   5.973
   69ACC    H0G21343   3.920   6.163   6.142
   69ACC    H0H21344   3.791   5.864   5.985
   69ACC    H0I21345   3.748   5.987   5.868
   69ACC    H0J21346   3.624   5.916   5.974
   69ACC    H0K21347   3.763   5.910   6.236
   69ACC    H0M21348   3.607   5.981   6.207
   69ACC    H0N21349   3.735   6.077   6.282
   69ACC    H0O21350   3.704   6.205   5.938
   69ACC    H0P21351   3.706   6.251   6.104
   69ACC    H0Q21352   3.572   6.154   6.042
   70ACC    C0021353   4.225   5.036   3.922
   70ACC    C0121354   4.180   5.087   4.056
   70ACC    O0221355   4.136   5.012   4.143
   70ACC    O0321356   4.199   5.218   4.070
   70ACC    C0421357   4.118   5.290   4.161
   70ACC    C0521358   4.148   5.276   4.309
   70ACC    N0621359   4.044   5.342   4.393
   70ACC    C0721360   4.018   5.482   4.347
   70ACC    C0821361   3.915   5.269   4.390
   70ACC    C0921362   4.091   5.333   4.532
   70ACC    H0A21363   4.174   4.943   3.898
   70ACC    H0B21364   4.332   5.020   3.920
   70ACC    H0C21365   4.197   5.110   3.847
   70ACC    H0D21366   4.020   5.255   4.154
   70ACC    H0E21367   4.105   5.391   4.124
   70ACC    H0F21368   4.246   5.316   4.329
   70ACC    H0G21369   4.151   5.170   4.334
   70ACC    H0H21370   3.957   5.483   4.257
   70ACC    H0I21371   4.105   5.540   4.322
   70ACC    H0J21372   3.964   5.541   4.418
   70ACC    H0K21373   3.856   5.290   4.301
   70ACC    H0M21374   3.848   5.296   4.472
   70ACC    H0N21375   3.930   5.161   4.396
   70ACC    H0O21376   4.175   5.397   4.552
   70ACC    H0P21377   4.118   5.231   4.556
   70ACC    H0Q21378   4.012   5.361   4.600
   71ACC    C0021379   2.573   7.099   6.010
   71ACC    C0121380   2.672   0.009   5.960
   71ACC    O0221381   2.663   0.128   5.986
   71ACC    O0321382   2.772   7.141   5.897
   71ACC    C0421383   2.888   0.029   5.883
   71ACC    C0521384   2.952   0.031   6.024
   71ACC    N0621385   3.041   0.147   6.049
   71ACC    C0721386   3.130   0.166   5.933
   71ACC    C0821387   2.963   0.272   6.072
   71ACC    C0921388   3.120   0.117   6.170
   71ACC    H0A21389   2.504   7.151   6.077
   71ACC    H0B21390   2.621   7.019   6.066
   71ACC    H0C21391   2.523   7.057   5.924
   71ACC    H0D21392   2.862   0.128   5.846
   71ACC    H0E21393   2.952   7.173   5.808
   71ACC    H0F21394   3.005   7.127   6.038
   71ACC    H0G21395   2.877   0.032   6.103
   71ACC    H0H21396   3.076   0.213   5.851
   71ACC    H0I21397   3.172   0.071   5.903
   71ACC    H0J21398   3.213   0.232   5.955
   71ACC    H0K21399   2.899   0.299   5.988
   71ACC    H0M21400   3.031   0.356   6.089
   71ACC    H0N21401   2.898   0.264   6.159
   71ACC    H0O21402   3.186   0.032   6.156
   71ACC    H0P21403   3.056   0.097   6.256
   71ACC    H0Q21404   3.183   0.202   6.197
   72ACC    C0021405   6.252   4.697   6.707
   72ACC    C0121406   6.212   4.574   6.785
   72ACC    O0221407   6.274   4.540   6.883
   72ACC    O0321408   6.100   4.517   6.742
   72ACC    C0421409   6.052   4.403   6.812
   72ACC    C0521410   6.018   4.433   6.959
   72ACC    N0621411   6.041   4.319   7.051
   72ACC    C0721412   5.941   4.214   7.020
   72ACC    C0821413   6.178   4.262   7.042
   72ACC    C0921414   6.023   4.367   7.189
   72ACC    H0A21415   6.240   4.784   6.770
   72ACC    H0B21416   6.193   4.707   6.616
   72ACC    H0C21417   6.358   4.687   6.682
   72ACC    H0D21418   6.127   4.326   6.802
   72ACC    H0E21419   5.964   4.362   6.762
   72ACC    H0F21420   5.914   4.463   6.963
   72ACC    H0G21421   6.073   4.518   6.998
   72ACC    H0H21422   5.972   4.150   6.938
   72ACC    H0I21423   5.845   4.254   6.990
   72ACC    H0J21424   5.923   4.151   7.106
   72ACC    H0K21425   6.191   4.198   6.955
   72ACC    H0M21426   6.201   4.198   7.127
   72ACC    H0N21427   6.254   4.340   7.037
   72ACC    H0O21428   5.921   4.400   0.018
   72ACC    H0P21429   6.088   4.451   0.022
   72ACC    H0Q21430   6.044   4.288   0.071
   73ACC    C0021431   4.332   2.279   6.562
   73ACC    C0121432   4.417   2.393   6.611
   73ACC    O0221433   4.368   2.502   6.641
   73ACC    O0321434   4.547   2.362   6.617
   73ACC    C0421435   4.637   2.459   6.663
   73ACC    C0521436   4.633   2.473   6.816
   73ACC    N0621437   4.645   2.612   6.864
   73ACC    C0721438   4.757   2.682   6.800
   73ACC    C0821439   4.519   2.687   6.842
   73ACC    C0921440   4.673   2.610   7.008
   73ACC    H0A21441   4.249   2.319   6.505
   73ACC    H0B21442   4.295   2.222   6.647
   73ACC    H0C21443   4.390   2.215   6.495
   73ACC    H0D21444   4.613   2.552   6.614
   73ACC    H0E21445   4.739   2.435   6.632
   73ACC    H0F21446   4.715   2.413   6.857
   73ACC    H0G21447   4.542   2.429   6.858
   73ACC    H0H21448   4.746   2.696   6.692
   73ACC    H0I21449   4.849   2.625   6.812
   73ACC    H0J21450   4.768   2.781   6.842
   73ACC    H0K21451   4.497   2.698   6.736
   73ACC    H0M21452   4.524   2.787   6.884
   73ACC    H0N21453   4.434   2.635   6.886
   73ACC    H0O21454   4.765   2.554   7.029
   73ACC    H0P21455   4.592   2.561   7.063
   73ACC    H0Q21456   4.686   2.710   7.048
   74ACC    C0021457   2.836   0.172   0.587
   74ACC    C0121458   2.749   0.188   0.465
   74ACC    O0221459   2.643   0.128   0.451
   74ACC    O0321460   2.803   0.273   0.381
   74ACC    C0421461   2.735   0.308   0.264
   74ACC    C0521462   2.826   0.414   0.202
   74ACC    N0621463   2.774   0.484   0.081
   74ACC    C0721464   2.782   0.396   7.153
   74ACC    C0821465   2.634   0.529   0.099
   74ACC    C0921466   2.860   0.603   0.060
   74ACC    H0A21467   2.777   0.129   0.667
   74ACC    H0B21468   2.874   0.269   0.617
   74ACC    H0C21469   2.920   0.107   0.564
   74ACC    H0D21470   2.638   0.347   0.292
   74ACC    H0E21471   2.720   0.221   0.200
   74ACC    H0F21472   2.923   0.369   0.181
   74ACC    H0G21473   2.846   0.487   0.280
   74ACC    H0H21474   2.722   0.306   7.167
   74ACC    H0I21475   2.884   0.364   7.135
   74ACC    H0J21476   2.747   0.444   7.061
   74ACC    H0K21477   2.565   0.445   0.103
   74ACC    H0M21478   2.602   0.593   0.017
   74ACC    H0N21479   2.624   0.586   0.192
   74ACC    H0O21480   2.965   0.575   0.050
   74ACC    H0P21481   2.854   0.671   0.146
   74ACC    H0Q21482   2.830   0.659   7.163
   75ACC    C0021483   5.738   2.483   0.947
   75ACC    C0121484   5.825   2.397   0.860
   75ACC    O0221485   5.778   2.316   0.780
   75ACC    O0321486   5.955   2.421   0.881
   75ACC    C0421487   6.051   2.345   0.811
   75ACC    C0521488   6.075   2.411   0.674
   75ACC    N0621489   6.099   2.315   0.563
   75ACC    C0721490   6.212   2.221   0.588
   75ACC    C0821491   5.977   2.237   0.542
   75ACC    C0921492   6.122   2.389   0.437
   75ACC    H0A21493   5.634   2.452   0.939
   75ACC    H0B21494   5.747   2.587   0.917
   75ACC    H0C21495   5.770   2.474   1.051
   75ACC    H0D21496   6.018   2.241   0.806
   75ACC    H0E21497   6.143   2.343   0.868
   75ACC    H0F21498   6.159   2.479   0.684
   75ACC    H0G21499   5.989   2.473   0.648
   75ACC    H0H21500   6.197   2.160   0.678
   75ACC    H0I21501   6.307   2.273   0.599
   75ACC    H0J21502   6.221   2.149   0.507
   75ACC    H0K21503   5.963   2.158   0.616
   75ACC    H0M21504   5.989   2.186   0.446
   75ACC    H0N21505   5.887   2.298   0.538
   75ACC    H0O21506   6.209   2.454   0.444
   75ACC    H0P21507   6.035   2.450   0.410
   75ACC    H0Q21508   6.139   2.320   0.354
   76ACC    C0021509   2.580   0.504   6.211
   76ACC    C0121510   2.533   0.376   6.147
   76ACC    O0221511   2.536   0.269   6.207
   76ACC    O0321512   2.495   0.396   6.022
   76ACC    C0421513   2.432   0.296   5.946
   76ACC    C0521514   2.306   0.359   5.888
   76ACC    N0621515   2.225   0.273   5.797
   76ACC    C0721516   2.302   0.179   5.714
   76ACC    C0821517   2.121   0.199   5.870
   76ACC    C0921518   2.151   0.362   5.709
   76ACC    H0A21519   2.596   0.490   6.318
   76ACC    H0B21520   2.503   0.580   6.196
   76ACC    H0C21521   2.672   0.537   6.164
   76ACC    H0D21522   2.412   0.206   6.004
   76ACC    H0E21523   2.501   0.267   5.867
   76ACC    H0F21524   2.336   0.450   5.837
   76ACC    H0G21525   2.244   0.397   5.971
   76ACC    H0H21526   2.362   0.111   5.773
   76ACC    H0I21527   2.367   0.229   5.643
   76ACC    H0J21528   2.234   0.117   5.655
   76ACC    H0K21529   2.163   0.124   5.932
   76ACC    H0M21530   2.057   0.141   5.804
   76ACC    H0N21531   2.058   0.263   5.932
   76ACC    H0O21532   2.213   0.414   5.637
   76ACC    H0P21533   2.101   0.438   5.769
   76ACC    H0Q21534   2.077   0.307   5.651
   77ACC    C0021535   6.909   6.560   0.106
   77ACC    C0121536   6.844   6.466   0.007
   77ACC    O0221537   6.736   6.415   0.031
   77ACC    O0321538   6.916   6.451   7.086
   77ACC    C0421539   6.863   6.386   6.972
   77ACC    C0521540   6.760   6.476   6.906
   77ACC    N0621541   6.629   6.420   6.867
   77ACC    C0721542   6.648   6.317   6.763
   77ACC    C0821543   6.551   6.379   6.985
   77ACC    C0921544   6.550   6.527   6.805
   77ACC    H0A21545   6.926   6.511   0.201
   77ACC    H0B21546   6.845   6.646   0.119
   77ACC    H0C21547   7.003   6.596   0.066
   77ACC    H0D21548   6.826   6.290   6.998
   77ACC    H0E21549   6.944   6.369   6.900
   77ACC    H0F21550   6.809   6.514   6.817
   77ACC    H0G21551   6.742   6.557   6.977
   77ACC    H0H21552   6.716   6.237   6.790
   77ACC    H0I21553   6.691   6.363   6.675
   77ACC    H0J21554   6.555   6.278   6.725
   77ACC    H0K21555   6.605   6.310   7.048
   77ACC    H0M21556   6.456   6.335   6.958
   77ACC    H0N21557   6.532   6.464   7.051
   77ACC    H0O21558   6.593   6.563   6.713
   77ACC    H0P21559   6.541   6.610   6.874
   77ACC    H0Q21560   6.449   6.495   6.780
   78ACC    C0021561   0.151   2.872   0.857
   78ACC    C0121562   0.009   2.887   0.811
   78ACC    O0221563   7.118   2.956   0.872
   78ACC    O0321564   7.172   2.817   0.703
   78ACC    C0421565   7.038   2.795   0.670
   78ACC    C0521566   6.968   2.922   0.618
   78ACC    N0621567   6.820   2.925   0.640
   78ACC    C0721568   6.758   2.789   0.639
   78ACC    C0821569   6.788   2.995   0.766
   78ACC    C0921570   6.756   3.001   0.531
   78ACC    H0A21571   0.180   2.953   0.923
   78ACC    H0B21572   0.215   2.876   0.769
   78ACC    H0C21573   0.166   2.777   0.907
   78ACC    H0D21574   6.992   2.756   0.761
   78ACC    H0E21575   7.034   2.716   0.596
   78ACC    H0F21576   6.993   2.926   0.513
   78ACC    H0G21577   7.015   3.013   0.658
   78ACC    H0H21578   6.787   2.729   0.725
   78ACC    H0I21579   6.783   2.734   0.548
   78ACC    H0J21580   6.649   2.795   0.648
   78ACC    H0K21581   6.830   2.943   0.851
   78ACC    H0M21582   6.681   3.000   0.784
   78ACC    H0N21583   6.829   3.095   0.772
   78ACC    H0O21584   6.785   2.964   0.433
   78ACC    H0P21585   6.777   3.107   0.537
   78ACC    H0Q21586   6.648   2.991   0.541
   79ACC    C0021587   1.509   3.920   3.802
   79ACC    C0121588   1.363   3.904   3.769
   79ACC    O0221589   1.282   3.882   3.858
   79ACC    O0321590   1.339   3.904   3.639
   79ACC    C0421591   1.214   3.870   3.583
   79ACC    C0521592   1.148   3.992   3.521
   79ACC    N0621593   1.001   3.994   3.541
   79ACC    C0721594   0.931   3.874   3.490
   79ACC    C0821595   0.972   4.015   3.685
   79ACC    C0921596   0.949   4.109   3.466
   79ACC    H0A21597   1.550   3.823   3.828
   79ACC    H0B21598   1.515   3.987   3.887
   79ACC    H0C21599   1.563   3.963   3.718
   79ACC    H0D21600   1.153   3.821   3.657
   79ACC    H0E21601   1.228   3.795   3.504
   79ACC    H0F21602   1.171   3.995   3.414
   79ACC    H0G21603   1.191   4.081   3.565
   79ACC    H0H21604   0.982   3.781   3.510
   79ACC    H0I21605   0.921   3.881   3.382
   79ACC    H0J21606   0.828   3.868   3.525
   79ACC    H0K21607   1.047   3.974   3.753
   79ACC    H0M21608   0.878   3.971   3.713
   79ACC    H0N21609   0.970   4.121   3.710
   79ACC    H0O21610   0.965   4.100   3.358
   79ACC    H0P21611   0.994   4.204   3.496
   79ACC    H0Q21612   0.842   4.117   3.482
   80ACC    C0021613   6.576   3.960   0.333
   80ACC    C0121614   6.562   4.095   0.272
   80ACC    O0221615   6.509   4.112   0.162
   80ACC    O0321616   6.602   4.190   0.355
   80ACC    C0421617   6.559   4.321   0.331
   80ACC    C0521618   6.411   4.318   0.370
   80ACC    N0621619   6.329   4.431   0.321
   80ACC    C0721620   6.375   4.556   0.385
   80ACC    C0821621   6.335   4.445   0.175
   80ACC    C0921622   6.190   4.396   0.359
   80ACC    H0A21623   6.614   3.894   0.256
   80ACC    H0B21624   6.479   3.923   0.366
   80ACC    H0C21625   6.645   3.962   0.417
   80ACC    H0D21626   6.578   4.348   0.227
   80ACC    H0E21627   6.616   4.390   0.392
   80ACC    H0F21628   6.406   4.316   0.479
   80ACC    H0G21629   6.362   4.227   0.336
   80ACC    H0H21630   6.471   4.590   0.346
   80ACC    H0I21631   6.388   4.545   0.492
   80ACC    H0J21632   6.304   4.637   0.368
   80ACC    H0K21633   6.430   4.488   0.143
   80ACC    H0M21634   6.259   4.516   0.142
   80ACC    H0N21635   6.321   4.351   0.123
   80ACC    H0O21636   6.184   4.350   0.458
   80ACC    H0P21637   6.141   4.328   0.290
   80ACC    H0Q21638   6.129   4.485   0.368
   81ACC    C0021639   4.074   6.664   1.495
   81ACC    C0121640   4.032   6.521   1.475
   81ACC    O0221641   4.013   6.445   1.570
   81ACC    O0321642   4.011   6.494   1.347
   81ACC    C0421643   3.972   6.364   1.312
   81ACC    C0521644   3.822   6.348   1.345
   81ACC    N0621645   3.783   6.213   1.389
   81ACC    C0721646   3.812   6.114   1.283
   81ACC    C0821647   3.853   6.175   1.514
   81ACC    C0921648   3.637   6.218   1.414
   81ACC    H0A21649   4.074   6.686   1.601
   81ACC    H0B21650   4.002   6.729   1.447
   81ACC    H0C21651   4.174   6.680   1.455
   81ACC    H0D21652   4.037   6.294   1.364
   81ACC    H0E21653   3.990   6.347   1.206
   81ACC    H0F21654   3.763   6.377   1.258
   81ACC    H0G21655   3.795   6.418   1.423
   81ACC    H0H21656   3.916   6.116   1.249
   81ACC    H0I21657   3.750   6.130   1.195
   81ACC    H0J21658   3.795   6.012   1.317
   81ACC    H0K21659   3.959   6.154   1.499
   81ACC    H0M21660   3.811   6.085   1.557
   81ACC    H0N21661   3.847   6.254   1.588
   81ACC    H0O21662   3.579   6.224   1.322
   81ACC    H0P21663   3.609   6.305   1.475
   81ACC    H0Q21664   3.602   6.131   1.468
   82ACC    C0021665   4.322   6.765   5.685
   82ACC    C0121666   4.317   6.829   5.548
   82ACC    O0221667   4.340   6.948   5.529
   82ACC    O0321668   4.280   6.741   5.456
   82ACC    C0421669   4.262   6.779   5.322
   82ACC    C0521670   4.386   6.756   5.237
   82ACC    N0621671   4.428   6.871   5.154
   82ACC    C0721672   4.321   6.917   5.062
   82ACC    C0821673   4.469   6.980   5.244
   82ACC    C0921674   4.543   6.831   5.070
   82ACC    H0A21675   4.333   6.841   5.762
   82ACC    H0B21676   4.406   6.697   5.690
   82ACC    H0C21677   4.230   6.708   5.702
   82ACC    H0D21678   4.218   6.878   5.315
   82ACC    H0E21679   4.193   6.705   5.285
   82ACC    H0F21680   4.367   6.667   5.175
   82ACC    H0G21681   4.465   6.727   5.304
   82ACC    H0H21682   4.238   6.963   5.116
   82ACC    H0I21683   4.282   6.834   5.004
   82ACC    H0J21684   4.359   6.993   4.994
   82ACC    H0K21685   4.385   7.017   5.299
   82ACC    H0M21686   4.519   7.062   5.193
   82ACC    H0N21687   4.535   6.942   5.321
   82ACC    H0O21688   4.519   6.749   5.003
   82ACC    H0P21689   4.625   6.798   5.133
   82ACC    H0Q21690   4.582   6.914   5.011
   83ACC    C0021691   2.491   1.098   0.229
   83ACC    C0121692   2.369   1.106   0.317
   83ACC    O0221693   2.265   1.048   0.288
   83ACC    O0321694   2.394   1.175   0.428
   83ACC    C0421695   2.297   1.257   0.488
   83ACC    C0521696   2.172   1.184   0.539
   83ACC    N0621697   2.043   1.241   0.490
   83ACC    C0721698   2.019   1.379   0.536
   83ACC    C0821699   2.032   1.236   0.343
   83ACC    C0921700   1.936   1.163   0.552
   83ACC    H0A21701   2.462   1.059   0.132
   83ACC    H0B21702   2.568   1.036   0.275
   83ACC    H0C21703   2.529   1.199   0.214
   83ACC    H0D21704   2.274   1.340   0.421
   83ACC    H0E21705   2.345   1.306   0.572
   83ACC    H0F21706   2.176   1.190   0.648
   83ACC    H0G21707   2.179   1.078   0.516
   83ACC    H0H21708   2.106   1.437   0.514
   83ACC    H0I21709   2.003   1.385   0.643
   83ACC    H0J21710   1.931   1.424   0.490
   83ACC    H0K21711   2.110   1.294   0.292
   83ACC    H0M21712   1.938   1.277   0.307
   83ACC    H0N21713   2.041   1.135   0.304
   83ACC    H0O21714   1.944   1.165   0.661
   83ACC    H0P21715   1.944   1.060   0.522
   83ACC    H0Q21716   1.839   1.204   0.523
   84ACC    C0021717   3.578   6.518   6.114
   84ACC    C0121718   3.659   6.495   6.238
   84ACC    O0221719   3.667   6.384   6.291
   84ACC    O0321720   3.722   6.606   6.279
   84ACC    C0421721   3.821   6.595   6.378
   84ACC    C0521722   3.950   6.549   6.310
   84ACC    N0621723   4.044   6.470   6.394
   84ACC    C0721724   4.069   6.532   6.526
   84ACC    C0821725   3.990   6.333   6.407
   84ACC    C0921726   4.172   6.462   6.319
   84ACC    H0A21727   3.558   6.425   6.062
   84ACC    H0B21728   3.635   6.582   6.047
   84ACC    H0C21729   3.484   6.567   6.138
   84ACC    H0D21730   3.787   6.526   6.452
   84ACC    H0E21731   3.834   6.692   6.425
   84ACC    H0F21732   4.000   6.634   6.267
   84ACC    H0G21733   3.924   6.490   6.223
   84ACC    H0H21734   3.981   6.534   6.589
   84ACC    H0I21735   4.103   6.635   6.517
   84ACC    H0J21736   4.146   6.477   6.581
   84ACC    H0K21737   3.891   6.329   6.451
   84ACC    H0M21738   4.056   6.269   6.466
   84ACC    H0N21739   3.980   6.288   6.309
   84ACC    H0O21740   4.221   6.560   6.313
   84ACC    H0P21741   4.156   6.429   6.216
   84ACC    H0Q21742   4.243   6.393   6.365
   85ACC    C0021743   5.147   6.954   6.167
   85ACC    C0121744   5.155   7.104   6.171
   85ACC    O0221745   5.203   7.170   6.079
   85ACC    O0321746   5.103   7.152   6.284
   85ACC    C0421747   5.107   0.100   6.309
   85ACC    C0521748   4.991   0.166   6.232
   85ACC    N0621749   4.969   0.310   6.263
   85ACC    C0721750   4.952   0.332   6.408
   85ACC    C0821751   5.080   0.394   6.213
   85ACC    C0921752   4.846   0.353   6.194
   85ACC    H0A21753   5.194   6.918   6.077
   85ACC    H0B21754   5.042   6.924   6.168
   85ACC    H0C21755   5.198   6.913   6.254
   85ACC    H0D21756   5.204   0.142   6.283
   85ACC    H0E21757   5.095   0.109   6.417
   85ACC    H0F21758   4.901   0.109   6.254
   85ACC    H0G21759   5.008   0.153   6.125
   85ACC    H0H21760   5.048   0.321   6.458
   85ACC    H0I21761   4.880   0.264   6.453
   85ACC    H0J21762   4.920   0.434   6.427
   85ACC    H0K21763   5.176   0.371   6.260
   85ACC    H0M21764   5.063   0.500   6.232
   85ACC    H0N21765   5.089   0.385   6.106
   85ACC    H0O21766   4.757   0.303   6.232
   85ACC    H0P21767   4.852   0.331   6.087
   85ACC    H0Q21768   4.830   0.461   6.204
   86ACC    C0021769   5.518   6.274   2.185
   86ACC    C0121770   5.377   6.242   2.229
   86ACC    O0221771   5.316   6.317   2.306
   86ACC    O0321772   5.330   6.129   2.176
   86ACC    C0421773   5.203   6.088   2.219
   86ACC    C0521774   5.146   5.974   2.136
   86ACC    N0621775   5.001   5.943   2.154
   86ACC    C0721776   4.973   5.864   2.276
   86ACC    C0821777   4.917   6.064   2.151
   86ACC    C0921778   4.956   5.859   2.041
   86ACC    H0A21779   5.518   6.300   2.079
   86ACC    H0B21780   5.581   6.186   2.201
   86ACC    H0C21781   5.559   6.355   2.244
   86ACC    H0D21782   5.138   6.175   2.218
   86ACC    H0E21783   5.219   6.055   2.321
   86ACC    H0F21784   5.207   5.887   2.162
   86ACC    H0G21785   5.165   5.997   2.032
   86ACC    H0H21786   5.006   5.916   2.364
   86ACC    H0I21787   5.026   5.769   2.275
   86ACC    H0J21788   4.867   5.844   2.288
   86ACC    H0K21789   4.925   6.124   2.242
   86ACC    H0M21790   4.811   6.041   2.138
   86ACC    H0N21791   4.945   6.127   2.067
   86ACC    H0O21792   5.013   5.767   2.034
   86ACC    H0P21793   4.963   5.915   1.948
   86ACC    H0Q21794   4.850   5.832   2.049
   87ACC    C0021795   4.624   6.746   1.098
   87ACC    C0121796   4.568   6.778   0.963
   87ACC    O0221797   4.597   6.713   0.863
   87ACC    O0321798   4.481   6.879   0.969
   87ACC    C0421799   4.402   6.902   0.856
   87ACC    C0521800   4.281   6.807   0.867
   87ACC    N0621801   4.236   6.748   0.738
   87ACC    C0721802   4.238   6.847   0.628
   87ACC    C0821803   4.324   6.632   0.705
   87ACC    C0921804   4.097   6.701   0.760
   87ACC    H0A21805   4.721   6.698   1.086
   87ACC    H0B21806   4.557   6.679   1.151
   87ACC    H0C21807   4.636   6.838   1.154
   87ACC    H0D21808   4.461   6.887   0.766
   87ACC    H0E21809   4.369   7.005   0.856
   87ACC    H0F21810   4.201   6.867   0.910
   87ACC    H0G21811   4.300   6.726   0.938
   87ACC    H0H21812   4.337   6.862   0.586
   87ACC    H0I21813   4.207   6.943   0.666
   87ACC    H0J21814   4.171   6.820   0.547
   87ACC    H0K21815   4.428   6.662   0.694
   87ACC    H0M21816   4.295   6.584   0.612
   87ACC    H0N21817   4.322   6.556   0.783
   87ACC    H0O21818   4.027   6.782   0.775
   87ACC    H0P21819   4.090   6.640   0.849
   87ACC    H0Q21820   4.063   6.638   0.679
   88ACC    C0021821   1.844   2.287   3.945
   88ACC    C0121822   1.698   2.283   3.979
   88ACC    O0221823   1.660   2.285   4.095
   88ACC    O0321824   1.623   2.268   3.869
   88ACC    C0421825   1.488   2.229   3.879
   88ACC    C0521826   1.410   2.314   3.779
   88ACC    N0621827   1.262   2.320   3.802
   88ACC    C0721828   1.195   2.212   3.726
   88ACC    C0821829   1.218   2.307   3.942
   88ACC    C0921830   1.213   2.451   3.754
   88ACC    H0A21831   1.903   2.337   4.021
   88ACC    H0B21832   1.854   2.336   3.849
   88ACC    H0C21833   1.882   2.188   3.936
   88ACC    H0D21834   1.454   2.240   3.982
   88ACC    H0E21835   1.478   2.124   3.854
   88ACC    H0F21836   1.432   2.280   3.677
   88ACC    H0G21837   1.453   2.414   3.778
   88ACC    H0H21838   1.229   2.113   3.758
   88ACC    H0I21839   1.212   2.222   3.619
   88ACC    H0J21840   1.087   2.217   3.740
   88ACC    H0K21841   1.230   2.204   3.979
   88ACC    H0M21842   1.113   2.331   3.956
   88ACC    H0N21843   1.272   2.370   4.012
   88ACC    H0O21844   1.241   2.466   3.650
   88ACC    H0P21845   1.252   2.535   3.811
   88ACC    H0Q21846   1.105   2.457   3.759
   89ACC    C0021847   0.037   2.106   3.010
   89ACC    C0121848   0.031   2.240   2.943
   89ACC    O0221849   7.126   2.274   2.873
   89ACC    O0321850   0.139   2.312   2.972
   89ACC    C0421851   0.160   2.432   2.902
   89ACC    C0521852   0.059   2.540   2.944
   89ACC    N0621853   0.035   2.644   2.841
   89ACC    C0721854   0.162   2.708   2.800
   89ACC    C0821855   7.157   2.587   2.722
   89ACC    C0921856   7.133   2.744   2.902
   89ACC    H0A21857   7.149   2.040   2.973
   89ACC    H0B21858   0.025   2.117   3.117
   89ACC    H0C21859   0.132   2.060   2.987
   89ACC    H0D21860   0.157   2.407   2.796
   89ACC    H0E21861   0.262   2.466   2.923
   89ACC    H0F21862   0.095   2.585   3.037
   89ACC    H0G21863   7.154   2.495   2.972
   89ACC    H0H21864   0.223   2.644   2.736
   89ACC    H0I21865   0.224   2.731   2.886
   89ACC    H0J21866   0.145   2.803   2.748
   89ACC    H0K21867   0.032   2.520   2.665
   89ACC    H0M21868   7.128   2.666   2.653
   89ACC    H0N21869   7.069   2.531   2.750
   89ACC    H0O21870   7.172   2.784   2.995
   89ACC    H0P21871   7.036   2.701   2.928
   89ACC    H0Q21872   7.117   2.830   2.837
   90ACC    C0021873   5.577   4.620   6.381
   90ACC    C0121874   5.663   4.644   6.499
   90ACC    O0221875   5.786   4.661   6.492
   90ACC    O0321876   5.587   4.648   6.607
   90ACC    C0421877   5.649   4.650   6.731
   90ACC    C0521878   5.699   4.791   6.758
   90ACC    N0621879   5.808   4.796   6.856
   90ACC    C0721880   5.765   4.736   6.984
   90ACC    C0821881   5.927   4.725   6.807
   90ACC    C0921882   5.848   4.937   6.868
   90ACC    H0A21883   5.636   4.584   6.299
   90ACC    H0B21884   5.527   4.711   6.351
   90ACC    H0C21885   5.500   4.550   6.412
   90ACC    H0D21886   5.729   4.577   6.725
   90ACC    H0E21887   5.580   4.613   6.807
   90ACC    H0F21888   5.613   4.851   6.790
   90ACC    H0G21889   5.736   4.836   6.666
   90ACC    H0H21890   5.748   4.629   6.974
   90ACC    H0I21891   5.671   4.778   7.018
   90ACC    H0J21892   5.841   4.749   7.061
   90ACC    H0K21893   5.908   4.619   6.808
   90ACC    H0M21894   6.013   4.740   6.870
   90ACC    H0N21895   5.954   4.752   6.705
   90ACC    H0O21896   5.763   5.004   6.877
   90ACC    H0P21897   5.907   4.968   6.782
   90ACC    H0Q21898   5.910   4.952   6.955
   91ACC    C0021899   0.415   2.644   1.547
   91ACC    C0121900   0.335   2.726   1.645
   91ACC    O0221901   0.256   2.676   1.724
   91ACC    O0321902   0.360   2.855   1.634
   91ACC    C0421903   0.278   2.943   1.706
   91ACC    C0521904   0.296   2.930   1.858
   91ACC    N0621905   0.182   2.977   1.942
   91ACC    C0721906   0.107   3.088   1.878
   91ACC    C0821907   0.084   2.870   1.972
   91ACC    C0921908   0.243   3.020   2.070
   91ACC    H0A21909   0.415   2.539   1.576
   91ACC    H0B21910   0.518   2.679   1.542
   91ACC    H0C21911   0.372   2.651   1.448
   91ACC    H0D21912   0.177   2.922   1.674
   91ACC    H0E21913   0.301   3.043   1.672
   91ACC    H0F21914   0.387   2.986   1.878
   91ACC    H0G21915   0.324   2.830   1.890
   91ACC    H0H21916   0.040   3.059   1.799
   91ACC    H0I21917   0.173   3.157   1.828
   91ACC    H0J21918   0.046   3.141   1.951
   91ACC    H0K21919   7.170   2.902   1.960
   91ACC    H0M21920   0.092   2.833   2.074
   91ACC    H0N21921   0.100   2.785   1.906
   91ACC    H0O21922   0.327   3.088   2.056
   91ACC    H0P21923   0.285   2.935   2.124
   91ACC    H0Q21924   0.171   3.069   2.135
   92ACC    C0021925   3.075   2.150   6.022
   92ACC    C0121926   3.210   2.167   5.958
   92ACC    O0221927   3.239   2.105   5.857
   92ACC    O0321928   3.292   2.250   6.024
   92ACC    C0421929   3.426   2.257   5.979
   92ACC    C0521930   3.445   2.353   5.862
   92ACC    N0621931   3.564   2.317   5.779
   92ACC    C0721932   3.687   2.285   5.855
   92ACC    C0821933   3.531   2.207   5.686
   92ACC    C0921934   3.595   2.432   5.694
   92ACC    H0A21935   3.018   2.080   5.962
   92ACC    H0B21936   3.023   2.245   6.025
   92ACC    H0C21937   3.086   2.109   6.123
   92ACC    H0D21938   3.458   2.159   5.946
   92ACC    H0E21939   3.491   2.285   6.061
   92ACC    H0F21940   3.454   2.454   5.902
   92ACC    H0G21941   3.356   2.353   5.799
   92ACC    H0H21942   3.679   2.193   5.914
   92ACC    H0I21943   3.717   2.367   5.921
   92ACC    H0J21944   3.772   2.268   5.788
   92ACC    H0K21945   3.521   2.117   5.742
   92ACC    H0M21946   3.609   2.191   5.612
   92ACC    H0N21947   3.437   2.224   5.632
   92ACC    H0O21948   3.622   2.520   5.752
   92ACC    H0P21949   3.512   2.456   5.628
   92ACC    H0Q21950   3.682   2.406   5.634
   93ACC    C0021951   0.445   0.308   3.058
   93ACC    C0121952   0.457   0.427   2.972
   93ACC    O0221953   0.567   0.470   2.940
   93ACC    O0321954   0.338   0.471   2.939
   93ACC    C0421955   0.327   0.597   2.881
   93ACC    C0521956   0.393   0.598   2.742
   93ACC    N0621957   0.428   0.734   2.696
   93ACC    C0721958   0.301   0.802   2.661
   93ACC    C0821959   0.497   0.815   2.798
   93ACC    C0921960   0.518   0.718   2.580
   93ACC    H0A21961   0.468   0.328   3.161
   93ACC    H0B21962   0.516   0.239   3.016
   93ACC    H0C21963   0.343   0.271   3.049
   93ACC    H0D21964   0.371   0.665   2.951
   93ACC    H0E21965   0.221   0.623   2.875
   93ACC    H0F21966   0.327   0.547   2.671
   93ACC    H0G21967   0.484   0.538   2.739
   93ACC    H0H21968   0.227   0.794   2.740
   93ACC    H0I21969   0.259   0.754   2.573
   93ACC    H0J21970   0.313   0.908   2.647
   93ACC    H0K21971   0.426   0.857   2.867
   93ACC    H0M21972   0.552   0.898   2.755
   93ACC    H0N21973   0.569   0.755   2.854
   93ACC    H0O21974   0.474   0.654   2.503
   93ACC    H0P21975   0.612   0.671   2.610
   93ACC    H0Q21976   0.545   0.813   2.534
   94ACC    C0021977   1.846   4.296   4.960
   94ACC    C0121978   1.769   4.229   4.850
   94ACC    O0221979   1.828   4.181   4.753
   94ACC    O0321980   1.637   4.227   4.873
   94ACC    C0421981   1.546   4.167   4.782
   94ACC    C0521982   1.587   4.027   4.743
   94ACC    N0621983   1.476   3.936   4.706
   94ACC    C0721984   1.384   3.908   4.817
   94ACC    C0821985   1.396   3.974   4.589
   94ACC    C0921986   1.546   3.813   4.673
   94ACC    H0A21987   1.913   4.370   4.919
   94ACC    H0B21988   1.907   4.222   5.012
   94ACC    H0C21989   1.779   4.345   5.031
   94ACC    H0D21990   1.540   4.225   4.691
   94ACC    H0E21991   1.447   4.170   4.827
   94ACC    H0F21992   1.645   3.984   4.825
   94ACC    H0G21993   1.655   4.035   4.658
   94ACC    H0H21994   1.314   3.989   4.834
   94ACC    H0I21995   1.441   3.888   4.905
   94ACC    H0J21996   1.324   3.818   4.796
   94ACC    H0K21997   1.345   4.070   4.602
   94ACC    H0M21998   1.319   3.900   4.568
   94ACC    H0N21999   1.456   3.981   4.499
   94ACC    H0O22000   1.618   3.785   4.750
   94ACC    H0P22001   1.604   3.826   4.582
   94ACC    H0Q22002   1.481   3.729   4.658
   95ACC    C0022003   0.482   1.014   6.697
   95ACC    C0122004   0.554   1.146   6.680
   95ACC    O0222005   0.619   1.173   6.579
   95ACC    O0322006   0.539   1.221   6.787
   95ACC    C0422007   0.622   1.333   6.804
   95ACC    C0522008   0.569   1.454   6.726
   95ACC    N0622009   0.639   1.581   6.756
   95ACC    C0722010   0.663   1.603   6.900
   95ACC    C0822011   0.769   1.586   6.686
   95ACC    C0922012   0.555   1.691   6.705
   95ACC    H0A22013   0.475   0.961   6.603
   95ACC    H0B22014   0.381   1.033   6.734
   95ACC    H0C22015   0.536   0.954   6.770
   95ACC    H0D22016   0.725   1.310   6.778
   95ACC    H0E22017   0.622   1.349   6.911
   95ACC    H0F22018   0.464   1.463   6.749
   95ACC    H0G22019   0.574   1.433   6.619
   95ACC    H0H22020   0.758   1.564   6.936
   95ACC    H0I22021   0.596   1.549   6.962
   95ACC    H0J22022   0.649   1.707   6.928
   95ACC    H0K22023   0.839   1.513   6.725
   95ACC    H0M22024   0.815   1.685   6.693
   95ACC    H0N22025   0.755   1.567   6.579
   95ACC    H0O22026   0.460   1.695   6.756
   95ACC    H0P22027   0.535   1.680   6.598
   95ACC    H0Q22028   0.603   1.788   6.716
   96ACC    C0022029   6.648   0.958   2.684
   96ACC    C0122030   6.745   0.912   2.581
   96ACC    O0222031   6.727   0.933   2.460
   96ACC    O0322032   6.848   0.850   2.637
   96ACC    C0422033   6.946   0.795   2.554
   96ACC    C0522034   7.041   0.907   2.508
   96ACC    N0622035   7.107   0.885   2.376
   96ACC    C0722036   0.026   0.786   2.386
   96ACC    C0822037   7.012   0.838   2.274
   96ACC    C0922038   7.159   1.015   2.331
   96ACC    H0A22039   6.563   1.004   2.635
   96ACC    H0B22040   6.702   1.028   2.748
   96ACC    H0C22041   6.616   0.873   2.745
   96ACC    H0D22042   6.894   0.746   2.474
   96ACC    H0E22043   6.999   0.718   2.609
   96ACC    H0F22044   7.116   0.920   2.586
   96ACC    H0G22045   6.987   1.001   2.507
   96ACC    H0H22046   7.176   0.687   2.404
   96ACC    H0I22047   0.088   0.808   2.471
   96ACC    H0J22048   0.090   0.780   2.297
   96ACC    H0K22049   6.985   0.734   2.290
   96ACC    H0M22050   7.053   0.840   2.174
   96ACC    H0N22051   6.924   0.900   2.278
   96ACC    H0O22052   0.038   1.057   2.403
   96ACC    H0P22053   7.079   1.088   2.323
   96ACC    H0Q22054   0.020   1.010   2.235
   97ACC    C0022055   5.768   5.910   4.386
   97ACC    C0122056   5.815   5.894   4.528
   97ACC    O0222057   5.930   5.858   4.552
   97ACC    O0322058   5.719   5.925   4.617
   97ACC    C0422059   5.701   5.842   4.731
   97ACC    C0522060   5.819   5.839   4.829
   97ACC    N0622061   5.840   5.708   4.897
   97ACC    C0722062   5.737   5.685   5.001
   97ACC    C0822063   5.840   5.595   4.801
   97ACC    C0922064   5.975   5.712   4.957
   97ACC    H0A22065   5.838   5.859   4.321
   97ACC    H0B22066   5.759   6.015   4.361
   97ACC    H0C22067   5.672   5.859   4.377
   97ACC    H0D22068   5.675   5.745   4.691
   97ACC    H0E22069   5.612   5.877   4.784
   97ACC    H0F22070   5.807   5.918   4.903
   97ACC    H0G22071   5.911   5.865   4.778
   97ACC    H0H22072   5.637   5.689   4.959
   97ACC    H0I22073   5.743   5.757   5.082
   97ACC    H0J22074   5.747   5.586   5.046
   97ACC    H0K22075   5.740   5.565   4.769
   97ACC    H0M22076   5.882   5.505   4.842
   97ACC    H0N22077   5.898   5.618   4.711
   97ACC    H0O22078   5.983   5.788   5.034
   97ACC    H0P22079   6.051   5.731   4.881
   97ACC    H0Q22080   6.004   5.617   5.001
   98ACC    C0022081   5.282   1.351   4.378
   98ACC    C0122082   5.373   1.337   4.496
   98ACC    O0222083   5.375   1.422   4.584
   98ACC    O0322084   5.447   1.228   4.487
   98ACC    C0422085   5.575   1.232   4.543
   98ACC    C0522086   5.568   1.173   4.683
   98ACC    N0622087   5.701   1.159   4.747
   98ACC    C0722088   5.792   1.067   4.678
   98ACC    C0822089   5.773   1.285   4.760
   98ACC    C0922090   5.675   1.109   4.880
   98ACC    H0A22091   5.197   1.409   4.407
   98ACC    H0B22092   5.252   1.251   4.350
   98ACC    H0C22093   5.337   1.398   4.296
   98ACC    H0D22094   5.614   1.333   4.539
   98ACC    H0E22095   5.641   1.174   4.480
   98ACC    H0F22096   5.519   1.076   4.680
   98ACC    H0G22097   5.502   1.235   4.744
   98ACC    H0H22098   5.838   1.120   4.596
   98ACC    H0I22099   5.743   0.980   4.638
   98ACC    H0J22100   5.873   1.033   4.743
   98ACC    H0K22101   5.791   1.338   4.666
   98ACC    H0M22102   5.871   1.270   4.806
   98ACC    H0N22103   5.714   1.347   4.825
   98ACC    H0O22104   5.630   1.010   4.870
   98ACC    H0P22105   5.604   1.170   4.936
   98ACC    H0Q22106   5.767   1.102   4.938
   99ACC    C0022107   4.095   5.132   4.807
   99ACC    C0122108   4.117   5.268   4.869
   99ACC    O0222109   4.210   5.296   4.944
   99ACC    O0322110   4.023   5.354   4.834
   99ACC    C0422111   4.006   5.473   4.907
   99ACC    C0522112   4.104   5.584   4.870
   99ACC    N0622113   4.069   5.718   4.923
   99ACC    C0722114   3.942   5.760   4.862
   99ACC    C0822115   4.059   5.719   5.071
   99ACC    C0922116   4.172   5.816   4.880
   99ACC    H0A22117   4.182   5.093   4.756
   99ACC    H0B22118   4.009   5.130   4.742
   99ACC    H0C22119   4.080   5.059   4.886
   99ACC    H0D22120   4.016   5.452   5.012
   99ACC    H0E22121   3.902   5.499   4.888
   99ACC    H0F22122   4.112   5.591   4.761
   99ACC    H0G22123   4.201   5.558   4.910
   99ACC    H0H22124   3.858   5.695   4.884
   99ACC    H0I22125   3.950   5.765   4.754
   99ACC    H0J22126   3.910   5.858   4.891
   99ACC    H0K22127   3.987   5.649   5.109
   99ACC    H0M22128   4.029   5.816   5.111
   99ACC    H0N22129   4.152   5.696   5.121
   99ACC    H0O22130   4.131   5.893   4.814
   99ACC    H0P22131   4.251   5.771   4.821
   99ACC    H0Q22132   4.216   5.870   4.963
  100ACC    C0022133   6.402   4.538   6.432
  100ACC    C0122134   6.432   4.398   6.386
  100ACC    O0222135   6.394   4.353   6.279
  100ACC    O0322136   6.502   4.337   6.477
  100ACC    C0422137   6.582   4.225   6.448
  100ACC    C0522138   6.715   4.285   6.490
  100ACC    N0622139   6.836   4.207   6.458
  100ACC    C0722140   6.849   4.084   6.539
  100ACC    C0822141   6.842   4.170   6.315
  100ACC    C0922142   6.946   4.298   6.493
  100ACC    H0A22143   6.363   4.598   6.351
  100ACC    H0B22144   6.493   4.583   6.470
  100ACC    H0C22145   6.331   4.529   6.514
  100ACC    H0D22146   6.576   4.198   6.343
  100ACC    H0E22147   6.551   4.141   6.509
  100ACC    H0F22148   6.711   4.310   6.597
  100ACC    H0G22149   6.721   4.382   6.441
  100ACC    H0H22150   6.767   4.014   6.521
  100ACC    H0I22151   6.852   4.107   6.646
  100ACC    H0J22152   6.943   4.034   6.515
  100ACC    H0K22153   6.770   4.092   6.290
  100ACC    H0M22154   6.941   4.131   6.288
  100ACC    H0N22155   6.822   4.254   6.250
  100ACC    H0O22156   6.965   4.305   6.600
  100ACC    H0P22157   6.930   4.400   6.460
  100ACC    H0Q22158   7.038   4.266   6.446
  101ACC    C0022159   1.209   4.389   0.268
  101ACC    C0122160   1.187   4.259   0.336
  101ACC    O0222161   1.099   4.248   0.420
  101ACC    O0322162   1.268   4.164   0.290
  101ACC    C0422163   1.234   4.031   0.317
  101ACC    C0522164   1.121   3.995   0.217
  101ACC    N0622165   1.003   3.927   0.276
  101ACC    C0722166   1.038   3.793   0.323
  101ACC    C0822167   0.948   4.006   0.388
  101ACC    C0922168   0.901   3.914   0.169
  101ACC    H0A22169   1.117   4.445   0.255
  101ACC    H0B22170   1.252   4.368   0.170
  101ACC    H0C22171   1.276   4.444   0.333
  101ACC    H0D22172   1.212   4.020   0.422
  101ACC    H0E22173   1.321   3.968   0.303
  101ACC    H0F22174   1.164   3.934   0.137
  101ACC    H0G22175   1.088   4.084   0.164
  101ACC    H0H22176   1.137   3.794   0.368
  101ACC    H0I22177   1.038   3.722   0.241
  101ACC    H0J22178   0.973   3.753   0.399
  101ACC    H0K22179   1.017   4.017   0.472
  101ACC    H0M22180   0.864   3.958   0.432
  101ACC    H0N22181   0.917   4.105   0.356
  101ACC    H0O22182   0.942   3.858   0.084
  101ACC    H0P22183   0.872   4.011   0.129
  101ACC    H0Q22184   0.812   3.861   0.201
  102ACC    C0022185   2.105   5.064   4.523
  102ACC    C0122186   2.189   5.004   4.629
  102ACC    O0222187   2.251   4.900   4.609
  102ACC    O0322188   2.209   5.090   4.728
  102ACC    C0422189   2.336   5.090   4.787
  102ACC    C0522190   2.433   5.141   4.678
  102ACC    N0622191   2.557   5.062   4.666
  102ACC    C0722192   2.630   5.066   4.793
  102ACC    C0822193   2.537   4.924   4.620
  102ACC    C0922194   2.634   5.126   4.559
  102ACC    H0A22195   2.072   4.992   4.449
  102ACC    H0B22196   2.173   5.130   4.475
  102ACC    H0C22197   2.017   5.113   4.563
  102ACC    H0D22198   2.359   4.990   4.822
  102ACC    H0E22199   2.338   5.155   4.874
  102ACC    H0F22200   2.460   5.244   4.699
  102ACC    H0G22201   2.385   5.146   4.581
  102ACC    H0H22202   2.585   4.999   4.865
  102ACC    H0I22203   2.628   5.167   4.836
  102ACC    H0J22204   2.734   5.036   4.784
  102ACC    H0K22205   2.480   4.867   4.691
  102ACC    H0M22206   2.629   4.870   4.604
  102ACC    H0N22207   2.482   4.924   4.526
  102ACC    H0O22208   2.674   5.217   4.602
  102ACC    H0P22209   2.573   5.154   4.473
  102ACC    H0Q22210   2.715   5.065   4.523
  103ACC    C0022211   6.337   1.131   5.384
  103ACC    C0122212   6.425   1.132   5.506
  103ACC    O0222213   6.507   1.221   5.518
  103ACC    O0322214   6.404   1.033   5.592
  103ACC    C0422215   6.504   0.992   5.683
  103ACC    C0522216   6.468   1.028   5.829
  103ACC    N0622217   6.547   0.961   5.937
  103ACC    C0722218   6.525   0.814   5.939
  103ACC    C0822219   6.694   0.988   5.933
  103ACC    C0922220   6.497   1.011   6.067
  103ACC    H0A22221   6.382   1.190   5.305
  103ACC    H0B22222   6.239   1.171   5.407
  103ACC    H0C22223   6.324   1.030   5.346
  103ACC    H0D22224   6.602   1.030   5.653
  103ACC    H0E22225   6.510   0.885   5.672
  103ACC    H0F22226   6.364   1.000   5.843
  103ACC    H0G22227   6.470   1.136   5.839
  103ACC    H0H22228   6.553   0.766   5.846
  103ACC    H0I22229   6.422   0.789   5.959
  103ACC    H0J22230   6.585   0.766   6.017
  103ACC    H0K22231   6.726   1.023   5.835
  103ACC    H0M22232   6.753   0.899   5.954
  103ACC    H0N22233   6.727   1.061   6.007
  103ACC    H0O22234   6.391   0.992   6.081
  103ACC    H0P22235   6.511   1.119   6.077
  103ACC    H0Q22236   6.549   0.965   6.151
  104ACC    C0022237   4.424   5.865   7.074
  104ACC    C0122238   4.438   6.006   7.024
  104ACC    O0222239   4.462   6.100   7.098
  104ACC    O0322240   4.422   6.014   6.892
  104ACC    C0422241   4.446   6.137   6.829
  104ACC    C0522242   4.595   6.149   6.798
  104ACC    N0622243   4.638   6.288   6.768
  104ACC    C0722244   4.543   6.363   6.682
  104ACC    C0822245   4.645   6.359   6.898
  104ACC    C0922246   4.767   6.284   6.693
  104ACC    H0A22247   4.424   5.865   7.183
  104ACC    H0B22248   4.508   5.804   7.040
  104ACC    H0C22249   4.331   5.821   7.038
  104ACC    H0D22250   4.408   6.217   6.891
  104ACC    H0E22251   4.390   6.141   6.736
  104ACC    H0F22252   4.617   6.083   6.715
  104ACC    H0G22253   4.654   6.110   6.882
  104ACC    H0H22254   4.451   6.389   6.733
  104ACC    H0I22255   4.519   6.308   6.592
  104ACC    H0J22256   4.588   6.457   6.649
  104ACC    H0K22257   4.555   6.354   6.957
  104ACC    H0M22258   4.666   6.462   6.883
  104ACC    H0N22259   4.722   6.323   6.965
  104ACC    H0O22260   4.763   6.216   6.609
  104ACC    H0P22261   4.852   6.251   6.750
  104ACC    H0Q22262   4.794   6.380   6.650
  105ACC    C0022263   4.494   3.016   5.650
  105ACC    C0122264   4.580   2.931   5.741
  105ACC    O0222265   4.533   2.843   5.814
  105ACC    O0322266   4.708   2.960   5.729
  105ACC    C0422267   4.805   2.884   5.798
  105ACC    C0522268   4.816   2.746   5.730
  105ACC    N0622269   4.945   2.674   5.750
  105ACC    C0722270   5.063   2.755   5.710
  105ACC    C0822271   4.961   2.630   5.890
  105ACC    C0922272   4.941   2.555   5.662
  105ACC    H0A22273   4.389   2.993   5.665
  105ACC    H0B22274   4.520   2.997   5.546
  105ACC    H0C22275   4.511   3.121   5.671
  105ACC    H0D22276   4.780   2.876   5.903
  105ACC    H0E22277   4.896   2.943   5.791
  105ACC    H0F22278   4.797   2.756   5.624
  105ACC    H0G22279   4.734   2.683   5.766
  105ACC    H0H22280   5.081   2.842   5.774
  105ACC    H0I22281   5.054   2.791   5.608
  105ACC    H0J22282   5.154   2.696   5.713
  105ACC    H0K22283   4.967   2.714   5.959
  105ACC    H0M22284   5.053   2.572   5.902
  105ACC    H0N22285   4.878   2.566   5.921
  105ACC    H0O22286   4.921   2.584   5.559
  105ACC    H0P22287   4.862   2.485   5.688
  105ACC    H0Q22288   5.035   2.500   5.659
  106ACC    C0022289   6.397   1.003   0.762
  106ACC    C0122290   6.373   0.894   0.661
  106ACC    O0222291   6.305   0.913   0.560
  106ACC    O0322292   6.433   0.779   0.696
  106ACC    C0422293   6.373   0.657   0.659
  106ACC    C0522294   6.377   0.629   0.507
  106ACC    N0622295   6.260   0.552   0.456
  106ACC    C0722296   6.259   0.416   0.516
  106ACC    C0822297   6.132   0.624   0.483
  106ACC    C0922298   6.273   0.540   0.309
  106ACC    H0A22299   6.320   1.079   0.752
  106ACC    H0B22300   6.494   1.049   0.747
  106ACC    H0C22301   6.390   0.962   0.863
  106ACC    H0D22302   6.273   0.661   0.701
  106ACC    H0E22303   6.424   0.577   0.712
  106ACC    H0F22304   6.471   0.578   0.485
  106ACC    H0G22305   6.383   0.723   0.451
  106ACC    H0H22306   6.248   0.419   0.625
  106ACC    H0I22307   6.353   0.364   0.496
  106ACC    H0J22308   6.177   0.356   0.476
  106ACC    H0K22309   6.104   0.624   0.588
  106ACC    H0M22310   6.048   0.581   0.429
  106ACC    H0N22311   6.139   0.730   0.455
  106ACC    H0O22312   6.368   0.493   0.282
  106ACC    H0P22313   6.271   0.638   0.261
  106ACC    H0Q22314   6.193   0.481   0.266
  107ACC    C0022315   3.010   6.155   0.201
  107ACC    C0122316   3.092   6.281   0.206
  107ACC    O0222317   3.113   6.348   0.106
  107ACC    O0322318   3.134   6.308   0.329
  107ACC    C0422319   3.205   6.428   0.350
  107ACC    C0522320   3.103   6.543   0.353
  107ACC    N0622321   3.163   6.678   0.372
  107ACC    C0722322   3.244   6.682   0.496
  107ACC    C0822323   3.245   6.711   0.252
  107ACC    C0922324   3.054   6.777   0.389
  107ACC    H0A22325   2.982   6.134   0.098
  107ACC    H0B22326   2.919   6.168   0.260
  107ACC    H0C22327   3.067   6.072   0.242
  107ACC    H0D22328   3.281   6.440   0.272
  107ACC    H0E22329   3.260   6.418   0.444
  107ACC    H0F22330   3.031   6.523   0.432
  107ACC    H0G22331   3.046   6.544   0.260
  107ACC    H0H22332   3.336   6.624   0.486
  107ACC    H0I22333   3.190   6.641   0.581
  107ACC    H0J22334   3.272   6.784   0.522
  107ACC    H0K22335   3.338   6.654   0.249
  107ACC    H0M22336   3.269   6.816   0.246
  107ACC    H0N22337   3.197   6.685   0.159
  107ACC    H0O22338   2.994   6.755   0.477
  107ACC    H0P22339   2.986   6.778   0.305
  107ACC    H0Q22340   3.093   6.878   0.400
  108ACC    C0022341   2.792   4.710   5.862
  108ACC    C0122342   2.684   4.774   5.945
  108ACC    O0222343   2.598   4.708   6.002
  108ACC    O0322344   2.696   4.908   5.947
  108ACC    C0422345   2.646   4.975   6.060
  108ACC    C0522346   2.763   4.971   6.159
  108ACC    N0622347   2.724   4.972   6.302
  108ACC    C0722348   2.660   5.103   6.331
  108ACC    C0822349   2.640   4.852   6.330
  108ACC    C0922350   2.845   4.958   6.385
  108ACC    H0A22351   2.758   4.618   5.815
  108ACC    H0B22352   2.879   4.686   5.922
  108ACC    H0C22353   2.824   4.780   5.785
  108ACC    H0D22354   2.555   4.927   6.097
  108ACC    H0E22355   2.618   5.077   6.035
  108ACC    H0F22356   2.831   5.053   6.137
  108ACC    H0G22357   2.822   4.882   6.141
  108ACC    H0H22358   2.562   5.111   6.285
  108ACC    H0I22359   2.720   5.185   6.293
  108ACC    H0J22360   2.649   5.121   6.437
  108ACC    H0K22361   2.536   4.864   6.305
  108ACC    H0M22362   2.646   4.819   6.434
  108ACC    H0N22363   2.673   4.765   6.273
  108ACC    H0O22364   2.926   5.023   6.353
  108ACC    H0P22365   2.880   4.855   6.380
  108ACC    H0Q22366   2.825   4.977   6.490
  109ACC    C0022367   6.274   5.150   4.694
  109ACC    C0122368   6.350   5.057   4.601
  109ACC    O0222369   6.355   5.072   4.480
  109ACC    O0322370   6.408   4.958   4.664
  109ACC    C0422371   6.491   4.867   4.595
  109ACC    C0522372   6.628   4.928   4.584
  109ACC    N0622373   6.739   4.846   4.528
  109ACC    C0722374   6.769   4.722   4.603
  109ACC    C0822375   6.708   4.813   4.387
  109ACC    C0922376   6.861   4.929   4.535
  109ACC    H0A22377   6.229   5.234   4.642
  109ACC    H0B22378   6.341   5.192   4.768
  109ACC    H0C22379   6.193   5.098   4.744
  109ACC    H0D22380   6.454   4.838   4.498
  109ACC    H0E22381   6.494   4.780   4.659
  109ACC    H0F22382   6.645   4.942   4.687
  109ACC    H0G22383   6.623   5.027   4.538
  109ACC    H0H22384   6.825   4.651   4.542
  109ACC    H0I22385   6.680   4.669   4.634
  109ACC    H0J22386   6.829   4.738   4.692
  109ACC    H0K22387   6.627   4.740   4.382
  109ACC    H0M22388   6.794   4.767   4.338
  109ACC    H0N22389   6.680   4.901   4.330
  109ACC    H0O22390   6.890   4.955   4.637
  109ACC    H0P22391   6.852   5.022   4.480
  109ACC    H0Q22392   6.946   4.872   4.500
  110ACC    C0022393   5.556   4.224   2.463
  110ACC    C0122394   5.688   4.172   2.515
  110ACC    O0222395   5.692   4.086   2.604
  110ACC    O0322396   5.793   4.225   2.454
  110ACC    C0422397   5.919   4.163   2.464
  110ACC    C0522398   5.958   4.124   2.321
  110ACC    N0622399   5.985   3.979   2.298
  110ACC    C0722400   6.107   3.938   2.371
  110ACC    C0822401   5.872   3.893   2.338
  110ACC    C0922402   6.005   3.958   2.152
  110ACC    H0A22403   5.500   4.141   2.422
  110ACC    H0B22404   5.572   4.294   2.382
  110ACC    H0C22405   5.499   4.272   2.542
  110ACC    H0D22406   5.921   4.080   2.535
  110ACC    H0E22407   5.988   4.236   2.504
  110ACC    H0F22408   6.044   4.184   2.292
  110ACC    H0G22409   5.879   4.157   2.253
  110ACC    H0H22410   6.089   3.936   2.478
  110ACC    H0I22411   6.191   4.005   2.356
  110ACC    H0J22412   6.139   3.839   2.339
  110ACC    H0K22413   5.818   3.928   2.425
  110ACC    H0M22414   5.905   3.791   2.355
  110ACC    H0N22415   5.796   3.885   2.261
  110ACC    H0O22416   6.086   4.017   2.112
  110ACC    H0P22417   5.915   3.987   2.097
  110ACC    H0Q22418   6.025   3.853   2.129
  111ACC    C0022419   4.160   0.746   5.308
  111ACC    C0122420   4.298   0.717   5.262
  111ACC    O0222421   4.323   0.691   5.144
  111ACC    O0322422   4.381   0.724   5.364
  111ACC    C0422423   4.509   0.670   5.351
  111ACC    C0522424   4.590   0.762   5.259
  111ACC    N0622425   4.729   0.717   5.242
  111ACC    C0722426   4.794   0.722   5.376
  111ACC    C0822427   4.735   0.581   5.185
  111ACC    C0922428   4.792   0.808   5.143
  111ACC    H0A22429   4.095   0.714   5.229
  111ACC    H0B22430   4.148   0.851   5.332
  111ACC    H0C22431   4.141   0.686   5.397
  111ACC    H0D22432   4.501   0.567   5.314
  111ACC    H0E22433   4.550   0.665   5.451
  111ACC    H0F22434   4.587   0.863   5.300
  111ACC    H0G22435   4.544   0.768   5.160
  111ACC    H0H22436   4.770   0.636   5.437
  111ACC    H0I22437   4.768   0.812   5.431
  111ACC    H0J22438   4.901   0.721   5.369
  111ACC    H0K22439   4.714   0.504   5.261
  111ACC    H0M22440   4.834   0.562   5.145
  111ACC    H0N22441   4.664   0.566   5.104
  111ACC    H0O22442   4.788   0.912   5.175
  111ACC    H0P22443   4.744   0.802   5.046
  111ACC    H0Q22444   4.896   0.781   5.126
  112ACC    C0022445   5.029   0.741   0.423
  112ACC    C0122446   5.004   0.691   0.562
  112ACC    O0222447   5.048   0.748   0.661
  112ACC    O0322448   4.922   0.585   0.563
  112ACC    C0422449   4.873   0.541   0.687
  112ACC    C0522450   4.763   0.639   0.731
  112ACC    N0622451   4.735   0.641   0.876
  112ACC    C0722452   4.689   0.509   0.925
  112ACC    C0822453   4.853   0.687   0.954
  112ACC    C0922454   4.626   0.739   0.897
  112ACC    H0A22455   5.104   0.820   0.425
  112ACC    H0B22456   4.936   0.783   0.383
  112ACC    H0C22457   5.062   0.661   0.358
  112ACC    H0D22458   4.957   0.535   0.757
  112ACC    H0E22459   4.833   0.440   0.676
  112ACC    H0F22460   4.673   0.617   0.673
  112ACC    H0G22461   4.790   0.741   0.701
  112ACC    H0H22462   4.767   0.433   0.916
  112ACC    H0I22463   4.602   0.474   0.868
  112ACC    H0J22464   4.658   0.513   1.029
  112ACC    H0K22465   4.934   0.614   0.955
  112ACC    H0M22466   4.827   0.707   1.058
  112ACC    H0N22467   4.895   0.779   0.912
  112ACC    H0O22468   4.535   0.710   0.843
  112ACC    H0P22469   4.652   0.839   0.863
  112ACC    H0Q22470   4.597   0.746   1.002
  113ACC    C0022471   1.376   1.248   2.010
  113ACC    C0122472   1.350   1.109   1.966
  113ACC    O0222473   1.409   1.012   2.015
  113ACC    O0322474   1.276   1.109   1.858
  113ACC    C0422475   1.334   1.053   1.744
  113ACC    C0522476   1.316   0.902   1.744
  113ACC    N0622477   1.411   0.834   1.653
  113ACC    C0722478   1.401   0.887   1.516
  113ACC    C0822479   1.552   0.846   1.701
  113ACC    C0922480   1.372   0.692   1.652
  113ACC    H0A22481   1.466   1.253   2.071
  113ACC    H0B22482   1.289   1.286   2.063
  113ACC    H0C22483   1.393   1.304   1.919
  113ACC    H0D22484   1.439   1.079   1.746
  113ACC    H0E22485   1.290   1.099   1.656
  113ACC    H0F22486   1.212   0.881   1.716
  113ACC    H0G22487   1.327   0.862   1.844
  113ACC    H0H22488   1.439   0.988   1.505
  113ACC    H0I22489   1.297   0.889   1.482
  113ACC    H0J22490   1.455   0.826   1.444
  113ACC    H0K22491   1.593   0.945   1.684
  113ACC    H0M22492   1.616   0.776   1.649
  113ACC    H0N22493   1.560   0.826   1.808
  113ACC    H0O22494   1.267   0.680   1.630
  113ACC    H0P22495   1.394   0.641   1.746
  113ACC    H0Q22496   1.423   0.641   1.572
  114ACC    C0022497   5.935   4.697   5.711
  114ACC    C0122498   5.958   4.774   5.838
  114ACC    O0222499   5.949   4.897   5.840
  114ACC    O0322500   5.989   4.694   5.939
  114ACC    C0422501   6.037   4.748   6.061
  114ACC    C0522502   5.933   4.831   6.136
  114ACC    N0622503   5.989   4.947   6.211
  114ACC    C0722504   6.070   4.902   6.326
  114ACC    C0822505   6.069   5.035   6.122
  114ACC    C0922506   5.878   5.029   6.260
  114ACC    H0A22507   5.932   4.766   5.627
  114ACC    H0B22508   5.840   4.646   5.720
  114ACC    H0C22509   6.016   4.626   5.697
  114ACC    H0D22510   6.125   4.806   6.037
  114ACC    H0E22511   6.071   4.665   6.122
  114ACC    H0F22512   5.877   4.764   6.201
  114ACC    H0G22513   5.858   4.867   6.065
  114ACC    H0H22514   6.156   4.843   6.294
  114ACC    H0I22515   6.010   4.842   6.394
  114ACC    H0J22516   6.109   4.989   6.381
  114ACC    H0K22517   6.172   5.001   6.108
  114ACC    H0M22518   6.075   5.136   6.161
  114ACC    H0N22519   6.022   5.044   6.024
  114ACC    H0O22520   5.805   4.971   6.315
  114ACC    H0P22521   5.829   5.072   6.172
  114ACC    H0Q22522   5.910   5.113   6.321
  115ACC    C0022523   2.376   6.582   2.588
  115ACC    C0122524   2.438   6.676   2.689
  115ACC    O0222525   2.559   6.681   2.707
  115ACC    O0322526   2.346   6.749   2.751
  115ACC    C0422527   2.383   6.824   2.865
  115ACC    C0522528   2.456   6.953   2.822
  115ACC    N0622529   2.495   7.043   2.934
  115ACC    C0722530   2.378   7.108   2.996
  115ACC    C0822531   2.567   6.971   3.041
  115ACC    C0922532   2.583   7.149   2.880
  115ACC    H0A22533   2.455   6.528   2.537
  115ACC    H0B22534   2.318   6.639   2.516
  115ACC    H0C22535   2.312   6.512   2.641
  115ACC    H0D22536   2.446   6.761   2.928
  115ACC    H0E22537   2.294   6.844   2.923
  115ACC    H0F22538   2.392   7.006   2.752
  115ACC    H0G22539   2.545   6.924   2.767
  115ACC    H0H22540   2.308   7.035   3.037
  115ACC    H0I22541   2.327   7.166   2.920
  115ACC    H0J22542   2.404   7.176   3.077
  115ACC    H0K22543   2.503   6.902   3.095
  115ACC    H0M22544   2.604   7.043   3.115
  115ACC    H0N22545   2.651   6.914   3.002
  115ACC    H0O22546   2.540   0.005   2.792
  115ACC    H0P22547   2.681   7.109   2.851
  115ACC    H0Q22548   2.601   0.038   2.953
  116ACC    C0022549   6.519   1.613   6.819
  116ACC    C0122550   6.494   1.761   6.831
  116ACC    O0222551   6.578   1.836   6.881
  116ACC    O0322552   6.374   1.795   6.787
  116ACC    C0422553   6.321   1.919   6.826
  116ACC    C0522554   6.399   2.040   6.769
  116ACC    N0622555   6.401   2.159   6.858
  116ACC    C0722556   6.265   2.217   6.867
  116ACC    C0822557   6.455   2.129   6.993
  116ACC    C0922558   6.492   2.259   6.797
  116ACC    H0A22559   6.615   1.590   6.863
  116ACC    H0B22560   6.516   1.582   6.714
  116ACC    H0C22561   6.446   1.560   6.877
  116ACC    H0D22562   6.315   1.918   6.935
  116ACC    H0E22563   6.218   1.923   6.792
  116ACC    H0F22564   6.353   2.065   6.673
  116ACC    H0G22565   6.501   2.012   6.743
  116ACC    H0H22566   6.193   2.148   6.911
  116ACC    H0I22567   6.226   2.244   6.769
  116ACC    H0J22568   6.265   2.309   6.927
  116ACC    H0K22569   6.381   2.080   7.055
  116ACC    H0M22570   6.484   2.219   7.047
  116ACC    H0N22571   6.542   2.064   6.989
  116ACC    H0O22572   6.460   2.284   6.696
  116ACC    H0P22573   6.595   2.225   6.792
  116ACC    H0Q22574   6.491   2.353   6.853
  117ACC    C0022575   4.421   2.576   0.709
  117ACC    C0122576   4.560   2.631   0.725
  117ACC    O0222577   4.594   2.690   0.827
  117ACC    O0322578   4.637   2.607   0.618
  117ACC    C0422579   4.777   2.622   0.631
  117ACC    C0522580   4.832   2.482   0.663
  117ACC    N0622581   4.972   2.477   0.713
  117ACC    C0722582   5.071   2.531   0.618
  117ACC    C0822583   4.984   2.549   0.842
  117ACC    C0922584   5.003   2.334   0.732
  117ACC    H0A22585   4.379   2.561   0.808
  117ACC    H0B22586   4.425   2.479   0.660
  117ACC    H0C22587   4.359   2.644   0.651
  117ACC    H0D22588   4.801   2.695   0.709
  117ACC    H0E22589   4.817   2.663   0.540
  117ACC    H0F22590   4.818   2.416   0.578
  117ACC    H0G22591   4.768   2.440   0.741
  117ACC    H0H22592   5.047   2.628   0.575
  117ACC    H0I22593   5.087   2.461   0.536
  117ACC    H0J22594   5.171   2.541   0.662
  117ACC    H0K22595   4.977   2.657   0.829
  117ACC    H0M22596   5.081   2.531   0.889
  117ACC    H0N22597   4.906   2.519   0.912
  117ACC    H0O22598   5.005   2.280   0.638
  117ACC    H0P22599   4.927   2.287   0.794
  117ACC    H0Q22600   5.101   2.322   0.777
  118ACC    C0022601   1.432   2.301   0.101
  118ACC    C0122602   1.320   2.395   0.072
  118ACC    O0222603   1.219   2.395   0.141
  118ACC    O0322604   1.344   2.477   7.160
  118ACC    C0422605   1.264   2.594   7.151
  118ACC    C0522606   1.335   2.702   0.043
  118ACC    N0622607   1.262   2.757   0.161
  118ACC    C0722608   1.144   2.834   0.116
  118ACC    C0822609   1.220   2.656   0.261
  118ACC    C0922610   1.358   2.845   0.231
  118ACC    H0A22611   1.441   2.307   0.208
  118ACC    H0B22612   1.527   2.333   0.060
  118ACC    H0C22613   1.411   2.198   0.077
  118ACC    H0D22614   1.161   2.576   7.183
  118ACC    H0E22615   1.259   2.623   7.047
  118ACC    H0F22616   1.361   2.784   7.166
  118ACC    H0G22617   1.431   2.663   0.076
  118ACC    H0H22618   1.068   2.770   0.072
  118ACC    H0I22619   1.171   2.908   0.040
  118ACC    H0J22620   1.098   2.887   0.199
  118ACC    H0K22621   1.135   2.597   0.226
  118ACC    H0M22622   1.187   2.702   0.354
  118ACC    H0N22623   1.301   2.588   0.286
  118ACC    H0O22624   1.392   2.926   0.167
  118ACC    H0P22625   1.447   2.792   0.264
  118ACC    H0Q22626   1.314   2.889   0.321
  119ACC    C0022627   2.518   4.393   0.324
  119ACC    C0122628   2.628   4.316   0.392
  119ACC    O0222629   2.669   4.209   0.349
  119ACC    O0322630   2.673   4.381   0.500
  119ACC    C0422631   2.790   4.334   0.563
  119ACC    C0522632   2.910   4.388   0.483
  119ACC    N0622633   3.019   4.290   0.461
  119ACC    C0722634   3.075   4.241   0.589
  119ACC    C0822635   2.973   4.179   0.374
  119ACC    C0922636   3.125   4.361   0.387
  119ACC    H0A22637   2.477   4.334   0.243
  119ACC    H0B22638   2.561   4.485   0.283
  119ACC    H0C22639   2.440   4.417   0.396
  119ACC    H0D22640   2.785   4.225   0.570
  119ACC    H0E22641   2.792   4.371   0.665
  119ACC    H0F22642   2.948   4.476   0.536
  119ACC    H0G22643   2.877   4.427   0.386
  119ACC    H0H22644   3.001   4.184   0.646
  119ACC    H0I22645   3.107   4.325   0.651
  119ACC    H0J22646   3.162   4.177   0.573
  119ACC    H0K22647   2.901   4.114   0.423
  119ACC    H0M22648   3.056   4.116   0.341
  119ACC    H0N22649   2.924   4.218   0.284
  119ACC    H0O22650   3.149   4.458   0.430
  119ACC    H0P22651   3.090   4.380   0.286
  119ACC    H0Q22652   3.218   4.305   0.381
  120ACC    C0022653   2.060   6.997   4.210
  120ACC    C0122654   2.049   6.848   4.191
  120ACC    O0222655   2.147   6.775   4.188
  120ACC    O0322656   1.922   6.809   4.182
  120ACC    C0422657   1.894   6.674   4.207
  120ACC    C0522658   1.887   6.665   4.360
  120ACC    N0622659   1.862   6.530   4.416
  120ACC    C0722660   1.751   6.458   4.350
  120ACC    C0822661   1.985   6.449   4.405
  120ACC    C0922662   1.828   6.550   4.558
  120ACC    H0A22663   2.164   7.026   4.218
  120ACC    H0B22664   2.007   7.027   4.300
  120ACC    H0C22665   2.013   7.044   4.125
  120ACC    H0D22666   1.971   6.608   4.166
  120ACC    H0E22667   1.799   6.650   4.159
  120ACC    H0F22668   1.814   6.737   4.396
  120ACC    H0G22669   1.981   6.702   4.400
  120ACC    H0H22670   1.776   6.430   4.248
  120ACC    H0I22671   1.661   6.517   4.348
  120ACC    H0J22672   1.726   6.367   4.405
  120ACC    H0K22673   2.011   6.423   4.302
  120ACC    H0M22674   1.976   6.354   4.459
  120ACC    H0N22675   2.072   6.500   4.444
  120ACC    H0O22676   1.741   6.614   4.569
  120ACC    H0P22677   1.909   6.598   4.612
  120ACC    H0Q22678   1.803   6.455   4.607
  121ACC    C0022679   6.176   6.466   0.376
  121ACC    C0122680   6.048   6.403   0.424
  121ACC    O0222681   5.940   6.458   0.407
  121ACC    O0322682   6.066   6.284   0.485
  121ACC    C0422683   5.956   6.226   0.553
  121ACC    C0522684   5.845   6.186   0.455
  121ACC    N0622685   5.705   6.221   0.495
  121ACC    C0722686   5.642   6.114   0.574
  121ACC    C0822687   5.686   6.345   0.571
  121ACC    C0922688   5.631   6.240   0.370
  121ACC    H0A22689   6.180   6.569   0.412
  121ACC    H0B22690   6.174   6.471   0.267
  121ACC    H0C22691   6.263   6.412   0.410
  121ACC    H0D22692   5.924   6.298   0.625
  121ACC    H0E22693   5.990   6.139   0.608
  121ACC    H0F22694   5.853   6.078   0.436
  121ACC    H0G22695   5.868   6.230   0.358
  121ACC    H0H22696   5.688   6.111   0.673
  121ACC    H0I22697   5.658   6.015   0.531
  121ACC    H0J22698   5.535   6.128   0.589
  121ACC    H0K22699   5.710   6.331   0.675
  121ACC    H0M22700   5.583   6.379   0.568
  121ACC    H0N22701   5.748   6.425   0.532
  121ACC    H0O22702   5.655   6.157   0.305
  121ACC    H0P22703   5.662   6.328   0.315
  121ACC    H0Q22704   5.523   6.250   0.383
  122ACC    C0022705   6.641   0.675   4.161
  122ACC    C0122706   6.566   0.585   4.066
  122ACC    O0222707   6.624   0.509   3.989
  122ACC    O0322708   6.434   0.598   4.079
  122ACC    C0422709   6.348   0.524   3.995
  122ACC    C0522710   6.349   0.376   4.037
  122ACC    N0622711   6.282   0.280   3.945
  122ACC    C0722712   6.136   0.302   3.942
  122ACC    C0822713   6.340   0.289   3.808
  122ACC    C0922714   6.305   0.145   3.998
  122ACC    H0A22715   6.748   0.668   4.140
  122ACC    H0B22716   6.622   0.644   4.263
  122ACC    H0C22717   6.608   0.777   4.147
  122ACC    H0D22718   6.383   0.539   3.893
  122ACC    H0E22719   6.248   0.566   4.002
  122ACC    H0F22720   6.304   0.369   4.136
  122ACC    H0G22721   6.453   0.344   4.047
  122ACC    H0H22722   6.114   0.402   3.905
  122ACC    H0I22723   6.092   0.291   4.041
  122ACC    H0J22724   6.088   0.230   3.875
  122ACC    H0K22725   6.323   0.385   3.762
  122ACC    H0M22726   6.292   0.218   3.741
  122ACC    H0N22727   6.448   0.272   3.808
  122ACC    H0O22728   6.276   0.135   4.103
  122ACC    H0P22729   6.411   0.119   3.990
  122ACC    H0Q22730   6.249   0.069   3.945
  123ACC    C0022731   1.448   6.079   6.306
  123ACC    C0122732   1.581   6.010   6.284
  123ACC    O0222733   1.619   5.922   6.360
  123ACC    O0322734   1.646   6.060   6.178
  123ACC    C0422735   1.775   6.017   6.134
  123ACC    C0522736   1.819   5.875   6.175
  123ACC    N0622737   1.937   5.823   6.102
  123ACC    C0722738   1.898   5.799   5.962
  123ACC    C0822739   2.055   5.911   6.108
  123ACC    C0922740   1.974   5.694   6.164
  123ACC    H0A22741   1.430   6.091   6.413
  123ACC    H0B22742   1.368   6.017   6.266
  123ACC    H0C22743   1.444   6.175   6.257
  123ACC    H0D22744   1.849   6.088   6.165
  123ACC    H0E22745   1.775   6.030   6.027
  123ACC    H0F22746   1.736   5.805   6.165
  123ACC    H0G22747   1.842   5.876   6.281
  123ACC    H0H22748   1.866   5.888   5.911
  123ACC    H0I22749   1.814   5.730   5.956
  123ACC    H0J22750   1.982   5.762   5.903
  123ACC    H0K22751   2.039   6.006   6.056
  123ACC    H0M22752   2.141   5.863   6.060
  123ACC    H0N22753   2.084   5.931   6.211
  123ACC    H0O22754   1.887   5.630   6.167
  123ACC    H0P22755   2.008   5.703   6.266
  123ACC    H0Q22756   2.052   5.642   6.110
  124ACC    C0022757   4.547   1.754   2.554
  124ACC    C0122758   4.443   1.796   2.654
  124ACC    O0222759   4.471   1.863   2.753
  124ACC    O0322760   4.322   1.754   2.619
  124ACC    C0422761   4.212   1.790   2.697
  124ACC    C0522762   4.162   1.928   2.648
  124ACC    N0622763   4.119   2.022   2.756
  124ACC    C0722764   4.007   1.968   2.836
  124ACC    C0822765   4.235   2.054   2.844
  124ACC    C0922766   4.072   2.148   2.694
  124ACC    H0A22767   4.646   1.780   2.591
  124ACC    H0B22768   4.528   1.808   2.462
  124ACC    H0C22769   4.540   1.647   2.537
  124ACC    H0D22770   4.237   1.786   2.803
  124ACC    H0E22771   4.138   1.712   2.683
  124ACC    H0F22772   4.081   1.913   2.578
  124ACC    H0G22773   4.241   1.976   2.591
  124ACC    H0H22774   4.029   1.871   2.879
  124ACC    H0I22775   3.915   1.961   2.779
  124ACC    H0J22776   3.983   2.033   2.920
  124ACC    H0K22777   4.262   1.971   2.909
  124ACC    H0M22778   4.213   2.137   2.910
  124ACC    H0N22779   4.323   2.083   2.786
  124ACC    H0O22780   3.987   2.131   2.628
  124ACC    H0P22781   4.151   2.198   2.637
  124ACC    H0Q22782   4.039   2.218   2.771
  125ACC    C0022783   5.618   3.873   3.486
  125ACC    C0122784   5.652   3.959   3.368
  125ACC    O0222785   5.764   4.006   3.352
  125ACC    O0322786   5.551   3.969   3.282
  125ACC    C0422787   5.561   4.059   3.174
  125ACC    C0522788   5.606   3.976   3.055
  125ACC    N0622789   5.709   4.041   2.970
  125ACC    C0722790   5.665   4.171   2.914
  125ACC    C0822791   5.837   4.061   3.042
  125ACC    C0922792   5.733   3.946   2.860
  125ACC    H0A22793   5.702   3.862   3.554
  125ACC    H0B22794   5.587   3.777   3.448
  125ACC    H0C22795   5.537   3.914   3.546
  125ACC    H0D22796   5.626   4.143   3.199
  125ACC    H0E22797   5.464   4.102   3.154
  125ACC    H0F22798   5.516   3.955   2.996
  125ACC    H0G22799   5.642   3.879   3.089
  125ACC    H0H22800   5.635   4.243   2.990
  125ACC    H0I22801   5.580   4.159   2.848
  125ACC    H0J22802   5.743   4.216   2.852
  125ACC    H0K22803   5.829   4.129   3.126
  125ACC    H0M22804   5.914   4.100   2.975
  125ACC    H0N22805   5.875   3.967   3.080
  125ACC    H0O22806   5.642   3.924   2.805
  125ACC    H0P22807   5.776   3.853   2.896
  125ACC    H0Q22808   5.803   3.990   2.790
  126ACC    C0022809   4.041   3.942   4.833
  126ACC    C0122810   4.064   3.827   4.740
  126ACC    O0222811   4.019   3.824   4.626
  126ACC    O0322812   4.141   3.735   4.797
  126ACC    C0422813   4.232   3.667   4.715
  126ACC    C0522814   4.356   3.755   4.724
  126ACC    N0622815   4.465   3.721   4.629
  126ACC    C0722816   4.500   3.578   4.637
  126ACC    C0822817   4.424   3.756   4.491
  126ACC    C0922818   4.581   3.805   4.666
  126ACC    H0A22819   4.099   4.028   4.799
  126ACC    H0B22820   4.082   3.914   4.929
  126ACC    H0C22821   3.936   3.967   4.838
  126ACC    H0D22822   4.194   3.654   4.614
  126ACC    H0E22823   4.250   3.569   4.758
  126ACC    H0F22824   4.392   3.751   4.827
  126ACC    H0G22825   4.328   3.859   4.708
  126ACC    H0H22826   4.421   3.516   4.595
  126ACC    H0I22827   4.515   3.549   4.740
  126ACC    H0J22828   4.591   3.558   4.581
  126ACC    H0K22829   4.341   3.697   4.453
  126ACC    H0M22830   4.506   3.746   4.419
  126ACC    H0N22831   4.391   3.859   4.486
  126ACC    H0O22832   4.602   3.799   4.773
  126ACC    H0P22833   4.561   3.910   4.650
  126ACC    H0Q22834   4.671   3.779   4.611
  127ACC    C0022835   0.732   1.317   5.282
  127ACC    C0122836   0.676   1.183   5.243
  127ACC    O0222837   0.627   1.106   5.325
  127ACC    O0322838   0.681   1.165   5.113
  127ACC    C0422839   0.598   1.069   5.051
  127ACC    C0522840   0.452   1.117   5.064
  127ACC    N0622841   0.362   1.077   4.952
  127ACC    C0722842   0.401   1.151   4.830
  127ACC    C0822843   0.366   0.932   4.927
  127ACC    C0922844   0.224   1.119   4.987
  127ACC    H0A22845   0.699   1.341   5.383
  127ACC    H0B22846   0.696   1.393   5.213
  127ACC    H0C22847   0.841   1.313   5.277
  127ACC    H0D22848   0.613   0.970   5.094
  127ACC    H0E22849   0.634   1.065   4.948
  127ACC    H0F22850   0.452   1.226   5.070
  127ACC    H0G22851   0.413   1.082   5.159
  127ACC    H0H22852   0.503   1.135   4.798
  127ACC    H0I22853   0.394   1.258   4.851
  127ACC    H0J22854   0.336   1.129   4.746
  127ACC    H0K22855   0.465   0.900   4.893
  127ACC    H0M22856   0.295   0.903   4.850
  127ACC    H0N22857   0.343   0.876   5.018
  127ACC    H0O22858   0.220   1.225   5.013
  127ACC    H0P22859   0.187   1.061   5.071
  127ACC    H0Q22860   0.155   1.104   4.904
  128ACC    C0022861   2.506   2.564   6.938
  128ACC    C0122862   2.545   2.475   7.053
  128ACC    O0222863   2.663   2.466   7.088
  128ACC    O0322864   2.441   2.412   7.108
  128ACC    C0422865   2.464   2.330   0.031
  128ACC    C0522866   2.443   2.415   0.158
  128ACC    N0622867   2.512   2.361   0.279
  128ACC    C0722868   2.468   2.224   0.312
  128ACC    C0822869   2.658   2.362   0.257
  128ACC    C0922870   2.483   2.449   0.395
  128ACC    H0A22871   2.586   2.566   6.864
  128ACC    H0B22872   2.490   2.664   6.976
  128ACC    H0C22873   2.415   2.527   6.890
  128ACC    H0D22874   2.563   2.286   0.026
  128ACC    H0E22875   2.395   2.247   0.029
  128ACC    H0F22876   2.336   2.426   0.177
  128ACC    H0G22877   2.479   2.517   0.141
  128ACC    H0H22878   2.492   2.151   0.234
  128ACC    H0I22879   2.361   2.221   0.333
  128ACC    H0J22880   2.518   2.188   0.402
  128ACC    H0K22881   2.688   2.273   0.202
  128ACC    H0M22882   2.713   2.357   0.351
  128ACC    H0N22883   2.694   2.449   0.203
  128ACC    H0O22884   2.376   2.453   0.417
  128ACC    H0P22885   2.516   2.551   0.377
  128ACC    H0Q22886   2.534   2.413   0.485
  129ACC    C0022887   5.315   2.863   1.279
  129ACC    C0122888   5.212   2.922   1.186
  129ACC    O0222889   5.093   2.893   1.193
  129ACC    O0322890   5.268   3.004   1.097
  129ACC    C0422891   5.186   3.072   1.006
  129ACC    C0522892   5.130   3.200   1.070
  129ACC    N0622893   5.026   3.271   0.991
  129ACC    C0722894   5.080   3.314   0.861
  129ACC    C0822895   4.908   3.186   0.970
  129ACC    C0922896   4.982   3.393   1.062
  129ACC    H0A22897   5.270   2.779   1.332
  129ACC    H0B22898   5.347   2.938   1.351
  129ACC    H0C22899   5.401   2.827   1.224
  129ACC    H0D22900   5.109   3.004   0.971
  129ACC    H0E22901   5.248   3.097   0.921
  129ACC    H0F22902   5.215   3.265   1.089
  129ACC    H0G22903   5.090   3.176   1.169
  129ACC    H0H22904   5.100   3.229   0.796
  129ACC    H0I22905   5.172   3.369   0.877
  129ACC    H0J22906   5.011   3.380   0.808
  129ACC    H0K22907   4.927   3.094   0.915
  129ACC    H0M22908   4.834   3.240   0.911
  129ACC    H0N22909   4.861   3.160   1.065
  129ACC    H0O22910   5.063   3.464   1.079
  129ACC    H0P22911   4.938   3.369   1.159
  129ACC    H0Q22912   4.903   3.446   1.008
  130ACC    C0022913   4.097   1.182   3.822
  130ACC    C0122914   3.992   1.075   3.836
  130ACC    O0222915   3.977   1.012   3.940
  130ACC    O0322916   3.920   1.060   3.724
  130ACC    C0422917   3.835   0.949   3.712
  130ACC    C0522918   3.701   0.970   3.786
  130ACC    N0622919   3.631   0.844   3.822
  130ACC    C0722920   3.619   0.751   3.707
  130ACC    C0822921   3.705   0.776   3.933
  130ACC    C0922922   3.495   0.876   3.872
  130ACC    H0A22923   4.177   1.164   3.894
  130ACC    H0B22924   4.055   1.280   3.841
  130ACC    H0C22925   4.140   1.179   3.722
  130ACC    H0D22926   3.890   0.862   3.748
  130ACC    H0E22927   3.816   0.931   3.607
  130ACC    H0F22928   3.638   1.034   3.724
  130ACC    H0G22929   3.718   1.029   3.877
  130ACC    H0H22930   3.716   0.714   3.672
  130ACC    H0I22931   3.570   0.801   3.624
  130ACC    H0J22932   3.560   0.663   3.732
  130ACC    H0K22933   3.803   0.740   3.903
  130ACC    H0M22934   3.648   0.692   3.972
  130ACC    H0N22935   3.722   0.845   4.016
  130ACC    H0O22936   3.452   0.965   3.825
  130ACC    H0P22937   3.493   0.897   3.978
  130ACC    H0Q22938   3.425   0.794   3.860
  131ACC    C0022939   0.092   4.207   3.909
  131ACC    C0122940   0.133   4.257   3.773
  131ACC    O0222941   0.116   4.374   3.740
  131ACC    O0322942   0.181   4.160   3.695
  131ACC    C0422943   0.222   4.191   3.565
  131ACC    C0522944   0.344   4.108   3.529
  131ACC    N0622945   0.393   4.130   3.390
  131ACC    C0722946   0.297   4.075   3.292
  131ACC    C0822947   0.417   4.272   3.356
  131ACC    C0922948   0.523   4.059   3.377
  131ACC    H0A22949   0.112   4.285   3.981
  131ACC    H0B22950   0.155   4.121   3.935
  131ACC    H0C22951   7.178   4.179   3.910
  131ACC    H0D22952   0.250   4.295   3.559
  131ACC    H0E22953   0.138   4.173   3.499
  131ACC    H0F22954   0.321   4.003   3.548
  131ACC    H0G22955   0.421   4.134   3.602
  131ACC    H0H22956   0.202   4.127   3.292
  131ACC    H0I22957   0.275   3.972   3.317
  131ACC    H0J22958   0.336   4.080   3.190
  131ACC    H0K22959   0.327   4.334   3.356
  131ACC    H0M22960   0.462   4.283   3.257
  131ACC    H0N22961   0.487   4.318   3.425
  131ACC    H0O22962   0.516   3.954   3.407
  131ACC    H0P22963   0.598   4.106   3.441
  131ACC    H0Q22964   0.563   4.066   3.276
  132ACC    C0022965   7.127   0.407   2.323
  132ACC    C0122966   6.985   0.457   2.335
  132ACC    O0222967   6.950   0.523   2.432
  132ACC    O0322968   6.906   0.420   2.235
  132ACC    C0422969   6.770   0.462   2.240
  132ACC    C0522970   6.751   0.592   2.161
  132ACC    N0622971   6.631   0.676   2.194
  132ACC    C0722972   6.515   0.636   2.115
  132ACC    C0822973   6.595   0.675   2.338
  132ACC    C0922974   6.658   0.816   2.154
  132ACC    H0A22975   0.005   0.472   2.377
  132ACC    H0B22976   7.158   0.401   2.220
  132ACC    H0C22977   7.134   0.309   2.369
  132ACC    H0D22978   6.737   0.465   2.343
  132ACC    H0E22979   6.713   0.385   2.193
  132ACC    H0F22980   6.747   0.561   2.057
  132ACC    H0G22981   6.841   0.651   2.166
  132ACC    H0H22982   6.474   0.543   2.151
  132ACC    H0I22983   6.540   0.624   2.009
  132ACC    H0J22984   6.433   0.707   2.120
  132ACC    H0K22985   6.552   0.579   2.369
  132ACC    H0M22986   6.522   0.752   2.362
  132ACC    H0N22987   6.684   0.691   2.400
  132ACC    H0O22988   6.690   0.822   2.050
  132ACC    H0P22989   6.736   0.859   2.214
  132ACC    H0Q22990   6.571   0.880   2.164
  133ACC    C0022991   6.475   4.725   6.999
  133ACC    C0122992   6.524   4.585   7.016
  133ACC    O0222993   6.555   4.540   7.125
  133ACC    O0322994   6.533   4.524   6.898
  133ACC    C0422995   6.588   4.396   6.878
  133ACC    C0522996   6.573   4.287   6.986
  133ACC    N0622997   6.674   4.179   6.973
  133ACC    C0722998   6.647   4.103   6.849
  133ACC    C0822999   6.813   4.231   6.976
  133ACC    C0923000   6.662   4.093   7.092
  133ACC    H0A23001   6.368   4.729   7.016
  133ACC    H0B23002   6.499   4.763   6.900
  133ACC    H0C23003   6.521   4.786   7.076
  133ACC    H0D23004   6.689   4.408   6.850
  133ACC    H0E23005   6.548   4.363   6.784
  133ACC    H0F23006   6.472   4.246   6.981
  133ACC    H0G23007   6.583   4.323   7.088
  133ACC    H0H23008   6.659   4.164   6.760
  133ACC    H0I23009   6.544   4.069   6.847
  133ACC    H0J23010   6.710   4.016   6.838
  133ACC    H0K23011   6.847   4.266   6.880
  133ACC    H0M23012   6.883   4.153   7.004
  133ACC    H0N23013   6.824   4.310   7.051
  133ACC    H0O23014   6.562   4.052   7.104
  133ACC    H0P23015   6.689   4.145   7.184
  133ACC    H0Q23016   6.733   4.012   7.082
  134ACC    C0023017   2.135   4.805   5.231
  134ACC    C0123018   2.212   4.728   5.333
  134ACC    O0223019   2.317   4.670   5.305
  134ACC    O0323020   2.155   4.732   5.452
  134ACC    C0423021   2.223   4.676   5.561
  134ACC    C0523022   2.338   4.771   5.591
  134ACC    N0623023   2.462   4.702   5.631
  134ACC    C0723024   2.442   4.621   5.753
  134ACC    C0823025   2.516   4.615   5.523
  134ACC    C0923026   2.559   4.811   5.653
  134ACC    H0A23027   2.197   4.831   5.147
  134ACC    H0B23028   2.100   4.896   5.275
  134ACC    H0C23029   2.050   4.748   5.198
  134ACC    H0D23030   2.254   4.576   5.534
  134ACC    H0E23031   2.155   4.667   5.646
  134ACC    H0F23032   2.306   4.843   5.666
  134ACC    H0G23033   2.362   4.832   5.503
  134ACC    H0H23034   2.373   4.539   5.736
  134ACC    H0I23035   2.403   4.682   5.835
  134ACC    H0J23036   2.535   4.576   5.786
  134ACC    H0K23037   2.450   4.535   5.490
  134ACC    H0M23038   2.606   4.563   5.557
  134ACC    H0N23039   2.544   4.673   5.434
  134ACC    H0O23040   2.536   4.872   5.739
  134ACC    H0P23041   2.569   4.875   5.566
  134ACC    H0Q23042   2.658   4.770   5.663
  135ACC    C0023043   2.788   4.308   6.233
  135ACC    C0123044   2.841   4.356   6.365
  135ACC    O0223045   2.766   4.393   6.455
  135ACC    O0323046   2.974   4.360   6.366
  135ACC    C0423047   3.038   4.438   6.463
  135ACC    C0523048   3.050   4.361   6.593
  135ACC    N0623049   3.090   4.440   6.711
  135ACC    C0723050   3.224   4.501   6.695
  135ACC    C0823051   2.990   4.545   6.739
  135ACC    C0923052   3.095   4.348   6.826
  135ACC    H0A23053   2.710   4.236   6.252
  135ACC    H0B23054   2.868   4.263   6.175
  135ACC    H0C23055   2.748   4.392   6.177
  135ACC    H0D23056   2.985   4.532   6.474
  135ACC    H0E23057   3.138   4.456   6.426
  135ACC    H0F23058   3.115   4.275   6.579
  135ACC    H0G23059   2.952   4.319   6.612
  135ACC    H0H23060   3.228   4.569   6.611
  135ACC    H0I23061   3.302   4.426   6.681
  135ACC    H0J23062   3.248   4.556   6.785
  135ACC    H0K23063   3.007   4.634   6.678
  135ACC    H0M23064   2.990   4.577   6.843
  135ACC    H0N23065   2.890   4.512   6.716
  135ACC    H0O23066   3.179   4.280   6.814
  135ACC    H0P23067   3.008   4.284   6.830
  135ACC    H0Q23068   3.107   4.399   6.922
  136ACC    C0023069   1.069   6.959   1.124
  136ACC    C0123070   1.033   6.847   1.218
  136ACC    O0223071   1.050   6.729   1.190
  136ACC    O0323072   0.982   6.894   1.331
  136ACC    C0423073   0.893   6.816   1.406
  136ACC    C0523074   0.965   6.713   1.494
  136ACC    N0623075   0.876   6.646   1.593
  136ACC    C0723076   0.842   6.738   1.704
  136ACC    C0823077   0.751   6.598   1.529
  136ACC    C0923078   0.947   6.530   1.650
  136ACC    H0A23079   1.019   6.943   1.029
  136ACC    H0B23080   1.176   6.966   1.110
  136ACC    H0C23081   1.031   7.054   1.162
  136ACC    H0D23082   0.821   6.769   1.338
  136ACC    H0E23083   0.836   6.885   1.467
  136ACC    H0F23084   1.048   6.762   1.546
  136ACC    H0G23085   1.010   6.639   1.427
  136ACC    H0H23086   0.787   6.826   1.672
  136ACC    H0I23087   0.931   6.773   1.757
  136ACC    H0J23088   0.779   6.688   1.779
  136ACC    H0K23089   0.685   6.683   1.507
  136ACC    H0M23090   0.693   6.533   1.595
  136ACC    H0N23091   0.768   6.546   1.435
  136ACC    H0O23092   1.038   6.560   1.700
  136ACC    H0P23093   0.974   6.458   1.572
  136ACC    H0Q23094   0.884   6.478   1.723
  137ACC    C0023095   1.307   5.902   4.518
  137ACC    C0123096   1.436   5.979   4.509
  137ACC    O0223097   1.456   6.079   4.577
  137ACC    O0323098   1.524   5.922   4.428
  137ACC    C0423099   1.660   5.931   4.463
  137ACC    C0523100   1.679   5.814   4.559
  137ACC    N0623101   1.810   5.806   4.627
  137ACC    C0723102   1.921   5.791   4.530
  137ACC    C0823103   1.838   5.921   4.716
  137ACC    C0923104   1.800   5.686   4.712
  137ACC    H0A23105   1.236   5.952   4.583
  137ACC    H0B23106   1.326   5.806   4.562
  137ACC    H0C23107   1.266   5.885   4.419
  137ACC    H0D23108   1.684   6.027   4.509
  137ACC    H0E23109   1.721   5.919   4.374
  137ACC    H0F23110   1.660   5.722   4.503
  137ACC    H0G23111   1.600   5.814   4.635
  137ACC    H0H23112   1.933   5.877   4.465
  137ACC    H0I23113   1.905   5.705   4.466
  137ACC    H0J23114   2.017   5.776   4.580
  137ACC    H0K23115   1.849   6.014   4.660
  137ACC    H0M23116   1.931   5.906   4.772
  137ACC    H0N23117   1.758   5.934   4.788
  137ACC    H0O23118   1.760   5.601   4.656
  137ACC    H0P23119   1.732   5.699   4.796
  137ACC    H0Q23120   1.898   5.660   4.751
  138ACC    C0023121   5.930   4.920   1.399
  138ACC    C0123122   5.913   4.992   1.268
  138ACC    O0223123   5.876   4.937   1.165
  138ACC    O0323124   5.939   5.121   1.280
  138ACC    C0423125   5.992   5.191   1.170
  138ACC    C0523126   5.893   5.293   1.115
  138ACC    N0623127   5.949   5.410   1.040
  138ACC    C0723128   6.044   5.488   1.124
  138ACC    C0823129   6.008   5.370   0.911
  138ACC    C0923130   5.843   5.508   1.004
  138ACC    H0A23131   5.849   4.850   1.416
  138ACC    H0B23132   5.933   4.989   1.483
  138ACC    H0C23133   6.022   4.862   1.397
  138ACC    H0D23134   6.028   5.123   1.093
  138ACC    H0E23135   6.079   5.238   1.211
  138ACC    H0F23136   5.836   5.330   1.200
  138ACC    H0G23137   5.828   5.234   1.050
  138ACC    H0H23138   6.135   5.435   1.149
  138ACC    H0I23139   6.000   5.520   1.218
  138ACC    H0J23140   6.080   5.577   1.072
  138ACC    H0K23141   6.100   5.314   0.919
  138ACC    H0M23142   6.036   5.456   0.850
  138ACC    H0N23143   5.941   5.307   0.852
  138ACC    H0O23144   5.785   5.540   1.090
  138ACC    H0P23145   5.776   5.468   0.928
  138ACC    H0Q23146   5.886   5.598   0.959
  139ACC    C0023147   1.493   2.546   4.013
  139ACC    C0123148   1.453   2.680   4.063
  139ACC    O0223149   1.338   2.723   4.052
  139ACC    O0323150   1.556   2.743   4.118
  139ACC    C0423151   1.531   2.867   4.177
  139ACC    C0523152   1.453   2.840   4.306
  139ACC    N0623153   1.359   2.948   4.345
  139ACC    C0723154   1.423   3.081   4.349
  139ACC    C0823155   1.241   2.958   4.256
  139ACC    C0923156   1.311   2.908   4.479
  139ACC    H0A23157   1.410   2.512   3.955
  139ACC    H0B23158   1.510   2.480   4.097
  139ACC    H0C23159   1.581   2.553   3.950
  139ACC    H0D23160   1.480   2.932   4.106
  139ACC    H0E23161   1.628   2.909   4.200
  139ACC    H0F23162   1.526   2.821   4.384
  139ACC    H0G23163   1.395   2.748   4.299
  139ACC    H0H23164   1.428   3.123   4.249
  139ACC    H0I23165   1.524   3.078   4.390
  139ACC    H0J23166   1.364   3.151   4.406
  139ACC    H0K23167   1.269   2.989   4.155
  139ACC    H0M23168   1.170   3.032   4.293
  139ACC    H0N23169   1.188   2.863   4.247
  139ACC    H0O23170   1.393   2.895   4.550
  139ACC    H0P23171   1.254   2.815   4.477
  139ACC    H0Q23172   1.245   2.983   4.519
  140ACC    C0023173   0.370   1.038   5.440
  140ACC    C0123174   0.345   1.033   5.588
  140ACC    O0223175   0.381   1.124   5.663
  140ACC    O0323176   0.286   0.921   5.623
  140ACC    C0423177   0.279   0.889   5.759
  140ACC    C0523178   0.164   0.969   5.826
  140ACC    N0623179   0.157   0.953   5.974
  140ACC    C0723180   0.134   0.813   6.018
  140ACC    C0823181   0.282   1.003   6.033
  140ACC    C0923182   0.046   1.036   6.026
  140ACC    H0A23183   0.405   1.138   5.416
  140ACC    H0B23184   0.283   1.017   5.381
  140ACC    H0C23185   0.447   0.964   5.416
  140ACC    H0D23186   0.377   0.910   5.801
  140ACC    H0E23187   0.265   0.782   5.765
  140ACC    H0F23188   0.070   0.942   5.780
  140ACC    H0G23189   0.177   1.075   5.802
  140ACC    H0H23190   0.199   0.742   5.969
  140ACC    H0I23191   0.031   0.781   6.002
  140ACC    H0J23192   0.149   0.802   6.125
  140ACC    H0K23193   0.364   0.938   6.006
  140ACC    H0M23194   0.275   1.005   6.141
  140ACC    H0N23195   0.307   1.103   5.998
  140ACC    H0O23196   7.140   1.005   5.983
  140ACC    H0P23197   0.060   1.142   6.003
  140ACC    H0Q23198   0.038   1.027   6.134
  141ACC    C0023199   1.868   4.565   2.405
  141ACC    C0123200   1.732   4.631   2.416
  141ACC    O0223201   1.653   4.635   2.323
  141ACC    O0323202   1.707   4.676   2.536
  141ACC    C0423203   1.588   4.749   2.557
  141ACC    C0523204   1.468   4.652   2.554
  141ACC    N0623205   1.361   4.683   2.651
  141ACC    C0723206   1.420   4.663   2.784
  141ACC    C0823207   1.311   4.821   2.632
  141ACC    C0923208   1.246   4.591   2.644
  141ACC    H0A23209   1.871   4.503   2.317
  141ACC    H0B23210   1.889   4.505   2.493
  141ACC    H0C23211   1.947   4.638   2.399
  141ACC    H0D23212   1.577   4.826   2.481
  141ACC    H0E23213   1.604   4.801   2.651
  141ACC    H0F23214   1.506   4.553   2.575
  141ACC    H0G23215   1.429   4.647   2.454
  141ACC    H0H23216   1.469   4.755   2.808
  141ACC    H0I23217   1.492   4.582   2.789
  141ACC    H0J23218   1.348   4.645   2.863
  141ACC    H0K23219   1.390   4.895   2.632
  141ACC    H0M23220   1.241   4.849   2.711
  141ACC    H0N23221   1.257   4.833   2.539
  141ACC    H0O23222   1.279   4.489   2.656
  141ACC    H0P23223   1.190   4.600   2.552
  141ACC    H0Q23224   1.177   4.611   2.727
  142ACC    C0023225   2.790   4.609   4.711
  142ACC    C0123226   2.663   4.651   4.778
  142ACC    O0223227   2.658   4.753   4.846
  142ACC    O0323228   2.564   4.567   4.751
  142ACC    C0423229   2.451   4.560   4.835
  142ACC    C0523230   2.353   4.676   4.812
  142ACC    N0623231   2.219   4.656   4.873
  142ACC    C0723232   2.133   4.573   4.785
  142ACC    C0823233   2.230   4.593   5.007
  142ACC    C0923234   2.153   4.788   4.888
  142ACC    H0A23235   2.873   4.672   4.740
  142ACC    H0B23236   2.778   4.609   4.603
  142ACC    H0C23237   2.811   4.507   4.743
  142ACC    H0D23238   2.485   4.561   4.939
  142ACC    H0E23239   2.403   4.465   4.817
  142ACC    H0F23240   2.341   4.695   4.705
  142ACC    H0G23241   2.398   4.764   4.857
  142ACC    H0H23242   2.169   4.471   4.775
  142ACC    H0I23243   2.125   4.616   4.685
  142ACC    H0J23244   2.031   4.569   4.824
  142ACC    H0K23245   2.262   4.490   5.004
  142ACC    H0M23246   2.134   4.593   5.058
  142ACC    H0N23247   2.302   4.649   5.066
  142ACC    H0O23248   2.119   4.826   4.793
  142ACC    H0P23249   2.216   4.864   4.933
  142ACC    H0Q23250   2.063   4.784   4.947
  143ACC    C0023251   0.770   0.227   2.809
  143ACC    C0123252   0.763   0.202   2.661
  143ACC    O0223253   0.762   0.294   2.580
  143ACC    O0323254   0.760   0.072   2.633
  143ACC    C0423255   0.741   0.029   2.501
  143ACC    C0523256   0.878   0.025   2.432
  143ACC    N0623257   0.870   0.054   2.288
  143ACC    C0723258   0.782   7.144   2.221
  143ACC    C0823259   0.820   0.193   2.268
  143ACC    C0923260   1.006   0.041   2.230
  143ACC    H0A23261   0.791   0.332   2.827
  143ACC    H0B23262   0.846   0.164   2.854
  143ACC    H0C23263   0.674   0.202   2.853
  143ACC    H0D23264   0.668   0.094   2.452
  143ACC    H0E23265   0.697   7.119   2.500
  143ACC    H0F23266   0.923   7.117   2.449
  143ACC    H0G23267   0.945   0.097   2.479
  143ACC    H0H23268   0.679   7.146   2.257
  143ACC    H0I23269   0.819   7.043   2.239
  143ACC    H0J23270   0.778   7.157   2.113
  143ACC    H0K23271   0.713   0.197   2.249
  143ACC    H0M23272   0.871   0.244   2.188
  143ACC    H0N23273   0.840   0.257   2.354
  143ACC    H0O23274   1.046   7.131   2.243
  143ACC    H0P23275   1.077   0.112   2.273
  143ACC    H0Q23276   1.005   0.058   2.123
  144ACC    C0023277   3.272   3.991   4.215
  144ACC    C0123278   3.319   3.929   4.343
  144ACC    O0223279   3.389   3.829   4.345
  144ACC    O0323280   3.278   4.000   4.448
  144ACC    C0423281   3.338   3.979   4.573
  144ACC    C0523282   3.479   4.040   4.563
  144ACC    N0623283   3.549   4.058   4.694
  144ACC    C0723284   3.498   4.179   4.762
  144ACC    C0823285   3.544   3.938   4.779
  144ACC    C0923286   3.690   4.084   4.664
  144ACC    H0A23287   3.321   3.942   4.132
  144ACC    H0B23288   3.301   4.096   4.215
  144ACC    H0C23289   3.164   3.985   4.207
  144ACC    H0D23290   3.340   3.873   4.597
  144ACC    H0E23291   3.276   4.029   4.647
  144ACC    H0F23292   3.473   4.136   4.511
  144ACC    H0G23293   3.539   3.978   4.496
  144ACC    H0H23294   3.389   4.182   4.763
  144ACC    H0I23295   3.528   4.270   4.710
  144ACC    H0J23296   3.536   4.187   4.864
  144ACC    H0K23297   3.443   3.910   4.808
  144ACC    H0M23298   3.601   3.952   4.871
  144ACC    H0N23299   3.589   3.854   4.727
  144ACC    H0O23300   3.702   4.166   4.593
  144ACC    H0P23301   3.738   3.996   4.619
  144ACC    H0Q23302   3.747   4.109   4.754
  145ACC    C0023303   6.407   6.315   1.798
  145ACC    C0123304   6.382   6.458   1.758
  145ACC    O0223305   6.403   6.550   1.837
  145ACC    O0323306   6.339   6.469   1.633
  145ACC    C0423307   6.284   6.592   1.589
  145ACC    C0523308   6.390   6.701   1.569
  145ACC    N0623309   6.333   6.833   1.530
  145ACC    C0723310   6.256   6.822   1.403
  145ACC    C0823311   6.246   6.891   1.632
  145ACC    C0923312   6.447   6.927   1.518
  145ACC    H0A23313   6.442   6.310   1.901
  145ACC    H0B23314   6.481   6.269   1.733
  145ACC    H0C23315   6.313   6.259   1.791
  145ACC    H0D23316   6.208   6.623   1.660
  145ACC    H0E23317   6.234   6.571   1.494
  145ACC    H0F23318   6.460   6.667   1.491
  145ACC    H0G23319   6.452   6.713   1.658
  145ACC    H0H23320   6.155   6.784   1.417
  145ACC    H0I23321   6.303   6.753   1.333
  145ACC    H0J23322   6.249   6.918   1.351
  145ACC    H0K23323   6.151   6.839   1.643
  145ACC    H0M23324   6.224   6.996   1.610
  145ACC    H0N23325   6.298   6.887   1.727
  145ACC    H0O23326   6.534   6.879   1.475
  145ACC    H0P23327   6.482   6.967   1.613
  145ACC    H0Q23328   6.425   7.011   1.453
  146ACC    C0023329   5.662   6.608   0.300
  146ACC    C0123330   5.573   6.622   0.421
  146ACC    O0223331   5.617   6.624   0.536
  146ACC    O0323332   5.445   6.630   0.388
  146ACC    C0423333   5.347   6.574   0.472
  146ACC    C0523334   5.311   6.669   0.585
  146ACC    N0623335   5.282   6.602   0.715
  146ACC    C0723336   5.176   6.500   0.705
  146ACC    C0823337   5.404   6.538   0.768
  146ACC    C0923338   5.236   6.708   0.809
  146ACC    H0A23339   5.732   6.689   0.289
  146ACC    H0B23340   5.601   6.600   0.211
  146ACC    H0C23341   5.725   6.521   0.306
  146ACC    H0D23342   5.382   6.477   0.504
  146ACC    H0E23343   5.259   6.556   0.410
  146ACC    H0F23344   5.228   6.731   0.553
  146ACC    H0G23345   5.395   6.737   0.599
  146ACC    H0H23346   5.198   6.421   0.633
  146ACC    H0I23347   5.079   6.543   0.678
  146ACC    H0J23348   5.162   6.451   0.802
  146ACC    H0K23349   5.423   6.441   0.722
  146ACC    H0M23350   5.398   6.523   0.876
  146ACC    H0N23351   5.492   6.598   0.747
  146ACC    H0O23352   5.135   6.741   0.786
  146ACC    H0P23353   5.298   6.797   0.807
  146ACC    H0Q23354   5.233   6.673   0.913
  147ACC    C0023355   5.474   0.723   4.822
  147ACC    C0123356   5.493   0.779   4.685
  147ACC    O0223357   5.605   0.798   4.639
  147ACC    O0323358   5.377   0.799   4.625
  147ACC    C0423359   5.376   0.869   4.503
  147ACC    C0523360   5.425   0.780   4.389
  147ACC    N0623361   5.464   0.857   4.270
  147ACC    C0723362   5.361   0.954   4.230
  147ACC    C0823363   5.591   0.927   4.296
  147ACC    C0923364   5.484   0.766   4.156
  147ACC    H0A23365   5.552   0.755   4.890
  147ACC    H0B23366   5.474   0.615   4.815
  147ACC    H0C23367   5.378   0.758   4.861
  147ACC    H0D23368   5.436   0.959   4.514
  147ACC    H0E23369   5.274   0.901   4.485
  147ACC    H0F23370   5.344   0.710   4.367
  147ACC    H0G23371   5.510   0.719   4.421
  147ACC    H0H23372   5.349   1.035   4.302
  147ACC    H0I23373   5.265   0.903   4.219
  147ACC    H0J23374   5.388   1.001   4.136
  147ACC    H0K23375   5.574   1.013   4.358
  147ACC    H0M23376   5.637   0.963   4.203
  147ACC    H0N23377   5.664   0.865   4.347
  147ACC    H0O23378   5.394   0.709   4.133
  147ACC    H0P23379   5.565   0.697   4.176
  147ACC    H0Q23380   5.510   0.825   4.068
  148ACC    C0023381   5.856   0.370   3.045
  148ACC    C0123382   5.874   0.514   3.008
  148ACC    O0223383   5.868   0.552   2.892
  148ACC    O0323384   5.891   0.590   3.116
  148ACC    C0423385   5.886   0.731   3.103
  148ACC    C0523386   5.739   0.770   3.126
  148ACC    N0623387   5.704   0.908   3.084
  148ACC    C0723388   5.800   1.009   3.132
  148ACC    C0823389   5.698   0.917   2.936
  148ACC    C0923390   5.572   0.943   3.144
  148ACC    H0A23391   5.826   0.312   2.957
  148ACC    H0B23392   5.776   0.364   3.119
  148ACC    H0C23393   5.949   0.331   3.085
  148ACC    H0D23394   5.925   0.762   3.006
  148ACC    H0E23395   5.952   0.775   3.177
  148ACC    H0F23396   5.718   0.755   3.232
  148ACC    H0G23397   5.675   0.701   3.071
  148ACC    H0H23398   5.886   1.007   3.065
  148ACC    H0I23399   5.836   0.990   3.233
  148ACC    H0J23400   5.759   1.109   3.126
  148ACC    H0K23401   5.791   0.890   2.887
  148ACC    H0M23402   5.672   1.018   2.903
  148ACC    H0N23403   5.621   0.852   2.896
  148ACC    H0O23404   5.573   0.942   3.253
  148ACC    H0P23405   5.495   0.873   3.111
  148ACC    H0Q23406   5.539   1.042   3.112
  149ACC    C0023407   2.676   0.232   0.907
  149ACC    C0123408   2.563   0.305   0.839
  149ACC    O0223409   2.485   0.373   0.904
  149ACC    O0323410   2.561   0.289   0.707
  149ACC    C0423411   2.455   0.346   0.632
  149ACC    C0523412   2.489   0.493   0.596
  149ACC    N0623413   2.373   0.588   0.593
  149ACC    C0723414   2.282   0.566   0.479
  149ACC    C0823415   2.295   0.578   0.717
  149ACC    C0923416   2.425   0.726   0.587
  149ACC    H0A23417   2.668   0.246   1.015
  149ACC    H0B23418   2.772   0.272   0.875
  149ACC    H0C23419   2.670   0.126   0.885
  149ACC    H0D23420   2.363   0.334   0.689
  149ACC    H0E23421   2.440   0.288   0.542
  149ACC    H0F23422   2.541   0.495   0.501
  149ACC    H0G23423   2.562   0.530   0.667
  149ACC    H0H23424   2.241   0.466   0.481
  149ACC    H0I23425   2.334   0.582   0.385
  149ACC    H0J23426   2.199   0.637   0.485
  149ACC    H0K23427   2.223   0.496   0.715
  149ACC    H0M23428   2.238   0.668   0.741
  149ACC    H0N23429   2.364   0.557   0.798
  149ACC    H0O23430   2.484   0.744   0.498
  149ACC    H0P23431   2.488   0.747   0.673
  149ACC    H0Q23432   2.345   0.801   0.588
  150ACC    C0023433   0.295   2.750   4.391
  150ACC    C0123434   0.392   2.641   4.355
  150ACC    O0223435   0.385   2.581   4.248
  150ACC    O0323436   0.478   2.618   4.453
  150ACC    C0423437   0.542   2.492   4.459
  150ACC    C0523438   0.672   2.487   4.378
  150ACC    N0623439   0.729   2.350   4.365
  150ACC    C0723440   0.761   2.288   4.497
  150ACC    C0823441   0.638   2.260   4.289
  150ACC    C0923442   0.857   2.362   4.292
  150ACC    H0A23443   0.242   2.783   4.302
  150ACC    H0B23444   0.348   2.834   4.436
  150ACC    H0C23445   0.223   2.711   4.462
  150ACC    H0D23446   0.470   2.418   4.424
  150ACC    H0E23447   0.561   2.471   4.564
  150ACC    H0F23448   0.743   2.554   4.426
  150ACC    H0G23449   0.652   2.528   4.278
  150ACC    H0H23450   0.671   2.266   4.554
  150ACC    H0I23451   0.823   2.353   4.559
  150ACC    H0J23452   0.813   2.193   4.485
  150ACC    H0K23453   0.549   2.234   4.347
  150ACC    H0M23454   0.687   2.166   4.264
  150ACC    H0N23455   0.604   2.306   4.196
  150ACC    H0O23456   0.931   2.420   4.347
  150ACC    H0P23457   0.845   2.408   4.194
  150ACC    H0Q23458   0.903   2.264   4.276
  151ACC    C0023459   6.532   4.138   3.050
  151ACC    C0123460   6.486   3.995   3.047
  151ACC    O0223461   6.533   3.910   3.123
  151ACC    O0323462   6.396   3.977   2.952
  151ACC    C0423463   6.389   3.850   2.892
  151ACC    C0523464   6.310   3.750   2.979
  151ACC    N0623465   6.324   3.607   2.939
  151ACC    C0723466   6.237   3.578   2.827
  151ACC    C0823467   6.458   3.577   2.884
  151ACC    C0923468   6.281   3.510   3.042
  151ACC    H0A23469   6.545   4.166   3.154
  151ACC    H0B23470   6.459   4.203   3.001
  151ACC    H0C23471   6.627   4.146   2.998
  151ACC    H0D23472   6.492   3.822   2.873
  151ACC    H0E23473   6.341   3.861   2.795
  151ACC    H0F23474   6.206   3.783   2.972
  151ACC    H0G23475   6.335   3.763   3.084
  151ACC    H0H23476   6.258   3.648   2.748
  151ACC    H0I23477   6.138   3.593   2.862
  151ACC    H0J23478   6.247   3.475   2.793
  151ACC    H0K23479   6.471   3.627   2.789
  151ACC    H0M23480   6.471   3.473   2.858
  151ACC    H0N23481   6.538   3.613   2.949
  151ACC    H0O23482   6.174   3.509   3.061
  151ACC    H0P23483   6.326   3.527   3.139
  151ACC    H0Q23484   6.302   3.407   3.014
  152ACC    C0023485   2.449   2.220   2.453
  152ACC    C0123486   2.480   2.341   2.537
  152ACC    O0223487   2.415   2.445   2.526
  152ACC    O0323488   2.579   2.318   2.623
  152ACC    C0423489   2.604   2.413   2.724
  152ACC    C0523490   2.489   2.403   2.827
  152ACC    N0623491   2.494   2.498   2.940
  152ACC    C0723492   2.609   2.464   3.025
  152ACC    C0823493   2.502   2.638   2.893
  152ACC    C0923494   2.370   2.480   3.019
  152ACC    H0A23495   2.367   2.243   2.385
  152ACC    H0B23496   2.418   2.139   2.519
  152ACC    H0C23497   2.537   2.190   2.397
  152ACC    H0D23498   2.613   2.512   2.680
  152ACC    H0E23499   2.699   2.387   2.770
  152ACC    H0F23500   2.492   2.302   2.867
  152ACC    H0G23501   2.393   2.412   2.776
  152ACC    H0H23502   2.703   2.488   2.974
  152ACC    H0I23503   2.611   2.359   3.054
  152ACC    H0J23504   2.609   2.523   3.117
  152ACC    H0K23505   2.599   2.660   2.845
  152ACC    H0M23506   2.496   2.709   2.975
  152ACC    H0N23507   2.424   2.662   2.821
  152ACC    H0O23508   2.361   2.377   3.056
  152ACC    H0P23509   2.281   2.500   2.959
  152ACC    H0Q23510   2.368   2.546   3.105
  153ACC    C0023511   3.872   0.830   6.687
  153ACC    C0123512   4.007   0.893   6.708
  153ACC    O0223513   4.041   0.944   6.815
  153ACC    O0323514   4.081   0.885   6.598
  153ACC    C0423515   4.214   0.932   6.600
  153ACC    C0523516   4.302   0.830   6.674
  153ACC    N0623517   4.433   0.883   6.721
  153ACC    C0723518   4.510   0.941   6.608
  153ACC    C0823519   4.413   0.983   6.829
  153ACC    C0923520   4.509   0.769   6.776
  153ACC    H0A23521   3.815   0.833   6.779
  153ACC    H0B23522   3.887   0.726   6.656
  153ACC    H0C23523   3.819   0.883   6.609
  153ACC    H0D23524   4.215   1.031   6.644
  153ACC    H0E23525   4.247   0.941   6.496
  153ACC    H0F23526   4.316   0.746   6.606
  153ACC    H0G23527   4.248   0.788   6.759
  153ACC    H0H23528   4.462   1.030   6.566
  153ACC    H0I23529   4.519   0.870   6.525
  153ACC    H0J23530   4.611   0.970   6.638
  153ACC    H0K23531   4.367   1.075   6.793
  153ACC    H0M23532   4.508   1.011   6.875
  153ACC    H0N23533   4.349   0.943   6.908
  153ACC    H0O23534   4.527   0.693   6.699
  153ACC    H0P23535   4.456   0.720   6.857
  153ACC    H0Q23536   4.607   0.800   6.814
  154ACC    C0023537   4.346   0.529   1.848
  154ACC    C0123538   4.430   0.503   1.972
  154ACC    O0223539   4.513   0.584   2.012
  154ACC    O0323540   4.404   0.383   2.022
  154ACC    C0423541   4.459   0.344   2.146
  154ACC    C0523542   4.357   0.377   2.254
  154ACC    N0623543   4.382   0.317   2.388
  154ACC    C0723544   4.358   0.172   2.385
  154ACC    C0823545   4.519   0.344   2.437
  154ACC    C0923546   4.283   0.377   2.481
  154ACC    H0A23547   4.360   0.631   1.816
  154ACC    H0B23548   4.241   0.512   1.872
  154ACC    H0C23549   4.375   0.460   1.769
  154ACC    H0D23550   4.555   0.393   2.164
  154ACC    H0E23551   4.479   0.237   2.141
  154ACC    H0F23552   4.259   0.341   2.223
  154ACC    H0G23553   4.347   0.485   2.260
  154ACC    H0H23554   4.416   0.119   2.310
  154ACC    H0I23555   4.252   0.151   2.369
  154ACC    H0J23556   4.382   0.126   2.479
  154ACC    H0K23557   4.594   0.292   2.377
  154ACC    H0M23558   4.530   0.307   2.539
  154ACC    H0N23559   4.540   0.451   2.436
  154ACC    H0O23560   4.181   0.360   2.446
  154ACC    H0P23561   4.295   0.485   2.488
  154ACC    H0Q23562   4.293   0.334   2.581
  155ACC    C0023563   3.458   4.316   0.883
  155ACC    C0123564   3.578   4.392   0.933
  155ACC    O0223565   3.612   4.501   0.889
  155ACC    O0323566   3.638   4.329   1.032
  155ACC    C0423567   3.745   4.393   1.098
  155ACC    C0523568   3.687   4.514   1.174
  155ACC    N0623569   3.787   4.604   1.235
  155ACC    C0723570   3.880   4.531   1.325
  155ACC    C0823571   3.863   4.677   1.132
  155ACC    C0923572   3.708   4.702   1.313
  155ACC    H0A23573   3.425   4.359   0.789
  155ACC    H0B23574   3.378   4.324   0.955
  155ACC    H0C23575   3.485   4.212   0.870
  155ACC    H0D23576   3.820   4.421   1.024
  155ACC    H0E23577   3.791   4.321   1.165
  155ACC    H0F23578   3.619   4.478   1.250
  155ACC    H0G23579   3.623   4.574   1.111
  155ACC    H0H23580   3.941   4.458   1.272
  155ACC    H0I23581   3.825   4.476   1.402
  155ACC    H0J23582   3.948   4.599   1.376
  155ACC    H0K23583   3.928   4.610   1.075
  155ACC    H0M23584   3.927   4.753   1.177
  155ACC    H0N23585   3.796   4.727   1.062
  155ACC    H0O23586   3.664   4.654   1.400
  155ACC    H0P23587   3.627   4.747   1.256
  155ACC    H0Q23588   3.770   4.784   1.347
  156ACC    C0023589   0.152   0.382   3.799
  156ACC    C0123590   0.290   0.419   3.759
  156ACC    O0223591   0.340   0.523   3.800
  156ACC    O0323592   0.348   0.327   3.682
  156ACC    C0423593   0.485   0.343   3.652
  156ACC    C0523594   0.565   0.328   3.780
  156ACC    N0623595   0.681   0.417   3.798
  156ACC    C0723596   0.752   0.439   3.670
  156ACC    C0823597   0.641   0.545   3.859
  156ACC    C0923598   0.765   0.350   3.899
  156ACC    H0A23599   0.091   0.472   3.808
  156ACC    H0B23600   0.156   0.333   3.896
  156ACC    H0C23601   0.109   0.316   3.725
  156ACC    H0D23602   0.500   0.434   3.597
  156ACC    H0E23603   0.521   0.270   3.581
  156ACC    H0F23604   0.596   0.223   3.779
  156ACC    H0G23605   0.503   0.341   3.868
  156ACC    H0H23606   0.698   0.504   3.602
  156ACC    H0I23607   0.764   0.345   3.617
  156ACC    H0J23608   0.848   0.485   3.683
  156ACC    H0K23609   0.568   0.595   3.797
  156ACC    H0M23610   0.726   0.612   3.872
  156ACC    H0N23611   0.594   0.532   3.956
  156ACC    H0O23612   0.793   0.252   3.863
  156ACC    H0P23613   0.712   0.333   3.994
  156ACC    H0Q23614   0.853   0.407   3.921
  157ACC    C0023615   2.658   1.895   4.168
  157ACC    C0123616   2.633   2.041   4.140
  157ACC    O0223617   2.691   2.130   4.202
  157ACC    O0323618   2.547   2.058   4.040
  157ACC    C0423619   2.518   2.188   3.993
  157ACC    C0523620   2.641   2.243   3.918
  157ACC    N0623621   2.624   2.381   3.865
  157ACC    C0723622   2.536   2.385   3.746
  157ACC    C0823623   2.572   2.474   3.969
  157ACC    C0923624   2.756   2.427   3.821
  157ACC    H0A23625   2.686   1.885   4.272
  157ACC    H0B23626   2.738   1.857   4.105
  157ACC    H0C23627   2.568   1.836   4.151
  157ACC    H0D23628   2.490   2.249   4.079
  157ACC    H0E23629   2.431   2.181   3.928
  157ACC    H0F23630   2.667   2.176   3.837
  157ACC    H0G23631   2.726   2.243   3.985
  157ACC    H0H23632   2.462   2.307   3.751
  157ACC    H0I23633   2.590   2.368   3.654
  157ACC    H0J23634   2.486   2.481   3.736
  157ACC    H0K23635   2.467   2.455   3.991
  157ACC    H0M23636   2.577   2.578   3.935
  157ACC    H0N23637   2.629   2.468   4.061
  157ACC    H0O23638   2.794   2.358   3.747
  157ACC    H0P23639   2.828   2.438   3.902
  157ACC    H0Q23640   2.751   2.522   3.769
  158ACC    C0023641   1.562   0.667   3.934
  158ACC    C0123642   1.673   0.763   3.898
  158ACC    O0223643   1.647   0.879   3.873
  158ACC    O0323644   1.793   0.704   3.898
  158ACC    C0423645   1.915   0.771   3.868
  158ACC    C0523646   1.918   0.924   3.886
  158ACC    N0623647   2.053   0.986   3.882
  158ACC    C0723648   2.133   0.952   4.002
  158ACC    C0823649   2.129   0.952   3.761
  158ACC    C0923650   2.029   1.131   3.883
  158ACC    H0A23651   1.532   0.611   3.846
  158ACC    H0B23652   1.478   0.727   3.967
  158ACC    H0C23653   1.589   0.600   4.014
  158ACC    H0D23654   1.943   0.741   3.768
  158ACC    H0E23655   1.991   0.726   3.930
  158ACC    H0F23656   1.871   0.952   3.981
  158ACC    H0G23657   1.856   0.969   3.809
  158ACC    H0H23658   2.168   0.850   3.999
  158ACC    H0I23659   2.076   0.966   4.094
  158ACC    H0J23660   2.221   1.016   4.011
  158ACC    H0K23661   2.155   0.846   3.759
  158ACC    H0M23662   2.224   1.006   3.755
  158ACC    H0N23663   2.074   0.973   3.670
  158ACC    H0O23664   1.976   1.165   3.971
  158ACC    H0P23665   1.966   1.160   3.799
  158ACC    H0Q23666   2.122   1.189   3.879
  159ACC    C0023667   2.244   0.899   5.055
  159ACC    C0123668   2.317   0.868   4.928
  159ACC    O0223669   2.436   0.837   4.926
  159ACC    O0323670   2.235   0.867   4.823
  159ACC    C0423671   2.272   0.785   4.715
  159ACC    C0523672   2.251   0.641   4.766
  159ACC    N0623673   2.329   0.536   4.696
  159ACC    C0723674   2.332   0.547   4.549
  159ACC    C0823675   2.466   0.539   4.751
  159ACC    C0923676   2.265   0.409   4.732
  159ACC    H0A23677   2.315   0.923   5.132
  159ACC    H0B23678   2.191   0.810   5.087
  159ACC    H0C23679   2.174   0.981   5.039
  159ACC    H0D23680   2.374   0.806   4.684
  159ACC    H0E23681   2.208   0.805   4.629
  159ACC    H0F23682   2.146   0.619   4.760
  159ACC    H0G23683   2.268   0.632   4.873
  159ACC    H0H23684   2.375   0.640   4.514
  159ACC    H0I23685   2.231   0.540   4.507
  159ACC    H0J23686   2.389   0.465   4.506
  159ACC    H0K23687   2.516   0.634   4.733
  159ACC    H0M23688   2.528   0.458   4.711
  159ACC    H0N23689   2.460   0.523   4.858
  159ACC    H0O23690   2.165   0.398   4.691
  159ACC    H0P23691   2.253   0.404   4.840
  159ACC    H0Q23692   2.324   0.324   4.697
  160ACC    C0023693   4.097   5.961   0.062
  160ACC    C0123694   4.041   6.100   0.045
  160ACC    O0223695   3.921   6.123   0.039
  160ACC    O0323696   4.136   6.193   0.043
  160ACC    C0423697   4.104   6.319   0.096
  160ACC    C0523698   4.117   6.303   0.248
  160ACC    N0623699   4.085   6.422   0.332
  160ACC    C0723700   4.149   6.543   0.276
  160ACC    C0823701   3.939   6.440   0.347
  160ACC    C0923702   4.140   6.393   0.467
  160ACC    H0A23703   4.016   5.890   0.078
  160ACC    H0B23704   4.161   5.959   0.150
  160ACC    H0C23705   4.155   5.934   7.165
  160ACC    H0D23706   4.004   6.351   0.067
  160ACC    H0E23707   4.176   6.390   0.057
  160ACC    H0F23708   4.220   6.271   0.266
  160ACC    H0G23709   4.056   6.219   0.283
  160ACC    H0H23710   4.103   6.572   0.182
  160ACC    H0I23711   4.255   6.526   0.257
  160ACC    H0J23712   4.141   6.626   0.346
  160ACC    H0K23713   3.883   6.426   0.254
  160ACC    H0M23714   3.912   6.536   0.389
  160ACC    H0N23715   3.897   6.368   0.416
  160ACC    H0O23716   4.248   6.381   0.466
  160ACC    H0P23717   4.101   6.299   0.505
  160ACC    H0Q23718   4.113   6.470   0.539
  161ACC    C0023719   0.146   1.632   2.380
  161ACC    C0123720   0.227   1.519   2.436
  161ACC    O0223721   0.234   1.499   2.557
  161ACC    O0323722   0.286   1.447   2.341
  161ACC    C0423723   0.372   1.343   2.381
  161ACC    C0523724   0.308   1.209   2.357
  161ACC    N0623725   0.392   1.096   2.405
  161ACC    C0723726   0.516   1.076   2.327
  161ACC    C0823727   0.434   1.113   2.544
  161ACC    C0923728   0.308   0.977   2.395
  161ACC    H0A23729   0.086   1.676   2.458
  161ACC    H0B23730   0.084   1.596   2.298
  161ACC    H0C23731   0.214   1.709   2.343
  161ACC    H0D23732   0.405   1.358   2.484
  161ACC    H0E23733   0.460   1.346   2.321
  161ACC    H0F23734   0.288   1.197   2.251
  161ACC    H0G23735   0.212   1.210   2.409
  161ACC    H0H23736   0.582   1.161   2.332
  161ACC    H0I23737   0.497   1.046   2.224
  161ACC    H0J23738   0.570   0.995   2.375
  161ACC    H0K23739   0.508   1.191   2.556
  161ACC    H0M23740   0.482   1.025   2.587
  161ACC    H0N23741   0.349   1.142   2.602
  161ACC    H0O23742   0.275   0.957   2.293
  161ACC    H0P23743   0.222   0.984   2.460
  161ACC    H0Q23744   0.363   0.890   2.427
  162ACC    C0023745   4.913   6.167   5.686
  162ACC    C0123746   4.802   6.252   5.628
  162ACC    O0223747   4.762   6.353   5.685
  162ACC    O0323748   4.761   6.211   5.508
  162ACC    C0423749   4.679   6.298   5.432
  162ACC    C0523750   4.771   6.409   5.379
  162ACC    N0623751   4.705   6.531   5.328
  162ACC    C0723752   4.616   6.493   5.216
  162ACC    C0823753   4.641   6.602   5.442
  162ACC    C0923754   4.812   6.618   5.275
  162ACC    H0A23755   4.904   6.161   5.794
  162ACC    H0B23756   5.007   6.215   5.662
  162ACC    H0C23757   4.912   6.067   5.643
  162ACC    H0D23758   4.598   6.337   5.493
  162ACC    H0E23759   4.635   6.243   5.349
  162ACC    H0F23760   4.831   6.368   5.299
  162ACC    H0G23761   4.838   6.440   5.458
  162ACC    H0H23762   4.534   6.430   5.248
  162ACC    H0I23763   4.668   6.437   5.139
  162ACC    H0J23764   4.573   6.578   5.166
  162ACC    H0K23765   4.543   6.560   5.465
  162ACC    H0M23766   4.630   6.708   5.424
  162ACC    H0N23767   4.702   6.596   5.533
  162ACC    H0O23768   4.863   6.570   5.191
  162ACC    H0P23769   4.884   6.642   5.352
  162ACC    H0Q23770   4.776   6.713   5.239
  163ACC    C0023771   4.930   6.948   2.912
  163ACC    C0123772   4.845   7.031   3.002
  163ACC    O0223773   4.808   7.143   2.972
  163ACC    O0323774   4.806   6.961   3.105
  163ACC    C0423775   4.676   6.982   3.150
  163ACC    C0523776   4.592   6.867   3.093
  163ACC    N0623777   4.519   6.890   2.965
  163ACC    C0723778   4.442   7.016   2.966
  163ACC    C0823779   4.606   6.894   2.845
  163ACC    C0923780   4.426   6.777   2.946
  163ACC    H0A23781   4.882   6.944   2.815
  163ACC    H0B23782   4.942   6.846   2.948
  163ACC    H0C23783   5.026   6.996   2.903
  163ACC    H0D23784   4.639   7.082   3.129
  163ACC    H0E23785   4.681   6.975   3.259
  163ACC    H0F23786   4.519   6.843   3.171
  163ACC    H0G23787   4.657   6.781   3.082
  163ACC    H0H23788   4.506   7.104   2.959
  163ACC    H0I23789   4.384   7.028   3.055
  163ACC    H0J23790   4.372   7.022   2.883
  163ACC    H0K23791   4.656   6.991   2.834
  163ACC    H0M23792   4.547   6.886   2.754
  163ACC    H0N23793   4.681   6.815   2.844
  163ACC    H0O23794   4.359   6.763   3.031
  163ACC    H0P23795   4.479   6.683   2.930
  163ACC    H0Q23796   4.361   6.792   2.859
  164ACC    C0023797   4.971   5.911   0.416
  164ACC    C0123798   5.111   5.965   0.424
  164ACC    O0223799   5.203   5.903   0.477
  164ACC    O0323800   5.123   6.082   0.360
  164ACC    C0423801   5.253   6.124   0.322
  164ACC    C0523802   5.290   6.041   0.197
  164ACC    N0623803   5.433   6.013   0.167
  164ACC    C0723804   5.508   6.122   0.103
  164ACC    C0823805   5.498   5.957   0.287
  164ACC    C0923806   5.435   5.909   0.063
  164ACC    H0A23807   4.963   5.817   0.470
  164ACC    H0B23808   4.946   5.892   0.311
  164ACC    H0C23809   4.900   5.983   0.456
  164ACC    H0D23810   5.317   6.114   0.408
  164ACC    H0E23811   5.248   6.230   0.299
  164ACC    H0F23812   5.240   6.079   0.109
  164ACC    H0G23813   5.245   5.944   0.214
  164ACC    H0H23814   5.510   6.210   0.164
  164ACC    H0I23815   5.463   6.156   0.011
  164ACC    H0J23816   5.611   6.095   0.080
  164ACC    H0K23817   5.493   6.021   0.373
  164ACC    H0M23818   5.603   5.938   0.268
  164ACC    H0N23819   5.448   5.865   0.316
  164ACC    H0O23820   5.390   5.945   7.161
  164ACC    H0P23821   5.375   5.824   0.096
  164ACC    H0Q23822   5.537   5.876   0.041
  165ACC    C0023823   0.591   6.801   2.288
  165ACC    C0123824   0.474   6.708   2.274
  165ACC    O0223825   0.435   6.638   2.368
  165ACC    O0323826   0.422   6.709   2.153
  165ACC    C0423827   0.365   6.590   2.104
  165ACC    C0523828   0.217   6.577   2.142
  165ACC    N0623829   0.155   6.449   2.104
  165ACC    C0723830   0.160   6.424   1.957
  165ACC    C0823831   0.222   6.340   2.177
  165ACC    C0923832   0.012   6.450   2.144
  165ACC    H0A23833   0.656   6.768   2.368
  165ACC    H0B23834   0.555   6.901   2.307
  165ACC    H0C23835   0.650   6.798   2.195
  165ACC    H0D23836   0.424   6.506   2.139
  165ACC    H0E23837   0.380   6.593   1.997
  165ACC    H0F23838   0.163   6.657   2.094
  165ACC    H0G23839   0.205   6.596   2.249
  165ACC    H0H23840   0.260   6.430   1.916
  165ACC    H0I23841   0.099   6.496   1.901
  165ACC    H0J23842   0.121   6.326   1.931
  165ACC    H0K23843   0.313   6.309   2.126
  165ACC    H0M23844   0.159   6.252   2.186
  165ACC    H0N23845   0.243   6.369   2.279
  165ACC    H0O23846   7.148   6.530   2.093
  165ACC    H0P23847   0.001   6.466   2.251
  165ACC    H0Q23848   7.155   6.355   2.118
  166ACC    C0023849   6.597   5.589   0.629
  166ACC    C0123850   6.611   5.737   0.607
  166ACC    O0223851   6.644   5.812   0.698
  166ACC    O0323852   6.584   5.774   0.481
  166ACC    C0423853   6.603   5.909   0.446
  166ACC    C0523854   6.744   5.927   0.389
  166ACC    N0623855   6.828   6.036   0.447
  166ACC    C0723856   6.760   6.168   0.437
  166ACC    C0823857   6.864   6.005   0.587
  166ACC    C0923858   6.955   6.046   0.371
  166ACC    H0A23859   6.631   5.563   0.729
  166ACC    H0B23860   6.656   5.535   0.557
  166ACC    H0C23861   6.492   5.560   0.623
  166ACC    H0D23862   6.581   5.974   0.530
  166ACC    H0E23863   6.530   5.932   0.368
  166ACC    H0F23864   6.733   5.941   0.282
  166ACC    H0G23865   6.798   5.832   0.398
  166ACC    H0H23866   6.670   6.171   0.499
  166ACC    H0I23867   6.730   6.188   0.334
  166ACC    H0J23868   6.825   6.248   0.471
  166ACC    H0K23869   6.777   6.006   0.653
  166ACC    H0M23870   6.935   6.076   0.628
  166ACC    H0N23871   6.909   5.906   0.594
  166ACC    H0O23872   6.938   6.065   0.265
  166ACC    H0P23873   7.011   5.952   0.376
  166ACC    H0Q23874   7.021   6.124   0.409
  167ACC    C0023875   6.595   2.117   5.048
  167ACC    C0123876   6.552   2.241   5.118
  167ACC    O0223877   6.630   2.314   5.179
  167ACC    O0323878   6.424   2.264   5.093
  167ACC    C0423879   6.372   2.387   5.130
  167ACC    C0523880   6.426   2.487   5.026
  167ACC    N0623881   6.441   2.624   5.078
  167ACC    C0723882   6.321   2.663   5.154
  167ACC    C0823883   6.556   2.635   5.170
  167ACC    C0923884   6.464   2.710   4.959
  167ACC    H0A23885   6.672   2.070   5.105
  167ACC    H0B23886   6.632   2.142   4.949
  167ACC    H0C23887   6.511   2.051   5.038
  167ACC    H0D23888   6.403   2.406   5.233
  167ACC    H0E23889   6.264   2.381   5.128
  167ACC    H0F23890   6.359   2.482   4.940
  167ACC    H0G23891   6.522   2.455   4.986
  167ACC    H0H23892   6.313   2.616   5.252
  167ACC    H0I23893   6.234   2.630   5.099
  167ACC    H0J23894   6.317   2.771   5.168
  167ACC    H0K23895   6.544   2.575   5.260
  167ACC    H0M23896   6.573   2.738   5.202
  167ACC    H0N23897   6.645   2.598   5.119
  167ACC    H0O23898   6.386   2.697   4.883
  167ACC    H0P23899   6.557   2.682   4.908
  167ACC    H0Q23900   6.472   2.815   4.984
  168ACC    C0023901   6.799   6.117   0.018
  168ACC    C0123902   6.687   6.087   7.113
  168ACC    O0223903   6.699   6.104   6.992
  168ACC    O0323904   6.578   6.041   7.173
  168ACC    C0423905   6.464   6.018   7.092
  168ACC    C0523906   6.489   5.904   6.991
  168ACC    N0623907   6.424   5.925   6.858
  168ACC    C0723908   6.278   5.945   6.872
  168ACC    C0823909   6.481   6.038   6.782
  168ACC    C0923910   6.454   5.805   6.778
  168ACC    H0A23911   6.885   6.161   7.158
  168ACC    H0B23912   6.832   6.024   0.059
  168ACC    H0C23913   6.766   6.181   0.099
  168ACC    H0D23914   6.440   6.113   7.043
  168ACC    H0E23915   6.380   5.993   7.155
  168ACC    H0F23916   6.453   5.811   7.036
  168ACC    H0G23917   6.595   5.886   6.974
  168ACC    H0H23918   6.252   6.043   6.913
  168ACC    H0I23919   6.234   5.872   6.939
  168ACC    H0J23920   6.227   5.935   6.776
  168ACC    H0K23921   6.455   6.131   6.829
  168ACC    H0M23922   6.442   6.039   6.680
  168ACC    H0N23923   6.590   6.030   6.775
  168ACC    H0O23924   6.441   5.712   6.830
  168ACC    H0P23925   6.557   5.803   6.743
  168ACC    H0Q23926   6.389   5.800   6.690
  169ACC    C0023927   1.914   2.484   2.205
  169ACC    C0123928   1.779   2.513   2.265
  169ACC    O0223929   1.718   2.618   2.240
  169ACC    O0323930   1.736   2.412   2.340
  169ACC    C0423931   1.616   2.427   2.414
  169ACC    C0523932   1.491   2.378   2.338
  169ACC    N0623933   1.362   2.394   2.414
  169ACC    C0723934   1.330   2.288   2.511
  169ACC    C0823935   1.362   2.519   2.489
  169ACC    C0923936   1.250   2.396   2.318
  169ACC    H0A23937   1.962   2.578   2.181
  169ACC    H0B23938   1.902   2.427   2.114
  169ACC    H0C23939   1.975   2.430   2.276
  169ACC    H0D23940   1.610   2.531   2.440
  169ACC    H0E23941   1.627   2.375   2.508
  169ACC    H0F23942   1.503   2.276   2.302
  169ACC    H0G23943   1.485   2.438   2.248
  169ACC    H0H23944   1.414   2.268   2.578
  169ACC    H0I23945   1.297   2.197   2.461
  169ACC    H0J23946   1.248   2.316   2.577
  169ACC    H0K23947   1.430   2.517   2.573
  169ACC    H0M23948   1.264   2.543   2.530
  169ACC    H0N23949   1.393   2.599   2.422
  169ACC    H0O23950   1.254   2.309   2.252
  169ACC    H0P23951   1.251   2.485   2.258
  169ACC    H0Q23952   1.153   2.394   2.368
  170ACC    C0023953   0.469   0.122   1.254
  170ACC    C0123954   0.570   0.222   1.212
  170ACC    O0223955   0.538   0.330   1.164
  170ACC    O0323956   0.691   0.175   1.232
  170ACC    C0423957   0.795   0.230   1.157
  170ACC    C0523958   0.842   0.361   1.220
  170ACC    N0623959   0.865   0.469   1.121
  170ACC    C0723960   0.940   0.422   1.002
  170ACC    C0823961   0.738   0.532   1.078
  170ACC    C0923962   0.946   0.572   1.187
  170ACC    H0A23963   0.471   0.114   1.361
  170ACC    H0B23964   0.494   0.026   1.209
  170ACC    H0C23965   0.371   0.154   1.220
  170ACC    H0D23966   0.759   0.239   1.055
  170ACC    H0E23967   0.876   0.158   1.155
  170ACC    H0F23968   0.933   0.337   1.275
  170ACC    H0G23969   0.772   0.394   1.297
  170ACC    H0H23970   0.876   0.372   0.931
  170ACC    H0I23971   1.021   0.353   1.028
  170ACC    H0J23972   0.985   0.505   0.948
  170ACC    H0K23973   0.677   0.462   1.021
  170ACC    H0M23974   0.755   0.617   1.012
  170ACC    H0N23975   0.679   0.564   1.164
  170ACC    H0O23976   1.044   0.529   1.204
  170ACC    H0P23977   0.906   0.603   1.283
  170ACC    H0Q23978   0.960   0.660   1.124
  171ACC    C0023979   4.764   0.608   1.483
  171ACC    C0123980   4.623   0.644   1.443
  171ACC    O0223981   4.529   0.568   1.466
  171ACC    O0323982   4.616   0.762   1.381
  171ACC    C0423983   4.491   0.806   1.332
  171ACC    C0523984   4.405   0.859   1.448
  171ACC    N0623985   4.265   0.894   1.411
  171ACC    C0723986   4.260   1.001   1.309
  171ACC    C0823987   4.193   0.773   1.364
  171ACC    C0923988   4.197   0.946   1.533
  171ACC    H0A23989   4.765   0.513   1.535
  171ACC    H0B23990   4.802   0.685   1.550
  171ACC    H0C23991   4.827   0.602   1.394
  171ACC    H0D23992   4.445   0.722   1.279
  171ACC    H0E23993   4.508   0.883   1.257
  171ACC    H0F23994   4.455   0.946   1.492
  171ACC    H0G23995   4.401   0.784   1.527
  171ACC    H0H23996   4.304   0.970   1.215
  171ACC    H0I23997   4.313   1.091   1.341
  171ACC    H0J23998   4.157   1.029   1.287
  171ACC    H0K23999   4.241   0.721   1.281
  171ACC    H0M24000   4.096   0.798   1.322
  171ACC    H0N24001   4.178   0.700   1.443
  171ACC    H0O24002   4.246   1.035   1.573
  171ACC    H0P24003   4.194   0.871   1.612
  171ACC    H0Q24004   4.094   0.974   1.513
  172ACC    C0024005   6.583   6.430   5.785
  172ACC    C0124006   6.726   6.391   5.809
  172ACC    O0224007   6.781   6.404   5.918
  172ACC    O0324008   6.780   6.333   5.702
  172ACC    C0424009   6.892   6.252   5.723
  172ACC    C0524010   6.837   6.122   5.781
  172ACC    N0624011   6.941   6.025   5.821
  172ACC    C0724012   7.035   5.993   5.711
  172ACC    C0824013   7.015   6.070   5.942
  172ACC    C0924014   6.867   5.903   5.857
  172ACC    H0A24015   6.548   6.488   5.870
  172ACC    H0B24016   6.523   6.338   5.779
  172ACC    H0C24017   6.574   6.487   5.693
  172ACC    H0D24018   6.963   6.302   5.789
  172ACC    H0E24019   6.940   6.234   5.628
  172ACC    H0F24020   6.771   6.079   5.705
  172ACC    H0G24021   6.773   6.142   5.867
  172ACC    H0H24022   7.095   6.077   5.680
  172ACC    H0I24023   6.981   5.959   5.623
  172ACC    H0J24024   7.105   5.915   5.742
  172ACC    H0K24025   7.067   6.164   5.926
  172ACC    H0M24026   7.091   5.997   5.971
  172ACC    H0N24027   6.950   6.085   6.028
  172ACC    H0O24028   6.785   5.880   5.790
  172ACC    H0P24029   6.829   5.907   5.958
  172ACC    H0Q24030   6.932   5.817   5.852
  173ACC    C0024031   2.153   2.783   1.734
  173ACC    C0124032   2.182   2.838   1.870
  173ACC    O0224033   2.231   2.949   1.884
  173ACC    O0324034   2.141   2.754   1.966
  173ACC    C0424035   2.138   2.797   2.099
  173ACC    C0524036   2.013   2.885   2.119
  173ACC    N0624037   2.038   3.013   2.190
  173ACC    C0724038   2.079   2.991   2.330
  173ACC    C0824039   2.142   3.092   2.120
  173ACC    C0924040   1.912   3.091   2.189
  173ACC    H0A24041   2.234   2.810   1.667
  173ACC    H0B24042   2.058   2.820   1.697
  173ACC    H0C24043   2.149   2.674   1.741
  173ACC    H0D24044   2.234   2.841   2.124
  173ACC    H0E24045   2.131   2.709   2.163
  173ACC    H0F24046   1.938   2.827   2.173
  173ACC    H0G24047   1.969   2.908   2.022
  173ACC    H0H24048   2.157   2.916   2.340
  173ACC    H0I24049   1.994   2.956   2.389
  173ACC    H0J24050   2.113   3.082   2.378
  173ACC    H0K24051   2.238   3.043   2.109
  173ACC    H0M24052   2.168   3.180   2.176
  173ACC    H0N24053   2.108   3.121   2.021
  173ACC    H0O24054   1.830   3.032   2.230
  173ACC    H0P24055   1.884   3.122   2.088
  173ACC    H0Q24056   1.918   3.181   2.250
  174ACC    C0024057   5.002   6.061   1.130
  174ACC    C0124058   5.138   6.125   1.138
  174ACC    O0224059   5.180   6.178   1.241
  174ACC    O0324060   5.207   6.110   1.025
  174ACC    C0424061   5.340   6.157   1.022
  174ACC    C0524062   5.432   6.044   1.071
  174ACC    N0624063   5.571   6.086   1.103
  174ACC    C0724064   5.631   6.169   0.996
  174ACC    C0824065   5.574   6.161   1.232
  174ACC    C0924066   5.653   5.963   1.118
  174ACC    H0A24067   4.957   6.058   1.230
  174ACC    H0B24068   5.010   5.958   1.094
  174ACC    H0C24069   4.938   6.118   1.064
  174ACC    H0D24070   5.348   6.248   1.081
  174ACC    H0E24071   5.363   6.184   0.919
  174ACC    H0F24072   5.432   5.965   0.995
  174ACC    H0G24073   5.389   5.998   1.160
  174ACC    H0H24074   5.582   6.266   0.986
  174ACC    H0I24075   5.626   6.116   0.901
  174ACC    H0J24076   5.736   6.188   1.018
  174ACC    H0K24077   5.511   6.249   1.230
  174ACC    H0M24078   5.676   6.192   1.257
  174ACC    H0N24079   5.538   6.099   1.313
  174ACC    H0O24080   5.653   5.906   1.025
  174ACC    H0P24081   5.613   5.898   1.195
  174ACC    H0Q24082   5.757   5.985   1.142
  175ACC    C0024083   4.442   0.987   3.450
  175ACC    C0124084   4.315   0.922   3.404
  175ACC    O0224085   4.221   0.896   3.480
  175ACC    O0324086   4.315   0.905   3.271
  175ACC    C0424087   4.193   0.874   3.207
  175ACC    C0524088   4.111   1.003   3.208
  175ACC    N0624089   3.963   0.986   3.212
  175ACC    C0724090   3.914   0.938   3.081
  175ACC    C0824091   3.918   0.897   3.322
  175ACC    C0924092   3.910   1.120   3.239
  175ACC    H0A24093   4.450   0.979   3.558
  175ACC    H0B24094   4.439   1.093   3.422
  175ACC    H0C24095   4.527   0.939   3.403
  175ACC    H0D24096   4.147   0.790   3.258
  175ACC    H0E24097   4.213   0.843   3.104
  175ACC    H0F24098   4.141   1.063   3.122
  175ACC    H0G24099   4.140   1.065   3.294
  175ACC    H0H24100   3.954   0.838   3.059
  175ACC    H0I24101   3.945   1.002   2.999
  175ACC    H0J24102   3.805   0.931   3.079
  175ACC    H0K24103   3.936   0.792   3.299
  175ACC    H0M24104   3.811   0.907   3.339
  175ACC    H0N24105   3.969   0.922   3.414
  175ACC    H0O24106   3.956   1.191   3.170
  175ACC    H0P24107   3.934   1.157   3.338
  175ACC    H0Q24108   3.802   1.122   3.227
  176ACC    C0024109   4.358   2.137   4.247
  176ACC    C0124110   4.442   2.182   4.362
  176ACC    O0224111   4.427   2.136   4.475
  176ACC    O0324112   4.533   2.274   4.327
  176ACC    C0424113   4.628   2.314   4.424
  176ACC    C0524114   4.734   2.205   4.439
  176ACC    N0624115   4.771   2.176   4.581
  176ACC    C0724116   4.817   2.297   4.654
  176ACC    C0824117   4.660   2.113   4.656
  176ACC    C0924118   4.881   2.078   4.574
  176ACC    H0A24119   4.286   2.062   4.281
  176ACC    H0B24120   4.421   2.092   4.170
  176ACC    H0C24121   4.303   2.221   4.205
  176ACC    H0D24122   4.578   2.333   4.518
  176ACC    H0E24123   4.672   2.409   4.395
  176ACC    H0F24124   4.821   2.234   4.381
  176ACC    H0G24125   4.699   2.112   4.392
  176ACC    H0H24126   4.738   2.371   4.664
  176ACC    H0I24127   4.901   2.346   4.604
  176ACC    H0J24128   4.847   2.271   4.756
  176ACC    H0K24129   4.579   2.182   4.678
  176ACC    H0M24130   4.694   2.076   4.753
  176ACC    H0N24131   4.617   2.028   4.602
  176ACC    H0O24132   4.968   2.118   4.522
  176ACC    H0P24133   4.850   1.988   4.521
  176ACC    H0Q24134   4.908   2.049   4.675
  177ACC    C0024135   4.298   4.326   3.590
  177ACC    C0124136   4.177   4.370   3.668
  177ACC    O0224137   4.105   4.462   3.631
  177ACC    O0324138   4.162   4.300   3.781
  177ACC    C0424139   4.071   4.350   3.878
  177ACC    C0524140   3.924   4.325   3.837
  177ACC    N0624141   3.832   4.435   3.877
  177ACC    C0724142   3.844   4.468   4.022
  177ACC    C0824143   3.856   4.557   3.795
  177ACC    C0924144   3.693   4.391   3.852
  177ACC    H0A24145   4.289   4.357   3.486
  177ACC    H0B24146   4.309   4.217   3.595
  177ACC    H0C24147   4.388   4.371   3.631
  177ACC    H0D24148   4.095   4.455   3.893
  177ACC    H0E24149   4.092   4.300   3.972
  177ACC    H0F24150   3.893   4.230   3.881
  177ACC    H0G24151   3.917   4.310   3.729
  177ACC    H0H24152   3.942   4.507   4.049
  177ACC    H0I24153   3.825   4.379   4.084
  177ACC    H0J24154   3.770   4.543   4.052
  177ACC    H0K24155   3.957   4.596   3.805
  177ACC    H0M24156   3.789   4.638   3.823
  177ACC    H0N24157   3.842   4.537   3.689
  177ACC    H0O24158   3.666   4.306   3.915
  177ACC    H0P24159   3.678   4.362   3.748
  177ACC    H0Q24160   3.622   4.471   3.875
  178ACC    C0024161   1.268   5.208   2.351
  178ACC    C0124162   1.303   5.069   2.303
  178ACC    O0224163   1.403   5.048   2.236
  178ACC    O0324164   1.212   4.980   2.343
  178ACC    C0424165   1.190   4.854   2.281
  178ACC    C0524166   1.311   4.779   2.223
  178ACC    N0624167   1.281   4.643   2.169
  178ACC    C0724168   1.218   4.552   2.268
  178ACC    C0824169   1.192   4.649   2.051
  178ACC    C0924170   1.410   4.585   2.123
  178ACC    H0A24171   1.173   5.240   2.309
  178ACC    H0B24172   1.343   5.281   2.321
  178ACC    H0C24173   1.260   5.210   2.460
  178ACC    H0D24174   1.115   4.869   2.204
  178ACC    H0E24175   1.140   4.795   2.357
  178ACC    H0F24176   1.392   4.776   2.296
  178ACC    H0G24177   1.352   4.838   2.140
  178ACC    H0H24178   1.124   4.589   2.308
  178ACC    H0I24179   1.284   4.527   2.351
  178ACC    H0J24180   1.194   4.456   2.222
  178ACC    H0K24181   1.093   4.687   2.077
  178ACC    H0M24182   1.176   4.549   2.009
  178ACC    H0N24183   1.236   4.710   1.973
  178ACC    H0O24184   1.466   4.541   2.205
  178ACC    H0P24185   1.473   4.658   2.073
  178ACC    H0Q24186   1.395   4.503   2.053
  179ACC    C0024187   2.848   3.650   2.499
  179ACC    C0124188   2.905   3.709   2.626
  179ACC    O0224189   2.968   3.640   2.706
  179ACC    O0324190   2.880   3.840   2.634
  179ACC    C0424191   2.956   3.921   2.722
  179ACC    C0524192   3.004   4.039   2.635
  179ACC    N0624193   3.131   4.105   2.676
  179ACC    C0724194   3.123   4.162   2.812
  179ACC    C0824195   3.248   4.016   2.662
  179ACC    C0924196   3.158   4.218   2.584
  179ACC    H0A24197   2.903   3.560   2.473
  179ACC    H0B24198   2.861   3.722   2.419
  179ACC    H0C24199   2.743   3.629   2.512
  179ACC    H0D24200   3.037   3.864   2.767
  179ACC    H0E24201   2.893   3.954   2.804
  179ACC    H0F24202   2.922   4.111   2.630
  179ACC    H0G24203   3.016   4.003   2.532
  179ACC    H0H24204   3.098   4.087   2.887
  179ACC    H0I24205   3.052   4.243   2.816
  179ACC    H0J24206   3.218   4.208   2.841
  179ACC    H0K24207   3.230   3.916   2.702
  179ACC    H0M24208   3.337   4.056   2.711
  179ACC    H0N24209   3.277   4.001   2.558
  179ACC    H0O24210   3.080   4.294   2.589
  179ACC    H0P24211   3.163   4.182   2.481
  179ACC    H0Q24212   3.253   4.266   2.607
  180ACC    C0024213   6.805   2.636   6.932
  180ACC    C0124214   6.781   2.580   6.794
  180ACC    O0224215   6.735   2.468   6.780
  180ACC    O0324216   6.820   2.662   6.696
  180ACC    C0424217   6.831   2.615   6.563
  180ACC    C0524218   6.697   2.566   6.503
  180ACC    N0624219   6.707   2.496   6.371
  180ACC    C0724220   6.752   2.588   6.265
  180ACC    C0824221   6.797   2.378   6.375
  180ACC    C0924222   6.573   2.442   6.338
  180ACC    H0A24223   6.732   2.596   7.001
  180ACC    H0B24224   6.799   2.744   6.931
  180ACC    H0C24225   6.904   2.603   6.965
  180ACC    H0D24226   6.906   2.537   6.563
  180ACC    H0E24227   6.871   2.696   6.503
  180ACC    H0F24228   6.629   2.651   6.497
  180ACC    H0G24229   6.647   2.498   6.571
  180ACC    H0H24230   6.856   2.619   6.279
  180ACC    H0I24231   6.691   2.678   6.260
  180ACC    H0J24232   6.747   2.540   6.167
  180ACC    H0K24233   6.902   2.403   6.393
  180ACC    H0M24234   6.795   2.322   6.281
  180ACC    H0N24235   6.763   2.309   6.452
  180ACC    H0O24236   6.502   2.521   6.321
  180ACC    H0P24237   6.532   2.381   6.419
  180ACC    H0Q24238   6.574   2.380   6.248
  181ACC    C0024239   2.846   1.368   7.008
  181ACC    C0124240   2.936   1.347   7.127
  181ACC    O0224241   3.030   1.421   7.149
  181ACC    O0324242   2.893   1.250   0.017
  181ACC    C0424243   2.977   1.201   0.118
  181ACC    C0524244   2.966   1.294   0.239
  181ACC    N0624245   3.034   1.256   0.366
  181ACC    C0724246   2.997   1.117   0.401
  181ACC    C0824247   3.182   1.270   0.368
  181ACC    C0924248   2.984   1.360   0.460
  181ACC    H0A24249   2.896   1.433   6.938
  181ACC    H0B24250   2.754   1.415   7.040
  181ACC    H0C24251   2.826   1.273   6.960
  181ACC    H0D24252   3.078   1.193   0.080
  181ACC    H0E24253   2.941   1.100   0.136
  181ACC    H0F24254   2.860   1.295   0.259
  181ACC    H0G24255   2.996   1.394   0.210
  181ACC    H0H24256   3.017   1.047   0.320
  181ACC    H0I24257   2.891   1.106   0.424
  181ACC    H0J24258   3.056   1.076   0.482
  181ACC    H0K24259   3.233   1.182   0.405
  181ACC    H0M24260   3.218   1.348   0.435
  181ACC    H0N24261   3.223   1.291   0.271
  181ACC    H0O24262   2.877   1.364   0.472
  181ACC    H0P24263   3.009   1.459   0.423
  181ACC    H0Q24264   3.028   1.355   0.559
  182ACC    C0024265   4.254   5.948   6.604
  182ACC    C0124266   4.337   5.823   6.600
  182ACC    O0224267   4.331   5.745   6.504
  182ACC    O0324268   4.418   5.812   6.705
  182ACC    C0424269   4.526   5.721   6.696
  182ACC    C0524270   4.626   5.786   6.600
  182ACC    N0624271   4.727   5.695   6.541
  182ACC    C0724272   4.815   5.641   6.647
  182ACC    C0824273   4.662   5.587   6.463
  182ACC    C0924274   4.807   5.777   6.446
  182ACC    H0A24275   4.313   6.028   6.560
  182ACC    H0B24276   4.229   5.973   6.707
  182ACC    H0C24277   4.164   5.935   6.545
  182ACC    H0D24278   4.489   5.624   6.662
  182ACC    H0E24279   4.570   5.707   6.795
  182ACC    H0F24280   4.674   5.870   6.651
  182ACC    H0G24281   4.574   5.831   6.516
  182ACC    H0H24282   4.762   5.572   6.714
  182ACC    H0I24283   4.853   5.722   6.710
  182ACC    H0J24284   4.901   5.588   6.608
  182ACC    H0K24285   4.622   5.508   6.527
  182ACC    H0M24286   4.731   5.541   6.393
  182ACC    H0N24287   4.580   5.626   6.403
  182ACC    H0O24288   4.835   5.872   6.490
  182ACC    H0P24289   4.749   5.805   6.359
  182ACC    H0Q24290   4.896   5.726   6.411
  183ACC    C0024291   5.672   1.209   6.046
  183ACC    C0124292   5.722   1.153   6.177
  183ACC    O0224293   5.664   1.174   6.283
  183ACC    O0324294   5.829   1.076   6.160
  183ACC    C0424295   5.877   1.006   6.272
  183ACC    C0524296   5.781   0.889   6.304
  183ACC    N0624297   5.759   0.861   6.449
  183ACC    C0724298   5.887   0.827   6.515
  183ACC    C0824299   5.692   0.975   6.517
  183ACC    C0924300   5.669   0.744   6.459
  183ACC    H0A24301   5.573   1.251   6.060
  183ACC    H0B24302   5.659   1.128   5.976
  183ACC    H0C24303   5.740   1.284   6.007
  183ACC    H0D24304   5.890   1.076   6.354
  183ACC    H0E24305   5.977   0.967   6.251
  183ACC    H0F24306   5.822   0.800   6.256
  183ACC    H0G24307   5.684   0.904   6.257
  183ACC    H0H24308   5.964   0.903   6.502
  183ACC    H0I24309   5.926   0.735   6.472
  183ACC    H0J24310   5.875   0.809   6.621
  183ACC    H0K24311   5.755   1.064   6.519
  183ACC    H0M24312   5.667   0.951   6.620
  183ACC    H0N24313   5.600   1.002   6.465
  183ACC    H0O24314   5.713   0.656   6.413
  183ACC    H0P24315   5.574   0.762   6.407
  183ACC    H0Q24316   5.645   0.718   6.562
  184ACC    C0024317   4.008   2.305   1.871
  184ACC    C0124318   3.949   2.391   1.980
  184ACC    O0224319   3.895   2.345   2.081
  184ACC    O0324320   3.965   2.520   1.953
  184ACC    C0424321   3.905   2.615   2.039
  184ACC    C0524322   3.979   2.621   2.173
  184ACC    N0624323   3.905   2.694   2.279
  184ACC    C0724324   3.869   2.831   2.235
  184ACC    C0824325   3.781   2.620   2.317
  184ACC    C0924326   3.992   2.702   2.398
  184ACC    H0A24327   4.026   2.205   1.909
  184ACC    H0B24328   4.100   2.348   1.834
  184ACC    H0C24329   3.935   2.299   1.790
  184ACC    H0D24330   3.800   2.588   2.050
  184ACC    H0E24331   3.909   2.712   1.989
  184ACC    H0F24332   4.077   2.666   2.155
  184ACC    H0G24333   4.000   2.520   2.209
  184ACC    H0H24334   3.794   2.831   2.156
  184ACC    H0I24335   3.955   2.887   2.199
  184ACC    H0J24336   3.824   2.888   2.317
  184ACC    H0K24337   3.705   2.624   2.240
  184ACC    H0M24338   3.734   2.666   2.404
  184ACC    H0N24339   3.799   2.515   2.341
  184ACC    H0O24340   4.084   2.755   2.376
  184ACC    H0P24341   4.018   2.603   2.435
  184ACC    H0Q24342   3.942   2.755   2.479
  185ACC    C0024343   6.145   0.694   5.991
  185ACC    C0124344   6.163   0.719   5.844
  185ACC    O0224345   6.242   0.803   5.803
  185ACC    O0324346   6.086   0.640   5.769
  185ACC    C0424347   6.090   0.662   5.630
  185ACC    C0524348   6.214   0.598   5.566
  185ACC    N0624349   6.253   0.661   5.437
  185ACC    C0724350   6.137   0.698   5.354
  185ACC    C0824351   6.331   0.783   5.460
  185ACC    C0924352   6.338   0.570   5.359
  185ACC    H0A24353   6.187   0.776   6.048
  185ACC    H0B24354   6.196   0.603   6.021
  185ACC    H0C24355   6.040   0.685   6.019
  185ACC    H0D24356   6.091   0.769   5.614
  185ACC    H0E24357   6.000   0.627   5.583
  185ACC    H0F24358   6.191   0.492   5.552
  185ACC    H0G24359   6.299   0.602   5.634
  185ACC    H0H24360   6.166   0.735   5.256
  185ACC    H0I24361   6.074   0.776   5.396
  185ACC    H0J24362   6.078   0.609   5.340
  185ACC    H0K24363   6.274   0.856   5.516
  185ACC    H0M24364   6.355   0.827   5.364
  185ACC    H0N24365   6.425   0.765   5.511
  185ACC    H0O24366   6.280   0.483   5.328
  185ACC    H0P24367   6.424   0.541   5.418
  185ACC    H0Q24368   6.373   0.617   5.267
  186ACC    C0024369   2.994   6.782   4.756
  186ACC    C0124370   2.896   6.696   4.824
  186ACC    O0224371   2.810   6.743   4.898
  186ACC    O0324372   2.909   6.571   4.783
  186ACC    C0424373   2.797   6.489   4.789
  186ACC    C0524374   2.702   6.540   4.679
  186ACC    N0624375   2.570   6.473   4.677
  186ACC    C0724376   2.581   6.335   4.625
  186ACC    C0824377   2.515   6.474   4.814
  186ACC    C0924378   2.482   6.551   4.586
  186ACC    H0A24379   2.971   6.886   4.775
  186ACC    H0B24380   2.986   6.767   4.648
  186ACC    H0C24381   3.094   6.756   4.790
  186ACC    H0D24382   2.756   6.497   4.890
  186ACC    H0E24383   2.827   6.385   4.772
  186ACC    H0F24384   2.750   6.533   4.581
  186ACC    H0G24385   2.684   6.647   4.694
  186ACC    H0H24386   2.638   6.270   4.691
  186ACC    H0I24387   2.626   6.333   4.526
  186ACC    H0J24388   2.483   6.288   4.614
  186ACC    H0K24389   2.565   6.405   4.882
  186ACC    H0M24390   2.414   6.438   4.813
  186ACC    H0N24391   2.515   6.573   4.860
  186ACC    H0O24392   2.526   6.562   4.487
  186ACC    H0P24393   2.462   6.652   4.624
  186ACC    H0Q24394   2.385   6.504   4.571
  187ACC    C0024395   4.341   4.693   0.012
  187ACC    C0124396   4.387   4.720   7.061
  187ACC    O0224397   4.414   4.833   7.021
  187ACC    O0324398   4.400   4.607   6.992
  187ACC    C0424399   4.480   4.608   6.877
  187ACC    C0524400   4.625   4.612   6.929
  187ACC    N0624401   4.727   4.635   6.826
  187ACC    C0724402   4.726   4.527   6.723
  187ACC    C0824403   4.707   4.767   6.762
  187ACC    C0924404   4.858   4.630   6.895
  187ACC    H0A24405   4.331   4.787   0.065
  187ACC    H0B24406   4.413   4.630   0.063
  187ACC    H0C24407   4.245   4.642   0.008
  187ACC    H0D24408   4.454   4.694   6.815
  187ACC    H0E24409   4.461   4.518   6.819
  187ACC    H0F24410   4.644   4.517   6.981
  187ACC    H0G24411   4.636   4.689   7.005
  187ACC    H0H24412   4.642   4.536   6.654
  187ACC    H0I24413   4.721   4.428   6.768
  187ACC    H0J24414   4.816   4.530   6.663
  187ACC    H0K24415   4.618   4.771   6.700
  187ACC    H0M24416   4.787   4.790   6.693
  187ACC    H0N24417   4.702   4.848   6.835
  187ACC    H0O24418   4.873   4.535   6.945
  187ACC    H0P24419   4.866   4.706   6.974
  187ACC    H0Q24420   4.940   4.642   6.825
  188ACC    C0024421   0.407   0.155   4.612
  188ACC    C0124422   0.359   0.265   4.703
  188ACC    O0224423   0.242   0.302   4.703
  188ACC    O0324424   0.454   0.313   4.783
  188ACC    C0424425   0.417   0.408   4.882
  188ACC    C0524426   0.360   0.332   5.003
  188ACC    N0624427   0.243   0.392   5.069
  188ACC    C0724428   0.273   0.532   5.109
  188ACC    C0824429   0.129   0.382   4.976
  188ACC    C0924430   0.215   0.311   5.191
  188ACC    H0A24431   0.322   0.111   4.560
  188ACC    H0B24432   0.458   0.078   4.670
  188ACC    H0C24433   0.476   0.195   4.537
  188ACC    H0D24434   0.349   0.480   4.839
  188ACC    H0E24435   0.507   0.462   4.911
  188ACC    H0F24436   0.438   0.322   5.078
  188ACC    H0G24437   0.329   0.232   4.971
  188ACC    H0H24438   0.279   0.599   5.024
  188ACC    H0I24439   0.366   0.537   5.165
  188ACC    H0J24440   0.198   0.571   5.177
  188ACC    H0K24441   0.140   0.443   4.887
  188ACC    H0M24442   0.038   0.415   5.022
  188ACC    H0N24443   0.110   0.279   4.942
  188ACC    H0O24444   0.296   0.319   5.264
  188ACC    H0P24445   0.200   0.206   5.168
  188ACC    H0Q24446   0.127   0.346   5.243
  189ACC    C0024447   5.925   1.674   3.177
  189ACC    C0124448   5.981   1.787   3.101
  189ACC    O0224449   5.936   1.901   3.109
  189ACC    O0324450   6.079   1.744   3.026
  189ACC    C0424451   6.155   1.836   2.957
  189ACC    C0524452   6.241   1.914   3.057
  189ACC    N0624453   6.354   1.986   2.994
  189ACC    C0724454   6.461   1.887   2.973
  189ACC    C0824455   6.313   2.049   2.866
  189ACC    C0924456   6.404   2.094   3.082
  189ACC    H0A24457   5.872   1.713   3.264
  189ACC    H0B24458   6.007   1.610   3.207
  189ACC    H0C24459   5.860   1.619   3.111
  189ACC    H0D24460   6.091   1.903   2.901
  189ACC    H0E24461   6.214   1.779   2.886
  189ACC    H0F24462   6.277   1.846   3.135
  189ACC    H0G24463   6.174   1.983   3.109
  189ACC    H0H24464   6.423   1.790   2.944
  189ACC    H0I24465   6.521   1.868   3.063
  189ACC    H0J24466   6.525   1.921   2.892
  189ACC    H0K24467   6.289   1.976   2.789
  189ACC    H0M24468   6.393   2.112   2.825
  189ACC    H0N24469   6.225   2.112   2.882
  189ACC    H0O24470   6.509   2.086   3.106
  189ACC    H0P24471   6.348   2.098   3.176
  189ACC    H0Q24472   6.388   2.195   3.042
  190ACC    C0024473   0.289   0.393   5.821
  190ACC    C0124474   0.281   0.443   5.960
  190ACC    O0224475   0.178   0.491   6.007
  190ACC    O0324476   0.394   0.422   6.023
  190ACC    C0424477   0.403   0.464   6.155
  190ACC    C0524478   0.324   0.366   6.243
  190ACC    N0624479   0.265   0.431   6.363
  190ACC    C0724480   0.370   0.504   6.438
  190ACC    C0824481   0.154   0.521   6.325
  190ACC    C0924482   0.209   0.324   6.449
  190ACC    H0A24483   0.188   0.400   5.786
  190ACC    H0B24484   0.322   0.290   5.818
  190ACC    H0C24485   0.350   0.453   5.753
  190ACC    H0D24486   0.370   0.567   6.160
  190ACC    H0E24487   0.508   0.465   6.183
  190ACC    H0F24488   0.392   0.286   6.271
  190ACC    H0G24489   0.244   0.317   6.187
  190ACC    H0H24490   0.408   0.589   6.382
  190ACC    H0I24491   0.456   0.439   6.459
  190ACC    H0J24492   0.332   0.545   6.531
  190ACC    H0K24493   0.186   0.601   6.258
  190ACC    H0M24494   0.111   0.571   6.412
  190ACC    H0N24495   0.074   0.468   6.273
  190ACC    H0O24496   0.288   0.255   6.477
  190ACC    H0P24497   0.133   0.265   6.397
  190ACC    H0Q24498   0.165   0.365   6.539
  191ACC    C0024499   3.230   4.236   2.202
  191ACC    C0124500   3.083   4.202   2.199
  191ACC    O0224501   3.003   4.248   2.280
  191ACC    O0324502   3.054   4.120   2.100
  191ACC    C0424503   2.924   4.068   2.087
  191ACC    C0524504   2.845   4.159   1.993
  191ACC    N0624505   2.713   4.104   1.952
  191ACC    C0724506   2.724   3.971   1.887
  191ACC    C0824507   2.624   4.092   2.070
  191ACC    C0924508   2.655   4.198   1.854
  191ACC    H0A24509   3.242   4.342   2.224
  191ACC    H0B24510   3.276   4.213   2.106
  191ACC    H0C24511   3.279   4.177   2.279
  191ACC    H0D24512   2.876   4.053   2.184
  191ACC    H0E24513   2.933   3.970   2.043
  191ACC    H0F24514   2.907   4.176   1.905
  191ACC    H0G24515   2.833   4.256   2.042
  191ACC    H0H24516   2.740   3.891   1.958
  191ACC    H0I24517   2.805   3.966   1.815
  191ACC    H0J24518   2.633   3.946   1.833
  191ACC    H0K24519   2.657   4.013   2.138
  191ACC    H0M24520   2.523   4.066   2.041
  191ACC    H0N24521   2.619   4.185   2.127
  191ACC    H0O24522   2.718   4.205   1.764
  191ACC    H0P24523   2.647   4.299   1.896
  191ACC    H0Q24524   2.556   4.167   1.821
  192ACC    C0024525   2.919   1.550   6.232
  192ACC    C0124526   2.858   1.516   6.099
  192ACC    O0224527   2.902   1.562   5.994
  192ACC    O0324528   2.756   1.433   6.107
  192ACC    C0424529   2.702   1.379   5.989
  192ACC    C0524530   2.743   1.231   5.980
  192ACC    N0624531   2.847   1.198   5.878
  192ACC    C0724532   2.814   1.253   5.745
  192ACC    C0824533   2.982   1.237   5.923
  192ACC    C0924534   2.854   1.052   5.864
  192ACC    H0A24535   3.018   1.504   6.238
  192ACC    H0B24536   2.859   1.508   6.312
  192ACC    H0C24537   2.928   1.657   6.244
  192ACC    H0D24538   2.724   1.439   5.901
  192ACC    H0E24539   2.594   1.385   5.998
  192ACC    H0F24540   2.652   1.175   5.957
  192ACC    H0G24541   2.774   1.197   6.079
  192ACC    H0H24542   2.832   1.360   5.738
  192ACC    H0I24543   2.709   1.236   5.720
  192ACC    H0J24544   2.874   1.205   5.668
  192ACC    H0K24545   2.991   1.342   5.947
  192ACC    H0M24546   3.056   1.214   5.846
  192ACC    H0N24547   3.013   1.184   6.014
  192ACC    H0O24548   2.764   1.020   5.813
  192ACC    H0P24549   2.861   1.001   5.961
  192ACC    H0Q24550   2.939   1.019   5.804
  193ACC    C0024551   3.785   0.317   1.124
  193ACC    C0124552   3.784   0.466   1.129
  193ACC    O0224553   3.816   0.527   1.230
  193ACC    O0324554   3.750   0.520   1.012
  193ACC    C0424555   3.719   0.657   1.010
  193ACC    C0524556   3.846   0.743   1.024
  193ACC    N0624557   3.820   0.889   1.037
  193ACC    C0724558   3.757   0.944   0.914
  193ACC    C0824559   3.732   0.918   1.153
  193ACC    C0924560   3.951   0.954   1.060
  193ACC    H0A24561   3.796   0.281   1.225
  193ACC    H0B24562   3.871   0.284   1.067
  193ACC    H0C24563   3.691   0.280   1.084
  193ACC    H0D24564   3.648   0.675   1.092
  193ACC    H0E24565   3.665   0.678   0.918
  193ACC    H0F24566   3.911   0.722   0.939
  193ACC    H0G24567   3.903   0.711   1.111
  193ACC    H0H24568   3.658   0.902   0.899
  193ACC    H0I24569   3.817   0.922   0.826
  193ACC    H0J24570   3.744   1.052   0.921
  193ACC    H0K24571   3.629   0.891   1.132
  193ACC    H0M24572   3.730   1.024   1.178
  193ACC    H0N24573   3.761   0.862   1.241
  193ACC    H0O24574   4.023   0.931   0.980
  193ACC    H0P24575   3.995   0.918   1.153
  193ACC    H0Q24576   3.941   1.062   1.067
  194ACC    C0024577   2.244   3.964   6.012
  194ACC    C0124578   2.261   3.993   6.159
  194ACC    O0224579   2.165   4.012   6.234
  194ACC    O0324580   2.389   3.991   6.193
  194ACC    C0424581   2.428   3.990   6.329
  194ACC    C0524582   2.510   3.863   6.356
  194ACC    N0624583   2.428   3.749   6.403
  194ACC    C0724584   2.371   3.779   6.535
  194ACC    C0824585   2.321   3.714   6.307
  194ACC    C0924586   2.514   3.630   6.419
  194ACC    H0A24587   2.139   3.958   5.985
  194ACC    H0B24588   2.292   3.868   5.993
  194ACC    H0C24589   2.293   4.041   5.952
  194ACC    H0D24590   2.344   3.998   6.396
  194ACC    H0E24591   2.491   4.076   6.345
  194ACC    H0F24592   2.588   3.884   6.430
  194ACC    H0G24593   2.564   3.836   6.266
  194ACC    H0H24594   2.281   3.841   6.532
  194ACC    H0I24595   2.444   3.825   6.600
  194ACC    H0J24596   2.344   3.686   6.579
  194ACC    H0K24597   2.231   3.774   6.319
  194ACC    H0M24598   2.292   3.610   6.315
  194ACC    H0N24599   2.353   3.727   6.204
  194ACC    H0O24600   2.570   3.639   6.512
  194ACC    H0P24601   2.587   3.621   6.338
  194ACC    H0Q24602   2.461   3.535   6.425
  195ACC    C0024603   3.213   2.528   3.678
  195ACC    C0124604   3.125   2.590   3.572
  195ACC    O0224605   3.012   2.549   3.547
  195ACC    O0324606   3.187   2.692   3.514
  195ACC    C0424607   3.122   2.771   3.419
  195ACC    C0524608   3.062   2.891   3.493
  195ACC    N0624609   2.936   2.944   3.434
  195ACC    C0724610   2.937   2.973   3.289
  195ACC    C0824611   2.836   2.841   3.462
  195ACC    C0924612   2.896   3.070   3.499
  195ACC    H0A24613   3.168   2.441   3.723
  195ACC    H0B24614   3.229   2.600   3.757
  195ACC    H0C24615   3.308   2.498   3.636
  195ACC    H0D24616   3.051   2.710   3.362
  195ACC    H0E24617   3.196   2.803   3.346
  195ACC    H0F24618   3.136   2.969   3.503
  195ACC    H0G24619   3.042   2.863   3.597
  195ACC    H0H24620   2.972   2.888   3.231
  195ACC    H0I24621   2.996   3.062   3.267
  195ACC    H0J24622   2.837   2.994   3.251
  195ACC    H0K24623   2.856   2.743   3.418
  195ACC    H0M24624   2.744   2.874   3.422
  195ACC    H0N24625   2.825   2.826   3.568
  195ACC    H0O24626   2.963   3.152   3.480
  195ACC    H0P24627   2.885   3.057   3.607
  195ACC    H0Q24628   2.801   3.104   3.458
  196ACC    C0024629   1.754   2.714   3.189
  196ACC    C0124630   1.680   2.721   3.059
  196ACC    O0224631   1.558   2.735   3.054
  196ACC    O0324632   1.763   2.716   2.956
  196ACC    C0424633   1.705   2.711   2.829
  196ACC    C0524634   1.646   2.849   2.792
  196ACC    N0624635   1.533   2.840   2.696
  196ACC    C0724636   1.579   2.769   2.576
  196ACC    C0824637   1.414   2.771   2.755
  196ACC    C0924638   1.491   2.978   2.660
  196ACC    H0A24639   1.682   2.713   3.270
  196ACC    H0B24640   1.818   2.802   3.198
  196ACC    H0C24641   1.814   2.623   3.193
  196ACC    H0D24642   1.631   2.631   2.830
  196ACC    H0E24643   1.781   2.682   2.757
  196ACC    H0F24644   1.726   2.910   2.752
  196ACC    H0G24645   1.612   2.901   2.882
  196ACC    H0H24646   1.611   2.667   2.599
  196ACC    H0I24647   1.664   2.819   2.529
  196ACC    H0J24648   1.499   2.761   2.503
  196ACC    H0K24649   1.431   2.665   2.770
  196ACC    H0M24650   1.327   2.777   2.689
  196ACC    H0N24651   1.386   2.811   2.852
  196ACC    H0O24652   1.571   3.031   2.608
  196ACC    H0P24653   1.466   3.038   2.747
  196ACC    H0Q24654   1.401   2.977   2.598
  197ACC    C0024655   5.472   4.630   3.527
  197ACC    C0124656   5.578   4.624   3.631
  197ACC    O0224657   5.687   4.574   3.606
  197ACC    O0324658   5.535   4.670   3.748
  197ACC    C0424659   5.627   4.692   3.852
  197ACC    C0524660   5.669   4.838   3.840
  197ACC    N0624661   5.808   4.865   3.792
  197ACC    C0724662   5.900   4.872   3.908
  197ACC    C0824663   5.867   4.770   3.695
  197ACC    C0924664   5.805   4.993   3.719
  197ACC    H0A24665   5.459   4.732   3.493
  197ACC    H0B24666   5.378   4.597   3.571
  197ACC    H0C24667   5.500   4.570   3.441
  197ACC    H0D24668   5.708   4.620   3.855
  197ACC    H0E24669   5.572   4.680   3.946
  197ACC    H0F24670   5.657   4.880   3.939
  197ACC    H0G24671   5.593   4.889   3.783
  197ACC    H0H24672   5.877   4.795   3.979
  197ACC    H0I24673   5.890   4.963   3.965
  197ACC    H0J24674   6.005   4.862   3.882
  197ACC    H0K24675   5.873   4.668   3.731
  197ACC    H0M24676   5.970   4.796   3.672
  197ACC    H0N24677   5.813   4.771   3.600
  197ACC    H0O24678   5.815   5.079   3.784
  197ACC    H0P24679   5.717   5.003   3.658
  197ACC    H0Q24680   5.886   5.003   3.648
  198ACC    C0024681   0.475   6.548   3.409
  198ACC    C0124682   0.562   6.495   3.518
  198ACC    O0224683   0.533   6.507   3.637
  198ACC    O0324684   0.668   6.436   3.466
  198ACC    C0424685   0.751   6.356   3.545
  198ACC    C0524686   0.779   6.239   3.452
  198ACC    N0624687   0.850   6.124   3.514
  198ACC    C0724688   0.990   6.152   3.546
  198ACC    C0824689   0.782   6.072   3.635
  198ACC    C0924690   0.851   6.020   3.410
  198ACC    H0A24691   0.371   6.530   3.434
  198ACC    H0B24692   0.497   6.499   3.315
  198ACC    H0C24693   0.495   6.652   3.397
  198ACC    H0D24694   0.703   6.327   3.638
  198ACC    H0E24695   0.841   6.412   3.570
  198ACC    H0F24696   0.832   6.276   3.365
  198ACC    H0G24697   0.682   6.204   3.416
  198ACC    H0H24698   1.002   6.239   3.610
  198ACC    H0I24699   1.046   6.168   3.455
  198ACC    H0J24700   1.039   6.070   3.598
  198ACC    H0K24701   0.793   6.140   3.719
  198ACC    H0M24702   0.824   5.977   3.667
  198ACC    H0N24703   0.675   6.059   3.619
  198ACC    H0O24704   0.887   6.055   3.313
  198ACC    H0P24705   0.749   5.983   3.394
  198ACC    H0Q24706   0.913   5.935   3.439
  199ACC    C0024707   5.930   6.332   0.890
  199ACC    C0124708   5.865   6.454   0.829
  199ACC    O0224709   5.748   6.483   0.855
  199ACC    O0324710   5.945   6.513   0.740
  199ACC    C0424711   5.906   6.633   0.676
  199ACC    C0524712   6.027   6.728   0.687
  199ACC    N0624713   6.005   6.869   0.647
  199ACC    C0724714   5.953   6.881   0.510
  199ACC    C0824715   5.916   6.933   0.743
  199ACC    C0924716   6.129   6.950   0.656
  199ACC    H0A24717   5.907   6.329   0.996
  199ACC    H0B24718   6.039   6.341   0.883
  199ACC    H0C24719   5.898   6.239   0.843
  199ACC    H0D24720   5.815   6.672   0.719
  199ACC    H0E24721   5.882   6.614   0.573
  199ACC    H0F24722   6.105   6.686   0.624
  199ACC    H0G24723   6.060   6.726   0.791
  199ACC    H0H24724   5.867   6.817   0.490
  199ACC    H0I24725   6.029   6.855   0.437
  199ACC    H0J24726   5.922   6.983   0.489
  199ACC    H0K24727   5.832   6.869   0.757
  199ACC    H0M24728   5.883   7.033   0.715
  199ACC    H0N24729   5.960   6.943   0.842
  199ACC    H0O24730   6.211   6.907   0.599
  199ACC    H0P24731   6.159   6.965   0.759
  199ACC    H0Q24732   6.111   7.052   0.620
  200ACC    C0024733   4.218   5.002   6.582
  200ACC    C0124734   4.140   5.130   6.569
  200ACC    O0224735   4.061   5.167   6.656
  200ACC    O0324736   4.166   5.197   6.456
  200ACC    C0424737   4.088   5.311   6.427
  200ACC    C0524738   4.123   5.425   6.524
  200ACC    N0624739   4.007   5.510   6.564
  200ACC    C0724740   3.935   5.562   6.446
  200ACC    C0824741   3.912   5.437   6.650
  200ACC    C0924742   4.064   5.622   6.643
  200ACC    H0A24743   4.205   4.962   6.683
  200ACC    H0B24744   4.323   5.019   6.563
  200ACC    H0C24745   4.179   4.928   6.512
  200ACC    H0D24746   3.984   5.280   6.431
  200ACC    H0E24747   4.106   5.341   6.324
  200ACC    H0F24748   4.200   5.486   6.477
  200ACC    H0G24749   4.169   5.385   6.615
  200ACC    H0H24750   3.884   5.482   6.390
  200ACC    H0I24751   4.002   5.610   6.376
  200ACC    H0J24752   3.856   5.633   6.472
  200ACC    H0K24753   3.875   5.348   6.601
  200ACC    H0M24754   3.823   5.496   6.672
  200ACC    H0N24755   3.957   5.404   6.744
  200ACC    H0O24756   4.112   5.691   6.576
  200ACC    H0P24757   4.136   5.587   6.716
  200ACC    H0Q24758   3.990   5.678   6.698
  201ACC    C0024759   6.058   5.499   2.534
  201ACC    C0124760   5.997   5.636   2.526
  201ACC    O0224761   6.061   5.736   2.491
  201ACC    O0324762   5.871   5.633   2.562
  201ACC    C0424763   5.774   5.718   2.505
  201ACC    C0524764   5.798   5.761   2.360
  201ACC    N0624765   5.677   5.814   2.293
  201ACC    C0724766   5.572   5.711   2.286
  201ACC    C0824767   5.618   5.933   2.358
  201ACC    C0924768   5.720   5.846   2.155
  201ACC    H0A24769   6.165   5.504   2.549
  201ACC    H0B24770   6.036   5.446   2.440
  201ACC    H0C24771   6.010   5.442   2.614
  201ACC    H0D24772   5.739   5.794   2.572
  201ACC    H0E24773   5.691   5.653   2.500
  201ACC    H0F24774   5.833   5.673   2.305
  201ACC    H0G24775   5.878   5.834   2.354
  201ACC    H0H24776   5.527   5.682   2.380
  201ACC    H0I24777   5.607   5.618   2.241
  201ACC    H0J24778   5.487   5.751   2.232
  201ACC    H0K24779   5.576   5.910   2.456
  201ACC    H0M24780   5.533   5.970   2.300
  201ACC    H0N24781   5.689   6.015   2.368
  201ACC    H0O24782   5.744   5.756   2.098
  201ACC    H0P24783   5.804   5.914   2.151
  201ACC    H0Q24784   5.640   5.895   2.103
  202ACC    C0024785   0.775   5.681   3.103
  202ACC    C0124786   0.725   5.821   3.083
  202ACC    O0224787   0.712   5.898   3.177
  202ACC    O0324788   0.696   5.848   2.957
  202ACC    C0424789   0.613   5.959   2.928
  202ACC    C0524790   0.677   6.094   2.966
  202ACC    N0624791   0.580   6.194   3.021
  202ACC    C0724792   0.485   6.243   2.919
  202ACC    C0824793   0.507   6.147   3.141
  202ACC    C0924794   0.657   6.311   3.065
  202ACC    H0A24795   0.712   5.638   3.179
  202ACC    H0B24796   0.877   5.684   3.140
  202ACC    H0C24797   0.770   5.623   3.011
  202ACC    H0D24798   0.520   5.940   2.980
  202ACC    H0E24799   0.591   5.957   2.822
  202ACC    H0F24800   0.729   6.132   2.879
  202ACC    H0G24801   0.758   6.081   3.038
  202ACC    H0H24802   0.433   6.160   2.872
  202ACC    H0I24803   0.538   6.298   2.842
  202ACC    H0J24804   0.410   6.309   2.963
  202ACC    H0K24805   0.433   6.070   3.118
  202ACC    H0M24806   0.450   6.227   3.187
  202ACC    H0N24807   0.575   6.107   3.216
  202ACC    H0O24808   0.718   6.349   2.983
  202ACC    H0P24809   0.723   6.285   3.147
  202ACC    H0Q24810   0.594   6.394   3.099
  203ACC    C0024811   1.152   6.153   4.426
  203ACC    C0124812   1.272   6.193   4.345
  203ACC    O0224813   1.325   6.121   4.261
  203ACC    O0324814   1.299   6.318   4.371
  203ACC    C0424815   1.359   6.397   4.272
  203ACC    C0524816   1.253   6.412   4.165
  203ACC    N0624817   1.292   6.495   4.050
  203ACC    C0724818   1.378   6.608   4.090
  203ACC    C0824819   1.359   6.412   3.948
  203ACC    C0924820   1.161   6.540   3.997
  203ACC    H0A24821   1.117   6.055   4.397
  203ACC    H0B24822   1.073   6.226   4.408
  203ACC    H0C24823   1.179   6.158   4.531
  203ACC    H0D24824   1.454   6.357   4.242
  203ACC    H0E24825   1.379   6.493   4.315
  203ACC    H0F24826   1.168   6.456   4.218
  203ACC    H0G24827   1.218   6.315   4.129
  203ACC    H0H24828   1.476   6.577   4.125
  203ACC    H0I24829   1.332   6.667   4.170
  203ACC    H0J24830   1.400   6.676   4.009
  203ACC    H0K24831   1.462   6.392   3.975
  203ACC    H0M24832   1.361   6.462   3.852
  203ACC    H0N24833   1.309   6.316   3.929
  203ACC    H0O24834   1.112   6.616   4.058
  203ACC    H0P24835   1.094   6.456   4.001
  203ACC    H0Q24836   1.158   6.572   3.894
  204ACC    C0024837   6.028   3.852   0.817
  204ACC    C0124838   6.110   3.974   0.789
  204ACC    O0224839   6.111   4.069   0.866
  204ACC    O0324840   6.182   3.964   0.676
  204ACC    C0424841   6.282   4.062   0.657
  204ACC    C0524842   6.401   4.020   0.745
  204ACC    N0624843   6.472   4.130   0.815
  204ACC    C0724844   6.501   4.244   0.726
  204ACC    C0824845   6.392   4.177   0.931
  204ACC    C0924846   6.601   4.077   0.866
  204ACC    H0A24847   6.012   3.848   0.925
  204ACC    H0B24848   6.079   3.762   0.784
  204ACC    H0C24849   5.933   3.863   0.766
  204ACC    H0D24850   6.242   4.160   0.683
  204ACC    H0E24851   6.310   4.065   0.553
  204ACC    H0F24852   6.470   3.960   0.684
  204ACC    H0G24853   6.366   3.952   0.822
  204ACC    H0H24854   6.412   4.300   0.698
  204ACC    H0I24855   6.555   4.214   0.636
  204ACC    H0J24856   6.565   4.315   0.778
  204ACC    H0K24857   6.299   4.224   0.900
  204ACC    H0M24858   6.447   4.250   0.991
  204ACC    H0N24859   6.365   4.094   0.997
  204ACC    H0O24860   6.661   4.033   0.786
  204ACC    H0P24861   6.586   4.000   0.941
  204ACC    H0Q24862   6.661   4.155   0.913
  205ACC    C0024863   1.046   1.839   6.321
  205ACC    C0124864   1.053   1.989   6.322
  205ACC    O0224865   1.067   2.055   6.425
  205ACC    O0324866   1.046   2.038   6.199
  205ACC    C0424867   1.025   2.176   6.185
  205ACC    C0524868   1.158   2.250   6.207
  205ACC    N0624869   1.139   2.396   6.230
  205ACC    C0724870   1.053   2.455   6.125
  205ACC    C0824871   1.079   2.423   6.363
  205ACC    C0924872   1.273   2.459   6.227
  205ACC    H0A24873   1.026   1.804   6.422
  205ACC    H0B24874   1.140   1.800   6.284
  205ACC    H0C24875   0.965   1.808   6.256
  205ACC    H0D24876   0.947   2.205   6.255
  205ACC    H0E24877   0.987   2.192   6.084
  205ACC    H0F24878   1.221   2.233   6.120
  205ACC    H0G24879   1.212   2.208   6.291
  205ACC    H0H24880   0.949   2.423   6.132
  205ACC    H0I24881   1.090   2.429   6.025
  205ACC    H0J24882   1.055   2.563   6.133
  205ACC    H0K24883   0.978   2.386   6.372
  205ACC    H0M24884   1.075   2.531   6.382
  205ACC    H0N24885   1.138   2.378   6.444
  205ACC    H0O24886   1.322   2.443   6.130
  205ACC    H0P24887   1.339   2.421   6.305
  205ACC    H0Q24888   1.265   2.568   6.239
  206ACC    C0024889   1.816   5.729   6.539
  206ACC    C0124890   1.925   5.830   6.512
  206ACC    O0224891   2.038   5.800   6.476
  206ACC    O0324892   1.877   5.951   6.525
  206ACC    C0424893   1.955   6.066   6.506
  206ACC    C0524894   1.850   6.158   6.448
  206ACC    N0624895   1.901   6.286   6.394
  206ACC    C0724896   1.929   6.381   6.504
  206ACC    C0824897   2.022   6.265   6.312
  206ACC    C0924898   1.791   6.344   6.313
  206ACC    H0A24899   1.803   5.665   6.453
  206ACC    H0B24900   1.721   5.778   6.559
  206ACC    H0C24901   1.842   5.670   6.627
  206ACC    H0D24902   2.042   6.046   6.444
  206ACC    H0E24903   1.988   6.108   6.600
  206ACC    H0F24904   1.773   6.175   6.523
  206ACC    H0G24905   1.800   6.102   6.372
  206ACC    H0H24906   2.009   6.343   6.567
  206ACC    H0I24907   1.843   6.395   6.569
  206ACC    H0J24908   1.960   6.478   6.465
  206ACC    H0K24909   2.113   6.256   6.373
  206ACC    H0M24910   2.037   6.348   6.244
  206ACC    H0N24911   2.018   6.176   6.250
  206ACC    H0O24912   1.818   6.441   6.272
  206ACC    H0P24913   1.699   6.354   6.370
  206ACC    H0Q24914   1.767   6.280   6.228
  207ACC    C0024915   4.398   2.601   4.365
  207ACC    C0124916   4.280   2.669   4.428
  207ACC    O0224917   4.191   2.721   4.359
  207ACC    O0324918   4.283   2.664   4.561
  207ACC    C0424919   4.193   2.740   4.635
  207ACC    C0524920   4.052   2.679   4.628
  207ACC    N0624921   3.944   2.779   4.650
  207ACC    C0724922   3.960   2.835   4.786
  207ACC    C0824923   3.947   2.883   4.544
  207ACC    C0924924   3.812   2.713   4.645
  207ACC    H0A24925   4.438   2.664   4.286
  207ACC    H0B24926   4.370   2.503   4.328
  207ACC    H0C24927   4.477   2.589   4.440
  207ACC    H0D24928   4.200   2.842   4.598
  207ACC    H0E24929   4.226   2.744   4.738
  207ACC    H0F24930   4.045   2.598   4.701
  207ACC    H0G24931   4.036   2.630   4.532
  207ACC    H0H24932   4.055   2.886   4.799
  207ACC    H0I24933   3.955   2.757   4.863
  207ACC    H0J24934   3.884   2.907   4.807
  207ACC    H0K24935   4.031   2.951   4.554
  207ACC    H0M24936   3.859   2.947   4.547
  207ACC    H0N24937   3.953   2.838   4.445
  207ACC    H0O24938   3.779   2.680   4.743
  207ACC    H0P24939   3.814   2.623   4.585
  207ACC    H0Q24940   3.733   2.778   4.607
  208ACC    C0024941   2.191   4.173   6.508
  208ACC    C0124942   2.146   4.283   6.599
  208ACC    O0224943   2.182   4.399   6.585
  208ACC    O0324944   2.065   4.240   6.694
  208ACC    C0424945   2.014   4.335   6.784
  208ACC    C0524946   1.898   4.411   6.715
  208ACC    N0624947   1.869   4.545   6.773
  208ACC    C0724948   1.882   4.546   6.920
  208ACC    C0824949   1.964   4.644   6.720
  208ACC    C0924950   1.731   4.583   6.737
  208ACC    H0A24951   2.252   4.213   6.427
  208ACC    H0B24952   2.104   4.123   6.465
  208ACC    H0C24953   2.249   4.101   6.566
  208ACC    H0D24954   2.094   4.401   6.818
  208ACC    H0E24955   1.980   4.284   6.874
  208ACC    H0F24956   1.812   4.344   6.719
  208ACC    H0G24957   1.917   4.422   6.608
  208ACC    H0H24958   1.985   4.553   6.955
  208ACC    H0I24959   1.845   4.452   6.957
  208ACC    H0J24960   1.826   4.625   6.969
  208ACC    H0K24961   2.066   4.608   6.729
  208ACC    H0M24962   1.959   4.738   6.776
  208ACC    H0N24963   1.943   4.668   6.616
  208ACC    H0O24964   1.658   4.513   6.777
  208ACC    H0P24965   1.716   4.585   6.629
  208ACC    H0Q24966   1.704   4.681   6.775
  209ACC    C0024967   4.559   6.044   3.583
  209ACC    C0124968   4.571   6.026   3.434
  209ACC    O0224969   4.594   6.121   3.359
  209ACC    O0324970   4.555   5.899   3.399
  209ACC    C0424971   4.522   5.869   3.265
  209ACC    C0524972   4.646   5.871   3.176
  209ACC    N0624973   4.616   5.873   3.031
  209ACC    C0724974   4.530   5.762   2.984
  209ACC    C0824975   4.550   6.001   2.995
  209ACC    C0924976   4.746   5.858   2.961
  209ACC    H0A24977   4.505   6.135   3.607
  209ACC    H0B24978   4.659   6.048   3.626
  209ACC    H0C24979   4.506   5.959   3.626
  209ACC    H0D24980   4.448   5.942   3.234
  209ACC    H0E24981   4.474   5.772   3.263
  209ACC    H0F24982   4.707   5.785   3.200
  209ACC    H0G24983   4.708   5.956   3.203
  209ACC    H0H24984   4.431   5.768   3.027
  209ACC    H0I24985   4.570   5.664   3.010
  209ACC    H0J24986   4.514   5.767   2.876
  209ACC    H0K24987   4.445   6.002   3.024
  209ACC    H0M24988   4.551   6.019   2.887
  209ACC    H0N24989   4.598   6.086   3.043
  209ACC    H0O24990   4.790   5.760   2.980
  209ACC    H0P24991   4.818   5.933   2.996
  209ACC    H0Q24992   4.734   5.870   2.854
  210ACC    C0024993   5.726   5.194   4.449
  210ACC    C0124994   5.843   5.109   4.490
  210ACC    O0224995   5.860   5.069   4.606
  210ACC    O0324996   5.919   5.082   4.385
  210ACC    C0424997   6.030   4.998   4.395
  210ACC    C0524998   5.992   4.855   4.436
  210ACC    N0624999   6.084   4.750   4.387
  210ACC    C0725000   6.086   4.742   4.239
  210ACC    C0825001   6.221   4.775   4.434
  210ACC    C0925002   6.040   4.618   4.439
  210ACC    H0A25003   5.703   5.268   4.524
  210ACC    H0B25004   5.638   5.133   4.427
  210ACC    H0C25005   5.751   5.250   4.359
  210ACC    H0D25006   6.100   5.039   4.466
  210ACC    H0E25007   6.075   5.002   4.296
  210ACC    H0F25008   5.892   4.832   4.401
  210ACC    H0G25009   5.984   4.852   4.545
  210ACC    H0H25010   6.134   4.828   4.191
  210ACC    H0I25011   5.984   4.738   4.201
  210ACC    H0J25012   6.140   4.654   4.204
  210ACC    H0K25013   6.260   4.867   4.391
  210ACC    H0M25014   6.287   4.695   4.400
  210ACC    H0N25015   6.226   4.781   4.542
  210ACC    H0O25016   5.941   4.592   4.401
  210ACC    H0P25017   6.036   4.618   4.548
  210ACC    H0Q25018   6.109   4.538   4.411
  211ACC    C0025019   5.204   1.185   4.064
  211ACC    C0125020   5.117   1.063   4.077
  211ACC    O0225021   5.113   0.976   3.990
  211ACC    O0325022   5.048   1.059   4.191
  211ACC    C0425023   4.935   0.974   4.199
  211ACC    C0525024   4.968   0.824   4.214
  211ACC    N0625025   4.860   0.735   4.163
  211ACC    C0725026   4.726   0.773   4.213
  211ACC    C0825027   4.858   0.735   4.015
  211ACC    C0925028   4.886   0.597   4.211
  211ACC    H0A25029   5.269   1.177   3.977
  211ACC    H0B25030   5.271   1.197   4.149
  211ACC    H0C25031   5.143   1.275   4.056
  211ACC    H0D25032   4.874   0.994   4.112
  211ACC    H0E25033   4.876   1.003   4.285
  211ACC    H0F25034   4.986   0.804   4.320
  211ACC    H0G25035   5.061   0.798   4.164
  211ACC    H0H25036   4.697   0.874   4.188
  211ACC    H0I25037   4.719   0.761   4.321
  211ACC    H0J25038   4.650   0.708   4.171
  211ACC    H0K25039   4.836   0.833   3.973
  211ACC    H0M25040   4.781   0.669   3.977
  211ACC    H0N25041   4.954   0.704   3.973
  211ACC    H0O25042   4.884   0.592   4.320
  211ACC    H0P25043   4.983   0.559   4.178
  211ACC    H0Q25044   4.809   0.528   4.176
  212ACC    C0025045   4.604   2.486   2.498
  212ACC    C0125046   4.707   2.468   2.607
  212ACC    O0225047   4.678   2.478   2.726
  212ACC    O0325048   4.827   2.438   2.557
  212ACC    C0425049   4.934   2.418   2.647
  212ACC    C0525050   4.920   2.278   2.708
  212ACC    N0625051   5.012   2.249   2.821
  212ACC    C0725052   5.155   2.259   2.782
  212ACC    C0825053   4.986   2.342   2.935
  212ACC    C0925054   4.984   2.110   2.864
  212ACC    H0A25055   4.515   2.534   2.538
  212ACC    H0B25056   4.577   2.389   2.457
  212ACC    H0C25057   4.644   2.547   2.418
  212ACC    H0D25058   4.931   2.499   2.721
  212ACC    H0E25059   5.027   2.428   2.591
  212ACC    H0F25060   4.933   2.205   2.628
  212ACC    H0G25061   4.817   2.265   2.744
  212ACC    H0H25062   5.183   2.361   2.754
  212ACC    H0I25063   5.178   2.195   2.697
  212ACC    H0J25064   5.221   2.231   2.865
  212ACC    H0K25065   5.012   2.445   2.912
  212ACC    H0M25066   5.047   2.317   3.021
  212ACC    H0N25067   4.882   2.339   2.966
  212ACC    H0O25068   4.993   2.039   2.782
  212ACC    H0P25069   4.884   2.100   2.906
  212ACC    H0Q25070   5.054   2.077   2.941
  213ACC    C0025071   5.709   0.293   3.367
  213ACC    C0125072   5.752   0.395   3.468
  213ACC    O0225073   5.721   0.514   3.456
  213ACC    O0325074   5.822   0.339   3.567
  213ACC    C0425075   5.869   0.422   3.670
  213ACC    C0525076   5.751   0.454   3.763
  213ACC    N0625077   5.761   0.583   3.835
  213ACC    C0725078   5.877   0.586   3.927
  213ACC    C0825079   5.772   0.697   3.740
  213ACC    C0925080   5.639   0.599   3.917
  213ACC    H0A25081   5.631   0.334   3.303
  213ACC    H0B25082   5.669   0.207   3.420
  213ACC    H0C25083   5.796   0.264   3.310
  213ACC    H0D25084   5.913   0.510   3.624
  213ACC    H0E25085   5.949   0.373   3.724
  213ACC    H0F25086   5.738   0.371   3.832
  213ACC    H0G25087   5.660   0.458   3.703
  213ACC    H0H25088   5.970   0.568   3.875
  213ACC    H0I25089   5.869   0.514   4.008
  213ACC    H0J25090   5.888   0.685   3.971
  213ACC    H0K25091   5.872   0.704   3.697
  213ACC    H0M25092   5.756   0.793   3.790
  213ACC    H0N25093   5.702   0.688   3.658
  213ACC    H0O25094   5.642   0.538   4.007
  213ACC    H0P25095   5.549   0.570   3.863
  213ACC    H0Q25096   5.629   0.702   3.948
  214ACC    C0025097   4.733   0.646   5.811
  214ACC    C0125098   4.855   0.559   5.824
  214ACC    O0225099   4.852   0.449   5.879
  214ACC    O0325100   4.961   0.617   5.768
  214ACC    C0425101   5.079   0.541   5.756
  214ACC    C0525102   5.075   0.471   5.620
  214ACC    N0625103   5.149   0.343   5.612
  214ACC    C0725104   5.291   0.366   5.642
  214ACC    C0825105   5.090   0.242   5.703
  214ACC    C0925106   5.145   0.290   5.475
  214ACC    H0A25107   4.646   0.592   5.849
  214ACC    H0B25108   4.716   0.667   5.706
  214ACC    H0C25109   4.747   0.739   5.866
  214ACC    H0D25110   5.085   0.473   5.840
  214ACC    H0E25111   5.165   0.607   5.765
  214ACC    H0F25112   5.115   0.543   5.549
  214ACC    H0G25113   4.971   0.454   5.590
  214ACC    H0H25114   5.308   0.423   5.732
  214ACC    H0I25115   5.342   0.420   5.563
  214ACC    H0J25116   5.337   0.269   5.655
  214ACC    H0K25117   5.101   0.268   5.807
  214ACC    H0M25118   5.137   0.144   5.692
  214ACC    H0N25119   4.983   0.232   5.687
  214ACC    H0O25120   5.226   0.323   5.410
  214ACC    H0P25121   5.059   0.325   5.422
  214ACC    H0Q25122   5.138   0.182   5.471
  215ACC    C0025123   6.195   3.903   6.730
  215ACC    C0125124   6.101   3.998   6.662
  215ACC    O0225125   6.010   4.056   6.722
  215ACC    O0325126   6.130   4.010   6.533
  215ACC    C0425127   6.050   4.094   6.454
  215ACC    C0525128   6.090   4.240   6.477
  215ACC    N0625129   6.013   4.336   6.394
  215ACC    C0725130   6.030   4.302   6.251
  215ACC    C0825131   5.870   4.339   6.433
  215ACC    C0925132   6.065   4.473   6.411
  215ACC    H0A25133   6.175   3.903   6.837
  215ACC    H0B25134   6.297   3.934   6.713
  215ACC    H0C25135   6.182   3.805   6.686
  215ACC    H0D25136   5.946   4.076   6.479
  215ACC    H0E25137   6.067   4.061   6.351
  215ACC    H0F25138   6.197   4.250   6.459
  215ACC    H0G25139   6.078   4.263   6.582
  215ACC    H0H25140   5.969   4.216   6.223
  215ACC    H0I25141   6.134   4.280   6.228
  215ACC    H0J25142   6.001   4.386   6.190
  215ACC    H0K25143   5.821   4.242   6.425
  215ACC    H0M25144   5.813   4.409   6.373
  215ACC    H0N25145   5.860   4.370   6.537
  215ACC    H0O25146   6.163   4.482   6.365
  215ACC    H0P25147   6.073   4.498   6.516
  215ACC    H0Q25148   6.000   4.546   6.364
  216ACC    C0025149   5.424   6.357   5.660
  216ACC    C0125150   5.548   6.272   5.657
  216ACC    O0225151   5.588   6.217   5.555
  216ACC    O0325152   5.608   6.268   5.775
  216ACC    C0425153   5.738   6.216   5.784
  216ACC    C0525154   5.832   6.326   5.731
  216ACC    N0625155   5.975   6.287   5.727
  216ACC    C0725156   6.024   6.249   5.862
  216ACC    C0825157   5.999   6.177   5.630
  216ACC    C0925158   6.052   6.406   5.682
  216ACC    H0A25159   5.385   6.373   5.560
  216ACC    H0B25160   5.445   6.453   5.705
  216ACC    H0C25161   5.350   6.308   5.722
  216ACC    H0D25162   5.744   6.123   5.728
  216ACC    H0E25163   5.757   6.194   5.889
  216ACC    H0F25164   5.819   6.414   5.794
  216ACC    H0G25165   5.800   6.355   5.631
  216ACC    H0H25166   5.988   6.151   5.892
  216ACC    H0I25167   5.996   6.322   5.937
  216ACC    H0J25168   6.133   6.243   5.863
  216ACC    H0K25169   5.957   6.082   5.664
  216ACC    H0M25170   6.106   6.158   5.617
  216ACC    H0N25171   5.957   6.199   5.532
  216ACC    H0O25172   6.040   6.490   5.751
  216ACC    H0P25173   6.021   6.439   5.583
  216ACC    H0Q25174   6.159   6.383   5.677
  217ACC    C0025175   0.909   0.266   4.766
  217ACC    C0125176   1.029   0.289   4.853
  217ACC    O0225177   1.130   0.221   4.839
  217ACC    O0325178   1.012   0.385   4.940
  217ACC    C0425179   1.119   0.426   5.021
  217ACC    C0525180   1.069   0.553   5.089
  217ACC    N0625181   1.177   0.641   5.140
  217ACC    C0725182   1.271   0.568   5.227
  217ACC    C0825183   1.248   0.706   5.027
  217ACC    C0925184   1.107   0.746   5.219
  217ACC    H0A25185   0.932   0.294   4.664
  217ACC    H0B25186   0.826   0.326   4.803
  217ACC    H0C25187   0.882   0.161   4.771
  217ACC    H0D25188   1.205   0.443   4.958
  217ACC    H0E25189   1.144   0.352   5.097
  217ACC    H0F25190   1.000   0.526   5.170
  217ACC    H0G25191   1.009   0.608   5.017
  217ACC    H0H25192   1.336   0.499   5.172
  217ACC    H0I25193   1.217   0.507   5.300
  217ACC    H0J25194   1.336   0.634   5.284
  217ACC    H0K25195   1.302   0.634   4.965
  217ACC    H0M25196   1.322   0.778   5.062
  217ACC    H0N25197   1.178   0.759   4.962
  217ACC    H0O25198   1.065   0.707   5.312
  217ACC    H0P25199   1.026   0.792   5.162
  217ACC    H0Q25200   1.174   0.826   5.244
  218ACC    C0025201   6.233   1.059   2.207
  218ACC    C0125202   6.352   1.150   2.197
  218ACC    O0225203   6.388   1.200   2.090
  218ACC    O0325204   6.405   1.175   2.316
  218ACC    C0425205   6.486   1.288   2.330
  218ACC    C0525206   6.392   1.411   2.333
  218ACC    N0625207   6.459   1.540   2.306
  218ACC    C0725208   6.559   1.560   2.413
  218ACC    C0825209   6.512   1.538   2.167
  218ACC    C0925210   6.368   1.655   2.311
  218ACC    H0A25211   6.197   1.033   2.108
  218ACC    H0B25212   6.152   1.111   2.259
  218ACC    H0C25213   6.257   0.971   2.266
  218ACC    H0D25214   6.560   1.289   2.251
  218ACC    H0E25215   6.541   1.279   2.424
  218ACC    H0F25216   6.345   1.410   2.431
  218ACC    H0G25217   6.311   1.397   2.261
  218ACC    H0H25218   6.634   1.484   2.419
  218ACC    H0I25219   6.514   1.555   2.511
  218ACC    H0J25220   6.609   1.655   2.407
  218ACC    H0K25221   6.599   1.473   2.156
  218ACC    H0M25222   6.540   1.637   2.133
  218ACC    H0N25223   6.437   1.502   2.097
  218ACC    H0O25224   6.334   1.673   2.412
  218ACC    H0P25225   6.282   1.643   2.245
  218ACC    H0Q25226   6.418   1.748   2.284
  219ACC    C0025227   1.786   1.275   5.168
  219ACC    C0125228   1.777   1.143   5.101
  219ACC    O0225229   1.678   1.111   5.037
  219ACC    O0325230   1.887   1.071   5.119
  219ACC    C0425231   1.894   0.948   5.051
  219ACC    C0525232   1.906   0.977   4.901
  219ACC    N0625233   1.831   0.882   4.817
  219ACC    C0725234   1.880   0.746   4.841
  219ACC    C0825235   1.685   0.888   4.840
  219ACC    C0925236   1.855   0.919   4.677
  219ACC    H0A25237   1.698   1.336   5.149
  219ACC    H0B25238   1.872   1.326   5.129
  219ACC    H0C25239   1.801   1.259   5.273
  219ACC    H0D25240   1.806   0.891   5.077
  219ACC    H0E25241   1.977   0.889   5.088
  219ACC    H0F25242   2.012   0.976   4.872
  219ACC    H0G25243   1.871   1.077   4.875
  219ACC    H0H25244   1.884   0.716   4.944
  219ACC    H0I25245   1.982   0.738   4.804
  219ACC    H0J25246   1.818   0.673   4.789
  219ACC    H0K25247   1.654   0.857   4.940
  219ACC    H0M25248   1.631   0.824   4.770
  219ACC    H0N25249   1.646   0.989   4.824
  219ACC    H0O25250   1.960   0.913   4.648
  219ACC    H0P25251   1.818   1.019   4.653
  219ACC    H0Q25252   1.798   0.851   4.614
  220ACC    C0025253   1.919   1.168   5.944
  220ACC    C0125254   1.847   1.045   5.894
  220ACC    O0225255   1.858   1.006   5.778
  220ACC    O0325256   1.772   0.990   5.989
  220ACC    C0425257   1.711   0.865   5.966
  220ACC    C0525258   1.820   0.757   5.974
  220ACC    N0625259   1.773   0.617   5.960
  220ACC    C0725260   1.697   0.572   6.079
  220ACC    C0825261   1.691   0.599   5.839
  220ACC    C0925262   1.894   0.532   5.948
  220ACC    H0A25263   1.970   1.218   5.862
  220ACC    H0B25264   1.993   1.139   6.018
  220ACC    H0C25265   1.849   1.237   5.990
  220ACC    H0D25266   1.661   0.866   5.868
  220ACC    H0E25267   1.634   0.850   6.041
  220ACC    H0F25268   1.875   0.769   6.068
  220ACC    H0G25269   1.894   0.778   5.896
  220ACC    H0H25270   1.602   0.624   6.089
  220ACC    H0I25271   1.754   0.586   6.171
  220ACC    H0J25272   1.675   0.465   6.073
  220ACC    H0K25273   1.596   0.653   5.843
  220ACC    H0M25274   1.666   0.494   5.825
  220ACC    H0N25275   1.746   0.634   5.750
  220ACC    H0O25276   1.954   0.535   6.039
  220ACC    H0P25277   1.959   0.567   5.867
  220ACC    H0Q25278   1.869   0.428   5.929
  221ACC    C0025279   2.609   4.106   6.020
  221ACC    C0125280   2.744   4.047   6.053
  221ACC    O0225281   2.846   4.081   5.993
  221ACC    O0325282   2.737   3.964   6.155
  221ACC    C0425283   2.849   3.886   6.189
  221ACC    C0525284   2.930   3.957   6.299
  221ACC    N0625285   3.076   3.927   6.297
  221ACC    C0725286   3.099   3.781   6.298
  221ACC    C0825287   3.142   3.989   6.180
  221ACC    C0925288   3.136   3.983   6.420
  221ACC    H0A25289   2.616   4.173   5.934
  221ACC    H0B25290   2.568   4.159   6.105
  221ACC    H0C25291   2.541   4.025   5.997
  221ACC    H0D25292   2.907   3.863   6.099
  221ACC    H0E25293   2.815   3.790   6.227
  221ACC    H0F25294   2.887   3.924   6.394
  221ACC    H0G25295   2.915   4.064   6.296
  221ACC    H0H25296   3.064   3.734   6.206
  221ACC    H0I25297   3.048   3.735   6.380
  221ACC    H0J25298   3.203   3.754   6.312
  221ACC    H0K25299   3.108   3.945   6.086
  221ACC    H0M25300   3.250   3.975   6.184
  221ACC    H0N25301   3.121   4.096   6.178
  221ACC    H0O25302   3.091   3.934   6.507
  221ACC    H0P25303   3.115   4.089   6.429
  221ACC    H0Q25304   3.244   3.969   6.424
  222ACC    C0025305   6.819   2.569   2.113
  222ACC    C0125306   6.782   2.677   2.015
  222ACC    O0225307   6.844   2.783   2.009
  222ACC    O0325308   6.679   2.642   1.938
  222ACC    C0425309   6.642   2.726   1.832
  222ACC    C0525310   6.531   2.655   1.751
  222ACC    N0625311   6.501   2.715   1.619
  222ACC    C0725312   6.452   2.852   1.638
  222ACC    C0825313   6.617   2.710   1.527
  222ACC    C0925314   6.391   2.641   1.552
  222ACC    H0A25315   6.883   2.496   2.064
  222ACC    H0B25316   6.729   2.520   2.149
  222ACC    H0C25317   6.873   2.613   2.197
  222ACC    H0D25318   6.731   2.747   1.773
  222ACC    H0E25319   6.608   2.822   1.871
  222ACC    H0F25320   6.440   2.653   1.811
  222ACC    H0G25321   6.557   2.552   1.739
  222ACC    H0H25322   6.522   2.917   1.689
  222ACC    H0I25323   6.359   2.852   1.696
  222ACC    H0J25324   6.427   2.898   1.542
  222ACC    H0K25325   6.706   2.756   1.569
  222ACC    H0M25326   6.596   2.760   1.432
  222ACC    H0N25327   6.647   2.608   1.503
  222ACC    H0O25328   6.299   2.642   1.611
  222ACC    H0P25329   6.416   2.538   1.529
  222ACC    H0Q25330   6.365   2.688   1.456
  223ACC    C0025331   3.291   6.209   4.030
  223ACC    C0125332   3.426   6.188   4.094
  223ACC    O0225333   3.466   6.258   4.187
  223ACC    O0325334   3.497   6.091   4.035
  223ACC    C0425335   3.632   6.074   4.071
  223ACC    C0525336   3.647   5.989   4.196
  223ACC    N0625337   3.784   5.991   4.256
  223ACC    C0725338   3.889   5.941   4.163
  223ACC    C0825339   3.821   6.126   4.305
  223ACC    C0925340   3.782   5.910   4.379
  223ACC    H0A25341   3.248   6.303   4.063
  223ACC    H0B25342   3.223   6.129   4.056
  223ACC    H0C25343   3.299   6.212   3.921
  223ACC    H0D25344   3.674   6.170   4.090
  223ACC    H0E25345   3.686   6.035   3.986
  223ACC    H0F25346   3.617   5.888   4.169
  223ACC    H0G25347   3.574   6.022   4.270
  223ACC    H0H25348   3.906   6.009   4.080
  223ACC    H0I25349   3.863   5.846   4.118
  223ACC    H0J25350   3.984   5.927   4.213
  223ACC    H0K25351   3.859   6.188   4.226
  223ACC    H0M25352   3.903   6.120   4.377
  223ACC    H0N25353   3.738   6.176   4.354
  223ACC    H0O25354   3.771   5.806   4.361
  223ACC    H0P25355   3.701   5.940   4.445
  223ACC    H0Q25356   3.874   5.917   4.436
  224ACC    C0025357   4.716   1.520   6.936
  224ACC    C0125358   4.706   1.667   6.902
  224ACC    O0225359   4.774   1.751   6.960
  224ACC    O0325360   4.612   1.696   6.814
  224ACC    C0425361   4.582   1.833   6.797
  224ACC    C0525362   4.686   1.904   6.711
  224ACC    N0625363   4.695   2.050   6.737
  224ACC    C0725364   4.565   2.111   6.775
  224ACC    C0825365   4.791   2.078   6.846
  224ACC    C0925366   4.748   2.115   6.616
  224ACC    H0A25367   4.820   1.496   6.952
  224ACC    H0B25368   4.679   1.460   6.853
  224ACC    H0C25369   4.662   1.495   7.026
  224ACC    H0D25370   4.581   1.878   6.897
  224ACC    H0E25371   4.482   1.844   6.756
  224ACC    H0F25372   4.662   1.882   6.607
  224ACC    H0G25373   4.785   1.859   6.726
  224ACC    H0H25374   4.526   2.077   6.871
  224ACC    H0I25375   4.489   2.096   6.698
  224ACC    H0J25376   4.577   2.217   6.792
  224ACC    H0K25377   4.767   2.022   6.936
  224ACC    H0M25378   4.795   2.184   6.873
  224ACC    H0N25379   4.891   2.051   6.814
  224ACC    H0O25380   4.679   2.106   6.531
  224ACC    H0P25381   4.841   2.066   6.589
  224ACC    H0Q25382   4.771   2.220   6.632
  225ACC    C0025383   6.572   6.318   3.831
  225ACC    C0125384   6.465   6.385   3.913
  225ACC    O0225385   6.423   6.338   4.018
  225ACC    O0325386   6.428   6.500   3.859
  225ACC    C0425387   6.365   6.595   3.942
  225ACC    C0525388   6.479   6.660   4.023
  225ACC    N0625389   6.436   6.737   4.142
  225ACC    C0725390   6.350   6.852   4.106
  225ACC    C0825391   6.366   6.649   4.239
  225ACC    C0925392   6.560   6.788   4.204
  225ACC    H0A25393   6.641   6.264   3.896
  225ACC    H0B25394   6.631   6.391   3.777
  225ACC    H0C25395   6.525   6.248   3.762
  225ACC    H0D25396   6.290   6.545   4.003
  225ACC    H0E25397   6.314   6.667   3.879
  225ACC    H0F25398   6.539   6.723   3.958
  225ACC    H0G25399   6.548   6.582   4.057
  225ACC    H0H25400   6.256   6.821   4.062
  225ACC    H0I25401   6.401   6.920   4.037
  225ACC    H0J25402   6.326   6.910   4.196
  225ACC    H0K25403   6.267   6.619   4.206
  225ACC    H0M25404   6.355   6.698   4.336
  225ACC    H0N25405   6.424   6.558   4.257
  225ACC    H0O25406   6.613   6.857   4.138
  225ACC    H0P25407   6.629   6.708   4.229
  225ACC    H0Q25408   6.539   6.840   4.298
  226ACC    C0025409   0.977   1.248   6.700
  226ACC    C0125410   1.031   1.318   6.579
  226ACC    O0225411   1.141   1.290   6.533
  226ACC    O0325412   0.946   1.410   6.532
  226ACC    C0425413   0.981   1.488   6.419
  226ACC    C0525414   0.928   1.419   6.292
  226ACC    N0625415   1.030   1.397   6.187
  226ACC    C0725416   1.087   1.525   6.139
  226ACC    C0825417   1.139   1.308   6.234
  226ACC    C0925418   0.963   1.327   6.074
  226ACC    H0A25419   1.045   1.171   6.735
  226ACC    H0B25420   0.882   1.200   6.677
  226ACC    H0C25421   0.962   1.320   6.781
  226ACC    H0D25422   1.087   1.509   6.419
  226ACC    H0E25423   0.932   1.585   6.428
  226ACC    H0F25424   0.848   1.482   6.252
  226ACC    H0G25425   0.881   1.325   6.319
  226ACC    H0H25426   1.155   1.570   6.210
  226ACC    H0I25427   1.009   1.598   6.121
  226ACC    H0J25428   1.140   1.513   6.045
  226ACC    H0K25429   1.206   1.358   6.303
  226ACC    H0M25430   1.199   1.270   6.152
  226ACC    H0N25431   1.099   1.222   6.287
  226ACC    H0O25432   0.875   1.381   6.040
  226ACC    H0P25433   0.934   1.227   6.103
  226ACC    H0Q25434   1.029   1.317   5.988
  227ACC    C0025435   5.963   2.147   2.585
  227ACC    C0125436   5.985   1.999   2.602
  227ACC    O0225437   5.954   1.941   2.706
  227ACC    O0325438   6.042   1.944   2.496
  227ACC    C0425439   6.086   1.810   2.504
  227ACC    C0525440   5.968   1.713   2.482
  227ACC    N0625441   5.991   1.573   2.526
  227ACC    C0725442   6.114   1.520   2.467
  227ACC    C0825443   6.000   1.569   2.672
  227ACC    C0925444   5.882   1.479   2.487
  227ACC    H0A25445   5.893   2.183   2.660
  227ACC    H0B25446   5.924   2.169   2.485
  227ACC    H0C25447   6.058   2.199   2.597
  227ACC    H0D25448   6.133   1.795   2.601
  227ACC    H0E25449   6.161   1.797   2.428
  227ACC    H0F25450   5.932   1.719   2.379
  227ACC    H0G25451   5.890   1.756   2.542
  227ACC    H0H25452   6.200   1.561   2.519
  227ACC    H0I25453   6.118   1.539   2.360
  227ACC    H0J25454   6.120   1.413   2.480
  227ACC    H0K25455   6.093   1.609   2.713
  227ACC    H0M25456   5.983   1.468   2.709
  227ACC    H0N25457   5.920   1.627   2.711
  227ACC    H0O25458   5.867   1.477   2.381
  227ACC    H0P25459   5.788   1.501   2.536
  227ACC    H0Q25460   5.905   1.376   2.516
  228ACC    C0025461   6.509   1.788   5.948
  228ACC    C0125462   6.401   1.689   5.914
  228ACC    O0225463   6.283   1.724   5.904
  228ACC    O0325464   6.448   1.565   5.900
  228ACC    C0425465   6.358   1.458   5.916
  228ACC    C0525466   6.274   1.437   5.789
  228ACC    N0625467   6.151   1.353   5.808
  228ACC    C0725468   6.189   1.212   5.831
  228ACC    C0825469   6.068   1.403   5.920
  228ACC    C0925470   6.068   1.358   5.686
  228ACC    H0A25471   6.502   1.815   6.053
  228ACC    H0B25472   6.498   1.878   5.888
  228ACC    H0C25473   6.607   1.744   5.931
  228ACC    H0D25474   6.298   1.482   6.004
  228ACC    H0E25475   6.412   1.368   5.943
  228ACC    H0F25476   6.338   1.392   5.712
  228ACC    H0G25477   6.244   1.534   5.748
  228ACC    H0H25478   6.252   1.199   5.918
  228ACC    H0I25479   6.243   1.172   5.745
  228ACC    H0J25480   6.101   1.149   5.845
  228ACC    H0K25481   6.113   1.383   6.017
  228ACC    H0M25482   5.971   1.353   5.924
  228ACC    H0N25483   6.053   1.511   5.914
  228ACC    H0O25484   6.114   1.299   5.607
  228ACC    H0P25485   6.056   1.458   5.647
  228ACC    H0Q25486   5.970   1.312   5.700
  229ACC    C0025487   3.110   5.651   4.602
  229ACC    C0125488   3.037   5.674   4.730
  229ACC    O0225489   3.033   5.785   4.780
  229ACC    O0325490   2.989   5.560   4.781
  229ACC    C0425491   2.904   5.567   4.894
  229ACC    C0525492   2.765   5.581   4.832
  229ACC    N0625493   2.684   5.695   4.881
  229ACC    C0725494   2.629   5.664   5.014
  229ACC    C0825495   2.753   5.825   4.875
  229ACC    C0925496   2.572   5.707   4.789
  229ACC    H0A25497   3.069   5.714   4.524
  229ACC    H0B25498   3.098   5.546   4.576
  229ACC    H0C25499   3.215   5.674   4.615
  229ACC    H0D25500   2.932   5.646   4.964
  229ACC    H0E25501   2.912   5.474   4.951
  229ACC    H0F25502   2.711   5.487   4.846
  229ACC    H0G25503   2.775   5.591   4.724
  229ACC    H0H25504   2.708   5.641   5.084
  229ACC    H0I25505   2.562   5.577   5.014
  229ACC    H0J25506   2.571   5.747   5.054
  229ACC    H0K25507   2.833   5.834   4.948
  229ACC    H0M25508   2.683   5.906   4.894
  229ACC    H0N25509   2.793   5.843   4.776
  229ACC    H0O25510   2.536   5.607   4.778
  229ACC    H0P25511   2.599   5.740   4.689
  229ACC    H0Q25512   2.493   5.770   4.827
  230ACC    C0025513   1.472   4.611   4.135
  230ACC    C0125514   1.521   4.679   4.259
  230ACC    O0225515   1.477   4.788   4.296
  230ACC    O0325516   1.614   4.608   4.317
  230ACC    C0425517   1.663   4.645   4.443
  230ACC    C0525518   1.573   4.581   4.550
  230ACC    N0625519   1.627   4.588   4.688
  230ACC    C0725520   1.757   4.518   4.695
  230ACC    C0825521   1.630   4.728   4.736
  230ACC    C0925522   1.539   4.520   4.785
  230ACC    H0A25523   1.377   4.656   4.109
  230ACC    H0B25524   1.458   4.505   4.154
  230ACC    H0C25525   1.544   4.624   4.055
  230ACC    H0D25526   1.669   4.753   4.452
  230ACC    H0E25527   1.764   4.606   4.445
  230ACC    H0F25528   1.563   4.476   4.523
  230ACC    H0G25529   1.473   4.624   4.545
  230ACC    H0H25530   1.835   4.566   4.637
  230ACC    H0I25531   1.750   4.417   4.656
  230ACC    H0J25532   1.796   4.516   4.796
  230ACC    H0K25533   1.668   4.797   4.663
  230ACC    H0M25534   1.692   4.737   4.825
  230ACC    H0N25535   1.531   4.766   4.761
  230ACC    H0O25536   1.523   4.418   4.755
  230ACC    H0P25537   1.443   4.569   4.790
  230ACC    H0Q25538   1.582   4.520   4.885
  231ACC    C0025539   2.682   0.946   0.759
  231ACC    C0125540   2.553   1.022   0.780
  231ACC    O0225541   2.462   1.019   0.697
  231ACC    O0325542   2.547   1.079   0.901
  231ACC    C0425543   2.431   1.149   0.942
  231ACC    C0525544   2.314   1.053   0.968
  231ACC    N0625545   2.198   1.114   1.039
  231ACC    C0725546   2.222   1.127   1.184
  231ACC    C0825547   2.162   1.246   0.985
  231ACC    C0925548   2.081   1.027   1.019
  231ACC    H0A25549   2.732   0.983   0.670
  231ACC    H0B25550   2.664   0.840   0.746
  231ACC    H0C25551   2.748   0.958   0.844
  231ACC    H0D25552   2.408   1.225   0.867
  231ACC    H0E25553   2.456   1.203   1.033
  231ACC    H0F25554   2.349   0.968   1.027
  231ACC    H0G25555   2.281   1.013   0.872
  231ACC    H0H25556   2.309   1.189   1.205
  231ACC    H0I25557   2.241   1.029   1.230
  231ACC    H0J25558   2.137   1.171   1.236
  231ACC    H0K25559   2.241   1.319   1.003
  231ACC    H0M25560   2.070   1.286   1.025
  231ACC    H0N25561   2.149   1.239   0.877
  231ACC    H0O25562   2.102   0.924   1.047
  231ACC    H0P25563   2.053   1.027   0.914
  231ACC    H0Q25564   1.995   1.063   1.076
  232ACC    C0025565   6.326   3.203   2.687
  232ACC    C0125566   6.474   3.215   2.661
  232ACC    O0225567   6.520   3.211   2.547
  232ACC    O0325568   6.543   3.225   2.774
  232ACC    C0425569   6.683   3.208   2.768
  232ACC    C0525570   6.755   3.341   2.742
  232ACC    N0625571   6.897   3.326   2.697
  232ACC    C0725572   6.978   3.241   2.788
  232ACC    C0825573   6.898   3.272   2.560
  232ACC    C0925574   6.963   3.459   2.695
  232ACC    H0A25575   6.287   3.110   2.647
  232ACC    H0B25576   6.273   3.285   2.640
  232ACC    H0C25577   6.304   3.205   2.794
  232ACC    H0D25578   6.705   3.133   2.693
  232ACC    H0E25579   6.713   3.163   2.862
  232ACC    H0F25580   6.751   3.403   2.832
  232ACC    H0G25581   6.700   3.400   2.668
  232ACC    H0H25582   6.936   3.143   2.807
  232ACC    H0I25583   6.990   3.290   2.884
  232ACC    H0J25584   7.080   3.227   2.751
  232ACC    H0K25585   6.859   3.171   2.554
  232ACC    H0M25586   7.000   3.270   2.522
  232ACC    H0N25587   6.837   3.334   2.494
  232ACC    H0O25588   6.955   3.509   2.791
  232ACC    H0P25589   6.918   3.525   2.621
  232ACC    H0Q25590   7.069   3.452   2.671
  233ACC    C0025591   5.099   4.289   4.068
  233ACC    C0125592   5.036   4.410   4.124
  233ACC    O0225593   4.941   4.464   4.067
  233ACC    O0325594   5.087   4.441   4.244
  233ACC    C0425595   5.040   4.554   4.311
  233ACC    C0525596   4.891   4.534   4.348
  233ACC    N0625597   4.809   4.657   4.340
  233ACC    C0725598   4.855   4.752   4.444
  233ACC    C0825599   4.816   4.720   4.205
  233ACC    C0925600   4.670   4.612   4.364
  233ACC    H0A25601   5.093   4.291   3.959
  233ACC    H0B25602   5.043   4.205   4.108
  233ACC    H0C25603   5.204   4.280   4.098
  233ACC    H0D25604   5.060   4.639   4.246
  233ACC    H0E25605   5.100   4.569   4.400
  233ACC    H0F25606   4.886   4.489   4.448
  233ACC    H0G25607   4.846   4.458   4.285
  233ACC    H0H25608   4.958   4.782   4.428
  233ACC    H0I25609   4.846   4.710   4.544
  233ACC    H0J25610   4.800   4.845   4.445
  233ACC    H0K25611   4.911   4.769   4.185
  233ACC    H0M25612   4.744   4.799   4.192
  233ACC    H0N25613   4.796   4.649   4.125
  233ACC    H0O25614   4.654   4.573   4.464
  233ACC    H0P25615   4.638   4.537   4.292
  233ACC    H0Q25616   4.598   4.692   4.352
  234ACC    C0025617   6.044   4.022   3.491
  234ACC    C0125618   6.061   4.154   3.422
  234ACC    O0225619   6.024   4.258   3.475
  234ACC    O0325620   6.121   4.142   3.304
  234ACC    C0425621   6.160   4.260   3.237
  234ACC    C0525622   6.305   4.292   3.277
  234ACC    N0625623   6.330   4.431   3.323
  234ACC    C0725624   6.281   4.529   3.222
  234ACC    C0825625   6.265   4.453   3.454
  234ACC    C0925626   6.476   4.451   3.338
  234ACC    H0A25627   6.001   4.035   3.589
  234ACC    H0B25628   6.141   3.974   3.501
  234ACC    H0C25629   5.980   3.957   3.433
  234ACC    H0D25630   6.089   4.340   3.258
  234ACC    H0E25631   6.155   4.242   3.130
  234ACC    H0F25632   6.366   4.275   3.190
  234ACC    H0G25633   6.340   4.222   3.353
  234ACC    H0H25634   6.173   4.530   3.208
  234ACC    H0I25635   6.326   4.510   3.125
  234ACC    H0J25636   6.309   4.630   3.250
  234ACC    H0K25637   6.158   4.474   3.446
  234ACC    H0M25638   6.310   4.534   3.509
  234ACC    H0N25639   6.273   4.367   3.520
  234ACC    H0O25640   6.530   4.437   3.244
  234ACC    H0P25641   6.520   4.383   3.411
  234ACC    H0Q25642   6.501   4.552   3.370
  235ACC    C0025643   2.613   1.361   3.685
  235ACC    C0125644   2.580   1.473   3.780
  235ACC    O0225645   2.465   1.513   3.794
  235ACC    O0325646   2.684   1.510   3.853
  235ACC    C0425647   2.665   1.522   3.992
  235ACC    C0525648   2.644   1.378   4.042
  235ACC    N0625649   2.657   1.356   4.188
  235ACC    C0725650   2.788   1.400   4.241
  235ACC    C0825651   2.548   1.423   4.261
  235ACC    C0925652   2.647   1.210   4.210
  235ACC    H0A25653   2.565   1.378   3.589
  235ACC    H0B25654   2.578   1.267   3.726
  235ACC    H0C25655   2.721   1.353   3.672
  235ACC    H0D25656   2.580   1.586   4.017
  235ACC    H0E25657   2.754   1.568   4.032
  235ACC    H0F25658   2.717   1.315   3.991
  235ACC    H0G25659   2.547   1.342   4.009
  235ACC    H0H25660   2.804   1.507   4.231
  235ACC    H0I25661   2.871   1.349   4.193
  235ACC    H0J25662   2.795   1.379   4.347
  235ACC    H0K25663   2.554   1.531   4.250
  235ACC    H0M25664   2.558   1.402   4.367
  235ACC    H0N25665   2.449   1.391   4.229
  235ACC    H0O25666   2.724   1.156   4.153
  235ACC    H0P25667   2.549   1.170   4.182
  235ACC    H0Q25668   2.662   1.185   4.315
  236ACC    C0025669   2.657   0.814   6.051
  236ACC    C0125670   2.642   0.771   5.907
  236ACC    O0225671   2.619   0.851   5.816
  236ACC    O0325672   2.652   0.640   5.893
  236ACC    C0425673   2.578   0.586   5.786
  236ACC    C0525674   2.654   0.590   5.655
  236ACC    N0625675   2.564   0.581   5.536
  236ACC    C0725676   2.440   0.503   5.557
  236ACC    C0825677   2.524   0.717   5.492
  236ACC    C0925678   2.636   0.507   5.432
  236ACC    H0A25679   2.665   0.922   6.058
  236ACC    H0B25680   2.743   0.766   6.097
  236ACC    H0C25681   2.566   0.784   6.103
  236ACC    H0D25682   2.484   0.641   5.781
  236ACC    H0E25683   2.554   0.484   5.810
  236ACC    H0F25684   2.727   0.509   5.658
  236ACC    H0G25685   2.714   0.681   5.648
  236ACC    H0H25686   2.371   0.556   5.622
  236ACC    H0I25687   2.464   0.406   5.599
  236ACC    H0J25688   2.386   0.487   5.464
  236ACC    H0K25689   2.465   0.768   5.569
  236ACC    H0M25690   2.464   0.716   5.402
  236ACC    H0N25691   2.608   0.782   5.469
  236ACC    H0O25692   2.658   0.408   5.472
  236ACC    H0P25693   2.732   0.547   5.407
  236ACC    H0Q25694   2.580   0.499   5.339
  237ACC    C0025695   2.143   2.033   1.425
  237ACC    C0125696   2.127   2.178   1.459
  237ACC    O0225697   2.104   2.218   1.572
  237ACC    O0325698   2.142   2.250   1.349
  237ACC    C0425699   2.104   2.384   1.351
  237ACC    C0525700   2.225   2.474   1.338
  237ACC    N0625701   2.191   2.618   1.327
  237ACC    C0725702   2.120   2.648   1.200
  237ACC    C0825703   2.109   2.662   1.441
  237ACC    C0925704   2.318   2.694   1.328
  237ACC    H0A25705   2.140   1.974   1.515
  237ACC    H0B25706   2.237   2.020   1.373
  237ACC    H0C25707   2.061   2.002   1.361
  237ACC    H0D25708   2.046   2.407   1.440
  237ACC    H0E25709   2.039   2.395   1.266
  237ACC    H0F25710   2.283   2.442   1.251
  237ACC    H0G25711   2.286   2.456   1.427
  237ACC    H0H25712   2.017   2.613   1.199
  237ACC    H0I25713   2.167   2.598   1.116
  237ACC    H0J25714   2.120   2.754   1.176
  237ACC    H0K25715   2.008   2.624   1.437
  237ACC    H0M25716   2.103   2.771   1.448
  237ACC    H0N25717   2.155   2.623   1.532
  237ACC    H0O25718   2.370   2.681   1.234
  237ACC    H0P25719   2.383   2.662   1.410
  237ACC    H0Q25720   2.302   2.801   1.339
  238ACC    C0025721   6.472   3.641   2.462
  238ACC    C0125722   6.327   3.656   2.502
  238ACC    O0225723   6.280   3.768   2.517
  238ACC    O0325724   6.264   3.538   2.520
  238ACC    C0425725   6.125   3.522   2.548
  238ACC    C0525726   6.037   3.644   2.589
  238ACC    N0625727   5.904   3.613   2.650
  238ACC    C0725728   5.847   3.487   2.599
  238ACC    C0825729   5.907   3.608   2.798
  238ACC    C0925730   5.812   3.725   2.621
  238ACC    H0A25731   6.529   3.725   2.502
  238ACC    H0B25732   6.481   3.644   2.354
  238ACC    H0C25733   6.514   3.549   2.501
  238ACC    H0D25734   6.117   3.445   2.625
  238ACC    H0E25735   6.083   3.476   2.458
  238ACC    H0F25736   6.025   3.703   2.500
  238ACC    H0G25737   6.089   3.712   2.656
  238ACC    H0H25738   5.893   3.399   2.642
  238ACC    H0I25739   5.865   3.478   2.493
  238ACC    H0J25740   5.739   3.479   2.618
  238ACC    H0K25741   5.952   3.516   2.835
  238ACC    H0M25742   5.808   3.612   2.843
  238ACC    H0N25743   5.959   3.694   2.842
  238ACC    H0O25744   5.781   3.726   2.517
  238ACC    H0P25745   5.856   3.821   2.644
  238ACC    H0Q25746   5.720   3.717   2.679
  239ACC    C0025747   4.311   4.320   7.074
  239ACC    C0125748   4.335   4.270   0.024
  239ACC    O0225749   4.267   4.180   0.075
  239ACC    O0325750   4.436   4.333   0.081
  239ACC    C0425751   4.507   4.269   0.185
  239ACC    C0525752   4.635   4.219   0.117
  239ACC    N0625753   4.718   4.126   0.198
  239ACC    C0725754   4.743   4.175   0.334
  239ACC    C0825755   4.651   3.995   0.208
  239ACC    C0925756   4.848   4.112   0.129
  239ACC    H0A25757   4.244   4.253   7.021
  239ACC    H0B25758   4.405   4.324   7.020
  239ACC    H0C25759   4.266   4.418   7.077
  239ACC    H0D25760   4.449   4.189   0.231
  239ACC    H0E25761   4.529   4.340   0.264
  239ACC    H0F25762   4.694   4.306   0.087
  239ACC    H0G25763   4.610   4.170   0.022
  239ACC    H0H25764   4.652   4.166   0.392
  239ACC    H0I25765   4.773   4.279   0.337
  239ACC    H0J25766   4.818   4.114   0.385
  239ACC    H0K25767   4.551   4.000   0.252
  239ACC    H0M25768   4.707   3.925   0.270
  239ACC    H0N25769   4.641   3.950   0.110
  239ACC    H0O25770   4.900   4.208   0.121
  239ACC    H0P25771   4.836   4.076   0.027
  239ACC    H0Q25772   4.915   4.044   0.180
  240ACC    C0025773   2.499   3.178   2.975
  240ACC    C0125774   2.449   3.126   3.107
  240ACC    O0225775   2.338   3.156   3.150
  240ACC    O0325776   2.537   3.046   3.166
  240ACC    C0425777   2.514   3.000   3.297
  240ACC    C0525778   2.436   2.868   3.298
  240ACC    N0625779   2.463   2.773   3.412
  240ACC    C0725780   2.564   2.672   3.373
  240ACC    C0825781   2.502   2.834   3.542
  240ACC    C0925782   2.340   2.698   3.439
  240ACC    H0A25783   2.428   3.250   2.935
  240ACC    H0B25784   2.510   3.096   2.904
  240ACC    H0C25785   2.595   3.227   2.989
  240ACC    H0D25786   2.459   3.075   3.354
  240ACC    H0E25787   2.611   2.994   3.342
  240ACC    H0F25788   2.453   2.818   3.203
  240ACC    H0G25789   2.331   2.898   3.296
  240ACC    H0H25790   2.648   2.718   3.324
  240ACC    H0I25791   2.524   2.600   3.303
  240ACC    H0J25792   2.602   2.617   3.460
  240ACC    H0K25793   2.607   2.833   3.565
  240ACC    H0M25794   2.457   2.788   3.630
  240ACC    H0N25795   2.476   2.938   3.543
  240ACC    H0O25796   2.295   2.662   3.346
  240ACC    H0P25797   2.268   2.759   3.491
  240ACC    H0Q25798   2.360   2.613   3.504
  241ACC    C0025799   4.232   5.397   2.861
  241ACC    C0125800   4.125   5.500   2.892
  241ACC    O0225801   4.095   5.526   3.007
  241ACC    O0325802   4.070   5.552   2.782
  241ACC    C0425803   3.967   5.647   2.797
  241ACC    C0525804   4.028   5.786   2.824
  241ACC    N0625805   3.932   5.889   2.873
  241ACC    C0725806   3.829   5.925   2.773
  241ACC    C0825807   3.866   5.839   2.994
  241ACC    C0925808   4.007   6.010   2.910
  241ACC    H0A25809   4.300   5.391   2.945
  241ACC    H0B25810   4.286   5.426   2.771
  241ACC    H0C25811   4.187   5.300   2.846
  241ACC    H0D25812   3.902   5.611   2.877
  241ACC    H0E25813   3.906   5.647   2.707
  241ACC    H0F25814   4.080   5.822   2.734
  241ACC    H0G25815   4.107   5.775   2.898
  241ACC    H0H25816   3.770   5.838   2.742
  241ACC    H0I25817   3.875   5.968   2.685
  241ACC    H0J25818   3.759   5.998   2.815
  241ACC    H0K25819   3.791   5.766   2.966
  241ACC    H0M25820   3.818   5.916   3.053
  241ACC    H0N25821   3.939   5.789   3.057
  241ACC    H0O25822   4.064   6.050   2.826
  241ACC    H0P25823   4.080   5.990   2.989
  241ACC    H0Q25824   3.942   6.089   2.947
  242ACC    C0025825   2.644   2.963   6.556
  242ACC    C0125826   2.737   3.040   6.468
  242ACC    O0225827   2.766   3.003   6.354
  242ACC    O0325828   2.782   3.149   6.529
  242ACC    C0425829   2.874   3.230   6.462
  242ACC    C0525830   2.803   3.312   6.354
  242ACC    N0625831   2.895   3.367   6.251
  242ACC    C0725832   3.022   3.417   6.312
  242ACC    C0825833   2.926   3.266   6.148
  242ACC    C0925834   2.821   3.475   6.182
  242ACC    H0A25835   2.610   2.874   6.504
  242ACC    H0B25836   2.559   3.026   6.583
  242ACC    H0C25837   2.695   2.934   6.648
  242ACC    H0D25838   2.954   3.168   6.421
  242ACC    H0E25839   2.920   3.297   6.535
  242ACC    H0F25840   2.751   3.393   6.405
  242ACC    H0G25841   2.724   3.256   6.305
  242ACC    H0H25842   3.096   3.339   6.324
  242ACC    H0I25843   3.008   3.460   6.410
  242ACC    H0J25844   3.067   3.496   6.254
  242ACC    H0K25845   2.974   3.178   6.191
  242ACC    H0M25846   2.994   3.309   6.074
  242ACC    H0N25847   2.836   3.234   6.096
  242ACC    H0O25848   2.798   3.560   6.246
  242ACC    H0P25849   2.726   3.440   6.143
  242ACC    H0Q25850   2.873   3.518   6.097
  243ACC    C0025851   2.255   6.456   1.335
  243ACC    C0125852   2.266   6.476   1.186
  243ACC    O0225853   2.369   6.451   1.124
  243ACC    O0325854   2.151   6.516   1.134
  243ACC    C0425855   2.140   6.530   0.994
  243ACC    C0525856   2.134   6.388   0.936
  243ACC    N0625857   2.136   6.380   0.787
  243ACC    C0725858   2.014   6.441   0.732
  243ACC    C0825859   2.258   6.440   0.729
  243ACC    C0925860   2.136   6.237   0.752
  243ACC    H0A25861   2.319   6.374   1.366
  243ACC    H0B25862   2.153   6.432   1.363
  243ACC    H0C25863   2.287   6.547   1.386
  243ACC    H0D25864   2.225   6.590   0.959
  243ACC    H0E25865   2.050   6.588   0.975
  243ACC    H0F25866   2.044   6.341   0.976
  243ACC    H0G25867   2.218   6.329   0.973
  243ACC    H0H25868   2.006   6.543   0.764
  243ACC    H0I25869   1.923   6.391   0.765
  243ACC    H0J25870   2.015   6.442   0.622
  243ACC    H0K25871   2.269   6.545   0.754
  243ACC    H0M25872   2.257   6.434   0.620
  243ACC    H0N25873   2.349   6.391   0.765
  243ACC    H0O25874   2.056   6.187   0.805
  243ACC    H0P25875   2.229   6.188   0.780
  243ACC    H0Q25876   2.121   6.221   0.644
  244ACC    C0025877   1.346   0.705   2.111
  244ACC    C0125878   1.232   0.802   2.126
  244ACC    O0225879   1.152   0.825   2.035
  244ACC    O0325880   1.230   0.856   2.248
  244ACC    C0425881   1.129   0.946   2.281
  244ACC    C0525882   1.004   0.866   2.311
  244ACC    N0625883   0.878   0.938   2.290
  244ACC    C0725884   0.859   1.042   2.394
  244ACC    C0825885   0.870   0.997   2.153
  244ACC    C0925886   0.772   0.836   2.301
  244ACC    H0A25887   1.328   0.642   2.025
  244ACC    H0B25888   1.351   0.642   2.199
  244ACC    H0C25889   1.438   0.761   2.099
  244ACC    H0D25890   1.121   1.018   2.199
  244ACC    H0E25891   1.154   1.001   2.371
  244ACC    H0F25892   1.010   0.835   2.414
  244ACC    H0G25893   1.005   0.776   2.250
  244ACC    H0H25894   0.952   1.092   2.422
  244ACC    H0I25895   0.820   1.003   2.488
  244ACC    H0J25896   0.795   1.123   2.361
  244ACC    H0K25897   0.933   1.084   2.139
  244ACC    H0M25898   0.769   1.032   2.133
  244ACC    H0N25899   0.896   0.924   2.077
  244ACC    H0O25900   0.753   0.806   2.404
  244ACC    H0P25901   0.793   0.745   2.244
  244ACC    H0Q25902   0.682   0.873   2.256
  245ACC    C0025903   4.653   5.915   6.122
  245ACC    C0125904   4.543   5.922   6.020
  245ACC    O0225905   4.435   5.865   6.036
  245ACC    O0325906   4.577   6.000   5.917
  245ACC    C0425907   4.481   6.029   5.818
  245ACC    C0525908   4.379   6.126   5.879
  245ACC    N0625909   4.278   6.177   5.784
  245ACC    C0725910   4.338   6.258   5.677
  245ACC    C0825911   4.198   6.068   5.724
  245ACC    C0925912   4.188   6.266   5.860
  245ACC    H0A25913   4.614   5.863   6.209
  245ACC    H0B25914   4.684   6.015   6.151
  245ACC    H0C25915   4.738   5.862   6.080
  245ACC    H0D25916   4.435   5.937   5.784
  245ACC    H0E25917   4.535   6.074   5.735
  245ACC    H0F25918   4.433   6.208   5.926
  245ACC    H0G25919   4.327   6.075   5.960
  245ACC    H0H25920   4.400   6.200   5.609
  245ACC    H0I25921   4.397   6.342   5.715
  245ACC    H0J25922   4.259   6.301   5.616
  245ACC    H0K25923   4.257   6.007   5.655
  245ACC    H0M25924   4.116   6.107   5.663
  245ACC    H0N25925   4.156   6.002   5.799
  245ACC    H0O25926   4.240   6.351   5.905
  245ACC    H0P25927   4.138   6.214   5.941
  245ACC    H0Q25928   4.110   6.308   5.796
  246ACC    C0025929   4.910   1.131   2.514
  246ACC    C0125930   4.821   1.090   2.629
  246ACC    O0225931   4.823   0.976   2.673
  246ACC    O0325932   4.747   1.192   2.676
  246ACC    C0425933   4.654   1.169   2.780
  246ACC    C0525934   4.729   1.156   2.914
  246ACC    N0625935   4.642   1.153   3.035
  246ACC    C0725936   4.565   1.279   3.049
  246ACC    C0825937   4.549   1.039   3.033
  246ACC    C0925938   4.731   1.136   3.152
  246ACC    H0A25939   4.992   1.060   2.505
  246ACC    H0B25940   4.953   1.230   2.529
  246ACC    H0C25941   4.852   1.132   2.422
  246ACC    H0D25942   4.597   1.078   2.758
  246ACC    H0E25943   4.585   1.252   2.780
  246ACC    H0F25944   4.796   1.240   2.923
  246ACC    H0G25945   4.791   1.066   2.911
  246ACC    H0H25946   4.475   1.279   2.987
  246ACC    H0I25947   4.623   1.367   3.024
  246ACC    H0J25948   4.530   1.291   3.152
  246ACC    H0K25949   4.479   1.042   2.950
  246ACC    H0M25950   4.489   1.033   3.124
  246ACC    H0N25951   4.604   0.945   3.024
  246ACC    H0O25952   4.807   1.213   3.158
  246ACC    H0P25953   4.785   1.041   3.145
  246ACC    H0Q25954   4.675   1.134   3.245
  247ACC    C0025955   7.037   6.251   3.446
  247ACC    C0125956   6.903   6.189   3.469
  247ACC    O0225957   6.838   6.142   3.377
  247ACC    O0325958   6.869   6.191   3.597
  247ACC    C0425959   6.754   6.126   3.643
  247ACC    C0525960   6.763   5.978   3.607
  247ACC    N0625961   6.645   5.928   3.532
  247ACC    C0725962   6.528   5.925   3.622
  247ACC    C0825963   6.603   5.999   3.410
  247ACC    C0925964   6.688   5.796   3.487
  247ACC    H0A25965   7.028   6.359   3.452
  247ACC    H0B25966   7.076   6.227   3.349
  247ACC    H0C25967   7.106   6.210   3.519
  247ACC    H0D25968   6.667   6.177   3.604
  247ACC    H0E25969   6.753   6.135   3.751
  247ACC    H0F25970   6.776   5.921   3.700
  247ACC    H0G25971   6.856   5.959   3.554
  247ACC    H0H25972   6.492   6.025   3.644
  247ACC    H0I25973   6.555   5.879   3.716
  247ACC    H0J25974   6.444   5.871   3.578
  247ACC    H0K25975   6.588   6.105   3.425
  247ACC    H0M25976   6.508   5.961   3.374
  247ACC    H0N25977   6.675   5.985   3.329
  247ACC    H0O25978   6.698   5.726   3.568
  247ACC    H0P25979   6.784   5.799   3.438
  247ACC    H0Q25980   6.620   5.757   3.412
  248ACC    C0025981   1.267   4.378   4.612
  248ACC    C0125982   1.235   4.379   4.760
  248ACC    O0225983   1.227   4.482   4.825
  248ACC    O0325984   1.220   4.257   4.808
  248ACC    C0425985   1.130   4.238   4.915
  248ACC    C0525986   1.028   4.138   4.860
  248ACC    N0625987   0.888   4.185   4.847
  248ACC    C0725988   0.827   4.214   4.979
  248ACC    C0825989   0.884   4.304   4.760
  248ACC    C0925990   0.808   4.079   4.781
  248ACC    H0A25991   1.223   4.466   4.565
  248ACC    H0B25992   1.226   4.290   4.564
  248ACC    H0C25993   1.374   4.377   4.594
  248ACC    H0D25994   1.085   4.330   4.951
  248ACC    H0E25995   1.185   4.195   4.998
  248ACC    H0F25996   1.034   4.046   4.918
  248ACC    H0G25997   1.061   4.109   4.760
  248ACC    H0H25998   0.878   4.296   5.030
  248ACC    H0I25999   0.829   4.126   5.044
  248ACC    H0J26000   0.723   4.244   4.968
  248ACC    H0K26001   0.938   4.388   4.803
  248ACC    H0M26002   0.782   4.339   4.742
  248ACC    H0N26003   0.929   4.285   4.662
  248ACC    H0O26004   0.810   3.985   4.835
  248ACC    H0P26005   0.848   4.055   4.682
  248ACC    H0Q26006   0.704   4.106   4.768
  249ACC    C0026007   4.563   5.988   4.038
  249ACC    C0126008   4.579   5.855   4.104
  249ACC    O0226009   4.490   5.772   4.101
  249ACC    O0326010   4.697   5.845   4.165
  249ACC    C0426011   4.728   5.734   4.245
  249ACC    C0526012   4.836   5.642   4.187
  249ACC    N0626013   4.795   5.533   4.093
  249ACC    C0726014   4.795   5.401   4.162
  249ACC    C0826015   4.665   5.554   4.033
  249ACC    C0926016   4.880   5.529   3.973
  249ACC    H0A26017   4.593   5.987   3.935
  249ACC    H0B26018   4.623   6.059   4.092
  249ACC    H0C26019   4.458   6.016   4.042
  249ACC    H0D26020   4.640   5.682   4.281
  249ACC    H0E26021   4.772   5.778   4.334
  249ACC    H0F26022   4.878   5.597   4.274
  249ACC    H0G26023   4.921   5.698   4.152
  249ACC    H0H26024   4.741   5.404   4.256
  249ACC    H0I26025   4.892   5.364   4.188
  249ACC    H0J26026   4.753   5.322   4.100
  249ACC    H0K26027   4.602   5.568   4.117
  249ACC    H0M26028   4.632   5.470   3.973
  249ACC    H0N26029   4.657   5.643   3.972
  249ACC    H0O26030   4.980   5.547   4.004
  249ACC    H0P26031   4.857   5.606   3.900
  249ACC    H0Q26032   4.874   5.434   3.922
  250ACC    C0026033   3.173   6.068   4.920
  250ACC    C0126034   3.058   6.151   4.967
  250ACC    O0226035   2.971   6.191   4.889
  250ACC    O0326036   3.061   6.171   5.099
  250ACC    C0426037   2.943   6.217   5.162
  250ACC    C0526038   2.849   6.098   5.170
  250ACC    N0626039   2.706   6.133   5.182
  250ACC    C0726040   2.688   6.208   5.309
  250ACC    C0826041   2.659   6.208   5.063
  250ACC    C0926042   2.629   6.007   5.187
  250ACC    H0A26043   3.239   6.125   4.856
  250ACC    H0B26044   3.134   5.981   4.869
  250ACC    H0C26045   3.228   6.034   5.007
  250ACC    H0D26046   2.900   6.298   5.106
  250ACC    H0E26047   2.966   6.254   5.261
  250ACC    H0F26048   2.879   6.042   5.257
  250ACC    H0G26049   2.862   6.032   5.084
  250ACC    H0H26050   2.730   6.308   5.303
  250ACC    H0I26051   2.731   6.155   5.393
  250ACC    H0J26052   2.585   6.223   5.334
  250ACC    H0K26053   2.701   6.308   5.056
  250ACC    H0M26054   2.551   6.223   5.065
  250ACC    H0N26055   2.684   6.156   4.971
  250ACC    H0O26056   2.642   5.953   5.280
  250ACC    H0P26057   2.661   5.940   5.108
  250ACC    H0Q26058   2.524   6.024   5.169
  251ACC    C0026059   4.604   6.451   5.917
  251ACC    C0126060   4.673   6.378   6.030
  251ACC    O0226061   4.643   6.263   6.060
  251ACC    O0326062   4.764   6.455   6.087
  251ACC    C0426063   4.853   6.402   6.183
  251ACC    C0526064   4.963   6.326   6.109
  251ACC    N0626065   5.083   6.294   6.190
  251ACC    C0726066   5.156   6.417   6.230
  251ACC    C0826067   5.050   6.212   6.309
  251ACC    C0926068   5.174   6.214   6.104
  251ACC    H0A26069   4.576   6.379   5.841
  251ACC    H0B26070   4.674   6.523   5.873
  251ACC    H0C26071   4.518   6.505   5.954
  251ACC    H0D26072   4.799   6.339   6.254
  251ACC    H0E26073   4.892   6.488   6.236
  251ACC    H0F26074   4.993   6.386   6.024
  251ACC    H0G26075   4.920   6.235   6.066
  251ACC    H0H26076   5.101   6.478   6.302
  251ACC    H0I26077   5.179   6.479   6.144
  251ACC    H0J26078   5.251   6.391   6.278
  251ACC    H0K26079   4.988   6.267   6.379
  251ACC    H0M26080   5.142   6.185   6.363
  251ACC    H0N26081   4.998   6.121   6.281
  251ACC    H0O26082   5.208   6.271   6.018
  251ACC    H0P26083   5.127   6.123   6.067
  251ACC    H0Q26084   5.264   6.185   6.157
  252ACC    C0026085   0.890   1.116   3.378
  252ACC    C0126086   0.931   0.990   3.309
  252ACC    O0226087   0.982   0.895   3.368
  252ACC    O0326088   0.903   0.999   3.180
  252ACC    C0426089   0.894   0.880   3.107
  252ACC    C0526090   0.759   0.817   3.143
  252ACC    N0626091   0.762   0.669   3.157
  252ACC    C0726092   0.806   0.604   3.033
  252ACC    C0826093   0.847   0.625   3.271
  252ACC    C0926094   0.624   0.627   3.184
  252ACC    H0A26095   0.923   1.117   3.482
  252ACC    H0B26096   0.782   1.127   3.371
  252ACC    H0C26097   0.935   1.195   3.319
  252ACC    H0D26098   0.981   0.818   3.127
  252ACC    H0E26099   0.897   0.906   3.002
  252ACC    H0F26100   0.688   0.846   3.065
  252ACC    H0G26101   0.717   0.860   3.233
  252ACC    H0H26102   0.909   0.629   3.011
  252ACC    H0I26103   0.748   0.639   2.947
  252ACC    H0J26104   0.797   0.496   3.039
  252ACC    H0K26105   0.950   0.657   3.264
  252ACC    H0M26106   0.850   0.517   3.278
  252ACC    H0N26107   0.807   0.663   3.365
  252ACC    H0O26108   0.559   0.655   3.101
  252ACC    H0P26109   0.584   0.675   3.273
  252ACC    H0Q26110   0.615   0.520   3.195
  253ACC    C0026111   4.163   2.325   4.592
  253ACC    C0126112   4.287   2.365   4.666
  253ACC    O0226113   4.383   2.411   4.605
  253ACC    O0326114   4.279   2.351   4.798
  253ACC    C0426115   4.390   2.390   4.875
  253ACC    C0526116   4.392   2.543   4.882
  253ACC    N0626117   4.516   2.602   4.937
  253ACC    C0726118   4.538   2.565   5.077
  253ACC    C0826119   4.635   2.563   4.857
  253ACC    C0926120   4.499   2.749   4.929
  253ACC    H0A26121   4.130   2.404   4.527
  253ACC    H0B26122   4.084   2.299   4.662
  253ACC    H0C26123   4.188   2.240   4.529
  253ACC    H0D26124   4.480   2.351   4.828
  253ACC    H0E26125   4.385   2.345   4.974
  253ACC    H0F26126   4.304   2.575   4.938
  253ACC    H0G26127   4.380   2.582   4.781
  253ACC    H0H26128   4.563   2.460   5.089
  253ACC    H0I26129   4.452   2.587   5.141
  253ACC    H0J26130   4.623   2.621   5.115
  253ACC    H0K26131   4.670   2.463   4.882
  253ACC    H0M26132   4.719   2.631   4.874
  253ACC    H0N26133   4.613   2.564   4.751
  253ACC    H0O26134   4.414   2.784   4.986
  253ACC    H0P26135   4.484   2.777   4.824
  253ACC    H0Q26136   4.589   2.799   4.965
  254ACC    C0026137   5.892   2.583   4.641
  254ACC    C0126138   5.888   2.726   4.683
  254ACC    O0226139   5.989   2.785   4.720
  254ACC    O0326140   5.764   2.774   4.676
  254ACC    C0426141   5.735   2.899   4.732
  254ACC    C0526142   5.812   3.010   4.658
  254ACC    N0626143   5.772   3.146   4.696
  254ACC    C0726144   5.643   3.174   4.630
  254ACC    C0826145   5.760   3.161   4.843
  254ACC    C0926146   5.878   3.239   4.646
  254ACC    H0A26147   5.994   2.548   4.630
  254ACC    H0B26148   5.834   2.573   4.550
  254ACC    H0C26149   5.843   2.526   4.719
  254ACC    H0D26150   5.763   2.896   4.836
  254ACC    H0E26151   5.627   2.912   4.729
  254ACC    H0F26152   5.797   2.995   4.552
  254ACC    H0G26153   5.918   2.999   4.676
  254ACC    H0H26154   5.564   3.106   4.660
  254ACC    H0I26155   5.652   3.167   4.523
  254ACC    H0J26156   5.608   3.273   4.653
  254ACC    H0K26157   5.668   3.120   4.881
  254ACC    H0M26158   5.769   3.265   4.875
  254ACC    H0N26159   5.836   3.107   4.896
  254ACC    H0O26160   5.888   3.236   4.538
  254ACC    H0P26161   5.975   3.217   4.689
  254ACC    H0Q26162   5.859   3.342   4.674
  255ACC    C0026163   3.891   2.504   1.227
  255ACC    C0126164   3.945   2.406   1.126
  255ACC    O0226165   3.911   2.287   1.125
  255ACC    O0326166   4.029   2.463   1.040
  255ACC    C0426167   4.083   2.383   0.937
  255ACC    C0526168   3.975   2.366   0.829
  255ACC    N0626169   3.986   2.242   0.749
  255ACC    C0726170   4.119   2.223   0.687
  255ACC    C0826171   3.955   2.125   0.836
  255ACC    C0926172   3.888   2.253   0.637
  255ACC    H0A26173   3.825   2.452   1.297
  255ACC    H0B26174   3.835   2.582   1.176
  255ACC    H0C26175   3.973   2.548   1.282
  255ACC    H0D26176   4.117   2.289   0.981
  255ACC    H0E26177   4.172   2.430   0.896
  255ACC    H0F26178   3.976   2.455   0.766
  255ACC    H0G26179   3.876   2.367   0.875
  255ACC    H0H26180   4.199   2.213   0.761
  255ACC    H0I26181   4.144   2.307   0.622
  255ACC    H0J26182   4.120   2.133   0.626
  255ACC    H0K26183   4.025   2.111   0.917
  255ACC    H0M26184   3.957   2.031   0.782
  255ACC    H0N26185   3.857   2.134   0.884
  255ACC    H0O26186   3.900   2.345   0.581
  255ACC    H0P26187   3.786   2.253   0.673
  255ACC    H0Q26188   3.897   2.172   0.566
  256ACC    C0026189   4.223   3.269   5.258
  256ACC    C0126190   4.339   3.248   5.165
  256ACC    O0226191   4.444   3.195   5.204
  256ACC    O0326192   4.312   3.293   5.044
  256ACC    C0426193   4.413   3.300   4.946
  256ACC    C0526194   4.469   3.162   4.908
  256ACC    N0626195   4.581   3.166   4.811
  256ACC    C0726196   4.538   3.211   4.677
  256ACC    C0826197   4.691   3.249   4.860
  256ACC    C0926198   4.635   3.029   4.798
  256ACC    H0A26199   4.254   3.245   5.360
  256ACC    H0B26200   4.140   3.207   5.227
  256ACC    H0C26201   4.193   3.374   5.254
  256ACC    H0D26202   4.490   3.366   4.985
  256ACC    H0E26203   4.369   3.348   4.859
  256ACC    H0F26204   4.388   3.102   4.867
  256ACC    H0G26205   4.503   3.108   4.996
  256ACC    H0H26206   4.506   3.314   4.678
  256ACC    H0I26207   4.455   3.150   4.640
  256ACC    H0J26208   4.619   3.201   4.604
  256ACC    H0K26209   4.670   3.355   4.857
  256ACC    H0M26210   4.775   3.230   4.794
  256ACC    H0N26211   4.721   3.221   4.961
  256ACC    H0O26212   4.556   2.964   4.763
  256ACC    H0P26213   4.677   2.990   4.890
  256ACC    H0Q26214   4.714   3.023   4.722
  257ACC    C0026215   3.123   4.759   5.712
  257ACC    C0126216   3.191   4.703   5.832
  257ACC    O0226217   3.301   4.747   5.866
  257ACC    O0326218   3.122   4.604   5.889
  257ACC    C0426219   3.182   4.489   5.948
  257ACC    C0526220   3.298   4.512   6.048
  257ACC    N0626221   3.403   4.408   6.055
  257ACC    C0726222   3.343   4.279   6.095
  257ACC    C0826223   3.475   4.393   5.927
  257ACC    C0926224   3.506   4.451   6.153
  257ACC    H0A26225   3.179   4.838   5.665
  257ACC    H0B26226   3.025   4.795   5.739
  257ACC    H0C26227   3.112   4.681   5.637
  257ACC    H0D26228   3.209   4.423   5.867
  257ACC    H0E26229   3.102   4.439   6.000
  257ACC    H0F26230   3.252   4.519   6.147
  257ACC    H0G26231   3.350   4.605   6.030
  257ACC    H0H26232   3.281   4.237   6.016
  257ACC    H0I26233   3.280   4.293   6.182
  257ACC    H0J26234   3.420   4.207   6.122
  257ACC    H0K26235   3.414   4.342   5.852
  257ACC    H0M26236   3.564   4.332   5.940
  257ACC    H0N26237   3.506   4.489   5.886
  257ACC    H0O26238   3.464   4.466   6.253
  257ACC    H0P26239   3.555   4.544   6.124
  257ACC    H0Q26240   3.584   4.376   6.165
  258ACC    C0026241   0.564   2.290   0.441
  258ACC    C0126242   0.588   2.310   0.589
  258ACC    O0226243   0.683   2.257   0.647
  258ACC    O0326244   0.496   2.389   0.644
  258ACC    C0426245   0.501   2.412   0.783
  258ACC    C0526246   0.611   2.514   0.817
  258ACC    N0626247   0.636   2.531   0.963
  258ACC    C0726248   0.513   2.568   1.037
  258ACC    C0826249   0.693   2.407   1.023
  258ACC    C0926250   0.736   2.639   0.980
  258ACC    H0A26251   0.638   2.222   0.401
  258ACC    H0B26252   0.569   2.385   0.389
  258ACC    H0C26253   0.465   2.247   0.426
  258ACC    H0D26254   0.517   2.317   0.834
  258ACC    H0E26255   0.403   2.450   0.814
  258ACC    H0F26256   0.582   2.609   0.773
  258ACC    H0G26257   0.704   2.486   0.768
  258ACC    H0H26258   0.440   2.488   1.039
  258ACC    H0I26259   0.465   2.656   0.994
  258ACC    H0J26260   0.536   2.592   1.141
  258ACC    H0K26261   0.619   2.328   1.030
  258ACC    H0M26262   0.726   2.426   1.125
  258ACC    H0N26263   0.778   2.370   0.966
  258ACC    H0O26264   0.702   2.733   0.937
  258ACC    H0P26265   0.831   2.615   0.931
  258ACC    H0Q26266   0.757   2.659   1.085
  259ACC    C0026267   5.017   6.037   4.432
  259ACC    C0126268   4.965   6.123   4.320
  259ACC    O0226269   4.866   6.091   4.255
  259ACC    O0326270   5.041   6.230   4.298
  259ACC    C0426271   5.007   6.322   4.196
  259ACC    C0526272   4.878   6.399   4.223
  259ACC    N0626273   4.818   6.452   4.098
  259ACC    C0726274   4.913   6.533   4.018
  259ACC    C0826275   4.768   6.338   4.015
  259ACC    C0926276   4.706   6.540   4.136
  259ACC    H0A26277   4.998   5.932   4.412
  259ACC    H0B26278   4.968   6.067   4.524
  259ACC    H0C26279   5.124   6.053   4.445
  259ACC    H0D26280   4.996   6.269   4.103
  259ACC    H0E26281   5.089   6.391   4.185
  259ACC    H0F26282   4.898   6.478   4.296
  259ACC    H0G26283   4.804   6.336   4.273
  259ACC    H0H26284   5.000   6.478   3.986
  259ACC    H0I26285   4.945   6.622   4.074
  259ACC    H0J26286   4.864   6.567   3.928
  259ACC    H0K26287   4.837   6.308   3.936
  259ACC    H0M26288   4.675   6.363   3.964
  259ACC    H0N26289   4.744   6.251   4.074
  259ACC    H0O26290   4.739   6.629   4.190
  259ACC    H0P26291   4.637   6.487   4.202
  259ACC    H0Q26292   4.650   6.573   4.048
  260ACC    C0026293   2.092   4.131   2.349
  260ACC    C0126294   1.962   4.192   2.397
  260ACC    O0226295   1.892   4.261   2.323
  260ACC    O0326296   1.937   4.157   2.522
  260ACC    C0426297   1.826   4.209   2.591
  260ACC    C0526298   1.692   4.152   2.540
  260ACC    N0626299   1.581   4.249   2.542
  260ACC    C0726300   1.573   4.317   2.674
  260ACC    C0826301   1.598   4.339   2.427
  260ACC    C0926302   1.452   4.181   2.519
  260ACC    H0A26303   2.135   4.192   2.270
  260ACC    H0B26304   2.076   4.030   2.314
  260ACC    H0C26305   2.162   4.129   2.432
  260ACC    H0D26306   1.833   4.317   2.585
  260ACC    H0E26307   1.837   4.183   2.695
  260ACC    H0F26308   1.667   4.064   2.600
  260ACC    H0G26309   1.705   4.115   2.438
  260ACC    H0H26310   1.656   4.386   2.693
  260ACC    H0I26311   1.571   4.245   2.755
  260ACC    H0J26312   1.481   4.373   2.684
  260ACC    H0K26313   1.693   4.389   2.434
  260ACC    H0M26314   1.517   4.411   2.416
  260ACC    H0N26315   1.602   4.283   2.333
  260ACC    H0O26316   1.430   4.108   2.597
  260ACC    H0P26317   1.454   4.129   2.423
  260ACC    H0Q26318   1.369   4.250   2.515
  261ACC    C0026319   2.375   3.041   6.346
  261ACC    C0126320   2.307   2.923   6.408
  261ACC    O0226321   2.202   2.878   6.364
  261ACC    O0326322   2.372   2.876   6.513
  261ACC    C0426323   2.307   2.788   6.600
  261ACC    C0526324   2.262   2.657   6.532
  261ACC    N0626325   2.130   2.607   6.577
  261ACC    C0726326   2.136   2.579   6.723
  261ACC    C0826327   2.018   2.701   6.549
  261ACC    C0926328   2.107   2.484   6.499
  261ACC    H0A26329   2.317   3.075   6.261
  261ACC    H0B26330   2.475   3.013   6.313
  261ACC    H0C26331   2.381   3.121   6.420
  261ACC    H0D26332   2.225   2.843   6.646
  261ACC    H0E26333   2.376   2.762   6.680
  261ACC    H0F26334   2.339   2.584   6.553
  261ACC    H0G26335   2.264   2.664   6.424
  261ACC    H0H26336   2.182   2.658   6.781
  261ACC    H0I26337   2.191   2.487   6.745
  261ACC    H0J26338   2.036   2.572   6.763
  261ACC    H0K26339   2.025   2.794   6.605
  261ACC    H0M26340   1.922   2.656   6.575
  261ACC    H0N26341   2.014   2.726   6.443
  261ACC    H0O26342   2.176   2.404   6.527
  261ACC    H0P26343   2.118   2.501   6.392
  261ACC    H0Q26344   2.007   2.446   6.509
  262ACC    C0026345   5.916   4.552   4.018
  262ACC    C0126346   5.847   4.423   3.994
  262ACC    O0226347   5.804   4.390   3.884
  262ACC    O0326348   5.851   4.347   4.103
  262ACC    C0426349   5.846   4.209   4.085
  262ACC    C0526350   5.984   4.171   4.030
  262ACC    N0626351   5.996   4.031   3.982
  262ACC    C0726352   5.969   3.937   4.093
  262ACC    C0826353   5.905   4.004   3.869
  262ACC    C0926354   6.136   4.017   3.935
  262ACC    H0A26355   5.937   4.598   3.923
  262ACC    H0B26356   6.012   4.533   4.066
  262ACC    H0C26357   5.851   4.613   4.081
  262ACC    H0D26358   5.764   4.184   4.017
  262ACC    H0E26359   5.826   4.162   4.181
  262ACC    H0F26360   6.057   4.190   4.109
  262ACC    H0G26361   6.014   4.237   3.948
  262ACC    H0H26362   5.864   3.934   4.122
  262ACC    H0I26363   6.026   3.964   4.183
  262ACC    H0J26364   5.999   3.835   4.068
  262ACC    H0K26365   5.800   4.002   3.899
  262ACC    H0M26366   5.926   3.906   3.825
  262ACC    H0N26367   5.915   4.080   3.792
  262ACC    H0O26368   6.206   4.054   4.009
  262ACC    H0P26369   6.156   4.074   3.844
  262ACC    H0Q26370   6.162   3.912   3.918
  263ACC    C0026371   1.145   3.986   2.265
  263ACC    C0126372   1.185   3.932   2.399
  263ACC    O0226373   1.295   3.953   2.447
  263ACC    O0326374   1.090   3.862   2.458
  263ACC    C0426375   1.117   3.814   2.587
  263ACC    C0526376   1.089   3.926   2.689
  263ACC    N0626377   1.108   3.885   2.831
  263ACC    C0726378   1.056   3.747   2.854
  263ACC    C0826379   1.251   3.892   2.871
  263ACC    C0926380   1.033   3.980   2.917
  263ACC    H0A26381   1.114   4.090   2.276
  263ACC    H0B26382   1.063   3.928   2.221
  263ACC    H0C26383   1.231   3.984   2.199
  263ACC    H0D26384   1.219   3.777   2.596
  263ACC    H0E26385   1.051   3.728   2.600
  263ACC    H0F26386   0.987   3.961   2.673
  263ACC    H0G26387   1.153   4.013   2.668
  263ACC    H0H26388   1.122   3.671   2.813
  263ACC    H0I26389   0.956   3.735   2.813
  263ACC    H0J26390   1.048   3.724   2.959
  263ACC    H0K26391   1.314   3.835   2.804
  263ACC    H0M26392   1.265   3.856   2.973
  263ACC    H0N26393   1.288   3.994   2.868
  263ACC    H0O26394   0.925   3.972   2.902
  263ACC    H0P26395   1.061   4.083   2.897
  263ACC    H0Q26396   1.053   3.963   3.023
  264ACC    C0026397   5.793   1.124   5.396
  264ACC    C0126398   5.707   1.076   5.507
  264ACC    O0226399   5.605   1.011   5.488
  264ACC    O0326400   5.754   1.112   5.622
  264ACC    C0426401   5.719   1.039   5.735
  264ACC    C0526402   5.745   0.889   5.714
  264ACC    N0626403   5.715   0.809   5.834
  264ACC    C0726404   5.817   0.840   5.937
  264ACC    C0826405   5.576   0.836   5.882
  264ACC    C0926406   5.729   0.666   5.797
  264ACC    H0A26407   5.865   1.049   5.364
  264ACC    H0B26408   5.851   1.206   5.435
  264ACC    H0C26409   5.729   1.151   5.314
  264ACC    H0D26410   5.615   1.058   5.756
  264ACC    H0E26411   5.783   1.079   5.812
  264ACC    H0F26412   5.849   0.875   5.683
  264ACC    H0G26413   5.685   0.848   5.633
  264ACC    H0H26414   5.806   0.940   5.976
  264ACC    H0I26415   5.918   0.833   5.897
  264ACC    H0J26416   5.812   0.772   6.022
  264ACC    H0K26417   5.573   0.912   5.960
  264ACC    H0M26418   5.529   0.748   5.923
  264ACC    H0N26419   5.509   0.869   5.803
  264ACC    H0O26420   5.829   0.644   5.761
  264ACC    H0P26421   5.657   0.637   5.721
  264ACC    H0Q26422   5.711   0.601   5.883
  265ACC    C0026423   4.613   1.738   2.215
  265ACC    C0126424   4.607   1.881   2.165
  265ACC    O0226425   4.617   1.975   2.242
  265ACC    O0326426   4.592   1.886   2.032
  265ACC    C0426427   4.588   2.010   1.964
  265ACC    C0526428   4.721   2.087   1.973
  265ACC    N0626429   4.745   2.184   1.862
  265ACC    C0726430   4.806   2.114   1.746
  265ACC    C0826431   4.622   2.255   1.818
  265ACC    C0926432   4.840   2.287   1.911
  265ACC    H0A26433   4.516   1.710   2.256
  265ACC    H0B26434   4.690   1.731   2.292
  265ACC    H0C26435   4.638   1.670   2.135
  265ACC    H0D26436   4.507   2.070   2.005
  265ACC    H0E26437   4.563   1.985   1.861
  265ACC    H0F26438   4.805   2.018   1.981
  265ACC    H0G26439   4.718   2.140   2.069
  265ACC    H0H26440   4.738   2.040   1.705
  265ACC    H0I26441   4.897   2.061   1.772
  265ACC    H0J26442   4.831   2.183   1.665
  265ACC    H0K26443   4.550   2.190   1.771
  265ACC    H0M26444   4.646   2.335   1.748
  265ACC    H0N26445   4.572   2.302   1.902
  265ACC    H0O26446   4.930   2.242   1.954
  265ACC    H0P26447   4.795   2.347   1.990
  265ACC    H0Q26448   4.870   2.355   1.832
  266ACC    C0026449   0.900   2.199   3.112
  266ACC    C0126450   0.995   2.308   3.076
  266ACC    O0226451   0.957   2.422   3.046
  266ACC    O0326452   1.120   2.267   3.087
  266ACC    C0426453   1.222   2.362   3.091
  266ACC    C0526454   1.221   2.422   3.232
  266ACC    N0626455   1.317   2.531   3.255
  266ACC    C0726456   1.450   2.498   3.199
  266ACC    C0826457   1.267   2.655   3.193
  266ACC    C0926458   1.330   2.555   3.400
  266ACC    H0A26459   0.802   2.239   3.134
  266ACC    H0B26460   0.939   2.152   3.202
  266ACC    H0C26461   0.892   2.123   3.034
  266ACC    H0D26462   1.207   2.437   3.014
  266ACC    H0E26463   1.315   2.311   3.068
  266ACC    H0F26464   1.238   2.344   3.306
  266ACC    H0G26465   1.121   2.459   3.255
  266ACC    H0H26466   1.453   2.493   3.091
  266ACC    H0I26467   1.484   2.404   3.239
  266ACC    H0J26468   1.523   2.571   3.231
  266ACC    H0K26469   1.267   2.649   3.084
  266ACC    H0M26470   1.335   2.733   3.226
  266ACC    H0N26471   1.167   2.679   3.228
  266ACC    H0O26472   1.364   2.465   3.452
  266ACC    H0P26473   1.235   2.584   3.445
  266ACC    H0Q26474   1.403   2.633   3.423
  267ACC    C0026475   4.704   6.990   2.167
  267ACC    C0126476   4.740   6.853   2.117
  267ACC    O0226477   4.798   6.772   2.188
  267ACC    O0326478   4.705   6.833   1.990
  267ACC    C0426479   4.714   6.704   1.934
  267ACC    C0526480   4.588   6.627   1.974
  267ACC    N0626481   4.582   6.486   1.927
  267ACC    C0726482   4.595   6.474   1.779
  267ACC    C0826483   4.687   6.405   1.992
  267ACC    C0926484   4.449   6.432   1.965
  267ACC    H0A26485   4.792   7.053   2.166
  267ACC    H0B26486   4.663   6.986   2.267
  267ACC    H0C26487   4.633   7.039   2.100
  267ACC    H0D26488   4.805   6.654   1.967
  267ACC    H0E26489   4.718   6.715   1.827
  267ACC    H0F26490   4.502   6.679   1.934
  267ACC    H0G26491   4.575   6.630   2.083
  267ACC    H0H26492   4.692   6.507   1.743
  267ACC    H0I26493   4.518   6.533   1.728
  267ACC    H0J26494   4.584   6.371   1.747
  267ACC    H0K26495   4.785   6.420   1.947
  267ACC    H0M26496   4.664   6.299   1.982
  267ACC    H0N26497   4.694   6.424   2.099
  267ACC    H0O26498   4.368   6.489   1.919
  267ACC    H0P26499   4.433   6.435   2.073
  267ACC    H0Q26500   4.437   6.329   1.933
  268ACC    C0026501   1.788   5.408   6.235
  268ACC    C0126502   1.910   5.332   6.192
  268ACC    O0226503   2.024   5.365   6.222
  268ACC    O0326504   1.874   5.229   6.117
  268ACC    C0426505   1.949   5.112   6.126
  268ACC    C0526506   1.852   5.016   6.196
  268ACC    N0626507   1.916   4.894   6.249
  268ACC    C0726508   2.006   4.837   6.146
  268ACC    C0826509   1.985   4.931   6.375
  268ACC    C0926510   1.815   4.790   6.280
  268ACC    H0A26511   1.809   5.485   6.307
  268ACC    H0B26512   1.714   5.340   6.270
  268ACC    H0C26513   1.741   5.453   6.152
  268ACC    H0D26514   2.042   5.128   6.181
  268ACC    H0E26515   1.975   5.079   6.026
  268ACC    H0F26516   1.772   4.993   6.125
  268ACC    H0G26517   1.804   5.072   6.276
  268ACC    H0H26518   2.096   4.897   6.132
  268ACC    H0I26519   1.956   4.831   6.049
  268ACC    H0J26520   2.039   4.736   6.169
  268ACC    H0K26521   2.043   5.023   6.365
  268ACC    H0M26522   2.057   4.857   6.408
  268ACC    H0N26523   1.918   4.950   6.458
  268ACC    H0O26524   1.750   4.770   6.194
  268ACC    H0P26525   1.750   4.817   6.363
  268ACC    H0Q26526   1.862   4.696   6.308
  269ACC    C0026527   4.563   4.889   2.665
  269ACC    C0126528   4.446   4.851   2.579
  269ACC    O0226529   4.453   4.850   2.456
  269ACC    O0326530   4.340   4.814   2.652
  269ACC    C0426531   4.221   4.782   2.585
  269ACC    C0526532   4.232   4.640   2.527
  269ACC    N0626533   4.135   4.610   2.418
  269ACC    C0726534   3.996   4.623   2.467
  269ACC    C0826535   4.161   4.698   2.300
  269ACC    C0926536   4.156   4.469   2.375
  269ACC    H0A26537   4.624   4.964   2.615
  269ACC    H0B26538   4.623   4.801   2.684
  269ACC    H0C26539   4.529   4.928   2.761
  269ACC    H0D26540   4.205   4.857   2.510
  269ACC    H0E26541   4.138   4.790   2.656
  269ACC    H0F26542   4.222   4.569   2.609
  269ACC    H0G26543   4.332   4.626   2.488
  269ACC    H0H26544   3.975   4.723   2.504
  269ACC    H0I26545   3.977   4.554   2.549
  269ACC    H0J26546   3.924   4.599   2.388
  269ACC    H0K26547   4.129   4.800   2.316
  269ACC    H0M26548   4.111   4.662   2.211
  269ACC    H0N26549   4.267   4.702   2.276
  269ACC    H0O26550   4.140   4.398   2.456
  269ACC    H0P26551   4.257   4.451   2.338
  269ACC    H0Q26552   4.089   4.439   2.294
  270ACC    C0026553   0.874   0.779   3.647
  270ACC    C0126554   0.736   0.821   3.602
  270ACC    O0226555   0.717   0.872   3.493
  270ACC    O0326556   0.642   0.790   3.690
  270ACC    C0426557   0.506   0.817   3.660
  270ACC    C0526558   0.456   0.713   3.559
  270ACC    N0626559   0.321   0.733   3.502
  270ACC    C0726560   0.212   0.708   3.599
  270ACC    C0826561   0.313   0.871   3.452
  270ACC    C0926562   0.302   0.637   3.391
  270ACC    H0A26563   0.946   0.854   3.619
  270ACC    H0B26564   0.901   0.685   3.599
  270ACC    H0C26565   0.878   0.767   3.756
  270ACC    H0D26566   0.497   0.920   3.625
  270ACC    H0E26567   0.449   0.810   3.752
  270ACC    H0F26568   0.455   0.620   3.611
  270ACC    H0G26569   0.527   0.704   3.477
  270ACC    H0H26570   0.235   0.747   3.698
  270ACC    H0I26571   0.189   0.603   3.609
  270ACC    H0J26572   0.119   0.756   3.567
  270ACC    H0K26573   0.294   0.942   3.533
  270ACC    H0M26574   0.234   0.880   3.378
  270ACC    H0N26575   0.404   0.903   3.403
  270ACC    H0O26576   0.198   0.635   3.358
  270ACC    H0P26577   0.328   0.535   3.420
  270ACC    H0Q26578   0.362   0.661   3.304
  271ACC    C0026579   2.146   4.796   4.285
  271ACC    C0126580   2.293   4.766   4.280
  271ACC    O0226581   2.369   4.788   4.374
  271ACC    O0326582   2.328   4.709   4.167
  271ACC    C0426583   2.450   4.638   4.161
  271ACC    C0526584   2.434   4.512   4.248
  271ACC    N0626585   2.549   4.417   4.246
  271ACC    C0726586   2.611   4.400   4.112
  271ACC    C0826587   2.654   4.461   4.340
  271ACC    C0926588   2.496   4.285   4.291
  271ACC    H0A26589   2.112   4.789   4.387
  271ACC    H0B26590   2.090   4.723   4.227
  271ACC    H0C26591   2.126   4.895   4.245
  271ACC    H0D26592   2.533   4.700   4.194
  271ACC    H0E26593   2.463   4.612   4.056
  271ACC    H0F26594   2.343   4.463   4.214
  271ACC    H0G26595   2.410   4.538   4.351
  271ACC    H0H26596   2.658   4.491   4.076
  271ACC    H0I26597   2.539   4.370   4.036
  271ACC    H0J26598   2.687   4.321   4.113
  271ACC    H0K26599   2.696   4.558   4.311
  271ACC    H0M26600   2.737   4.390   4.343
  271ACC    H0N26601   2.616   4.469   4.442
  271ACC    H0O26602   2.421   4.248   4.221
  271ACC    H0P26603   2.449   4.292   4.388
  271ACC    H0Q26604   2.575   4.210   4.296
  272ACC    C0026605   3.013   5.863   6.331
  272ACC    C0126606   2.978   5.895   6.189
  272ACC    O0226607   3.006   6.003   6.138
  272ACC    O0326608   2.920   5.790   6.129
  272ACC    C0426609   2.868   5.807   5.999
  272ACC    C0526610   2.984   5.811   5.898
  272ACC    N0626611   2.967   5.904   5.783
  272ACC    C0726612   2.884   5.846   5.674
  272ACC    C0826613   2.912   6.037   5.820
  272ACC    C0926614   3.103   5.926   5.730
  272ACC    H0A26615   3.066   5.946   6.377
  272ACC    H0B26616   3.076   5.775   6.329
  272ACC    H0C26617   2.922   5.841   6.388
  272ACC    H0D26618   2.806   5.896   6.002
  272ACC    H0E26619   2.801   5.726   5.977
  272ACC    H0F26620   3.004   5.711   5.863
  272ACC    H0G26621   3.074   5.839   5.954
  272ACC    H0H26622   2.784   5.820   5.709
  272ACC    H0I26623   2.928   5.756   5.631
  272ACC    H0J26624   2.871   5.915   5.591
  272ACC    H0K26625   2.805   6.031   5.844
  272ACC    H0M26626   2.919   6.108   5.738
  272ACC    H0N26627   2.963   6.079   5.906
  272ACC    H0O26628   3.142   5.838   5.680
  272ACC    H0P26629   3.174   5.956   5.807
  272ACC    H0Q26630   3.102   6.009   5.661
  273ACC    C0026631   3.183   1.512   4.284
  273ACC    C0126632   3.110   1.494   4.414
  273ACC    O0226633   3.032   1.401   4.431
  273ACC    O0326634   3.143   1.588   4.503
  273ACC    C0426635   3.057   1.621   4.611
  273ACC    C0526636   3.024   1.507   4.707
  273ACC    N0626637   2.938   1.545   4.822
  273ACC    C0726638   2.990   1.655   4.906
  273ACC    C0826639   2.803   1.585   4.776
  273ACC    C0926640   2.932   1.426   4.909
  273ACC    H0A26641   3.110   1.523   4.204
  273ACC    H0B26642   3.242   1.424   4.262
  273ACC    H0C26643   3.246   1.601   4.286
  273ACC    H0D26644   2.966   1.661   4.569
  273ACC    H0E26645   3.107   1.701   4.664
  273ACC    H0F26646   3.116   1.462   4.740
  273ACC    H0G26647   2.971   1.428   4.653
  273ACC    H0H26648   2.998   1.748   4.852
  273ACC    H0I26649   3.087   1.630   4.945
  273ACC    H0J26650   2.924   1.671   4.992
  273ACC    H0K26651   2.805   1.679   4.721
  273ACC    H0M26652   2.735   1.602   4.859
  273ACC    H0N26653   2.759   1.512   4.708
  273ACC    H0O26654   3.031   1.396   4.942
  273ACC    H0P26655   2.897   1.341   4.855
  273ACC    H0Q26656   2.870   1.441   4.998
  274ACC    C0026657   4.422   1.456   1.215
  274ACC    C0126658   4.480   1.587   1.171
  274ACC    O0226659   4.568   1.644   1.233
  274ACC    O0326660   4.423   1.629   1.059
  274ACC    C0426661   4.449   1.761   1.017
  274ACC    C0526662   4.586   1.765   0.952
  274ACC    N0626663   4.622   1.901   0.907
  274ACC    C0726664   4.525   1.946   0.804
  274ACC    C0826665   4.629   1.996   1.022
  274ACC    C0926666   4.755   1.893   0.847
  274ACC    H0A26667   4.492   1.409   1.284
  274ACC    H0B26668   4.404   1.392   1.129
  274ACC    H0C26669   4.328   1.478   1.266
  274ACC    H0D26670   4.449   1.828   1.102
  274ACC    H0E26671   4.368   1.791   0.952
  274ACC    H0F26672   4.590   1.694   0.870
  274ACC    H0G26673   4.661   1.733   1.024
  274ACC    H0H26674   4.437   1.991   0.849
  274ACC    H0I26675   4.493   1.865   0.739
  274ACC    H0J26676   4.569   2.022   0.739
  274ACC    H0K26677   4.531   2.031   1.054
  274ACC    H0M26678   4.685   2.086   0.998
  274ACC    H0N26679   4.677   1.952   1.110
  274ACC    H0O26680   4.761   1.823   0.764
  274ACC    H0P26681   4.828   1.862   0.922
  274ACC    H0Q26682   4.783   1.992   0.809
  275ACC    C0026683   2.409   2.191   4.775
  275ACC    C0126684   2.283   2.187   4.692
  275ACC    O0226685   2.265   2.099   4.608
  275ACC    O0326686   2.201   2.288   4.721
  275ACC    C0426687   2.082   2.305   4.645
  275ACC    C0526688   1.975   2.206   4.693
  275ACC    N0626689   1.844   2.216   4.622
  275ACC    C0726690   1.757   2.331   4.654
  275ACC    C0826691   1.862   2.214   4.477
  275ACC    C0926692   1.769   2.098   4.668
  275ACC    H0A26693   2.468   2.101   4.756
  275ACC    H0B26694   2.386   2.196   4.881
  275ACC    H0C26695   2.468   2.278   4.747
  275ACC    H0D26696   2.107   2.290   4.539
  275ACC    H0E26697   2.048   2.408   4.655
  275ACC    H0F26698   1.960   2.216   4.800
  275ACC    H0G26699   2.016   2.106   4.680
  275ACC    H0H26700   1.809   2.426   4.645
  275ACC    H0I26701   1.713   2.322   4.752
  275ACC    H0J26702   1.670   2.334   4.588
  275ACC    H0K26703   1.893   2.311   4.438
  275ACC    H0M26704   1.772   2.184   4.423
  275ACC    H0N26705   1.942   2.145   4.457
  275ACC    H0O26706   1.772   2.097   4.776
  275ACC    H0P26707   1.814   2.005   4.638
  275ACC    H0Q26708   1.664   2.098   4.637
  276ACC    C0026709   2.466   2.225   0.757
  276ACC    C0126710   2.595   2.272   0.820
  276ACC    O0226711   2.675   2.342   0.759
  276ACC    O0326712   2.603   2.234   0.946
  276ACC    C0426713   2.678   2.313   1.035
  276ACC    C0526714   2.603   2.299   1.168
  276ACC    N0626715   2.647   2.389   1.279
  276ACC    C0726716   2.789   2.381   1.308
  276ACC    C0826717   2.620   2.530   1.247
  276ACC    C0926718   2.575   2.347   1.401
  276ACC    H0A26719   2.391   2.301   0.775
  276ACC    H0B26720   2.434   2.131   0.802
  276ACC    H0C26721   2.481   2.213   0.650
  276ACC    H0D26722   2.680   2.417   1.001
  276ACC    H0E26723   2.781   2.278   1.039
  276ACC    H0F26724   2.608   2.195   1.199
  276ACC    H0G26725   2.498   2.318   1.147
  276ACC    H0H26726   2.848   2.422   1.226
  276ACC    H0I26727   2.817   2.279   1.329
  276ACC    H0J26728   2.817   2.439   1.396
  276ACC    H0K26729   2.681   2.566   1.163
  276ACC    H0M26730   2.642   2.595   1.331
  276ACC    H0N26731   2.517   2.541   1.218
  276ACC    H0O26732   2.603   2.246   1.432
  276ACC    H0P26733   2.467   2.347   1.386
  276ACC    H0Q26734   2.597   2.412   1.486
  277ACC    C0026735   5.369   6.247   4.244
  277ACC    C0126736   5.329   6.145   4.141
  277ACC    O0226737   5.348   6.025   4.158
  277ACC    O0326738   5.270   6.199   4.033
  277ACC    C0426739   5.218   6.111   3.935
  277ACC    C0526740   5.081   6.066   3.980
  277ACC    N0626741   5.051   5.925   3.954
  277ACC    C0726742   5.050   5.887   3.812
  277ACC    C0826743   5.140   5.839   4.034
  277ACC    C0926744   4.916   5.908   4.008
  277ACC    H0A26745   5.381   6.198   4.341
  277ACC    H0B26746   5.292   6.323   4.255
  277ACC    H0C26747   5.463   6.293   4.216
  277ACC    H0D26748   5.289   6.030   3.914
  277ACC    H0E26749   5.201   6.166   3.843
  277ACC    H0F26750   5.006   6.130   3.935
  277ACC    H0G26751   5.075   6.079   4.088
  277ACC    H0H26752   5.149   5.889   3.768
  277ACC    H0I26753   4.984   5.952   3.754
  277ACC    H0J26754   5.012   5.786   3.799
  277ACC    H0K26755   5.243   5.838   3.998
  277ACC    H0M26756   5.105   5.736   4.037
  277ACC    H0N26757   5.142   5.875   4.137
  277ACC    H0O26758   4.843   5.979   3.968
  277ACC    H0P26759   4.915   5.915   4.116
  277ACC    H0Q26760   4.877   5.810   3.984
  278ACC    C0026761   6.496   2.825   2.865
  278ACC    C0126762   6.388   2.742   2.928
  278ACC    O0226763   6.339   2.771   3.037
  278ACC    O0326764   6.355   2.639   2.851
  278ACC    C0426765   6.252   2.551   2.891
  278ACC    C0526766   6.115   2.619   2.869
  278ACC    N0626767   5.998   2.540   2.916
  278ACC    C0726768   6.003   2.398   2.873
  278ACC    C0826769   5.990   2.548   3.064
  278ACC    C0926770   5.875   2.600   2.858
  278ACC    H0A26771   6.518   2.910   2.929
  278ACC    H0B26772   6.462   2.860   2.768
  278ACC    H0C26773   6.585   2.764   2.853
  278ACC    H0D26774   6.267   2.520   2.995
  278ACC    H0E26775   6.260   2.463   2.828
  278ACC    H0F26776   6.106   2.638   2.762
  278ACC    H0G26777   6.114   2.717   2.916
  278ACC    H0H26778   6.091   2.346   2.911
  278ACC    H0I26779   6.005   2.389   2.765
  278ACC    H0J26780   5.917   2.342   2.911
  278ACC    H0K26781   6.082   2.514   3.112
  278ACC    H0M26782   5.911   2.483   3.103
  278ACC    H0N26783   5.972   2.649   3.100
  278ACC    H0O26784   5.877   2.593   2.749
  278ACC    H0P26785   5.866   2.705   2.885
  278ACC    H0Q26786   5.786   2.547   2.894
  279ACC    C0026787   1.817   6.073   0.702
  279ACC    C0126788   1.943   5.995   0.671
  279ACC    O0226789   1.983   5.978   0.556
  279ACC    O0326790   2.006   5.955   0.780
  279ACC    C0426791   2.092   5.844   0.774
  279ACC    C0526792   2.239   5.880   0.756
  279ACC    N0626793   2.320   5.761   0.719
  279ACC    C0726794   2.285   5.638   0.796
  279ACC    C0826795   2.303   5.737   0.574
  279ACC    C0926796   2.463   5.791   0.743
  279ACC    H0A26797   1.792   6.139   0.620
  279ACC    H0B26798   1.828   6.131   0.794
  279ACC    H0C26799   1.735   6.003   0.717
  279ACC    H0D26800   2.054   5.775   0.698
  279ACC    H0E26801   2.085   5.794   0.870
  279ACC    H0F26802   2.275   5.924   0.849
  279ACC    H0G26803   2.249   5.956   0.679
  279ACC    H0H26804   2.185   5.600   0.774
  279ACC    H0I26805   2.290   5.655   0.904
  279ACC    H0J26806   2.353   5.556   0.774
  279ACC    H0K26807   2.200   5.737   0.542
  279ACC    H0M26808   2.349   5.644   0.544
  279ACC    H0N26809   2.350   5.816   0.514
  279ACC    H0O26810   2.486   5.801   0.849
  279ACC    H0P26811   2.493   5.883   0.692
  279ACC    H0Q26812   2.527   5.712   0.702
  280ACC    C0026813   0.813   5.391   5.841
  280ACC    C0126814   0.725   5.428   5.954
  280ACC    O0226815   0.620   5.488   5.937
  280ACC    O0326816   0.773   5.376   6.067
  280ACC    C0426817   0.685   5.350   6.172
  280ACC    C0526818   0.616   5.220   6.129
  280ACC    N0626819   0.468   5.221   6.128
  280ACC    C0726820   0.420   5.197   6.264
  280ACC    C0826821   0.403   5.344   6.078
  280ACC    C0926822   0.422   5.111   6.042
  280ACC    H0A26823   0.811   5.464   5.760
  280ACC    H0B26824   0.796   5.290   5.804
  280ACC    H0C26825   0.907   5.393   5.891
  280ACC    H0D26826   0.624   5.438   6.191
  280ACC    H0E26827   0.745   5.335   6.262
  280ACC    H0F26828   0.654   5.140   6.193
  280ACC    H0G26829   0.652   5.190   6.030
  280ACC    H0H26830   0.448   5.281   6.329
  280ACC    H0I26831   0.458   5.105   6.309
  280ACC    H0J26832   0.312   5.189   6.260
  280ACC    H0K26833   0.429   5.434   6.134
  280ACC    H0M26834   0.294   5.338   6.080
  280ACC    H0N26835   0.432   5.362   5.975
  280ACC    H0O26836   0.473   5.018   6.068
  280ACC    H0P26837   0.445   5.132   5.938
  280ACC    H0Q26838   0.314   5.097   6.049
  281ACC    C0026839   1.045   0.711   5.854
  281ACC    C0126840   0.979   0.578   5.878
  281ACC    O0226841   0.869   0.549   5.832
  281ACC    O0326842   1.052   0.502   5.960
  281ACC    C0426843   1.003   0.375   5.997
  281ACC    C0526844   1.052   0.274   5.893
  281ACC    N0626845   0.952   0.170   5.860
  281ACC    C0726846   0.900   0.101   5.980
  281ACC    C0826847   0.842   0.228   5.778
  281ACC    C0926848   1.022   0.070   5.778
  281ACC    H0A26849   0.998   0.761   5.769
  281ACC    H0B26850   1.150   0.696   5.832
  281ACC    H0C26851   1.035   0.774   5.942
  281ACC    H0D26852   0.894   0.378   6.008
  281ACC    H0E26853   1.041   0.347   6.095
  281ACC    H0F26854   1.143   0.229   5.933
  281ACC    H0G26855   1.083   0.327   5.802
  281ACC    H0H26856   0.838   0.165   6.043
  281ACC    H0I26857   0.982   0.064   6.043
  281ACC    H0J26858   0.838   0.015   5.954
  281ACC    H0K26859   0.782   0.298   5.835
  281ACC    H0M26860   0.775   0.151   5.739
  281ACC    H0N26861   0.883   0.283   5.692
  281ACC    H0O26862   1.100   0.023   5.838
  281ACC    H0P26863   1.070   0.117   5.691
  281ACC    H0Q26864   0.956   7.181   5.743
  282ACC    C0026865   6.632   4.461   2.534
  282ACC    C0126866   6.543   4.395   2.431
  282ACC    O0226867   6.459   4.457   2.367
  282ACC    O0326868   6.568   4.264   2.420
  282ACC    C0426869   6.489   4.189   2.330
  282ACC    C0526870   6.541   4.211   2.187
  282ACC    N0626871   6.434   4.212   2.083
  282ACC    C0726872   6.343   4.097   2.098
  282ACC    C0826873   6.356   4.337   2.090
  282ACC    C0926874   6.499   4.209   1.949
  282ACC    H0A26875   6.608   4.566   2.541
  282ACC    H0B26876   6.736   4.449   2.505
  282ACC    H0C26877   6.616   4.414   2.631
  282ACC    H0D26878   6.385   4.219   2.345
  282ACC    H0E26879   6.495   4.084   2.358
  282ACC    H0F26880   6.615   4.134   2.167
  282ACC    H0G26881   6.597   4.305   2.182
  282ACC    H0H26882   6.283   4.106   2.187
  282ACC    H0I26883   6.398   4.003   2.105
  282ACC    H0J26884   6.272   4.092   2.014
  282ACC    H0K26885   6.303   4.350   2.185
  282ACC    H0M26886   6.282   4.345   2.010
  282ACC    H0N26887   6.424   4.421   2.082
  282ACC    H0O26888   6.563   4.121   1.937
  282ACC    H0P26889   6.563   4.296   1.934
  282ACC    H0Q26890   6.426   4.208   1.868
  283ACC    C0026891   3.126   2.376   1.303
  283ACC    C0126892   3.054   2.256   1.248
  283ACC    O0226893   2.999   2.259   1.139
  283ACC    O0326894   3.064   2.148   1.327
  283ACC    C0426895   2.973   2.041   1.311
  283ACC    C0526896   2.988   1.967   1.177
  283ACC    N0626897   2.878   1.877   1.140
  283ACC    C0726898   2.868   1.771   1.240
  283ACC    C0826899   2.750   1.949   1.126
  283ACC    C0926900   2.914   1.816   1.010
  283ACC    H0A26901   3.131   2.453   1.227
  283ACC    H0B26902   3.226   2.349   1.336
  283ACC    H0C26903   3.068   2.415   1.387
  283ACC    H0D26904   2.873   2.079   1.326
  283ACC    H0E26905   2.992   1.972   1.392
  283ACC    H0F26906   3.074   1.903   1.189
  283ACC    H0G26907   3.006   2.032   1.092
  283ACC    H0H26908   2.844   1.810   1.337
  283ACC    H0I26909   2.959   1.716   1.253
  283ACC    H0J26910   2.792   1.702   1.208
  283ACC    H0K26911   2.713   1.983   1.223
  283ACC    H0M26912   2.673   1.882   1.087
  283ACC    H0N26913   2.758   2.034   1.059
  283ACC    H0O26914   3.013   1.769   1.013
  283ACC    H0P26915   2.914   1.888   0.928
  283ACC    H0Q26916   2.846   1.736   0.982
  284ACC    C0026917   6.397   2.158   4.793
  284ACC    C0126918   6.458   2.032   4.739
  284ACC    O0226919   6.551   2.037   4.662
  284ACC    O0326920   6.399   1.921   4.779
  284ACC    C0426921   6.388   1.810   4.692
  284ACC    C0526922   6.517   1.748   4.639
  284ACC    N0626923   6.493   1.618   4.570
  284ACC    C0726924   6.429   1.518   4.659
  284ACC    C0826925   6.403   1.637   4.454
  284ACC    C0926926   6.625   1.570   4.519
  284ACC    H0A26927   6.465   2.242   4.782
  284ACC    H0B26928   6.370   2.148   4.897
  284ACC    H0C26929   6.307   2.181   4.737
  284ACC    H0D26930   6.320   1.836   4.611
  284ACC    H0E26931   6.339   1.732   4.747
  284ACC    H0F26932   6.585   1.740   4.721
  284ACC    H0G26933   6.567   1.815   4.571
  284ACC    H0H26934   6.321   1.531   4.669
  284ACC    H0I26935   6.465   1.521   4.762
  284ACC    H0J26936   6.442   1.417   4.620
  284ACC    H0K26937   6.298   1.643   4.482
  284ACC    H0M26938   6.414   1.556   4.381
  284ACC    H0N26939   6.425   1.730   4.404
  284ACC    H0O26940   6.705   1.580   4.592
  284ACC    H0P26941   6.656   1.625   4.430
  284ACC    H0Q26942   6.620   1.465   4.490
  285ACC    C0026943   2.992   1.888   4.377
  285ACC    C0126944   3.005   1.927   4.522
  285ACC    O0226945   3.114   1.946   4.574
  285ACC    O0326946   2.889   1.939   4.585
  285ACC    C0426947   2.891   1.989   4.717
  285ACC    C0526948   2.910   2.141   4.708
  285ACC    N0626949   3.000   2.200   4.810
  285ACC    C0726950   2.958   2.164   4.947
  285ACC    C0826951   3.142   2.158   4.788
  285ACC    C0926952   2.993   2.346   4.793
  285ACC    H0A26953   3.079   1.920   4.321
  285ACC    H0B26954   2.902   1.934   4.335
  285ACC    H0C26955   2.982   1.780   4.369
  285ACC    H0D26956   2.971   1.940   4.771
  285ACC    H0E26957   2.798   1.963   4.766
  285ACC    H0F26958   2.810   2.186   4.712
  285ACC    H0G26959   2.947   2.169   4.609
  285ACC    H0H26960   2.964   2.056   4.964
  285ACC    H0I26961   2.856   2.195   4.967
  285ACC    H0J26962   3.025   2.210   5.020
  285ACC    H0K26963   3.157   2.051   4.802
  285ACC    H0M26964   3.210   2.207   4.857
  285ACC    H0N26965   3.175   2.182   4.688
  285ACC    H0O26966   2.891   2.385   4.799
  285ACC    H0P26967   3.031   2.376   4.695
  285ACC    H0Q26968   3.052   2.400   4.866
  286ACC    C0026969   2.400   5.837   4.038
  286ACC    C0126970   2.415   5.925   3.916
  286ACC    O0226971   2.323   5.998   3.876
  286ACC    O0326972   2.534   5.908   3.858
  286ACC    C0426973   2.561   5.973   3.736
  286ACC    C0526974   2.601   6.117   3.771
  286ACC    N0626975   2.616   6.209   3.656
  286ACC    C0726976   2.728   6.170   3.568
  286ACC    C0826977   2.492   6.215   3.575
  286ACC    C0926978   2.642   6.344   3.711
  286ACC    H0A26979   2.295   5.818   4.057
  286ACC    H0B26980   2.445   5.886   4.125
  286ACC    H0C26981   2.451   5.742   4.020
  286ACC    H0D26982   2.473   5.966   3.672
  286ACC    H0E26983   2.641   5.920   3.686
  286ACC    H0F26984   2.695   6.112   3.827
  286ACC    H0G26985   2.528   6.157   3.841
  286ACC    H0H26986   2.714   6.071   3.525
  286ACC    H0I26987   2.822   6.168   3.625
  286ACC    H0J26988   2.741   6.240   3.487
  286ACC    H0K26989   2.480   6.124   3.515
  286ACC    H0M26990   2.493   6.298   3.504
  286ACC    H0N26991   2.404   6.227   3.638
  286ACC    H0O26992   2.734   6.344   3.769
  286ACC    H0P26993   2.561   6.375   3.776
  286ACC    H0Q26994   2.653   6.419   3.632
  287ACC    C0026995   0.540   1.176   3.485
  287ACC    C0126996   0.525   1.256   3.358
  287ACC    O0226997   0.545   1.377   3.353
  287ACC    O0326998   0.485   1.180   3.259
  287ACC    C0426999   0.395   1.233   3.165
  287ACC    C0527000   0.467   1.291   3.044
  287ACC    N0627001   0.398   1.278   2.912
  287ACC    C0727002   0.388   1.134   2.878
  287ACC    C0827003   0.264   1.339   2.895
  287ACC    C0927004   0.484   1.347   2.814
  287ACC    H0A27005   0.593   1.233   3.560
  287ACC    H0B27006   0.591   1.083   3.463
  287ACC    H0C27007   0.440   1.151   3.521
  287ACC    H0D27008   0.338   1.308   3.217
  287ACC    H0E27009   0.326   1.152   3.144
  287ACC    H0F27010   0.563   1.239   3.037
  287ACC    H0G27011   0.491   1.395   3.065
  287ACC    H0H27012   0.341   1.076   2.956
  287ACC    H0I27013   0.486   1.091   2.859
  287ACC    H0J27014   0.322   1.115   2.796
  287ACC    H0K27015   0.184   1.273   2.925
  287ACC    H0M27016   0.241   1.358   2.790
  287ACC    H0N27017   0.254   1.434   2.946
  287ACC    H0O27018   0.586   1.308   2.819
  287ACC    H0P27019   0.490   1.454   2.833
  287ACC    H0Q27020   0.449   1.336   2.712
  288ACC    C0027021   5.888   1.087   4.332
  288ACC    C0127022   5.988   1.032   4.430
  288ACC    O0227023   6.084   1.099   4.465
  288ACC    O0327024   5.951   0.914   4.482
  288ACC    C0427025   6.049   0.818   4.512
  288ACC    C0527026   6.125   0.842   4.644
  288ACC    N0627027   6.274   0.845   4.630
  288ACC    C0727028   6.327   0.726   4.560
  288ACC    C0827029   6.317   0.965   4.556
  288ACC    C0927030   6.335   0.852   4.765
  288ACC    H0A27031   5.902   1.194   4.319
  288ACC    H0B27032   5.788   1.069   4.368
  288ACC    H0C27033   5.900   1.036   4.236
  288ACC    H0D27034   6.113   0.811   4.424
  288ACC    H0E27035   5.998   0.722   4.518
  288ACC    H0F27036   6.098   0.764   4.715
  288ACC    H0G27037   6.092   0.935   4.691
  288ACC    H0H27038   6.306   0.725   4.453
  288ACC    H0I27039   6.282   0.636   4.602
  288ACC    H0J27040   6.435   0.721   4.571
  288ACC    H0K27041   6.285   0.964   4.452
  288ACC    H0M27042   6.426   0.977   4.556
  288ACC    H0N27043   6.277   1.054   4.603
  288ACC    H0O27044   6.338   0.754   4.812
  288ACC    H0P27045   6.282   0.920   4.832
  288ACC    H0Q27046   6.438   0.886   4.763
  289ACC    C0027047   5.596   1.330   0.843
  289ACC    C0127048   5.710   1.420   0.807
  289ACC    O0227049   5.795   1.453   0.889
  289ACC    O0327050   5.707   1.460   0.681
  289ACC    C0427051   5.826   1.507   0.624
  289ACC    C0527052   5.912   1.384   0.590
  289ACC    N0627053   6.050   1.417   0.548
  289ACC    C0727054   6.052   1.502   0.428
  289ACC    C0827055   6.126   1.486   0.655
  289ACC    C0927056   6.117   1.289   0.514
  289ACC    H0A27057   5.621   1.271   0.930
  289ACC    H0B27058   5.575   1.264   0.759
  289ACC    H0C27059   5.508   1.389   0.863
  289ACC    H0D27060   5.878   1.572   0.692
  289ACC    H0E27061   5.804   1.565   0.536
  289ACC    H0F27062   5.860   1.327   0.513
  289ACC    H0G27063   5.918   1.319   0.677
  289ACC    H0H27064   6.003   1.598   0.443
  289ACC    H0I27065   6.008   1.452   0.342
  289ACC    H0J27066   6.156   1.524   0.402
  289ACC    H0K27067   6.090   1.587   0.676
  289ACC    H0M27068   6.230   1.501   0.626
  289ACC    H0N27069   6.127   1.430   0.749
  289ACC    H0O27070   6.060   1.230   0.443
  289ACC    H0P27071   6.135   1.228   0.602
  289ACC    H0Q27072   6.214   1.307   0.468
  290ACC    C0027073   4.452   3.029   6.716
  290ACC    C0127074   4.527   2.951   6.612
  290ACC    O0227075   4.640   2.909   6.631
  290ACC    O0327076   4.452   2.931   6.503
  290ACC    C0427077   4.510   2.873   6.388
  290ACC    C0527078   4.536   2.723   6.410
  290ACC    N0627079   4.580   2.650   6.288
  290ACC    C0727080   4.473   2.646   6.186
  290ACC    C0827081   4.704   2.710   6.232
  290ACC    C0927082   4.609   2.510   6.327
  290ACC    H0A27083   4.513   3.035   6.806
  290ACC    H0B27084   4.356   2.983   6.739
  290ACC    H0C27085   4.435   3.131   6.679
  290ACC    H0D27086   4.602   2.926   6.364
  290ACC    H0E27087   4.439   2.889   6.307
  290ACC    H0F27088   4.447   2.676   6.452
  290ACC    H0G27089   4.615   2.714   6.484
  290ACC    H0H27090   4.451   2.742   6.142
  290ACC    H0I27091   4.381   2.606   6.229
  290ACC    H0J27092   4.499   2.578   6.105
  290ACC    H0K27093   4.683   2.801   6.175
  290ACC    H0M27094   4.757   2.640   6.169
  290ACC    H0N27095   4.772   2.739   6.312
  290ACC    H0O27096   4.522   2.463   6.373
  290ACC    H0P27097   4.690   2.501   6.398
  290ACC    H0Q27098   4.636   2.447   6.242
  291ACC    C0027099   2.423   3.095   4.991
  291ACC    C0127100   2.558   3.043   5.031
  291ACC    O0227101   2.577   2.983   5.137
  291ACC    O0327102   2.650   3.075   4.941
  291ACC    C0427103   2.774   3.012   4.951
  291ACC    C0527104   2.857   3.053   4.828
  291ACC    N0627105   2.986   2.980   4.814
  291ACC    C0727106   3.093   3.056   4.881
  291ACC    C0827107   2.983   2.843   4.871
  291ACC    C0927108   3.019   2.967   4.670
  291ACC    H0A27109   2.351   3.015   5.002
  291ACC    H0B27110   2.426   3.126   4.887
  291ACC    H0C27111   2.395   3.179   5.054
  291ACC    H0D27112   2.752   2.905   4.949
  291ACC    H0E27113   2.824   3.037   5.044
  291ACC    H0F27114   2.871   3.161   4.828
  291ACC    H0G27115   2.794   3.034   4.741
  291ACC    H0H27116   3.075   3.067   4.988
  291ACC    H0I27117   3.099   3.153   4.835
  291ACC    H0J27118   3.190   3.008   4.868
  291ACC    H0K27119   2.963   2.841   4.978
  291ACC    H0M27120   3.079   2.797   4.858
  291ACC    H0N27121   2.909   2.781   4.820
  291ACC    H0O27122   3.024   3.063   4.620
  291ACC    H0P27123   2.944   2.907   4.618
  291ACC    H0Q27124   3.114   2.915   4.655
  292ACC    C0027125   0.442   6.204   1.859
  292ACC    C0127126   0.563   6.126   1.902
  292ACC    O0227127   0.648   6.088   1.820
  292ACC    O0327128   0.569   6.108   2.035
  292ACC    C0427129   0.689   6.057   2.089
  292ACC    C0527130   0.786   6.176   2.102
  292ACC    N0627131   0.928   6.144   2.131
  292ACC    C0727132   0.946   6.069   2.258
  292ACC    C0827133   0.986   6.067   2.018
  292ACC    C0927134   0.999   6.273   2.144
  292ACC    H0A27135   0.431   6.200   1.751
  292ACC    H0B27136   0.454   6.308   1.890
  292ACC    H0C27137   0.353   6.162   1.906
  292ACC    H0D27138   0.727   5.977   2.025
  292ACC    H0E27139   0.668   6.011   2.185
  292ACC    H0F27140   0.747   6.247   2.174
  292ACC    H0G27141   0.784   6.230   2.007
  292ACC    H0H27142   0.890   5.975   2.261
  292ACC    H0I27143   0.915   6.127   2.345
  292ACC    H0J27144   1.050   6.044   2.275
  292ACC    H0K27145   0.945   5.966   2.012
  292ACC    H0M27146   1.094   6.058   2.027
  292ACC    H0N27147   0.964   6.116   1.923
  292ACC    H0O27148   0.963   6.332   2.229
  292ACC    H0P27149   0.985   6.336   2.055
  292ACC    H0Q27150   1.106   6.260   2.160
  293ACC    C0027151   0.937   0.589   6.246
  293ACC    C0127152   1.068   0.553   6.308
  293ACC    O0227153   1.167   0.520   6.242
  293ACC    O0327154   1.063   0.570   6.439
  293ACC    C0427155   1.184   0.576   6.509
  293ACC    C0527156   1.245   0.715   6.479
  293ACC    N0627157   1.383   0.733   6.529
  293ACC    C0727158   1.388   0.713   6.676
  293ACC    C0827159   1.476   0.643   6.456
  293ACC    C0927160   1.424   0.873   6.502
  293ACC    H0A27161   0.949   0.614   6.142
  293ACC    H0B27162   0.902   0.678   6.298
  293ACC    H0C27163   0.865   0.508   6.259
  293ACC    H0D27164   1.246   0.492   6.478
  293ACC    H0E27165   1.162   0.563   6.614
  293ACC    H0F27166   1.178   0.790   6.521
  293ACC    H0G27167   1.244   0.734   6.371
  293ACC    H0H27168   1.356   0.613   6.706
  293ACC    H0I27169   1.323   0.783   6.728
  293ACC    H0J27170   1.489   0.729   6.713
  293ACC    H0K27171   1.450   0.538   6.463
  293ACC    H0M27172   1.578   0.651   6.494
  293ACC    H0N27173   1.479   0.666   6.350
  293ACC    H0O27174   1.359   0.945   6.552
  293ACC    H0P27175   1.423   0.895   6.396
  293ACC    H0Q27176   1.525   0.892   6.538
  294ACC    C0027177   4.026   2.856   5.450
  294ACC    C0127178   4.154   2.779   5.438
  294ACC    O0227179   4.264   2.831   5.462
  294ACC    O0327180   4.131   2.653   5.403
  294ACC    C0427181   4.237   2.560   5.408
  294ACC    C0527182   4.265   2.526   5.556
  294ACC    N0627183   4.408   2.500   5.585
  294ACC    C0727184   4.460   2.390   5.499
  294ACC    C0827185   4.485   2.625   5.567
  294ACC    C0927186   4.423   2.460   5.727
  294ACC    H0A27187   4.046   2.962   5.452
  294ACC    H0B27188   3.975   2.825   5.541
  294ACC    H0C27189   3.964   2.830   5.364
  294ACC    H0D27190   4.322   2.603   5.354
  294ACC    H0E27191   4.207   2.471   5.353
  294ACC    H0F27192   4.203   2.441   5.584
  294ACC    H0G27193   4.230   2.606   5.621
  294ACC    H0H27194   4.462   2.416   5.393
  294ACC    H0I27195   4.402   2.299   5.509
  294ACC    H0J27196   4.564   2.365   5.524
  294ACC    H0K27197   4.490   2.657   5.463
  294ACC    H0M27198   4.589   2.613   5.598
  294ACC    H0N27199   4.441   2.708   5.622
  294ACC    H0O27200   4.367   2.369   5.749
  294ACC    H0P27201   4.387   2.538   5.794
  294ACC    H0Q27202   4.527   2.440   5.752
  295ACC    C0027203   7.131   5.838   4.628
  295ACC    C0127204   7.174   5.884   4.494
  295ACC    O0227205   7.188   6.003   4.467
  295ACC    O0327206   0.007   5.781   4.416
  295ACC    C0427207   0.042   5.807   4.283
  295ACC    C0527208   0.191   5.840   4.279
  295ACC    N0627209   0.242   5.872   4.144
  295ACC    C0727210   0.174   5.797   4.036
  295ACC    C0827211   0.227   6.017   4.120
  295ACC    C0927212   0.386   5.837   4.139
  295ACC    H0A27213   7.135   5.928   4.687
  295ACC    H0B27214   0.009   5.766   4.671
  295ACC    H0C27215   7.030   5.799   4.627
  295ACC    H0D27216   7.172   5.889   4.243
  295ACC    H0E27217   0.016   5.718   4.227
  295ACC    H0F27218   0.244   5.756   4.322
  295ACC    H0G27219   0.212   5.923   4.346
  295ACC    H0H27220   0.066   5.809   4.034
  295ACC    H0I27221   0.193   5.690   4.044
  295ACC    H0J27222   0.207   5.831   3.939
  295ACC    H0K27223   0.124   6.049   4.136
  295ACC    H0M27224   0.258   6.042   4.019
  295ACC    H0N27225   0.287   6.078   4.188
  295ACC    H0O27226   0.400   5.729   4.138
  295ACC    H0P27227   0.440   5.877   4.224
  295ACC    H0Q27228   0.434   5.876   4.050
  296ACC    C0027229   6.524   4.640   5.572
  296ACC    C0127230   6.500   4.562   5.445
  296ACC    O0227231   6.396   4.502   5.430
  296ACC    O0327232   6.600   4.565   5.357
  296ACC    C0427233   6.596   4.489   5.236
  296ACC    C0527234   6.518   4.570   5.131
  296ACC    N0627235   6.527   4.523   4.989
  296ACC    C0727236   6.643   4.586   4.924
  296ACC    C0827237   6.545   4.378   4.968
  296ACC    C0927238   6.404   4.561   4.917
  296ACC    H0A27239   6.441   4.627   5.641
  296ACC    H0B27240   6.530   4.746   5.552
  296ACC    H0C27241   6.615   4.606   5.620
  296ACC    H0D27242   6.555   4.390   5.255
  296ACC    H0E27243   6.696   4.467   5.201
  296ACC    H0F27244   6.552   4.673   5.137
  296ACC    H0G27245   6.415   4.574   5.165
  296ACC    H0H27246   6.736   4.564   4.978
  296ACC    H0I27247   6.630   4.694   4.918
  296ACC    H0J27248   6.655   4.548   4.822
  296ACC    H0K27249   6.650   4.353   4.978
  296ACC    H0M27250   6.520   4.343   4.868
  296ACC    H0N27251   6.491   4.315   5.038
  296ACC    H0O27252   6.393   4.668   4.912
  296ACC    H0P27253   6.314   4.520   4.960
  296ACC    H0Q27254   6.406   4.524   4.815
  297ACC    C0027255   2.720   3.495   0.544
  297ACC    C0127256   2.758   3.361   0.601
  297ACC    O0227257   2.842   3.289   0.547
  297ACC    O0327258   2.693   3.335   0.714
  297ACC    C0427259   2.707   3.208   0.775
  297ACC    C0527260   2.842   3.197   0.846
  297ACC    N0627261   2.877   3.059   0.891
  297ACC    C0727262   2.777   3.000   0.983
  297ACC    C0827263   2.900   2.966   0.777
  297ACC    C0927264   3.004   3.071   0.965
  297ACC    H0A27265   2.765   3.508   0.446
  297ACC    H0B27266   2.757   3.573   0.611
  297ACC    H0C27267   2.612   3.501   0.535
  297ACC    H0D27268   2.693   3.131   0.699
  297ACC    H0E27269   2.626   3.198   0.848
  297ACC    H0F27270   2.840   3.265   0.931
  297ACC    H0G27271   2.922   3.234   0.781
  297ACC    H0H27272   2.679   2.990   0.937
  297ACC    H0I27273   2.764   3.061   1.072
  297ACC    H0J27274   2.807   2.902   1.018
  297ACC    H0K27275   2.807   2.944   0.724
  297ACC    H0M27276   2.939   2.871   0.814
  297ACC    H0N27277   2.971   3.007   0.706
  297ACC    H0O27278   2.987   3.135   1.051
  297ACC    H0P27279   3.084   3.115   0.906
  297ACC    H0Q27280   3.038   2.974   1.001
  298ACC    C0027281   1.428   0.022   2.301
  298ACC    C0127282   1.361   7.101   2.374
  298ACC    O0227283   1.272   7.031   2.327
  298ACC    O0327284   1.417   7.086   2.492
  298ACC    C0427285   1.403   6.964   2.559
  298ACC    C0527286   1.522   6.879   2.514
  298ACC    N0627287   1.517   6.739   2.563
  298ACC    C0727288   1.492   6.737   2.708
  298ACC    C0827289   1.411   6.663   2.493
  298ACC    C0927290   1.647   6.675   2.536
  298ACC    H0A27291   1.392   0.033   2.200
  298ACC    H0B27292   1.534   0.001   2.296
  298ACC    H0C27293   1.407   0.115   2.353
  298ACC    H0D27294   1.306   6.918   2.539
  298ACC    H0E27295   1.407   6.988   2.664
  298ACC    H0F27296   1.614   6.926   2.551
  298ACC    H0G27297   1.530   6.879   2.405
  298ACC    H0H27298   1.393   6.773   2.735
  298ACC    H0I27299   1.567   6.796   2.760
  298ACC    H0J27300   1.499   6.636   2.747
  298ACC    H0K27301   1.310   6.697   2.518
  298ACC    H0M27302   1.415   6.558   2.523
  298ACC    H0N27303   1.421   6.666   2.385
  298ACC    H0O27304   1.728   6.724   2.591
  298ACC    H0P27305   1.672   6.675   2.431
  298ACC    H0Q27306   1.647   6.571   2.570
  299ACC    C0027307   1.052   3.508   0.621
  299ACC    C0127308   0.915   3.569   0.644
  299ACC    O0227309   0.887   3.629   0.746
  299ACC    O0327310   0.832   3.545   0.542
  299ACC    C0427311   0.706   3.607   0.544
  299ACC    C0527312   0.723   3.751   0.495
  299ACC    N0627313   0.615   3.848   0.529
  299ACC    C0727314   0.486   3.784   0.563
  299ACC    C0827315   0.659   3.926   0.647
  299ACC    C0927316   0.588   3.939   0.415
  299ACC    H0A27317   1.113   3.526   0.710
  299ACC    H0B27318   1.097   3.561   0.538
  299ACC    H0C27319   1.047   3.402   0.599
  299ACC    H0D27320   0.665   3.601   0.644
  299ACC    H0E27321   0.638   3.551   0.479
  299ACC    H0F27322   0.741   3.746   0.388
  299ACC    H0G27323   0.816   3.786   0.540
  299ACC    H0H27324   0.489   3.725   0.655
  299ACC    H0I27325   0.456   3.717   0.484
  299ACC    H0J27326   0.406   3.856   0.577
  299ACC    H0K27327   0.684   3.860   0.730
  299ACC    H0M27328   0.582   3.996   0.680
  299ACC    H0N27329   0.748   3.985   0.629
  299ACC    H0O27330   0.552   3.886   0.328
  299ACC    H0P27331   0.672   3.999   0.384
  299ACC    H0Q27332   0.511   4.012   0.441
  300ACC    C0027333   3.112   1.066   4.631
  300ACC    C0127334   2.981   1.079   4.704
  300ACC    O0227335   2.975   1.101   4.825
  300ACC    O0327336   2.879   1.067   4.620
  300ACC    C0427337   2.748   1.059   4.671
  300ACC    C0527338   2.696   1.198   4.708
  300ACC    N0627339   2.616   1.202   4.833
  300ACC    C0727340   2.496   1.117   4.821
  300ACC    C0827341   2.690   1.160   4.954
  300ACC    C0927342   2.574   1.341   4.855
  300ACC    H0A27343   3.195   1.057   4.700
  300ACC    H0B27344   3.126   1.151   4.565
  300ACC    H0C27345   3.109   0.975   4.571
  300ACC    H0D27346   2.747   0.989   4.754
  300ACC    H0E27347   2.685   1.016   4.594
  300ACC    H0F27348   2.636   1.234   4.625
  300ACC    H0G27349   2.778   1.268   4.711
  300ACC    H0H27350   2.520   1.017   4.787
  300ACC    H0I27351   2.430   1.159   4.747
  300ACC    H0J27352   2.442   1.110   4.915
  300ACC    H0K27353   2.710   1.053   4.958
  300ACC    H0M27354   2.635   1.184   5.045
  300ACC    H0N27355   2.784   1.211   4.964
  300ACC    H0O27356   2.514   1.381   4.773
  300ACC    H0P27357   2.658   1.405   4.873
  300ACC    H0Q27358   2.518   1.350   4.947
  301ACC    C0027359   4.401   2.916   3.785
  301ACC    C0127360   4.351   2.789   3.848
  301ACC    O0227361   4.347   2.774   3.970
  301ACC    O0327362   4.310   2.702   3.756
  301ACC    C0427363   4.260   2.577   3.799
  301ACC    C0527364   4.119   2.597   3.857
  301ACC    N0627365   4.080   2.493   3.955
  301ACC    C0727366   4.068   2.361   3.890
  301ACC    C0827367   4.179   2.489   4.067
  301ACC    C0927368   3.947   2.529   4.009
  301ACC    H0A27369   4.450   2.976   3.862
  301ACC    H0B27370   4.317   2.971   3.743
  301ACC    H0C27371   4.473   2.892   3.707
  301ACC    H0D27372   4.331   2.535   3.871
  301ACC    H0E27373   4.259   2.508   3.715
  301ACC    H0F27374   4.048   2.599   3.773
  301ACC    H0G27375   4.111   2.694   3.906
  301ACC    H0H27376   4.158   2.334   3.833
  301ACC    H0I27377   3.985   2.357   3.821
  301ACC    H0J27378   4.054   2.280   3.961
  301ACC    H0K27379   4.246   2.403   4.057
  301ACC    H0M27380   4.132   2.481   4.164
  301ACC    H0N27381   4.239   2.578   4.076
  301ACC    H0O27382   3.878   2.562   3.931
  301ACC    H0P27383   3.954   2.609   4.083
  301ACC    H0Q27384   3.901   2.443   4.056
  302ACC    C0027385   3.545   4.153   0.584
  302ACC    C0127386   3.601   4.284   0.535
  302ACC    O0227387   3.579   4.325   0.422
  302ACC    O0327388   3.670   4.346   0.630
  302ACC    C0427389   3.725   4.473   0.604
  302ACC    C0527390   3.611   4.576   0.594
  302ACC    N0627391   3.652   4.719   0.591
  302ACC    C0727392   3.729   4.757   0.712
  302ACC    C0827393   3.730   4.745   0.469
  302ACC    C0927394   3.527   4.799   0.590
  302ACC    H0A27395   3.541   4.085   0.500
  302ACC    H0B27396   3.445   4.171   0.623
  302ACC    H0C27397   3.609   4.112   0.661
  302ACC    H0D27398   3.786   4.469   0.514
  302ACC    H0E27399   3.790   4.493   0.689
  302ACC    H0F27400   3.543   4.561   0.677
  302ACC    H0G27401   3.549   4.554   0.507
  302ACC    H0H27402   3.827   4.708   0.716
  302ACC    H0I27403   3.675   4.730   0.802
  302ACC    H0J27404   3.747   4.865   0.715
  302ACC    H0K27405   3.825   4.691   0.469
  302ACC    H0M27406   3.754   4.851   0.459
  302ACC    H0N27407   3.676   4.713   0.380
  302ACC    H0O27408   3.471   4.785   0.684
  302ACC    H0P27409   3.458   4.766   0.512
  302ACC    H0Q27410   3.545   4.906   0.578
  303ACC    C0027411   3.641   0.587   6.015
  303ACC    C0127412   3.779   0.530   6.000
  303ACC    O0227413   3.797   0.413   5.968
  303ACC    O0327414   3.875   0.619   6.026
  303ACC    C0427415   4.010   0.578   6.016
  303ACC    C0527416   4.052   0.583   5.868
  303ACC    N0627417   4.182   0.518   5.837
  303ACC    C0727418   4.290   0.561   5.929
  303ACC    C0827419   4.167   0.370   5.842
  303ACC    C0927420   4.222   0.555   5.699
  303ACC    H0A27421   3.570   0.524   5.961
  303ACC    H0B27422   3.637   0.688   5.974
  303ACC    H0C27423   3.612   0.588   6.119
  303ACC    H0D27424   4.022   0.479   6.060
  303ACC    H0E27425   4.070   0.647   6.076
  303ACC    H0F27426   4.054   0.688   5.838
  303ACC    H0G27427   3.974   0.537   5.807
  303ACC    H0H27428   4.272   0.529   6.032
  303ACC    H0I27429   4.301   0.669   5.931
  303ACC    H0J27430   4.386   0.518   5.900
  303ACC    H0K27431   4.150   0.335   5.943
  303ACC    H0M27432   4.256   0.320   5.804
  303ACC    H0N27433   4.083   0.337   5.781
  303ACC    H0O27434   4.236   0.662   5.688
  303ACC    H0P27435   4.145   0.525   5.628
  303ACC    H0Q27436   4.315   0.506   5.669
  304ACC    C0027437   1.874   4.575   0.912
  304ACC    C0127438   1.954   4.450   0.939
  304ACC    O0227439   2.009   4.428   1.046
  304ACC    O0327440   1.955   4.371   0.834
  304ACC    C0427441   2.025   4.249   0.840
  304ACC    C0527442   1.939   4.147   0.916
  304ACC    N0627443   2.011   4.023   0.955
  304ACC    C0727444   2.079   3.962   0.838
  304ACC    C0827445   2.111   4.053   1.062
  304ACC    C0927446   1.912   3.926   1.005
  304ACC    H0A27447   1.873   4.639   1.000
  304ACC    H0B27448   1.773   4.547   0.885
  304ACC    H0C27449   1.919   4.629   0.829
  304ACC    H0D27450   2.123   4.267   0.886
  304ACC    H0E27451   2.043   4.218   0.738
  304ACC    H0F27452   1.854   4.124   0.852
  304ACC    H0G27453   1.898   4.193   1.006
  304ACC    H0H27454   2.146   4.031   0.788
  304ACC    H0I27455   2.008   3.927   0.763
  304ACC    H0J27456   2.143   3.880   0.869
  304ACC    H0K27457   2.187   4.124   1.029
  304ACC    H0M27458   2.166   3.965   1.091
  304ACC    H0N27459   2.064   4.096   1.151
  304ACC    H0O27460   1.839   3.899   0.929
  304ACC    H0P27461   1.855   3.968   1.088
  304ACC    H0Q27462   1.959   3.834   1.039
  305ACC    C0027463   0.686   3.495   1.073
  305ACC    C0127464   0.622   3.599   0.985
  305ACC    O0227465   0.592   3.575   0.868
  305ACC    O0327466   0.596   3.709   1.051
  305ACC    C0427467   0.527   3.814   0.987
  305ACC    C0527468   0.478   3.902   1.101
  305ACC    N0627469   0.372   4.000   1.066
  305ACC    C0727470   0.398   4.070   0.939
  305ACC    C0827471   0.239   3.935   1.056
  305ACC    C0927472   0.372   4.100   1.175
  305ACC    H0A27473   0.621   3.408   1.083
  305ACC    H0B27474   0.705   3.535   1.172
  305ACC    H0C27475   0.781   3.465   1.033
  305ACC    H0D27476   0.445   3.775   0.925
  305ACC    H0E27477   0.595   3.869   0.924
  305ACC    H0F27478   0.566   3.952   1.141
  305ACC    H0G27479   0.443   3.839   1.183
  305ACC    H0H27480   0.406   4.002   0.854
  305ACC    H0I27481   0.490   4.128   0.942
  305ACC    H0J27482   0.317   4.138   0.914
  305ACC    H0K27483   0.234   3.866   0.971
  305ACC    H0M27484   0.160   4.008   1.043
  305ACC    H0N27485   0.215   3.877   1.145
  305ACC    H0O27486   0.469   4.152   1.181
  305ACC    H0P27487   0.359   4.050   1.269
  305ACC    H0Q27488   0.294   4.175   1.166
  306ACC    C0027489   2.639   1.093   7.067
  306ACC    C0127490   2.564   1.171   6.963
  306ACC    O0227491   2.543   1.292   6.972
  306ACC    O0327492   2.524   1.092   6.865
  306ACC    C0427493   2.416   1.136   6.786
  306ACC    C0527494   2.462   1.225   6.671
  306ACC    N0627495   2.361   1.326   6.633
  306ACC    C0727496   2.230   1.264   6.601
  306ACC    C0827497   2.348   1.424   6.743
  306ACC    C0927498   2.408   1.397   6.512
  306ACC    H0A27499   2.676   1.159   7.144
  306ACC    H0B27500   2.722   1.044   7.018
  306ACC    H0C27501   2.574   1.017   7.110
  306ACC    H0D27502   2.347   1.186   6.854
  306ACC    H0E27503   2.362   1.050   6.748
  306ACC    H0F27504   2.486   1.159   6.587
  306ACC    H0G27505   2.556   1.274   6.697
  306ACC    H0H27506   2.177   1.234   6.690
  306ACC    H0I27507   2.240   1.175   6.539
  306ACC    H0J27508   2.162   1.332   6.548
  306ACC    H0K27509   2.288   1.384   6.825
  306ACC    H0M27510   2.300   1.517   6.712
  306ACC    H0N27511   2.444   1.452   6.787
  306ACC    H0O27512   2.419   1.328   6.428
  306ACC    H0P27513   2.504   1.446   6.529
  306ACC    H0Q27514   2.335   1.472   6.482
  307ACC    C0027515   2.675   0.806   6.827
  307ACC    C0127516   2.528   0.809   6.802
  307ACC    O0227517   2.483   0.842   6.692
  307ACC    O0327518   2.460   0.767   6.908
  307ACC    C0427519   2.320   0.762   6.897
  307ACC    C0527520   2.283   0.640   6.811
  307ACC    N0627521   2.148   0.649   6.751
  307ACC    C0727522   2.046   0.668   6.856
  307ACC    C0827523   2.137   0.758   6.651
  307ACC    C0927524   2.119   0.522   6.682
  307ACC    H0A27525   2.727   0.870   6.757
  307ACC    H0B27526   2.702   0.702   6.811
  307ACC    H0C27527   2.697   0.835   6.930
  307ACC    H0D27528   2.288   0.855   6.853
  307ACC    H0E27529   2.275   0.758   6.996
  307ACC    H0F27530   2.292   0.551   6.873
  307ACC    H0G27531   2.355   0.627   6.730
  307ACC    H0H27532   2.051   0.768   6.901
  307ACC    H0I27533   2.056   0.593   6.934
  307ACC    H0J27534   1.946   0.660   6.815
  307ACC    H0K27535   2.141   0.856   6.696
  307ACC    H0M27536   2.042   0.754   6.599
  307ACC    H0N27537   2.217   0.753   6.577
  307ACC    H0O27538   2.125   0.439   6.751
  307ACC    H0P27539   2.187   0.504   6.599
  307ACC    H0Q27540   2.017   0.524   6.642
  308ACC    C0027541   0.426   7.045   0.830
  308ACC    C0127542   0.452   7.173   0.756
  308ACC    O0227543   0.423   0.094   0.802
  308ACC    O0327544   0.511   7.151   0.638
  308ACC    C0427545   0.576   0.069   0.576
  308ACC    C0527546   0.706   0.093   0.654
  308ACC    N0627547   0.774   0.222   0.627
  308ACC    C0727548   0.799   0.244   0.483
  308ACC    C0827549   0.692   0.332   0.683
  308ACC    C0927550   0.905   0.219   0.696
  308ACC    H0A27551   0.472   7.053   0.929
  308ACC    H0B27552   0.472   6.961   0.778
  308ACC    H0C27553   0.319   7.029   0.839
  308ACC    H0D27554   0.509   0.155   0.576
  308ACC    H0E27555   0.597   0.041   0.473
  308ACC    H0F27556   0.774   0.008   0.639
  308ACC    H0G27557   0.684   0.090   0.761
  308ACC    H0H27558   0.706   0.254   0.426
  308ACC    H0I27559   0.856   0.161   0.441
  308ACC    H0J27560   0.856   0.336   0.468
  308ACC    H0K27561   0.595   0.342   0.635
  308ACC    H0M27562   0.741   0.428   0.669
  308ACC    H0N27563   0.674   0.319   0.790
  308ACC    H0O27564   0.971   0.142   0.656
  308ACC    H0P27565   0.894   0.196   0.801
  308ACC    H0Q27566   0.957   0.315   0.688
  309ACC    C0027567   6.867   1.419   6.229
  309ACC    C0127568   6.768   1.432   6.117
  309ACC    O0227569   6.722   1.542   6.081
  309ACC    O0327570   6.743   1.314   6.059
  309ACC    C0427571   6.703   1.316   5.925
  309ACC    C0527572   6.832   1.315   5.843
  309ACC    N0627573   6.827   1.391   5.717
  309ACC    C0727574   6.739   1.323   5.623
  309ACC    C0827575   6.773   1.527   5.743
  309ACC    C0927576   6.964   1.394   5.660
  309ACC    H0A27577   6.872   1.512   6.285
  309ACC    H0B27578   6.965   1.399   6.187
  309ACC    H0C27579   6.838   1.336   6.291
  309ACC    H0D27580   6.637   1.400   5.911
  309ACC    H0E27581   6.642   1.231   5.901
  309ACC    H0F27582   6.866   1.212   5.826
  309ACC    H0G27583   6.911   1.357   5.904
  309ACC    H0H27584   6.638   1.339   5.657
  309ACC    H0I27585   6.758   1.216   5.617
  309ACC    H0J27586   6.750   1.362   5.522
  309ACC    H0K27587   6.666   1.531   5.763
  309ACC    H0M27588   6.778   1.592   5.658
  309ACC    H0N27589   6.823   1.572   5.828
  309ACC    H0O27590   7.018   1.302   5.677
  309ACC    H0P27591   7.024   1.473   5.705
  309ACC    H0Q27592   6.965   1.411   5.553
  310ACC    C0027593   7.148   5.873   2.737
  310ACC    C0127594   0.051   5.755   2.751
  310ACC    O0227595   0.121   5.719   2.657
  310ACC    O0327596   0.046   5.699   2.872
  310ACC    C0427597   0.127   5.585   2.892
  310ACC    C0527598   0.277   5.618   2.900
  310ACC    N0627599   0.368   5.501   2.886
  310ACC    C0727600   0.353   5.403   2.995
  310ACC    C0827601   0.349   5.433   2.755
  310ACC    C0927602   0.507   5.553   2.892
  310ACC    H0A27603   7.144   5.903   2.632
  310ACC    H0B27604   0.000   5.955   2.794
  310ACC    H0C27605   7.049   5.847   2.772
  310ACC    H0D27606   0.107   5.517   2.811
  310ACC    H0E27607   0.092   5.536   2.983
  310ACC    H0F27608   0.296   5.672   2.992
  310ACC    H0G27609   0.302   5.690   2.822
  310ACC    H0H27610   0.250   5.372   3.005
  310ACC    H0I27611   0.385   5.444   3.091
  310ACC    H0J27612   0.412   5.313   2.976
  310ACC    H0K27613   0.255   5.379   2.748
  310ACC    H0M27614   0.425   5.357   2.735
  310ACC    H0N27615   0.350   5.503   2.671
  310ACC    H0O27616   0.525   5.605   2.986
  310ACC    H0P27617   0.526   5.625   2.812
  310ACC    H0Q27618   0.579   5.472   2.883
  311ACC    C0027619   4.880   0.498   2.710
  311ACC    C0127620   4.979   0.612   2.729
  311ACC    O0227621   4.974   0.686   2.827
  311ACC    O0327622   5.069   0.616   2.632
  311ACC    C0427623   5.171   0.714   2.633
  311ACC    C0527624   5.288   0.653   2.554
  311ACC    N0627625   5.390   0.749   2.506
  311ACC    C0727626   5.338   0.824   2.389
  311ACC    C0827627   5.431   0.845   2.609
  311ACC    C0927628   5.513   0.676   2.466
  311ACC    H0A27629   4.812   0.494   2.794
  311ACC    H0B27630   4.932   0.402   2.703
  311ACC    H0C27631   4.823   0.513   2.619
  311ACC    H0D27632   5.203   0.739   2.734
  311ACC    H0E27633   5.131   0.805   2.588
  311ACC    H0F27634   5.250   0.596   2.469
  311ACC    H0G27635   5.334   0.580   2.620
  311ACC    H0H27636   5.242   0.871   2.409
  311ACC    H0I27637   5.330   0.761   2.301
  311ACC    H0J27638   5.405   0.906   2.364
  311ACC    H0K27639   5.352   0.918   2.627
  311ACC    H0M27640   5.520   0.902   2.580
  311ACC    H0N27641   5.454   0.797   2.704
  311ACC    H0O27642   5.493   0.592   2.400
  311ACC    H0P27643   5.569   0.645   2.553
  311ACC    H0Q27644   5.582   0.741   2.413
  312ACC    C0027645   6.328   4.912   4.946
  312ACC    C0127646   6.185   4.874   4.935
  312ACC    O0227647   6.124   4.880   4.829
  312ACC    O0327648   6.138   4.837   5.053
  312ACC    C0427649   6.000   4.833   5.068
  312ACC    C0527650   5.945   4.710   4.995
  312ACC    N0627651   5.799   4.711   4.977
  312ACC    C0727652   5.731   4.722   5.109
  312ACC    C0827653   5.752   4.810   4.877
  312ACC    C0927654   5.769   4.580   4.919
  312ACC    H0A27655   6.332   5.020   4.937
  312ACC    H0B27656   6.387   4.868   4.868
  312ACC    H0C27657   6.365   4.878   5.042
  312ACC    H0D27658   5.964   4.925   5.025
  312ACC    H0E27659   5.976   4.833   5.174
  312ACC    H0F27660   5.976   4.623   5.051
  312ACC    H0G27661   5.991   4.698   4.897
  312ACC    H0H27662   5.752   4.816   5.158
  312ACC    H0I27663   5.766   4.645   5.178
  312ACC    H0J27664   5.623   4.711   5.100
  312ACC    H0K27665   5.796   4.908   4.889
  312ACC    H0M27666   5.644   4.818   4.877
  312ACC    H0N27667   5.781   4.781   4.775
  312ACC    H0O27668   5.810   4.504   4.985
  312ACC    H0P27669   5.814   4.562   4.822
  312ACC    H0Q27670   5.661   4.566   4.908
  313ACC    C0027671   1.649   0.941   2.263
  313ACC    C0127672   1.519   0.995   2.311
  313ACC    O0227673   1.444   0.929   2.381
  313ACC    O0327674   1.499   1.122   2.274
  313ACC    C0427675   1.392   1.190   2.335
  313ACC    C0527676   1.442   1.238   2.469
  313ACC    N0627677   1.350   1.224   2.585
  313ACC    C0727678   1.214   1.276   2.564
  313ACC    C0827679   1.342   1.082   2.626
  313ACC    C0927680   1.412   1.304   2.692
  313ACC    H0A27681   1.685   0.855   2.317
  313ACC    H0B27682   1.723   1.019   2.278
  313ACC    H0C27683   1.638   0.911   2.159
  313ACC    H0D27684   1.306   1.127   2.342
  313ACC    H0E27685   1.361   1.275   2.274
  313ACC    H0F27686   1.471   1.341   2.455
  313ACC    H0G27687   1.534   1.185   2.494
  313ACC    H0H27688   1.154   1.206   2.507
  313ACC    H0I27689   1.212   1.371   2.511
  313ACC    H0J27690   1.159   1.290   2.658
  313ACC    H0K27691   1.291   1.022   2.552
  313ACC    H0M27692   1.288   1.070   2.719
  313ACC    H0N27693   1.441   1.038   2.638
  313ACC    H0O27694   1.410   1.410   2.669
  313ACC    H0P27695   1.517   1.278   2.705
  313ACC    H0Q27696   1.359   1.289   2.786
  314ACC    C0027697   2.948   4.928   4.620
  314ACC    C0127698   2.994   5.066   4.581
  314ACC    O0227699   3.095   5.083   4.514
  314ACC    O0327700   2.910   5.162   4.619
  314ACC    C0427701   2.923   5.292   4.564
  314ACC    C0527702   2.871   5.292   4.417
  314ACC    N0627703   2.905   5.411   4.334
  314ACC    C0727704   2.877   5.545   4.391
  314ACC    C0827705   3.047   5.401   4.307
  314ACC    C0927706   2.833   5.401   4.205
  314ACC    H0A27707   3.033   4.860   4.622
  314ACC    H0B27708   2.877   4.891   4.547
  314ACC    H0C27709   2.900   4.927   4.718
  314ACC    H0D27710   3.027   5.322   4.575
  314ACC    H0E27711   2.865   5.361   4.626
  314ACC    H0F27712   2.763   5.284   4.416
  314ACC    H0G27713   2.906   5.202   4.367
  314ACC    H0H27714   2.883   5.548   4.499
  314ACC    H0I27715   2.777   5.579   4.366
  314ACC    H0J27716   2.941   5.624   4.350
  314ACC    H0K27717   3.106   5.394   4.396
  314ACC    H0M27718   3.079   5.490   4.253
  314ACC    H0N27719   3.070   5.313   4.247
  314ACC    H0O27720   2.725   5.410   4.220
  314ACC    H0P27721   2.851   5.306   4.154
  314ACC    H0Q27722   2.863   5.481   4.137
  315ACC    C0027723   5.587   6.558   6.437
  315ACC    C0127724   5.717   6.621   6.480
  315ACC    O0227725   5.744   6.641   6.599
  315ACC    O0327726   5.794   6.652   6.376
  315ACC    C0427727   5.909   6.734   6.390
  315ACC    C0527728   6.017   6.668   6.477
  315ACC    N0627729   6.155   6.724   6.461
  315ACC    C0727730   6.215   6.683   6.332
  315ACC    C0827731   6.163   6.871   6.473
  315ACC    C0927732   6.238   6.668   6.569
  315ACC    H0A27733   5.530   6.524   6.523
  315ACC    H0B27734   5.606   6.472   6.373
  315ACC    H0C27735   5.528   6.630   6.382
  315ACC    H0D27736   5.880   6.830   6.432
  315ACC    H0E27737   5.943   6.754   6.289
  315ACC    H0F27738   6.019   6.562   6.454
  315ACC    H0G27739   5.986   6.677   6.581
  315ACC    H0H27740   6.144   6.693   6.250
  315ACC    H0I27741   6.245   6.579   6.331
  315ACC    H0J27742   6.301   6.744   6.305
  315ACC    H0K27743   6.153   6.915   6.373
  315ACC    H0M27744   6.260   6.907   6.508
  315ACC    H0N27745   6.088   6.912   6.542
  315ACC    H0O27746   6.231   6.560   6.575
  315ACC    H0P27747   6.209   6.710   6.666
  315ACC    H0Q27748   6.342   6.694   6.549
  316ACC    C0027749   0.740   3.030   3.405
  316ACC    C0127750   0.670   2.898   3.413
  316ACC    O0227751   0.688   2.821   3.507
  316ACC    O0327752   0.590   2.878   3.308
  316ACC    C0427753   0.526   2.753   3.295
  316ACC    C0527754   0.413   2.743   3.397
  316ACC    N0627755   0.359   2.607   3.416
  316ACC    C0727756   0.339   2.535   3.289
  316ACC    C0827757   0.452   2.533   3.504
  316ACC    C0927758   0.226   2.616   3.482
  316ACC    H0A27759   0.713   3.089   3.492
  316ACC    H0B27760   0.711   3.081   3.313
  316ACC    H0C27761   0.847   3.014   3.403
  316ACC    H0D27762   0.601   2.675   3.307
  316ACC    H0E27763   0.486   2.747   3.194
  316ACC    H0F27764   0.334   2.812   3.369
  316ACC    H0G27765   0.449   2.777   3.493
  316ACC    H0H27766   0.433   2.516   3.236
  316ACC    H0I27767   0.274   2.590   3.222
  316ACC    H0J27768   0.291   2.440   3.307
  316ACC    H0K27769   0.553   2.525   3.464
  316ACC    H0M27770   0.417   2.432   3.521
  316ACC    H0N27771   0.462   2.580   3.603
  316ACC    H0O27772   0.154   2.668   3.418
  316ACC    H0P27773   0.232   2.670   3.577
  316ACC    H0Q27774   0.186   2.518   3.504
  317ACC    C0027775   4.301   4.179   6.695
  317ACC    C0127776   4.429   4.178   6.616
  317ACC    O0227777   4.535   4.142   6.665
  317ACC    O0327778   4.409   4.218   6.491
  317ACC    C0427779   4.512   4.200   6.397
  317ACC    C0527780   4.504   4.055   6.348
  317ACC    N0627781   4.619   4.004   6.270
  317ACC    C0727782   4.633   4.075   6.141
  317ACC    C0827783   4.744   4.014   6.349
  317ACC    C0927784   4.595   3.861   6.242
  317ACC    H0A27785   4.322   4.199   6.800
  317ACC    H0B27786   4.256   4.081   6.688
  317ACC    H0C27787   4.231   4.254   6.657
  317ACC    H0D27788   4.607   4.224   6.444
  317ACC    H0E27789   4.497   4.269   6.315
  317ACC    H0F27790   4.414   4.049   6.287
  317ACC    H0G27791   4.486   3.989   6.433
  317ACC    H0H27792   4.650   4.182   6.153
  317ACC    H0I27793   4.543   4.066   6.081
  317ACC    H0J27794   4.715   4.035   6.081
  317ACC    H0K27795   4.776   4.118   6.359
  317ACC    H0M27796   4.825   3.960   6.299
  317ACC    H0N27797   4.730   3.972   6.448
  317ACC    H0O27798   4.499   3.846   6.192
  317ACC    H0P27799   4.591   3.801   6.334
  317ACC    H0Q27800   4.672   3.817   6.179
  318ACC    C0027801   3.121   0.932   6.365
  318ACC    C0127802   3.083   0.874   6.498
  318ACC    O0227803   2.977   0.813   6.513
  318ACC    O0327804   3.176   0.893   6.591
  318ACC    C0427805   3.144   0.862   6.725
  318ACC    C0527806   3.157   0.710   6.746
  318ACC    N0627807   3.093   0.658   6.870
  318ACC    C0727808   3.156   0.708   6.993
  318ACC    C0827809   2.950   0.694   6.868
  318ACC    C0927810   3.099   0.511   6.875
  318ACC    H0A27811   3.031   0.953   6.308
  318ACC    H0B27812   3.185   0.864   6.309
  318ACC    H0C27813   3.172   1.027   6.381
  318ACC    H0D27814   3.043   0.900   6.743
  318ACC    H0E27815   3.209   0.918   6.790
  318ACC    H0F27816   3.262   0.687   6.744
  318ACC    H0G27817   3.112   0.658   6.661
  318ACC    H0H27818   3.142   0.814   6.996
  318ACC    H0I27819   3.262   0.689   6.996
  318ACC    H0J27820   3.109   0.671   7.084
  318ACC    H0K27821   2.933   0.797   6.894
  318ACC    H0M27822   2.890   0.636   6.937
  318ACC    H0N27823   2.911   0.681   6.768
  318ACC    H0O27824   3.200   0.478   6.895
  318ACC    H0P27825   3.066   0.466   6.781
  318ACC    H0Q27826   3.036   0.469   6.953
  319ACC    C0027827   6.924   2.800   1.037
  319ACC    C0127828   7.035   2.709   1.075
  319ACC    O0227829   7.065   2.693   1.193
  319ACC    O0327830   7.056   2.623   0.979
  319ACC    C0427831   7.040   2.489   1.016
  319ACC    C0527832   6.889   2.471   1.047
  319ACC    N0627833   6.850   2.343   1.110
  319ACC    C0727834   6.819   2.245   1.006
  319ACC    C0827835   6.958   2.292   1.195
  319ACC    C0927836   6.724   2.366   1.184
  319ACC    H0A27837   6.956   2.903   1.035
  319ACC    H0B27838   6.840   2.790   1.106
  319ACC    H0C27839   6.884   2.769   0.941
  319ACC    H0D27840   7.107   2.471   1.100
  319ACC    H0E27841   7.076   2.427   0.937
  319ACC    H0F27842   6.830   2.488   0.957
  319ACC    H0G27843   6.856   2.548   1.116
  319ACC    H0H27844   6.903   2.245   0.941
  319ACC    H0I27845   6.732   2.270   0.946
  319ACC    H0J27846   6.803   2.144   1.046
  319ACC    H0K27847   7.050   2.267   1.142
  319ACC    H0M27848   6.930   2.197   1.238
  319ACC    H0N27849   6.982   2.362   1.275
  319ACC    H0O27850   6.649   2.413   1.121
  319ACC    H0P27851   6.738   2.426   1.274
  319ACC    H0Q27852   6.680   2.271   1.214
  320ACC    C0027853   1.138   0.928   1.154
  320ACC    C0127854   1.283   0.965   1.137
  320ACC    O0227855   1.367   0.942   1.224
  320ACC    O0327856   1.304   1.030   1.023
  320ACC    C0427857   1.428   1.093   0.994
  320ACC    C0527858   1.548   1.003   1.027
  320ACC    N0627859   1.658   1.007   0.929
  320ACC    C0727860   1.604   0.952   0.804
  320ACC    C0827861   1.711   1.143   0.907
  320ACC    C0927862   1.765   0.918   0.978
  320ACC    H0A27863   1.118   0.914   1.260
  320ACC    H0B27864   1.120   0.834   1.102
  320ACC    H0C27865   1.074   1.006   1.114
  320ACC    H0D27866   1.437   1.186   1.049
  320ACC    H0E27867   1.420   1.124   0.890
  320ACC    H0F27868   1.515   0.899   1.037
  320ACC    H0G27869   1.587   1.030   1.124
  320ACC    H0H27870   1.543   1.026   0.753
  320ACC    H0I27871   1.539   0.867   0.821
  320ACC    H0J27872   1.687   0.921   0.741
  320ACC    H0K27873   1.641   1.203   0.850
  320ACC    H0M27874   1.804   1.144   0.850
  320ACC    H0N27875   1.729   1.197   1.001
  320ACC    H0O27876   1.732   0.815   0.984
  320ACC    H0P27877   1.800   0.950   1.076
  320ACC    H0Q27878   1.849   0.920   0.909
  321ACC    C0027879   2.521   2.565   4.847
  321ACC    C0127880   2.559   2.504   4.979
  321ACC    O0227881   2.557   2.382   4.995
  321ACC    O0327882   2.600   2.595   5.068
  321ACC    C0427883   2.641   2.554   5.196
  321ACC    C0527884   2.777   2.486   5.181
  321ACC    N0627885   2.835   2.431   5.306
  321ACC    C0727886   2.895   2.536   5.392
  321ACC    C0827887   2.736   2.352   5.385
  321ACC    C0927888   2.942   2.341   5.261
  321ACC    H0A27889   2.440   2.512   4.800
  321ACC    H0B27890   2.608   2.563   4.781
  321ACC    H0C27891   2.492   2.670   4.860
  321ACC    H0D27892   2.565   2.488   5.237
  321ACC    H0E27893   2.647   2.642   5.260
  321ACC    H0F27894   2.847   2.556   5.134
  321ACC    H0G27895   2.766   2.404   5.110
  321ACC    H0H27896   2.820   2.608   5.426
  321ACC    H0I27897   2.974   2.591   5.341
  321ACC    H0J27898   2.940   2.492   5.481
  321ACC    H0K27899   2.662   2.415   5.434
  321ACC    H0M27900   2.785   2.295   5.465
  321ACC    H0N27901   2.681   2.281   5.323
  321ACC    H0O27902   3.008   2.391   5.192
  321ACC    H0P27903   2.901   2.253   5.212
  321ACC    H0Q27904   3.004   2.310   5.344
  322ACC    C0027905   1.033   6.511   5.880
  322ACC    C0127906   1.114   6.608   5.962
  322ACC    O0227907   1.066   6.714   6.002
  322ACC    O0327908   1.235   6.560   5.990
  322ACC    C0427909   1.306   6.618   6.097
  322ACC    C0527910   1.235   6.578   6.228
  322ACC    N0627911   1.299   6.621   6.353
  322ACC    C0727912   1.430   6.553   6.372
  322ACC    C0827913   1.314   6.768   6.349
  322ACC    C0927914   1.208   6.582   6.464
  322ACC    H0A27915   0.939   6.558   5.852
  322ACC    H0B27916   1.012   6.423   5.940
  322ACC    H0C27917   1.088   6.482   5.791
  322ACC    H0D27918   1.307   6.727   6.083
  322ACC    H0E27919   1.408   6.581   6.092
  322ACC    H0F27920   1.227   6.470   6.232
  322ACC    H0G27921   1.131   6.612   6.225
  322ACC    H0H27922   1.502   6.581   6.294
  322ACC    H0I27923   1.417   6.445   6.369
  322ACC    H0J27924   1.474   6.579   6.468
  322ACC    H0K27925   1.384   6.797   6.272
  322ACC    H0M27926   1.352   6.806   6.443
  322ACC    H0N27927   1.220   6.819   6.328
  322ACC    H0O27928   1.190   6.475   6.465
  322ACC    H0P27929   1.111   6.631   6.454
  322ACC    H0Q27930   1.247   6.610   6.561
  323ACC    C0027931   1.076   6.305   0.078
  323ACC    C0127932   0.979   6.191   0.086
  323ACC    O0227933   0.961   6.114   7.181
  323ACC    O0327934   0.922   6.184   0.206
  323ACC    C0427935   0.841   6.073   0.235
  323ACC    C0527936   0.931   5.949   0.256
  323ACC    N0627937   0.858   5.821   0.252
  323ACC    C0727938   0.760   5.816   0.363
  323ACC    C0827939   0.798   5.808   0.117
  323ACC    C0927940   0.953   5.708   0.270
  323ACC    H0A27941   1.100   6.328   7.165
  323ACC    H0B27942   1.167   6.277   0.132
  323ACC    H0C27943   1.032   6.391   0.128
  323ACC    H0D27944   0.770   6.063   0.153
  323ACC    H0E27945   0.784   6.095   0.325
  323ACC    H0F27946   0.983   5.961   0.351
  323ACC    H0G27947   1.011   5.947   0.182
  323ACC    H0H27948   0.682   5.891   0.354
  323ACC    H0I27949   0.809   5.829   0.459
  323ACC    H0J27950   0.710   5.720   0.368
  323ACC    H0K27951   0.706   5.865   0.104
  323ACC    H0M27952   0.775   5.705   0.096
  323ACC    H0N27953   0.866   5.838   0.037
  323ACC    H0O27954   1.030   5.729   0.344
  323ACC    H0P27955   1.000   5.679   0.177
  323ACC    H0Q27956   0.902   5.617   0.303
  324ACC    C0027957   0.445   4.402   5.491
  324ACC    C0127958   0.447   4.524   5.577
  324ACC    O0227959   0.423   4.636   5.531
  324ACC    O0327960   0.472   4.496   5.705
  324ACC    C0427961   0.473   4.602   5.797
  324ACC    C0527962   0.325   4.633   5.826
  324ACC    N0627963   0.301   4.762   5.895
  324ACC    C0727964   0.362   4.762   6.030
  324ACC    C0827965   0.353   4.876   5.815
  324ACC    C0927966   0.155   4.775   5.910
  324ACC    H0A27967   0.410   4.424   5.391
  324ACC    H0B27968   0.379   4.327   5.534
  324ACC    H0C27969   0.545   4.360   5.485
  324ACC    H0D27970   0.528   4.685   5.754
  324ACC    H0E27971   0.526   4.570   5.887
  324ACC    H0F27972   0.282   4.549   5.881
  324ACC    H0G27973   0.271   4.635   5.732
  324ACC    H0H27974   0.471   4.763   6.025
  324ACC    H0I27975   0.331   4.675   6.087
  324ACC    H0J27976   0.330   4.850   6.086
  324ACC    H0K27977   0.461   4.889   5.825
  324ACC    H0M27978   0.306   4.970   5.842
  324ACC    H0N27979   0.337   4.864   5.708
  324ACC    H0O27980   0.125   4.825   6.002
  324ACC    H0P27981   0.098   4.682   5.904
  324ACC    H0Q27982   0.117   4.840   5.833
  325ACC    C0027983   4.473   1.130   4.064
  325ACC    C0127984   4.473   1.062   4.199
  325ACC    O0227985   4.555   1.090   4.286
  325ACC    O0327986   4.375   0.971   4.210
  325ACC    C0427987   4.384   0.873   4.311
  325ACC    C0527988   4.334   0.930   4.446
  325ACC    N0627989   4.358   0.841   4.564
  325ACC    C0727990   4.282   0.715   4.555
  325ACC    C0827991   4.502   0.811   4.579
  325ACC    C0927992   4.316   0.913   4.686
  325ACC    H0A27993   4.575   1.155   4.036
  325ACC    H0B27994   4.414   1.222   4.068
  325ACC    H0C27995   4.432   1.063   3.988
  325ACC    H0D27996   4.487   0.839   4.317
  325ACC    H0E27997   4.326   0.787   4.280
  325ACC    H0F27998   4.228   0.950   4.436
  325ACC    H0G27999   4.385   1.025   4.463
  325ACC    H0H28000   4.302   0.661   4.463
  325ACC    H0I28001   4.174   0.730   4.558
  325ACC    H0J28002   4.310   0.646   4.635
  325ACC    H0K28003   4.542   0.745   4.501
  325ACC    H0M28004   4.528   0.761   4.672
  325ACC    H0N28005   4.560   0.903   4.574
  325ACC    H0O28006   4.211   0.940   4.684
  325ACC    H0P28007   4.374   1.004   4.700
  325ACC    H0Q28008   4.333   0.851   4.775
  326ACC    C0028009   5.468   0.896   0.682
  326ACC    C0128010   5.524   0.774   0.751
  326ACC    O0228011   5.458   0.671   0.767
  326ACC    O0328012   5.648   0.795   0.791
  326ACC    C0428013   5.721   0.694   0.858
  326ACC    C0528014   5.781   0.597   0.755
  326ACC    N0628015   5.859   0.484   0.813
  326ACC    C0728016   5.981   0.524   0.888
  326ACC    C0828017   5.774   0.408   0.907
  326ACC    C0928018   5.905   0.398   0.701
  326ACC    H0A28019   5.362   0.883   0.661
  326ACC    H0B28020   5.522   0.912   0.589
  326ACC    H0C28021   5.483   0.983   0.745
  326ACC    H0D28022   5.656   0.644   0.930
  326ACC    H0E28023   5.800   0.744   0.914
  326ACC    H0F28024   5.844   0.654   0.687
  326ACC    H0G28025   5.700   0.559   0.693
  326ACC    H0H28026   5.959   0.594   0.969
  326ACC    H0I28027   6.054   0.574   0.825
  326ACC    H0J28028   6.030   0.437   0.932
  326ACC    H0K28029   5.765   0.457   1.004
  326ACC    H0M28030   5.812   0.307   0.925
  326ACC    H0N28031   5.674   0.401   0.866
  326ACC    H0O28032   5.987   0.444   0.647
  326ACC    H0P28033   5.828   0.384   0.626
  326ACC    H0Q28034   5.938   0.300   0.735
  327ACC    C0028035   1.070   2.745   0.792
  327ACC    C0128036   1.022   2.888   0.791
  327ACC    O0228037   1.079   2.975   0.725
  327ACC    O0328038   0.913   2.903   0.866
  327ACC    C0428039   0.860   3.032   0.887
  327ACC    C0528040   0.790   3.082   0.759
  327ACC    N0628041   0.727   3.216   0.772
  327ACC    C0728042   0.617   3.216   0.870
  327ACC    C0828043   0.827   3.317   0.814
  327ACC    C0928044   0.672   3.254   0.640
  327ACC    H0A28045   1.163   2.737   0.738
  327ACC    H0B28046   0.994   2.682   0.747
  327ACC    H0C28047   1.086   2.714   0.896
  327ACC    H0D28048   0.941   3.098   0.919
  327ACC    H0E28049   0.791   3.026   0.970
  327ACC    H0F28050   0.715   3.009   0.730
  327ACC    H0G28051   0.862   3.085   0.677
  327ACC    H0H28052   0.651   3.198   0.972
  327ACC    H0I28053   0.546   3.138   0.845
  327ACC    H0J28054   0.562   3.310   0.868
  327ACC    H0K28055   0.861   3.300   0.916
  327ACC    H0M28056   0.783   3.416   0.811
  327ACC    H0N28057   0.915   3.314   0.751
  327ACC    H0O28058   0.595   3.184   0.608
  327ACC    H0P28059   0.748   3.259   0.563
  327ACC    H0Q28060   0.625   3.352   0.646
  328ACC    C0028061   3.821   4.784   6.323
  328ACC    C0128062   3.676   4.825   6.330
  328ACC    O0228063   3.640   4.937   6.297
  328ACC    O0328064   3.595   4.729   6.374
  328ACC    C0428065   3.460   4.762   6.398
  328ACC    C0528066   3.385   4.771   6.266
  328ACC    N0628067   3.244   4.817   6.273
  328ACC    C0728068   3.169   4.738   6.372
  328ACC    C0828069   3.230   4.959   6.301
  328ACC    C0928070   3.185   4.805   6.140
  328ACC    H0A28071   3.883   4.873   6.310
  328ACC    H0B28072   3.838   4.715   6.241
  328ACC    H0C28073   3.849   4.736   6.416
  328ACC    H0D28074   3.455   4.858   6.448
  328ACC    H0E28075   3.420   4.686   6.465
  328ACC    H0F28076   3.388   4.671   6.226
  328ACC    H0G28077   3.441   4.832   6.196
  328ACC    H0H28078   3.207   4.749   6.472
  328ACC    H0I28079   3.171   4.635   6.342
  328ACC    H0J28080   3.065   4.768   6.375
  328ACC    H0K28081   3.327   5.003   6.314
  328ACC    H0M28082   3.166   4.975   6.385
  328ACC    H0N28083   3.177   5.017   6.226
  328ACC    H0O28084   3.163   4.704   6.113
  328ACC    H0P28085   3.258   4.844   6.071
  328ACC    H0Q28086   3.089   4.856   6.128
  329ACC    C0028087   1.271   5.995   5.270
  329ACC    C0128088   1.175   6.111   5.271
  329ACC    O0228089   1.164   6.188   5.177
  329ACC    O0328090   1.092   6.105   5.374
  329ACC    C0428091   0.958   6.139   5.348
  329ACC    C0528092   0.901   6.016   5.274
  329ACC    N0628093   0.826   6.041   5.149
  329ACC    C0728094   0.705   6.122   5.175
  329ACC    C0828095   0.911   6.106   5.047
  329ACC    C0928096   0.785   5.908   5.098
  329ACC    H0A28097   1.317   5.984   5.172
  329ACC    H0B28098   1.221   5.904   5.299
  329ACC    H0C28099   1.349   6.013   5.344
  329ACC    H0D28100   0.952   6.233   5.294
  329ACC    H0E28101   0.909   6.154   5.443
  329ACC    H0F28102   0.836   5.964   5.344
  329ACC    H0G28103   0.980   5.943   5.255
  329ACC    H0H28104   0.728   6.214   5.228
  329ACC    H0I28105   0.635   6.067   5.239
  329ACC    H0J28106   0.652   6.146   5.083
  329ACC    H0K28107   0.937   6.209   5.075
  329ACC    H0M28108   0.863   6.111   4.950
  329ACC    H0N28109   1.006   6.053   5.035
  329ACC    H0O28110   0.731   5.850   5.174
  329ACC    H0P28111   0.872   5.848   5.069
  329ACC    H0Q28112   0.720   5.916   5.011
  330ACC    C0028113   2.929   2.300   2.988
  330ACC    C0128114   2.902   2.156   2.954
  330ACC    O0228115   2.963   2.064   3.007
  330ACC    O0328116   2.804   2.143   2.864
  330ACC    C0428117   2.772   2.014   2.813
  330ACC    C0528118   2.694   1.933   2.918
  330ACC    N0628119   2.665   1.792   2.880
  330ACC    C0728120   2.571   1.784   2.766
  330ACC    C0828121   2.788   1.713   2.851
  330ACC    C0928122   2.599   1.731   2.996
  330ACC    H0A28123   3.018   2.308   3.050
  330ACC    H0B28124   2.846   2.339   3.046
  330ACC    H0C28125   2.943   2.358   2.897
  330ACC    H0D28126   2.865   1.965   2.784
  330ACC    H0E28127   2.711   2.028   2.724
  330ACC    H0F28128   2.601   1.985   2.940
  330ACC    H0G28129   2.751   1.933   3.012
  330ACC    H0H28130   2.613   1.823   2.674
  330ACC    H0I28131   2.480   1.840   2.786
  330ACC    H0J28132   2.541   1.680   2.748
  330ACC    H0K28133   2.837   1.744   2.760
  330ACC    H0M28134   2.763   1.607   2.839
  330ACC    H0N28135   2.860   1.720   2.933
  330ACC    H0O28136   2.497   1.768   3.008
  330ACC    H0P28137   2.654   1.746   3.087
  330ACC    H0Q28138   2.593   1.624   2.987
  331ACC    C0028139   6.311   5.255   1.117
  331ACC    C0128140   6.358   5.116   1.096
  331ACC    O0228141   6.301   5.019   1.146
  331ACC    O0328142   6.470   5.118   1.026
  331ACC    C0428143   6.536   4.999   0.998
  331ACC    C0528144   6.446   4.915   0.908
  331ACC    N0628145   6.517   4.806   0.839
  331ACC    C0728146   6.591   4.863   0.724
  331ACC    C0828147   6.610   4.733   0.929
  331ACC    C0928148   6.414   4.710   0.793
  331ACC    H0A28149   6.221   5.260   1.061
  331ACC    H0B28150   6.378   5.327   1.073
  331ACC    H0C28151   6.297   5.275   1.223
  331ACC    H0D28152   6.556   4.948   1.092
  331ACC    H0E28153   6.630   5.026   0.952
  331ACC    H0F28154   6.396   4.981   0.838
  331ACC    H0G28155   6.365   4.874   0.969
  331ACC    H0H28156   6.669   4.932   0.756
  331ACC    H0I28157   6.525   4.917   0.656
  331ACC    H0J28158   6.641   4.786   0.666
  331ACC    H0K28159   6.697   4.793   0.956
  331ACC    H0M28160   6.648   4.643   0.881
  331ACC    H0N28161   6.559   4.702   1.020
  331ACC    H0O28162   6.318   4.757   0.775
  331ACC    H0P28163   6.393   4.632   0.866
  331ACC    H0Q28164   6.442   4.658   0.702
  332ACC    C0028165   0.799   2.750   6.156
  332ACC    C0128166   0.717   2.773   6.032
  332ACC    O0228167   0.666   2.883   6.008
  332ACC    O0328168   0.709   2.663   5.958
  332ACC    C0428169   0.637   2.666   5.838
  332ACC    C0528170   0.737   2.663   5.722
  332ACC    N0628171   0.676   2.695   5.591
  332ACC    C0728172   0.562   2.606   5.558
  332ACC    C0828173   0.630   2.836   5.595
  332ACC    C0928174   0.779   2.678   5.485
  332ACC    H0A28175   0.814   2.844   6.208
  332ACC    H0B28176   0.895   2.710   6.126
  332ACC    H0C28177   0.748   2.679   6.221
  332ACC    H0D28178   0.570   2.753   5.834
  332ACC    H0E28179   0.570   2.580   5.835
  332ACC    H0F28180   0.786   2.566   5.720
  332ACC    H0G28181   0.817   2.735   5.742
  332ACC    H0H28182   0.476   2.626   5.623
  332ACC    H0I28183   0.589   2.501   5.570
  332ACC    H0J28184   0.529   2.621   5.456
  332ACC    H0K28185   0.532   2.847   5.641
  332ACC    H0M28186   0.631   2.883   5.496
  332ACC    H0N28187   0.695   2.898   5.654
  332ACC    H0O28188   0.801   2.574   5.465
  332ACC    H0P28189   0.872   2.725   5.515
  332ACC    H0Q28190   0.749   2.725   5.391
  333ACC    C0028191   6.281   5.427   6.366
  333ACC    C0128192   6.260   5.276   6.369
  333ACC    O0228193   6.268   5.212   6.265
  333ACC    O0328194   6.225   5.217   6.486
  333ACC    C0428195   6.246   5.274   6.615
  333ACC    C0528196   6.131   5.223   6.701
  333ACC    N0628197   6.011   5.311   6.702
  333ACC    C0728198   6.034   5.433   6.782
  333ACC    C0828199   5.972   5.350   6.565
  333ACC    C0928200   5.900   5.238   6.765
  333ACC    H0A28201   6.334   5.453   6.275
  333ACC    H0B28202   6.341   5.464   6.448
  333ACC    H0C28203   6.186   5.480   6.366
  333ACC    H0D28204   6.254   5.383   6.619
  333ACC    H0E28205   6.339   5.235   6.654
  333ACC    H0F28206   6.167   5.213   6.803
  333ACC    H0G28207   6.106   5.122   6.668
  333ACC    H0H28208   6.111   5.496   6.739
  333ACC    H0I28209   6.063   5.407   6.884
  333ACC    H0J28210   5.946   5.496   6.791
  333ACC    H0K28211   6.054   5.383   6.503
  333ACC    H0M28212   5.913   5.441   6.565
  333ACC    H0N28213   5.919   5.274   6.509
  333ACC    H0O28214   5.931   5.196   6.860
  333ACC    H0P28215   5.861   5.160   6.700
  333ACC    H0Q28216   5.816   5.303   6.788
  334ACC    C0028217   3.300   3.046   6.331
  334ACC    C0128218   3.243   2.906   6.329
  334ACC    O0228219   3.198   2.856   6.226
  334ACC    O0328220   3.251   2.847   6.447
  334ACC    C0428221   3.207   2.714   6.461
  334ACC    C0528222   3.315   2.622   6.403
  334ACC    N0628223   3.283   2.477   6.406
  334ACC    C0728224   3.229   2.435   6.538
  334ACC    C0828225   3.184   2.439   6.303
  334ACC    C0928226   3.411   2.407   6.378
  334ACC    H0A28227   3.272   3.098   6.240
  334ACC    H0B28228   3.409   3.040   6.336
  334ACC    H0C28229   3.264   3.101   6.418
  334ACC    H0D28230   3.110   2.701   6.412
  334ACC    H0E28231   3.192   2.697   6.567
  334ACC    H0F28232   3.406   2.642   6.461
  334ACC    H0G28233   3.339   2.651   6.301
  334ACC    H0H28234   3.124   2.462   6.552
  334ACC    H0I28235   3.284   2.484   6.616
  334ACC    H0J28236   3.238   2.328   6.555
  334ACC    H0K28237   3.089   2.491   6.317
  334ACC    H0M28238   3.162   2.332   6.308
  334ACC    H0N28239   3.219   2.461   6.202
  334ACC    H0O28240   3.492   2.440   6.444
  334ACC    H0P28241   3.445   2.421   6.276
  334ACC    H0Q28242   3.403   2.301   6.397
  335ACC    C0028243   6.440   6.424   3.570
  335ACC    C0128244   6.354   6.508   3.482
  335ACC    O0228245   6.385   6.535   3.366
  335ACC    O0328246   6.240   6.541   3.541
  335ACC    C0428247   6.142   6.599   3.460
  335ACC    C0528248   6.094   6.493   3.361
  335ACC    N0628249   6.069   6.544   3.224
  335ACC    C0728250   5.975   6.658   3.226
  335ACC    C0828251   6.192   6.587   3.153
  335ACC    C0928252   6.017   6.427   3.150
  335ACC    H0A28253   6.491   6.348   3.512
  335ACC    H0B28254   6.375   6.375   3.642
  335ACC    H0C28255   6.514   6.484   3.620
  335ACC    H0D28256   6.184   6.687   3.412
  335ACC    H0E28257   6.059   6.631   3.523
  335ACC    H0F28258   6.005   6.450   3.406
  335ACC    H0G28259   6.163   6.408   3.357
  335ACC    H0H28260   6.026   6.752   3.245
  335ACC    H0I28261   5.902   6.647   3.305
  335ACC    H0J28262   5.923   6.669   3.131
  335ACC    H0K28263   6.240   6.673   3.199
  335ACC    H0M28264   6.171   6.615   3.050
  335ACC    H0N28265   6.267   6.507   3.150
  335ACC    H0O28266   5.949   6.372   3.214
  335ACC    H0P28267   6.094   6.354   3.127
  335ACC    H0Q28268   5.965   6.453   3.058
  336ACC    C0028269   6.496   6.401   6.196
  336ACC    C0128270   6.499   6.260   6.143
  336ACC    O0228271   6.566   6.228   6.045
  336ACC    O0328272   6.423   6.177   6.216
  336ACC    C0428273   6.414   6.042   6.175
  336ACC    C0528274   6.545   5.970   6.212
  336ACC    N0628275   6.568   5.844   6.136
  336ACC    C0728276   6.463   5.744   6.164
  336ACC    C0828277   6.571   5.868   5.990
  336ACC    C0928278   6.699   5.790   6.182
  336ACC    H0A28279   6.544   6.468   6.125
  336ACC    H0B28280   6.551   6.406   6.290
  336ACC    H0C28281   6.393   6.432   6.210
  336ACC    H0D28282   6.393   6.040   6.068
  336ACC    H0E28283   6.330   5.994   6.224
  336ACC    H0F28284   6.546   5.950   6.319
  336ACC    H0G28285   6.630   6.036   6.194
  336ACC    H0H28286   6.378   5.753   6.097
  336ACC    H0I28287   6.423   5.754   6.264
  336ACC    H0J28288   6.502   5.643   6.154
  336ACC    H0K28289   6.472   5.878   5.946
  336ACC    H0M28290   6.616   5.783   5.937
  336ACC    H0N28291   6.622   5.961   5.965
  336ACC    H0O28292   6.696   5.759   6.286
  336ACC    H0P28293   6.780   5.861   6.173
  336ACC    H0Q28294   6.725   5.701   6.125
  337ACC    C0028295   5.595   6.248   3.117
  337ACC    C0128296   5.727   6.237   3.050
  337ACC    O0228297   5.828   6.207   3.112
  337ACC    O0328298   5.717   6.260   2.920
  337ACC    C0428299   5.819   6.220   2.832
  337ACC    C0528300   5.841   6.069   2.846
  337ACC    N0628301   5.922   6.004   2.741
  337ACC    C0728302   5.850   6.017   2.613
  337ACC    C0828303   6.057   6.062   2.724
  337ACC    C0928304   5.938   5.861   2.778
  337ACC    H0A28305   5.609   6.241   3.224
  337ACC    H0B28306   5.537   6.162   3.083
  337ACC    H0C28307   5.542   6.339   3.092
  337ACC    H0D28308   5.910   6.277   2.848
  337ACC    H0E28309   5.782   6.244   2.734
  337ACC    H0F28310   5.742   6.024   2.846
  337ACC    H0G28311   5.881   6.044   2.944
  337ACC    H0H28312   5.854   6.118   2.572
  337ACC    H0I28313   5.744   5.994   2.625
  337ACC    H0J28314   5.894   5.951   2.538
  337ACC    H0K28315   6.053   6.166   2.695
  337ACC    H0M28316   6.111   6.008   2.646
  337ACC    H0N28317   6.115   6.053   2.816
  337ACC    H0O28318   5.845   5.806   2.764
  337ACC    H0P28319   5.964   5.848   2.883
  337ACC    H0Q28320   6.013   5.810   2.720
  338ACC    C0028321   3.181   2.739   2.269
  338ACC    C0128322   3.087   2.628   2.226
  338ACC    O0228323   3.071   2.525   2.292
  338ACC    O0328324   3.026   2.657   2.112
  338ACC    C0428325   2.976   2.552   2.033
  338ACC    C0528326   2.838   2.505   2.078
  338ACC    N0628327   2.780   2.398   1.991
  338ACC    C0728328   2.751   2.449   1.854
  338ACC    C0828329   2.869   2.280   1.981
  338ACC    C0928330   2.650   2.357   2.049
  338ACC    H0A28331   3.252   2.701   2.342
  338ACC    H0B28332   3.127   2.824   2.309
  338ACC    H0C28333   3.240   2.771   2.183
  338ACC    H0D28334   3.050   2.472   2.032
  338ACC    H0E28335   2.969   2.590   1.933
  338ACC    H0F28336   2.772   2.592   2.080
  338ACC    H0G28337   2.846   2.469   2.181
  338ACC    H0H28338   2.841   2.473   1.799
  338ACC    H0I28339   2.687   2.537   1.853
  338ACC    H0J28340   2.700   2.373   1.794
  338ACC    H0K28341   2.959   2.301   1.922
  338ACC    H0M28342   2.821   2.197   1.928
  338ACC    H0N28343   2.901   2.244   2.079
  338ACC    H0O28344   2.580   2.440   2.048
  338ACC    H0P28345   2.662   2.322   2.151
  338ACC    H0Q28346   2.605   2.277   1.990
  339ACC    C0028347   1.639   2.845   7.140
  339ACC    C0128348   1.695   2.892   0.082
  339ACC    O0228349   1.629   2.962   0.157
  339ACC    O0328350   1.817   2.846   0.101
  339ACC    C0428351   1.886   2.849   0.224
  339ACC    C0528352   1.795   2.821   0.347
  339ACC    N0628353   1.855   2.752   0.465
  339ACC    C0728354   1.915   2.621   0.432
  339ACC    C0828355   1.958   2.833   0.533
  339ACC    C0928356   1.744   2.729   0.562
  339ACC    H0A28357   1.711   2.864   7.061
  339ACC    H0B28358   1.548   2.899   7.119
  339ACC    H0C28359   1.617   2.739   7.146
  339ACC    H0D28360   1.942   2.942   0.222
  339ACC    H0E28361   1.965   2.775   0.216
  339ACC    H0F28362   1.716   2.760   0.311
  339ACC    H0G28363   1.741   2.910   0.376
  339ACC    H0H28364   2.001   2.631   0.366
  339ACC    H0I28365   1.843   2.554   0.386
  339ACC    H0J28366   1.952   2.571   0.522
  339ACC    H0K28367   2.037   2.858   0.463
  339ACC    H0M28368   2.006   2.779   0.615
  339ACC    H0N28369   1.915   2.924   0.575
  339ACC    H0O28370   1.669   2.662   0.520
  339ACC    H0P28371   1.694   2.822   0.589
  339ACC    H0Q28372   1.780   2.683   0.654
  340ACC    C0028373   2.533   3.202   5.713
  340ACC    C0128374   2.522   3.348   5.680
  340ACC    O0228375   2.466   3.386   5.579
  340ACC    O0328376   2.580   3.428   5.767
  340ACC    C0428377   2.596   3.563   5.730
  340ACC    C0528378   2.462   3.643   5.727
  340ACC    N0628379   2.476   3.783   5.681
  340ACC    C0728380   2.562   3.859   5.773
  340ACC    C0828381   2.533   3.788   5.544
  340ACC    C0928382   2.342   3.847   5.680
  340ACC    H0A28383   2.600   3.155   5.641
  340ACC    H0B28384   2.435   3.155   5.703
  340ACC    H0C28385   2.570   3.188   5.814
  340ACC    H0D28386   2.646   3.565   5.634
  340ACC    H0E28387   2.666   3.606   5.801
  340ACC    H0F28388   2.419   3.645   5.827
  340ACC    H0G28389   2.388   3.592   5.668
  340ACC    H0H28390   2.663   3.821   5.780
  340ACC    H0I28391   2.520   3.855   5.873
  340ACC    H0J28392   2.570   3.964   5.745
  340ACC    H0K28393   2.639   3.762   5.544
  340ACC    H0M28394   2.525   3.888   5.502
  340ACC    H0N28395   2.481   3.720   5.477
  340ACC    H0O28396   2.296   3.846   5.778
  340ACC    H0P28397   2.271   3.798   5.615
  340ACC    H0Q28398   2.350   3.951   5.649
  341ACC    C0028399   5.875   2.962   6.646
  341ACC    C0128400   5.936   2.949   6.512
  341ACC    O0228401   6.002   3.039   6.461
  341ACC    O0328402   5.913   2.828   6.461
  341ACC    C0428403   5.989   2.788   6.351
  341ACC    C0528404   6.131   2.760   6.405
  341ACC    N0628405   6.236   2.761   6.302
  341ACC    C0728406   6.214   2.649   6.208
  341ACC    C0828407   6.244   2.889   6.228
  341ACC    C0928408   6.365   2.741   6.371
  341ACC    H0A28409   5.897   3.058   6.691
  341ACC    H0B28410   5.910   2.882   6.711
  341ACC    H0C28411   5.768   2.952   6.631
  341ACC    H0D28412   5.985   2.867   6.276
  341ACC    H0E28413   5.946   2.698   6.307
  341ACC    H0F28414   6.130   2.665   6.460
  341ACC    H0G28415   6.159   2.834   6.481
  341ACC    H0H28416   6.123   2.665   6.151
  341ACC    H0I28417   6.204   2.553   6.260
  341ACC    H0J28418   6.295   2.641   6.136
  341ACC    H0K28419   6.160   2.904   6.161
  341ACC    H0M28420   6.331   2.891   6.162
  341ACC    H0N28421   6.250   2.975   6.296
  341ACC    H0O28422   6.363   2.645   6.420
  341ACC    H0P28423   6.382   2.816   6.449
  341ACC    H0Q28424   6.449   2.744   6.302
  342ACC    C0028425   1.614   6.224   4.118
  342ACC    C0128426   1.672   6.122   4.028
  342ACC    O0228427   1.786   6.081   4.045
  342ACC    O0328428   1.584   6.089   3.935
  342ACC    C0428429   1.606   5.985   3.845
  342ACC    C0528430   1.535   5.860   3.901
  342ACC    N0628431   1.615   5.764   3.984
  342ACC    C0728432   1.617   5.628   3.924
  342ACC    C0828433   1.756   5.803   4.010
  342ACC    C0928434   1.545   5.749   4.114
  342ACC    H0A28435   1.639   6.201   4.222
  342ACC    H0B28436   1.506   6.216   4.105
  342ACC    H0C28437   1.649   6.322   4.089
  342ACC    H0D28438   1.708   5.976   3.810
  342ACC    H0E28439   1.554   6.013   3.754
  342ACC    H0F28440   1.490   5.809   3.816
  342ACC    H0G28441   1.448   5.897   3.955
  342ACC    H0H28442   1.698   5.616   3.853
  342ACC    H0I28443   1.523   5.600   3.874
  342ACC    H0J28444   1.636   5.551   3.999
  342ACC    H0K28445   1.805   5.869   3.941
  342ACC    H0M28446   1.824   5.722   3.996
  342ACC    H0N28447   1.772   5.844   4.110
  342ACC    H0O28448   1.444   5.709   4.099
  342ACC    H0P28449   1.536   5.844   4.166
  342ACC    H0Q28450   1.596   5.680   4.180
  343ACC    C0028451   6.501   3.032   0.312
  343ACC    C0128452   6.450   3.133   0.411
  343ACC    O0228453   6.438   3.107   0.531
  343ACC    O0328454   6.429   3.250   0.355
  343ACC    C0428455   6.396   3.359   0.438
  343ACC    C0528456   6.524   3.411   0.504
  343ACC    N0628457   6.503   3.509   0.613
  343ACC    C0728458   6.383   3.595   0.597
  343ACC    C0828459   6.494   3.432   0.740
  343ACC    C0928460   6.619   3.600   0.615
  343ACC    H0A28461   6.483   2.932   0.349
  343ACC    H0B28462   6.607   3.049   0.301
  343ACC    H0C28463   6.452   3.047   0.216
  343ACC    H0D28464   6.320   3.329   0.510
  343ACC    H0E28465   6.353   3.436   0.374
  343ACC    H0F28466   6.582   3.456   0.426
  343ACC    H0G28467   6.587   3.329   0.538
  343ACC    H0H28468   6.290   3.539   0.600
  343ACC    H0I28469   6.387   3.650   0.503
  343ACC    H0J28470   6.377   3.669   0.677
  343ACC    H0K28471   6.414   3.358   0.736
  343ACC    H0M28472   6.474   3.495   0.825
  343ACC    H0N28473   6.587   3.380   0.761
  343ACC    H0O28474   6.620   3.666   0.528
  343ACC    H0P28475   6.712   3.544   0.613
  343ACC    H0Q28476   6.618   3.664   0.703
  344ACC    C0028477   0.380   1.100   1.934
  344ACC    C0128478   0.500   1.170   1.989
  344ACC    O0228479   0.610   1.116   1.985
  344ACC    O0328480   0.475   1.291   2.040
  344ACC    C0428481   0.586   1.358   2.096
  344ACC    C0528482   0.556   1.503   2.141
  344ACC    N0628483   0.657   1.557   2.237
  344ACC    C0728484   0.636   1.518   2.378
  344ACC    C0828485   0.791   1.509   2.203
  344ACC    C0928486   0.655   1.705   2.237
  344ACC    H0A28487   0.407   0.998   1.904
  344ACC    H0B28488   0.344   1.154   1.847
  344ACC    H0C28489   0.301   1.092   2.009
  344ACC    H0D28490   0.666   1.359   2.022
  344ACC    H0E28491   0.623   1.297   2.178
  344ACC    H0F28492   0.456   1.512   2.182
  344ACC    H0G28493   0.555   1.563   2.050
  344ACC    H0H28494   0.647   1.411   2.388
  344ACC    H0I28495   0.540   1.550   2.418
  344ACC    H0J28496   0.713   1.560   2.444
  344ACC    H0K28497   0.863   1.548   2.275
  344ACC    H0M28498   0.819   1.537   2.102
  344ACC    H0N28499   0.805   1.402   2.212
  344ACC    H0O28500   0.561   1.744   2.278
  344ACC    H0P28501   0.666   1.746   2.138
  344ACC    H0Q28502   0.736   1.746   2.298
  345ACC    C0028503   3.999   3.358   2.574
  345ACC    C0128504   4.070   3.411   2.696
  345ACC    O0228505   4.100   3.337   2.790
  345ACC    O0328506   4.087   3.543   2.692
  345ACC    C0428507   4.112   3.609   2.814
  345ACC    C0528508   4.125   3.761   2.794
  345ACC    N0628509   4.125   3.843   2.920
  345ACC    C0728510   4.010   3.815   3.012
  345ACC    C0828511   4.255   3.827   2.990
  345ACC    C0928512   4.115   3.987   2.885
  345ACC    H0A28513   4.026   3.254   2.558
  345ACC    H0B28514   4.026   3.417   2.487
  345ACC    H0C28515   3.891   3.364   2.590
  345ACC    H0D28516   4.204   3.567   2.854
  345ACC    H0E28517   4.030   3.584   2.882
  345ACC    H0F28518   4.050   3.791   2.723
  345ACC    H0G28519   4.218   3.779   2.741
  345ACC    H0H28520   4.007   3.714   3.051
  345ACC    H0I28521   3.913   3.831   2.967
  345ACC    H0J28522   4.014   3.880   3.100
  345ACC    H0K28523   4.312   3.741   2.953
  345ACC    H0M28524   4.248   3.821   3.098
  345ACC    H0N28525   4.324   3.910   2.974
  345ACC    H0O28526   4.016   4.021   2.861
  345ACC    H0P28527   4.176   4.012   2.799
  345ACC    H0Q28528   4.148   4.049   2.968
  346ACC    C0028529   4.295   3.951   3.484
  346ACC    C0128530   4.200   4.014   3.385
  346ACC    O0228531   4.181   3.967   3.273
  346ACC    O0328532   4.146   4.124   3.435
  346ACC    C0428533   4.081   4.214   3.348
  346ACC    C0528534   3.943   4.163   3.311
  346ACC    N0628535   3.871   4.248   3.213
  346ACC    C0728536   3.827   4.377   3.271
  346ACC    C0828537   3.948   4.274   3.089
  346ACC    C0928538   3.752   4.171   3.175
  346ACC    H0A28539   4.322   3.851   3.450
  346ACC    H0B28540   4.247   3.943   3.581
  346ACC    H0C28541   4.386   4.010   3.492
  346ACC    H0D28542   4.145   4.231   3.261
  346ACC    H0E28543   4.074   4.310   3.399
  346ACC    H0F28544   3.884   4.153   3.402
  346ACC    H0G28545   3.952   4.062   3.272
  346ACC    H0H28546   3.912   4.439   3.298
  346ACC    H0I28547   3.765   4.363   3.360
  346ACC    H0J28548   3.768   4.435   3.199
  346ACC    H0K28549   4.032   4.340   3.105
  346ACC    H0M28550   3.886   4.323   3.013
  346ACC    H0N28551   3.984   4.181   3.046
  346ACC    H0O28552   3.695   4.145   3.263
  346ACC    H0P28553   3.777   4.076   3.129
  346ACC    H0Q28554   3.688   4.227   3.107
  347ACC    C0028555   5.203   1.093   4.741
  347ACC    C0128556   5.081   1.141   4.669
  347ACC    O0228557   4.970   1.142   4.722
  347ACC    O0328558   5.108   1.183   4.546
  347ACC    C0428559   4.999   1.215   4.464
  347ACC    C0528560   4.934   1.348   4.507
  347ACC    N0628561   4.787   1.354   4.482
  347ACC    C0728562   4.757   1.318   4.341
  347ACC    C0828563   4.713   1.262   4.573
  347ACC    C0928564   4.743   1.493   4.507
  347ACC    H0A28565   5.171   1.032   4.825
  347ACC    H0B28566   5.259   1.177   4.780
  347ACC    H0C28567   5.267   1.034   4.677
  347ACC    H0D28568   4.931   1.131   4.468
  347ACC    H0E28569   5.031   1.222   4.361
  347ACC    H0F28570   4.984   1.429   4.454
  347ACC    H0G28571   4.954   1.367   4.612
  347ACC    H0H28572   4.775   1.212   4.322
  347ACC    H0I28573   4.817   1.376   4.271
  347ACC    H0J28574   4.652   1.337   4.318
  347ACC    H0K28575   4.754   1.162   4.575
  347ACC    H0M28576   4.609   1.253   4.544
  347ACC    H0N28577   4.715   1.296   4.676
  347ACC    H0O28578   4.789   1.563   4.436
  347ACC    H0P28579   4.770   1.527   4.607
  347ACC    H0Q28580   4.635   1.504   4.497
  348ACC    C0028581   5.096   6.299   3.183
  348ACC    C0128582   4.979   6.381   3.224
  348ACC    O0228583   4.921   6.453   3.144
  348ACC    O0328584   4.954   6.375   3.354
  348ACC    C0428585   4.863   6.467   3.408
  348ACC    C0528586   4.719   6.421   3.387
  348ACC    N0628587   4.625   6.528   3.341
  348ACC    C0728588   4.651   6.663   3.397
  348ACC    C0828589   4.629   6.538   3.194
  348ACC    C0928590   4.490   6.484   3.381
  348ACC    H0A28591   5.137   6.339   3.091
  348ACC    H0B28592   5.067   6.195   3.170
  348ACC    H0C28593   5.172   6.306   3.259
  348ACC    H0D28594   4.882   6.562   3.360
  348ACC    H0E28595   4.883   6.477   3.514
  348ACC    H0F28596   4.687   6.380   3.483
  348ACC    H0G28597   4.716   6.335   3.320
  348ACC    H0H28598   4.737   6.712   3.353
  348ACC    H0I28599   4.667   6.659   3.504
  348ACC    H0J28600   4.566   6.730   3.380
  348ACC    H0K28601   4.723   6.579   3.158
  348ACC    H0M28602   4.549   6.601   3.157
  348ACC    H0N28603   4.614   6.440   3.148
  348ACC    H0O28604   4.481   6.480   3.490
  348ACC    H0P28605   4.467   6.385   3.343
  348ACC    H0Q28606   4.413   6.553   3.345
  349ACC    C0028607   0.257   2.437   2.062
  349ACC    C0128608   0.341   2.552   2.016
  349ACC    O0228609   0.355   2.655   2.082
  349ACC    O0328610   0.395   2.526   1.899
  349ACC    C0428611   0.529   2.561   1.873
  349ACC    C0528612   0.596   2.424   1.882
  349ACC    N0628613   0.735   2.418   1.831
  349ACC    C0728614   0.742   2.444   1.685
  349ACC    C0828615   0.821   2.507   1.910
  349ACC    C0928616   0.781   2.280   1.853
  349ACC    H0A28617   0.191   2.466   2.143
  349ACC    H0B28618   0.325   2.360   2.096
  349ACC    H0C28619   0.200   2.395   1.979
  349ACC    H0D28620   0.569   2.633   1.944
  349ACC    H0E28621   0.537   2.604   1.774
  349ACC    H0F28622   0.535   2.350   1.830
  349ACC    H0G28623   0.595   2.396   1.987
  349ACC    H0H28624   0.720   2.547   1.660
  349ACC    H0I28625   0.672   2.381   1.631
  349ACC    H0J28626   0.841   2.422   1.645
  349ACC    H0K28627   0.803   2.612   1.888
  349ACC    H0M28628   0.923   2.483   1.888
  349ACC    H0N28629   0.808   2.490   2.017
  349ACC    H0O28630   0.723   2.212   1.791
  349ACC    H0P28631   0.770   2.251   1.958
  349ACC    H0Q28632   0.886   2.265   1.827
  350ACC    C0028633   4.343   5.568   4.459
  350ACC    C0128634   4.402   5.699   4.424
  350ACC    O0228635   4.357   5.765   4.331
  350ACC    O0328636   4.501   5.732   4.506
  350ACC    C0428637   4.561   5.857   4.486
  350ACC    C0528638   4.484   5.961   4.565
  350ACC    N0628639   4.464   6.087   4.490
  350ACC    C0728640   4.592   6.138   4.437
  350ACC    C0828641   4.362   6.063   4.385
  350ACC    C0928642   4.411   6.192   4.581
  350ACC    H0A28643   4.298   5.524   4.372
  350ACC    H0B28644   4.269   5.584   4.535
  350ACC    H0C28645   4.425   5.505   4.490
  350ACC    H0D28646   4.564   5.880   4.380
  350ACC    H0E28647   4.664   5.852   4.520
  350ACC    H0F28648   4.544   5.981   4.653
  350ACC    H0G28649   4.388   5.922   4.599
  350ACC    H0H28650   4.624   6.086   4.346
  350ACC    H0I28651   4.673   6.133   4.510
  350ACC    H0J28652   4.586   6.244   4.410
  350ACC    H0K28653   4.403   6.012   4.297
  350ACC    H0M28654   4.318   6.155   4.348
  350ACC    H0N28655   4.279   6.002   4.419
  350ACC    H0O28656   4.485   6.221   4.656
  350ACC    H0P28657   4.320   6.159   4.632
  350ACC    H0Q28658   4.387   6.283   4.526
  351ACC    C0028659   3.746   6.414   4.108
  351ACC    C0128660   3.872   6.354   4.048
  351ACC    O0228661   3.874   6.245   3.991
  351ACC    O0328662   3.975   6.433   4.065
  351ACC    C0428663   4.101   6.397   4.013
  351ACC    C0528664   4.155   6.525   3.948
  351ACC    N0628665   4.300   6.547   3.966
  351ACC    C0728666   4.333   6.565   4.109
  351ACC    C0828667   4.368   6.435   3.898
  351ACC    C0928668   4.345   6.673   3.902
  351ACC    H0A28669   3.740   6.520   4.086
  351ACC    H0B28670   3.740   6.397   4.215
  351ACC    H0C28671   3.659   6.371   4.061
  351ACC    H0D28672   4.096   6.318   3.938
  351ACC    H0E28673   4.161   6.356   4.094
  351ACC    H0F28674   4.104   6.611   3.988
  351ACC    H0G28675   4.132   6.520   3.842
  351ACC    H0H28676   4.300   6.484   4.173
  351ACC    H0I28677   4.291   6.656   4.150
  351ACC    H0J28678   4.440   6.571   4.124
  351ACC    H0K28679   4.333   6.337   3.927
  351ACC    H0M28680   4.474   6.436   3.923
  351ACC    H0N28681   4.359   6.440   3.789
  351ACC    H0O28682   4.394   6.741   3.971
  351ACC    H0P28683   4.263   6.731   3.860
  351ACC    H0Q28684   4.420   6.658   3.825
  352ACC    C0028685   5.879   2.460   4.969
  352ACC    C0128686   5.961   2.583   5.000
  352ACC    O0228687   6.068   2.604   4.944
  352ACC    O0328688   5.907   2.657   5.096
  352ACC    C0428689   5.975   2.772   5.144
  352ACC    C0528690   5.974   2.891   5.046
  352ACC    N0628691   6.100   2.970   5.039
  352ACC    C0728692   6.155   3.003   5.173
  352ACC    C0828693   6.194   2.904   4.947
  352ACC    C0928694   6.074   3.101   4.977
  352ACC    H0A28695   5.922   2.409   4.883
  352ACC    H0B28696   5.777   2.491   4.947
  352ACC    H0C28697   5.879   2.393   5.054
  352ACC    H0D28698   6.073   2.741   5.174
  352ACC    H0E28699   5.922   2.801   5.234
  352ACC    H0F28700   5.892   2.956   5.077
  352ACC    H0G28701   5.945   2.856   4.947
  352ACC    H0H28702   6.177   2.917   5.235
  352ACC    H0I28703   6.083   3.063   5.229
  352ACC    H0J28704   6.246   3.062   5.165
  352ACC    H0K28705   6.208   2.800   4.970
  352ACC    H0M28706   6.290   2.955   4.942
  352ACC    H0N28707   6.156   2.903   4.845
  352ACC    H0O28708   6.000   3.159   5.032
  352ACC    H0P28709   6.041   3.093   4.873
  352ACC    H0Q28710   6.163   3.164   4.973
  353ACC    C0028711   2.662   1.241   0.522
  353ACC    C0128712   2.615   1.366   0.591
  353ACC    O0228713   2.611   1.374   0.713
  353ACC    O0328714   2.579   1.460   0.504
  353ACC    C0428715   2.509   1.572   0.552
  353ACC    C0528716   2.605   1.681   0.601
  353ACC    N0628717   2.539   1.803   0.656
  353ACC    C0728718   2.487   1.890   0.550
  353ACC    C0828719   2.425   1.773   0.747
  353ACC    C0928720   2.645   1.878   0.727
  353ACC    H0A28721   2.757   1.212   0.564
  353ACC    H0B28722   2.666   1.257   0.415
  353ACC    H0C28723   2.592   1.162   0.544
  353ACC    H0D28724   2.445   1.539   0.633
  353ACC    H0E28725   2.443   1.606   0.474
  353ACC    H0F28726   2.673   1.707   0.520
  353ACC    H0G28727   2.665   1.635   0.680
  353ACC    H0H28728   2.412   1.837   0.491
  353ACC    H0I28729   2.566   1.921   0.483
  353ACC    H0J28730   2.440   1.979   0.590
  353ACC    H0K28731   2.332   1.756   0.694
  353ACC    H0M28732   2.408   1.851   0.821
  353ACC    H0N28733   2.441   1.681   0.801
  353ACC    H0O28734   2.729   1.900   0.661
  353ACC    H0P28735   2.684   1.820   0.811
  353ACC    H0Q28736   2.609   1.973   0.766
  354ACC    C0028737   0.845   3.968   5.413
  354ACC    C0128738   0.905   3.884   5.522
  354ACC    O0228739   1.021   3.900   5.562
  354ACC    O0328740   0.820   3.796   5.570
  354ACC    C0428741   0.871   3.671   5.610
  354ACC    C0528742   0.860   3.641   5.759
  354ACC    N0628743   0.961   3.541   5.801
  354ACC    C0728744   0.966   3.423   5.711
  354ACC    C0828745   1.091   3.610   5.802
  354ACC    C0928746   0.934   3.492   5.939
  354ACC    H0A28747   0.813   4.064   5.451
  354ACC    H0B28748   0.759   3.917   5.370
  354ACC    H0C28749   0.919   3.983   5.335
  354ACC    H0D28750   0.969   3.657   5.565
  354ACC    H0E28751   0.811   3.597   5.560
  354ACC    H0F28752   0.759   3.605   5.780
  354ACC    H0G28753   0.874   3.733   5.816
  354ACC    H0H28754   1.009   3.446   5.614
  354ACC    H0I28755   0.867   3.380   5.694
  354ACC    H0J28756   1.028   3.344   5.751
  354ACC    H0K28757   1.111   3.664   5.711
  354ACC    H0M28758   1.170   3.537   5.814
  354ACC    H0N28759   1.101   3.681   5.885
  354ACC    H0O28760   0.843   3.432   5.944
  354ACC    H0P28761   0.925   3.574   6.010
  354ACC    H0Q28762   1.017   3.430   5.974
  355ACC    C0028763   5.150   4.197   5.663
  355ACC    C0128764   5.188   4.225   5.806
  355ACC    O0228765   5.134   4.168   5.901
  355ACC    O0328766   5.287   4.313   5.815
  355ACC    C0428767   5.322   4.361   5.942
  355ACC    C0528768   5.434   4.273   5.996
  355ACC    N0628769   5.438   4.264   6.143
  355ACC    C0728770   5.429   4.396   6.208
  355ACC    C0828771   5.327   4.179   6.194
  355ACC    C0928772   5.568   4.204   6.179
  355ACC    H0A28773   5.093   4.105   5.658
  355ACC    H0B28774   5.240   4.188   5.603
  355ACC    H0C28775   5.090   4.280   5.626
  355ACC    H0D28776   5.233   4.362   6.007
  355ACC    H0E28777   5.354   4.464   5.934
  355ACC    H0F28778   5.528   4.313   5.956
  355ACC    H0G28779   5.425   4.172   5.956
  355ACC    H0H28780   5.330   4.441   6.198
  355ACC    H0I28781   5.502   4.466   6.166
  355ACC    H0J28782   5.447   4.382   6.314
  355ACC    H0K28783   5.230   4.227   6.185
  355ACC    H0M28784   5.341   4.152   6.298
  355ACC    H0N28785   5.318   4.088   6.136
  355ACC    H0O28786   5.651   4.266   6.150
  355ACC    H0P28787   5.581   4.111   6.125
  355ACC    H0Q28788   5.577   4.189   6.286
  356ACC    C0028789   1.564   2.813   6.008
  356ACC    C0128790   1.487   2.933   5.958
  356ACC    O0228791   1.484   3.040   6.018
  356ACC    O0328792   1.420   2.903   5.848
  356ACC    C0428793   1.329   2.992   5.792
  356ACC    C0528794   1.406   3.091   5.706
  356ACC    N0628795   1.323   3.196   5.644
  356ACC    C0728796   1.190   3.150   5.600
  356ACC    C0828797   1.306   3.301   5.745
  356ACC    C0928798   1.390   3.243   5.521
  356ACC    H0A28799   1.523   2.781   6.103
  356ACC    H0B28800   1.669   2.839   6.018
  356ACC    H0C28801   1.554   2.731   5.937
  356ACC    H0D28802   1.274   3.045   5.867
  356ACC    H0E28803   1.258   2.933   5.734
  356ACC    H0F28804   1.457   3.036   5.630
  356ACC    H0G28805   1.486   3.133   5.767
  356ACC    H0H28806   1.127   3.121   5.684
  356ACC    H0I28807   1.196   3.064   5.534
  356ACC    H0J28808   1.136   3.226   5.544
  356ACC    H0K28809   1.253   3.267   5.833
  356ACC    H0M28810   1.249   3.383   5.704
  356ACC    H0N28811   1.402   3.339   5.782
  356ACC    H0O28812   1.391   3.167   5.444
  356ACC    H0P28813   1.493   3.271   5.539
  356ACC    H0Q28814   1.337   3.324   5.473
  357ACC    C0028815   0.983   4.439   5.641
  357ACC    C0128816   0.859   4.366   5.684
  357ACC    O0228817   0.746   4.406   5.653
  357ACC    O0328818   0.886   4.258   5.758
  357ACC    C0428819   0.781   4.191   5.824
  357ACC    C0528820   0.724   4.082   5.732
  357ACC    N0628821   0.598   4.018   5.780
  357ACC    C0728822   0.607   3.972   5.921
  357ACC    C0828823   0.487   4.114   5.767
  357ACC    C0928824   0.567   3.900   5.696
  357ACC    H0A28825   0.960   4.509   5.561
  357ACC    H0B28826   1.058   4.368   5.607
  357ACC    H0C28827   1.024   4.494   5.726
  357ACC    H0D28828   0.706   4.264   5.855
  357ACC    H0E28829   0.823   4.148   5.914
  357ACC    H0F28830   0.802   4.007   5.721
  357ACC    H0G28831   0.706   4.124   5.633
  357ACC    H0H28832   0.616   4.055   5.990
  357ACC    H0I28833   0.693   3.906   5.935
  357ACC    H0J28834   0.517   3.916   5.948
  357ACC    H0K28835   0.500   4.206   5.824
  357ACC    H0M28836   0.394   4.069   5.799
  357ACC    H0N28837   0.475   4.143   5.662
  357ACC    H0O28838   0.630   3.815   5.717
  357ACC    H0P28839   0.579   3.920   5.589
  357ACC    H0Q28840   0.464   3.866   5.708
  358ACC    C0028841   0.766   0.451   4.379
  358ACC    C0128842   0.904   0.465   4.323
  358ACC    O0228843   1.001   0.487   4.396
  358ACC    O0328844   0.910   0.440   4.191
  358ACC    C0428845   1.038   0.424   4.135
  358ACC    C0528846   1.088   0.286   4.179
  358ACC    N0628847   1.236   0.275   4.187
  358ACC    C0728848   1.304   0.333   4.068
  358ACC    C0828849   1.282   0.345   4.309
  358ACC    C0928850   1.265   0.130   4.197
  358ACC    H0A28851   0.752   0.517   4.463
  358ACC    H0B28852   0.755   0.348   4.413
  358ACC    H0C28853   0.691   0.469   4.302
  358ACC    H0D28854   1.101   0.508   4.167
  358ACC    H0E28855   1.034   0.430   4.027
  358ACC    H0F28856   1.045   0.212   4.113
  358ACC    H0G28857   1.047   0.258   4.276
  358ACC    H0H28858   1.291   0.441   4.061
  358ACC    H0I28859   1.265   0.290   3.977
  358ACC    H0J28860   1.411   0.313   4.071
  358ACC    H0K28861   1.244   0.447   4.316
  358ACC    H0M28862   1.390   0.354   4.311
  358ACC    H0N28863   1.251   0.293   4.400
  358ACC    H0O28864   1.233   0.077   4.108
  358ACC    H0P28865   1.216   0.083   4.282
  358ACC    H0Q28866   1.370   0.108   4.208
  359ACC    C0028867   6.530   0.251   4.278
  359ACC    C0128868   6.516   0.377   4.357
  359ACC    O0228869   6.434   0.464   4.329
  359ACC    O0328870   6.582   0.368   4.471
  359ACC    C0428871   6.509   0.400   4.586
  359ACC    C0528872   6.414   0.281   4.609
  359ACC    N0628873   6.298   0.309   4.697
  359ACC    C0728874   6.319   0.416   4.798
  359ACC    C0828875   6.182   0.350   4.617
  359ACC    C0928876   6.261   0.181   4.764
  359ACC    H0A28877   6.434   0.214   4.245
  359ACC    H0B28878   6.570   0.175   4.344
  359ACC    H0C28879   6.597   0.264   4.194
  359ACC    H0D28880   6.455   0.493   4.571
  359ACC    H0E28881   6.578   0.414   4.668
  359ACC    H0F28882   6.474   0.198   4.647
  359ACC    H0G28883   6.373   0.242   4.516
  359ACC    H0H28884   6.268   0.508   4.772
  359ACC    H0I28885   6.421   0.448   4.815
  359ACC    H0J28886   6.281   0.387   4.896
  359ACC    H0K28887   6.204   0.430   4.546
  359ACC    H0M28888   6.105   0.386   4.686
  359ACC    H0N28889   6.141   0.268   4.560
  359ACC    H0O28890   6.344   0.142   4.821
  359ACC    H0P28891   6.235   0.105   4.691
  359ACC    H0Q28892   6.177   0.196   4.832
  360ACC    C0028893   4.934   5.203   2.438
  360ACC    C0128894   4.889   5.066   2.478
  360ACC    O0228895   4.789   5.015   2.429
  360ACC    O0328896   4.970   5.010   2.568
  360ACC    C0428897   4.966   4.871   2.588
  360ACC    C0528898   5.069   4.804   2.494
  360ACC    N0628899   5.020   4.686   2.419
  360ACC    C0728900   4.964   4.583   2.511
  360ACC    C0828901   4.922   4.730   2.317
  360ACC    C0928902   5.136   4.625   2.351
  360ACC    H0A28903   4.850   5.265   2.408
  360ACC    H0B28904   5.000   5.190   2.353
  360ACC    H0C28905   4.991   5.251   2.518
  360ACC    H0D28906   4.865   4.833   2.576
  360ACC    H0E28907   4.994   4.851   2.691
  360ACC    H0F28908   5.157   4.775   2.552
  360ACC    H0G28909   5.107   4.877   2.423
  360ACC    H0H28910   4.874   4.616   2.562
  360ACC    H0I28911   5.037   4.556   2.587
  360ACC    H0J28912   4.938   4.492   2.456
  360ACC    H0K28913   4.832   4.773   2.361
  360ACC    H0M28914   4.892   4.649   2.251
  360ACC    H0N28915   4.965   4.807   2.253
  360ACC    H0O28916   5.210   4.588   2.422
  360ACC    H0P28917   5.189   4.696   2.288
  360ACC    H0Q28918   5.108   4.541   2.286
  361ACC    C0028919   0.603   1.213   1.312
  361ACC    C0128920   0.461   1.183   1.270
  361ACC    O0228921   0.422   1.204   1.155
  361ACC    O0328922   0.386   1.139   1.371
  361ACC    C0428923   0.246   1.128   1.354
  361ACC    C0528924   0.205   0.981   1.346
  361ACC    N0628925   0.061   0.958   1.311
  361ACC    C0728926   7.158   1.028   1.401
  361ACC    C0828927   0.033   1.001   1.172
  361ACC    C0928928   0.029   0.814   1.323
  361ACC    H0A28929   0.669   1.204   1.226
  361ACC    H0B28930   0.635   1.144   1.390
  361ACC    H0C28931   0.610   1.315   1.350
  361ACC    H0D28932   0.211   1.181   1.266
  361ACC    H0E28933   0.203   1.176   1.441
  361ACC    H0F28934   0.226   0.940   1.444
  361ACC    H0G28935   0.268   0.928   1.275
  361ACC    H0H28936   7.189   1.128   1.429
  361ACC    H0I28937   7.132   0.973   1.492
  361ACC    H0J28938   7.063   1.042   1.350
  361ACC    H0K28939   0.035   1.109   1.161
  361ACC    H0M28940   7.121   0.970   1.143
  361ACC    H0N28941   0.102   0.956   1.101
  361ACC    H0O28942   0.046   0.777   1.424
  361ACC    H0P28943   0.087   0.752   1.255
  361ACC    H0Q28944   7.113   0.796   1.302
  362ACC    C0028945   2.660   6.494   1.204
  362ACC    C0128946   2.616   6.536   1.341
  362ACC    O0228947   2.540   6.467   1.410
  362ACC    O0328948   2.671   6.651   1.377
  362ACC    C0428949   2.672   6.684   1.514
  362ACC    C0528950   2.814   6.652   1.563
  362ACC    N0628951   2.826   6.621   1.708
  362ACC    C0728952   2.782   6.732   1.794
  362ACC    C0828953   2.751   6.499   1.744
  362ACC    C0928954   2.968   6.592   1.734
  362ACC    H0A28955   2.617   6.397   1.182
  362ACC    H0B28956   2.768   6.487   1.202
  362ACC    H0C28957   2.626   6.567   1.131
  362ACC    H0D28958   2.595   6.632   1.570
  362ACC    H0E28959   2.647   6.787   1.519
  362ACC    H0F28960   2.880   6.734   1.535
  362ACC    H0G28961   2.852   6.567   1.508
  362ACC    H0H28962   2.677   6.757   1.778
  362ACC    H0I28963   2.841   6.820   1.773
  362ACC    H0J28964   2.795   6.708   1.900
  362ACC    H0K28965   2.644   6.505   1.729
  362ACC    H0M28966   2.765   6.477   1.850
  362ACC    H0N28967   2.787   6.411   1.690
  362ACC    H0O28968   3.035   6.675   1.712
  362ACC    H0P28969   3.002   6.507   1.674
  362ACC    H0Q28970   2.982   6.565   1.838
  363ACC    C0028971   3.460   1.472   4.454
  363ACC    C0128972   3.593   1.406   4.475
  363ACC    O0228973   3.611   1.322   4.563
  363ACC    O0328974   3.682   1.450   4.386
  363ACC    C0428975   3.812   1.398   4.388
  363ACC    C0528976   3.808   1.259   4.329
  363ACC    N0628977   3.905   1.163   4.387
  363ACC    C0728978   4.043   1.218   4.384
  363ACC    C0828979   3.862   1.126   4.524
  363ACC    C0928980   3.901   1.040   4.304
  363ACC    H0A28981   3.380   1.409   4.489
  363ACC    H0B28982   3.449   1.493   4.348
  363ACC    H0C28983   3.459   1.566   4.508
  363ACC    H0D28984   3.846   1.400   4.490
  363ACC    H0E28985   3.878   1.462   4.330
  363ACC    H0F28986   3.821   1.270   4.221
  363ACC    H0G28987   3.708   1.218   4.341
  363ACC    H0H28988   4.053   1.306   4.447
  363ACC    H0I28989   4.069   1.248   4.282
  363ACC    H0J28990   4.115   1.145   4.418
  363ACC    H0K28991   3.869   1.209   4.594
  363ACC    H0M28992   3.919   1.043   4.565
  363ACC    H0N28993   3.756   1.097   4.525
  363ACC    H0O28994   3.914   1.062   4.198
  363ACC    H0P28995   3.803   0.992   4.312
  363ACC    H0Q28996   3.975   0.966   4.332
  364ACC    C0028997   2.091   4.173   3.782
  364ACC    C0128998   2.172   4.114   3.671
  364ACC    O0228999   2.219   3.999   3.678
  364ACC    O0329000   2.177   4.197   3.566
  364ACC    C0429001   2.235   4.155   3.446
  364ACC    C0529002   2.146   4.047   3.382
  364ACC    N0629003   2.219   3.937   3.312
  364ACC    C0729004   2.267   3.979   3.179
  364ACC    C0829005   2.334   3.883   3.389
  364ACC    C0929006   2.122   3.829   3.294
  364ACC    H0A29007   2.126   4.139   3.878
  364ACC    H0B29008   1.985   4.151   3.774
  364ACC    H0C29009   2.103   4.281   3.779
  364ACC    H0D29010   2.337   4.124   3.470
  364ACC    H0E29011   2.243   4.240   3.380
  364ACC    H0F29012   2.074   4.094   3.315
  364ACC    H0G29013   2.081   4.003   3.458
  364ACC    H0H29014   2.345   4.054   3.186
  364ACC    H0I29015   2.184   4.017   3.120
  364ACC    H0J29016   2.308   3.895   3.123
  364ACC    H0K29017   2.420   3.950   3.392
  364ACC    H0M29018   2.371   3.791   3.343
  364ACC    H0N29019   2.305   3.862   3.491
  364ACC    H0O29020   2.032   3.865   3.246
  364ACC    H0P29021   2.089   3.788   3.388
  364ACC    H0Q29022   2.160   3.748   3.232
  365ACC    C0029023   4.211   0.132   3.032
  365ACC    C0129024   4.267   0.245   3.114
  365ACC    O0229025   4.204   0.298   3.205
  365ACC    O0329026   4.390   0.277   3.074
  365ACC    C0429027   4.450   0.396   3.120
  365ACC    C0529028   4.504   0.381   3.264
  365ACC    N0629029   4.559   0.505   3.322
  365ACC    C0729030   4.670   0.555   3.237
  365ACC    C0829031   4.454   0.608   3.339
  365ACC    C0929032   4.614   0.476   3.457
  365ACC    H0A29033   4.125   0.089   3.082
  365ACC    H0B29034   4.287   0.056   3.017
  365ACC    H0C29035   4.182   0.169   2.934
  365ACC    H0D29036   4.376   0.475   3.111
  365ACC    H0E29037   4.529   0.420   3.050
  365ACC    H0F29038   4.581   0.304   3.264
  365ACC    H0G29039   4.423   0.347   3.329
  365ACC    H0H29040   4.636   0.588   3.139
  365ACC    H0I29041   4.748   0.481   3.223
  365ACC    H0J29042   4.715   0.640   3.283
  365ACC    H0K29043   4.415   0.643   3.243
  365ACC    H0M29044   4.493   0.696   3.389
  365ACC    H0N29045   4.369   0.571   3.397
  365ACC    H0O29046   4.696   0.404   3.454
  365ACC    H0P29047   4.538   0.436   3.524
  365ACC    H0Q29048   4.653   0.567   3.505
  366ACC    C0029049   6.023   1.584   3.459
  366ACC    C0129050   6.128   1.490   3.412
  366ACC    O0229051   6.217   1.527   3.336
  366ACC    O0329052   6.106   1.367   3.456
  366ACC    C0429053   6.182   1.262   3.400
  366ACC    C0529054   6.327   1.270   3.450
  366ACC    N0629055   6.418   1.174   3.384
  366ACC    C0729056   6.380   1.033   3.408
  366ACC    C0829057   6.429   1.201   3.239
  366ACC    C0929058   6.553   1.193   3.439
  366ACC    H0A29059   6.048   1.687   3.439
  366ACC    H0B29060   6.010   1.570   3.564
  366ACC    H0C29061   5.932   1.557   3.409
  366ACC    H0D29062   6.173   1.272   3.292
  366ACC    H0E29063   6.135   1.168   3.427
  366ACC    H0F29064   6.328   1.254   3.558
  366ACC    H0G29065   6.367   1.370   3.435
  366ACC    H0H29066   6.282   1.009   3.369
  366ACC    H0I29067   6.379   1.008   3.514
  366ACC    H0J29068   6.449   0.964   3.358
  366ACC    H0K29069   6.335   1.207   3.187
  366ACC    H0M29070   6.483   1.120   3.190
  366ACC    H0N29071   6.482   1.294   3.219
  366ACC    H0O29072   6.560   1.167   3.545
  366ACC    H0P29073   6.580   1.298   3.430
  366ACC    H0Q29074   6.629   1.136   3.385
  367ACC    C0029075   6.927   0.334   6.422
  367ACC    C0129076   6.790   0.291   6.376
  367ACC    O0229077   6.742   0.181   6.404
  367ACC    O0329078   6.732   0.386   6.302
  367ACC    C0429079   6.595   0.378   6.273
  367ACC    C0529080   6.518   0.451   6.386
  367ACC    N0629081   6.406   0.374   6.446
  367ACC    C0729082   6.302   0.342   6.346
  367ACC    C0829083   6.455   0.248   6.507
  367ACC    C0929084   6.349   0.458   6.554
  367ACC    H0A29085   6.969   0.259   6.488
  367ACC    H0B29086   6.917   0.427   6.478
  367ACC    H0C29087   6.993   0.348   6.337
  367ACC    H0D29088   6.565   0.274   6.258
  367ACC    H0E29089   6.577   0.429   6.179
  367ACC    H0F29090   6.481   0.546   6.348
  367ACC    H0G29091   6.589   0.480   6.464
  367ACC    H0H29092   6.335   0.269   6.272
  367ACC    H0I29093   6.273   0.431   6.290
  367ACC    H0J29094   6.211   0.305   6.393
  367ACC    H0K29095   6.482   0.173   6.433
  367ACC    H0M29096   6.381   0.205   6.574
  367ACC    H0N29097   6.545   0.269   6.564
  367ACC    H0O29098   6.314   0.554   6.516
  367ACC    H0P29099   6.424   0.481   6.630
  367ACC    H0Q29100   6.265   0.411   6.604
  368ACC    C0029101   0.810   3.098   5.848
  368ACC    C0129102   0.941   3.087   5.921
  368ACC    O0229103   1.026   3.176   5.916
  368ACC    O0329104   0.948   2.977   5.994
  368ACC    C0429105   1.064   2.952   6.069
  368ACC    C0529106   1.064   3.041   6.195
  368ACC    N0629107   1.198   3.087   6.238
  368ACC    C0729108   1.294   2.974   6.249
  368ACC    C0829109   1.252   3.192   6.147
  368ACC    C0929110   1.183   3.149   6.372
  368ACC    H0A29111   0.820   3.162   5.760
  368ACC    H0B29112   0.731   3.132   5.913
  368ACC    H0C29113   0.785   2.998   5.813
  368ACC    H0D29114   1.150   2.967   6.005
  368ACC    H0E29115   1.069   2.847   6.096
  368ACC    H0F29116   1.016   2.983   6.274
  368ACC    H0G29117   1.000   3.128   6.179
  368ACC    H0H29118   1.306   2.920   6.155
  368ACC    H0I29119   1.258   2.900   6.320
  368ACC    H0J29120   1.392   3.007   6.281
  368ACC    H0K29121   1.264   3.155   6.046
  368ACC    H0M29122   1.350   3.227   6.178
  368ACC    H0N29123   1.187   3.279   6.141
  368ACC    H0O29124   1.144   3.077   6.444
  368ACC    H0P29125   1.114   3.233   6.369
  368ACC    H0Q29126   1.278   3.186   6.410
  369ACC    C0029127   1.003   0.621   2.557
  369ACC    C0129128   1.132   0.585   2.489
  369ACC    O0229129   1.147   0.598   2.369
  369ACC    O0329130   1.222   0.547   2.578
  369ACC    C0429131   1.353   0.518   2.535
  369ACC    C0529132   1.432   0.649   2.522
  369ACC    N0629133   1.579   0.632   2.508
  369ACC    C0729134   1.639   0.531   2.598
  369ACC    C0829135   1.608   0.596   2.368
  369ACC    C0929136   1.653   0.756   2.545
  369ACC    H0A29137   0.924   0.639   2.485
  369ACC    H0B29138   1.024   0.713   2.610
  369ACC    H0C29139   0.971   0.545   2.627
  369ACC    H0D29140   1.351   0.463   2.441
  369ACC    H0E29141   1.391   0.451   2.611
  369ACC    H0F29142   1.404   0.717   2.601
  369ACC    H0G29143   1.393   0.701   2.434
  369ACC    H0H29144   1.595   0.433   2.585
  369ACC    H0I29145   1.632   0.552   2.702
  369ACC    H0J29146   1.747   0.524   2.580
  369ACC    H0K29147   1.562   0.501   2.340
  369ACC    H0M29148   1.716   0.584   2.351
  369ACC    H0N29149   1.571   0.669   2.297
  369ACC    H0O29150   1.669   0.766   2.650
  369ACC    H0P29151   1.604   0.848   2.518
  369ACC    H0Q29152   1.752   0.758   2.502
  370ACC    C0029153   6.185   1.961   4.306
  370ACC    C0129154   6.275   2.049   4.389
  370ACC    O0229155   6.269   2.048   4.511
  370ACC    O0329156   6.362   2.118   4.315
  370ACC    C0429157   6.485   2.160   4.371
  370ACC    C0529158   6.574   2.036   4.357
  370ACC    N0629159   6.722   2.054   4.372
  370ACC    C0729160   6.772   2.158   4.280
  370ACC    C0829161   6.773   2.088   4.508
  370ACC    C0929162   6.777   1.921   4.340
  370ACC    H0A29163   6.122   1.900   4.371
  370ACC    H0B29164   6.246   1.894   4.246
  370ACC    H0C29165   6.122   2.020   4.241
  370ACC    H0D29166   6.474   2.193   4.475
  370ACC    H0E29167   6.521   2.244   4.313
  370ACC    H0F29168   6.555   1.995   4.258
  370ACC    H0G29169   6.537   1.961   4.425
  370ACC    H0H29170   6.751   2.258   4.317
  370ACC    H0I29171   6.725   2.149   4.183
  370ACC    H0J29172   6.880   2.151   4.267
  370ACC    H0K29173   6.721   2.174   4.549
  370ACC    H0M29174   6.879   2.111   4.507
  370ACC    H0N29175   6.763   2.004   4.577
  370ACC    H0O29176   6.773   1.899   4.233
  370ACC    H0P29177   6.723   1.840   4.387
  370ACC    H0Q29178   6.879   1.910   4.374
  371ACC    C0029179   1.099   2.661   5.349
  371ACC    C0129180   1.220   2.729   5.407
  371ACC    O0229181   1.262   2.699   5.519
  371ACC    O0329182   1.274   2.818   5.324
  371ACC    C0429183   1.381   2.897   5.370
  371ACC    C0529184   1.511   2.815   5.372
  371ACC    N0629185   1.607   2.848   5.480
  371ACC    C0729186   1.647   2.991   5.473
  371ACC    C0829187   1.550   2.801   5.609
  371ACC    C0929188   1.736   2.777   5.469
  371ACC    H0A29189   1.055   2.597   5.424
  371ACC    H0B29190   1.128   2.601   5.263
  371ACC    H0C29191   1.028   2.737   5.319
  371ACC    H0D29192   1.353   2.935   5.467
  371ACC    H0E29193   1.391   2.982   5.304
  371ACC    H0F29194   1.556   2.818   5.273
  371ACC    H0G29195   1.477   2.714   5.390
  371ACC    H0H29196   1.567   3.059   5.453
  371ACC    H0I29197   1.716   3.005   5.391
  371ACC    H0J29198   1.698   3.025   5.563
  371ACC    H0K29199   1.446   2.825   5.623
  371ACC    H0M29200   1.604   2.840   5.695
  371ACC    H0N29201   1.552   2.692   5.619
  371ACC    H0O29202   1.788   2.797   5.377
  371ACC    H0P29203   1.722   2.671   5.479
  371ACC    H0Q29204   1.803   2.805   5.550
  372ACC    C0029205   6.678   6.602   0.477
  372ACC    C0129206   6.570   6.676   0.550
  372ACC    O0229207   6.451   6.653   0.527
  372ACC    O0329208   6.618   6.761   0.640
  372ACC    C0429209   6.533   6.820   0.735
  372ACC    C0529210   6.523   6.728   0.857
  372ACC    N0629211   6.386   6.689   0.899
  372ACC    C0729212   6.303   6.806   0.937
  372ACC    C0829213   6.317   6.614   0.793
  372ACC    C0929214   6.398   6.596   1.014
  372ACC    H0A29215   6.637   6.540   0.398
  372ACC    H0B29216   6.731   6.539   0.548
  372ACC    H0C29217   6.749   6.673   0.435
  372ACC    H0D29218   6.438   6.848   0.690
  372ACC    H0E29219   6.579   6.913   0.768
  372ACC    H0F29220   6.570   6.782   0.940
  372ACC    H0G29221   6.586   6.640   0.843
  372ACC    H0H29222   6.311   6.888   0.866
  372ACC    H0I29223   6.333   6.852   1.029
  372ACC    H0J29224   6.199   6.781   0.954
  372ACC    H0K29225   6.295   6.679   0.709
  372ACC    H0M29226   6.223   6.572   0.830
  372ACC    H0N29227   6.377   6.531   0.756
  372ACC    H0O29228   6.476   6.626   1.084
  372ACC    H0P29229   6.424   6.494   0.985
  372ACC    H0Q29230   6.306   6.593   1.072
  373ACC    C0029231   2.853   4.236   2.989
  373ACC    C0129232   2.705   4.222   3.004
  373ACC    O0229233   2.649   4.216   3.114
  373ACC    O0329234   2.645   4.225   2.884
  373ACC    C0429235   2.505   4.228   2.879
  373ACC    C0529236   2.461   4.369   2.923
  373ACC    N0629237   2.317   4.384   2.954
  373ACC    C0729238   2.237   4.375   2.829
  373ACC    C0829239   2.272   4.281   3.050
  373ACC    C0929240   2.297   4.516   3.017
  373ACC    H0A29241   2.903   4.219   3.084
  373ACC    H0B29242   2.880   4.333   2.949
  373ACC    H0C29243   2.883   4.157   2.920
  373ACC    H0D29244   2.468   4.147   2.943
  373ACC    H0E29245   2.472   4.206   2.777
  373ACC    H0F29246   2.490   4.438   2.843
  373ACC    H0G29247   2.518   4.399   3.010
  373ACC    H0H29248   2.246   4.276   2.782
  373ACC    H0I29249   2.268   4.447   2.754
  373ACC    H0J29250   2.131   4.389   2.848
  373ACC    H0K29251   2.268   4.185   3.001
  373ACC    H0M29252   2.170   4.300   3.085
  373ACC    H0N29253   2.338   4.274   3.136
  373ACC    H0O29254   2.330   4.596   2.952
  373ACC    H0P29255   2.352   4.524   3.111
  373ACC    H0Q29256   2.191   4.533   3.040
  374ACC    C0029257   1.137   2.645   1.422
  374ACC    C0129258   1.166   2.654   1.569
  374ACC    O0229259   1.153   2.759   1.631
  374ACC    O0329260   1.208   2.540   1.621
  374ACC    C0429261   1.267   2.540   1.750
  374ACC    C0529262   1.163   2.565   1.859
  374ACC    N0629263   1.211   2.643   1.976
  374ACC    C0729264   1.337   2.590   2.032
  374ACC    C0829265   1.228   2.785   1.936
  374ACC    C0929266   1.106   2.635   2.080
  374ACC    H0A29267   1.167   2.737   1.371
  374ACC    H0B29268   1.031   2.627   1.404
  374ACC    H0C29269   1.193   2.563   1.379
  374ACC    H0D29270   1.348   2.611   1.754
  374ACC    H0E29271   1.310   2.442   1.763
  374ACC    H0F29272   1.132   2.466   1.889
  374ACC    H0G29273   1.076   2.613   1.816
  374ACC    H0H29274   1.422   2.609   1.967
  374ACC    H0I29275   1.331   2.482   2.046
  374ACC    H0J29276   1.361   2.635   2.128
  374ACC    H0K29277   1.303   2.798   1.858
  374ACC    H0M29278   1.258   2.844   2.022
  374ACC    H0N29279   1.135   2.827   1.898
  374ACC    H0O29280   1.084   2.532   2.108
  374ACC    H0P29281   1.012   2.679   2.047
  374ACC    H0Q29282   1.134   2.688   2.171
  375ACC    C0029283   0.917   3.218   2.296
  375ACC    C0129284   1.065   3.225   2.269
  375ACC    O0229285   1.142   3.292   2.338
  375ACC    O0329286   1.100   3.149   2.164
  375ACC    C0429287   1.235   3.143   2.128
  375ACC    C0529288   1.308   3.049   2.226
  375ACC    N0629289   1.456   3.058   2.227
  375ACC    C0729290   1.509   3.050   2.089
  375ACC    C0829291   1.493   3.178   2.307
  375ACC    C0929292   1.513   2.943   2.300
  375ACC    H0A29293   0.890   3.291   2.372
  375ACC    H0B29294   0.892   3.118   2.331
  375ACC    H0C29295   0.862   3.238   2.204
  375ACC    H0D29296   1.274   3.244   2.131
  375ACC    H0E29297   1.242   3.109   2.025
  375ACC    H0F29298   1.276   2.948   2.201
  375ACC    H0G29299   1.270   3.065   2.327
  375ACC    H0H29300   1.477   3.133   2.027
  375ACC    H0I29301   1.476   2.959   2.039
  375ACC    H0J29302   1.618   3.048   2.089
  375ACC    H0K29303   1.443   3.268   2.271
  375ACC    H0M29304   1.600   3.197   2.308
  375ACC    H0N29305   1.461   3.170   2.411
  375ACC    H0O29306   1.492   2.848   2.253
  375ACC    H0P29307   1.467   2.940   2.398
  375ACC    H0Q29308   1.621   2.952   2.314
  376ACC    C0029309   3.657   6.081   0.202
  376ACC    C0129310   3.768   6.064   0.300
  376ACC    O0229311   3.820   6.161   0.353
  376ACC    O0329312   3.802   5.937   0.319
  376ACC    C0429313   3.893   5.913   0.424
  376ACC    C0529314   3.809   5.905   0.552
  376ACC    N0629315   3.879   5.942   0.677
  376ACC    C0729316   4.001   5.859   0.696
  376ACC    C0829317   3.915   6.086   0.677
  376ACC    C0929318   3.786   5.918   0.790
  376ACC    H0A29319   3.632   6.186   0.197
  376ACC    H0B29320   3.570   6.024   0.229
  376ACC    H0C29321   3.696   6.046   0.108
  376ACC    H0D29322   3.968   5.991   0.428
  376ACC    H0E29323   3.949   5.822   0.404
  376ACC    H0F29324   3.773   5.803   0.559
  376ACC    H0G29325   3.720   5.968   0.543
  376ACC    H0H29326   4.076   5.879   0.619
  376ACC    H0I29327   3.978   5.752   0.692
  376ACC    H0J29328   4.048   5.879   0.792
  376ACC    H0K29329   3.993   6.108   0.604
  376ACC    H0M29330   3.954   6.118   0.774
  376ACC    H0N29331   3.828   6.148   0.654
  376ACC    H0O29332   3.758   5.813   0.797
  376ACC    H0P29333   3.694   5.976   0.779
  376ACC    H0Q29334   3.829   5.947   0.886
  377ACC    C0029335   2.278   6.005   5.255
  377ACC    C0129336   2.287   6.151   5.221
  377ACC    O0229337   2.374   6.222   5.267
  377ACC    O0329338   2.193   6.189   5.139
  377ACC    C0429339   2.198   6.316   5.080
  377ACC    C0529340   2.210   6.293   4.931
  377ACC    N0629341   2.144   6.395   4.847
  377ACC    C0729342   1.997   6.383   4.854
  377ACC    C0829343   2.182   6.535   4.883
  377ACC    C0929344   2.179   6.362   4.707
  377ACC    H0A29345   2.347   5.982   5.336
  377ACC    H0B29346   2.307   5.947   5.167
  377ACC    H0C29347   2.177   5.980   5.286
  377ACC    H0D29348   2.279   6.380   5.117
  377ACC    H0E29349   2.107   6.368   5.102
  377ACC    H0F29350   2.173   6.194   4.905
  377ACC    H0G29351   2.316   6.287   4.912
  377ACC    H0H29352   1.958   6.413   4.950
  377ACC    H0I29353   1.963   6.281   4.832
  377ACC    H0J29354   1.952   6.448   4.780
  377ACC    H0K29355   2.100   6.605   4.868
  377ACC    H0M29356   2.262   6.574   4.822
  377ACC    H0N29357   2.214   6.549   4.986
  377ACC    H0O29358   2.129   6.273   4.671
  377ACC    H0P29359   2.284   6.338   4.693
  377ACC    H0Q29360   2.156   6.443   4.638
  378ACC    C0029361   6.015   5.997   3.275
  378ACC    C0129362   6.116   5.983   3.165
  378ACC    O0229363   6.089   6.010   3.049
  378ACC    O0329364   6.236   5.945   3.208
  378ACC    C0429365   6.345   5.950   3.120
  378ACC    C0529366   6.378   6.096   3.083
  378ACC    N0629367   6.495   6.112   2.993
  378ACC    C0729368   6.621   6.081   3.064
  378ACC    C0829369   6.485   6.025   2.873
  378ACC    C0929370   6.499   6.253   2.948
  378ACC    H0A29371   5.915   5.990   3.234
  378ACC    H0B29372   6.029   6.093   3.324
  378ACC    H0C29373   6.030   5.919   3.349
  378ACC    H0D29374   6.319   5.890   3.033
  378ACC    H0E29375   6.429   5.902   3.170
  378ACC    H0F29376   6.392   6.153   3.175
  378ACC    H0G29377   6.292   6.141   3.035
  378ACC    H0H29378   6.632   5.976   3.087
  378ACC    H0I29379   6.631   6.138   3.156
  378ACC    H0J29380   6.706   6.109   3.001
  378ACC    H0K29381   6.486   5.918   2.897
  378ACC    H0M29382   6.570   6.038   2.808
  378ACC    H0N29383   6.396   6.047   2.814
  378ACC    H0O29384   6.494   6.323   3.031
  378ACC    H0P29385   6.418   6.277   2.879
  378ACC    H0Q29386   6.591   6.276   2.895
  379ACC    C0029387   5.934   1.340   3.102
  379ACC    C0129388   6.057   1.388   3.031
  379ACC    O0229389   6.146   1.449   3.089
  379ACC    O0329390   6.058   1.356   2.904
  379ACC    C0429391   6.180   1.374   2.835
  379ACC    C0529392   6.275   1.261   2.871
  379ACC    N0629393   6.416   1.292   2.840
  379ACC    C0729394   6.438   1.330   2.699
  379ACC    C0829395   6.467   1.400   2.928
  379ACC    C0929396   6.489   1.167   2.866
  379ACC    H0A29397   5.931   1.378   3.204
  379ACC    H0B29398   5.942   1.232   3.106
  379ACC    H0C29399   5.844   1.368   3.047
  379ACC    H0D29400   6.221   1.473   2.857
  379ACC    H0E29401   6.164   1.369   2.728
  379ACC    H0F29402   6.241   1.171   2.819
  379ACC    H0G29403   6.265   1.235   2.976
  379ACC    H0H29404   6.382   1.419   2.672
  379ACC    H0I29405   6.407   1.250   2.632
  379ACC    H0J29406   6.543   1.351   2.679
  379ACC    H0K29407   6.440   1.499   2.892
  379ACC    H0M29408   6.575   1.396   2.936
  379ACC    H0N29409   6.428   1.391   3.029
  379ACC    H0O29410   6.451   1.086   2.804
  379ACC    H0P29411   6.479   1.134   2.969
  379ACC    H0Q29412   6.596   1.181   2.848
  380ACC    C0029413   3.913   4.023   4.397
  380ACC    C0129414   3.970   4.124   4.492
  380ACC    O0229415   3.958   4.116   4.614
  380ACC    O0329416   4.036   4.218   4.430
  380ACC    C0429417   4.133   4.290   4.502
  380ACC    C0529418   4.246   4.191   4.537
  380ACC    N0629419   4.382   4.251   4.540
  380ACC    C0729420   4.422   4.291   4.403
  380ACC    C0829421   4.388   4.358   4.642
  380ACC    C0929422   4.479   4.147   4.578
  380ACC    H0A29423   3.874   3.937   4.449
  380ACC    H0B29424   3.993   3.989   4.331
  380ACC    H0C29425   3.836   4.069   4.336
  380ACC    H0D29426   4.090   4.334   4.592
  380ACC    H0E29427   4.162   4.372   4.438
  380ACC    H0F29428   4.246   4.111   4.463
  380ACC    H0G29429   4.224   4.143   4.632
  380ACC    H0H29430   4.349   4.355   4.353
  380ACC    H0I29431   4.430   4.205   4.336
  380ACC    H0J29432   4.516   4.345   4.403
  380ACC    H0K29433   4.310   4.433   4.629
  380ACC    H0M29434   4.483   4.411   4.640
  380ACC    H0N29435   4.374   4.318   4.743
  380ACC    H0O29436   4.479   4.065   4.506
  380ACC    H0P29437   4.453   4.106   4.675
  380ACC    H0Q29438   4.580   4.186   4.585
  381ACC    C0029439   3.268   0.643   1.865
  381ACC    C0129440   3.397   0.639   1.941
  381ACC    O0229441   3.464   0.741   1.959
  381ACC    O0329442   3.427   0.517   1.985
  381ACC    C0429443   3.548   0.499   2.055
  381ACC    C0529444   3.535   0.548   2.199
  381ACC    N0629445   3.665   0.558   2.272
  381ACC    C0729446   3.750   0.438   2.252
  381ACC    C0829447   3.740   0.679   2.231
  381ACC    C0929448   3.635   0.575   2.417
  381ACC    H0A29449   3.219   0.738   1.885
  381ACC    H0B29450   3.203   0.561   1.897
  381ACC    H0C29451   3.286   0.635   1.758
  381ACC    H0D29452   3.628   0.550   2.002
  381ACC    H0E29453   3.569   0.393   2.055
  381ACC    H0F29454   3.469   0.477   2.250
  381ACC    H0G29455   3.485   0.644   2.203
  381ACC    H0H29456   3.799   0.439   2.154
  381ACC    H0I29457   3.696   0.345   2.256
  381ACC    H0J29458   3.831   0.433   2.325
  381ACC    H0K29459   3.785   0.667   2.133
  381ACC    H0M29460   3.824   0.698   2.298
  381ACC    H0N29461   3.680   0.769   2.228
  381ACC    H0O29462   3.552   0.511   2.448
  381ACC    H0P29463   3.605   0.677   2.441
  381ACC    H0Q29464   3.720   0.549   2.480
  382ACC    C0029465   3.268   2.791   4.127
  382ACC    C0129466   3.322   2.663   4.182
  382ACC    O0229467   3.346   2.565   4.111
  382ACC    O0329468   3.346   2.674   4.312
  382ACC    C0429469   3.410   2.567   4.378
  382ACC    C0529470   3.559   2.578   4.344
  382ACC    N0629471   3.636   2.456   4.376
  382ACC    C0729472   3.617   2.423   4.520
  382ACC    C0829473   3.595   2.344   4.288
  382ACC    C0929474   3.779   2.484   4.350
  382ACC    H0A29475   3.209   2.770   4.038
  382ACC    H0B29476   3.353   2.854   4.101
  382ACC    H0C29477   3.208   2.840   4.202
  382ACC    H0D29478   3.365   2.473   4.346
  382ACC    H0E29479   3.393   2.578   4.485
  382ACC    H0F29480   3.598   2.664   4.398
  382ACC    H0G29481   3.572   2.599   4.237
  382ACC    H0H29482   3.525   2.368   4.538
  382ACC    H0I29483   3.616   2.510   4.584
  382ACC    H0J29484   3.700   2.362   4.555
  382ACC    H0K29485   3.503   2.295   4.320
  382ACC    H0M29486   3.671   2.267   4.282
  382ACC    H0N29487   3.578   2.376   4.185
  382ACC    H0O29488   3.812   2.582   4.380
  382ACC    H0P29489   3.801   2.474   4.244
  382ACC    H0Q29490   3.843   2.412   4.400
  383ACC    C0029491   3.283   6.045   1.520
  383ACC    C0129492   3.152   5.996   1.575
  383ACC    O0229493   3.106   5.887   1.542
  383ACC    O0329494   3.101   6.081   1.662
  383ACC    C0429495   2.970   6.059   1.711
  383ACC    C0529496   2.977   6.001   1.852
  383ACC    N0629497   2.854   5.929   1.895
  383ACC    C0729498   2.730   6.001   1.857
  383ACC    C0829499   2.852   5.792   1.836
  383ACC    C0929500   2.858   5.917   2.042
  383ACC    H0A29501   3.301   6.006   1.420
  383ACC    H0B29502   3.362   6.014   1.587
  383ACC    H0C29503   3.280   6.154   1.512
  383ACC    H0D29504   2.915   5.994   1.643
  383ACC    H0E29505   2.919   6.155   1.711
  383ACC    H0F29506   2.996   6.086   1.918
  383ACC    H0G29507   3.064   5.936   1.861
  383ACC    H0H29508   2.711   6.001   1.750
  383ACC    H0I29509   2.735   6.105   1.887
  383ACC    H0J29510   2.642   5.959   1.906
  383ACC    H0K29511   2.850   5.795   1.727
  383ACC    H0M29512   2.764   5.736   1.869
  383ACC    H0N29513   2.939   5.734   1.865
  383ACC    H0O29514   2.858   6.016   2.089
  383ACC    H0P29515   2.947   5.865   2.076
  383ACC    H0Q29516   2.771   5.863   2.081
  384ACC    C0029517   2.571   0.803   1.031
  384ACC    C0129518   2.502   0.672   1.050
  384ACC    O0229519   2.549   0.582   1.117
  384ACC    O0329520   2.383   0.674   0.991
  384ACC    C0429521   2.288   0.581   1.034
  384ACC    C0529522   2.225   0.651   1.152
  384ACC    N0629523   2.160   0.560   1.246
  384ACC    C0729524   2.069   0.463   1.179
  384ACC    C0829525   2.261   0.486   1.327
  384ACC    C0929526   2.086   0.653   1.332
  384ACC    H0A29527   2.562   0.863   1.121
  384ACC    H0B29528   2.519   0.851   0.951
  384ACC    H0C29529   2.674   0.791   1.005
  384ACC    H0D29530   2.333   0.485   1.059
  384ACC    H0E29531   2.211   0.561   0.960
  384ACC    H0F29532   2.154   0.722   1.111
  384ACC    H0G29533   2.300   0.710   1.207
  384ACC    H0H29534   2.122   0.395   1.112
  384ACC    H0I29535   1.992   0.512   1.119
  384ACC    H0J29536   2.019   0.398   1.250
  384ACC    H0K29537   2.329   0.426   1.267
  384ACC    H0M29538   2.211   0.419   1.395
  384ACC    H0N29539   2.324   0.552   1.386
  384ACC    H0O29540   1.995   0.690   1.287
  384ACC    H0P29541   2.147   0.736   1.367
  384ACC    H0Q29542   2.060   0.601   1.421
  385ACC    C0029543   1.120   0.648   2.875
  385ACC    C0129544   1.253   0.708   2.841
  385ACC    O0229545   1.267   0.823   2.800
  385ACC    O0329546   1.348   0.623   2.867
  385ACC    C0429547   1.482   0.665   2.866
  385ACC    C0529548   1.510   0.763   2.977
  385ACC    N0629549   1.655   0.777   3.010
  385ACC    C0729550   1.747   0.663   2.988
  385ACC    C0829551   1.710   0.881   2.926
  385ACC    C0929552   1.662   0.818   3.150
  385ACC    H0A29553   1.042   0.719   2.853
  385ACC    H0B29554   1.119   0.624   2.981
  385ACC    H0C29555   1.104   0.556   2.818
  385ACC    H0D29556   1.508   0.713   2.774
  385ACC    H0E29557   1.538   0.574   2.879
  385ACC    H0F29558   1.450   0.738   3.062
  385ACC    H0G29559   1.465   0.858   2.950
  385ACC    H0H29560   1.756   0.634   2.883
  385ACC    H0I29561   1.717   0.576   3.043
  385ACC    H0J29562   1.848   0.688   3.022
  385ACC    H0K29563   1.724   0.845   2.825
  385ACC    H0M29564   1.808   0.917   2.957
  385ACC    H0N29565   1.641   0.964   2.920
  385ACC    H0O29566   1.673   0.733   3.212
  385ACC    H0P29567   1.572   0.867   3.185
  385ACC    H0Q29568   1.747   0.882   3.170
  386CL      CL29569   6.297   3.875   4.194
  387CL      CL29570   2.809   6.305   2.057
  388CL      CL29571   0.900   3.234   1.185
  389CL      CL29572   4.471   6.274   4.160
  390CL      CL29573   1.716   1.077   2.688
  391CL      CL29574   2.860   4.660   5.511
  392CL      CL29575   6.455   1.182   4.771
  393CL      CL29576   6.328   6.066   5.771
  394CL      CL29577   5.847   0.688   4.245
  395CL      CL29578   1.216   3.814   0.635
  396CL      CL29579   4.680   1.884   4.139
  397CL      CL29580   2.435   1.103   4.474
  398CL      CL29581   2.992   2.705   1.117
  399CL      CL29582   2.662   3.302   1.151
  400CL      CL29583   2.403   2.548   1.683
  401CL      CL29584   3.149   2.301   5.570
  402CL      CL29585   6.719   0.268   0.529
  403CL      CL29586   4.597   0.795   3.738
  404CL      CL29587   4.111   5.817   4.542
  405CL      CL29588   6.212   0.633   5.011
  406CL      CL29589   2.543   1.020   5.246
  407CL      CL29590   2.971   1.251   6.395
  408CL      CL29591   4.829   0.885   4.550
  409CL      CL29592   5.286   0.468   4.242
  410CL      CL29593   4.721   4.654   1.484
  411CL      CL29594   1.079   3.985   7.052
  412CL      CL29595   4.418   4.022   4.926
  413CL      CL29596   4.381   4.311   6.055
  414CL      CL29597   6.443   5.541   5.894
  415CL      CL29598   6.127   5.186   2.109
  416CL      CL29599   6.101   2.242   3.171
  417CL      CL29600   6.826   0.922   1.344
  418CL      CL29601   4.196   5.886   5.353
  419CL      CL29602   1.418   5.557   4.596
  420CL      CL29603   2.909   4.632   6.188
  421CL      CL29604   4.804   3.754   5.938
  422CL      CL29605   4.163   4.137   1.196
  423CL      CL29606   2.469   2.360   6.614
  424CL      CL29607   6.050   0.169   4.318
  425CL      CL29608   0.910   6.921   2.004
  426CL      CL29609   6.139   2.480   2.533
  427CL      CL29610   3.196   2.614   4.703
  428CL      CL29611   4.075   0.578   2.238
  429CL      CL29612   1.060   3.850   4.684
  430CL      CL29613   4.357   4.693   5.350
  431CL      CL29614   4.812   3.733   1.430
  432CL      CL29615   0.081   1.151   2.655
  433CL      CL29616   4.163   6.419   0.979
  434CL      CL29617   4.313   0.668   6.334
  435CL      CL29618   5.883   4.166   4.930
  436CL      CL29619   0.539   2.190   2.157
  437CL      CL29620   6.017   3.248   2.828
  438CL      CL29621   5.373   6.429   0.163
  439CL      CL29622   2.980   1.236   3.963
  440CL      CL29623   6.852   0.706   1.857
  441CL      CL29624   6.158   4.543   0.652
  442CL      CL29625   1.749   6.558   2.845
  443CL      CL29626   0.424   4.252   3.995
  444CL      CL29627   1.855   4.644   5.039
  445CL      CL29628   0.615   0.177   4.240
  446CL      CL29629   2.552   5.846   5.863
  447CL      CL29630   6.726   0.435   6.707
  448CL      CL29631   4.592   3.261   1.043
  449CL      CL29632   1.373   0.341   2.180
  450CL      CL29633   3.368   4.278   6.442
  451CL      CL29634   1.467   2.400   2.824
  452CL      CL29635   4.397   6.391   4.892
  453CL      CL29636   2.777   4.795   6.707
  454CL      CL29637   2.554   6.520   5.165
  455CL      CL29638   1.330   5.913   5.602
  456CL      CL29639   6.460   1.355   0.596
  457CL      CL29640   5.990   2.032   6.673
  458CL      CL29641   3.083   0.462   2.936
  459CL      CL29642   2.283   4.336   3.985
  460CL      CL29643   6.078   4.584   1.460
  461CL      CL29644   3.058   0.877   1.694
  462CL      CL29645   1.102   2.787   6.515
  463CL      CL29646   2.540   4.169   5.566
  464CL      CL29647   2.886   5.777   5.231
  465CL      CL29648   2.719   1.671   4.449
  466CL      CL29649   5.555   2.560   4.106
  467CL      CL29650   2.993   1.033   6.997
  468CL      CL29651   0.234   6.416   3.193
  469CL      CL29652   0.657   3.013   1.908
  470CL      CL29653   6.920   5.800   4.141
  471CL      CL29654   0.677   0.287   6.313
  472CL      CL29655   2.826   4.514   0.101
  473CL      CL29656   4.789   6.114   1.828
  474CL      CL29657   1.216   0.504   5.577
  475CL      CL29658   1.962   0.565   4.582
  476CL      CL29659   0.854   4.640   4.729
  477CL      CL29660   4.569   4.329   0.590
  478CL      CL29661   0.875   5.122   3.933
  479CL      CL29662   6.351   4.209   6.712
  480CL      CL29663   5.373   1.010   2.882
  481CL      CL29664   3.529   2.845   2.306
  482CL      CL29665   4.683   6.865   5.945
  483CL      CL29666   2.878   3.717   2.133
  484CL      CL29667   0.411   2.241   4.628
  485CL      CL29668   4.932   2.586   6.476
  486CL      CL29669   0.309   4.128   0.609
  487CL      CL29670   0.998   5.013   7.084
  488CL      CL29671   6.145   2.908   1.484
  489CL      CL29672   0.852   1.250   7.042
  490CL      CL29673   1.246   2.654   5.940
  491CL      CL29674   4.561   2.279   0.826
  492CL      CL29675   6.741   1.172   3.095
  493CL      CL29676   4.444   0.720   2.973
  494CL      CL29677   6.404   7.011   2.907
  495CL      CL29678   6.486   3.740   0.939
  496CL      CL29679   4.986   6.551   0.998
  497CL      CL29680   0.830   7.147   0.951
  498CL      CL29681   1.216   2.804   2.424
  499CL      CL29682   0.789   1.638   5.969
  500CL      CL29683   4.714   5.816   3.768
  501CL      CL29684   1.386   2.471   1.203
  502CL      CL29685   6.385   2.564   6.674
  503CL      CL29686   0.825   1.845   2.892
  504CL      CL29687   6.014   1.912   0.459
  505CL      CL29688   2.165   6.723   4.607
  506CL      CL29689   1.896   0.249   6.161
  507CL      CL29690   0.211   2.842   3.130
  508CL      CL29691   5.200   4.936   2.160
  509CL      CL29692   2.912   2.266   1.616
  510CL      CL29693   5.888   4.148   1.127
  511CL      CL29694   1.418   2.402   4.781
  512CL      CL29695   4.373   3.750   6.521
  513CL      CL29696   2.616   5.869   0.432
  514CL      CL29697   5.595   6.250   2.534
  515CL      CL29698   5.384   1.006   5.007
  516CL      CL29699   5.645   5.796   2.946
  517CL      CL29700   6.689   4.147   5.136
  518CL      CL29701   2.778   2.100   0.447
  519CL      CL29702   1.169   6.431   2.474
  520CL      CL29703   3.970   4.755   6.672
  521CL      CL29704   6.076   6.875   6.066
  522CL      CL29705   6.025   0.847   0.757
  523CL      CL29706   4.287   6.427   5.376
  524CL      CL29707   1.398   5.586   2.366
  525CL      CL29708   0.511   6.726   1.303
  526CL      CL29709   2.104   1.057   6.880
  527CL      CL29710   0.248   0.993   3.829
  528CL      CL29711   4.260   1.324   3.222
  529CL      CL29712   5.141   0.615   6.474
  530CL      CL29713   2.564   3.648   6.059
  531CL      CL29714   1.782   5.039   0.500
  532CL      CL29715   4.233   1.285   1.968
  533CL      CL29716   5.634   2.852   5.073
  534CL      CL29717   4.869   6.337   4.582
  535CL      CL29718   6.390   1.714   2.684
  536CL      CL29719   4.240   6.039   0.423
  537CL      CL29720   2.287   0.694   5.982
  538CL      CL29721   6.966   4.620   5.879
  539CL      CL29722   4.591   0.422   5.588
  540CL      CL29723   6.983   4.795   6.464
  541CL      CL29724   4.592   6.093   6.433
  542CL      CL29725   6.139   0.669   6.318
  543CL      CL29726   4.302   4.613   4.417
  544CL      CL29727   6.496   2.127   1.056
  545CL      CL29728   1.239   0.654   1.334
  546CL      CL29729   1.255   4.259   2.800
  547CL      CL29730   2.304   5.003   6.279
  548CL      CL29731   4.617   4.971   4.705
  549CL      CL29732   5.980   2.239   1.956
  550CL      CL29733   4.747   4.002   3.237
  551CL      CL29734   4.894   4.696   6.455
  552CL      CL29735   5.636   4.077   2.164
  553CL      CL29736   2.388   2.541   0.970
  554CL      CL29737   4.302   6.718   1.749
  555CL      CL29738   3.121   0.724   4.785
  556CL      CL29739   2.337   6.701   3.190
  557CL      CL29740   3.156   1.570   1.161
  558CL      CL29741   6.762   6.185   2.696
  559CL      CL29742   0.563   2.395   1.366
  560CL      CL29743   6.291   6.149   3.451
  561CL      CL29744   2.603   5.467   4.536
  562CL      CL29745   0.824   0.837   2.739
  563CL      CL29746   1.831   2.940   5.801
  564CL      CL29747   1.062   1.293   2.268
  565CL      CL29748   6.237   5.606   6.968
  566CL      CL29749   6.911   6.391   6.538
  567CL      CL29750   5.650   0.958   2.263
  568CL      CL29751   3.391   0.795   1.023
  569CL      CL29752   2.826   6.636   6.798
  570CL      CL29753   0.493   4.086   5.385
  571CL      CL29754   4.571   2.367   2.170
  572CL      CL29755   6.714   6.986   5.974
  573CL      CL29756   6.454   4.539   4.550
  574CL      CL29757   5.901   0.512   1.637
  575CL      CL29758   1.577   1.450   0.931
  576CL      CL29759   1.099   4.573   6.053
  577CL      CL29760   4.643   2.779   4.574
  578CL      CL29761   6.032   0.026   0.902
  579CL      CL29762   3.607   1.077   4.134
  580CL      CL29763   5.259   2.573   0.346
  581CL      CL29764   2.006   0.709   2.416
  582CL      CL29765   6.124   5.068   3.743
  583CL      CL29766   1.227   4.850   2.989
  584CL      CL29767   4.726   2.535   5.358
  585CL      CL29768   0.042   0.584   2.658
  586CL      CL29769   6.883   2.911   4.102
  587CL      CL29770   5.617   0.629   6.146
  588CL      CL29771   1.194   2.233   4.258
  589CL      CL29772   6.073   3.965   2.762
  590CL      CL29773   3.601   4.166   4.219
  591CL      CL29774   3.810   6.821   2.680
  592CL      CL29775   7.095   1.539   5.963
  593CL      CL29776   6.277   1.244   6.190
  594CL      CL29777   2.999   6.088   3.825
  595CL      CL29778   0.396   0.875   3.131
  596CL      CL29779   4.470   0.038   2.713
  597CL      CL29780   1.086   3.754   3.216
  598CL      CL29781   5.741   5.859   0.763
  599CL      CL29782   1.833   4.224   0.477
  600CL      CL29783   0.652   6.051   5.519
  601CL      CL29784   2.785   2.740   3.088
  602CL      CL29785   3.061   5.003   2.295
  603CL      CL29786   2.213   6.247   6.726
  604CL      CL29787   5.681   4.309   6.748
  605CL      CL29788   2.346   2.087   2.806
  606CL      CL29789   4.242   6.942   4.096
  607CL      CL29790   2.385   4.294   2.504
  608CL      CL29791   0.840   0.804   4.928
  609CL      CL29792   5.080   3.955   4.284
  610CL      CL29793   0.530   4.484   1.343
  611CL      CL29794   3.268   4.563   0.658
  612CL      CL29795   2.495   1.014   1.347
  613CL      CL29796   6.486   4.739   3.052
  614CL      CL29797   0.020   6.342   4.215
  615CL      CL29798   2.495   1.396   2.906
  616CL      CL29799   5.864   5.506   6.303
  617CL      CL29800   6.343   4.782   0.116
  618CL      CL29801   5.083   0.551   5.282
  619CL      CL29802   2.957   4.368   4.544
  620CL      CL29803   0.336   5.120   2.536
  621CL      CL29804   3.084   5.193   3.335
  622CL      CL29805   4.939   3.788   0.283
  623CL      CL29806   6.023   6.721   0.192
  624CL      CL29807   4.801   4.274   6.996
  625CL      CL29808   4.983   5.753   5.981
  626CL      CL29809   4.371   2.311   6.185
  627CL      CL29810   6.595   2.780   0.954
  628CL      CL29811   3.753   6.002   4.714
  629CL      CL29812   6.040   6.541   1.127
  630CL      CL29813   6.204   2.783   5.891
  631CL      CL29814   2.352   0.585   5.189
  632CL      CL29815   1.327   3.533   6.030
  633CL      CL29816   4.898   5.071   4.267
  634CL      CL29817   0.492   2.871   0.820
  635CL      CL29818   5.774   4.493   6.085
  636CL      CL29819   4.174   4.531   3.243
  637CL      CL29820   4.207   5.822   3.165
  638CL      CL29821   3.486   4.314   2.814
  639CL      CL29822   5.092   5.845   0.017
  640CL      CL29823   0.269   0.850   6.380
  641CL      CL29824   5.448   1.352   0.512
  642CL      CL29825   6.675   4.518   0.630
  643CL      CL29826   2.639   1.543   5.141
  644CL      CL29827   0.893   1.307   0.733
  645CL      CL29828   2.447   4.928   5.089
  646CL      CL29829   6.722   3.693   2.725
  647CL      CL29830   0.322   0.558   5.455
  648CL      CL29831   6.196   5.522   4.728
  649CL      CL29832   0.072   4.137   6.495
  650CL      CL29833   2.631   0.407   1.485
  651CL      CL29834   3.673   5.053   4.360
  652CL      CL29835   4.982   6.572   2.825
  653CL      CL29836   3.846   2.418   4.794
  654CL      CL29837   3.350   0.401   6.103
  655CL      CL29838   1.175   6.242   6.122
  656CL      CL29839   2.019   0.860   0.696
  657CL      CL29840   2.757   0.691   0.449
  658CL      CL29841   1.897   6.364   5.994
  659CL      CL29842   5.167   6.491   5.842
  660CL      CL29843   6.056   1.027   5.569
  661CL      CL29844   6.281   2.462   4.651
  662CL      CL29845   0.278   2.707   5.836
  663CL      CL29846   0.595   1.433   4.942
  664CL      CL29847   5.710   4.850   4.208
  665CL      CL29848   5.579   1.240   4.193
  666CL      CL29849   4.656   6.509   3.731
  667CL      CL29850   2.441   6.046   4.859
  668CL      CL29851   2.196   0.611   3.626
  669CL      CL29852   1.251   7.107   6.093
  670CL      CL29853   6.157   1.160   2.543
  671CL      CL29854   2.345   1.429   0.175
  672CL      CL29855   0.674   4.860   0.775
  673CL      CL29856   2.784   0.435   6.744
  674CL      CL29857   1.531   0.992   4.556
  675CL      CL29858   0.374   3.462   0.583
  676CL      CL29859   1.648   2.448   3.456
  677CL      CL29860   1.372   4.250   2.168
  678CL      CL29861   1.245   6.082   0.332
  679CL      CL29862   5.723   5.552   4.486
  680CL      CL29863   3.197   0.746   5.461
  681CL      CL29864   6.084   5.047   0.837
  682CL      CL29865   4.648   4.719   2.950
  683CL      CL29866   3.527   6.075   1.035
  684CL      CL29867   3.829   5.653   6.145
  685CL      CL29868   0.116   6.059   2.009
  686CL      CL29869   2.413   4.968   0.968
  687CL      CL29870   6.517   6.860   1.208
  688CL      CL29871   4.135   3.142   4.754
  689CL      CL29872   2.873   6.304   1.444
  690CL      CL29873   0.928   6.469   3.122
  691CL      CL29874   0.687   0.303   3.342
  692CL      CL29875   2.959   3.934   3.113
  693CL      CL29876   1.066   0.957   6.194
  694CL      CL29877   0.817   5.722   6.127
  695CL      CL29878   0.912   6.364   3.840
  696CL      CL29879   5.263   5.798   2.441
  697CL      CL29880   2.224   1.484   0.769
  698CL      CL29881   3.120   3.559   6.002
  699CL      CL29882   1.558   4.224   4.418
  700CL      CL29883   4.488   1.471   6.033
  701CL      CL29884   4.008   2.255   4.233
  702CL      CL29885   4.329   6.038   2.704
  703CL      CL29886   0.672   6.481   1.986
  704CL      CL29887   6.177   4.579   3.757
  705CL      CL29888   1.760   0.784   6.644
  706CL      CL29889   0.452   0.737   2.226
  707CL      CL29890   4.549   5.290   0.875
  708CL      CL29891   3.912   6.418   5.967
  709CL      CL29892   6.528   3.635   0.244
  710CL      CL29893   0.902   0.638   0.718
  711CL      CL29894   1.003   2.413   3.499
  712CL      CL29895   0.920   2.991   5.541
  713CL      CL29896   4.276   3.937   4.247
  714CL      CL29897   6.353   2.101   5.374
  715CL      CL29898   1.885   1.140   4.225
  716CL      CL29899   6.142   1.470   1.172
  717CL      CL29900   0.724   1.822   6.446
  718CL      CL29901   4.640   2.192   5.002
  719CL      CL29902   1.477   6.509   4.560
  720CL      CL29903   1.289   0.040   0.633
  721CL      CL29904   1.052   3.153   4.589
  722CL      CL29905   4.437   3.975   2.734
  723CL      CL29906   2.665   2.809   4.659
  724CL      CL29907   6.140   1.023   3.136
  725CL      CL29908   0.839   5.944   2.615
  726CL      CL29909   2.735   2.785   3.817
  727CL      CL29910   5.369   4.507   2.648
  728CL      CL29911   4.310   0.793   1.009
  729CL      CL29912   6.928   5.798   0.147
  730CL      CL29913   3.584   6.435   0.416
  731CL      CL29914   6.530   5.668   6.494
  732CL      CL29915   2.979   6.798   4.320
  733CL      CL29916   1.203   0.743   3.980
  734CL      CL29917   2.245   2.801   0.282
  735CL      CL29918   3.529   1.392   0.574
  736CL      CL29919   1.230   4.206   3.820
  737CL      CL29920   1.924   4.812   4.593
  738CL      CL29921   4.615   2.264   7.095
  739CL      CL29922   2.414   4.081   0.834
  740CL      CL29923   3.911   2.578   5.711
  741CL      CL29924   0.492   4.819   3.206
  742CL      CL29925   2.875   4.064   6.640
  743CL      CL29926   0.752   1.285   2.602
  744CL      CL29927   1.328   6.147   3.667
  745CL      CL29928   2.323   2.238   5.482
  746CL      CL29929   1.936   2.721   2.508
  747CL      CL29930   6.592   6.610   4.494
  748CL      CL29931   2.048   0.320   0.835
  749CL      CL29932   1.084   2.250   2.041
  750CL      CL29933   2.256   6.251   4.404
  751CL      CL29934   4.026   2.256   3.069
  752CL      CL29935   0.752   4.123   1.022
  753CL      CL29936   6.545   1.726   4.163
  754CL      CL29937   6.314   5.549   0.899
  755CL      CL29938   2.003   4.125   2.921
  756CL      CL29939   2.119   1.474   6.035
  757CL      CL29940   6.171   0.609   3.697
  758CL      CL29941   0.751   4.322   3.319
  759CL      CL29942   2.601   1.621   1.002
  760CL      CL29943   0.252   5.968   2.931
  761CL      CL29944   6.363   4.692   5.975
  762CL      CL29945   4.151   4.138   2.256
  763CL      CL29946   5.458   6.191   6.357
  764CL      CL29947   2.834   3.641   6.498
  765CL      CL29948   0.045   5.086   5.934
  766CL      CL29949   6.775   0.791   5.685
  767CL      CL29950   4.489   0.530   4.320
  768CL      CL29951   6.038   3.413   4.906
  769CL      CL29952   1.583   2.546   0.264
   7.19000   7.19000   7.19000
