excel generated
   12
    1BCK  LDD11    1  -0.304   0.298   0.081
    1LDD1 LDD12    2  -0.083   0.202   0.210
    1LDD1 LDD13    3   0.137   0.146   0.297
    1LDD1 LDD14    4   0.443   0.092   0.371
    1LDD1 LDD15    5   0.691  -0.101   0.455
    1LDD1 LDD16    6   0.918  -0.140   0.509
    1BCK  LDD21    7   1.566  -0.430   0.945
    1LDD2 LDD22    8   1.305  -0.364   0.895
    1LDD2 LDD23    9   1.072  -0.296   0.894
    1LDD2 LDD24   10   0.768  -0.204   0.925
    1LDD2 LDD25   11   0.461  -0.198   0.812
    1LDD2 LDD26   12   0.266  -0.079   0.739
  20.00000  20.00000  20.00000