excel generated
   11
    1BCK  LDS11    1  -0.357  -0.034  -0.014
    1LDS1 LDS12    2  -0.093  -0.022   0.058
    1LDS1 LDS13    3   0.150  -0.003   0.069
    1LDS1 LDS14    4   0.468   0.028   0.042
    1LDS1 LDS15    5   0.781  -0.034   0.107
    1LDS1 LDS16    6   1.006  -0.008   0.033
    1BCK  LDS21    7   1.573  -0.093  -0.299
    1LDS2 LDS22    8   1.354   0.166  -0.225
    1LDS2 LDS23    9   1.016   0.252  -0.297
    1LDS2 LDS24   10   0.694   0.225  -0.347
    1LDS2 LDS25   11   0.471   0.301  -0.320
  20.00000  20.00000  20.00000