excel generated
   10
    1BCK  LSS11    1   0.163   0.087   0.087
    1LSS1 LSS12    2   0.452  -0.118   0.067
    1LSS1 LSS13    3   0.803  -0.087   0.061
    1LSS1 LSS14    4   1.113  -0.003   0.006
    1LSS1 LSS15    5   1.332  -0.091  -0.012
    1BCK  LSS21    6   1.969  -0.454  -0.354
    1LSS2 LSS22    7   1.739  -0.198  -0.404
    1LSS2 LSS23    8   1.386  -0.154  -0.437
    1LSS2 LSS24    9   1.069  -0.178  -0.371
    1LSS2 LSS25   10   0.848  -0.090  -0.369
  20.00000  20.00000  20.00000