[moleculetype]
; molname       nrexcl
  SBMA          2

[atoms]
; id      type   resnr residue atom    cgnr    charge  mass 
 1 TC1 1 BCK  D1 1 0 27
 2 SP3d 1 DN  D2 2 0 54
 3 TC2 1 DN  D3 3 0 28
 4 SQ2 1 DN  D4 4 1 72
 5 TC2 1 DN  D5 5 0 28
 6 SQ4n 1 DN  D6 6 -1 80

[bonds]
; i j  funct    length   force.c.
  1 2   1      0.262     39520.07 ; rmsd:     1.44
  2 3   1      0.246     21743.13 ; rmsd:     2.35
  3 4   1      0.339     23902.29 ; rmsd:     3.41
  4 5   1      0.341     24765.85 ; rmsd:     2.57
  5 6   1      0.258     37967.14 ; rmsd:     1.88

[angles]
; i     j       k       funct   angle   force_constant
  1     2       3          1     157.84    100.19 ; rmsd:     1.80 ;*
  1     2       4          1     128.78     58.50 ; rmsd:     0.73 ;*
  1     3       4          2     107.37     60.60 ; Harmonic-Cos (Gromos96) potential rmsd:     1.06 ;*
  2     3       4          2     112.79     68.56 ; Harmonic-Cos (Gromos96) potential rmsd:     1.36 ;*
  2     3       5          2     89.41     37.42 ; Harmonic-Cos (Gromos96) potential rmsd:     3.44 ;*
  3     4       5          2     99.72     56.27 ; Harmonic-Cos (Gromos96) potential rmsd:     4.60
  4     5       6          2     105.13     97.77 ; Harmonic-Cos (Gromos96) potential rmsd:     3.87
