excel generated
    6
    1BCK     D1    1  -0.314  -0.061  -0.048
    1DN      D2    2  -0.062   0.003   0.042
    1DN      D3    3   0.166   0.053   0.057
    1DN      D4    4   0.479   0.073  -0.014
    1DN      D5    5   0.797   0.022   0.035
    1DN      D6    6   1.022   0.056  -0.028
  20.00000  20.00000  20.00000
