My System
19584
    1STR   BCK1    1   0.861  17.313   0.042
    1STR    O03    2   0.834  17.341  17.365
    1STR    N04    3   0.983  17.273   0.084
    1STR    C05    4   1.085  17.213   0.008
    1STR    C06    5   1.224  17.246   0.026
    1STR    C07    6   1.329  17.175  17.399
    1STR    N08    7   1.466  17.204  17.421
    1STR    C09    8   1.574  17.125  17.400
    1STR    O0A    9   1.567  17.009  17.361
    1STR    O0B   10   1.694  17.187  17.426
    1STR    C0C   11   1.819  17.120  17.394
    1STR    C0D   12   1.851  17.142  17.244
    1STR    C0E   13   1.938  17.166   0.043
    1STR    O0F   14   2.060  17.095   0.010
    1STR    C0G   15   2.175  17.123   0.092
    1STR    C0H   16   2.161  17.049   0.226
    1STR    C0I   17   2.307  17.079   0.020
    1STR    O0J   18   2.424  17.120   0.093
    1STR    C0K   19   2.553  17.084   0.038
    1STR    C0M   20   2.579  17.163  17.349
    1STR    C0N   21   2.667  17.111   0.140
    1STR    O0O   22   2.792  17.057   0.095
    1STR    C0P   23   2.910  17.124   0.110
    1STR    O0Q   24   2.922  17.238   0.156
    1STR    N0R   25   3.011  17.048   0.066
    1STR    C0S   26   3.148  17.070   0.046
    1STR    C0T   27   3.215  16.973  17.409
    1STR    C0U   28   3.349  16.990  17.371
    1STR    C0V   29   3.422  17.104  17.412
    1STR    C0W   30   3.558  17.126  17.347
    1STR    C0X   31   3.362  17.198   0.060
    1STR    N0Y   32   3.428  17.315   0.102
    1STR   BCK2   33   3.551  17.347   0.146
    1STR    O10   34   3.577   0.026   0.164
    1STR    C13   35   3.224  17.181   0.093
    1STR    C14   36   1.290  17.074  17.309
    1STR    C15   37   1.156  17.038  17.292
    1STR    C16   38   1.054  17.103  17.362
    1STR    C17   39   0.913  17.048  17.349
    1STR    H1B   40   0.996  17.275   0.183
    1STR    H1C   41   1.249  17.326   0.093
    1STR    H1D   42   1.490  17.294   0.019
    1STR    H1E   43   1.807  17.013  17.411
    1STR    H1F   44   1.865  17.247  17.221
    1STR    H1G   45   1.942  17.088  17.216
    1STR    H1H   46   1.770  17.104  17.181
    1STR    H1I   47   1.911  17.149   0.147
    1STR    H1J   48   1.954  17.273   0.031
    1STR    H1K   49   2.182  17.230   0.109
    1STR    H1M   50   2.147  16.942   0.211
    1STR    H1N   51   2.076  17.085   0.284
    1STR    H1O   52   2.250  17.062   0.287
    1STR    H1P   53   2.307  16.971   0.007
    1STR    H1Q   54   2.307  17.123  17.361
    1STR    H1R   55   2.552  16.977   0.016
    1STR    H1S   56   2.679  17.142  17.311
    1STR    H1T   57   2.573  17.270  17.367
    1STR    H1U   58   2.510  17.138  17.269
    1STR    H1V   59   2.643  17.065   0.236
    1STR    H1W   60   2.675  17.218   0.160
    1STR    H1X   61   2.975  16.959   0.037
    1STR    H1Y   62   3.163  16.886  17.373
    1STR    H1Z   63   3.396  16.918  17.307
    1STR    H20   64   3.583  17.232  17.341
    1STR    H21   65   3.636  17.073  17.402
    1STR    H22   66   3.558  17.088  17.245
    1STR    H23   67   3.370  17.397   0.102
    1STR    H27   68   3.175  17.255   0.155
    1STR    H28   69   1.363  17.018  17.251
    1STR    H29   70   1.131  16.957  17.225
    1STR    H2A   71   0.861  17.049   0.005
    1STR    H2B   72   0.914  16.945  17.314
    1STR    H2C   73   0.855  17.107  17.278
    1STR   BCK1   74   0.879   0.009   4.377
    1STR    O03   75   0.830   0.105   4.433
    1STR    N04   76   0.999   0.008   4.315
    1STR    C05   77   1.088   0.113   4.282
    1STR    C06   78   1.231   0.094   4.287
    1STR    C07   79   1.325   0.193   4.245
    1STR    N08   80   1.466   0.169   4.246
    1STR    C09   81   1.570   0.247   4.205
    1STR    O0A   82   1.558   0.361   4.162
    1STR    O0B   83   1.693   0.186   4.217
    1STR    C0C   84   1.815   0.260   4.187
    1STR    C0D   85   1.849   0.351   4.307
    1STR    C0E   86   1.937   0.169   4.150
    1STR    O0F   87   2.059   0.245   4.127
    1STR    C0G   88   2.176   0.170   4.086
    1STR    C0H   89   2.163   0.136   3.937
    1STR    C0I   90   2.308   0.250   4.112
    1STR    O0J   91   2.428   0.169   4.095
    1STR    C0K   92   2.556   0.232   4.118
    1STR    C0M   93   2.572   0.270   4.266
    1STR    C0N   94   2.675   0.138   4.077
    1STR    O0O   95   2.803   0.204   4.087
    1STR    C0P   96   2.913   0.146   4.145
    1STR    O0Q   97   2.914   0.041   4.208
    1STR    N0R   98   3.020   0.223   4.122
    1STR    C0S   99   3.156   0.223   4.158
    1STR    C0T  100   3.231   0.324   4.096
    1STR    C0U  101   3.366   0.346   4.129
    1STR    C0V  102   3.430   0.266   4.225
    1STR    C0W  103   3.570   0.310   4.267
    1STR    C0X  104   3.363   0.155   4.282
    1STR    N0Y  105   3.431   0.074   4.377
    1STR   BCK2  106   3.555   0.022   4.367
    1STR    O10  107   3.618   0.017   4.262
    1STR    C13  108   3.224   0.136   4.250
    1STR    C14  109   1.271   0.316   4.201
    1STR    C15  110   1.133   0.337   4.193
    1STR    C16  111   1.041   0.236   4.229
    1STR    C17  112   0.895   0.265   4.200
    1STR    H1B  113   1.029  17.355   4.289
    1STR    H1C  114   1.268  17.439   4.324
    1STR    H1D  115   1.497   0.080   4.280
    1STR    H1E  116   1.796   0.324   4.101
    1STR    H1F  117   1.870   0.292   4.397
    1STR    H1G  118   1.938   0.411   4.286
    1STR    H1H  119   1.768   0.419   4.329
    1STR    H1I  120   1.911   0.112   4.061
    1STR    H1J  121   1.954   0.097   4.230
    1STR    H1K  122   2.182   0.078   4.145
    1STR    H1M  123   2.150   0.226   3.876
    1STR    H1N  124   2.079   0.070   3.916
    1STR    H1O  125   2.253   0.085   3.901
    1STR    H1P  126   2.312   0.337   4.047
    1STR    H1Q  127   2.304   0.288   4.214
    1STR    H1R  128   2.562   0.322   4.056
    1STR    H1S  129   2.671   0.311   4.285
    1STR    H1T  130   2.560   0.182   4.329
    1STR    H1U  131   2.500   0.345   4.298
    1STR    H1V  132   2.662   0.107   3.974
    1STR    H1W  133   2.673   0.047   4.137
    1STR    H1X  134   2.991   0.300   4.065
    1STR    H1Y  135   3.187   0.390   4.023
    1STR    H1Z  136   3.419   0.428   4.083
    1STR    H20  137   3.588   0.289   4.372
    1STR    H21  138   3.646   0.258   4.208
    1STR    H22  139   3.584   0.417   4.253
    1STR    H23  140   3.383   0.055   4.464
    1STR    H27  141   3.168   0.056   4.296
    1STR    H28  142   1.333   0.399   4.170
    1STR    H29  143   1.097   0.431   4.155
    1STR    H2A  144   0.841   0.175   4.171
    1STR    H2B  145   0.884   0.336   4.119
    1STR    H2C  146   0.847   0.309   4.288
    1STR   BCK1  147   0.865  17.367   8.788
    1STR    O03  148   0.822  17.435   8.696
    1STR    N04  149   0.992  17.391   8.828
    1STR    C05  150   1.086  17.354   8.928
    1STR    C06  151   1.225  17.370   8.898
    1STR    C07  152   1.329  17.346   8.993
    1STR    N08  153   1.466  17.371   8.962
    1STR    C09  154   1.578  17.339   9.031
    1STR    O0A  155   1.578  17.273   9.134
    1STR    O0B  156   1.694  17.388   8.974
    1STR    C0C  157   1.822  17.356   9.034
    1STR    C0D  158   1.861  17.212   8.996
    1STR    C0E  159   1.936   0.015   8.997
    1STR    O0F  160   2.060  17.419   9.062
    1STR    C0G  161   2.173   0.065   9.041
    1STR    C0H  162   2.158   0.191   9.127
    1STR    C0I  163   2.305  17.430   9.077
    1STR    O0J  164   2.422   0.066   9.039
    1STR    C0K  165   2.550   0.010   9.072
    1STR    C0M  166   2.578  17.325   8.987
    1STR    C0N  167   2.664   0.114   9.051
    1STR    O0O  168   2.786   0.070   9.113
    1STR    C0P  169   2.904   0.062   9.046
    1STR    O0Q  170   2.923   0.088   8.928
    1STR    N0R  171   2.995   0.015   9.131
    1STR    C0S  172   3.128  17.411   9.119
    1STR    C0T  173   3.170  17.328   9.224
    1STR    C0U  174   3.296  17.269   9.222
    1STR    C0V  175   3.387  17.294   9.117
    1STR    C0W  176   3.513  17.211   9.124
    1STR    C0X  177   3.354  17.388   9.015
    1STR    N0Y  178   3.442   0.001   8.916
    1STR   BCK2  179   3.570  17.439   8.873
    1STR    O10  180   3.605   0.089   8.797
    1STR    C13  181   3.221   0.001   9.016
    1STR    C14  182   1.289  17.303   9.121
    1STR    C15  183   1.154  17.287   9.153
    1STR    C16  184   1.052  17.315   9.060
    1STR    C17  185   0.910  17.312   9.114
    1STR    H1B  186   1.030   0.017   8.762
    1STR    H1C  187   1.253  17.403   8.799
    1STR    H1D  188   1.487  17.420   8.877
    1STR    H1E  189   1.811  17.360   9.143
    1STR    H1F  190   1.874  17.201   8.888
    1STR    H1G  191   1.955  17.183   9.044
    1STR    H1H  192   1.785  17.140   9.028
    1STR    H1I  193   1.906   0.116   9.026
    1STR    H1J  194   1.951   0.016   8.889
    1STR    H1K  195   2.179   0.091   8.935
    1STR    H1M  196   2.146   0.166   9.232
    1STR    H1N  197   2.073   0.252   9.096
    1STR    H1O  198   2.247   0.254   9.118
    1STR    H1P  199   2.307  17.408   9.183
    1STR    H1Q  200   2.305  17.334   9.025
    1STR    H1R  201   2.550  17.422   9.178
    1STR    H1S  202   2.679  17.287   9.006
    1STR    H1T  203   2.573  17.349   8.881
    1STR    H1U  204   2.509  17.243   9.007
    1STR    H1V  205   2.636   0.208   9.098
    1STR    H1W  206   2.678   0.136   8.945
    1STR    H1X  207   2.953   0.005   9.221
    1STR    H1Y  208   3.104  17.304   9.307
    1STR    H1Z  209   3.323  17.202   9.302
    1STR    H20  210   3.529  17.162   9.028
    1STR    H21  211   3.598  17.272   9.153
    1STR    H22  212   3.505  17.130   9.197
    1STR    H23  213   3.397   0.071   8.860
    1STR    H27  214   3.189   0.069   8.938
    1STR    H28  215   1.360  17.283   9.200
    1STR    H29  216   1.128  17.256   9.253
    1STR    H2A  217   0.850  17.392   9.071
    1STR    H2B  218   0.909  17.327   9.222
    1STR    H2C  219   0.865  17.215   9.095
    1STR   BCK1  220   0.870  17.332  13.063
    1STR    O03  221   0.826  17.431  13.006
    1STR    N04  222   0.995  17.283  13.047
    1STR    C05  223   1.089  17.304  12.944
    1STR    C06  224   1.230  17.310  12.971
    1STR    C07  225   1.329  17.315  12.868
    1STR    N08  226   1.468  17.315  12.897
    1STR    C09  227   1.573  17.286  12.816
    1STR    O0A  228   1.562  17.250  12.699
    1STR    O0B  229   1.695  17.300  12.877
    1STR    C0C  230   1.818  17.283  12.801
    1STR    C0D  231   1.849  17.413  12.726
    1STR    C0E  232   1.939  17.240  12.890
    1STR    O0F  233   2.061  17.224  12.814
    1STR    C0G  234   2.177  17.176  12.886
    1STR    C0H  235   2.163  17.024  12.907
    1STR    C0I  236   2.310  17.207  12.810
    1STR    O0J  237   2.427  17.178  12.890
    1STR    C0K  238   2.557  17.200  12.831
    1STR    C0M  239   2.580  17.350  12.808
    1STR    C0N  240   2.671  17.143  12.922
    1STR    O0O  241   2.800  17.150  12.859
    1STR    C0P  242   2.914  17.182  12.927
    1STR    O0Q  243   2.920  17.215  13.045
    1STR    N0R  244   3.019  17.174  12.844
    1STR    C0S  245   3.156  17.207  12.852
    1STR    C0T  246   3.220  17.214  12.727
    1STR    C0U  247   3.353  17.258  12.716
    1STR    C0V  248   3.426  17.293  12.831
    1STR    C0W  249   3.561  17.360  12.806
    1STR    C0X  250   3.371  17.273  12.961
    1STR    N0Y  251   3.447  17.297  13.078
    1STR   BCK2  252   3.577  17.268  13.104
    1STR    O10  253   3.651  17.205  13.029
    1STR    C13  254   3.233  17.235  12.969
    1STR    C14  255   1.281  17.321  12.735
    1STR    C15  256   1.144  17.313  12.705
    1STR    C16  257   1.048  17.301  12.807
    1STR    C17  258   0.904  17.278  12.764
    1STR    H1B  259   1.020  17.215  13.117
    1STR    H1C  260   1.262  17.308  13.074
    1STR    H1D  261   1.497  17.339  12.990
    1STR    H1E  262   1.803  17.203  12.728
    1STR    H1F  263   1.866   0.056  12.794
    1STR    H1G  264   1.938  17.402  12.664
    1STR    H1H  265   1.767   0.000  12.659
    1STR    H1I  266   1.913  17.147  12.940
    1STR    H1J  267   1.955  17.314  12.968
    1STR    H1K  268   2.183  17.227  12.982
    1STR    H1M  269   2.150  16.972  12.813
    1STR    H1N  270   2.079  16.999  12.971
    1STR    H1O  271   2.252  16.984  12.955
    1STR    H1P  272   2.313  17.151  12.716
    1STR    H1Q  273   2.309  17.313  12.783
    1STR    H1R  274   2.561  17.147  12.735
    1STR    H1S  275   2.681  17.369  12.771
    1STR    H1T  276   2.569  17.405  12.902
    1STR    H1U  277   2.511  17.393  12.736
    1STR    H1V  278   2.651  17.039  12.945
    1STR    H1W  279   2.672  17.195  13.018
    1STR    H1X  280   2.986  17.141  12.755
    1STR    H1Y  281   3.168  17.190  12.635
    1STR    H1Z  282   3.397  17.268  12.619
    1STR    H20  283   3.587  17.428  12.887
    1STR    H21  284   3.639  17.286  12.794
    1STR    H22  285   3.558  17.420  12.715
    1STR    H23  286   3.398  17.337  13.156
    1STR    H27  287   3.185  17.225  13.065
    1STR    H28  288   1.349  17.329  12.651
    1STR    H29  289   1.114  17.313  12.602
    1STR    H2A  290   0.854  17.209  12.831
    1STR    H2B  291   0.900  17.235  12.664
    1STR    H2C  292   0.850  17.373  12.763
    1STR   BCK1  293   0.881   4.353   0.110
    1STR    O03  294   0.840   4.394   0.218
    1STR    N04  295   0.997   4.392   0.053
    1STR    C05  296   1.088   4.494   0.090
    1STR    C06  297   1.230   4.475   0.075
    1STR    C07  298   1.326   4.577   0.105
    1STR    N08  299   1.465   4.558   0.083
    1STR    C09  300   1.571   4.635   0.119
    1STR    O0A  301   1.562   4.736   0.189
    1STR    O0B  302   1.692   4.590   0.072
    1STR    C0C  303   1.816   4.657   0.109
    1STR    C0D  304   1.854   4.615   0.252
    1STR    C0E  305   1.934   4.632   0.011
    1STR    O0F  306   2.057   4.696   0.054
    1STR    C0G  307   2.173   4.682  17.410
    1STR    C0H  308   2.160   4.779  17.291
    1STR    C0I  309   2.305   4.711   0.049
    1STR    O0J  310   2.425   4.677  17.415
    1STR    C0K  311   2.552   4.699   0.041
    1STR    C0M  312   2.569   4.602   0.159
    1STR    C0N  313   2.673   4.680  17.384
    1STR    O0O  314   2.797   4.720   0.004
    1STR    C0P  315   2.909   4.642   0.003
    1STR    O0Q  316   2.916   4.526  17.404
    1STR    N0R  317   3.012   4.714   0.049
    1STR    C0S  318   3.149   4.692   0.074
    1STR    C0T  319   3.221   4.810   0.103
    1STR    C0U  320   3.356   4.805   0.140
    1STR    C0V  321   3.424   4.683   0.151
    1STR    C0W  322   3.565   4.687   0.209
    1STR    C0X  323   3.358   4.561   0.117
    1STR    N0Y  324   3.426   4.439   0.136
    1STR   BCK2  325   3.551   4.409   0.096
    1STR    O10  326   3.611   4.467   0.006
    1STR    C13  327   3.219   4.568   0.080
    1STR    C14  328   1.274   4.700   0.153
    1STR    C15  329   1.136   4.722   0.165
    1STR    C16  330   1.043   4.622   0.131
    1STR    C17  331   0.897   4.664   0.133
    1STR    H1B  332   1.021   4.337  17.412
    1STR    H1C  333   1.265   4.379   0.040
    1STR    H1D  334   1.494   4.476   0.033
    1STR    H1E  335   1.797   4.765   0.109
    1STR    H1F  336   1.874   4.508   0.258
    1STR    H1G  337   1.944   4.668   0.285
    1STR    H1H  338   1.775   4.639   0.323
    1STR    H1I  339   1.906   4.669  17.352
    1STR    H1J  340   1.951   4.525   0.000
    1STR    H1K  341   2.179   4.579  17.374
    1STR    H1M  342   2.147   4.881  17.324
    1STR    H1N  343   2.076   4.754  17.227
    1STR    H1O  344   2.250   4.775  17.228
    1STR    H1P  345   2.308   4.816   0.079
    1STR    H1Q  346   2.301   4.653   0.141
    1STR    H1R  347   2.555   4.802   0.078
    1STR    H1S  348   2.667   4.613   0.204
    1STR    H1T  349   2.560   4.499   0.125
    1STR    H1U  350   2.496   4.618   0.238
    1STR    H1V  351   2.658   4.743  17.295
    1STR    H1W  352   2.677   4.578  17.347
    1STR    H1X  353   2.979   4.807   0.069
    1STR    H1Y  354   3.174   4.907   0.099
    1STR    H1Z  355   3.407   4.897   0.165
    1STR    H20  356   3.580   4.605   0.279
    1STR    H21  357   3.639   4.679   0.129
    1STR    H22  358   3.584   4.780   0.262
    1STR    H23  359   3.380   4.369   0.192
    1STR    H27  360   3.165   4.477   0.057
    1STR    H28  361   1.338   4.783   0.179
    1STR    H29  362   1.102   4.818   0.199
    1STR    H2A  363   0.839   4.612   0.056
    1STR    H2B  364   0.886   4.771   0.114
    1STR    H2C  365   0.853   4.643   0.230
    1STR   BCK1  366   0.858   4.279   4.429
    1STR    O03  367   0.815   4.373   4.364
    1STR    N04  368   0.990   4.250   4.418
    1STR    C05  369   1.084   4.151   4.454
    1STR    C06  370   1.222   4.188   4.461
    1STR    C07  371   1.328   4.094   4.484
    1STR    N08  372   1.465   4.134   4.485
    1STR    C09  373   1.577   4.058   4.492
    1STR    O0A  374   1.578   3.936   4.499
    1STR    O0B  375   1.693   4.132   4.490
    1STR    C0C  376   1.821   4.063   4.493
    1STR    C0D  377   1.854   4.007   4.353
    1STR    C0E  378   1.938   4.152   4.545
    1STR    O0F  379   2.061   4.076   4.554
    1STR    C0G  380   2.175   4.143   4.609
    1STR    C0H  381   2.160   4.152   4.762
    1STR    C0I  382   2.306   4.068   4.572
    1STR    O0J  383   2.424   4.141   4.611
    1STR    C0K  384   2.552   4.079   4.586
    1STR    C0M  385   2.580   4.077   4.435
    1STR    C0N  386   2.666   4.156   4.659
    1STR    O0O  387   2.789   4.082   4.655
    1STR    C0P  388   2.908   4.141   4.626
    1STR    O0Q  389   2.925   4.258   4.595
    1STR    N0R  390   3.005   4.048   4.633
    1STR    C0S  391   3.141   4.048   4.599
    1STR    C0T  392   3.198   3.921   4.580
    1STR    C0U  393   3.330   3.908   4.532
    1STR    C0V  394   3.409   4.021   4.506
    1STR    C0W  395   3.539   3.998   4.431
    1STR    C0X  396   3.360   4.151   4.539
    1STR    N0Y  397   3.435   4.267   4.518
    1STR   BCK2  398   3.563   4.305   4.540
    1STR    O10  399   3.599   4.415   4.501
    1STR    C13  400   3.224   4.162   4.581
    1STR    C14  401   1.289   3.960   4.506
    1STR    C15  402   1.155   3.921   4.498
    1STR    C16  403   1.053   4.013   4.470
    1STR    C17  404   0.916   3.953   4.449
    1STR    H1B  405   1.030   4.326   4.366
    1STR    H1C  406   1.248   4.292   4.446
    1STR    H1D  407   1.486   4.232   4.476
    1STR    H1E  408   1.813   3.979   4.562
    1STR    H1F  409   1.865   4.086   4.279
    1STR    H1G  410   1.947   3.950   4.355
    1STR    H1H  411   1.776   3.939   4.318
    1STR    H1I  412   1.910   4.191   4.642
    1STR    H1J  413   1.953   4.237   4.479
    1STR    H1K  414   2.182   4.244   4.566
    1STR    H1M  415   2.147   4.054   4.806
    1STR    H1N  416   2.076   4.214   4.792
    1STR    H1O  417   2.250   4.196   4.807
    1STR    H1P  418   2.306   3.969   4.618
    1STR    H1Q  419   2.307   4.052   4.464
    1STR    H1R  420   2.550   3.977   4.625
    1STR    H1S  421   2.680   4.038   4.415
    1STR    H1T  422   2.575   4.177   4.392
    1STR    H1U  423   2.510   4.014   4.380
    1STR    H1V  424   2.639   4.171   4.764
    1STR    H1W  425   2.677   4.256   4.617
    1STR    H1X  426   2.965   3.961   4.662
    1STR    H1Y  427   3.141   3.831   4.595
    1STR    H1Z  428   3.369   3.810   4.511
    1STR    H20  429   3.571   4.087   4.377
    1STR    H21  430   3.618   3.968   4.500
    1STR    H22  431   3.527   3.919   4.357
    1STR    H23  432   3.383   4.345   4.480
    1STR    H27  433   3.182   4.260   4.599
    1STR    H28  434   1.360   3.882   4.526
    1STR    H29  435   1.132   3.816   4.512
    1STR    H2A  436   0.860   3.956   4.542
    1STR    H2B  437   0.922   3.848   4.419
    1STR    H2C  438   0.862   4.004   4.370
    1STR   BCK1  439   0.875   4.330   8.694
    1STR    O03  440   0.826   4.441   8.711
    1STR    N04  441   0.998   4.306   8.643
    1STR    C05  442   1.088   4.391   8.573
    1STR    C06  443   1.230   4.377   8.590
    1STR    C07  444   1.326   4.451   8.513
    1STR    N08  445   1.466   4.432   8.526
    1STR    C09  446   1.570   4.476   8.451
    1STR    O0A  447   1.557   4.546   8.351
    1STR    O0B  448   1.694   4.436   8.496
    1STR    C0C  449   1.816   4.484   8.432
    1STR    C0D  450   1.847   4.625   8.486
    1STR    C0E  451   1.938   4.389   8.450
    1STR    O0F  452   2.060   4.440   8.391
    1STR    C0G  453   2.177   4.355   8.396
    1STR    C0H  454   2.164   4.246   8.288
    1STR    C0I  455   2.310   4.435   8.376
    1STR    O0J  456   2.428   4.355   8.404
    1STR    C0K  457   2.558   4.418   8.389
    1STR    C0M  458   2.576   4.530   8.492
    1STR    C0N  459   2.674   4.314   8.406
    1STR    O0O  460   2.804   4.371   8.379
    1STR    C0P  461   2.915   4.343   8.454
    1STR    O0Q  462   2.917   4.278   8.558
    1STR    N0R  463   3.022   4.400   8.397
    1STR    C0S  464   3.158   4.416   8.429
    1STR    C0T  465   3.229   4.495   8.336
    1STR    C0U  466   3.362   4.532   8.359
    1STR    C0V  467   3.430   4.491   8.475
    1STR    C0W  468   3.565   4.556   8.499
    1STR    C0X  469   3.368   4.400   8.566
    1STR    N0Y  470   3.439   4.352   8.679
    1STR   BCK2  471   3.567   4.310   8.686
    1STR    O10  472   3.639   4.292   8.588
    1STR    C13  473   3.230   4.367   8.543
    1STR    C14  474   1.273   4.546   8.421
    1STR    C15  475   1.135   4.560   8.402
    1STR    C16  476   1.042   4.482   8.473
    1STR    C17  477   0.897   4.495   8.433
    1STR    H1B  478   1.027   4.211   8.654
    1STR    H1C  479   1.266   4.306   8.662
    1STR    H1D  480   1.498   4.375   8.603
    1STR    H1E  481   1.797   4.492   8.325
    1STR    H1F  482   1.867   4.623   8.593
    1STR    H1G  483   1.936   4.666   8.436
    1STR    H1H  484   1.765   4.694   8.467
    1STR    H1I  485   1.913   4.292   8.406
    1STR    H1J  486   1.955   4.371   8.557
    1STR    H1K  487   2.182   4.308   8.495
    1STR    H1M  488   2.151   4.290   8.189
    1STR    H1N  489   2.080   4.180   8.306
    1STR    H1O  490   2.253   4.184   8.285
    1STR    H1P  491   2.315   4.474   8.274
    1STR    H1Q  492   2.307   4.521   8.442
    1STR    H1R  493   2.564   4.460   8.288
    1STR    H1S  494   2.676   4.573   8.486
    1STR    H1T  495   2.563   4.491   8.594
    1STR    H1U  496   2.506   4.612   8.478
    1STR    H1V  497   2.660   4.232   8.336
    1STR    H1W  498   2.671   4.270   8.505
    1STR    H1X  499   2.992   4.444   8.312
    1STR    H1Y  500   3.182   4.531   8.246
    1STR    H1Z  501   3.411   4.597   8.288
    1STR    H20  502   3.587   4.564   8.606
    1STR    H21  503   3.644   4.498   8.451
    1STR    H22  504   3.568   4.657   8.459
    1STR    H23  505   3.388   4.347   8.765
    1STR    H27  506   3.177   4.304   8.613
    1STR    H28  507   1.336   4.609   8.361
    1STR    H29  508   1.100   4.630   8.328
    1STR    H2A  509   0.844   4.400   8.440
    1STR    H2B  510   0.887   4.528   8.329
    1STR    H2C  511   0.846   4.568   8.496
    1STR   BCK1  512   0.882   4.272  13.209
    1STR    O03  513   0.883   4.186  13.296
    1STR    N04  514   0.983   4.359  13.189
    1STR    C05  515   1.085   4.388  13.282
    1STR    C06  516   1.225   4.387  13.248
    1STR    C07  517   1.327   4.420  13.342
    1STR    N08  518   1.465   4.424  13.307
    1STR    C09  519   1.575   4.436  13.385
    1STR    O0A  520   1.572   4.439  13.508
    1STR    O0B  521   1.693   4.446  13.315
    1STR    C0C  522   1.819   4.454  13.387
    1STR    C0D  523   1.859   4.314  13.436
    1STR    C0E  524   1.935   4.518  13.304
    1STR    O0F  525   2.057   4.524  13.379
    1STR    C0G  526   2.172   4.584  13.316
    1STR    C0H  527   2.157   4.737  13.320
    1STR    C0I  528   2.304   4.539  13.386
    1STR    O0J  529   2.422   4.580  13.313
    1STR    C0K  530   2.549   4.546  13.372
    1STR    C0M  531   2.572   4.394  13.368
    1STR    C0N  532   2.667   4.616  13.298
    1STR    O0O  533   2.788   4.604  13.374
    1STR    C0P  534   2.905   4.559  13.322
    1STR    O0Q  535   2.924   4.521  13.207
    1STR    N0R  536   2.997   4.562  13.419
    1STR    C0S  537   3.132   4.526  13.433
    1STR    C0T  538   3.183   4.542  13.563
    1STR    C0U  539   3.316   4.511  13.592
    1STR    C0V  540   3.404   4.466  13.493
    1STR    C0W  541   3.547   4.446  13.539
    1STR    C0X  542   3.358   4.447  13.359
    1STR    N0Y  543   3.442   4.418  13.249
    1STR   BCK2  544   3.561   4.363  13.217
    1STR    O10  545   3.603   4.382  13.103
    1STR    C13  546   3.221   4.478  13.332
    1STR    C14  547   1.284   4.455  13.472
    1STR    C15  548   1.148   4.461  13.507
    1STR    C16  549   1.049   4.431  13.412
    1STR    C17  550   0.904   4.452  13.454
    1STR    H1B  551   0.977   4.416  13.106
    1STR    H1C  552   1.252   4.358  13.148
    1STR    H1D  553   1.488   4.415  13.210
    1STR    H1E  554   1.804   4.519  13.474
    1STR    H1F  555   1.875   4.246  13.353
    1STR    H1G  556   1.951   4.318  13.495
    1STR    H1H  557   1.782   4.272  13.500
    1STR    H1I  558   1.905   4.618  13.273
    1STR    H1J  559   1.951   4.461  13.212
    1STR    H1K  560   2.177   4.550  13.212
    1STR    H1M  561   2.145   4.772  13.423
    1STR    H1N  562   2.072   4.772  13.263
    1STR    H1O  563   2.246   4.785  13.279
    1STR    H1P  564   2.307   4.579  13.487
    1STR    H1Q  565   2.302   4.431  13.395
    1STR    H1R  566   2.550   4.580  13.475
    1STR    H1S  567   2.671   4.368  13.404
    1STR    H1T  568   2.565   4.356  13.265
    1STR    H1U  569   2.501   4.339  13.429
    1STR    H1V  570   2.646   4.723  13.288
    1STR    H1W  571   2.679   4.578  13.197
    1STR    H1X  572   2.953   4.600  13.501
    1STR    H1Y  573   3.120   4.579  13.643
    1STR    H1Z  574   3.351   4.526  13.693
    1STR    H20  575   3.565   4.339  13.553
    1STR    H21  576   3.617   4.488  13.467
    1STR    H22  577   3.567   4.494  13.634
    1STR    H23  578   3.402   4.449  13.162
    1STR    H27  579   3.182   4.467  13.232
    1STR    H28  580   1.353   4.483  13.551
    1STR    H29  581   1.121   4.490  13.607
    1STR    H2A  582   0.846   4.495  13.372
    1STR    H2B  583   0.896   4.519  13.539
    1STR    H2C  584   0.858   4.357  13.482
    1STR   BCK1  585   0.865   8.593   0.020
    1STR    O03  586   0.829   8.656  17.361
    1STR    N04  587   0.988   8.542   0.039
    1STR    C05  588   1.087   8.512  17.383
    1STR    C06  589   1.226   8.535  17.408
    1STR    C07  590   1.329   8.490  17.319
    1STR    N08  591   1.467   8.508  17.347
    1STR    C09  592   1.574   8.441  17.297
    1STR    O0A  593   1.565   8.347  17.219
    1STR    O0B  594   1.695   8.489  17.342
    1STR    C0C  595   1.819   8.436  17.288
    1STR    C0D  596   1.850   8.506  17.155
    1STR    C0E  597   1.939   8.448  17.386
    1STR    O0F  598   2.061   8.393  17.331
    1STR    C0G  599   2.177   8.391  17.417
    1STR    C0H  600   2.162   8.275   0.078
    1STR    C0I  601   2.308   8.374  17.335
    1STR    O0J  602   2.426   8.389  17.418
    1STR    C0K  603   2.555   8.375  17.354
    1STR    C0M  604   2.580   8.493  17.258
    1STR    C0N  605   2.670   8.369   0.019
    1STR    O0O  606   2.797   8.337  17.399
    1STR    C0P  607   2.913   8.396  17.440
    1STR    O0Q  608   2.922   8.486   0.083
    1STR    N0R  609   3.016   8.342  17.373
    1STR    C0S  610   3.154   8.370  17.367
    1STR    C0T  611   3.226   8.302  17.267
    1STR    C0U  612   3.361   8.331  17.242
    1STR    C0V  613   3.430   8.428  17.316
    1STR    C0W  614   3.567   8.468  17.267
    1STR    C0X  615   3.365   8.492  17.426
    1STR    N0Y  616   3.425   8.594   0.061
    1STR   BCK2  617   3.546   8.620   0.115
    1STR    O10  618   3.564   8.732   0.163
    1STR    C13  619   3.226   8.464   0.007
    1STR    C14  620   1.287   8.427  17.200
    1STR    C15  621   1.152   8.402  17.174
    1STR    C16  622   1.052   8.440  17.266
    1STR    C17  623   0.910   8.394  17.237
    1STR    H1B  624   1.007   8.514   0.134
    1STR    H1C  625   1.255   8.586   0.059
    1STR    H1D  626   1.493   8.579  17.413
    1STR    H1E  627   1.806   8.329  17.268
    1STR    H1F  628   1.865   8.613  17.168
    1STR    H1G  629   1.940   8.465  17.109
    1STR    H1H  630   1.769   8.493  17.083
    1STR    H1I  631   1.913   8.396   0.038
    1STR    H1J  632   1.955   8.553  17.412
    1STR    H1K  633   2.183   8.486   0.031
    1STR    H1M  634   2.148   8.180   0.026
    1STR    H1N  635   2.078   8.289   0.145
    1STR    H1O  636   2.251   8.266   0.140
    1STR    H1P  637   2.309   8.277  17.286
    1STR    H1Q  638   2.308   8.450  17.256
    1STR    H1R  639   2.556   8.281  17.297
    1STR    H1S  640   2.680   8.488  17.216
    1STR    H1T  641   2.572   8.588  17.312
    1STR    H1U  642   2.510   8.495  17.175
    1STR    H1V  643   2.648   8.291   0.093
    1STR    H1W  644   2.675   8.462   0.075
    1STR    H1X  645   2.983   8.269  17.314
    1STR    H1Y  646   3.177   8.229  17.204
    1STR    H1Z  647   3.411   8.281  17.160
    1STR    H20  648   3.589   8.573  17.289
    1STR    H21  649   3.645   8.406  17.312
    1STR    H22  650   3.575   8.457  17.159
    1STR    H23  651   3.363   8.670   0.083
    1STR    H27  652   3.173   8.516   0.085
    1STR    H28  653   1.358   8.394  17.125
    1STR    H29  654   1.125   8.349  17.084
    1STR    H2A  655   0.859   8.363  17.328
    1STR    H2B  656   0.909   8.308  17.170
    1STR    H2C  657   0.853   8.474  17.189
    1STR   BCK1  658   0.883   8.737   4.414
    1STR    O03  659   0.836   8.818   4.494
    1STR    N04  660   1.001   8.750   4.351
    1STR    C05  661   1.090   8.861   4.343
    1STR    C06  662   1.232   8.840   4.341
    1STR    C07  663   1.326   8.947   4.325
    1STR    N08  664   1.466   8.922   4.317
    1STR    C09  665   1.571   9.008   4.306
    1STR    O0A  666   1.560   9.131   4.307
    1STR    O0B  667   1.693   8.946   4.294
    1STR    C0C  668   1.816   9.025   4.290
    1STR    C0D  669   1.852   9.069   4.433
    1STR    C0E  670   1.936   8.952   4.222
    1STR    O0F  671   2.058   9.030   4.226
    1STR    C0G  672   2.175   8.974   4.162
    1STR    C0H  673   2.162   8.993   4.010
    1STR    C0I  674   2.307   9.040   4.214
    1STR    O0J  675   2.427   8.971   4.170
    1STR    C0K  676   2.555   9.024   4.214
    1STR    C0M  677   2.570   9.007   4.366
    1STR    C0N  678   2.675   8.952   4.144
    1STR    O0O  679   2.801   9.013   4.175
    1STR    C0P  680   2.912   8.942   4.214
    1STR    O0Q  681   2.914   8.822   4.241
    1STR    N0R  682   3.017   9.024   4.217
    1STR    C0S  683   3.154   9.014   4.250
    1STR    C0T  684   3.229   9.128   4.216
    1STR    C0U  685   3.364   9.140   4.252
    1STR    C0V  686   3.429   9.039   4.324
    1STR    C0W  687   3.569   9.069   4.374
    1STR    C0X  688   3.361   8.916   4.352
    1STR    N0Y  689   3.429   8.816   4.425
    1STR   BCK2  690   3.553   8.768   4.404
    1STR    O10  691   3.614   8.782   4.298
    1STR    C13  692   3.222   8.907   4.316
    1STR    C14  693   1.273   9.077   4.314
    1STR    C15  694   1.134   9.099   4.314
    1STR    C16  695   1.042   8.993   4.324
    1STR    C17  696   0.896   9.029   4.305
    1STR    H1B  697   1.029   8.667   4.302
    1STR    H1C  698   1.269   8.739   4.352
    1STR    H1D  699   1.497   8.827   4.319
    1STR    H1E  700   1.796   9.115   4.231
    1STR    H1F  701   1.872   8.983   4.497
    1STR    H1G  702   1.940   9.132   4.433
    1STR    H1H  703   1.771   9.126   4.478
    1STR    H1I  704   1.909   8.930   4.119
    1STR    H1J  705   1.953   8.857   4.272
    1STR    H1K  706   2.181   8.868   4.186
    1STR    H1M  707   2.149   9.098   3.984
    1STR    H1N  708   2.078   8.938   3.968
    1STR    H1O  709   2.252   8.957   3.959
    1STR    H1P  710   2.311   9.145   4.182
    1STR    H1Q  711   2.303   9.041   4.322
    1STR    H1R  712   2.559   9.130   4.188
    1STR    H1S  713   2.669   9.040   4.399
    1STR    H1T  714   2.559   8.902   4.394
    1STR    H1U  715   2.498   9.065   4.422
    1STR    H1V  716   2.662   8.958   4.036
    1STR    H1W  717   2.675   8.845   4.168
    1STR    H1X  718   2.987   9.114   4.186
    1STR    H1Y  719   3.184   9.211   4.163
    1STR    H1Z  720   3.417   9.231   4.228
    1STR    H20  721   3.586   9.026   4.472
    1STR    H21  722   3.644   9.029   4.305
    1STR    H22  723   3.586   9.176   4.383
    1STR    H23  724   3.382   8.780   4.507
    1STR    H27  725   3.166   8.817   4.341
    1STR    H28  726   1.334   9.164   4.303
    1STR    H29  727   1.098   9.201   4.302
    1STR    H2A  728   0.841   8.948   4.256
    1STR    H2B  729   0.884   9.118   4.243
    1STR    H2C  730   0.849   9.050   4.402
    1STR   BCK1  731   0.858   8.649   8.772
    1STR    O03  732   0.821   8.662   8.656
    1STR    N04  733   0.990   8.627   8.793
    1STR    C05  734   1.081   8.584   8.892
    1STR    C06  735   1.220   8.614   8.875
    1STR    C07  736   1.323   8.560   8.957
    1STR    N08  737   1.461   8.590   8.936
    1STR    C09  738   1.572   8.530   8.985
    1STR    O0A  739   1.569   8.429   9.056
    1STR    O0B  740   1.689   8.590   8.948
    1STR    C0C  741   1.817   8.535   8.991
    1STR    C0D  742   1.852   8.413   8.905
    1STR    C0E  743   1.933   8.639   8.989
    1STR    O0F  744   2.057   8.581   9.037
    1STR    C0G  745   2.171   8.668   9.045
    1STR    C0H  746   2.157   8.759   9.168
    1STR    C0I  747   2.303   8.586   9.054
    1STR    O0J  748   2.421   8.670   9.047
    1STR    C0K  749   2.549   8.605   9.060
    1STR    C0M  750   2.578   8.520   8.935
    1STR    C0N  751   2.664   8.709   9.080
    1STR    O0O  752   2.785   8.645   9.121
    1STR    C0P  753   2.905   8.669   9.062
    1STR    O0Q  754   2.924   8.742   8.965
    1STR    N0R  755   3.000   8.597   9.123
    1STR    C0S  756   3.134   8.568   9.095
    1STR    C0T  757   3.184   8.450   9.153
    1STR    C0U  758   3.312   8.403   9.120
    1STR    C0V  759   3.395   8.474   9.031
    1STR    C0W  760   3.519   8.401   8.981
    1STR    C0X  761   3.355   8.602   8.985
    1STR    N0Y  762   3.436   8.681   8.901
    1STR   BCK2  763   3.567   8.712   8.898
    1STR    O10  764   3.610   8.777   8.803
    1STR    C13  765   3.222   8.645   9.013
    1STR    C14  766   1.283   8.475   9.062
    1STR    C15  767   1.147   8.444   9.082
    1STR    C16  768   1.047   8.495   8.998
    1STR    C17  769   0.907   8.444   9.025
    1STR    H1B  770   1.035   8.646   8.704
    1STR    H1C  771   1.248   8.680   8.794
    1STR    H1D  772   1.484   8.666   8.874
    1STR    H1E  773   1.805   8.502   9.095
    1STR    H1F  774   1.865   8.440   8.800
    1STR    H1G  775   1.945   8.367   8.939
    1STR    H1H  776   1.774   8.336   8.911
    1STR    H1I  777   1.904   8.723   9.052
    1STR    H1J  778   1.947   8.677   8.888
    1STR    H1K  779   2.177   8.729   8.955
    1STR    H1M  780   2.144   8.700   9.259
    1STR    H1N  781   2.072   8.827   9.160
    1STR    H1O  782   2.246   8.821   9.181
    1STR    H1P  783   2.304   8.528   9.147
    1STR    H1Q  784   2.304   8.514   8.972
    1STR    H1R  785   2.547   8.540   9.148
    1STR    H1S  786   2.678   8.477   8.939
    1STR    H1T  787   2.573   8.581   8.844
    1STR    H1U  788   2.508   8.437   8.923
    1STR    H1V  789   2.636   8.779   9.158
    1STR    H1W  790   2.678   8.768   8.989
    1STR    H1X  791   2.959   8.547   9.201
    1STR    H1Y  792   3.123   8.390   9.218
    1STR    H1Z  793   3.345   8.307   9.159
    1STR    H20  794   3.554   8.442   8.886
    1STR    H21  795   3.599   8.406   9.054
    1STR    H22  796   3.497   8.296   8.963
    1STR    H23  797   3.388   8.728   8.827
    1STR    H27  798   3.186   8.738   8.972
    1STR    H28  799   1.353   8.430   9.131
    1STR    H29  800   1.122   8.376   9.162
    1STR    H2A  801   0.851   8.519   9.080
    1STR    H2B  802   0.908   8.354   9.087
    1STR    H2C  803   0.858   8.418   8.932
    1STR   BCK1  804   0.873   8.639  13.049
    1STR    O03  805   0.826   8.748  13.020
    1STR    N04  806   0.997   8.597  13.016
    1STR    C05  807   1.089   8.646  12.920
    1STR    C06  808   1.230   8.643  12.945
    1STR    C07  809   1.328   8.678  12.846
    1STR    N08  810   1.467   8.668  12.871
    1STR    C09  811   1.572   8.667  12.784
    1STR    O0A  812   1.559   8.672  12.662
    1STR    O0B  813   1.695   8.659  12.845
    1STR    C0C  814   1.817   8.668  12.767
    1STR    C0D  815   1.848   8.816  12.739
    1STR    C0E  816   1.939   8.598  12.835
    1STR    O0F  817   2.061   8.609  12.757
    1STR    C0G  818   2.177   8.540  12.808
    1STR    C0H  819   2.164   8.390  12.776
    1STR    C0I  820   2.310   8.596  12.748
    1STR    O0J  821   2.427   8.542  12.814
    1STR    C0K  822   2.557   8.584  12.766
    1STR    C0M  823   2.578   8.734  12.796
    1STR    C0N  824   2.672   8.502  12.835
    1STR    O0O  825   2.801   8.533  12.780
    1STR    C0P  826   2.914   8.543  12.858
    1STR    O0Q  827   2.917   8.537  12.980
    1STR    N0R  828   3.020   8.563  12.779
    1STR    C0S  829   3.156   8.592  12.798
    1STR    C0T  830   3.225   8.626  12.680
    1STR    C0U  831   3.359   8.669  12.684
    1STR    C0V  832   3.428   8.677  12.806
    1STR    C0W  833   3.565   8.744  12.801
    1STR    C0X  834   3.368   8.629  12.926
    1STR    N0Y  835   3.441   8.628  13.048
    1STR   BCK2  836   3.569   8.587  13.068
    1STR    O10  837   3.637   8.531  12.983
    1STR    C13  838   3.230   8.592  12.921
    1STR    C14  839   1.278   8.722  12.722
    1STR    C15  840   1.140   8.724  12.694
    1STR    C16  841   1.046   8.684  12.790
    1STR    C17  842   0.901   8.676  12.745
    1STR    H1B  843   1.025   8.514  13.065
    1STR    H1C  844   1.264   8.611  13.043
    1STR    H1D  845   1.498   8.660  12.966
    1STR    H1E  846   1.801   8.618  12.671
    1STR    H1F  847   1.866   8.872  12.831
    1STR    H1G  848   1.937   8.826  12.676
    1STR    H1H  849   1.766   8.864  12.686
    1STR    H1I  850   1.913   8.493  12.849
    1STR    H1J  851   1.955   8.641  12.934
    1STR    H1K  852   2.182   8.554  12.916
    1STR    H1M  853   2.150   8.374  12.669
    1STR    H1N  854   2.079   8.344  12.827
    1STR    H1O  855   2.253   8.336  12.807
    1STR    H1P  856   2.314   8.575  12.641
    1STR    H1Q  857   2.308   8.704  12.758
    1STR    H1R  858   2.563   8.567  12.659
    1STR    H1S  859   2.679   8.765  12.767
    1STR    H1T  860   2.567   8.754  12.902
    1STR    H1U  861   2.509   8.797  12.741
    1STR    H1V  862   2.655   8.396  12.819
    1STR    H1W  863   2.670   8.518  12.943
    1STR    H1X  864   2.989   8.560  12.683
    1STR    H1Y  865   3.176   8.624  12.584
    1STR    H1Z  866   3.407   8.699  12.593
    1STR    H20  867   3.589   8.792  12.896
    1STR    H21  868   3.643   8.671  12.777
    1STR    H22  869   3.568   8.821  12.725
    1STR    H23  870   3.393   8.658  13.131
    1STR    H27  871   3.179   8.562  13.011
    1STR    H28  872   1.344   8.754  12.642
    1STR    H29  873   1.108   8.755  12.596
    1STR    H2A  874   0.850   8.591  12.790
    1STR    H2B  875   0.894   8.662  12.637
    1STR    H2C  876   0.848   8.767  12.770
    1STR   BCK1  877   0.886  13.042   0.128
    1STR    O03  878   0.869  13.029   0.249
    1STR    N04  879   0.991  13.106   0.073
    1STR    C05  880   1.087  13.187   0.139
    1STR    C06  881   1.227  13.173   0.114
    1STR    C07  882   1.326  13.257   0.178
    1STR    N08  883   1.464  13.245   0.149
    1STR    C09  884   1.572  13.303   0.209
    1STR    O0A  885   1.565  13.373   0.310
    1STR    O0B  886   1.692  13.275   0.148
    1STR    C0C  887   1.817  13.323   0.206
    1STR    C0D  888   1.855  13.233   0.325
    1STR    C0E  889   1.934  13.333   0.104
    1STR    O0F  890   2.057  13.378   0.166
    1STR    C0G  891   2.173  13.394   0.081
    1STR    C0H  892   2.159  13.525   0.002
    1STR    C0I  893   2.305  13.394   0.165
    1STR    O0J  894   2.424  13.388   0.083
    1STR    C0K  895   2.551  13.389   0.151
    1STR    C0M  896   2.570  13.258   0.229
    1STR    C0N  897   2.671  13.406   0.053
    1STR    O0O  898   2.794  13.432   0.124
    1STR    C0P  899   2.910  13.363   0.101
    1STR    O0Q  900   2.923  13.267   0.026
    1STR    N0R  901   3.007  13.419   0.174
    1STR    C0S  902   3.143  13.394   0.199
    1STR    C0T  903   3.207  13.492   0.276
    1STR    C0U  904   3.340  13.477   0.315
    1STR    C0V  905   3.416  13.363   0.279
    1STR    C0W  906   3.556  13.358   0.334
    1STR    C0X  907   3.358  13.262   0.196
    1STR    N0Y  908   3.424  13.149   0.143
    1STR   BCK2  909   3.540  13.077   0.142
    1STR    O10  910   3.547  12.988   0.059
    1STR    C13  911   3.220  13.280   0.158
    1STR    C14  912   1.277  13.355   0.267
    1STR    C15  913   1.139  13.372   0.290
    1STR    C16  914   1.044  13.292   0.224
    1STR    C17  915   0.898  13.328   0.244
    1STR    H1B  916   0.999  13.098  17.413
    1STR    H1C  917   1.260  13.097   0.046
    1STR    H1D  918   1.492  13.186   0.073
    1STR    H1E  919   1.799  13.424   0.244
    1STR    H1F  920   1.874  13.131   0.293
    1STR    H1G  921   1.946  13.270   0.373
    1STR    H1H  922   1.777  13.232   0.400
    1STR    H1I  923   1.905  13.401   0.024
    1STR    H1J  924   1.951  13.236   0.057
    1STR    H1K  925   2.178  13.310   0.012
    1STR    H1M  926   2.147  13.610   0.069
    1STR    H1N  927   2.074  13.524  17.374
    1STR    H1O  928   2.248  13.544  17.382
    1STR    H1P  929   2.307  13.482   0.229
    1STR    H1Q  930   2.302  13.308   0.231
    1STR    H1R  931   2.553  13.473   0.221
    1STR    H1S  932   2.670  13.254   0.275
    1STR    H1T  933   2.562  13.172   0.163
    1STR    H1U  934   2.498  13.245   0.310
    1STR    H1V  935   2.653  13.492  17.428
    1STR    H1W  936   2.680  13.320  17.426
    1STR    H1X  937   2.968  13.498   0.221
    1STR    H1Y  938   3.155  13.581   0.307
    1STR    H1Z  939   3.385  13.554   0.376
    1STR    H20  940   3.566  13.271   0.399
    1STR    H21  941   3.629  13.356   0.254
    1STR    H22  942   3.579  13.445   0.396
    1STR    H23  943   3.366  13.101   0.076
    1STR    H27  944   3.171  13.206   0.097
    1STR    H28  945   1.342  13.422   0.320
    1STR    H29  946   1.107  13.450   0.357
    1STR    H2A  947   0.840  13.312   0.153
    1STR    H2B  948   0.886  13.433   0.272
    1STR    H2C  949   0.854  13.267   0.324
    1STR   BCK1  950   0.860  12.958   4.413
    1STR    O03  951   0.839  12.962   4.292
    1STR    N04  952   0.980  12.928   4.467
    1STR    C05  953   1.084  12.853   4.409
    1STR    C06  954   1.222  12.891   4.421
    1STR    C07  955   1.328  12.807   4.375
    1STR    N08  956   1.465  12.842   4.391
    1STR    C09  957   1.574  12.761   4.388
    1STR    O0A  958   1.569  12.639   4.376
    1STR    O0B  959   1.694  12.828   4.400
    1STR    C0C  960   1.819  12.757   4.383
    1STR    C0D  961   1.851  12.746   4.233
    1STR    C0E  962   1.938  12.821   4.461
    1STR    O0F  963   2.060  12.746   4.444
    1STR    C0G  964   2.175  12.790   4.519
    1STR    C0H  965   2.160  12.747   4.665
    1STR    C0I  966   2.306  12.732   4.458
    1STR    O0J  967   2.424  12.788   4.520
    1STR    C0K  968   2.552  12.739   4.475
    1STR    C0M  969   2.580  12.789   4.332
    1STR    C0N  970   2.667  12.788   4.569
    1STR    O0O  971   2.791  12.723   4.538
    1STR    C0P  972   2.910  12.790   4.536
    1STR    O0Q  973   2.924  12.911   4.553
    1STR    N0R  974   3.009  12.704   4.510
    1STR    C0S  975   3.146  12.719   4.483
    1STR    C0T  976   3.209  12.607   4.426
    1STR    C0U  977   3.343  12.614   4.382
    1STR    C0V  978   3.418  12.732   4.397
    1STR    C0W  979   3.552  12.738   4.325
    1STR    C0X  980   3.363  12.843   4.467
    1STR    N0Y  981   3.432  12.963   4.485
    1STR   BCK2  982   3.557  12.999   4.520
    1STR    O10  983   3.587  13.118   4.516
    1STR    C13  984   3.225  12.836   4.506
    1STR    C14  985   1.291  12.687   4.310
    1STR    C15  986   1.157  12.647   4.299
    1STR    C16  987   1.054  12.727   4.351
    1STR    C17  988   0.913  12.670   4.348
    1STR    H1B  989   0.988  12.951   4.565
    1STR    H1C  990   1.246  12.985   4.469
    1STR    H1D  991   1.488  12.938   4.408
    1STR    H1E  992   1.808  12.656   4.423
    1STR    H1F  993   1.865  12.845   4.188
    1STR    H1G  994   1.943  12.689   4.217
    1STR    H1H  995   1.771  12.696   4.179
    1STR    H1I  996   1.911  12.827   4.566
    1STR    H1J  997   1.954  12.924   4.427
    1STR    H1K  998   2.182  12.899   4.512
    1STR    H1M  999   2.147  12.639   4.673
    1STR    H1N 1000   2.076  12.795   4.714
    1STR    H1O 1001   2.249  12.773   4.722
    1STR    H1P 1002   2.307  12.623   4.468
    1STR    H1Q 1003   2.307  12.753   4.351
    1STR    H1R 1004   2.551  12.630   4.477
    1STR    H1S 1005   2.680  12.760   4.299
    1STR    H1T 1006   2.574  12.898   4.326
    1STR    H1U 1007   2.510  12.748   4.259
    1STR    H1V 1008   2.642  12.764   4.672
    1STR    H1W 1009   2.676  12.896   4.565
    1STR    H1X 1010   2.971  12.612   4.503
    1STR    H1Y 1011   3.155  12.515   4.409
    1STR    H1Z 1012   3.386  12.529   4.332
    1STR    H20 1013   3.579  12.840   4.299
    1STR    H21 1014   3.630  12.693   4.386
    1STR    H22 1015   3.547  12.682   4.231
    1STR    H23 1016   3.376  13.046   4.471
    1STR    H27 1017   3.178  12.921   4.552
    1STR    H28 1018   1.365  12.620   4.268
    1STR    H29 1019   1.135  12.553   4.253
    1STR    H2A 1020   0.861  12.690   4.442
    1STR    H2B 1021   0.915  12.561   4.336
    1STR    H2C 1022   0.856  12.712   4.266
    1STR   BCK1 1023   0.877  13.077   8.717
    1STR    O03 1024   0.827  13.181   8.758
    1STR    N04 1025   0.999  13.067   8.658
    1STR    C05 1026   1.088  13.166   8.610
    1STR    C06 1027   1.230  13.148   8.620
    1STR    C07 1028   1.325  13.240   8.563
    1STR    N08 1029   1.466  13.217   8.569
    1STR    C09 1030   1.569  13.284   8.513
    1STR    O0A 1031   1.557  13.385   8.444
    1STR    O0B 1032   1.693  13.229   8.539
    1STR    C0C 1033   1.815  13.296   8.494
    1STR    C0D 1034   1.848  13.410   8.592
    1STR    C0E 1035   1.937  13.200   8.478
    1STR    O0F 1036   2.059  13.268   8.439
    1STR    C0G 1037   2.176  13.187   8.416
    1STR    C0H 1038   2.163  13.121   8.277
    1STR    C0I 1039   2.309  13.270   8.424
    1STR    O0J 1040   2.428  13.187   8.424
    1STR    C0K 1041   2.557  13.252   8.432
    1STR    C0M 1042   2.573  13.321   8.569
    1STR    C0N 1043   2.674  13.151   8.413
    1STR    O0O 1044   2.803  13.216   8.409
    1STR    C0P 1045   2.913  13.169   8.476
    1STR    O0Q 1046   2.914  13.076   8.556
    1STR    N0R 1047   3.020  13.240   8.439
    1STR    C0S 1048   3.157  13.245   8.474
    1STR    C0T 1049   3.231  13.338   8.398
    1STR    C0U 1050   3.365  13.366   8.429
    1STR    C0V 1051   3.430  13.301   8.535
    1STR    C0W 1052   3.569  13.352   8.571
    1STR    C0X 1053   3.364  13.197   8.607
    1STR    N0Y 1054   3.433  13.130   8.711
    1STR   BCK2 1055   3.558  13.079   8.708
    1STR    O10 1056   3.623  13.065   8.604
    1STR    C13 1057   3.225  13.173   8.577
    1STR    C14 1058   1.271  13.355   8.500
    1STR    C15 1059   1.133  13.373   8.487
    1STR    C16 1060   1.041  13.280   8.538
    1STR    C17 1061   0.895  13.303   8.504
    1STR    H1B 1062   1.028  12.972   8.646
    1STR    H1C 1063   1.267  13.061   8.671
    1STR    H1D 1064   1.497  13.138   8.622
    1STR    H1E 1065   1.796  13.340   8.396
    1STR    H1F 1066   1.868  13.372   8.692
    1STR    H1G 1067   1.936  13.465   8.559
    1STR    H1H 1068   1.766  13.482   8.599
    1STR    H1I 1069   1.912  13.125   8.404
    1STR    H1J 1070   1.954  13.147   8.572
    1STR    H1K 1071   2.182  13.110   8.492
    1STR    H1M 1072   2.150  13.196   8.199
    1STR    H1N 1073   2.079  13.053   8.271
    1STR    H1O 1074   2.253  13.064   8.253
    1STR    H1P 1075   2.313  13.341   8.342
    1STR    H1Q 1076   2.305  13.329   8.516
    1STR    H1R 1077   2.563  13.326   8.353
    1STR    H1S 1078   2.672  13.365   8.578
    1STR    H1T 1079   2.561  13.250   8.650
    1STR    H1U 1080   2.502  13.402   8.583
    1STR    H1V 1081   2.662  13.098   8.319
    1STR    H1W 1082   2.672  13.074   8.491
    1STR    H1X 1083   2.991  13.306   8.369
    1STR    H1Y 1084   3.186  13.393   8.317
    1STR    H1Z 1085   3.417  13.441   8.371
    1STR    H20 1086   3.588  13.344   8.678
    1STR    H21 1087   3.646  13.296   8.517
    1STR    H22 1088   3.580  13.457   8.545
    1STR    H23 1089   3.384  13.119   8.798
    1STR    H27 1090   3.170  13.100   8.634
    1STR    H28 1091   1.334  13.431   8.457
    1STR    H29 1092   1.097  13.461   8.435
    1STR    H2A 1093   0.842  13.210   8.488
    1STR    H2B 1094   0.885  13.361   8.412
    1STR    H2C 1095   0.846  13.359   8.584
    1STR   BCK1 1096   0.859  12.957  13.191
    1STR    O03 1097   0.830  12.865  13.266
    1STR    N04 1098   0.975  13.027  13.196
    1STR    C05 1099   1.077  13.027  13.294
    1STR    C06 1100   1.216  13.037  13.258
    1STR    C07 1101   1.321  13.041  13.356
    1STR    N08 1102   1.458  13.057  13.320
    1STR    C09 1103   1.570  13.045  13.396
    1STR    O0A 1104   1.570  13.006  13.512
    1STR    O0B 1105   1.687  13.079  13.331
    1STR    C0C 1106   1.815  13.064  13.400
    1STR    C0D 1107   1.855  12.915  13.398
    1STR    C0E 1108   1.931  13.152  13.343
    1STR    O0F 1109   2.054  13.131  13.416
    1STR    C0G 1110   2.169  13.210  13.377
    1STR    C0H 1111   2.154  13.352  13.434
    1STR    C0I 1112   2.301  13.145  13.428
    1STR    O0J 1113   2.418  13.210  13.375
    1STR    C0K 1114   2.547  13.162  13.419
    1STR    C0M 1115   2.574  13.021  13.364
    1STR    C0N 1116   2.662  13.257  13.375
    1STR    O0O 1117   2.783  13.225  13.444
    1STR    C0P 1118   2.901  13.201  13.381
    1STR    O0Q 1119   2.921  13.201  13.260
    1STR    N0R 1120   2.993  13.173  13.474
    1STR    C0S 1121   3.126  13.129  13.475
    1STR    C0T 1122   3.169  13.081  13.599
    1STR    C0U 1123   3.298  13.029  13.615
    1STR    C0V 1124   3.390  13.028  13.509
    1STR    C0W 1125   3.523  12.966  13.543
    1STR    C0X 1126   3.354  13.082  13.381
    1STR    N0Y 1127   3.442  13.107  13.273
    1STR   BCK2 1128   3.566  13.082  13.227
    1STR    O10 1129   3.607  13.152  13.135
    1STR    C13 1130   3.219  13.130  13.367
    1STR    C14 1131   1.282  13.033  13.491
    1STR    C15 1132   1.147  13.027  13.528
    1STR    C16 1133   1.044  13.029  13.432
    1STR    C17 1134   0.902  13.041  13.485
    1STR    H1B 1135   0.987  13.090  13.118
    1STR    H1C 1136   1.241  13.041  13.154
    1STR    H1D 1137   1.479  13.082  13.225
    1STR    H1E 1138   1.801  13.094  13.504
    1STR    H1F 1139   1.871  12.879  13.296
    1STR    H1G 1140   1.948  12.899  13.454
    1STR    H1H 1141   1.779  12.853  13.444
    1STR    H1I 1142   1.901  13.257  13.349
    1STR    H1J 1143   1.946  13.130  13.238
    1STR    H1K 1144   2.174  13.214  13.268
    1STR    H1M 1145   2.142  13.350  13.543
    1STR    H1N 1146   2.069  13.405  13.393
    1STR    H1O 1147   2.243  13.411  13.413
    1STR    H1P 1148   2.303  13.146  13.537
    1STR    H1Q 1149   2.301  13.040  13.399
    1STR    H1R 1150   2.547  13.159  13.528
    1STR    H1S 1151   2.674  12.987  13.391
    1STR    H1T 1152   2.568  13.020  13.255
    1STR    H1U 1153   2.504  12.947  13.402
    1STR    H1V 1154   2.636  13.360  13.400
    1STR    H1W 1155   2.675  13.255  13.266
    1STR    H1X 1156   2.949  13.183  13.564
    1STR    H1Y 1157   3.103  13.080  13.685
    1STR    H1Z 1158   3.326  12.991  13.712
    1STR    H20 1159   3.537  12.876  13.483
    1STR    H21 1160   3.604  13.038  13.527
    1STR    H22 1161   3.530  12.934  13.646
    1STR    H23 1162   3.401  13.169  13.205
    1STR    H27 1163   3.186  13.170  13.272
    1STR    H28 1164   1.352  13.034  13.572
    1STR    H29 1165   1.122  13.024  13.633
    1STR    H2A 1166   0.840  13.101  13.418
    1STR    H2B 1167   0.900  13.091  13.582
    1STR    H2C 1168   0.857  12.943  13.497
    1STR   BCK1 1169   5.230  17.321  17.439
    1STR    O03 1170   5.188  17.409  17.364
    1STR    N04 1171   5.355  17.269  17.433
    1STR    C05 1172   5.450  17.271  17.329
    1STR    C06 1173   5.590  17.284  17.356
    1STR    C07 1174   5.689  17.270  17.254
    1STR    N08 1175   5.828  17.276  17.284
    1STR    C09 1176   5.934  17.231  17.212
    1STR    O0A 1177   5.923  17.170  17.106
    1STR    O0B 1178   6.055  17.258  17.269
    1STR    C0C 1179   6.178  17.226  17.200
    1STR    C0D 1180   6.210  17.337  17.098
    1STR    C0E 1181   6.299  17.203  17.296
    1STR    O0F 1182   6.420  17.170  17.226
    1STR    C0G 1183   6.536  17.139  17.306
    1STR    C0H 1184   6.522  16.996  17.361
    1STR    C0I 1185   6.668  17.153  17.225
    1STR    O0J 1186   6.785  17.141  17.310
    1STR    C0K 1187   6.914  17.150  17.247
    1STR    C0M 1188   6.938  17.292  17.194
    1STR    C0N 1189   7.028  17.112  17.347
    1STR    O0O 1190   7.156  17.107  17.281
    1STR    C0P 1191   7.270  17.149  17.341
    1STR    O0Q 1192   7.280  17.198   0.013
    1STR    N0R 1193   7.372  17.131  17.256
    1STR    C0S 1194   7.509  17.165  17.255
    1STR    C0T 1195   7.570  17.157  17.129
    1STR    C0U 1196   7.705  17.189  17.112
    1STR    C0V 1197   7.785  17.228  17.221
    1STR    C0W 1198   7.931  17.257  17.190
    1STR    C0X 1199   7.729  17.232  17.352
    1STR    N0Y 1200   7.811  17.245   0.026
    1STR   BCK2 1201   7.921  17.319   0.052
    1STR    O10 1202   7.953  17.421  17.431
    1STR    C13 1203   7.590  17.203  17.367
    1STR    C14 1204   5.644  17.250  17.122
    1STR    C15 1205   5.507  17.236  17.094
    1STR    C16 1206   5.410  17.243  17.195
    1STR    C17 1207   5.267  17.211  17.156
    1STR    H1B 1208   5.379  17.215   0.074
    1STR    H1C 1209   5.621  17.302   0.018
    1STR    H1D 1210   5.856  17.319  17.370
    1STR    H1E 1211   6.164  17.132  17.145
    1STR    H1F 1212   6.226  17.433  17.148
    1STR    H1G 1213   6.300  17.314  17.041
    1STR    H1H 1214   6.128  17.350  17.027
    1STR    H1I 1215   6.272  17.123  17.365
    1STR    H1J 1216   6.315  17.293  17.356
    1STR    H1K 1217   6.541  17.210  17.389
    1STR    H1M 1218   6.509  16.924  17.279
    1STR    H1N 1219   6.437  16.985  17.428
    1STR    H1O 1220   6.611  16.967  17.416
    1STR    H1P 1221   6.671  17.078  17.146
    1STR    H1Q 1222   6.667  17.250  17.176
    1STR    H1R 1223   6.918  17.079  17.164
    1STR    H1S 1224   7.039  17.302  17.153
    1STR    H1T 1225   6.929  17.365  17.274
    1STR    H1U 1226   6.869  17.320  17.115
    1STR    H1V 1227   7.008  17.014  17.390
    1STR    H1W 1228   7.030  17.182  17.431
    1STR    H1X 1229   7.337  17.088  17.173
    1STR    H1Y 1230   7.514  17.126  17.042
    1STR    H1Z 1231   7.748  17.183  17.013
    1STR    H20 1232   7.948  17.365  17.190
    1STR    H21 1233   7.998  17.211  17.263
    1STR    H22 1234   7.961  17.221  17.092
    1STR    H23 1235   7.789  17.182   0.101
    1STR    H27 1236   7.544  17.207   0.025
    1STR    H28 1237   5.712  17.242  17.039
    1STR    H29 1238   5.477  17.216  16.992
    1STR    H2A 1239   5.216  17.155  17.234
    1STR    H2B 1240   5.263  17.151  17.065
    1STR    H2C 1241   5.212  17.304  17.138
    1STR   BCK1 1242   5.232   0.008   4.452
    1STR    O03 1243   5.189   0.068   4.550
    1STR    N04 1244   5.351   0.034   4.392
    1STR    C05 1245   5.443   0.141   4.411
    1STR    C06 1246   5.585   0.120   4.401
    1STR    C07 1247   5.681   0.226   4.413
    1STR    N08 1248   5.822   0.204   4.396
    1STR    C09 1249   5.927   0.288   4.415
    1STR    O0A 1250   5.917   0.402   4.460
    1STR    O0B 1251   6.050   0.235   4.379
    1STR    C0C 1252   6.173   0.310   4.401
    1STR    C0D 1253   6.211   0.302   4.550
    1STR    C0E 1254   6.293   0.266   4.311
    1STR    O0F 1255   6.416   0.338   4.341
    1STR    C0G 1256   6.533   0.307   4.261
    1STR    C0H 1257   6.520   0.376   4.125
    1STR    C0I 1258   6.665   0.352   4.332
    1STR    O0J 1259   6.786   0.304   4.268
    1STR    C0K 1260   6.913   0.340   4.327
    1STR    C0M 1261   6.929   0.271   4.463
    1STR    C0N 1262   7.034   0.302   4.237
    1STR    O0O 1263   7.158   0.355   4.289
    1STR    C0P 1264   7.272   0.279   4.303
    1STR    O0Q 1265   7.281   0.158   4.285
    1STR    N0R 1266   7.373   0.359   4.340
    1STR    C0S 1267   7.509   0.341   4.372
    1STR    C0T 1268   7.583   0.459   4.388
    1STR    C0U 1269   7.719   0.456   4.424
    1STR    C0V 1270   7.787   0.334   4.444
    1STR    C0W 1271   7.933   0.344   4.480
    1STR    C0X 1272   7.717   0.210   4.428
    1STR    N0Y 1273   7.776   0.081   4.432
    1STR   BCK2 1274   7.886   0.010   4.468
    1STR    O10 1275   7.889  17.334   4.428
    1STR    C13 1276   7.578   0.217   4.392
    1STR    C14 1277   5.630   0.355   4.437
    1STR    C15 1278   5.492   0.379   4.444
    1STR    C16 1279   5.398   0.275   4.427
    1STR    C17 1280   5.252   0.317   4.420
    1STR    H1B 1281   5.376  17.405   4.323
    1STR    H1C 1282   5.620   0.019   4.384
    1STR    H1D 1283   5.851   0.114   4.364
    1STR    H1E 1284   6.153   0.415   4.377
    1STR    H1F 1285   6.231   0.200   4.580
    1STR    H1G 1286   6.299   0.362   4.570
    1STR    H1H 1287   6.131   0.341   4.613
    1STR    H1I 1288   6.266   0.280   4.207
    1STR    H1J 1289   6.311   0.159   4.324
    1STR    H1K 1290   6.539   0.199   4.248
    1STR    H1M 1291   6.507   0.484   4.136
    1STR    H1N 1292   6.435   0.338   4.067
    1STR    H1O 1293   6.609   0.360   4.064
    1STR    H1P 1294   6.667   0.461   4.339
    1STR    H1Q 1295   6.661   0.315   4.435
    1STR    H1R 1296   6.915   0.449   4.341
    1STR    H1S 1297   7.028   0.291   4.505
    1STR    H1T 1298   6.920   0.163   4.453
    1STR    H1U 1299   6.856   0.304   4.537
    1STR    H1V 1300   7.020   0.343   4.137
    1STR    H1W 1301   7.040   0.193   4.224
    1STR    H1X 1302   7.340   0.454   4.343
    1STR    H1Y 1303   7.538   0.556   4.373
    1STR    H1Z 1304   7.772   0.549   4.435
    1STR    H20 1305   7.947   0.313   4.584
    1STR    H21 1306   7.993   0.283   4.413
    1STR    H22 1307   7.970   0.446   4.472
    1STR    H23 1308   7.715   0.013   4.391
    1STR    H27 1309   7.522   0.126   4.377
    1STR    H28 1310   5.693   0.442   4.448
    1STR    H29 1311   5.458   0.480   4.460
    1STR    H2A 1312   5.195   0.253   4.353
    1STR    H2B 1313   5.243   0.419   4.383
    1STR    H2C 1314   5.207   0.314   4.519
    1STR   BCK1 1315   5.226  17.378   8.792
    1STR    O03 1316   5.177   0.050   8.803
    1STR    N04 1317   5.355  17.362   8.826
    1STR    C05 1318   5.448  17.258   8.850
    1STR    C06 1319   5.587  17.288   8.835
    1STR    C07 1320   5.691  17.197   8.870
    1STR    N08 1321   5.828  17.234   8.863
    1STR    C09 1322   5.939  17.167   8.902
    1STR    O0A 1323   5.938  17.053   8.949
    1STR    O0B 1324   6.055  17.237   8.883
    1STR    C0C 1325   6.182  17.173   8.909
    1STR    C0D 1326   6.219  17.086   8.787
    1STR    C0E 1327   6.297  17.272   8.943
    1STR    O0F 1328   6.420  17.202   8.970
    1STR    C0G 1329   6.534  17.281   9.009
    1STR    C0H 1330   6.518  17.323   9.156
    1STR    C0I 1331   6.665  17.200   8.989
    1STR    O0J 1332   6.783  17.281   9.012
    1STR    C0K 1333   6.910  17.215   9.001
    1STR    C0M 1334   6.939  17.179   8.854
    1STR    C0N 1335   7.024  17.306   9.055
    1STR    O0O 1336   7.147  17.232   9.070
    1STR    C0P 1337   7.266  17.279   9.027
    1STR    O0Q 1338   7.285  17.385   8.968
    1STR    N0R 1339   7.362  17.190   9.056
    1STR    C0S 1340   7.497  17.178   9.021
    1STR    C0T 1341   7.551  17.048   9.028
    1STR    C0U 1342   7.681  17.022   8.982
    1STR    C0V 1343   7.762  17.124   8.932
    1STR    C0W 1344   7.890  17.081   8.861
    1STR    C0X 1345   7.718  17.259   8.938
    1STR    N0Y 1346   7.796  17.367   8.893
    1STR   BCK2 1347   7.926  17.403   8.906
    1STR    O10 1348   7.965   0.062   8.845
    1STR    C13 1349   7.583  17.284   8.978
    1STR    C14 1350   5.650  17.069   8.914
    1STR    C15 1351   5.514  17.038   8.931
    1STR    C16 1352   5.414  17.131   8.905
    1STR    C17 1353   5.274  17.092   8.948
    1STR    H1B 1354   5.393   0.014   8.838
    1STR    H1C 1355   5.615  17.386   8.798
    1STR    H1D 1356   5.850  17.325   8.827
    1STR    H1E 1357   6.171  17.107   8.996
    1STR    H1F 1358   6.232  17.146   8.697
    1STR    H1G 1359   6.312  17.032   8.805
    1STR    H1H 1360   6.142  17.012   8.767
    1STR    H1I 1361   6.267  17.331   9.029
    1STR    H1J 1362   6.312  17.342   8.860
    1STR    H1K 1363   6.540  17.369   8.945
    1STR    H1M 1364   6.505  17.236   9.220
    1STR    H1N 1365   6.433  17.389   9.171
    1STR    H1O 1366   6.607  17.376   9.190
    1STR    H1P 1367   6.665  17.113   9.056
    1STR    H1Q 1368   6.666  17.160   8.887
    1STR    H1R 1369   6.908  17.124   9.061
    1STR    H1S 1370   7.039  17.137   8.843
    1STR    H1T 1371   6.934  17.268   8.791
    1STR    H1U 1372   6.870  17.105   8.814
    1STR    H1V 1373   6.997  17.343   9.154
    1STR    H1W 1374   7.037  17.393   8.992
    1STR    H1X 1375   7.321  17.113   9.106
    1STR    H1Y 1376   7.491  16.966   9.063
    1STR    H1Z 1377   7.716  16.920   8.982
    1STR    H20 1378   7.924  17.157   8.790
    1STR    H21 1379   7.969  17.061   8.933
    1STR    H22 1380   7.873  16.990   8.804
    1STR    H23 1381   7.746  17.437   8.841
    1STR    H27 1382   7.544  17.384   8.976
    1STR    H28 1383   5.720  16.991   8.941
    1STR    H29 1384   5.489  16.940   8.970
    1STR    H2A 1385   5.217  17.178   8.983
    1STR    H2B 1386   5.277  17.021   9.031
    1STR    H2C 1387   5.222  17.042   8.866
    1STR   BCK1 1388   5.232  17.389  13.047
    1STR    O03 1389   5.184   0.062  13.047
    1STR    N04 1390   5.356  17.358  13.002
    1STR    C05 1391   5.447  17.431  12.921
    1STR    C06 1392   5.589  17.421  12.941
    1STR    C07 1393   5.685   0.042  12.854
    1STR    N08 1394   5.825   0.025  12.873
    1STR    C09 1395   5.929   0.054  12.790
    1STR    O0A 1396   5.916   0.100  12.677
    1STR    O0B 1397   6.053   0.024  12.843
    1STR    C0C 1398   6.175   0.059  12.771
    1STR    C0D 1399   6.206   0.208  12.794
    1STR    C0E 1400   6.298  17.410  12.810
    1STR    O0F 1401   6.419   0.007  12.740
    1STR    C0G 1402   6.536  17.365  12.764
    1STR    C0H 1403   6.523  17.235  12.682
    1STR    C0I 1404   6.669  17.439  12.727
    1STR    O0J 1405   6.787  17.367  12.771
    1STR    C0K 1406   6.917  17.424  12.742
    1STR    C0M 1407   6.936   0.115  12.820
    1STR    C0N 1408   7.032  17.325  12.780
    1STR    O0O 1409   7.162  17.375  12.741
    1STR    C0P 1410   7.273  17.362  12.820
    1STR    O0Q 1411   7.275  17.317  12.935
    1STR    N0R 1412   7.380  17.406  12.753
    1STR    C0S 1413   7.517  17.427  12.782
    1STR    C0T 1414   7.589   0.046  12.676
    1STR    C0U 1415   7.722   0.086  12.692
    1STR    C0V 1416   7.789   0.065  12.814
    1STR    C0W 1417   7.927   0.129  12.827
    1STR    C0X 1418   7.726  17.432  12.919
    1STR    N0Y 1419   7.797  17.404  13.039
    1STR   BCK2 1420   7.924  17.357  13.051
    1STR    O10 1421   7.990  17.316  12.956
    1STR    C13 1422   7.588  17.398  12.903
    1STR    C14 1423   5.634   0.120  12.748
    1STR    C15 1424   5.496   0.130  12.725
    1STR    C16 1425   5.402   0.064  12.807
    1STR    C17 1426   5.257   0.070  12.763
    1STR    H1B 1427   5.385  17.266  13.028
    1STR    H1C 1428   5.624  17.363  13.025
    1STR    H1D 1429   5.857  17.425  12.960
    1STR    H1E 1430   6.157   0.043  12.664
    1STR    H1F 1431   6.225   0.229  12.899
    1STR    H1G 1432   6.295   0.238  12.737
    1STR    H1H 1433   6.124   0.271  12.761
    1STR    H1I 1434   6.272  17.306  12.788
    1STR    H1J 1435   6.314  17.416  12.917
    1STR    H1K 1436   6.542  17.341  12.871
    1STR    H1M 1437   6.510  17.257  12.576
    1STR    H1N 1438   6.439  17.174  12.715
    1STR    H1O 1439   6.613  17.174  12.693
    1STR    H1P 1440   6.673   0.016  12.619
    1STR    H1Q 1441   6.667   0.097  12.773
    1STR    H1R 1442   6.923   0.004  12.635
    1STR    H1S 1443   7.036   0.155  12.804
    1STR    H1T 1444   6.924   0.099  12.927
    1STR    H1U 1445   6.866   0.193  12.789
    1STR    H1V 1446   7.017  17.230  12.729
    1STR    H1W 1447   7.030  17.303  12.887
    1STR    H1X 1448   7.351  17.432  12.661
    1STR    H1Y 1449   7.542   0.067  12.581
    1STR    H1Z 1450   7.772   0.136  12.611
    1STR    H20 1451   7.948   0.156  12.930
    1STR    H21 1452   8.004   0.061  12.791
    1STR    H22 1453   7.933   0.221  12.768
    1STR    H23 1454   7.749  17.419  13.125
    1STR    H27 1455   7.534  17.349  12.983
    1STR    H28 1456   5.698   0.172  12.680
    1STR    H29 1457   5.462   0.187  12.640
    1STR    H2A 1458   5.205  17.417  12.785
    1STR    H2B 1459   5.249   0.086  12.656
    1STR    H2C 1460   5.206   0.152  12.814
    1STR   BCK1 1461   5.243   4.286   0.132
    1STR    O03 1462   5.236   4.232   0.242
    1STR    N04 1463   5.344   4.367   0.096
    1STR    C05 1464   5.444   4.421   0.181
    1STR    C06 1465   5.584   4.415   0.150
    1STR    C07 1466   5.685   4.471   0.236
    1STR    N08 1467   5.823   4.468   0.202
    1STR    C09 1468   5.932   4.498   0.277
    1STR    O0A 1469   5.927   4.528   0.396
    1STR    O0B 1470   6.051   4.493   0.208
    1STR    C0C 1471   6.177   4.518   0.278
    1STR    C0D 1472   6.216   4.392   0.357
    1STR    C0E 1473   6.294   4.562   0.184
    1STR    O0F 1474   6.417   4.584   0.257
    1STR    C0G 1475   6.532   4.628   0.183
    1STR    C0H 1476   6.518   4.779   0.154
    1STR    C0I 1477   6.664   4.600   0.261
    1STR    O0J 1478   6.783   4.623   0.182
    1STR    C0K 1479   6.910   4.600   0.248
    1STR    C0M 1480   6.930   4.450   0.275
    1STR    C0N 1481   7.030   4.652   0.162
    1STR    O0O 1482   7.151   4.651   0.240
    1STR    C0P 1483   7.268   4.596   0.196
    1STR    O0Q 1484   7.286   4.537   0.090
    1STR    N0R 1485   7.361   4.618   0.289
    1STR    C0S 1486   7.497   4.587   0.307
    1STR    C0T 1487   7.553   4.637   0.426
    1STR    C0U 1488   7.688   4.616   0.457
    1STR    C0V 1489   7.773   4.544   0.370
    1STR    C0W 1490   7.918   4.538   0.411
    1STR    C0X 1491   7.721   4.489   0.249
    1STR    N0Y 1492   7.800   4.429   0.149
    1STR   BCK2 1493   7.918   4.365   0.130
    1STR    O10 1494   7.956   4.352   0.014
    1STR    C13 1495   7.582   4.512   0.220
    1STR    C14 1496   5.639   4.534   0.354
    1STR    C15 1497   5.503   4.544   0.384
    1STR    C16 1498   5.405   4.492   0.298
    1STR    C17 1499   5.259   4.520   0.332
    1STR    H1B 1500   5.345   4.396  17.439
    1STR    H1C 1501   5.614   4.365   0.060
    1STR    H1D 1502   5.848   4.438   0.110
    1STR    H1E 1503   6.161   4.600   0.349
    1STR    H1F 1504   6.234   4.307   0.292
    1STR    H1G 1505   6.308   4.410   0.414
    1STR    H1H 1506   6.139   4.364   0.429
    1STR    H1I 1507   6.264   4.654   0.133
    1STR    H1J 1508   6.310   4.487   0.107
    1STR    H1K 1509   6.537   4.573   0.089
    1STR    H1M 1510   6.506   4.835   0.246
    1STR    H1N 1511   6.433   4.801   0.090
    1STR    H1O 1512   6.607   4.817   0.104
    1STR    H1P 1513   6.666   4.660   0.352
    1STR    H1Q 1514   6.661   4.496   0.294
    1STR    H1R 1515   6.911   4.656   0.342
    1STR    H1S 1516   7.029   4.432   0.317
    1STR    H1T 1517   6.922   4.393   0.183
    1STR    H1U 1518   6.858   4.411   0.347
    1STR    H1V 1519   7.012   4.754   0.131
    1STR    H1W 1520   7.041   4.593   0.070
    1STR    H1X 1521   7.319   4.672   0.363
    1STR    H1Y 1522   7.494   4.695   0.495
    1STR    H1Z 1523   7.727   4.658   0.548
    1STR    H20 1524   7.938   4.442   0.457
    1STR    H21 1525   7.983   4.556   0.326
    1STR    H22 1526   7.942   4.614   0.486
    1STR    H23 1527   7.758   4.437   0.057
    1STR    H27 1528   7.539   4.474   0.128
    1STR    H28 1529   5.706   4.579   0.425
    1STR    H29 1530   5.473   4.595   0.474
    1STR    H2A 1531   5.201   4.541   0.242
    1STR    H2B 1532   5.250   4.607   0.397
    1STR    H2C 1533   5.215   4.435   0.384
    1STR   BCK1 1534   5.230   4.237   4.394
    1STR    O03 1535   5.199   4.278   4.283
    1STR    N04 1536   5.351   4.189   4.427
    1STR    C05 1537   5.451   4.138   4.342
    1STR    C06 1538   5.589   4.167   4.362
    1STR    C07 1539   5.692   4.105   4.286
    1STR    N08 1540   5.830   4.129   4.310
    1STR    C09 1541   5.937   4.053   4.277
    1STR    O0A 1542   5.929   3.944   4.222
    1STR    O0B 1543   6.057   4.111   4.311
    1STR    C0C 1544   6.182   4.048   4.270
    1STR    C0D 1545   6.213   4.090   4.126
    1STR    C0E 1546   6.300   4.082   4.365
    1STR    O0F 1547   6.422   4.016   4.324
    1STR    C0G 1548   6.537   4.033   4.409
    1STR    C0H 1549   6.522   3.942   4.532
    1STR    C0I 1550   6.669   3.999   4.332
    1STR    O0J 1551   6.786   4.031   4.410
    1STR    C0K 1552   6.915   4.003   4.350
    1STR    C0M 1553   6.940   4.098   4.233
    1STR    C0N 1554   7.029   4.018   4.455
    1STR    O0O 1555   7.155   3.972   4.404
    1STR    C0P 1556   7.272   4.037   4.428
    1STR    O0Q 1557   7.283   4.143   4.488
    1STR    N0R 1558   7.374   3.968   4.375
    1STR    C0S 1559   7.511   3.993   4.360
    1STR    C0T 1560   7.580   3.906   4.273
    1STR    C0U 1561   7.714   3.928   4.239
    1STR    C0V 1562   7.786   4.037   4.293
    1STR    C0W 1563   7.922   4.066   4.233
    1STR    C0X 1564   7.725   4.120   4.391
    1STR    N0Y 1565   7.788   4.232   4.446
    1STR   BCK2 1566   7.911   4.263   4.493
    1STR    O10 1567   7.932   4.380   4.524
    1STR    C13 1568   7.586   4.098   4.420
    1STR    C14 1569   5.651   4.016   4.183
    1STR    C15 1570   5.516   3.985   4.163
    1STR    C16 1571   5.416   4.042   4.243
    1STR    C17 1572   5.274   3.991   4.224
    1STR    H1B 1573   5.366   4.180   4.526
    1STR    H1C 1574   5.616   4.237   4.440
    1STR    H1D 1575   5.855   4.213   4.360
    1STR    H1E 1576   6.169   3.940   4.273
    1STR    H1F 1577   6.227   4.197   4.117
    1STR    H1G 1578   6.304   4.041   4.090
    1STR    H1H 1579   6.132   4.061   4.058
    1STR    H1I 1580   6.273   4.051   4.466
    1STR    H1J 1581   6.316   4.190   4.368
    1STR    H1K 1582   6.544   4.137   4.441
    1STR    H1M 1583   6.508   3.838   4.502
    1STR    H1N 1584   6.438   3.970   4.594
    1STR    H1O 1585   6.611   3.947   4.595
    1STR    H1P 1586   6.669   3.894   4.305
    1STR    H1Q 1587   6.669   4.056   4.239
    1STR    H1R 1588   6.915   3.899   4.315
    1STR    H1S 1589   7.041   4.083   4.192
    1STR    H1T 1590   6.933   4.202   4.264
    1STR    H1U 1591   6.871   4.083   4.150
    1STR    H1V 1592   7.006   3.958   4.544
    1STR    H1W 1593   7.035   4.121   4.489
    1STR    H1X 1594   7.339   3.883   4.334
    1STR    H1Y 1595   7.529   3.823   4.226
    1STR    H1Z 1596   7.762   3.864   4.167
    1STR    H20 1597   7.946   4.173   4.238
    1STR    H21 1598   8.000   4.010   4.284
    1STR    H22 1599   7.925   4.039   4.128
    1STR    H23 1600   7.728   4.312   4.457
    1STR    H27 1601   7.535   4.164   4.489
    1STR    H28 1602   5.723   3.968   4.118
    1STR    H29 1603   5.490   3.914   4.087
    1STR    H2A 1604   5.223   3.981   4.320
    1STR    H2B 1605   5.273   3.893   4.177
    1STR    H2C 1606   5.217   4.059   4.161
    1STR   BCK1 1607   5.232   4.374   8.750
    1STR    O03 1608   5.184   4.466   8.816
    1STR    N04 1609   5.353   4.377   8.689
    1STR    C05 1610   5.443   4.484   8.665
    1STR    C06 1611   5.586   4.463   8.668
    1STR    C07 1612   5.681   4.566   8.636
    1STR    N08 1613   5.822   4.541   8.633
    1STR    C09 1614   5.927   4.624   8.603
    1STR    O0A 1615   5.915   4.743   8.576
    1STR    O0B 1616   6.051   4.562   8.606
    1STR    C0C 1617   6.172   4.640   8.585
    1STR    C0D 1618   6.207   4.714   8.715
    1STR    C0E 1619   6.295   4.555   8.536
    1STR    O0F 1620   6.417   4.633   8.522
    1STR    C0G 1621   6.534   4.565   8.472
    1STR    C0H 1622   6.522   4.551   8.320
    1STR    C0I 1623   6.666   4.641   8.509
    1STR    O0J 1624   6.786   4.563   8.481
    1STR    C0K 1625   6.915   4.623   8.512
    1STR    C0M 1626   6.930   4.641   8.664
    1STR    C0N 1627   7.034   4.537   8.459
    1STR    O0O 1628   7.162   4.602   8.477
    1STR    C0P 1629   7.272   4.538   8.529
    1STR    O0Q 1630   7.274   4.426   8.578
    1STR    N0R 1631   7.378   4.618   8.515
    1STR    C0S 1632   7.515   4.613   8.550
    1STR    C0T 1633   7.590   4.720   8.498
    1STR    C0U 1634   7.725   4.738   8.532
    1STR    C0V 1635   7.790   4.650   8.620
    1STR    C0W 1636   7.930   4.688   8.665
    1STR    C0X 1637   7.722   4.534   8.667
    1STR    N0Y 1638   7.789   4.445   8.755
    1STR   BCK2 1639   7.914   4.394   8.741
    1STR    O10 1640   7.976   4.396   8.635
    1STR    C13 1641   7.583   4.518   8.634
    1STR    C14 1642   5.628   4.693   8.604
    1STR    C15 1643   5.490   4.715   8.598
    1STR    C16 1644   5.398   4.612   8.625
    1STR    C17 1645   5.251   4.645   8.599
    1STR    H1B 1646   5.381   4.287   8.655
    1STR    H1C 1647   5.623   4.366   8.695
    1STR    H1D 1648   5.854   4.449   8.655
    1STR    H1E 1649   6.152   4.714   8.508
    1STR    H1F 1650   6.228   4.644   8.797
    1STR    H1G 1651   6.295   4.777   8.702
    1STR    H1H 1652   6.126   4.779   8.747
    1STR    H1I 1653   6.269   4.511   8.440
    1STR    H1J 1654   6.312   4.473   8.605
    1STR    H1K 1655   6.540   4.466   8.518
    1STR    H1M 1656   6.509   4.648   8.272
    1STR    H1N 1657   6.438   4.488   8.290
    1STR    H1O 1658   6.611   4.506   8.277
    1STR    H1P 1659   6.670   4.736   8.456
    1STR    H1Q 1660   6.662   4.665   8.615
    1STR    H1R 1661   6.920   4.721   8.463
    1STR    H1S 1662   7.029   4.680   8.688
    1STR    H1T 1663   6.919   4.545   8.715
    1STR    H1U 1664   6.858   4.711   8.706
    1STR    H1V 1665   7.022   4.519   8.352
    1STR    H1W 1666   7.033   4.438   8.506
    1STR    H1X 1667   7.349   4.701   8.467
    1STR    H1Y 1668   7.546   4.793   8.432
    1STR    H1Z 1669   7.778   4.824   8.493
    1STR    H20 1670   7.947   4.660   8.769
    1STR    H21 1671   8.005   4.641   8.603
    1STR    H22 1672   7.945   4.796   8.660
    1STR    H23 1673   7.742   4.420   8.840
    1STR    H27 1674   7.527   4.434   8.672
    1STR    H28 1675   5.690   4.778   8.580
    1STR    H29 1676   5.455   4.813   8.570
    1STR    H2A 1677   5.197   4.559   8.562
    1STR    H2B 1678   5.241   4.724   8.524
    1STR    H2C 1679   5.204   4.681   8.691
    1STR   BCK1 1680   5.224   4.284  13.150
    1STR    O03 1681   5.182   4.360  13.063
    1STR    N04 1682   5.352   4.299  13.190
    1STR    C05 1683   5.446   4.250  13.283
    1STR    C06 1684   5.585   4.272  13.254
    1STR    C07 1685   5.692   4.234  13.342
    1STR    N08 1686   5.828   4.264  13.313
    1STR    C09 1687   5.940   4.220  13.375
    1STR    O0A 1688   5.942   4.138  13.466
    1STR    O0B 1689   6.056   4.277  13.325
    1STR    C0C 1690   6.184   4.236  13.379
    1STR    C0D 1691   6.223   4.098  13.321
    1STR    C0E 1692   6.298   4.339  13.356
    1STR    O0F 1693   6.422   4.294  13.416
    1STR    C0G 1694   6.536   4.382  13.407
    1STR    C0H 1695   6.520   4.496  13.509
    1STR    C0I 1696   6.667   4.303  13.434
    1STR    O0J 1697   6.785   4.383  13.409
    1STR    C0K 1698   6.912   4.321  13.435
    1STR    C0M 1699   6.941   4.211  13.332
    1STR    C0N 1700   7.027   4.427  13.432
    1STR    O0O 1701   7.148   4.374  13.488
    1STR    C0P 1702   7.268   4.381  13.424
    1STR    O0Q 1703   7.287   4.426  13.311
    1STR    N0R 1704   7.361   4.326  13.502
    1STR    C0S 1705   7.495   4.289  13.481
    1STR    C0T 1706   7.544   4.190  13.568
    1STR    C0U 1707   7.670   4.133  13.549
    1STR    C0V 1708   7.753   4.175  13.443
    1STR    C0W 1709   7.874   4.089  13.414
    1STR    C0X 1710   7.715   4.287  13.364
    1STR    N0Y 1711   7.796   4.339  13.261
    1STR   BCK2 1712   7.927   4.363  13.244
    1STR    O10 1713   7.967   4.398  13.134
    1STR    C13 1714   7.583   4.339  13.381
    1STR    C14 1715   5.654   4.172  13.463
    1STR    C15 1716   5.519   4.150  13.495
    1STR    C16 1717   5.415   4.191  13.409
    1STR    C17 1718   5.276   4.176  13.465
    1STR    H1B 1719   5.390   4.369  13.128
    1STR    H1C 1720   5.612   4.319  13.161
    1STR    H1D 1721   5.848   4.325  13.236
    1STR    H1E 1722   6.173   4.226  13.487
    1STR    H1F 1723   6.236   4.103  13.213
    1STR    H1G 1724   6.316   4.063  13.365
    1STR    H1H 1725   6.147   4.023  13.343
    1STR    H1I 1726   6.268   4.435  13.398
    1STR    H1J 1727   6.313   4.354  13.249
    1STR    H1K 1728   6.542   4.422  13.306
    1STR    H1M 1729   6.507   4.456  13.610
    1STR    H1N 1730   6.435   4.560  13.487
    1STR    H1O 1731   6.609   4.559  13.510
    1STR    H1P 1732   6.668   4.266  13.537
    1STR    H1Q 1733   6.668   4.215  13.369
    1STR    H1R 1734   6.910   4.278  13.536
    1STR    H1S 1735   7.041   4.170  13.346
    1STR    H1T 1736   6.936   4.250  13.231
    1STR    H1U 1737   6.871   4.127  13.339
    1STR    H1V 1738   6.998   4.513  13.491
    1STR    H1W 1739   7.042   4.464  13.330
    1STR    H1X 1740   7.320   4.299  13.589
    1STR    H1Y 1741   7.483   4.151  13.648
    1STR    H1Z 1742   7.702   4.051  13.612
    1STR    H20 1743   7.908   4.100  13.311
    1STR    H21 1744   7.956   4.111  13.482
    1STR    H22 1745   7.849   3.983  13.426
    1STR    H23 1746   7.745   4.369  13.179
    1STR    H27 1747   7.548   4.418  13.317
    1STR    H28 1748   5.725   4.141  13.537
    1STR    H29 1749   5.496   4.104  13.590
    1STR    H2A 1750   5.214   4.262  13.441
    1STR    H2B 1751   5.277   4.166  13.573
    1STR    H2C 1752   5.231   4.084  13.426
    1STR   BCK1 1753   5.233   8.621  17.417
    1STR    O03 1754   5.187   8.724  17.370
    1STR    N04 1755   5.358   8.575  17.394
    1STR    C05 1756   5.450   8.607  17.292
    1STR    C06 1757   5.591   8.609  17.319
    1STR    C07 1758   5.689   8.626  17.216
    1STR    N08 1759   5.829   8.622  17.243
    1STR    C09 1760   5.933   8.603  17.159
    1STR    O0A 1761   5.921   8.583  17.038
    1STR    O0B 1762   6.056   8.609  17.221
    1STR    C0C 1763   6.179   8.602  17.143
    1STR    C0D 1764   6.209   8.741  17.085
    1STR    C0E 1765   6.300   8.548  17.225
    1STR    O0F 1766   6.422   8.542  17.147
    1STR    C0G 1767   6.538   8.485  17.212
    1STR    C0H 1768   6.524   8.331  17.213
    1STR    C0I 1769   6.671   8.526  17.141
    1STR    O0J 1770   6.788   8.487  17.217
    1STR    C0K 1771   6.918   8.517  17.162
    1STR    C0M 1772   6.940   8.669  17.159
    1STR    C0N 1773   7.032   8.450  17.246
    1STR    O0O 1774   7.161   8.466  17.185
    1STR    C0P 1775   7.275   8.490  17.257
    1STR    O0Q 1776   7.280   8.509  17.378
    1STR    N0R 1777   7.380   8.492  17.175
    1STR    C0S 1778   7.517   8.524  17.187
    1STR    C0T 1779   7.583   8.542  17.064
    1STR    C0U 1780   7.715   8.587  17.059
    1STR    C0V 1781   7.788   8.612  17.176
    1STR    C0W 1782   7.922   8.681  17.158
    1STR    C0X 1783   7.732   8.580  17.304
    1STR    N0Y 1784   7.806   8.594  17.423
    1STR   BCK2 1785   7.936   8.564   0.008
    1STR    O10 1786   8.011   8.509  17.368
    1STR    C13 1787   7.593   8.541  17.307
    1STR    C14 1788   5.641   8.647  17.084
    1STR    C15 1789   5.504   8.643  17.056
    1STR    C16 1790   5.409   8.620  17.157
    1STR    C17 1791   5.264   8.603  17.112
    1STR    H1B 1792   5.385   8.501   0.017
    1STR    H1C 1793   5.624   8.596  17.420
    1STR    H1D 1794   5.858   8.634  17.338
    1STR    H1E 1795   6.163   8.532  17.060
    1STR    H1F 1796   6.226   8.814  17.163
    1STR    H1G 1797   6.299   8.738  17.022
    1STR    H1H 1798   6.127   8.776  17.022
    1STR    H1I 1799   6.274   8.449  17.262
    1STR    H1J 1800   6.316   8.611  17.312
    1STR    H1K 1801   6.543   8.522  17.315
    1STR    H1M 1802   6.511   8.292  17.112
    1STR    H1N 1803   6.439   8.298  17.273
    1STR    H1O 1804   6.613   8.285  17.255
    1STR    H1P 1805   6.675   8.482  17.041
    1STR    H1Q 1806   6.670   8.634  17.128
    1STR    H1R 1807   6.923   8.477  17.060
    1STR    H1S 1808   7.041   8.693  17.124
    1STR    H1T 1809   6.929   8.712  17.258
    1STR    H1U 1810   6.871   8.720  17.092
    1STR    H1V 1811   7.013   8.343  17.254
    1STR    H1W 1812   7.032   8.489  17.348
    1STR    H1X 1813   7.349   8.470  17.082
    1STR    H1Y 1814   7.531   8.527  16.970
    1STR    H1Z 1815   7.761   8.606  16.963
    1STR    H20 1816   7.948   8.741  17.246
    1STR    H21 1817   8.001   8.608  17.140
    1STR    H22 1818   7.920   8.749  17.073
    1STR    H23 1819   7.756   8.625   0.064
    1STR    H27 1820   7.545   8.523  17.401
    1STR    H28 1821   5.708   8.664  17.001
    1STR    H29 1822   5.472   8.655  16.953
    1STR    H2A 1823   5.213   8.527  17.171
    1STR    H2B 1824   5.258   8.571  17.008
    1STR    H2C 1825   5.210   8.697  17.121
    1STR   BCK1 1826   5.231   8.702   4.481
    1STR    O03 1827   5.190   8.733   4.592
    1STR    N04 1828   5.349   8.744   4.428
    1STR    C05 1829   5.442   8.841   4.474
    1STR    C06 1830   5.584   8.823   4.456
    1STR    C07 1831   5.681   8.921   4.496
    1STR    N08 1832   5.821   8.904   4.471
    1STR    C09 1833   5.928   8.976   4.516
    1STR    O0A 1834   5.919   9.066   4.599
    1STR    O0B 1835   6.049   8.937   4.462
    1STR    C0C 1836   6.173   9.000   4.508
    1STR    C0D 1837   6.212   8.939   4.644
    1STR    C0E 1838   6.292   8.988   4.407
    1STR    O0F 1839   6.415   9.046   4.458
    1STR    C0G 1840   6.532   9.043   4.373
    1STR    C0H 1841   6.519   9.154   4.268
    1STR    C0I 1842   6.663   9.061   4.455
    1STR    O0J 1843   6.783   9.038   4.378
    1STR    C0K 1844   6.910   9.052   4.446
    1STR    C0M 1845   6.928   8.940   4.549
    1STR    C0N 1846   7.031   9.047   4.347
    1STR    O0O 1847   7.155   9.081   4.412
    1STR    C0P 1848   7.268   9.004   4.402
    1STR    O0Q 1849   7.276   8.894   4.349
    1STR    N0R 1850   7.370   9.071   4.458
    1STR    C0S 1851   7.507   9.048   4.480
    1STR    C0T 1852   7.578   9.161   4.526
    1STR    C0U 1853   7.712   9.152   4.562
    1STR    C0V 1854   7.782   9.030   4.556
    1STR    C0W 1855   7.923   9.028   4.613
    1STR    C0X 1856   7.717   8.914   4.505
    1STR    N0Y 1857   7.786   8.791   4.509
    1STR   BCK2 1858   7.912   8.766   4.469
    1STR    O10 1859   7.971   8.833   4.384
    1STR    C13 1860   7.578   8.924   4.468
    1STR    C14 1861   5.632   9.038   4.557
    1STR    C15 1862   5.494   9.059   4.574
    1STR    C16 1863   5.399   8.965   4.530
    1STR    C17 1864   5.254   9.008   4.538
    1STR    H1B 1865   5.373   8.696   4.343
    1STR    H1C 1866   5.618   8.732   4.410
    1STR    H1D 1867   5.849   8.830   4.410
    1STR    H1E 1868   6.154   9.106   4.522
    1STR    H1F 1869   6.232   8.833   4.636
    1STR    H1G 1870   6.302   8.987   4.683
    1STR    H1H 1871   6.134   8.954   4.718
    1STR    H1I 1872   6.264   9.038   4.314
    1STR    H1J 1873   6.309   8.883   4.382
    1STR    H1K 1874   6.537   8.946   4.324
    1STR    H1M 1875   6.506   9.252   4.315
    1STR    H1N 1876   6.434   9.139   4.201
    1STR    H1O 1877   6.608   9.159   4.206
    1STR    H1P 1878   6.666   9.161   4.499
    1STR    H1Q 1879   6.660   8.992   4.539
    1STR    H1R 1880   6.913   9.149   4.496
    1STR    H1S 1881   7.027   8.945   4.596
    1STR    H1T 1882   6.920   8.842   4.502
    1STR    H1U 1883   6.855   8.945   4.630
    1STR    H1V 1884   7.016   9.120   4.267
    1STR    H1W 1885   7.037   8.950   4.297
    1STR    H1X 1886   7.336   9.160   4.488
    1STR    H1Y 1887   7.529   9.256   4.536
    1STR    H1Z 1888   7.762   9.240   4.600
    1STR    H20 1889   7.938   8.940   4.676
    1STR    H21 1890   7.997   9.027   4.533
    1STR    H22 1891   7.943   9.115   4.675
    1STR    H23 1892   7.740   8.715   4.556
    1STR    H27 1893   7.525   8.837   4.433
    1STR    H28 1894   5.696   9.117   4.591
    1STR    H29 1895   5.461   9.151   4.619
    1STR    H2A 1896   5.195   8.966   4.456
    1STR    H2B 1897   5.244   9.116   4.531
    1STR    H2C 1898   5.210   8.977   4.633
    1STR   BCK1 1899   5.225   8.638   8.788
    1STR    O03 1900   5.179   8.739   8.736
    1STR    N04 1901   5.355   8.611   8.767
    1STR    C05 1902   5.447   8.506   8.789
    1STR    C06 1903   5.586   8.540   8.801
    1STR    C07 1904   5.690   8.442   8.809
    1STR    N08 1905   5.827   8.480   8.815
    1STR    C09 1906   5.939   8.403   8.813
    1STR    O0A 1907   5.939   8.281   8.805
    1STR    O0B 1908   6.055   8.476   8.819
    1STR    C0C 1909   6.183   8.407   8.813
    1STR    C0D 1910   6.215   8.370   8.667
    1STR    C0E 1911   6.299   8.488   8.876
    1STR    O0F 1912   6.422   8.412   8.875
    1STR    C0G 1913   6.537   8.471   8.938
    1STR    C0H 1914   6.522   8.460   9.091
    1STR    C0I 1915   6.667   8.401   8.891
    1STR    O0J 1916   6.785   8.469   8.940
    1STR    C0K 1917   6.913   8.412   8.906
    1STR    C0M 1918   6.940   8.430   8.756
    1STR    C0N 1919   7.027   8.478   8.989
    1STR    O0O 1920   7.150   8.407   8.974
    1STR    C0P 1921   7.269   8.470   8.955
    1STR    O0Q 1922   7.285   8.591   8.942
    1STR    N0R 1923   7.366   8.378   8.949
    1STR    C0S 1924   7.503   8.384   8.917
    1STR    C0T 1925   7.563   8.262   8.882
    1STR    C0U 1926   7.695   8.257   8.834
    1STR    C0V 1927   7.773   8.374   8.824
    1STR    C0W 1928   7.904   8.362   8.749
    1STR    C0X 1929   7.721   8.497   8.873
    1STR    N0Y 1930   7.794   8.617   8.867
    1STR   BCK2 1931   7.921   8.654   8.894
    1STR    O10 1932   7.954   8.769   8.868
    1STR    C13 1933   7.584   8.501   8.914
    1STR    C14 1934   5.650   8.307   8.810
    1STR    C15 1935   5.515   8.271   8.797
    1STR    C16 1936   5.414   8.368   8.782
    1STR    C17 1937   5.276   8.314   8.752
    1STR    H1B 1938   5.395   8.691   8.722
    1STR    H1C 1939   5.614   8.644   8.802
    1STR    H1D 1940   5.849   8.578   8.819
    1STR    H1E 1941   6.175   8.314   8.871
    1STR    H1F 1942   6.226   8.458   8.604
    1STR    H1G 1943   6.308   8.313   8.661
    1STR    H1H 1944   6.136   8.307   8.623
    1STR    H1I 1945   6.272   8.514   8.978
    1STR    H1J 1946   6.314   8.581   8.821
    1STR    H1K 1947   6.543   8.576   8.909
    1STR    H1M 1948   6.508   8.357   9.121
    1STR    H1N 1949   6.437   8.518   9.129
    1STR    H1O 1950   6.611   8.498   9.141
    1STR    H1P 1951   6.667   8.297   8.924
    1STR    H1Q 1952   6.668   8.400   8.782
    1STR    H1R 1953   6.911   8.305   8.931
    1STR    H1S 1954   7.041   8.394   8.731
    1STR    H1T 1955   6.935   8.535   8.728
    1STR    H1U 1956   6.871   8.374   8.693
    1STR    H1V 1957   7.001   8.478   9.095
    1STR    H1W 1958   7.037   8.583   8.961
    1STR    H1X 1959   7.328   8.287   8.964
    1STR    H1Y 1960   7.507   8.170   8.885
    1STR    H1Z 1961   7.736   8.163   8.801
    1STR    H20 1962   7.935   8.457   8.706
    1STR    H21 1963   7.983   8.326   8.815
    1STR    H22 1964   7.895   8.292   8.666
    1STR    H23 1965   7.740   8.697   8.838
    1STR    H27 1966   7.540   8.595   8.944
    1STR    H28 1967   5.719   8.225   8.818
    1STR    H29 1968   5.490   8.166   8.794
    1STR    H2A 1969   5.221   8.300   8.845
    1STR    H2B 1970   5.281   8.217   8.702
    1STR    H2C 1971   5.222   8.380   8.685
    1STR   BCK1 1972   5.232   8.701  13.061
    1STR    O03 1973   5.183   8.810  13.087
    1STR    N04 1974   5.355   8.682  13.007
    1STR    C05 1975   5.445   8.773  12.945
    1STR    C06 1976   5.588   8.757  12.960
    1STR    C07 1977   5.683   8.838  12.890
    1STR    N08 1978   5.824   8.817  12.901
    1STR    C09 1979   5.928   8.871  12.832
    1STR    O0A 1980   5.915   8.954  12.742
    1STR    O0B 1981   6.052   8.824  12.870
    1STR    C0C 1982   6.174   8.881  12.813
    1STR    C0D 1983   6.206   9.013  12.884
    1STR    C0E 1984   6.297   8.784  12.818
    1STR    O0F 1985   6.418   8.843  12.765
    1STR    C0G 1986   6.536   8.758  12.759
    1STR    C0H 1987   6.523   8.665  12.638
    1STR    C0I 1988   6.668   8.841  12.750
    1STR    O0J 1989   6.787   8.759  12.768
    1STR    C0K 1990   6.916   8.824  12.761
    1STR    C0M 1991   6.934   8.921  12.879
    1STR    C0N 1992   7.033   8.720  12.764
    1STR    O0O 1993   7.163   8.781  12.745
    1STR    C0P 1994   7.273   8.746  12.819
    1STR    O0Q 1995   7.274   8.670  12.915
    1STR    N0R 1996   7.380   8.809  12.769
    1STR    C0S 1997   7.517   8.820  12.803
    1STR    C0T 1998   7.590   8.902  12.715
    1STR    C0U 1999   7.724   8.935  12.740
    1STR    C0V 2000   7.790   8.887  12.854
    1STR    C0W 2001   7.928   8.945  12.883
    1STR    C0X 2002   7.725   8.793  12.940
    1STR    N0Y 2003   7.795   8.739  13.051
    1STR   BCK2 2004   7.921   8.691  13.055
    1STR    O10 2005   7.987   8.667  12.954
    1STR    C13 2006   7.586   8.764  12.915
    1STR    C14 2007   5.631   8.942  12.809
    1STR    C15 2008   5.492   8.958  12.792
    1STR    C16 2009   5.400   8.873  12.855
    1STR    C17 2010   5.254   8.891  12.817
    1STR    H1B 2011   5.384   8.586  13.010
    1STR    H1C 2012   5.624   8.679  13.025
    1STR    H1D 2013   5.856   8.751  12.970
    1STR    H1E 2014   6.155   8.903  12.707
    1STR    H1F 2015   6.226   8.998  12.990
    1STR    H1G 2016   6.294   9.061  12.840
    1STR    H1H 2017   6.124   9.084  12.875
    1STR    H1I 2018   6.271   8.694  12.761
    1STR    H1J 2019   6.314   8.753  12.921
    1STR    H1K 2020   6.541   8.699  12.851
    1STR    H1M 2021   6.510   8.722  12.546
    1STR    H1N 2022   6.439   8.597  12.647
    1STR    H1O 2023   6.613   8.604  12.626
    1STR    H1P 2024   6.673   8.893  12.654
    1STR    H1Q 2025   6.665   8.918  12.827
    1STR    H1R 2026   6.923   8.879  12.667
    1STR    H1S 2027   7.033   8.965  12.878
    1STR    H1T 2028   6.921   8.869  12.974
    1STR    H1U 2029   6.863   9.004  12.876
    1STR    H1V 2030   7.020   8.648  12.683
    1STR    H1W 2031   7.030   8.662  12.856
    1STR    H1X 2032   7.351   8.861  12.688
    1STR    H1Y 2033   7.544   8.944  12.627
    1STR    H1Z 2034   7.775   9.002  12.673
    1STR    H20 2035   7.948   8.949  12.990
    1STR    H21 2036   8.005   8.885  12.835
    1STR    H22 2037   7.936   9.046  12.845
    1STR    H23 2038   7.746   8.737  13.139
    1STR    H27 2039   7.532   8.698  12.981
    1STR    H28 2040   5.694   9.011  12.756
    1STR    H29 2041   5.458   9.036  12.726
    1STR    H2A 2042   5.201   8.796  12.815
    1STR    H2B 2043   5.245   8.934  12.717
    1STR    H2C 2044   5.204   8.958  12.886
    1STR   BCK1 2045   5.223  12.973   0.123
    1STR    O03 2046   5.193  12.901   0.218
    1STR    N04 2047   5.338  13.043   0.114
    1STR    C05 2048   5.438  13.067   0.211
    1STR    C06 2049   5.578  13.070   0.176
    1STR    C07 2050   5.681  13.098   0.272
    1STR    N08 2051   5.819  13.107   0.235
    1STR    C09 2052   5.930  13.112   0.314
    1STR    O0A 2053   5.928  13.099   0.436
    1STR    O0B 2054   6.048  13.132   0.244
    1STR    C0C 2055   6.175  13.132   0.316
    1STR    C0D 2056   6.215  12.987   0.347
    1STR    C0E 2057   6.291  13.207   0.242
    1STR    O0F 2058   6.414  13.202   0.318
    1STR    C0G 2059   6.529  13.270   0.263
    1STR    C0H 2060   6.515  13.421   0.288
    1STR    C0I 2061   6.661  13.217   0.326
    1STR    O0J 2062   6.779  13.268   0.260
    1STR    C0K 2063   6.907  13.228   0.313
    1STR    C0M 2064   6.931  13.078   0.290
    1STR    C0N 2065   7.024  13.309   0.250
    1STR    O0O 2066   7.145  13.288   0.324
    1STR    C0P 2067   7.263  13.251   0.267
    1STR    O0Q 2068   7.282  13.227   0.148
    1STR    N0R 2069   7.354  13.243   0.363
    1STR    C0S 2070   7.489  13.203   0.373
    1STR    C0T 2071   7.536  13.195   0.505
    1STR    C0U 2072   7.668  13.157   0.532
    1STR    C0V 2073   7.759  13.129   0.428
    1STR    C0W 2074   7.899  13.095   0.474
    1STR    C0X 2075   7.717  13.137   0.292
    1STR    N0Y 2076   7.802  13.127   0.179
    1STR   BCK2 2077   7.923  13.082   0.140
    1STR    O10 2078   7.966  13.121   0.032
    1STR    C13 2079   7.580  13.173   0.268
    1STR    C14 2080   5.640  13.123   0.404
    1STR    C15 2081   5.504  13.125   0.440
    1STR    C16 2082   5.403  13.102   0.345
    1STR    C17 2083   5.260  13.125   0.390
    1STR    H1B 2084   5.352  13.086   0.024
    1STR    H1C 2085   5.606  13.049   0.074
    1STR    H1D 2086   5.842  13.111   0.137
    1STR    H1E 2087   6.160  13.184   0.411
    1STR    H1F 2088   6.232  12.930   0.255
    1STR    H1G 2089   6.307  12.984   0.405
    1STR    H1H 2090   6.139  12.936   0.405
    1STR    H1I 2091   6.261  13.310   0.226
    1STR    H1J 2092   6.306  13.162   0.144
    1STR    H1K 2093   6.534  13.250   0.156
    1STR    H1M 2094   6.503  13.442   0.395
    1STR    H1N 2095   6.429  13.464   0.236
    1STR    H1O 2096   6.603  13.474   0.254
    1STR    H1P 2097   6.664  13.242   0.432
    1STR    H1Q 2098   6.660  13.108   0.320
    1STR    H1R 2099   6.907  13.248   0.421
    1STR    H1S 2100   7.031  13.049   0.323
    1STR    H1T 2101   6.925  13.054   0.183
    1STR    H1U 2102   6.861  13.015   0.343
    1STR    H1V 2103   7.001  13.415   0.253
    1STR    H1W 2104   7.037  13.284   0.144
    1STR    H1X 2105   7.311  13.271   0.449
    1STR    H1Y 2106   7.473  13.218   0.589
    1STR    H1Z 2107   7.700  13.152   0.635
    1STR    H20 2108   7.915  12.988   0.462
    1STR    H21 2109   7.972  13.153   0.418
    1STR    H22 2110   7.915  13.118   0.579
    1STR    H23 2111   7.763  13.172   0.098
    1STR    H27 2112   7.543  13.181   0.166
    1STR    H28 2113   5.709  13.146   0.483
    1STR    H29 2114   5.478  13.148   0.542
    1STR    H2A 2115   5.199  13.166   0.310
    1STR    H2B 2116   5.256  13.195   0.473
    1STR    H2C 2117   5.216  13.031   0.425
    1STR   BCK1 2118   5.232  12.958   4.372
    1STR    O03 2119   5.194  13.031   4.281
    1STR    N04 2120   5.356  12.905   4.381
    1STR    C05 2121   5.452  12.886   4.280
    1STR    C06 2122   5.592  12.904   4.306
    1STR    C07 2123   5.692  12.870   4.210
    1STR    N08 2124   5.831  12.884   4.239
    1STR    C09 2125   5.937  12.824   4.180
    1STR    O0A 2126   5.927  12.741   4.090
    1STR    O0B 2127   6.058  12.864   4.231
    1STR    C0C 2128   6.181  12.818   4.170
    1STR    C0D 2129   6.212  12.906   4.048
    1STR    C0E 2130   6.301  12.817   4.270
    1STR    O0F 2131   6.423  12.770   4.208
    1STR    C0G 2132   6.538  12.756   4.294
    1STR    C0H 2133   6.523  12.629   4.378
    1STR    C0I 2134   6.670  12.751   4.210
    1STR    O0J 2135   6.788  12.756   4.294
    1STR    C0K 2136   6.916  12.750   4.229
    1STR    C0M 2137   6.941  12.880   4.149
    1STR    C0N 2138   7.031  12.731   4.333
    1STR    O0O 2139   7.159  12.709   4.269
    1STR    C0P 2140   7.274  12.763   4.318
    1STR    O0Q 2141   7.282  12.842   4.411
    1STR    N0R 2142   7.378  12.719   4.246
    1STR    C0S 2143   7.516  12.748   4.245
    1STR    C0T 2144   7.589  12.691   4.139
    1STR    C0U 2145   7.725  12.723   4.119
    1STR    C0V 2146   7.792  12.812   4.205
    1STR    C0W 2147   7.930  12.857   4.162
    1STR    C0X 2148   7.726  12.863   4.319
    1STR    N0Y 2149   7.784  12.958   4.405
    1STR   BCK2 2150   7.904  12.982   4.462
    1STR    O10 2151   7.919  13.088   4.521
    1STR    C13 2152   7.587  12.833   4.335
    1STR    C14 2153   5.648  12.822   4.085
    1STR    C15 2154   5.512  12.801   4.058
    1STR    C16 2155   5.414  12.829   4.155
    1STR    C17 2156   5.271  12.789   4.123
    1STR    H1B 2157   5.377  12.867   4.472
    1STR    H1C 2158   5.621  12.944   4.402
    1STR    H1D 2159   5.858  12.945   4.314
    1STR    H1E 2160   6.168  12.715   4.136
    1STR    H1F 2161   6.228  13.010   4.076
    1STR    H1G 2162   6.302  12.871   3.997
    1STR    H1H 2163   6.131  12.902   3.975
    1STR    H1I 2164   6.274  12.754   4.354
    1STR    H1J 2165   6.317  12.918   4.310
    1STR    H1K 2166   6.544  12.844   4.359
    1STR    H1M 2167   6.509  12.541   4.314
    1STR    H1N 2168   6.439  12.634   4.446
    1STR    H1O 2169   6.613  12.612   4.438
    1STR    H1P 2170   6.671  12.662   4.148
    1STR    H1Q 2171   6.670  12.836   4.142
    1STR    H1R 2172   6.918  12.665   4.161
    1STR    H1S 2173   7.041  12.881   4.106
    1STR    H1T 2174   6.932  12.967   4.214
    1STR    H1U 2175   6.871  12.892   4.067
    1STR    H1V 2176   7.010  12.645   4.395
    1STR    H1W 2177   7.035  12.817   4.400
    1STR    H1X 2178   7.346  12.653   4.178
    1STR    H1Y 2179   7.542  12.625   4.068
    1STR    H1Z 2180   7.776  12.682   4.033
    1STR    H20 2181   7.950  12.960   4.193
    1STR    H21 2182   8.007  12.792   4.202
    1STR    H22 2183   7.940  12.856   4.053
    1STR    H23 2184   7.720  13.031   4.434
    1STR    H27 2185   7.532  12.876   4.418
    1STR    H28 2186   5.718  12.798   4.006
    1STR    H29 2187   5.483  12.760   3.963
    1STR    H2A 2188   5.220  12.749   4.211
    1STR    H2B 2189   5.268  12.711   4.047
    1STR    H2C 2190   5.215  12.874   4.085
    1STR   BCK1 2191   5.232  13.095   8.789
    1STR    O03 2192   5.188  13.169   8.876
    1STR    N04 2193   5.352  13.113   8.728
    1STR    C05 2194   5.443  13.222   8.730
    1STR    C06 2195   5.586  13.200   8.725
    1STR    C07 2196   5.682  13.307   8.719
    1STR    N08 2197   5.822  13.284   8.707
    1STR    C09 2198   5.927  13.370   8.708
    1STR    O0A 2199   5.916  13.491   8.726
    1STR    O0B 2200   6.050  13.311   8.686
    1STR    C0C 2201   6.173  13.390   8.692
    1STR    C0D 2202   6.210  13.415   8.839
    1STR    C0E 2203   6.294  13.328   8.615
    1STR    O0F 2204   6.416  13.405   8.628
    1STR    C0G 2205   6.534  13.358   8.558
    1STR    C0H 2206   6.521  13.397   8.409
    1STR    C0I 2207   6.666  13.418   8.618
    1STR    O0J 2208   6.786  13.357   8.565
    1STR    C0K 2209   6.913  13.405   8.617
    1STR    C0M 2210   6.929  13.365   8.764
    1STR    C0N 2211   7.035  13.347   8.538
    1STR    O0O 2212   7.160  13.407   8.580
    1STR    C0P 2213   7.273  13.335   8.607
    1STR    O0Q 2214   7.281  13.212   8.607
    1STR    N0R 2215   7.374  13.418   8.631
    1STR    C0S 2216   7.510  13.404   8.666
    1STR    C0T 2217   7.585  13.523   8.667
    1STR    C0U 2218   7.721  13.523   8.701
    1STR    C0V 2219   7.789  13.404   8.733
    1STR    C0W 2220   7.937  13.417   8.761
    1STR    C0X 2221   7.719  13.280   8.734
    1STR    N0Y 2222   7.778  13.152   8.750
    1STR   BCK2 2223   7.887  13.088   8.796
    1STR    O10 2224   7.898  12.970   8.763
    1STR    C13 2225   7.579  13.283   8.699
    1STR    C14 2226   5.629  13.438   8.721
    1STR    C15 2227   5.491  13.462   8.723
    1STR    C16 2228   5.398  13.356   8.724
    1STR    C17 2229   5.252  13.396   8.709
    1STR    H1B 2230   5.379  13.034   8.671
    1STR    H1C 2231   5.622  13.099   8.725
    1STR    H1D 2232   5.853  13.189   8.696
    1STR    H1E 2233   6.153  13.487   8.645
    1STR    H1F 2234   6.231  13.321   8.891
    1STR    H1G 2235   6.298  13.478   8.847
    1STR    H1H 2236   6.129  13.466   8.892
    1STR    H1I 2237   6.267  13.319   8.509
    1STR    H1J 2238   6.312  13.226   8.651
    1STR    H1K 2239   6.540  13.250   8.567
    1STR    H1M 2240   6.508  13.504   8.397
    1STR    H1N 2241   6.437  13.347   8.361
    1STR    H1O 2242   6.611  13.368   8.354
    1STR    H1P 2243   6.668  13.526   8.601
    1STR    H1Q 2244   6.661  13.404   8.726
    1STR    H1R 2245   6.916  13.513   8.607
    1STR    H1S 2246   7.027  13.394   8.802
    1STR    H1T 2247   6.919  13.258   8.777
    1STR    H1U 2248   6.856  13.414   8.829
    1STR    H1V 2249   7.023  13.368   8.431
    1STR    H1W 2250   7.039  13.238   8.546
    1STR    H1X 2251   7.342  13.512   8.620
    1STR    H1Y 2252   7.539  13.617   8.641
    1STR    H1Z 2253   7.775  13.616   8.700
    1STR    H20 2254   7.955  13.407   8.868
    1STR    H21 2255   7.993  13.341   8.706
    1STR    H22 2256   7.976  13.514   8.731
    1STR    H23 2257   7.720  13.080   8.710
    1STR    H27 2258   7.522  13.191   8.697
    1STR    H28 2259   5.692  13.526   8.718
    1STR    H29 2260   5.456  13.564   8.722
    1STR    H2A 2261   5.196  13.321   8.652
    1STR    H2B 2262   5.242  13.490   8.656
    1STR    H2C 2263   5.206  13.408   8.807
    1STR   BCK1 2264   5.224  13.021  13.151
    1STR    O03 2265   5.171  13.130  13.135
    1STR    N04 2266   5.353  13.018  13.190
    1STR    C05 2267   5.447  12.925  13.239
    1STR    C06 2268   5.586  12.951  13.218
    1STR    C07 2269   5.690  12.872  13.276
    1STR    N08 2270   5.827  12.907  13.261
    1STR    C09 2271   5.938  12.850  13.314
    1STR    O0A 2272   5.937  12.749  13.383
    1STR    O0B 2273   6.054  12.916  13.281
    1STR    C0C 2274   6.182  12.859  13.321
    1STR    C0D 2275   6.219  12.748  13.221
    1STR    C0E 2276   6.296  12.964  13.333
    1STR    O0F 2277   6.420  12.901  13.375
    1STR    C0G 2278   6.534  12.986  13.395
    1STR    C0H 2279   6.518  13.059  13.530
    1STR    C0I 2280   6.665  12.903  13.394
    1STR    O0J 2281   6.783  12.987  13.399
    1STR    C0K 2282   6.910  12.920  13.402
    1STR    C0M 2283   6.939  12.854  13.267
    1STR    C0N 2284   7.025  13.021  13.436
    1STR    O0O 2285   7.146  12.952  13.468
    1STR    C0P 2286   7.266  12.986  13.414
    1STR    O0Q 2287   7.285  13.073  13.330
    1STR    N0R 2288   7.361  12.905  13.464
    1STR    C0S 2289   7.496  12.884  13.432
    1STR    C0T 2290   7.548  12.759  13.471
    1STR    C0U 2291   7.677  12.719  13.432
    1STR    C0V 2292   7.759  12.804  13.356
    1STR    C0W 2293   7.884  12.743  13.297
    1STR    C0X 2294   7.717  12.937  13.329
    1STR    N0Y 2295   7.796  13.029  13.259
    1STR   BCK2 2296   7.926  13.063  13.261
    1STR    O10 2297   7.969  13.141  13.176
    1STR    C13 2298   7.583  12.973  13.363
    1STR    C14 2299   5.649  12.759  13.350
    1STR    C15 2300   5.513  12.732  13.374
    1STR    C16 2301   5.412  12.816  13.324
    1STR    C17 2302   5.272  12.789  13.376
    1STR    H1B 2303   5.388  13.112  13.184
    1STR    H1C 2304   5.613  13.037  13.158
    1STR    H1D 2305   5.849  12.988  13.206
    1STR    H1E 2306   6.171  12.814  13.420
    1STR    H1F 2307   6.232  12.787  13.120
    1STR    H1G 2308   6.312  12.699  13.250
    1STR    H1H 2309   6.142  12.671  13.217
    1STR    H1I 2310   6.266  13.040  13.405
    1STR    H1J 2311   6.311  13.014  13.237
    1STR    H1K 2312   6.540  13.059  13.314
    1STR    H1M 2313   6.505  12.989  13.612
    1STR    H1N 2314   6.433  13.127  13.530
    1STR    H1O 2315   6.606  13.119  13.552
    1STR    H1P 2316   6.665  12.833  13.478
    1STR    H1Q 2317   6.666  12.843  13.303
    1STR    H1R 2318   6.908  12.845  13.481
    1STR    H1S 2319   7.039  12.810  13.265
    1STR    H1T 2320   6.935  12.926  13.186
    1STR    H1U 2321   6.870  12.773  13.244
    1STR    H1V 2322   6.997  13.079  13.524
    1STR    H1W 2323   7.039  13.092  13.355
    1STR    H1X 2324   7.320  12.844  13.532
    1STR    H1Y 2325   7.487  12.688  13.526
    1STR    H1Z 2326   7.711  12.620  13.457
    1STR    H20 2327   7.919  12.797  13.209
    1STR    H21 2328   7.964  12.739  13.371
    1STR    H22 2329   7.865  12.641  13.264
    1STR    H23 2330   7.747  13.085  13.191
    1STR    H27 2331   7.545  13.071  13.336
    1STR    H28 2332   5.719  12.691  13.396
    1STR    H29 2333   5.487  12.648  13.436
    1STR    H2A 2334   5.215  12.881  13.384
    1STR    H2B 2335   5.275  12.745  13.475
    1STR    H2C 2336   5.221  12.718  13.311
    1STR   BCK1 2337   9.592  17.369  17.406
    1STR    O03 2338   9.544   0.041  17.388
    1STR    N04 2339   9.717  17.332  17.368
    1STR    C05 2340   9.808  17.391  17.277
    1STR    C06 2341   9.950  17.385  17.301
    1STR    C07 2342  10.047  17.430  17.206
    1STR    N08 2343  10.187  17.418  17.228
    1STR    C09 2344  10.291  17.428  17.142
    1STR    O0A 2345  10.278   0.010  17.022
    1STR    O0B 2346  10.414  17.412  17.201
    1STR    C0C 2347  10.536  17.430  17.124
    1STR    C0D 2348  10.567   0.141  17.115
    1STR    C0E 2349  10.659  17.352  17.181
    1STR    O0F 2350  10.781  17.373  17.106
    1STR    C0G 2351  10.897  17.298  17.147
    1STR    C0H 2352  10.884  17.154  17.095
    1STR    C0I 2353  11.030  17.362  17.095
    1STR    O0J 2354  11.147  17.300  17.153
    1STR    C0K 2355  11.277  17.349  17.112
    1STR    C0M 2356  11.298   0.053  17.161
    1STR    C0N 2357  11.392  17.259  17.170
    1STR    O0O 2358  11.522  17.298  17.120
    1STR    C0P 2359  11.634  17.299  17.200
    1STR    O0Q 2360  11.637  17.278  17.320
    1STR    N0R 2361  11.740  17.329  17.124
    1STR    C0S 2362  11.877  17.354  17.147
    1STR    C0T 2363  11.947  17.399  17.034
    1STR    C0U 2364  12.080   0.001  17.043
    1STR    C0V 2365  12.149  17.438  17.165
    1STR    C0W 2366  12.286   0.065  17.167
    1STR    C0X 2367  12.088  17.380  17.280
    1STR    N0Y 2368  12.160  17.369  17.402
    1STR   BCK2 2369  12.287  17.326  17.420
    1STR    O10 2370  12.356  17.277  17.331
    1STR    C13 2371  11.949  17.343  17.271
    1STR    C14 2372   9.996   0.048  17.087
    1STR    C15 2373   9.859   0.054  17.061
    1STR    C16 2374   9.765   0.003  17.153
    1STR    C17 2375   9.620  17.440  17.107
    1STR    H1B 2376   9.745  17.244  17.409
    1STR    H1C 2377   9.984  17.342  17.394
    1STR    H1D 2378  10.217  17.397  17.322
    1STR    H1E 2379  10.519  17.393  17.022
    1STR    H1F 2380  10.586   0.184  17.214
    1STR    H1G 2381  10.656   0.159  17.054
    1STR    H1H 2382  10.485   0.196  17.069
    1STR    H1I 2383  10.633  17.246  17.182
    1STR    H1J 2384  10.675  17.381  17.285
    1STR    H1K 2385  10.902  17.298  17.256
    1STR    H1M 2386  10.870  17.152  16.987
    1STR    H1N 2387  10.799  17.102  17.139
    1STR    H1O 2388  10.973  17.096  17.118
    1STR    H1P 2389  11.034  17.355  16.986
    1STR    H1Q 2390  11.028   0.028  17.119
    1STR    H1R 2391  11.283  17.346  17.003
    1STR    H1S 2392  11.398   0.089  17.137
    1STR    H1T 2393  11.286   0.060  17.269
    1STR    H1U 2394  11.228   0.123  17.115
    1STR    H1V 2395  11.376  17.156  17.140
    1STR    H1W 2396  11.390  17.260  17.279
    1STR    H1X 2397  11.710  17.337  17.029
    1STR    H1Y 2398  11.899  17.405  16.937
    1STR    H1Z 2399  12.129   0.039  16.954
    1STR    H20 2400  12.309   0.105  17.266
    1STR    H21 2401  12.364  17.434  17.138
    1STR    H22 2402  12.289   0.149  17.098
    1STR    H23 2403  12.111  17.392   0.046
    1STR    H27 2404  11.897  17.306  17.357
    1STR    H28 2405  10.061   0.089  17.011
    1STR    H29 2406   9.825   0.095  16.967
    1STR    H2A 2407   9.568  17.351  17.143
    1STR    H2B 2408   9.612  17.438  16.998
    1STR    H2C 2409   9.567   0.089  17.142
    1STR   BCK1 2410   9.601  17.387   4.494
    1STR    O03 2411   9.587  17.360   4.613
    1STR    N04 2412   9.706   0.017   4.445
    1STR    C05 2413   9.803   0.089   4.518
    1STR    C06 2414   9.944   0.078   4.490
    1STR    C07 2415  10.043   0.152   4.562
    1STR    N08 2416  10.182   0.144   4.531
    1STR    C09 2417  10.290   0.192   4.598
    1STR    O0A 2418  10.284   0.248   4.707
    1STR    O0B 2419  10.410   0.173   4.533
    1STR    C0C 2420  10.535   0.213   4.596
    1STR    C0D 2421  10.574   0.108   4.702
    1STR    C0E 2422  10.653   0.237   4.496
    1STR    O0F 2423  10.776   0.273   4.564
    1STR    C0G 2424  10.892   0.300   4.482
    1STR    C0H 2425  10.879   0.441   4.421
    1STR    C0I 2426  11.024   0.289   4.565
    1STR    O0J 2427  11.144   0.295   4.484
    1STR    C0K 2428  11.270   0.285   4.553
    1STR    C0M 2429  11.289   0.144   4.612
    1STR    C0N 2430  11.392   0.316   4.460
    1STR    O0O 2431  11.513   0.328   4.537
    1STR    C0P 2432  11.630   0.265   4.504
    1STR    O0Q 2433  11.646   0.186   4.411
    1STR    N0R 2434  11.725   0.304   4.589
    1STR    C0S 2435  11.861   0.276   4.610
    1STR    C0T 2436  11.922   0.353   4.710
    1STR    C0U 2437  12.058   0.338   4.741
    1STR    C0V 2438  12.138   0.245   4.673
    1STR    C0W 2439  12.285   0.247   4.708
    1STR    C0X 2440  12.082   0.163   4.571
    1STR    N0Y 2441  12.157   0.078   4.487
    1STR   BCK2 2442  12.272   0.008   4.481
    1STR    O10 2443  12.306  17.407   4.370
    1STR    C13 2444  11.942   0.181   4.541
    1STR    C14 2445   9.996   0.239   4.663
    1STR    C15 2446   9.859   0.254   4.689
    1STR    C16 2447   9.763   0.184   4.615
    1STR    C17 2448   9.617   0.218   4.641
    1STR    H1B 2449   9.710   0.021   4.344
    1STR    H1C 2450   9.975   0.009   4.413
    1STR    H1D 2451  10.209   0.095   4.447
    1STR    H1E 2452  10.518   0.308   4.647
    1STR    H1F 2453  10.593   0.011   4.656
    1STR    H1G 2454  10.665   0.138   4.754
    1STR    H1H 2455  10.496   0.097   4.777
    1STR    H1I 2456  10.624   0.315   4.426
    1STR    H1J 2457  10.670   0.146   4.437
    1STR    H1K 2458  10.898   0.226   4.402
    1STR    H1M 2459  10.866   0.516   4.499
    1STR    H1N 2460  10.794   0.449   4.354
    1STR    H1O 2461  10.968   0.467   4.364
    1STR    H1P 2462  11.026   0.368   4.641
    1STR    H1Q 2463  11.020   0.195   4.619
    1STR    H1R 2464  11.271   0.359   4.634
    1STR    H1S 2465  11.387   0.134   4.657
    1STR    H1T 2466  11.281   0.069   4.534
    1STR    H1U 2467  11.216   0.121   4.690
    1STR    H1V 2468  11.376   0.411   4.409
    1STR    H1W 2469  11.401   0.241   4.382
    1STR    H1X 2470  11.684   0.372   4.652
    1STR    H1Y 2471  11.866   0.428   4.765
    1STR    H1Z 2472  12.101   0.400   4.818
    1STR    H20 2473  12.307   0.164   4.776
    1STR    H21 2474  12.347   0.240   4.619
    1STR    H22 2475  12.314   0.339   4.759
    1STR    H23 2476  12.112   0.064   4.397
    1STR    H27 2477  11.896   0.122   4.464
    1STR    H28 2478  10.062   0.300   4.723
    1STR    H29 2479   9.828   0.324   4.765
    1STR    H2A 2480   9.559   0.215   4.549
    1STR    H2B 2481   9.606   0.318   4.683
    1STR    H2C 2482   9.573   0.148   4.712
    1STR   BCK1 2483   9.587  17.318   8.765
    1STR    O03 2484   9.562  17.335   8.646
    1STR    N04 2485   9.707  17.280   8.813
    1STR    C05 2486   9.809  17.212   8.743
    1STR    C06 2487   9.947  17.247   8.759
    1STR    C07 2488  10.052  17.170   8.699
    1STR    N08 2489  10.189  17.201   8.719
    1STR    C09 2490  10.297  17.121   8.704
    1STR    O0A 2491  10.290  17.001   8.676
    1STR    O0B 2492  10.416  17.185   8.725
    1STR    C0C 2493  10.541  17.116   8.699
    1STR    C0D 2494  10.573  17.126   8.549
    1STR    C0E 2495  10.660  17.170   8.785
    1STR    O0F 2496  10.781  17.097   8.759
    1STR    C0G 2497  10.896  17.131   8.838
    1STR    C0H 2498  10.881  17.069   8.978
    1STR    C0I 2499  11.027  17.082   8.771
    1STR    O0J 2500  11.145  17.129   8.840
    1STR    C0K 2501  11.273  17.088   8.788
    1STR    C0M 2502  11.300  17.156   8.653
    1STR    C0N 2503  11.387  17.123   8.887
    1STR    O0O 2504  11.512  17.065   8.847
    1STR    C0P 2505  11.630  17.132   8.856
    1STR    O0Q 2506  11.643  17.249   8.891
    1STR    N0R 2507  11.730  17.052   8.818
    1STR    C0S 2508  11.868  17.071   8.795
    1STR    C0T 2509  11.933  16.968   8.725
    1STR    C0U 2510  12.067  16.982   8.684
    1STR    C0V 2511  12.141  17.098   8.715
    1STR    C0W 2512  12.275  17.114   8.647
    1STR    C0X 2513  12.083  17.198   8.798
    1STR    N0Y 2514  12.150  17.317   8.832
    1STR   BCK2 2515  12.274  17.351   8.872
    1STR    O10 2516  12.300   0.030   8.883
    1STR    C13 2517  11.945  17.185   8.834
    1STR    C14 2518  10.013  17.061   8.618
    1STR    C15 2519   9.878  17.024   8.604
    1STR    C16 2520   9.777  17.096   8.669
    1STR    C17 2521   9.635  17.040   8.660
    1STR    H1B 2522   9.718  17.291   8.912
    1STR    H1C 2523   9.972  17.333   8.818
    1STR    H1D 2524  10.213  17.294   8.748
    1STR    H1E 2525  10.530  17.011   8.725
    1STR    H1F 2526  10.587  17.229   8.517
    1STR    H1G 2527  10.664  17.071   8.525
    1STR    H1H 2528  10.493  17.083   8.489
    1STR    H1I 2529  10.632  17.162   8.890
    1STR    H1J 2530  10.675  17.276   8.764
    1STR    H1K 2531  10.903  17.240   8.847
    1STR    H1M 2532  10.867  16.961   8.971
    1STR    H1N 2533  10.797  17.110   9.033
    1STR    H1O 2534  10.970  17.087   9.038
    1STR    H1P 2535  11.028  16.973   8.766
    1STR    H1Q 2536  11.028  17.117   8.668
    1STR    H1R 2537  11.273  16.979   8.775
    1STR    H1S 2538  11.400  17.132   8.616
    1STR    H1T 2539  11.294  17.264   8.662
    1STR    H1U 2540  11.230  17.124   8.575
    1STR    H1V 2541  11.363  17.085   8.987
    1STR    H1W 2542  11.396  17.232   8.898
    1STR    H1X 2543  11.694  16.961   8.797
    1STR    H1Y 2544  11.880  16.879   8.695
    1STR    H1Z 2545  12.112  16.904   8.625
    1STR    H20 2546  12.302  17.219   8.635
    1STR    H21 2547  12.354  17.064   8.704
    1STR    H22 2548  12.274  17.070   8.548
    1STR    H23 2549  12.093  17.399   8.828
    1STR    H27 2550  11.897  17.263   8.890
    1STR    H28 2551  10.086  17.000   8.566
    1STR    H29 2552   9.854  16.937   8.545
    1STR    H2A 2553   9.584  17.050   8.756
    1STR    H2B 2554   9.636  16.934   8.635
    1STR    H2C 2555   9.578  17.093   8.583
    1STR   BCK1 2556   9.592   0.005  13.088
    1STR    O03 2557   9.544   0.105  13.140
    1STR    N04 2558   9.714  17.440  13.029
    1STR    C05 2559   9.804   0.102  12.990
    1STR    C06 2560   9.946   0.083  12.997
    1STR    C07 2561  10.042   0.179  12.950
    1STR    N08 2562  10.183   0.155  12.952
    1STR    C09 2563  10.287   0.229  12.906
    1STR    O0A 2564  10.274   0.339  12.852
    1STR    O0B 2565  10.411   0.171  12.923
    1STR    C0C 2566  10.533   0.243  12.887
    1STR    C0D 2567  10.567   0.343  12.998
    1STR    C0E 2568  10.656   0.150  12.857
    1STR    O0F 2569  10.777   0.224  12.828
    1STR    C0G 2570  10.895   0.146  12.793
    1STR    C0H 2571  10.882   0.100  12.647
    1STR    C0I 2572  11.027   0.228  12.813
    1STR    O0J 2573  11.147   0.146  12.802
    1STR    C0K 2574  11.276   0.210  12.819
    1STR    C0M 2575  11.291   0.260  12.963
    1STR    C0N 2576  11.394   0.113  12.787
    1STR    O0O 2577  11.522   0.179  12.791
    1STR    C0P 2578  11.632   0.125  12.853
    1STR    O0Q 2579  11.634   0.024  12.922
    1STR    N0R 2580  11.740   0.200  12.824
    1STR    C0S 2581  11.876   0.202  12.860
    1STR    C0T 2582  11.951   0.300  12.792
    1STR    C0U 2583  12.085   0.324  12.824
    1STR    C0V 2584  12.150   0.250  12.924
    1STR    C0W 2585  12.289   0.296  12.964
    1STR    C0X 2586  12.083   0.141  12.988
    1STR    N0Y 2587  12.151   0.066  13.086
    1STR   BCK2 2588  12.276   0.014  13.079
    1STR    O10 2589  12.340   0.005  12.975
    1STR    C13 2590  11.944   0.121  12.956
    1STR    C14 2591   9.989   0.300  12.899
    1STR    C15 2592   9.850   0.320  12.888
    1STR    C16 2593   9.758   0.222  12.929
    1STR    C17 2594   9.612   0.250  12.898
    1STR    H1B 2595   9.742  17.345  13.008
    1STR    H1C 2596   9.983  17.431  13.040
    1STR    H1D 2597  10.214   0.069  12.994
    1STR    H1E 2598  10.513   0.299  12.795
    1STR    H1F 2599  10.587   0.293  13.093
    1STR    H1G 2600  10.654   0.402  12.972
    1STR    H1H 2601  10.485   0.413  13.015
    1STR    H1I 2602  10.630   0.086  12.773
    1STR    H1J 2603  10.673   0.085  12.943
    1STR    H1K 2604  10.901   0.060  12.859
    1STR    H1M 2605  10.869   0.185  12.580
    1STR    H1N 2606  10.798   0.033  12.632
    1STR    H1O 2607  10.972   0.047  12.615
    1STR    H1P 2608  11.032   0.310  12.741
    1STR    H1Q 2609  11.023   0.274  12.912
    1STR    H1R 2610  11.281   0.295  12.750
    1STR    H1S 2611  11.391   0.303  12.979
    1STR    H1T 2612  11.280   0.178  13.034
    1STR    H1U 2613  11.220   0.338  12.989
    1STR    H1V 2614  11.382   0.073  12.686
    1STR    H1W 2615  11.392   0.027  12.853
    1STR    H1X 2616  11.711   0.273  12.762
    1STR    H1Y 2617  11.906   0.362  12.716
    1STR    H1Z 2618  12.138   0.403  12.774
    1STR    H20 2619  12.307   0.281  13.071
    1STR    H21 2620  12.365   0.243  12.907
    1STR    H22 2621  12.302   0.403  12.946
    1STR    H23 2622  12.103   0.050  13.173
    1STR    H27 2623  11.888   0.043  13.007
    1STR    H28 2624  10.051   0.380  12.863
    1STR    H29 2625   9.815   0.412  12.845
    1STR    H2A 2626   9.558   0.159  12.874
    1STR    H2B 2627   9.602   0.316  12.812
    1STR    H2C 2628   9.564   0.299  12.983
    1STR   BCK1 2629   9.575   4.258   0.104
    1STR    O03 2630   9.568   4.135   0.101
    1STR    N04 2631   9.687   4.327   0.132
    1STR    C05 2632   9.795   4.290   0.215
    1STR    C06 2633   9.933   4.307   0.178
    1STR    C07 2634  10.041   4.285   0.271
    1STR    N08 2635  10.178   4.308   0.237
    1STR    C09 2636  10.291   4.285   0.310
    1STR    O0A 2637  10.293   4.232   0.420
    1STR    O0B 2638  10.408   4.327   0.249
    1STR    C0C 2639  10.536   4.302   0.314
    1STR    C0D 2640  10.577   4.155   0.292
    1STR    C0E 2641  10.652   4.397   0.270
    1STR    O0F 2642  10.775   4.367   0.340
    1STR    C0G 2643  10.890   4.450   0.312
    1STR    C0H 2644  10.875   4.583   0.388
    1STR    C0I 2645  11.022   4.379   0.354
    1STR    O0J 2646  11.139   4.451   0.311
    1STR    C0K 2647  11.268   4.398   0.349
    1STR    C0M 2648  11.296   4.266   0.275
    1STR    C0N 2649  11.382   4.500   0.318
    1STR    O0O 2650  11.504   4.462   0.383
    1STR    C0P 2651  11.622   4.446   0.318
    1STR    O0Q 2652  11.640   4.460   0.197
    1STR    N0R 2653  11.713   4.408   0.407
    1STR    C0S 2654  11.846   4.362   0.400
    1STR    C0T 2655  11.887   4.292   0.514
    1STR    C0U 2656  12.014   4.233   0.519
    1STR    C0V 2657  12.105   4.247   0.413
    1STR    C0W 2658  12.233   4.168   0.431
    1STR    C0X 2659  12.073   4.328   0.300
    1STR    N0Y 2660  12.161   4.370   0.197
    1STR   BCK2 2661  12.288   4.360   0.152
    1STR    O10 2662  12.325   4.442   0.068
    1STR    C13 2663  11.939   4.381   0.294
    1STR    C14 2664  10.004   4.243   0.401
    1STR    C15 2665   9.870   4.227   0.439
    1STR    C16 2666   9.766   4.253   0.348
    1STR    C17 2667   9.624   4.248   0.402
    1STR    H1B 2668   9.682   4.425   0.108
    1STR    H1C 2669   9.956   4.340   0.078
    1STR    H1D 2670  10.198   4.346   0.147
    1STR    H1E 2671  10.523   4.318   0.421
    1STR    H1F 2672  10.592   4.133   0.187
    1STR    H1G 2673  10.669   4.132   0.346
    1STR    H1H 2674  10.500   4.087   0.330
    1STR    H1I 2675  10.622   4.500   0.290
    1STR    H1J 2676  10.668   4.389   0.162
    1STR    H1K 2677  10.896   4.469   0.205
    1STR    H1M 2678  10.863   4.566   0.495
    1STR    H1N 2679  10.790   4.641   0.354
    1STR    H1O 2680  10.964   4.645   0.375
    1STR    H1P 2681  11.024   4.365   0.463
    1STR    H1Q 2682  11.022   4.279   0.311
    1STR    H1R 2683  11.267   4.380   0.457
    1STR    H1S 2684  11.396   4.230   0.297
    1STR    H1T 2685  11.290   4.281   0.167
    1STR    H1U 2686  11.227   4.187   0.302
    1STR    H1V 2687  11.354   4.598   0.357
    1STR    H1W 2688  11.396   4.512   0.211
    1STR    H1X 2689  11.671   4.407   0.498
    1STR    H1Y 2690  11.822   4.277   0.598
    1STR    H1Z 2691  12.041   4.176   0.606
    1STR    H20 2692  12.247   4.103   0.344
    1STR    H21 2693  12.317   4.235   0.447
    1STR    H22 2694  12.229   4.101   0.517
    1STR    H23 2695  12.117   4.437   0.136
    1STR    H27 2696  11.907   4.439   0.209
    1STR    H28 2697  10.076   4.224   0.479
    1STR    H29 2698   9.848   4.198   0.540
    1STR    H2A 2699   9.568   4.336   0.370
    1STR    H2B 2700   9.621   4.247   0.510
    1STR    H2C 2701   9.572   4.159   0.365
    1STR   BCK1 2702   9.594   4.249   4.350
    1STR    O03 2703   9.550   4.344   4.285
    1STR    N04 2704   9.719   4.198   4.337
    1STR    C05 2705   9.812   4.212   4.232
    1STR    C06 2706   9.952   4.220   4.259
    1STR    C07 2707  10.051   4.218   4.156
    1STR    N08 2708  10.190   4.220   4.185
    1STR    C09 2709  10.295   4.184   4.107
    1STR    O0A 2710  10.284   4.138   3.994
    1STR    O0B 2711  10.417   4.203   4.167
    1STR    C0C 2712  10.540   4.180   4.094
    1STR    C0D 2713  10.571   4.304   4.008
    1STR    C0E 2714  10.661   4.145   4.186
    1STR    O0F 2715  10.783   4.122   4.112
    1STR    C0G 2716  10.898   4.080   4.188
    1STR    C0H 2717  10.884   3.931   4.222
    1STR    C0I 2718  11.031   4.105   4.110
    1STR    O0J 2719  11.148   4.082   4.193
    1STR    C0K 2720  11.278   4.099   4.132
    1STR    C0M 2721  11.301   4.247   4.097
    1STR    C0N 2722  11.391   4.050   4.228
    1STR    O0O 2723  11.520   4.050   4.164
    1STR    C0P 2724  11.635   4.087   4.229
    1STR    O0Q 2725  11.642   4.130   4.343
    1STR    N0R 2726  11.739   4.071   4.146
    1STR    C0S 2727  11.876   4.104   4.149
    1STR    C0T 2728  11.938   4.103   4.023
    1STR    C0U 2729  12.070   4.147   4.008
    1STR    C0V 2730  12.146   4.190   4.118
    1STR    C0W 2731  12.278   4.257   4.086
    1STR    C0X 2732  12.093   4.177   4.250
    1STR    N0Y 2733  12.171   4.208   4.365
    1STR   BCK2 2734  12.302   4.185   4.391
    1STR    O10 2735  12.379   4.127   4.317
    1STR    C13 2736  11.955   4.139   4.263
    1STR    C14 2737  10.004   4.213   4.023
    1STR    C15 2738   9.867   4.203   3.994
    1STR    C16 2739   9.771   4.199   4.096
    1STR    C17 2740   9.627   4.172   4.055
    1STR    H1B 2741   9.744   4.136   4.412
    1STR    H1C 2742   9.984   4.227   4.362
    1STR    H1D 2743  10.219   4.251   4.276
    1STR    H1E 2744  10.525   4.095   4.027
    1STR    H1F 2745  10.587   4.392   4.069
    1STR    H1G 2746  10.661   4.288   3.948
    1STR    H1H 2747  10.489   4.325   3.939
    1STR    H1I 2748  10.634   4.056   4.243
    1STR    H1J 2749  10.676   4.225   4.258
    1STR    H1K 2750  10.903   4.139   4.280
    1STR    H1M 2751  10.870   3.871   4.132
    1STR    H1N 2752  10.799   3.911   4.287
    1STR    H1O 2753  10.973   3.894   4.273
    1STR    H1P 2754  11.035   4.041   4.021
    1STR    H1Q 2755  11.030   4.208   4.074
    1STR    H1R 2756  11.282   4.039   4.041
    1STR    H1S 2757  11.402   4.262   4.058
    1STR    H1T 2758  11.290   4.310   4.185
    1STR    H1U 2759  11.232   4.283   4.021
    1STR    H1V 2760  11.371   3.948   4.260
    1STR    H1W 2761  11.393   4.110   4.319
    1STR    H1X 2762  11.706   4.031   4.060
    1STR    H1Y 2763  11.884   4.073   3.935
    1STR    H1Z 2764  12.113   4.151   3.909
    1STR    H20 2765  12.306   4.330   4.162
    1STR    H21 2766  12.358   4.183   4.076
    1STR    H22 2767  12.272   4.311   3.991
    1STR    H23 2768  12.120   4.247   4.443
    1STR    H27 2769  11.909   4.136   4.360
    1STR    H28 2770  10.072   4.215   3.939
    1STR    H29 2771   9.836   4.195   3.891
    1STR    H2A 2772   9.576   4.108   4.127
    1STR    H2B 2773   9.622   4.122   3.959
    1STR    H2C 2774   9.573   4.266   4.047
    1STR   BCK1 2775   9.593   4.360   8.825
    1STR    O03 2776   9.552   4.410   8.929
    1STR    N04 2777   9.711   4.392   8.766
    1STR    C05 2778   9.804   4.496   8.795
    1STR    C06 2779   9.946   4.476   8.782
    1STR    C07 2780  10.043   4.580   8.805
    1STR    N08 2781  10.183   4.560   8.785
    1STR    C09 2782  10.289   4.640   8.814
    1STR    O0A 2783  10.279   4.747   8.875
    1STR    O0B 2784  10.411   4.592   8.771
    1STR    C0C 2785  10.535   4.663   8.803
    1STR    C0D 2786  10.572   4.634   8.949
    1STR    C0E 2787  10.655   4.631   8.708
    1STR    O0F 2788  10.778   4.697   8.747
    1STR    C0G 2789  10.895   4.678   8.664
    1STR    C0H 2790  10.882   4.764   8.537
    1STR    C0I 2791  11.028   4.713   8.740
    1STR    O0J 2792  11.149   4.674   8.669
    1STR    C0K 2793  11.277   4.701   8.732
    1STR    C0M 2794  11.292   4.614   8.858
    1STR    C0N 2795  11.399   4.673   8.638
    1STR    O0O 2796  11.525   4.715   8.695
    1STR    C0P 2797  11.638   4.638   8.695
    1STR    O0Q 2798  11.644   4.520   8.662
    1STR    N0R 2799  11.743   4.711   8.734
    1STR    C0S 2800  11.880   4.689   8.758
    1STR    C0T 2801  11.956   4.806   8.776
    1STR    C0U 2802  12.091   4.800   8.814
    1STR    C0V 2803  12.156   4.677   8.836
    1STR    C0W 2804  12.294   4.685   8.896
    1STR    C0X 2805  12.086   4.554   8.812
    1STR    N0Y 2806  12.140   4.428   8.848
    1STR   BCK2 2807  12.259   4.365   8.862
    1STR    O10 2808  12.262   4.264   8.932
    1STR    C13 2809  11.948   4.563   8.773
    1STR    C14 2810   9.992   4.706   8.844
    1STR    C15 2811   9.854   4.729   8.854
    1STR    C16 2812   9.760   4.628   8.827
    1STR    C17 2813   9.614   4.671   8.825
    1STR    H1B 2814   9.735   4.332   8.690
    1STR    H1C 2815   9.981   4.378   8.755
    1STR    H1D 2816  10.212   4.474   8.742
    1STR    H1E 2817  10.515   4.770   8.793
    1STR    H1F 2818  10.593   4.529   8.965
    1STR    H1G 2819  10.662   4.690   8.978
    1STR    H1H 2820  10.493   4.664   9.017
    1STR    H1I 2821  10.628   4.660   8.606
    1STR    H1J 2822  10.672   4.523   8.706
    1STR    H1K 2823  10.901   4.572   8.635
    1STR    H1M 2824  10.869   4.869   8.563
    1STR    H1N 2825  10.797   4.734   8.476
    1STR    H1O 2826  10.971   4.757   8.475
    1STR    H1P 2827  11.031   4.820   8.761
    1STR    H1Q 2828  11.024   4.662   8.836
    1STR    H1R 2829  11.280   4.807   8.760
    1STR    H1S 2830  11.391   4.628   8.903
    1STR    H1T 2831  11.282   4.509   8.834
    1STR    H1U 2832  11.219   4.639   8.936
    1STR    H1V 2833  11.385   4.727   8.545
    1STR    H1W 2834  11.402   4.567   8.610
    1STR    H1X 2835  11.711   4.805   8.749
    1STR    H1Y 2836  11.911   4.903   8.765
    1STR    H1Z 2837  12.144   4.892   8.831
    1STR    H20 2838  12.309   4.606   8.970
    1STR    H21 2839  12.369   4.677   8.817
    1STR    H22 2840  12.311   4.779   8.947
    1STR    H23 2841  12.069   4.363   8.878
    1STR    H27 2842  11.890   4.473   8.758
    1STR    H28 2843  10.055   4.790   8.863
    1STR    H29 2844   9.820   4.828   8.881
    1STR    H2A 2845   9.556   4.615   8.752
    1STR    H2B 2846   9.604   4.776   8.799
    1STR    H2C 2847   9.569   4.658   8.923
    1STR   BCK1 2848   9.583   4.284  13.148
    1STR    O03 2849   9.541   4.372  13.074
    1STR    N04 2850   9.714   4.254  13.141
    1STR    C05 2851   9.807   4.158  13.188
    1STR    C06 2852   9.945   4.195  13.192
    1STR    C07 2853  10.050   4.104  13.225
    1STR    N08 2854  10.187   4.143  13.222
    1STR    C09 2855  10.299   4.069  13.235
    1STR    O0A 2856  10.300   3.947  13.251
    1STR    O0B 2857  10.415   4.142  13.227
    1STR    C0C 2858  10.543   4.074  13.236
    1STR    C0D 2859  10.576   4.007  13.102
    1STR    C0E 2860  10.659   4.167  13.281
    1STR    O0F 2861  10.782   4.093  13.297
    1STR    C0G 2862  10.896   4.165  13.346
    1STR    C0H 2863  10.881   4.186  13.498
    1STR    C0I 2864  11.027   4.087  13.315
    1STR    O0J 2865  11.144   4.163  13.349
    1STR    C0K 2866  11.272   4.099  13.328
    1STR    C0M 2867  11.300   4.084  13.178
    1STR    C0N 2868  11.386   4.182  13.395
    1STR    O0O 2869  11.509   4.107  13.398
    1STR    C0P 2870  11.628   4.162  13.363
    1STR    O0Q 2871  11.645   4.276  13.321
    1STR    N0R 2872  11.724   4.070  13.379
    1STR    C0S 2873  11.860   4.066  13.344
    1STR    C0T 2874  11.916   3.937  13.334
    1STR    C0U 2875  12.047   3.919  13.287
    1STR    C0V 2876  12.127   4.029  13.251
    1STR    C0W 2877  12.256   3.998  13.177
    1STR    C0X 2878  12.080   4.161  13.274
    1STR    N0Y 2879  12.156   4.275  13.244
    1STR   BCK2 2880  12.284   4.312  13.263
    1STR    O10 2881  12.322   4.418  13.215
    1STR    C13 2882  11.944   4.177  13.316
    1STR    C14 2883  10.011   3.973  13.260
    1STR    C15 2884   9.877   3.933  13.256
    1STR    C16 2885   9.775   4.022  13.218
    1STR    C17 2886   9.638   3.960  13.203
    1STR    H1B 2887   9.756   4.324  13.082
    1STR    H1C 2888   9.972   4.297  13.167
    1STR    H1D 2889  10.208   4.240  13.205
    1STR    H1E 2890  10.535   3.996  13.312
    1STR    H1F 2891  10.587   4.080  13.021
    1STR    H1G 2892  10.669   3.950  13.109
    1STR    H1H 2893  10.498   3.936  13.072
    1STR    H1I 2894  10.631   4.215  13.375
    1STR    H1J 2895  10.673   4.247  13.208
    1STR    H1K 2896  10.902   4.261  13.295
    1STR    H1M 2897  10.867   4.091  13.549
    1STR    H1N 2898  10.796   4.250  13.522
    1STR    H1O 2899  10.970   4.234  13.539
    1STR    H1P 2900  11.027   3.992  13.369
    1STR    H1Q 2901  11.027   4.062  13.209
    1STR    H1R 2902  11.270   4.001  13.375
    1STR    H1S 2903  11.401   4.044  13.161
    1STR    H1T 2904  11.295   4.181  13.127
    1STR    H1U 2905  11.231   4.017  13.128
    1STR    H1V 2906  11.359   4.205  13.498
    1STR    H1W 2907  11.398   4.278  13.344
    1STR    H1X 2908  11.684   3.986  13.416
    1STR    H1Y 2909  11.858   3.849  13.357
    1STR    H1Z 2910  12.084   3.818  13.273
    1STR    H20 2911  12.289   4.082  13.117
    1STR    H21 2912  12.335   3.971  13.247
    1STR    H22 2913  12.242   3.914  13.109
    1STR    H23 2914  12.105   4.350  13.200
    1STR    H27 2915  11.903   4.277  13.327
    1STR    H28 2916  10.082   3.897  13.288
    1STR    H29 2917   9.853   3.831  13.280
    1STR    H2A 2918   9.582   3.974  13.295
    1STR    H2B 2919   9.644   3.853  13.185
    1STR    H2C 2920   9.584   4.003  13.118
    1STR   BCK1 2921   9.592   8.682  17.410
    1STR    O03 2922   9.543   8.793  17.420
    1STR    N04 2923   9.716   8.655  17.361
    1STR    C05 2924   9.806   8.736  17.288
    1STR    C06 2925   9.948   8.723  17.306
    1STR    C07 2926  10.044   8.792  17.225
    1STR    N08 2927  10.185   8.773  17.241
    1STR    C09 2928  10.289   8.812  17.162
    1STR    O0A 2929  10.276   8.874  17.057
    1STR    O0B 2930  10.413   8.776  17.210
    1STR    C0C 2931  10.535   8.819  17.143
    1STR    C0D 2932  10.566   8.964  17.185
    1STR    C0E 2933  10.657   8.726  17.169
    1STR    O0F 2934  10.779   8.772  17.105
    1STR    C0G 2935  10.896   8.688  17.118
    1STR    C0H 2936  10.883   8.571  17.019
    1STR    C0I 2937  11.029   8.766  17.091
    1STR    O0J 2938  11.147   8.689  17.125
    1STR    C0K 2939  11.277   8.750  17.105
    1STR    C0M 2940  11.295   8.870  17.199
    1STR    C0N 2941  11.393   8.648  17.129
    1STR    O0O 2942  11.523   8.702  17.098
    1STR    C0P 2943  11.634   8.681  17.176
    1STR    O0Q 2944  11.635   8.625  17.285
    1STR    N0R 2945  11.741   8.732  17.114
    1STR    C0S 2946  11.877   8.750  17.145
    1STR    C0T 2947  11.949   8.820  17.046
    1STR    C0U 2948  12.082   8.859  17.066
    1STR    C0V 2949  12.149   8.826  17.185
    1STR    C0W 2950  12.286   8.890  17.205
    1STR    C0X 2951  12.087   8.743  17.283
    1STR    N0Y 2952  12.158   8.703  17.399
    1STR   BCK2 2953  12.285   8.658  17.408
    1STR    O10 2954  12.354   8.630  17.310
    1STR    C13 2955  11.948   8.709  17.262
    1STR    C14 2956   9.992   8.881  17.128
    1STR    C15 2957   9.854   8.894  17.107
    1STR    C16 2958   9.761   8.820  17.182
    1STR    C17 2959   9.616   8.831  17.140
    1STR    H1B 2960   9.745   8.561  17.379
    1STR    H1C 2961   9.984   8.656  17.383
    1STR    H1D 2962  10.216   8.723  17.321
    1STR    H1E 2963  10.516   8.818  17.035
    1STR    H1F 2964  10.585   8.971  17.292
    1STR    H1G 2965  10.654   9.001  17.132
    1STR    H1H 2966  10.484   9.031  17.161
    1STR    H1I 2967  10.632   8.626  17.133
    1STR    H1J 2968  10.674   8.717  17.276
    1STR    H1K 2969  10.902   8.650  17.220
    1STR    H1M 2970  10.870   8.606  16.917
    1STR    H1N 2971  10.799   8.506  17.043
    1STR    H1O 2972  10.973   8.509  17.021
    1STR    H1P 2973  11.034   8.797  16.986
    1STR    H1Q 2974  11.026   8.858  17.150
    1STR    H1R 2975  11.284   8.784  17.001
    1STR    H1S 2976  11.396   8.912  17.189
    1STR    H1T 2977  11.283   8.839  17.303
    1STR    H1U 2978  11.226   8.951  17.179
    1STR    H1V 2979  11.378   8.560  17.066
    1STR    H1W 2980  11.390   8.611  17.232
    1STR    H1X 2981  11.712   8.768  17.025
    1STR    H1Y 2982  11.902   8.850  16.953
    1STR    H1Z 2983  12.132   8.917  16.991
    1STR    H20 2984  12.308   8.906  17.311
    1STR    H21 2985  12.364   8.828  17.161
    1STR    H22 2986  12.290   8.988  17.157
    1STR    H23 2987  12.108   8.706   0.046
    1STR    H27 2988  11.895   8.652  17.337
    1STR    H28 2989  10.056   8.940  17.064
    1STR    H29 2990   9.820   8.959  17.028
    1STR    H2A 2991   9.563   8.736  17.152
    1STR    H2B 2992   9.607   8.857  17.034
    1STR    H2C 2993   9.565   8.908  17.198
    1STR   BCK1 2994   9.601   8.635   4.485
    1STR    O03 2995   9.596   8.565   4.586
    1STR    N04 2996   9.701   8.723   4.462
    1STR    C05 2997   9.802   8.761   4.554
    1STR    C06 2998   9.942   8.757   4.521
    1STR    C07 2999  10.044   8.800   4.613
    1STR    N08 3000  10.182   8.800   4.578
    1STR    C09 3001  10.292   8.820   4.656
    1STR    O0A 3002  10.289   8.834   4.777
    1STR    O0B 3003  10.411   8.824   4.585
    1STR    C0C 3004  10.537   8.839   4.657
    1STR    C0D 3005  10.577   8.704   4.718
    1STR    C0E 3006  10.653   8.896   4.569
    1STR    O0F 3007  10.776   8.908   4.645
    1STR    C0G 3008  10.891   8.962   4.576
    1STR    C0H 3009  10.877   9.115   4.568
    1STR    C0I 3010  11.023   8.923   4.650
    1STR    O0J 3011  11.142   8.957   4.575
    1STR    C0K 3012  11.269   8.928   4.636
    1STR    C0M 3013  11.291   8.776   4.644
    1STR    C0N 3014  11.388   8.991   4.558
    1STR    O0O 3015  11.509   8.983   4.635
    1STR    C0P 3016  11.626   8.934   4.586
    1STR    O0Q 3017  11.644   8.888   4.474
    1STR    N0R 3018  11.718   8.945   4.682
    1STR    C0S 3019  11.854   8.910   4.697
    1STR    C0T 3020  11.906   8.940   4.824
    1STR    C0U 3021  12.040   8.914   4.854
    1STR    C0V 3022  12.127   8.858   4.759
    1STR    C0W 3023  12.271   8.844   4.803
    1STR    C0X 3024  12.079   8.825   4.629
    1STR    N0Y 3025  12.161   8.783   4.521
    1STR   BCK2 3026  12.279   8.724   4.494
    1STR    O10 3027  12.320   8.731   4.379
    1STR    C13 3028  11.941   8.852   4.600
    1STR    C14 3029  10.001   8.847   4.739
    1STR    C15 3030   9.865   8.855   4.772
    1STR    C16 3031   9.765   8.816   4.680
    1STR    C17 3032   9.621   8.839   4.720
    1STR    H1B 3033   9.700   8.768   4.373
    1STR    H1C 3034   9.971   8.719   4.425
    1STR    H1D 3035  10.207   8.784   4.482
    1STR    H1E 3036  10.522   8.911   4.738
    1STR    H1F 3037  10.594   8.629   4.642
    1STR    H1G 3038  10.668   8.714   4.777
    1STR    H1H 3039  10.500   8.667   4.786
    1STR    H1I 3040  10.624   8.993   4.530
    1STR    H1J 3041  10.670   8.831   4.483
    1STR    H1K 3042  10.897   8.920   4.476
    1STR    H1M 3043  10.865   9.158   4.667
    1STR    H1N 3044  10.792   9.145   4.508
    1STR    H1O 3045  10.966   9.159   4.523
    1STR    H1P 3046  11.026   8.971   4.748
    1STR    H1Q 3047  11.021   8.816   4.669
    1STR    H1R 3048  11.270   8.970   4.737
    1STR    H1S 3049  11.390   8.753   4.683
    1STR    H1T 3050  11.283   8.730   4.545
    1STR    H1U 3051  11.219   8.726   4.710
    1STR    H1V 3052  11.368   9.097   4.540
    1STR    H1W 3053  11.399   8.945   4.459
    1STR    H1X 3054  11.675   8.989   4.761
    1STR    H1Y 3055  11.845   8.986   4.900
    1STR    H1Z 3056  12.077   8.939   4.952
    1STR    H20 3057  12.291   8.741   4.831
    1STR    H21 3058  12.339   8.877   4.725
    1STR    H22 3059  12.293   8.905   4.891
    1STR    H23 3060  12.120   8.806   4.432
    1STR    H27 3061  11.900   8.830   4.503
    1STR    H28 3062  10.069   8.882   4.814
    1STR    H29 3063   9.837   8.893   4.869
    1STR    H2A 3064   9.562   8.874   4.635
    1STR    H2B 3065   9.613   8.915   4.798
    1STR    H2C 3066   9.576   8.748   4.758
    1STR   BCK1 3067   9.591   8.596   8.746
    1STR    O03 3068   9.557   8.651   8.641
    1STR    N04 3069   9.713   8.546   8.770
    1STR    C05 3070   9.811   8.506   8.677
    1STR    C06 3071   9.950   8.531   8.700
    1STR    C07 3072  10.052   8.479   8.615
    1STR    N08 3073  10.190   8.500   8.641
    1STR    C09 3074  10.297   8.429   8.598
    1STR    O0A 3075  10.289   8.328   8.528
    1STR    O0B 3076  10.417   8.480   8.639
    1STR    C0C 3077  10.541   8.423   8.590
    1STR    C0D 3078  10.573   8.483   8.452
    1STR    C0E 3079  10.661   8.444   8.688
    1STR    O0F 3080  10.782   8.384   8.638
    1STR    C0G 3081  10.898   8.390   8.725
    1STR    C0H 3082  10.883   8.283   8.835
    1STR    C0I 3083  11.029   8.366   8.644
    1STR    O0J 3084  11.147   8.388   8.725
    1STR    C0K 3085  11.275   8.368   8.663
    1STR    C0M 3086  11.300   8.478   8.558
    1STR    C0N 3087  11.390   8.370   8.769
    1STR    O0O 3088  11.516   8.333   8.711
    1STR    C0P 3089  11.633   8.395   8.746
    1STR    O0Q 3090  11.642   8.492   8.820
    1STR    N0R 3091  11.735   8.335   8.684
    1STR    C0S 3092  11.873   8.362   8.674
    1STR    C0T 3093  11.944   8.286   8.579
    1STR    C0U 3094  12.079   8.313   8.550
    1STR    C0V 3095  12.148   8.415   8.617
    1STR    C0W 3096  12.285   8.451   8.563
    1STR    C0X 3097  12.085   8.486   8.723
    1STR    N0Y 3098  12.147   8.593   8.790
    1STR   BCK2 3099  12.268   8.621   8.841
    1STR    O10 3100  12.287   8.735   8.883
    1STR    C13 3101  11.946   8.460   8.747
    1STR    C14 3102  10.010   8.406   8.502
    1STR    C15 3103   9.875   8.378   8.479
    1STR    C16 3104   9.775   8.424   8.567
    1STR    C17 3105   9.633   8.377   8.542
    1STR    H1B 3106   9.731   8.525   8.867
    1STR    H1C 3107   9.978   8.590   8.786
    1STR    H1D 3108  10.216   8.576   8.702
    1STR    H1E 3109  10.529   8.315   8.579
    1STR    H1F 3110  10.587   8.591   8.457
    1STR    H1G 3111  10.663   8.439   8.410
    1STR    H1H 3112  10.492   8.464   8.381
    1STR    H1I 3113  10.634   8.400   8.784
    1STR    H1J 3114  10.676   8.551   8.705
    1STR    H1K 3115  10.904   8.489   8.770
    1STR    H1M 3116  10.869   8.184   8.792
    1STR    H1N 3117  10.798   8.303   8.900
    1STR    H1O 3118  10.972   8.280   8.897
    1STR    H1P 3119  11.030   8.265   8.603
    1STR    H1Q 3120  11.029   8.435   8.560
    1STR    H1R 3121  11.276   8.270   8.614
    1STR    H1S 3122  11.401   8.469   8.516
    1STR    H1T 3123  11.293   8.577   8.603
    1STR    H1U 3124  11.231   8.474   8.475
    1STR    H1V 3125  11.368   8.299   8.848
    1STR    H1W 3126  11.395   8.468   8.816
    1STR    H1X 3127  11.701   8.256   8.632
    1STR    H1Y 3128  11.894   8.209   8.522
    1STR    H1Z 3129  12.128   8.257   8.472
    1STR    H20 3130  12.308   8.557   8.579
    1STR    H21 3131  12.363   8.391   8.611
    1STR    H22 3132  12.291   8.434   8.456
    1STR    H23 3133  12.085   8.670   8.808
    1STR    H27 3134  11.894   8.518   8.822
    1STR    H28 3135  10.081   8.366   8.430
    1STR    H29 3136   9.848   8.318   8.393
    1STR    H2A 3137   9.582   8.355   8.636
    1STR    H2B 3138   9.631   8.285   8.483
    1STR    H2C 3139   9.577   8.453   8.488
    1STR   BCK1 3140   9.592   8.736  13.125
    1STR    O03 3141   9.546   8.822  13.199
    1STR    N04 3142   9.713   8.745  13.064
    1STR    C05 3143   9.803   8.853  13.049
    1STR    C06 3144   9.946   8.832  13.049
    1STR    C07 3145  10.041   8.937  13.027
    1STR    N08 3146  10.182   8.913  13.020
    1STR    C09 3147  10.287   8.998  13.002
    1STR    O0A 3148  10.275   9.120  12.993
    1STR    O0B 3149  10.410   8.936  12.995
    1STR    C0C 3150  10.532   9.016  12.984
    1STR    C0D 3151  10.568   9.071  13.123
    1STR    C0E 3152  10.654   8.939  12.924
    1STR    O0F 3153  10.776   9.017  12.921
    1STR    C0G 3154  10.894   8.957  12.862
    1STR    C0H 3155  10.881   8.963  12.709
    1STR    C0I 3156  11.026   9.027  12.908
    1STR    O0J 3157  11.146   8.954  12.870
    1STR    C0K 3158  11.274   9.010  12.909
    1STR    C0M 3159  11.289   9.006  13.062
    1STR    C0N 3160  11.394   8.932  12.846
    1STR    O0O 3161  11.521   8.995  12.872
    1STR    C0P 3162  11.631   8.926  12.916
    1STR    O0Q 3163  11.634   8.809  12.952
    1STR    N0R 3164  11.738   9.007  12.912
    1STR    C0S 3165  11.874   9.000  12.946
    1STR    C0T 3166  11.949   9.111  12.904
    1STR    C0U 3167  12.084   9.126  12.940
    1STR    C0V 3168  12.149   9.029  13.018
    1STR    C0W 3169  12.289   9.063  13.067
    1STR    C0X 3170  12.081   8.909  13.055
    1STR    N0Y 3171  12.149   8.814  13.134
    1STR   BCK2 3172  12.274   8.764  13.115
    1STR    O10 3173  12.335   8.773  13.009
    1STR    C13 3174  11.942   8.897  13.020
    1STR    C14 3175   9.988   9.067  13.008
    1STR    C15 3176   9.850   9.090  13.005
    1STR    C16 3177   9.758   8.985  13.021
    1STR    C17 3178   9.611   9.021  13.000
    1STR    H1B 3179   9.740   8.658  13.020
    1STR    H1C 3180   9.982   8.732  13.066
    1STR    H1D 3181  10.213   8.818  13.030
    1STR    H1E 3182  10.512   9.100  12.918
    1STR    H1F 3183  10.589   8.992  13.194
    1STR    H1G 3184  10.656   9.136  13.118
    1STR    H1H 3185  10.487   9.132  13.164
    1STR    H1I 3186  10.628   8.907  12.822
    1STR    H1J 3187  10.672   8.847  12.981
    1STR    H1K 3188  10.900   8.853  12.894
    1STR    H1M 3189  10.868   9.066  12.674
    1STR    H1N 3190  10.797   8.905  12.672
    1STR    H1O 3191  10.971   8.924  12.661
    1STR    H1P 3192  11.030   9.128  12.868
    1STR    H1Q 3193  11.022   9.036  13.017
    1STR    H1R 3194  11.279   9.113  12.874
    1STR    H1S 3195  11.388   9.042  13.092
    1STR    H1T 3196  11.279   8.905  13.100
    1STR    H1U 3197  11.217   9.070  13.113
    1STR    H1V 3198  11.381   8.928  12.737
    1STR    H1W 3199  11.394   8.828  12.879
    1STR    H1X 3200  11.708   9.095  12.874
    1STR    H1Y 3201  11.904   9.190  12.846
    1STR    H1Z 3202  12.137   9.215  12.910
    1STR    H20 3203  12.306   9.026  13.168
    1STR    H21 3204  12.364   9.021  13.000
    1STR    H22 3205  12.305   9.171  13.070
    1STR    H23 3206  12.102   8.782  13.217
    1STR    H27 3207  11.886   8.810  13.050
    1STR    H28 3208  10.050   9.153  12.991
    1STR    H29 3209   9.815   9.190  12.986
    1STR    H2A 3210   9.556   8.938  12.955
    1STR    H2B 3211   9.601   9.106  12.932
    1STR    H2C 3212   9.565   9.048  13.094
    1STR   BCK1 3213   9.583  13.003   0.054
    1STR    O03 3214   9.546  13.005  17.378
    1STR    N04 3215   9.715  12.985   0.078
    1STR    C05 3216   9.805  12.953   0.182
    1STR    C06 3217   9.943  12.984   0.162
    1STR    C07 3218  10.047  12.940   0.250
    1STR    N08 3219  10.184  12.969   0.225
    1STR    C09 3220  10.295  12.912   0.278
    1STR    O0A 3221  10.292  12.816   0.355
    1STR    O0B 3222  10.412  12.970   0.237
    1STR    C0C 3223  10.539  12.918   0.284
    1STR    C0D 3224  10.575  12.790   0.208
    1STR    C0E 3225  10.655  13.022   0.274
    1STR    O0F 3226  10.779  12.968   0.327
    1STR    C0G 3227  10.893  13.056   0.328
    1STR    C0H 3228  10.878  13.156   0.444
    1STR    C0I 3229  11.025  12.975   0.344
    1STR    O0J 3230  11.143  13.058   0.330
    1STR    C0K 3231  11.271  12.993   0.348
    1STR    C0M 3232  11.299  12.899   0.230
    1STR    C0N 3233  11.385  13.099   0.359
    1STR    O0O 3234  11.507  13.039   0.406
    1STR    C0P 3235  11.626  13.056   0.344
    1STR    O0Q 3236  11.645  13.118   0.240
    1STR    N0R 3237  11.720  12.990   0.412
    1STR    C0S 3238  11.855  12.958   0.386
    1STR    C0T 3239  11.904  12.845   0.456
    1STR    C0U 3240  12.031  12.793   0.427
    1STR    C0V 3241  12.114  12.854   0.332
    1STR    C0W 3242  12.237  12.775   0.288
    1STR    C0X 3243  12.076  12.978   0.273
    1STR    N0Y 3244  12.157  13.047   0.182
    1STR   BCK2 3245  12.288  13.077   0.174
    1STR    O10 3246  12.330  13.133   0.074
    1STR    C13 3247  11.943  13.025   0.297
    1STR    C14 3248  10.007  12.868   0.365
    1STR    C15 3249   9.872  12.837   0.387
    1STR    C16 3250   9.771  12.876   0.298
    1STR    C17 3251   9.633  12.826   0.329
    1STR    H1B 3252   9.760  12.995  17.429
    1STR    H1C 3253   9.971  13.040   0.074
    1STR    H1D 3254  10.206  13.040   0.158
    1STR    H1E 3255  10.528  12.894   0.390
    1STR    H1F 3256  10.588  12.808   0.101
    1STR    H1G 3257  10.668  12.747   0.246
    1STR    H1H 3258  10.498  12.714   0.220
    1STR    H1I 3259  10.627  13.111   0.329
    1STR    H1J 3260  10.670  13.052   0.170
    1STR    H1K 3261  10.899  13.109   0.233
    1STR    H1M 3262  10.865  13.105   0.539
    1STR    H1N 3263  10.794  13.223   0.430
    1STR    H1O 3264  10.967  13.219   0.452
    1STR    H1P 3265  11.026  12.924   0.441
    1STR    H1Q 3266  11.026  12.896   0.268
    1STR    H1R 3267  11.269  12.937   0.441
    1STR    H1S 3268  11.400  12.856   0.238
    1STR    H1T 3269  11.294  12.952   0.135
    1STR    H1U 3270  11.230  12.815   0.226
    1STR    H1V 3271  11.357  13.176   0.430
    1STR    H1W 3272  11.400  13.150   0.263
    1STR    H1X 3273  11.680  12.950   0.495
    1STR    H1Y 3274  11.842  12.793   0.527
    1STR    H1Z 3275  12.063  12.702   0.476
    1STR    H20 3276  12.272  12.806   0.190
    1STR    H21 3277  12.317  12.786   0.361
    1STR    H22 3278  12.213  12.669   0.281
    1STR    H23 3279  12.109  13.089   0.104
    1STR    H27 3280  11.907  13.114   0.247
    1STR    H28 3281  10.078  12.833   0.438
    1STR    H29 3282   9.847  12.779   0.475
    1STR    H2A 3283   9.575  12.905   0.376
    1STR    H2B 3284   9.635  12.743   0.400
    1STR    H2C 3285   9.583  12.790   0.240
    1STR   BCK1 3286   9.594  12.992   4.332
    1STR    O03 3287   9.547  13.099   4.296
    1STR    N04 3288   9.719  12.948   4.302
    1STR    C05 3289   9.810  12.991   4.203
    1STR    C06 3290   9.952  12.990   4.229
    1STR    C07 3291  10.049  13.018   4.128
    1STR    N08 3292  10.189  13.011   4.154
    1STR    C09 3293  10.293  13.003   4.067
    1STR    O0A 3294  10.281  12.998   3.945
    1STR    O0B 3295  10.416  13.000   4.129
    1STR    C0C 3296  10.538  13.003   4.051
    1STR    C0D 3297  10.569  13.148   4.011
    1STR    C0E 3298  10.660  12.938   4.125
    1STR    O0F 3299  10.782  12.942   4.047
    1STR    C0G 3300  10.898  12.878   4.103
    1STR    C0H 3301  10.884  12.726   4.084
    1STR    C0I 3302  11.030  12.928   4.039
    1STR    O0J 3303  11.147  12.880   4.109
    1STR    C0K 3304  11.277  12.918   4.058
    1STR    C0M 3305  11.299  13.069   4.075
    1STR    C0N 3306  11.391  12.841   4.132
    1STR    O0O 3307  11.521  12.867   4.075
    1STR    C0P 3308  11.634  12.882   4.152
    1STR    O0Q 3309  11.638  12.886   4.274
    1STR    N0R 3310  11.740  12.896   4.071
    1STR    C0S 3311  11.876  12.926   4.088
    1STR    C0T 3312  11.945  12.953   3.968
    1STR    C0U 3313  12.078  12.996   3.969
    1STR    C0V 3314  12.148  13.011   4.090
    1STR    C0W 3315  12.285  13.078   4.080
    1STR    C0X 3316  12.089  12.971   4.213
    1STR    N0Y 3317  12.162  12.977   4.334
    1STR   BCK2 3318  12.290  12.937   4.356
    1STR    O10 3319  12.358  12.876   4.274
    1STR    C13 3320  11.950  12.933   4.210
    1STR    C14 3321  10.000  13.054   4.000
    1STR    C15 3322   9.862  13.054   3.973
    1STR    C16 3323   9.768  13.020   4.071
    1STR    C17 3324   9.623  13.008   4.026
    1STR    H1B 3325   9.746  12.868   4.356
    1STR    H1C 3326   9.985  12.965   4.328
    1STR    H1D 3327  10.219  13.010   4.250
    1STR    H1E 3328  10.522  12.945   3.960
    1STR    H1F 3329  10.586  13.211   4.099
    1STR    H1G 3330  10.658  13.153   3.948
    1STR    H1H 3331  10.487  13.192   3.954
    1STR    H1I 3332  10.634  12.835   4.148
    1STR    H1J 3333  10.676  12.989   4.220
    1STR    H1K 3334  10.903  12.901   4.210
    1STR    H1M 3335  10.871  12.700   3.979
    1STR    H1N 3336  10.799  12.684   4.139
    1STR    H1O 3337  10.973  12.674   4.119
    1STR    H1P 3338  11.034  12.899   3.934
    1STR    H1Q 3339  11.029  13.037   4.040
    1STR    H1R 3340  11.283  12.892   3.952
    1STR    H1S 3341  11.399  13.098   4.044
    1STR    H1T 3342  11.288  13.098   4.180
    1STR    H1U 3343  11.230  13.128   4.016
    1STR    H1V 3344  11.374  12.734   4.126
    1STR    H1W 3345  11.390  12.865   4.239
    1STR    H1X 3346  11.709  12.886   3.976
    1STR    H1Y 3347  11.895  12.945   3.873
    1STR    H1Z 3348  12.126  13.021   3.876
    1STR    H20 3349  12.309  13.132   4.172
    1STR    H21 3350  12.362  13.004   4.060
    1STR    H22 3351  12.287  13.151   3.999
    1STR    H23 3352  12.114  13.011   4.415
    1STR    H27 3353  11.899  12.908   4.303
    1STR    H28 3354  10.066  13.081   3.919
    1STR    H29 3355   9.830  13.078   3.872
    1STR    H2A 3356   9.572  12.927   4.077
    1STR    H2B 3357   9.616  12.988   3.919
    1STR    H2C 3358   9.570  13.101   4.046
    1STR   BCK1 3359   9.600  13.050   8.845
    1STR    O03 3360   9.581  13.047   8.966
    1STR    N04 3361   9.708  13.109   8.787
    1STR    C05 3362   9.804  13.194   8.847
    1STR    C06 3363   9.944  13.179   8.824
    1STR    C07 3364  10.043  13.267   8.881
    1STR    N08 3365  10.182  13.254   8.853
    1STR    C09 3366  10.289  13.316   8.909
    1STR    O0A 3367  10.282  13.394   9.003
    1STR    O0B 3368  10.410  13.284   8.850
    1STR    C0C 3369  10.534  13.338   8.904
    1STR    C0D 3370  10.573  13.259   9.030
    1STR    C0E 3371  10.653  13.340   8.802
    1STR    O0F 3372  10.776  13.390   8.860
    1STR    C0G 3373  10.892  13.399   8.775
    1STR    C0H 3374  10.879  13.523   8.686
    1STR    C0I 3375  11.024  13.406   8.858
    1STR    O0J 3376  11.144  13.393   8.778
    1STR    C0K 3377  11.271  13.399   8.847
    1STR    C0M 3378  11.289  13.274   8.935
    1STR    C0N 3379  11.392  13.408   8.748
    1STR    O0O 3380  11.514  13.438   8.818
    1STR    C0P 3381  11.630  13.367   8.801
    1STR    O0Q 3382  11.643  13.266   8.733
    1STR    N0R 3383  11.727  13.426   8.871
    1STR    C0S 3384  11.863  13.402   8.897
    1STR    C0T 3385  11.929  13.504   8.967
    1STR    C0U 3386  12.064  13.492   9.003
    1STR    C0V 3387  12.139  13.377   8.970
    1STR    C0W 3388  12.283  13.379   9.014
    1STR    C0X 3389  12.078  13.271   8.896
    1STR    N0Y 3390  12.145  13.157   8.845
    1STR   BCK2 3391  12.259  13.083   8.852
    1STR    O10 3392  12.272  12.996   8.766
    1STR    C13 3393  11.940  13.286   8.861
    1STR    C14 3394   9.994  13.372   8.962
    1STR    C15 3395   9.856  13.390   8.983
    1STR    C16 3396   9.761  13.306   8.924
    1STR    C17 3397   9.615  13.343   8.941
    1STR    H1B 3398   9.717  13.092   8.688
    1STR    H1C 3399   9.977  13.097   8.762
    1STR    H1D 3400  10.210  13.189   8.782
    1STR    H1E 3401  10.516  13.442   8.933
    1STR    H1F 3402  10.592  13.154   9.007
    1STR    H1G 3403  10.663  13.300   9.075
    1STR    H1H 3404  10.495  13.263   9.105
    1STR    H1I 3405  10.624  13.402   8.717
    1STR    H1J 3406  10.670  13.239   8.763
    1STR    H1K 3407  10.897  13.309   8.713
    1STR    H1M 3408  10.866  13.614   8.746
    1STR    H1N 3409  10.794  13.517   8.618
    1STR    H1O 3410  10.968  13.537   8.624
    1STR    H1P 3411  11.027  13.499   8.915
    1STR    H1Q 3412  11.021  13.325   8.932
    1STR    H1R 3413  11.272  13.489   8.909
    1STR    H1S 3414  11.388  13.274   8.981
    1STR    H1T 3415  11.281  13.183   8.875
    1STR    H1U 3416  11.217  13.269   9.016
    1STR    H1V 3417  11.375  13.489   8.677
    1STR    H1W 3418  11.401  13.317   8.688
    1STR    H1X 3419  11.689  13.509   8.913
    1STR    H1Y 3420  11.877  13.595   8.995
    1STR    H1Z 3421  12.110  13.573   9.057
    1STR    H20 3422  12.297  13.306   9.093
    1STR    H21 3423  12.349  13.358   8.929
    1STR    H22 3424  12.313  13.475   9.054
    1STR    H23 3425  12.090  13.111   8.775
    1STR    H27 3426  11.889  13.209   8.805
    1STR    H28 3427  10.059  13.443   9.010
    1STR    H29 3428   9.824  13.473   9.044
    1STR    H2A 3429   9.557  13.321   8.851
    1STR    H2B 3430   9.604  13.450   8.961
    1STR    H2C 3431   9.571  13.290   9.025
    1STR   BCK1 3432   9.586  12.995  13.148
    1STR    O03 3433   9.539  13.101  13.109
    1STR    N04 3434   9.716  12.971  13.122
    1STR    C05 3435   9.808  12.863  13.126
    1STR    C06 3436   9.947  12.894  13.142
    1STR    C07 3437  10.051  12.797  13.131
    1STR    N08 3438  10.188  12.832  13.142
    1STR    C09 3439  10.299  12.755  13.134
    1STR    O0A 3440  10.298  12.633  13.118
    1STR    O0B 3441  10.416  12.826  13.146
    1STR    C0C 3442  10.543  12.757  13.131
    1STR    C0D 3443  10.574  12.738  12.981
    1STR    C0E 3444  10.660  12.829  13.203
    1STR    O0F 3445  10.782  12.753  13.192
    1STR    C0G 3446  10.897  12.804  13.263
    1STR    C0H 3447  10.882  12.773  13.413
    1STR    C0I 3448  11.028  12.741  13.207
    1STR    O0J 3449  11.145  12.802  13.264
    1STR    C0K 3450  11.273  12.750  13.223
    1STR    C0M 3451  11.301  12.787  13.077
    1STR    C0N 3452  11.387  12.805  13.313
    1STR    O0O 3453  11.511  12.738  13.288
    1STR    C0P 3454  11.630  12.804  13.280
    1STR    O0Q 3455  11.644  12.925  13.285
    1STR    N0R 3456  11.728  12.715  13.261
    1STR    C0S 3457  11.865  12.727  13.232
    1STR    C0T 3458  11.927  12.610  13.183
    1STR    C0U 3459  12.060  12.613  13.137
    1STR    C0V 3460  12.136  12.731  13.142
    1STR    C0W 3461  12.269  12.730  13.069
    1STR    C0X 3462  12.082  12.847  13.205
    1STR    N0Y 3463  12.153  12.968  13.214
    1STR   BCK2 3464  12.279  13.005  13.246
    1STR    O10 3465  12.310  13.123  13.234
    1STR    C13 3466  11.945  12.844  13.245
    1STR    C14 3467  10.009  12.664  13.106
    1STR    C15 3468   9.874  12.631  13.091
    1STR    C16 3469   9.773  12.728  13.098
    1STR    C17 3470   9.634  12.680  13.066
    1STR    H1B 3471   9.755  13.056  13.087
    1STR    H1C 3472   9.975  12.997  13.160
    1STR    H1D 3473  10.211  12.929  13.156
    1STR    H1E 3474  10.534  12.658  13.177
    1STR    H1F 3475  10.585  12.834  12.930
    1STR    H1G 3476  10.666  12.682  12.968
    1STR    H1H 3477  10.495  12.682  12.931
    1STR    H1I 3478  10.633  12.842  13.308
    1STR    H1J 3479  10.675  12.929  13.161
    1STR    H1K 3480  10.904  12.912  13.248
    1STR    H1M 3481  10.868  12.666  13.429
    1STR    H1N 3482  10.798  12.825  13.458
    1STR    H1O 3483  10.971  12.803  13.467
    1STR    H1P 3484  11.028  12.633  13.226
    1STR    H1Q 3485  11.028  12.753  13.099
    1STR    H1R 3486  11.272  12.641  13.234
    1STR    H1S 3487  11.401  12.756  13.047
    1STR    H1T 3488  11.295  12.895  13.062
    1STR    H1U 3489  11.231  12.741  13.007
    1STR    H1V 3490  11.362  12.790  13.418
    1STR    H1W 3491  11.397  12.913  13.300
    1STR    H1X 3492  11.690  12.622  13.263
    1STR    H1Y 3493  11.872  12.518  13.173
    1STR    H1Z 3494  12.102  12.524  13.093
    1STR    H20 3495  12.298  12.830  13.037
    1STR    H21 3496  12.348  12.689  13.132
    1STR    H22 3497  12.263  12.669  12.979
    1STR    H23 3498  12.098  13.050  13.194
    1STR    H27 3499  11.899  12.933  13.285
    1STR    H28 3500  10.079  12.582  13.095
    1STR    H29 3501   9.849  12.528  13.070
    1STR    H2A 3502   9.582  12.654  13.158
    1STR    H2B 3503   9.636  12.590  13.005
    1STR    H2C 3504   9.578  12.755  13.010
    1STR   BCK1 3505  13.952  17.431  17.430
    1STR    O03 3506  13.903   0.097   0.026
    1STR    N04 3507  14.074  17.417  17.374
    1STR    C05 3508  14.165   0.073  17.321
    1STR    C06 3509  14.307   0.056  17.332
    1STR    C07 3510  14.403   0.144  17.271
    1STR    N08 3511  14.543   0.121  17.278
    1STR    C09 3512  14.647   0.184  17.217
    1STR    O0A 3513  14.634   0.279  17.141
    1STR    O0B 3514  14.771   0.132  17.248
    1STR    C0C 3515  14.893   0.195  17.198
    1STR    C0D 3516  14.926   0.317  17.286
    1STR    C0E 3517  15.016   0.099  17.190
    1STR    O0F 3518  15.137   0.164  17.145
    1STR    C0G 3519  15.255   0.081  17.128
    1STR    C0H 3520  15.242   0.005  16.995
    1STR    C0I 3521  15.387   0.165  17.130
    1STR    O0J 3522  15.506   0.081  17.136
    1STR    C0K 3523  15.635   0.147  17.138
    1STR    C0M 3524  15.652   0.227  17.268
    1STR    C0N 3525  15.752   0.044  17.127
    1STR    O0O 3526  15.881   0.108  17.116
    1STR    C0P 3527  15.991   0.067  17.186
    1STR    O0Q 3528  15.992  17.422  17.275
    1STR    N0R 3529  16.098   0.134  17.143
    1STR    C0S 3530  16.235   0.143  17.178
    1STR    C0T 3531  16.309   0.232  17.098
    1STR    C0U 3532  16.443   0.262  17.128
    1STR    C0V 3533  16.508   0.202  17.237
    1STR    C0W 3534  16.646   0.256  17.271
    1STR    C0X 3535  16.441   0.102  17.314
    1STR    N0Y 3536  16.509   0.040  17.421
    1STR   BCK2 3537  16.635  17.429  17.421
    1STR    O10 3538  16.701  17.411  17.319
    1STR    C13 3539  16.303   0.076  17.285
    1STR    C14 3540  14.349   0.255  17.201
    1STR    C15 3541  14.211   0.273  17.186
    1STR    C16 3542  14.119   0.182  17.241
    1STR    C17 3543  13.973   0.204  17.205
    1STR    H1B 3544  14.103  17.321  17.367
    1STR    H1C 3545  14.343  17.412  17.389
    1STR    H1D 3546  14.575   0.046  17.337
    1STR    H1E 3547  14.874   0.231  17.096
    1STR    H1F 3548  14.946   0.288  17.389
    1STR    H1G 3549  15.014   0.370  17.248
    1STR    H1H 3550  14.844   0.389  17.286
    1STR    H1I 3551  14.990   0.017  17.122
    1STR    H1J 3552  15.033   0.054  17.287
    1STR    H1K 3553  15.261   0.011  17.211
    1STR    H1M 3554  15.229   0.073  16.911
    1STR    H1N 3555  15.158  17.376  16.995
    1STR    H1O 3556  15.332  17.386  16.976
    1STR    H1P 3557  15.392   0.229  17.042
    1STR    H1Q 3558  15.384   0.231  17.216
    1STR    H1R 3559  15.641   0.215  17.053
    1STR    H1S 3560  15.752   0.271  17.274
    1STR    H1T 3561  15.641   0.163  17.355
    1STR    H1U 3562  15.582   0.309  17.277
    1STR    H1V 3563  15.739  17.423  17.037
    1STR    H1W 3564  15.750  17.414  17.211
    1STR    H1X 3565  16.070   0.194  17.068
    1STR    H1Y 3566  16.264   0.282  17.014
    1STR    H1Z 3567  16.495   0.334  17.067
    1STR    H20 3568  16.665   0.252  17.378
    1STR    H21 3569  16.723   0.199  17.220
    1STR    H22 3570  16.656   0.360  17.241
    1STR    H23 3571  16.460   0.032   0.069
    1STR    H27 3572  16.248   0.005  17.345
    1STR    H28 3573  14.412   0.329  17.154
    1STR    H29 3574  14.176   0.357  17.128
    1STR    H2A 3575  13.920   0.110  17.194
    1STR    H2B 3576  13.963   0.256  17.110
    1STR    H2C 3577  13.924   0.265  17.281
    1STR   BCK1 3578  13.941  17.322   4.477
    1STR    O03 3579  13.912  17.237   4.560
    1STR    N04 3580  14.056  17.393   4.475
    1STR    C05 3581  14.158  17.402   4.574
    1STR    C06 3582  14.297  17.409   4.538
    1STR    C07 3583  14.402  17.423   4.635
    1STR    N08 3584  14.539  17.436   4.599
    1STR    C09 3585  14.650  17.430   4.677
    1STR    O0A 3586  14.649  17.400   4.795
    1STR    O0B 3587  14.768   0.019   4.610
    1STR    C0C 3588  14.895   0.010   4.680
    1STR    C0D 3589  14.936  17.302   4.690
    1STR    C0E 3590  15.011   0.094   4.617
    1STR    O0F 3591  15.135   0.079   4.691
    1STR    C0G 3592  15.249   0.154   4.646
    1STR    C0H 3593  15.235   0.300   4.691
    1STR    C0I 3594  15.382   0.093   4.701
    1STR    O0J 3595  15.500   0.153   4.642
    1STR    C0K 3596  15.628   0.107   4.690
    1STR    C0M 3597  15.653  17.402   4.647
    1STR    C0N 3598  15.744   0.197   4.638
    1STR    O0O 3599  15.866   0.170   4.708
    1STR    C0P 3600  15.984   0.140   4.647
    1STR    O0Q 3601  16.003   0.129   4.526
    1STR    N0R 3602  16.076   0.121   4.742
    1STR    C0S 3603  16.209   0.078   4.747
    1STR    C0T 3604  16.253   0.046   4.877
    1STR    C0U 3605  16.383  17.439   4.899
    1STR    C0V 3606  16.475  17.425   4.794
    1STR    C0W 3607  16.610  17.373   4.835
    1STR    C0X 3608  16.438   0.022   4.660
    1STR    N0Y 3609  16.526   0.033   4.550
    1STR   BCK2 3610  16.651   0.002   4.507
    1STR    O10 3611  16.691   0.058   4.405
    1STR    C13 3612  16.303   0.066   4.640
    1STR    C14 3613  14.361  17.429   4.771
    1STR    C15 3614  14.226  17.426   4.807
    1STR    C16 3615  14.124  17.418   4.711
    1STR    C17 3616  13.982  17.435   4.761
    1STR    H1B 3617  14.069   0.008   4.392
    1STR    H1C 3618  14.323  17.403   4.434
    1STR    H1D 3619  14.561   0.014   4.503
    1STR    H1E 3620  14.881   0.048   4.782
    1STR    H1F 3621  14.952  17.258   4.592
    1STR    H1G 3622  15.028  17.291   4.748
    1STR    H1H 3623  14.859  17.243   4.741
    1STR    H1I 3624  14.981   0.198   4.615
    1STR    H1J 3625  15.027   0.063   4.514
    1STR    H1K 3626  15.255   0.149   4.537
    1STR    H1M 3627  15.223   0.307   4.799
    1STR    H1N 3628  15.149   0.349   4.645
    1STR    H1O 3629  15.323   0.357   4.664
    1STR    H1P 3630  15.385   0.104   4.810
    1STR    H1Q 3631  15.381  17.426   4.681
    1STR    H1R 3632  15.628   0.114   4.800
    1STR    H1S 3633  15.753  17.370   4.677
    1STR    H1T 3634  15.647  17.392   4.539
    1STR    H1U 3635  15.583  17.332   4.692
    1STR    H1V 3636  15.720   0.302   4.655
    1STR    H1W 3637  15.757   0.186   4.530
    1STR    H1X 3638  16.032   0.139   4.831
    1STR    H1Y 3639  16.188   0.055   4.962
    1STR    H1Z 3640  16.411  17.413   5.000
    1STR    H20 3641  16.625  17.275   4.790
    1STR    H21 3642  16.689   0.003   4.807
    1STR    H22 3643  16.618  17.358   4.943
    1STR    H23 3644  16.485   0.086   4.475
    1STR    H27 3645  16.269   0.094   4.541
    1STR    H28 3646  14.432  17.439   4.852
    1STR    H29 3647  14.201  17.434   4.912
    1STR    H2A 3648  13.920   0.047   4.688
    1STR    H2B 3649  13.979   0.053   4.853
    1STR    H2C 3650  13.937  17.338   4.783
    1STR   BCK1 3651  13.952  17.320   8.724
    1STR    O03 3652  13.911  17.403   8.643
    1STR    N04 3653  14.076  17.267   8.724
    1STR    C05 3654  14.171  17.261   8.620
    1STR    C06 3655  14.311  17.276   8.647
    1STR    C07 3656  14.411  17.254   8.547
    1STR    N08 3657  14.550  17.263   8.576
    1STR    C09 3658  14.655  17.212   8.508
    1STR    O0A 3659  14.645  17.142   8.408
    1STR    O0B 3660  14.777  17.244   8.564
    1STR    C0C 3661  14.900  17.206   8.497
    1STR    C0D 3662  14.931  17.309   8.387
    1STR    C0E 3663  15.020  17.192   8.595
    1STR    O0F 3664  15.142  17.153   8.528
    1STR    C0G 3665  15.257  17.129   8.611
    1STR    C0H 3666  15.243  16.991   8.677
    1STR    C0I 3667  15.389  17.135   8.528
    1STR    O0J 3668  15.507  17.129   8.612
    1STR    C0K 3669  15.636  17.132   8.547
    1STR    C0M 3670  15.660  17.271   8.485
    1STR    C0N 3671  15.750  17.100   8.648
    1STR    O0O 3672  15.878  17.088   8.583
    1STR    C0P 3673  15.993  17.136   8.639
    1STR    O0Q 3674  16.000  17.201   8.743
    1STR    N0R 3675  16.098  17.102   8.563
    1STR    C0S 3676  16.235  17.131   8.565
    1STR    C0T 3677  16.310  17.085   8.455
    1STR    C0U 3678  16.445  17.118   8.440
    1STR    C0V 3679  16.512  17.197   8.535
    1STR    C0W 3680  16.652  17.245   8.499
    1STR    C0X 3681  16.444  17.239   8.652
    1STR    N0Y 3682  16.501  17.329   8.744
    1STR   BCK2 3683  16.620  17.349   8.805
    1STR    O10 3684  16.634   0.015   8.865
    1STR    C13 3685  16.305  17.206   8.665
    1STR    C14 3686  14.366  17.224   8.416
    1STR    C15 3687  14.229  17.207   8.389
    1STR    C16 3688  14.132  17.222   8.489
    1STR    C17 3689  13.989  17.187   8.452
    1STR    H1B 3690  14.098  17.218   8.808
    1STR    H1C 3691  14.342  17.302   8.747
    1STR    H1D 3692  14.577  17.313   8.659
    1STR    H1E 3693  14.886  17.109   8.450
    1STR    H1F 3694  14.947  17.409   8.429
    1STR    H1G 3695  15.021  17.281   8.332
    1STR    H1H 3696  14.850  17.316   8.315
    1STR    H1I 3697  14.993  17.118   8.671
    1STR    H1J 3698  15.036  17.286   8.648
    1STR    H1K 3699  15.263  17.206   8.687
    1STR    H1M 3700  15.229  16.912   8.603
    1STR    H1N 3701  15.158  16.986   8.746
    1STR    H1O 3702  15.332  16.966   8.735
    1STR    H1P 3703  15.391  17.054   8.455
    1STR    H1Q 3704  15.389  17.228   8.471
    1STR    H1R 3705  15.638  17.056   8.469
    1STR    H1S 3706  15.760  17.278   8.443
    1STR    H1T 3707  15.651  17.349   8.561
    1STR    H1U 3708  15.590  17.294   8.405
    1STR    H1V 3709  15.729  17.006   8.699
    1STR    H1W 3710  15.753  17.176   8.727
    1STR    H1X 3711  16.065  17.045   8.486
    1STR    H1Y 3712  16.263  17.027   8.377
    1STR    H1Z 3713  16.497  17.085   8.351
    1STR    H20 3714  16.669  17.347   8.534
    1STR    H21 3715  16.727  17.179   8.543
    1STR    H22 3716  16.667  17.245   8.391
    1STR    H23 3717  16.437  17.400   8.775
    1STR    H27 3718  16.249  17.242   8.750
    1STR    H28 3719  14.434  17.210   8.334
    1STR    H29 3720  14.200  17.179   8.289
    1STR    H2A 3721  13.938  17.136   8.534
    1STR    H2B 3722  13.985  17.121   8.366
    1STR    H2C 3723  13.933  17.278   8.427
    1STR   BCK1 3724  13.952   0.011  13.164
    1STR    O03 3725  13.909   0.077  13.257
    1STR    N04 3726  14.071   0.034  13.103
    1STR    C05 3727  14.163   0.142  13.115
    1STR    C06 3728  14.305   0.121  13.107
    1STR    C07 3729  14.402   0.228  13.112
    1STR    N08 3730  14.542   0.205  13.097
    1STR    C09 3731  14.647   0.291  13.109
    1STR    O0A 3732  14.637   0.408  13.144
    1STR    O0B 3733  14.770   0.234  13.078
    1STR    C0C 3734  14.893   0.312  13.094
    1STR    C0D 3735  14.930   0.316  13.243
    1STR    C0E 3736  15.014   0.260  13.009
    1STR    O0F 3737  15.136   0.335  13.033
    1STR    C0G 3738  15.253   0.298  12.956
    1STR    C0H 3739  15.240   0.355  12.814
    1STR    C0I 3740  15.385   0.348  13.024
    1STR    O0J 3741  15.506   0.295  12.963
    1STR    C0K 3742  15.633   0.336  13.020
    1STR    C0M 3743  15.649   0.278  13.162
    1STR    C0N 3744  15.755   0.290  12.934
    1STR    O0O 3745  15.879   0.346  12.983
    1STR    C0P 3746  15.993   0.272  13.001
    1STR    O0Q 3747  16.002   0.150  12.988
    1STR    N0R 3748  16.094   0.353  13.035
    1STR    C0S 3749  16.230   0.336  13.067
    1STR    C0T 3750  16.304   0.455  13.078
    1STR    C0U 3751  16.440   0.453  13.113
    1STR    C0V 3752  16.508   0.332  13.137
    1STR    C0W 3753  16.655   0.344  13.169
    1STR    C0X 3754  16.438   0.208  13.126
    1STR    N0Y 3755  16.497   0.080  13.134
    1STR   BCK2 3756  16.607   0.010  13.173
    1STR    O10 3757  16.612  17.334  13.136
    1STR    C13 3758  16.299   0.214  13.091
    1STR    C14 3759  14.349   0.358  13.128
    1STR    C15 3760  14.211   0.382  13.133
    1STR    C16 3761  14.118   0.277  13.123
    1STR    C17 3762  13.972   0.318  13.113
    1STR    H1B 3763  14.097  17.401  13.038
    1STR    H1C 3764  14.341   0.020  13.097
    1STR    H1D 3765  14.572   0.112  13.074
    1STR    H1E 3766  14.873   0.414  13.061
    1STR    H1F 3767  14.951   0.217  13.282
    1STR    H1G 3768  15.019   0.378  13.259
    1STR    H1H 3769  14.850   0.360  13.303
    1STR    H1I 3770  14.986   0.266  12.904
    1STR    H1J 3771  15.031   0.155  13.031
    1STR    H1K 3772  15.260   0.189  12.952
    1STR    H1M 3773  15.227   0.463  12.817
    1STR    H1N 3774  15.156   0.313  12.760
    1STR    H1O 3775  15.330   0.334  12.756
    1STR    H1P 3776  15.388   0.458  13.022
    1STR    H1Q 3777  15.381   0.320  13.129
    1STR    H1R 3778  15.635   0.445  13.025
    1STR    H1S 3779  15.747   0.301  13.202
    1STR    H1T 3780  15.639   0.169  13.160
    1STR    H1U 3781  15.576   0.317  13.232
    1STR    H1V 3782  15.742   0.324  12.831
    1STR    H1W 3783  15.760   0.181  12.929
    1STR    H1X 3784  16.060   0.448  13.034
    1STR    H1Y 3785  16.258   0.551  13.060
    1STR    H1Z 3786  16.493   0.547  13.120
    1STR    H20 3787  16.671   0.320  13.274
    1STR    H21 3788  16.713   0.278  13.105
    1STR    H22 3789  16.693   0.445  13.153
    1STR    H23 3790  16.437   0.009  13.095
    1STR    H27 3791  16.243   0.122  13.081
    1STR    H28 3792  14.412   0.445  13.134
    1STR    H29 3793  14.177   0.484  13.142
    1STR    H2A 3794  13.916   0.250  13.049
    1STR    H2B 3795  13.962   0.417  13.069
    1STR    H2C 3796  13.927   0.321  13.212
    1STR   BCK1 3797  13.945   4.299   0.073
    1STR    O03 3798  13.894   4.411   0.073
    1STR    N04 3799  14.074   4.288   0.109
    1STR    C05 3800  14.167   4.187   0.142
    1STR    C06 3801  14.306   4.216   0.124
    1STR    C07 3802  14.411   4.129   0.168
    1STR    N08 3803  14.547   4.165   0.159
    1STR    C09 3804  14.659   4.101   0.202
    1STR    O0A 3805  14.658   3.992   0.258
    1STR    O0B 3806  14.775   4.171   0.179
    1STR    C0C 3807  14.902   4.109   0.209
    1STR    C0D 3808  14.939   4.013   0.095
    1STR    C0E 3809  15.017   4.211   0.235
    1STR    O0F 3810  15.140   4.143   0.268
    1STR    C0G 3811  15.254   4.225   0.300
    1STR    C0H 3812  15.238   4.279   0.443
    1STR    C0I 3813  15.386   4.143   0.288
    1STR    O0J 3814  15.503   4.226   0.304
    1STR    C0K 3815  15.631   4.159   0.298
    1STR    C0M 3816  15.660   4.111   0.155
    1STR    C0N 3817  15.745   4.254   0.345
    1STR    O0O 3818  15.867   4.182   0.367
    1STR    C0P 3819  15.987   4.224   0.318
    1STR    O0Q 3820  16.006   4.323   0.247
    1STR    N0R 3821  16.082   4.138   0.356
    1STR    C0S 3822  16.217   4.122   0.322
    1STR    C0T 3823  16.269   3.992   0.340
    1STR    C0U 3824  16.398   3.959   0.297
    1STR    C0V 3825  16.481   4.056   0.237
    1STR    C0W 3826  16.608   4.005   0.169
    1STR    C0X 3827  16.439   4.191   0.232
    1STR    N0Y 3828  16.520   4.293   0.178
    1STR   BCK2 3829  16.650   4.328   0.188
    1STR    O10 3830  16.690   4.422   0.120
    1STR    C13 3831  16.305   4.222   0.270
    1STR    C14 3832  14.370   4.006   0.225
    1STR    C15 3833  14.234   3.976   0.245
    1STR    C16 3834  14.133   4.067   0.209
    1STR    C17 3835  13.994   4.032   0.257
    1STR    H1B 3836  14.111   4.382   0.114
    1STR    H1C 3837  14.334   4.310   0.078
    1STR    H1D 3838  14.570   4.253   0.115
    1STR    H1E 3839  14.891   4.051   0.301
    1STR    H1F 3840  14.952   4.065   0.001
    1STR    H1G 3841  15.032   3.960   0.118
    1STR    H1H 3842  14.862   3.937   0.081
    1STR    H1I 3843  14.987   4.277   0.317
    1STR    H1J 3844  15.031   4.274   0.147
    1STR    H1K 3845  15.260   4.308   0.230
    1STR    H1M 3846  15.225   4.198   0.515
    1STR    H1N 3847  15.153   4.346   0.453
    1STR    H1O 3848  15.327   4.335   0.473
    1STR    H1P 3849  15.386   4.062   0.361
    1STR    H1Q 3850  15.387   4.096   0.190
    1STR    H1R 3851  15.629   4.074   0.366
    1STR    H1S 3852  15.760   4.069   0.147
    1STR    H1T 3853  15.654   4.194   0.084
    1STR    H1U 3854  15.590   4.034   0.122
    1STR    H1V 3855  15.718   4.301   0.439
    1STR    H1W 3856  15.759   4.336   0.274
    1STR    H1X 3857  16.042   4.068   0.415
    1STR    H1Y 3858  16.208   3.914   0.383
    1STR    H1Z 3859  16.432   3.857   0.305
    1STR    H20 3860  16.643   4.073   0.092
    1STR    H21 3861  16.687   3.989   0.242
    1STR    H22 3862  16.588   3.910   0.119
    1STR    H23 3863  16.471   4.360   0.121
    1STR    H27 3864  16.267   4.322   0.258
    1STR    H28 3865  14.440   3.931   0.258
    1STR    H29 3866  14.209   3.883   0.293
    1STR    H2A 3867  13.937   4.121   0.282
    1STR    H2B 3868  13.997   3.971   0.347
    1STR    H2C 3869  13.942   3.973   0.181
    1STR   BCK1 3870  13.953   4.302   4.327
    1STR    O03 3871  13.904   4.414   4.319
    1STR    N04 3872  14.077   4.268   4.283
    1STR    C05 3873  14.168   4.336   4.199
    1STR    C06 3874  14.309   4.327   4.220
    1STR    C07 3875  14.406   4.383   4.130
    1STR    N08 3876  14.546   4.367   4.150
    1STR    C09 3877  14.650   4.389   4.065
    1STR    O0A 3878  14.637   4.426   3.949
    1STR    O0B 3879  14.774   4.364   4.121
    1STR    C0C 3880  14.895   4.393   4.046
    1STR    C0D 3881  14.927   4.543   4.057
    1STR    C0E 3882  15.018   4.308   4.093
    1STR    O0F 3883  15.139   4.339   4.020
    1STR    C0G 3884  15.256   4.259   4.051
    1STR    C0H 3885  15.243   4.123   3.980
    1STR    C0I 3886  15.389   4.329   4.008
    1STR    O0J 3887  15.506   4.261   4.058
    1STR    C0K 3888  15.636   4.315   4.024
    1STR    C0M 3889  15.656   4.451   4.091
    1STR    C0N 3890  15.751   4.218   4.069
    1STR    O0O 3891  15.881   4.263   4.025
    1STR    C0P 3892  15.992   4.257   4.104
    1STR    O0Q 3893  15.994   4.225   4.222
    1STR    N0R 3894  16.099   4.295   4.033
    1STR    C0S 3895  16.235   4.319   4.059
    1STR    C0T 3896  16.306   4.374   3.951
    1STR    C0U 3897  16.439   4.415   3.965
    1STR    C0V 3898  16.506   4.401   4.088
    1STR    C0W 3899  16.643   4.467   4.098
    1STR    C0X 3900  16.444   4.333   4.196
    1STR    N0Y 3901  16.514   4.311   4.317
    1STR   BCK2 3902  16.641   4.267   4.334
    1STR    O10 3903  16.712   4.227   4.242
    1STR    C13 3904  16.306   4.297   4.182
    1STR    C14 3905  14.355   4.453   4.018
    1STR    C15 3906  14.217   4.461   3.994
    1STR    C16 3907  14.123   4.401   4.080
    1STR    C17 3908  13.978   4.404   4.036
    1STR    H1B 3909  14.105   4.177   4.315
    1STR    H1C 3910  14.345   4.275   4.308
    1STR    H1D 3911  14.577   4.335   4.240
    1STR    H1E 3912  14.878   4.369   3.941
    1STR    H1F 3913  14.945   4.573   4.160
    1STR    H1G 3914  15.015   4.569   3.999
    1STR    H1H 3915  14.844   4.604   4.019
    1STR    H1I 3916  14.992   4.202   4.079
    1STR    H1J 3917  15.035   4.323   4.199
    1STR    H1K 3918  15.261   4.244   4.159
    1STR    H1M 3919  15.230   4.136   3.873
    1STR    H1N 3920  15.159   4.065   4.017
    1STR    H1O 3921  15.333   4.063   3.996
    1STR    H1P 3922  15.393   4.337   3.899
    1STR    H1Q 3923  15.386   4.431   4.046
    1STR    H1R 3924  15.642   4.326   3.915
    1STR    H1S 3925  15.757   4.490   4.071
    1STR    H1T 3926  15.645   4.444   4.199
    1STR    H1U 3927  15.587   4.527   4.054
    1STR    H1V 3928  15.735   4.120   4.026
    1STR    H1W 3929  15.749   4.205   4.177
    1STR    H1X 3930  16.069   4.313   3.938
    1STR    H1Y 3931  16.259   4.389   3.855
    1STR    H1Z 3932  16.489   4.461   3.882
    1STR    H20 3933  16.665   4.498   4.200
    1STR    H21 3934  16.721   4.399   4.064
    1STR    H22 3935  16.647   4.557   4.036
    1STR    H23 3936  16.463   4.326   4.403
    1STR    H27 3937  16.253   4.251   4.264
    1STR    H28 3938  14.419   4.501   3.947
    1STR    H29 3939  14.183   4.513   3.905
    1STR    H2A 3940  13.926   4.312   4.063
    1STR    H2B 3941  13.970   4.413   3.927
    1STR    H2C 3942  13.927   4.489   4.080
    1STR   BCK1 3943  13.958   4.293   8.856
    1STR    O03 3944  13.949   4.250   8.971
    1STR    N04 3945  14.062   4.369   8.814
    1STR    C05 3946  14.161   4.430   8.894
    1STR    C06 3947  14.301   4.422   8.863
    1STR    C07 3948  14.402   4.486   8.943
    1STR    N08 3949  14.541   4.481   8.910
    1STR    C09 3950  14.650   4.519   8.983
    1STR    O0A 3951  14.644   4.558   9.099
    1STR    O0B 3952  14.770   4.509   8.915
    1STR    C0C 3953  14.895   4.540   8.983
    1STR    C0D 3954  14.935   4.422   9.073
    1STR    C0E 3955  15.013   4.577   8.886
    1STR    O0F 3956  15.136   4.603   8.958
    1STR    C0G 3957  15.252   4.642   8.880
    1STR    C0H 3958  15.238   4.789   8.839
    1STR    C0I 3959  15.384   4.620   8.961
    1STR    O0J 3960  15.503   4.636   8.881
    1STR    C0K 3961  15.630   4.618   8.948
    1STR    C0M 3962  15.649   4.471   8.988
    1STR    C0N 3963  15.751   4.661   8.860
    1STR    O0O 3964  15.873   4.665   8.937
    1STR    C0P 3965  15.990   4.607   8.897
    1STR    O0Q 3966  16.007   4.541   8.795
    1STR    N0R 3967  16.084   4.636   8.988
    1STR    C0S 3968  16.220   4.606   9.006
    1STR    C0T 3969  16.278   4.669   9.119
    1STR    C0U 3970  16.413   4.650   9.150
    1STR    C0V 3971  16.496   4.570   9.070
    1STR    C0W 3972  16.642   4.567   9.110
    1STR    C0X 3973  16.443   4.503   8.956
    1STR    N0Y 3974  16.521   4.432   8.861
    1STR   BCK2 3975  16.639   4.367   8.846
    1STR    O10 3976  16.673   4.342   8.731
    1STR    C13 3977  16.304   4.524   8.926
    1STR    C14 3978  14.356   4.559   9.055
    1STR    C15 3979  14.220   4.572   9.084
    1STR    C16 3980  14.122   4.512   9.003
    1STR    C17 3981  13.977   4.544   9.034
    1STR    H1B 3982  14.063   4.387   8.715
    1STR    H1C 3983  14.332   4.364   8.777
    1STR    H1D 3984  14.567   4.444   8.821
    1STR    H1E 3985  14.878   4.627   9.046
    1STR    H1F 3986  14.953   4.331   9.015
    1STR    H1G 3987  15.025   4.444   9.129
    1STR    H1H 3988  14.857   4.400   9.146
    1STR    H1I 3989  14.984   4.664   8.828
    1STR    H1J 3990  15.029   4.495   8.816
    1STR    H1K 3991  15.257   4.579   8.791
    1STR    H1M 3992  15.226   4.853   8.927
    1STR    H1N 3993  15.153   4.806   8.774
    1STR    H1O 3994  15.327   4.823   8.786
    1STR    H1P 3995  15.386   4.688   9.046
    1STR    H1Q 3996  15.381   4.519   9.002
    1STR    H1R 3997  15.631   4.681   9.038
    1STR    H1S 3998  15.748   4.455   9.032
    1STR    H1T 3999  15.642   4.406   8.901
    1STR    H1U 4000  15.577   4.438   9.062
    1STR    H1V 4001  15.734   4.762   8.821
    1STR    H1W 4002  15.762   4.597   8.772
    1STR    H1X 4003  16.042   4.694   9.058
    1STR    H1Y 4004  16.220   4.733   9.182
    1STR    H1Z 4005  16.453   4.701   9.236
    1STR    H20 4006  16.663   4.475   9.164
    1STR    H21 4007  16.706   4.577   9.023
    1STR    H22 4008  16.668   4.649   9.177
    1STR    H23 4009  16.477   4.430   8.771
    1STR    H27 4010  16.260   4.477   8.839
    1STR    H28 4011  14.424   4.611   9.122
    1STR    H29 4012  14.190   4.631   9.169
    1STR    H2A 4013  13.918   4.555   8.943
    1STR    H2B 4014  13.968   4.637   9.090
    1STR    H2C 4015  13.933   4.464   9.095
    1STR   BCK1 4016  13.949   4.237  13.119
    1STR    O03 4017  13.921   4.270  13.004
    1STR    N04 4018  14.070   4.193  13.157
    1STR    C05 4019  14.170   4.135  13.078
    1STR    C06 4020  14.308   4.166  13.096
    1STR    C07 4021  14.412   4.098  13.026
    1STR    N08 4022  14.549   4.125  13.048
    1STR    C09 4023  14.657   4.047  13.022
    1STR    O0A 4024  14.650   3.933  12.977
    1STR    O0B 4025  14.777   4.107  13.052
    1STR    C0C 4026  14.901   4.042  13.016
    1STR    C0D 4027  14.933   4.071  12.869
    1STR    C0E 4028  15.020   4.084  13.108
    1STR    O0F 4029  15.142   4.014  13.072
    1STR    C0G 4030  15.257   4.038  13.156
    1STR    C0H 4031  15.242   3.958  13.286
    1STR    C0I 4032  15.388   3.998  13.082
    1STR    O0J 4033  15.505   4.036  13.157
    1STR    C0K 4034  15.633   4.002  13.100
    1STR    C0M 4035  15.660   4.088  12.975
    1STR    C0N 4036  15.748   4.025  13.203
    1STR    O0O 4037  15.873   3.974  13.155
    1STR    C0P 4038  15.991   4.040  13.175
    1STR    O0Q 4039  16.002   4.151  13.226
    1STR    N0R 4040  16.091   3.967  13.126
    1STR    C0S 4041  16.229   3.990  13.108
    1STR    C0T 4042  16.297   3.897  13.027
    1STR    C0U 4043  16.431   3.916  12.991
    1STR    C0V 4044  16.503   4.029  13.037
    1STR    C0W 4045  16.639   4.053  12.974
    1STR    C0X 4046  16.442   4.118  13.129
    1STR    N0Y 4047  16.507   4.234  13.175
    1STR   BCK2 4048  16.629   4.266  13.221
    1STR    O10 4049  16.654   4.384  13.243
    1STR    C13 4050  16.304   4.099  13.160
    1STR    C14 4051  14.372   4.001  12.931
    1STR    C15 4052  14.237   3.967  12.913
    1STR    C16 4053  14.136   4.031  12.987
    1STR    C17 4054  13.994   3.977  12.972
    1STR    H1B 4055  14.083   4.191  13.257
    1STR    H1C 4056  14.335   4.243  13.167
    1STR    H1D 4057  14.574   4.212  13.091
    1STR    H1E 4058  14.889   3.934  13.028
    1STR    H1F 4059  14.947   4.178  12.851
    1STR    H1G 4060  15.024   4.020  12.837
    1STR    H1H 4061  14.853   4.037  12.803
    1STR    H1I 4062  14.992   4.061  13.211
    1STR    H1J 4063  15.036   4.191  13.102
    1STR    H1K 4064  15.263   4.145  13.179
    1STR    H1M 4065  15.228   3.851  13.265
    1STR    H1N 4066  15.157   3.991  13.346
    1STR    H1O 4067  15.331   3.968  13.348
    1STR    H1P 4068  15.388   3.891  13.063
    1STR    H1Q 4069  15.388   4.047  12.985
    1STR    H1R 4070  15.633   3.896  13.073
    1STR    H1S 4071  15.760   4.070  12.936
    1STR    H1T 4072  15.653   4.194  12.999
    1STR    H1U 4073  15.590   4.067  12.894
    1STR    H1V 4074  15.724   3.973  13.296
    1STR    H1W 4075  15.755   4.131  13.229
    1STR    H1X 4076  16.056   3.879  13.092
    1STR    H1Y 4077  16.246   3.811  12.986
    1STR    H1Z 4078  16.478   3.846  12.924
    1STR    H20 4079  16.664   4.160  12.972
    1STR    H21 4080  16.717   4.000  13.028
    1STR    H22 4081  16.641   4.019  12.871
    1STR    H23 4082  16.448   4.316  13.177
    1STR    H27 4083  16.254   4.170  13.224
    1STR    H28 4084  14.444   3.948  12.870
    1STR    H29 4085  14.212   3.890  12.843
    1STR    H2A 4086  13.943   3.975  13.068
    1STR    H2B 4087  13.994   3.876  12.933
    1STR    H2C 4088  13.938   4.040  12.903
    1STR   BCK1 4089  13.952   8.731   0.021
    1STR    O03 4090  13.904   8.826   0.081
    1STR    N04 4091  14.073   8.731  17.401
    1STR    C05 4092  14.164   8.837  17.371
    1STR    C06 4093  14.306   8.816  17.376
    1STR    C07 4094  14.401   8.917  17.338
    1STR    N08 4095  14.542   8.892  17.337
    1STR    C09 4096  14.646   8.972  17.300
    1STR    O0A 4097  14.634   9.088  17.263
    1STR    O0B 4098  14.770   8.911  17.309
    1STR    C0C 4099  14.892   8.987  17.282
    1STR    C0D 4100  14.927   9.072  17.405
    1STR    C0E 4101  15.015   8.899  17.240
    1STR    O0F 4102  15.136   8.976  17.220
    1STR    C0G 4103  15.254   8.904  17.176
    1STR    C0H 4104  15.242   8.877  17.025
    1STR    C0I 4105  15.386   8.982  17.206
    1STR    O0J 4106  15.506   8.902  17.185
    1STR    C0K 4107  15.634   8.964  17.210
    1STR    C0M 4108  15.650   8.995  17.360
    1STR    C0N 4109  15.753   8.873  17.165
    1STR    O0O 4110  15.881   8.939  17.177
    1STR    C0P 4111  15.991   8.880  17.233
    1STR    O0Q 4112  15.992   8.772  17.292
    1STR    N0R 4113  16.098   8.958  17.213
    1STR    C0S 4114  16.234   8.956  17.249
    1STR    C0T 4115  16.310   9.060  17.191
    1STR    C0U 4116  16.444   9.080  17.225
    1STR    C0V 4117  16.508   8.997  17.318
    1STR    C0W 4118  16.648   9.038  17.362
    1STR    C0X 4119  16.440   8.883  17.371
    1STR    N0Y 4120  16.508   8.799   0.023
    1STR   BCK2 4121  16.632   8.747   0.011
    1STR    O10 4122  16.695   8.745  17.346
    1STR    C13 4123  16.302   8.866  17.338
    1STR    C14 4124  14.348   9.042  17.298
    1STR    C15 4125  14.210   9.063  17.291
    1STR    C16 4126  14.118   8.962  17.323
    1STR    C17 4127  13.971   8.993  17.295
    1STR    H1B 4128  14.102   8.639  17.372
    1STR    H1C 4129  14.343   8.720  17.409
    1STR    H1D 4130  14.574   8.802  17.366
    1STR    H1E 4131  14.872   9.055  17.199
    1STR    H1F 4132  14.948   9.009   0.052
    1STR    H1G 4133  15.015   9.134  17.387
    1STR    H1H 4134  14.845   9.139  17.431
    1STR    H1I 4135  14.989   8.846  17.148
    1STR    H1J 4136  15.032   8.823  17.316
    1STR    H1K 4137  15.260   8.809  17.229
    1STR    H1M 4138  15.229   8.970  16.969
    1STR    H1N 4139  15.157   8.813  17.001
    1STR    H1O 4140  15.331   8.829  16.986
    1STR    H1P 4141  15.390   9.073  17.146
    1STR    H1Q 4142  15.382   9.014  17.310
    1STR    H1R 4143  15.640   9.058  17.153
    1STR    H1S 4144  15.749   9.035  17.381
    1STR    H1T 4145  15.639   8.904  17.419
    1STR    H1U 4146  15.578   9.068  17.396
    1STR    H1V 4147  15.740   8.847  17.059
    1STR    H1W 4148  15.752   8.779  17.219
    1STR    H1X 4149  16.069   9.037  17.158
    1STR    H1Y 4150  16.265   9.129  17.121
    1STR    H1Z 4151  16.497   9.164  17.182
    1STR    H20 4152  16.665   9.014   0.026
    1STR    H21 4153  16.724   8.988  17.301
    1STR    H22 4154  16.663   9.146  17.351
    1STR    H23 4155  16.460   8.777   0.109
    1STR    H27 4156  16.246   8.784  17.380
    1STR    H28 4157  14.410   9.125  17.270
    1STR    H29 4158  14.175   9.159  17.256
    1STR    H2A 4159  13.917   8.904  17.262
    1STR    H2B 4160  13.961   9.067  17.215
    1STR    H2C 4161  13.924   9.034  17.384
    1STR   BCK1 4162  13.944   8.646   4.430
    1STR    O03 4163  13.899   8.720   4.342
    1STR    N04 4164  14.071   8.668   4.470
    1STR    C05 4165  14.166   8.625   4.566
    1STR    C06 4166  14.305   8.643   4.536
    1STR    C07 4167  14.410   8.613   4.629
    1STR    N08 4168  14.546   8.640   4.598
    1STR    C09 4169  14.659   8.604   4.665
    1STR    O0A 4170  14.660   8.531   4.764
    1STR    O0B 4171  14.774   8.655   4.611
    1STR    C0C 4172  14.903   8.620   4.669
    1STR    C0D 4173  14.942   8.478   4.623
    1STR    C0E 4174  15.017   8.721   4.637
    1STR    O0F 4175  15.140   8.682   4.700
    1STR    C0G 4176  15.254   8.768   4.683
    1STR    C0H 4177  15.239   8.890   4.776
    1STR    C0I 4178  15.386   8.692   4.716
    1STR    O0J 4179  15.503   8.770   4.682
    1STR    C0K 4180  15.632   8.712   4.713
    1STR    C0M 4181  15.660   8.592   4.621
    1STR    C0N 4182  15.745   8.817   4.697
    1STR    O0O 4183  15.867   8.772   4.756
    1STR    C0P 4184  15.986   8.767   4.690
    1STR    O0Q 4185  16.005   8.798   4.573
    1STR    N0R 4186  16.078   8.719   4.773
    1STR    C0S 4187  16.210   8.675   4.760
    1STR    C0T 4188  16.251   8.585   4.859
    1STR    C0U 4189  16.376   8.523   4.852
    1STR    C0V 4190  16.466   8.552   4.748
    1STR    C0W 4191  16.585   8.459   4.742
    1STR    C0X 4192  16.437   8.656   4.654
    1STR    N0Y 4193  16.525   8.710   4.557
    1STR   BCK2 4194  16.656   8.718   4.527
    1STR    O10 4195  16.690   8.798   4.440
    1STR    C13 4196  16.304   8.711   4.659
    1STR    C14 4197  14.370   8.562   4.754
    1STR    C15 4198  14.235   8.545   4.787
    1STR    C16 4199  14.132   8.579   4.696
    1STR    C17 4200  13.992   8.573   4.751
    1STR    H1B 4201  14.108   8.738   4.408
    1STR    H1C 4202  14.332   8.682   4.439
    1STR    H1D 4203  14.567   8.693   4.516
    1STR    H1E 4204  14.892   8.619   4.777
    1STR    H1F 4205  14.955   8.473   4.515
    1STR    H1G 4206  15.035   8.447   4.670
    1STR    H1H 4207  14.866   8.405   4.651
    1STR    H1I 4208  14.987   8.820   4.671
    1STR    H1J 4209  15.032   8.728   4.529
    1STR    H1K 4210  15.260   8.801   4.579
    1STR    H1M 4211  15.226   8.859   4.880
    1STR    H1N 4212  15.154   8.952   4.749
    1STR    H1O 4213  15.328   8.954   4.771
    1STR    H1P 4214  15.388   8.665   4.821
    1STR    H1Q 4215  15.387   8.599   4.659
    1STR    H1R 4216  15.631   8.679   4.817
    1STR    H1S 4217  15.760   8.553   4.638
    1STR    H1T 4218  15.654   8.621   4.516
    1STR    H1U 4219  15.590   8.510   4.637
    1STR    H1V 4220  15.717   8.909   4.748
    1STR    H1W 4221  15.759   8.845   4.592
    1STR    H1X 4222  16.035   8.705   4.863
    1STR    H1Y 4223  16.185   8.557   4.940
    1STR    H1Z 4224  16.402   8.449   4.926
    1STR    H20 4225  16.610   8.436   4.639
    1STR    H21 4226  16.670   8.502   4.795
    1STR    H22 4227  16.564   8.364   4.790
    1STR    H23 4228  16.478   8.772   4.493
    1STR    H27 4229  16.274   8.785   4.586
    1STR    H28 4230  14.441   8.537   4.831
    1STR    H29 4231  14.210   8.508   4.885
    1STR    H2A 4232  13.931   8.655   4.713
    1STR    H2B 4233  13.991   8.581   4.860
    1STR    H2C 4234  13.946   8.477   4.727
    1STR   BCK1 4235  13.954   8.616   8.702
    1STR    O03 4236  13.909   8.717   8.648
    1STR    N04 4237  14.079   8.568   8.682
    1STR    C05 4238  14.171   8.593   8.578
    1STR    C06 4239  14.312   8.598   8.606
    1STR    C07 4240  14.410   8.607   8.502
    1STR    N08 4241  14.549   8.606   8.530
    1STR    C09 4242  14.654   8.580   8.448
    1STR    O0A 4243  14.642   8.549   8.330
    1STR    O0B 4244  14.776   8.591   8.510
    1STR    C0C 4245  14.899   8.577   8.433
    1STR    C0D 4246  14.930   8.711   8.364
    1STR    C0E 4247  15.020   8.530   8.519
    1STR    O0F 4248  15.142   8.517   8.443
    1STR    C0G 4249  15.257   8.466   8.512
    1STR    C0H 4250  15.243   8.314   8.526
    1STR    C0I 4251  15.390   8.501   8.438
    1STR    O0J 4252  15.507   8.468   8.517
    1STR    C0K 4253  15.637   8.493   8.459
    1STR    C0M 4254  15.660   8.645   8.444
    1STR    C0N 4255  15.750   8.432   8.547
    1STR    O0O 4256  15.880   8.442   8.484
    1STR    C0P 4257  15.993   8.471   8.554
    1STR    O0Q 4258  15.999   8.500   8.673
    1STR    N0R 4259  16.098   8.467   8.471
    1STR    C0S 4260  16.235   8.500   8.480
    1STR    C0T 4261  16.300   8.511   8.356
    1STR    C0U 4262  16.433   8.555   8.348
    1STR    C0V 4263  16.505   8.587   8.464
    1STR    C0W 4264  16.640   8.655   8.443
    1STR    C0X 4265  16.449   8.563   8.593
    1STR    N0Y 4266  16.523   8.585   8.712
    1STR   BCK2 4267  16.653   8.556   8.739
    1STR    O10 4268  16.728   8.496   8.663
    1STR    C13 4269  16.311   8.524   8.599
    1STR    C14 4270  14.362   8.619   8.369
    1STR    C15 4271  14.225   8.613   8.341
    1STR    C16 4272  14.130   8.597   8.443
    1STR    C17 4273  13.985   8.576   8.399
    1STR    H1B 4274  14.105   8.498   8.749
    1STR    H1C 4275  14.345   8.592   8.708
    1STR    H1D 4276  14.579   8.625   8.624
    1STR    H1E 4277  14.884   8.501   8.356
    1STR    H1F 4278  14.946   8.791   8.436
    1STR    H1G 4279  15.019   8.703   8.302
    1STR    H1H 4280  14.848   8.742   8.298
    1STR    H1I 4281  14.994   8.435   8.565
    1STR    H1J 4282  15.036   8.601   8.601
    1STR    H1K 4283  15.263   8.512   8.611
    1STR    H1M 4284  15.230   8.266   8.429
    1STR    H1N 4285  15.159   8.285   8.589
    1STR    H1O 4286  15.332   8.270   8.572
    1STR    H1P 4287  15.394   8.450   8.342
    1STR    H1Q 4288  15.389   8.608   8.416
    1STR    H1R 4289  15.641   8.446   8.361
    1STR    H1S 4290  15.761   8.665   8.408
    1STR    H1T 4291  15.649   8.695   8.540
    1STR    H1U 4292  15.591   8.691   8.374
    1STR    H1V 4293  15.731   8.326   8.565
    1STR    H1W 4294  15.751   8.479   8.646
    1STR    H1X 4295  16.066   8.438   8.380
    1STR    H1Y 4296  16.249   8.489   8.264
    1STR    H1Z 4297  16.478   8.568   8.251
    1STR    H20 4298  16.666   8.720   8.526
    1STR    H21 4299  16.719   8.581   8.429
    1STR    H22 4300  16.638   8.717   8.353
    1STR    H23 4301  16.473   8.622   8.790
    1STR    H27 4302  16.262   8.512   8.695
    1STR    H28 4303  14.429   8.630   8.286
    1STR    H29 4304  14.194   8.617   8.237
    1STR    H2A 4305  13.935   8.504   8.463
    1STR    H2B 4306  13.980   8.537   8.298
    1STR    H2C 4307  13.931   8.671   8.402
    1STR   BCK1 4308  13.952   8.710  13.196
    1STR    O03 4309  13.912   8.748  13.305
    1STR    N04 4310  14.070   8.748  13.140
    1STR    C05 4311  14.163   8.848  13.180
    1STR    C06 4312  14.304   8.829  13.164
    1STR    C07 4313  14.402   8.929  13.197
    1STR    N08 4314  14.542   8.911  13.174
    1STR    C09 4315  14.648   8.986  13.214
    1STR    O0A 4316  14.639   9.084  13.288
    1STR    O0B 4317  14.770   8.944  13.163
    1STR    C0C 4318  14.893   9.010  13.204
    1STR    C0D 4319  14.932   8.962  13.344
    1STR    C0E 4320  15.013   8.990  13.104
    1STR    O0F 4321  15.135   9.052  13.151
    1STR    C0G 4322  15.252   9.043  13.066
    1STR    C0H 4323  15.239   9.145  12.952
    1STR    C0I 4324  15.384   9.068  13.147
    1STR    O0J 4325  15.505   9.038  13.072
    1STR    C0K 4326  15.632   9.056  13.138
    1STR    C0M 4327  15.648   8.954  13.251
    1STR    C0N 4328  15.753   9.042  13.040
    1STR    O0O 4329  15.877   9.079  13.103
    1STR    C0P 4330  15.990   9.002  13.098
    1STR    O0Q 4331  15.998   8.888  13.053
    1STR    N0R 4332  16.093   9.071  13.148
    1STR    C0S 4333  16.230   9.050  13.172
    1STR    C0T 4334  16.301   9.166  13.206
    1STR    C0U 4335  16.435   9.161  13.244
    1STR    C0V 4336  16.504   9.039  13.249
    1STR    C0W 4337  16.645   9.042  13.307
    1STR    C0X 4338  16.440   8.919  13.209
    1STR    N0Y 4339  16.510   8.797  13.221
    1STR   BCK2 4340  16.636   8.771  13.180
    1STR    O10 4341  16.694   8.834  13.092
    1STR    C13 4342  16.301   8.925  13.171
    1STR    C14 4343  14.352   9.050  13.250
    1STR    C15 4344  14.214   9.072  13.264
    1STR    C16 4345  14.119   8.976  13.226
    1STR    C17 4346  13.974   9.019  13.230
    1STR    H1B 4347  14.093   8.696  13.057
    1STR    H1C 4348  14.339   8.734  13.125
    1STR    H1D 4349  14.570   8.832  13.120
    1STR    H1E 4350  14.874   9.117  13.209
    1STR    H1F 4351  14.952   8.855  13.346
    1STR    H1G 4352  15.022   9.013  13.380
    1STR    H1H 4353  14.853   8.982  13.417
    1STR    H1I 4354  14.985   9.032  13.008
    1STR    H1J 4355  15.030   8.884  13.088
    1STR    H1K 4356  15.258   8.942  13.025
    1STR    H1M 4357  15.227   9.246  12.991
    1STR    H1N 4358  15.155   9.124  12.887
    1STR    H1O 4359  15.329   9.145  12.890
    1STR    H1P 4360  15.387   9.171  13.182
    1STR    H1Q 4361  15.380   9.005  13.236
    1STR    H1R 4362  15.634   9.157  13.180
    1STR    H1S 4363  15.747   8.962  13.297
    1STR    H1T 4364  15.640   8.852  13.212
    1STR    H1U 4365  15.575   8.966  13.331
    1STR    H1V 4366  15.739   9.109  12.955
    1STR    H1W 4367  15.758   8.942  12.999
    1STR    H1X 4368  16.059   9.163  13.173
    1STR    H1Y 4369  16.252   9.263  13.206
    1STR    H1Z 4370  16.485   9.253  13.273
    1STR    H20 4371  16.661   8.958  13.374
    1STR    H21 4372  16.719   9.039  13.228
    1STR    H22 4373  16.663   9.133  13.365
    1STR    H23 4374  16.466   8.724  13.275
    1STR    H27 4375  16.248   8.835  13.144
    1STR    H28 4376  14.416   9.132  13.278
    1STR    H29 4377  14.181   9.168  13.302
    1STR    H2A 4378  13.916   8.971  13.151
    1STR    H2B 4379  13.964   9.126  13.215
    1STR    H2C 4380  13.930   8.995  13.326
    1STR   BCK1 4381  13.944  13.000   0.068
    1STR    O03 4382  13.899  13.097   0.007
    1STR    N04 4383  14.075  12.972   0.053
    1STR    C05 4384  14.167  12.869   0.084
    1STR    C06 4385  14.306  12.905   0.093
    1STR    C07 4386  14.410  12.809   0.111
    1STR    N08 4387  14.547  12.848   0.114
    1STR    C09 4388  14.659  12.771   0.118
    1STR    O0A 4389  14.659  12.649   0.119
    1STR    O0B 4390  14.775  12.845   0.119
    1STR    C0C 4391  14.903  12.776   0.118
    1STR    C0D 4392  14.935  12.727  17.415
    1STR    C0E 4393  15.019  12.862   0.174
    1STR    O0F 4394  15.142  12.786   0.180
    1STR    C0G 4395  15.256  12.851   0.238
    1STR    C0H 4396  15.241  12.852   0.391
    1STR    C0I 4397  15.387  12.777   0.197
    1STR    O0J 4398  15.505  12.849   0.240
    1STR    C0K 4399  15.632  12.788   0.211
    1STR    C0M 4400  15.661  12.793   0.060
    1STR    C0N 4401  15.746  12.861   0.288
    1STR    O0O 4402  15.870  12.788   0.280
    1STR    C0P 4403  15.989  12.848   0.254
    1STR    O0Q 4404  16.005  12.967   0.229
    1STR    N0R 4405  16.086  12.756   0.257
    1STR    C0S 4406  16.222  12.758   0.223
    1STR    C0T 4407  16.280  12.633   0.197
    1STR    C0U 4408  16.412  12.623   0.150
    1STR    C0V 4409  16.491  12.738   0.130
    1STR    C0W 4410  16.622  12.719   0.055
    1STR    C0X 4411  16.441  12.865   0.169
    1STR    N0Y 4412  16.515  12.983   0.154
    1STR   BCK2 4413  16.642  13.020   0.179
    1STR    O10 4414  16.678  13.133   0.145
    1STR    C13 4415  16.305  12.874   0.211
    1STR    C14 4416  14.370  12.674   0.125
    1STR    C15 4417  14.236  12.637   0.115
    1STR    C16 4418  14.135  12.731   0.091
    1STR    C17 4419  13.997  12.674   0.066
    1STR    H1B 4420  14.115  13.048   0.002
    1STR    H1C 4421  14.333  13.009   0.084
    1STR    H1D 4422  14.569  12.946   0.110
    1STR    H1E 4423  14.895  12.688   0.183
    1STR    H1F 4424  14.946  12.810  17.346
    1STR    H1G 4425  15.028  12.670  17.414
    1STR    H1H 4426  14.857  12.661  17.377
    1STR    H1I 4427  14.991  12.896   0.274
    1STR    H1J 4428  15.034  12.951   0.113
    1STR    H1K 4429  15.263  12.953   0.200
    1STR    H1M 4430  15.227  12.751   0.430
    1STR    H1N 4431  15.157  12.912   0.424
    1STR    H1O 4432  15.331  12.893   0.438
    1STR    H1P 4433  15.387  12.676   0.238
    1STR    H1Q 4434  15.388  12.766   0.088
    1STR    H1R 4435  15.631  12.684   0.245
    1STR    H1S 4436  15.761  12.756   0.038
    1STR    H1T 4437  15.655  12.896   0.023
    1STR    H1U 4438  15.591  12.733   0.002
    1STR    H1V 4439  15.720  12.870   0.393
    1STR    H1W 4440  15.758  12.963   0.251
    1STR    H1X 4441  16.047  12.667   0.281
    1STR    H1Y 4442  16.223  12.542   0.208
    1STR    H1Z 4443  16.451  12.526   0.124
    1STR    H20 4444  16.653  12.811   0.005
    1STR    H21 4445  16.701  12.687   0.123
    1STR    H22 4446  16.611  12.643  17.417
    1STR    H23 4447  16.463  13.062   0.119
    1STR    H27 4448  16.262  12.970   0.234
    1STR    H28 4449  14.440  12.594   0.141
    1STR    H29 4450  14.212  12.532   0.122
    1STR    H2A 4451  13.941  12.670   0.160
    1STR    H2B 4452  14.003  12.572   0.028
    1STR    H2C 4453  13.943  12.732  17.432
    1STR   BCK1 4454  13.952  13.054   4.336
    1STR    O03 4455  13.903  13.164   4.356
    1STR    N04 4456  14.075  13.032   4.284
    1STR    C05 4457  14.166  13.119   4.218
    1STR    C06 4458  14.308  13.104   4.233
    1STR    C07 4459  14.404  13.182   4.159
    1STR    N08 4460  14.544  13.161   4.172
    1STR    C09 4461  14.648  13.210   4.099
    1STR    O0A 4462  14.635  13.285   4.003
    1STR    O0B 4463  14.772  13.166   4.141
    1STR    C0C 4464  14.894  13.218   4.080
    1STR    C0D 4465  14.926  13.356   4.140
    1STR    C0E 4466  15.017  13.122   4.093
    1STR    O0F 4467  15.138  13.176   4.036
    1STR    C0G 4468  15.256  13.091   4.037
    1STR    C0H 4469  15.243  12.988   3.923
    1STR    C0I 4470  15.388  13.173   4.021
    1STR    O0J 4471  15.506  13.092   4.045
    1STR    C0K 4472  15.636  13.156   4.032
    1STR    C0M 4473  15.654  13.262   4.142
    1STR    C0N 4474  15.752  13.052   4.043
    1STR    O0O 4475  15.882  13.110   4.018
    1STR    C0P 4476  15.992  13.081   4.094
    1STR    O0Q 4477  15.994  13.014   4.197
    1STR    N0R 4478  16.099  13.140   4.039
    1STR    C0S 4479  16.236  13.154   4.072
    1STR    C0T 4480  16.308  13.233   3.980
    1STR    C0U 4481  16.441  13.269   4.005
    1STR    C0V 4482  16.507  13.225   4.121
    1STR    C0W 4483  16.644  13.287   4.147
    1STR    C0X 4484  16.444  13.134   4.210
    1STR    N0Y 4485  16.512  13.085   4.324
    1STR   BCK2 4486  16.640  13.039   4.331
    1STR    O10 4487  16.710  13.018   4.233
    1STR    C13 4488  16.305  13.103   4.186
    1STR    C14 4489  14.351  13.279   4.072
    1STR    C15 4490  14.213  13.294   4.053
    1STR    C16 4491  14.120  13.214   4.121
    1STR    C17 4492  13.975  13.229   4.081
    1STR    H1B 4493  14.104  12.936   4.292
    1STR    H1C 4494  14.344  13.031   4.303
    1STR    H1D 4495  14.576  13.100   4.246
    1STR    H1E 4496  14.875  13.231   3.973
    1STR    H1F 4497  14.946  13.349   4.247
    1STR    H1G 4498  15.014  13.399   4.092
    1STR    H1H 4499  14.844  13.426   4.125
    1STR    H1I 4500  14.991  13.028   4.044
    1STR    H1J 4501  15.034  13.099   4.198
    1STR    H1K 4502  15.261  13.040   4.133
    1STR    H1M 4503  15.230  13.037   3.827
    1STR    H1N 4504  15.159  12.921   3.938
    1STR    H1O 4505  15.332  12.927   3.917
    1STR    H1P 4506  15.393  13.217   3.921
    1STR    H1Q 4507  15.385  13.256   4.091
    1STR    H1R 4508  15.642  13.203   3.934
    1STR    H1S 4509  15.754  13.306   4.137
    1STR    H1T 4510  15.642  13.218   4.241
    1STR    H1U 4511  15.584  13.345   4.132
    1STR    H1V 4512  15.738  12.973   3.969
    1STR    H1W 4513  15.750  13.002   4.140
    1STR    H1X 4514  16.070  13.184   3.954
    1STR    H1Y 4515  16.262  13.271   3.890
    1STR    H1Z 4516  16.492  13.333   3.935
    1STR    H20 4517  16.665  13.294   4.254
    1STR    H21 4518  16.723  13.227   4.100
    1STR    H22 4519  16.650  13.388   4.107
    1STR    H23 4520  16.461  13.081   4.410
    1STR    H27 4521  16.251  13.040   4.255
    1STR    H28 4522  14.414  13.345   4.014
    1STR    H29 4523  14.178  13.368   3.982
    1STR    H2A 4524  13.922  13.134   4.085
    1STR    H2B 4525  13.966  13.266   3.979
    1STR    H2C 4526  13.925  13.300   4.146
    1STR   BCK1 4527  13.943  12.979   8.848
    1STR    O03 4528  13.911  12.916   8.948
    1STR    N04 4529  14.058  13.049   8.833
    1STR    C05 4530  14.158  13.082   8.929
    1STR    C06 4531  14.298  13.082   8.894
    1STR    C07 4532  14.401  13.119   8.987
    1STR    N08 4533  14.539  13.126   8.950
    1STR    C09 4534  14.649  13.137   9.029
    1STR    O0A 4535  14.647  13.134   9.151
    1STR    O0B 4536  14.768  13.152   8.959
    1STR    C0C 4537  14.895  13.158   9.030
    1STR    C0D 4538  14.935  13.016   9.073
    1STR    C0E 4539  15.011  13.226   8.951
    1STR    O0F 4540  15.135  13.228   9.027
    1STR    C0G 4541  15.250  13.291   8.966
    1STR    C0H 4542  15.236  13.443   8.979
    1STR    C0I 4543  15.382  13.243   9.034
    1STR    O0J 4544  15.501  13.287   8.964
    1STR    C0K 4545  15.629  13.251   9.020
    1STR    C0M 4546  15.651  13.099   9.009
    1STR    C0N 4547  15.747  13.325   8.950
    1STR    O0O 4548  15.868  13.308   9.026
    1STR    C0P 4549  15.986  13.267   8.971
    1STR    O0Q 4550  16.005  13.235   8.854
    1STR    N0R 4551  16.078  13.266   9.067
    1STR    C0S 4552  16.213  13.229   9.080
    1STR    C0T 4553  16.262  13.237   9.212
    1STR    C0U 4554  16.395  13.203   9.241
    1STR    C0V 4555  16.484  13.164   9.141
    1STR    C0W 4556  16.626  13.138   9.188
    1STR    C0X 4557  16.441  13.155   9.005
    1STR    N0Y 4558  16.526  13.132   8.894
    1STR   BCK2 4559  16.648  13.083   8.859
    1STR    O10 4560  16.687  13.109   8.746
    1STR    C13 4561  16.304  13.188   8.978
    1STR    C14 4562  14.359  13.155   9.117
    1STR    C15 4563  14.223  13.160   9.151
    1STR    C16 4564  14.123  13.128   9.058
    1STR    C17 4565  13.979  13.153   9.102
    1STR    H1B 4566  14.072  13.083   8.740
    1STR    H1C 4567  14.326  13.053   8.794
    1STR    H1D 4568  14.562  13.121   8.853
    1STR    H1E 4569  14.879  13.218   9.121
    1STR    H1F 4570  14.952  12.952   8.987
    1STR    H1G 4571  15.027  13.018   9.132
    1STR    H1H 4572  14.859  12.970   9.135
    1STR    H1I 4573  14.981  13.328   8.926
    1STR    H1J 4574  15.027  13.174   8.857
    1STR    H1K 4575  15.255  13.262   8.861
    1STR    H1M 4576  15.224  13.473   9.083
    1STR    H1N 4577  15.150  13.481   8.923
    1STR    H1O 4578  15.324  13.493   8.940
    1STR    H1P 4579  15.385  13.277   9.137
    1STR    H1Q 4580  15.381  13.134   9.037
    1STR    H1R 4581  15.629  13.280   9.125
    1STR    H1S 4582  15.751  13.072   9.044
    1STR    H1T 4583  15.644  13.067   8.905
    1STR    H1U 4584  15.580  13.042   9.067
    1STR    H1V 4585  15.726  13.432   8.946
    1STR    H1W 4586  15.759  13.292   8.847
    1STR    H1X 4587  16.035  13.299   9.151
    1STR    H1Y 4588  16.199  13.269   9.293
    1STR    H1Z 4589  16.428  13.211   9.344
    1STR    H20 4590  16.644  13.031   9.190
    1STR    H21 4591  16.697  13.189   9.124
    1STR    H22 4592  16.643  13.174   9.289
    1STR    H23 4593  16.486  13.166   8.808
    1STR    H27 4594  16.266  13.184   8.876
    1STR    H28 4595  14.428  13.185   9.194
    1STR    H29 4596  14.196  13.191   9.251
    1STR    H2A 4597  13.918  13.188   9.018
    1STR    H2B 4598  13.975  13.230   9.179
    1STR    H2C 4599  13.935  13.063   9.144
    1STR   BCK1 4600  13.952  12.957  13.097
    1STR    O03 4601  13.915  13.023  13.001
    1STR    N04 4602  14.075  12.905  13.112
    1STR    C05 4603  14.172  12.877  13.014
    1STR    C06 4604  14.311  12.899  13.039
    1STR    C07 4605  14.412  12.857  12.946
    1STR    N08 4606  14.550  12.874  12.974
    1STR    C09 4607  14.657  12.809  12.921
    1STR    O0A 4608  14.648  12.718  12.839
    1STR    O0B 4609  14.778  12.854  12.969
    1STR    C0C 4610  14.901  12.803  12.912
    1STR    C0D 4611  14.932  12.881  12.783
    1STR    C0E 4612  15.021  12.811  13.012
    1STR    O0F 4613  15.142  12.758  12.954
    1STR    C0G 4614  15.258  12.752  13.041
    1STR    C0H 4615  15.243  12.632  13.135
    1STR    C0I 4616  15.389  12.740  12.958
    1STR    O0J 4617  15.507  12.751  13.041
    1STR    C0K 4618  15.636  12.740  12.976
    1STR    C0M 4619  15.660  12.863  12.887
    1STR    C0N 4620  15.750  12.728  13.081
    1STR    O0O 4621  15.877  12.700  13.019
    1STR    C0P 4622  15.993  12.757  13.063
    1STR    O0Q 4623  16.002  12.843  13.150
    1STR    N0R 4624  16.097  12.707  12.994
    1STR    C0S 4625  16.235  12.736  12.990
    1STR    C0T 4626  16.307  12.672  12.887
    1STR    C0U 4627  16.442  12.702  12.864
    1STR    C0V 4628  16.510  12.797  12.944
    1STR    C0W 4629  16.649  12.839  12.897
    1STR    C0X 4630  16.445  12.856  13.055
    1STR    N0Y 4631  16.504  12.956  13.134
    1STR   BCK2 4632  16.624  12.980  13.190
    1STR    O10 4633  16.641  13.090  13.241
    1STR    C13 4634  16.306  12.826  13.074
    1STR    C14 4635  14.369  12.799  12.825
    1STR    C15 4636  14.233  12.776  12.800
    1STR    C16 4637  14.135  12.811  12.894
    1STR    C17 4638  13.992  12.767  12.864
    1STR    H1B 4639  14.095  12.873  13.205
    1STR    H1C 4640  14.340  12.946  13.131
    1STR    H1D 4641  14.577  12.941  13.044
    1STR    H1E 4642  14.888  12.698  12.887
    1STR    H1F 4643  14.948  12.987  12.802
    1STR    H1G 4644  15.023  12.842  12.735
    1STR    H1H 4645  14.851  12.871  12.711
    1STR    H1I 4646  14.994  12.754  13.101
    1STR    H1J 4647  15.037  12.914  13.043
    1STR    H1K 4648  15.264  12.844  13.099
    1STR    H1M 4649  15.229  12.539  13.079
    1STR    H1N 4650  15.159  12.642  13.203
    1STR    H1O 4651  15.332  12.620  13.197
    1STR    H1P 4652  15.390  12.645  12.903
    1STR    H1Q 4653  15.389  12.819  12.883
    1STR    H1R 4654  15.637  12.649  12.915
    1STR    H1S 4655  15.761  12.860  12.844
    1STR    H1T 4656  15.652  12.955  12.945
    1STR    H1U 4657  15.591  12.869  12.804
    1STR    H1V 4658  15.729  12.647  13.151
    1STR    H1W 4659  15.755  12.819  13.142
    1STR    H1X 4660  16.064  12.637  12.931
    1STR    H1Y 4661  16.259  12.601  12.821
    1STR    H1Z 4662  16.493  12.656  12.781
    1STR    H20 4663  16.669  12.943  12.922
    1STR    H21 4664  16.726  12.776  12.941
    1STR    H22 4665  16.658  12.831  12.789
    1STR    H23 4666  16.441  13.031  13.157
    1STR    H27 4667  16.252  12.875  13.154
    1STR    H28 4668  14.439  12.769  12.749
    1STR    H29 4669  14.205  12.727  12.708
    1STR    H2A 4670  13.941  12.734  12.955
    1STR    H2B 4671  13.989  12.684  12.794
    1STR    H2C 4672  13.936  12.850  12.820
    1STR   BCK1 4673  17.334   0.854  17.331
    1STR    O03 4674  17.428   0.796  17.384
    1STR    N04 4675  17.314   0.983  17.366
    1STR    C05 4676  17.214   1.081  17.355
    1STR    C06 4677  17.251   1.220  17.347
    1STR    C07 4678  17.155   1.327  17.350
    1STR    N08 4679  17.194   1.464  17.347
    1STR    C09 4680  17.119   1.578  17.352
    1STR    O0A 4681  16.997   1.579  17.363
    1STR    O0B 4682  17.193   1.694  17.345
    1STR    C0C 4683  17.125   1.823  17.354
    1STR    C0D 4684  17.092   1.855   0.061
    1STR    C0E 4685  17.204   1.941  17.290
    1STR    O0F 4686  17.129   2.065  17.293
    1STR    C0G 4687  17.186   2.181  17.228
    1STR    C0H 4688  17.171   2.165  17.076
    1STR    C0I 4689  17.117   2.313  17.275
    1STR    O0J 4690  17.181   2.432  17.222
    1STR    C0K 4691  17.122   2.559  17.256
    1STR    C0M 4692  17.143   2.588  17.406
    1STR    C0N 4693  17.183   2.676  17.172
    1STR    O0O 4694  17.104   2.796  17.183
    1STR    C0P 4695  17.159   2.921  17.190
    1STR    O0Q 4696  17.279   2.946  17.195
    1STR    N0R 4697  17.061   3.012  17.199
    1STR    C0S 4698  17.059   3.149  17.230
    1STR    C0T 4699  16.950   3.190  17.309
    1STR    C0U 4700  16.940   3.322  17.356
    1STR    C0V 4701  17.036   3.418  17.322
    1STR    C0W 4702  17.034   3.551  17.396
    1STR    C0X 4703  17.140   3.385  17.230
    1STR    N0Y 4704  17.236   3.482  17.196
    1STR   BCK2 4705  17.227   3.608  17.148
    1STR    O10 4706  17.324   3.682  17.154
    1STR    C13 4707  17.154   3.248  17.190
    1STR    C14 4708  17.019   1.289  17.360
    1STR    C15 4709  16.981   1.154  17.370
    1STR    C16 4710  17.076   1.051  17.371
    1STR    C17 4711  17.025   0.911  17.400
    1STR    H1B 4712  17.394   1.012  17.421
    1STR    H1C 4713  17.355   1.245  17.341
    1STR    H1D 4714  17.292   1.485  17.340
    1STR    H1E 4715  17.031   1.815  17.299
    1STR    H1F 4716  17.182   1.865   0.122
    1STR    H1G 4717  17.035   1.948   0.069
    1STR    H1H 4718  17.030   1.776   0.106
    1STR    H1I 4719  17.227   1.915  17.187
    1STR    H1J 4720  17.299   1.955  17.341
    1STR    H1K 4721  17.292   2.187  17.255
    1STR    H1M 4722  17.067   2.150  17.048
    1STR    H1N 4723  17.228   2.080  17.037
    1STR    H1O 4724  17.207   2.254  17.024
    1STR    H1P 4725  17.012   2.311  17.246
    1STR    H1Q 4726  17.119   2.315  17.384
    1STR    H1R 4727  17.016   2.555  17.234
    1STR    H1S 4728  17.108   2.688  17.431
    1STR    H1T 4729  17.249   2.584  17.432
    1STR    H1U 4730  17.090   2.519   0.030
    1STR    H1V 4731  17.186   2.648  17.066
    1STR    H1W 4732  17.287   2.694  17.201
    1STR    H1X 4733  16.972   2.967  17.191
    1STR    H1Y 4734  16.875   3.119  17.340
    1STR    H1Z 4735  16.859   3.347  17.423
    1STR    H20 4736  17.131   3.571  -0.000
    1STR    H21 4737  17.008   3.634  17.331
    1STR    H22 4738  16.961   3.550   0.037
    1STR    H23 4739  17.332   3.457  17.215
    1STR    H27 4740  17.237   3.219  17.128
    1STR    H28 4741  16.939   1.360  17.362
    1STR    H29 4742  16.876   1.131  17.381
    1STR    H2A 4743  17.002   0.860  17.306
    1STR    H2B 4744  16.933   0.914   0.018
    1STR    H2C 4745  17.097   0.853   0.017
    1STR   BCK1 4746  17.425   0.873   4.331
    1STR    O03 4747   0.088   0.809   4.338
    1STR    N04 4748  17.407   0.999   4.381
    1STR    C05 4749   0.049   1.086   4.461
    1STR    C06 4750   0.035   1.229   4.451
    1STR    C07 4751   0.110   1.324   4.530
    1STR    N08 4752   0.090   1.466   4.523
    1STR    C09 4753   0.148   1.568   4.592
    1STR    O0A 4754   0.235   1.553   4.677
    1STR    O0B 4755   0.100   1.695   4.559
    1STR    C0C 4756   0.159   1.816   4.618
    1STR    C0D 4757   0.292   1.846   4.547
    1STR    C0E 4758   0.066   1.943   4.616
    1STR    O0F 4759   0.127   2.066   4.664
    1STR    C0G 4760   0.042   2.185   4.673
    1STR    C0H 4761  17.396   2.172   4.799
    1STR    C0I 4762   0.121   2.321   4.676
    1STR    O0J 4763   0.037   2.438   4.657
    1STR    C0K 4764   0.097   2.571   4.660
    1STR    C0M 4765   0.200   2.585   4.547
    1STR    C0N 4766  17.430   2.686   4.646
    1STR    O0O 4767   0.046   2.820   4.650
    1STR    C0P 4768  17.430   2.926   4.581
    1STR    O0Q 4769  17.337   2.918   4.501
    1STR    N0R 4770   0.052   3.040   4.614
    1STR    C0S 4771   0.045   3.177   4.576
    1STR    C0T 4772   0.128   3.261   4.652
    1STR    C0U 4773   0.144   3.397   4.620
    1STR    C0V 4774   0.076   3.454   4.511
    1STR    C0W 4775   0.115   3.596   4.473
    1STR    C0X 4776  17.422   3.377   4.437
    1STR    N0Y 4777  17.354   3.435   4.327
    1STR   BCK2 4778  17.293   3.556   4.315
    1STR    O10 4779  17.266   3.630   4.410
    1STR    C13 4780  17.410   3.237   4.470
    1STR    C14 4781   0.206   1.268   4.618
    1STR    C15 4782   0.220   1.129   4.632
    1STR    C16 4783   0.141   1.038   4.559
    1STR    C17 4784   0.156   0.893   4.599
    1STR    H1B 4785  17.318   1.037   4.354
    1STR    H1C 4786  17.403   1.268   4.381
    1STR    H1D 4787   0.022   1.499   4.458
    1STR    H1E 4788   0.182   1.795   4.723
    1STR    H1F 4789   0.277   1.868   4.441
    1STR    H1G 4790   0.341   1.933   4.591
    1STR    H1H 4791   0.361   1.763   4.555
    1STR    H1I 4792  17.418   1.920   4.676
    1STR    H1J 4793   0.030   1.959   4.514
    1STR    H1K 4794  17.418   2.188   4.584
    1STR    H1M 4795   0.017   2.160   4.888
    1STR    H1N 4796  17.327   2.088   4.795
    1STR    H1O 4797  17.335   2.262   4.813
    1STR    H1P 4798   0.176   2.329   4.770
    1STR    H1Q 4799   0.197   2.317   4.597
    1STR    H1R 4800   0.147   2.583   4.756
    1STR    H1S 4801   0.241   2.686   4.545
    1STR    H1T 4802   0.154   2.566   4.450
    1STR    H1U 4803   0.285   2.517   4.559
    1STR    H1V 4804  17.358   2.678   4.727
    1STR    H1W 4805  17.373   2.672   4.554
    1STR    H1X 4806   0.119   3.019   4.685
    1STR    H1Y 4807   0.185   3.223   4.736
    1STR    H1Z 4808   0.212   3.457   4.678
    1STR    H20 4809   0.112   3.610   4.365
    1STR    H21 4810   0.049   3.668   4.520
    1STR    H22 4811   0.217   3.619   4.505
    1STR    H23 4812  17.351   3.381   4.242
    1STR    H27 4813  17.344   3.174   4.412
    1STR    H28 4814   0.270   1.328   4.680
    1STR    H29 4815   0.292   1.092   4.704
    1STR    H2A 4816   0.061   0.839   4.592
    1STR    H2B 4817   0.190   0.883   4.702
    1STR    H2C 4818   0.230   0.844   4.536
    1STR   BCK1 4819  17.321   0.868   8.559
    1STR    O03 4820  17.213   0.882   8.502
    1STR    N04 4821  17.410   0.969   8.575
    1STR    C05 4822  17.426   1.080   8.489
    1STR    C06 4823  17.428   1.217   8.532
    1STR    C07 4824   0.013   1.326   8.441
    1STR    N08 4825   0.022   1.463   8.482
    1STR    C09 4826   0.021   1.576   8.407
    1STR    O0A 4827   0.001   1.577   8.286
    1STR    O0B 4828   0.046   1.694   8.476
    1STR    C0C 4829   0.044   1.822   8.406
    1STR    C0D 4830  17.338   1.863   8.378
    1STR    C0E 4831   0.120   1.939   8.476
    1STR    O0F 4832   0.111   2.063   8.401
    1STR    C0G 4833   0.178   2.181   8.453
    1STR    C0H 4834   0.329   2.169   8.425
    1STR    C0I 4835   0.120   2.311   8.388
    1STR    O0J 4836   0.163   2.435   8.450
    1STR    C0K 4837   0.106   2.558   8.396
    1STR    C0M 4838  17.396   2.565   8.430
    1STR    C0N 4839   0.173   2.689   8.449
    1STR    O0O 4840   0.126   2.803   8.373
    1STR    C0P 4841   0.103   2.926   8.428
    1STR    O0Q 4842   0.105   2.952   8.548
    1STR    N0R 4843   0.082   3.015   8.330
    1STR    C0S 4844   0.068   3.155   8.326
    1STR    C0T 4845   0.145   3.219   8.227
    1STR    C0U 4846   0.139   3.358   8.209
    1STR    C0V 4847   0.052   3.438   8.286
    1STR    C0W 4848   0.066   3.587   8.268
    1STR    C0X 4849  17.405   3.377   8.381
    1STR    N0Y 4850  17.316   3.451   8.463
    1STR   BCK2 4851  17.239   3.563   8.458
    1STR    O10 4852  17.184   3.599   8.562
    1STR    C13 4853  17.418   3.236   8.402
    1STR    C14 4854   0.037   1.291   8.306
    1STR    C15 4855   0.037   1.157   8.263
    1STR    C16 4856   0.015   1.052   8.353
    1STR    C17 4857   0.030   0.910   8.301
    1STR    H1B 4858   0.045   0.950   8.640
    1STR    H1C 4859  17.410   1.238   8.636
    1STR    H1D 4860   0.029   1.482   8.581
    1STR    H1E 4861   0.093   1.807   8.309
    1STR    H1F 4862  17.283   1.880   8.471
    1STR    H1G 4863  17.334   1.955   8.320
    1STR    H1H 4864  17.285   1.786   8.321
    1STR    H1I 4865   0.224   1.911   8.490
    1STR    H1J 4866   0.078   1.955   8.576
    1STR    H1K 4867   0.161   2.187   8.560
    1STR    H1M 4868   0.348   2.156   8.319
    1STR    H1N 4869   0.374   2.085   8.477
    1STR    H1O 4870   0.381   2.259   8.457
    1STR    H1P 4871   0.145   2.313   8.282
    1STR    H1Q 4872   0.012   2.303   8.393
    1STR    H1R 4873   0.120   2.556   8.288
    1STR    H1S 4874  17.354   2.661   8.399
    1STR    H1T 4875  17.380   2.556   8.537
    1STR    H1U 4876  17.338   2.488   8.380
    1STR    H1V 4877   0.281   2.683   8.438
    1STR    H1W 4878   0.155   2.702   8.556
    1STR    H1X 4879   0.090   2.969   8.241
    1STR    H1Y 4880   0.214   3.162   8.166
    1STR    H1Z 4881   0.203   3.404   8.136
    1STR    H20 4882  17.441   3.621   8.187
    1STR    H21 4883   0.044   3.641   8.359
    1STR    H22 4884   0.168   3.614   8.240
    1STR    H23 4885  17.304   3.411   8.555
    1STR    H27 4886  17.358   3.186   8.477
    1STR    H28 4887   0.058   1.364   8.231
    1STR    H29 4888   0.057   1.136   8.159
    1STR    H2A 4889   0.091   0.851   8.370
    1STR    H2B 4890   0.079   0.908   8.204
    1STR    H2C 4891  17.373   0.863   8.291
    1STR   BCK1 4892  17.286   0.865  13.032
    1STR    O03 4893  17.347   0.808  13.122
    1STR    N04 4894  17.245   0.994  13.037
    1STR    C05 4895  17.234   1.087  13.144
    1STR    C06 4896  17.253   1.228  13.120
    1STR    C07 4897  17.228   1.328  13.220
    1STR    N08 4898  17.241   1.468  13.194
    1STR    C09 4899  17.186   1.574  13.259
    1STR    O0A 4900  17.110   1.563  13.354
    1STR    O0B 4901  17.224   1.697  13.208
    1STR    C0C 4902  17.181   1.820  13.272
    1STR    C0D 4903  17.272   1.849  13.393
    1STR    C0E 4904  17.178   1.943  13.175
    1STR    O0F 4905  17.134   2.066  13.239
    1STR    C0G 4906  17.117   2.182  13.154
    1STR    C0H 4907  16.988   2.166  13.073
    1STR    C0I 4908  17.114   2.316  13.235
    1STR    O0J 4909  17.113   2.433  13.150
    1STR    C0K 4910  17.107   2.564  13.213
    1STR    C0M 4911  17.237   2.590  13.291
    1STR    C0N 4912  17.085   2.678  13.109
    1STR    O0O 4913  17.063   2.807  13.171
    1STR    C0P 4914  17.094   2.924  13.108
    1STR    O0Q 4915  17.148   2.933  12.999
    1STR    N0R 4916  17.060   3.029  13.185
    1STR    C0S 4917  17.080   3.168  13.176
    1STR    C0T 4918  17.065   3.240  13.296
    1STR    C0U 4919  17.095   3.377  13.303
    1STR    C0V 4920  17.138   3.448  13.189
    1STR    C0W 4921  17.192   3.588  13.213
    1STR    C0X 4922  17.140   3.384  13.062
    1STR    N0Y 4923  17.179   3.447  12.942
    1STR   BCK2 4924  17.158   3.563  12.876
    1STR    O10 4925  17.205   3.574  12.763
    1STR    C13 4926  17.116   3.242  13.060
    1STR    C14 4927  17.190   1.282  13.348
    1STR    C15 4928  17.171   1.146  13.374
    1STR    C16 4929  17.189   1.049  13.273
    1STR    C17 4930  17.151   0.906  13.310
    1STR    H1B 4931  17.215   1.027  12.947
    1STR    H1C 4932  17.285   1.260  13.023
    1STR    H1D 4933  17.297   1.496  13.116
    1STR    H1E 4934  17.079   1.806  13.309
    1STR    H1F 4935  17.376   1.864  13.363
    1STR    H1G 4936  17.240   1.939  13.446
    1STR    H1H 4937  17.270   1.767  13.465
    1STR    H1I 4938  17.112   1.918  13.093
    1STR    H1J 4939  17.277   1.958  13.133
    1STR    H1K 4940  17.203   2.188  13.086
    1STR    H1M 4941  16.902   2.152  13.139
    1STR    H1N 4942  16.991   2.082  13.004
    1STR    H1O 4943  16.969   2.255  13.013
    1STR    H1P 4944  17.026   2.317  13.300
    1STR    H1Q 4945  17.201   2.318  13.300
    1STR    H1R 4946  17.022   2.564  13.282
    1STR    H1S 4947  17.237   2.691  13.332
    1STR    H1T 4948  17.324   2.581  13.226
    1STR    H1U 4949  17.250   2.522  13.375
    1STR    H1V 4950  16.998   2.656  13.046
    1STR    H1W 4951  17.170   2.684  13.041
    1STR    H1X 4952  17.015   2.995  13.269
    1STR    H1Y 4953  17.036   3.190  13.388
    1STR    H1Z 4954  17.090   3.426  13.399
    1STR    H20 4955  17.286   3.602  13.159
    1STR    H21 4956  17.121   3.665  13.183
    1STR    H22 4957  17.213   3.605  13.318
    1STR    H23 4958  17.232   3.386  12.881
    1STR    H27 4959  17.124   3.189  12.966
    1STR    H28 4960  17.173   1.350  13.430
    1STR    H29 4961  17.139   1.116  13.472
    1STR    H2A 4962  17.106   0.854  13.226
    1STR    H2B 4963  17.078   0.904  13.391
    1STR    H2C 4964  17.239   0.851  13.343
    1STR   BCK1 4965   0.010   5.241  17.307
    1STR    O03 4966   0.101   5.185  17.248
    1STR    N04 4967   0.021   5.361  17.371
    1STR    C05 4968   0.131   5.449  17.393
    1STR    C06 4969   0.111   5.592  17.401
    1STR    C07 4970   0.217   5.687  17.424
    1STR    N08 4971   0.195   5.828  17.438
    1STR    C09 4972   0.282   5.932   0.000
    1STR    O0A 4973   0.403   5.920  17.421
    1STR    O0B 4974   0.225   6.057   0.026
    1STR    C0C 4975   0.306   6.179   0.020
    1STR    C0D 4976   0.330   6.215  17.313
    1STR    C0E 4977   0.246   6.303   0.097
    1STR    O0F 4978   0.320   6.427   0.078
    1STR    C0G 4979   0.274   6.546   0.149
    1STR    C0H 4980   0.319   6.536   0.296
    1STR    C0I 4981   0.327   6.680   0.085
    1STR    O0J 4982   0.261   6.801   0.132
    1STR    C0K 4983   0.302   6.930   0.076
    1STR    C0M 4984   0.273   6.933  17.366
    1STR    C0N 4985   0.230   7.053   0.143
    1STR    O0O 4986   0.274   7.181   0.090
    1STR    C0P 4987   0.188   7.288   0.070
    1STR    O0Q 4988   0.066   7.285   0.079
    1STR    N0R 4989   0.260   7.399   0.042
    1STR    C0S 4990   0.233   7.535   0.016
    1STR    C0T 4991   0.340   7.621   0.046
    1STR    C0U 4992   0.337   7.757   0.012
    1STR    C0V 4993   0.226   7.813  17.385
    1STR    C0W 4994   0.242   7.956  17.336
    1STR    C0X 4995   0.110   7.734  17.359
    1STR    N0Y 4996   0.002   7.789  17.286
    1STR   BCK2 4997  17.381   7.910  17.296
    1STR    O10 4998  17.391   7.985  17.392
    1STR    C13 4999   0.116   7.594  17.394
    1STR    C14 5000   0.347   5.633  17.436
    1STR    C15 5001   0.369   5.494  17.433
    1STR    C16 5002   0.264   5.403  17.417
    1STR    C17 5003   0.301   5.256  17.434
    1STR    H1B 5004  17.372   5.392  17.406
    1STR    H1C 5005   0.011   5.630  17.389
    1STR    H1D 5006   0.100   5.859   0.009
    1STR    H1E 5007   0.402   6.157   0.066
    1STR    H1F 5008   0.237   6.237  17.261
    1STR    H1G 5009   0.395   6.303  17.304
    1STR    H1H 5010   0.380   6.134  17.260
    1STR    H1I 5011   0.241   6.279   0.203
    1STR    H1J 5012   0.143   6.319   0.064
    1STR    H1K 5013   0.165   6.550   0.144
    1STR    H1M 5014   0.428   6.524   0.303
    1STR    H1N 5015   0.273   6.452   0.347
    1STR    H1O 5016   0.293   6.626   0.351
    1STR    H1P 5017   0.435   6.689   0.102
    1STR    H1Q 5018   0.314   6.671  17.417
    1STR    H1R 5019   0.409   6.941   0.093
    1STR    H1S 5020   0.296   7.031  17.324
    1STR    H1T 5021   0.167   6.915  17.347
    1STR    H1U 5022   0.331   6.861  17.310
    1STR    H1V 5023   0.251   7.054   0.250
    1STR    H1W 5024   0.122   7.044   0.134
    1STR    H1X 5025   0.357   7.375   0.047
    1STR    H1Y 5026   0.429   7.584   0.094
    1STR    H1Z 5027   0.423   7.819   0.033
    1STR    H20 5028   0.194   7.970  17.239
    1STR    H21 5029   0.198   8.026  17.407
    1STR    H22 5030   0.347   7.983  17.323
    1STR    H23 5031  17.406   7.732  17.211
    1STR    H27 5032   0.033   7.529  17.372
    1STR    H28 5033   0.434   5.695   0.012
    1STR    H29 5034   0.470   5.458   0.007
    1STR    H2A 5035   0.219   5.200   0.039
    1STR    H2B 5036   0.386   5.245   0.061
    1STR    H2C 5037   0.328   5.212  17.339
    1STR   BCK1 5038  17.312   5.215   4.244
    1STR    O03 5039  17.221   5.203   4.326
    1STR    N04 5040  17.351   5.334   4.193
    1STR    C05 5041  17.268   5.446   4.170
    1STR    C06 5042  17.308   5.581   4.196
    1STR    C07 5043  17.227   5.694   4.159
    1STR    N08 5044  17.268   5.829   4.178
    1STR    C09 5045  17.218   5.943   4.123
    1STR    O0A 5046  17.126   5.944   4.041
    1STR    O0B 5047  17.279   6.060   4.165
    1STR    C0C 5048  17.221   6.188   4.127
    1STR    C0D 5049  17.110   6.223   4.228
    1STR    C0E 5050  17.323   6.306   4.115
    1STR    O0F 5051  17.258   6.429   4.075
    1STR    C0G 5052  17.341   6.545   4.049
    1STR    C0H 5053  17.409   6.527   3.913
    1STR    C0I 5054  17.258   6.677   4.052
    1STR    O0J 5055  17.339   6.796   4.042
    1STR    C0K 5056  17.271   6.924   4.038
    1STR    C0M 5057  17.205   6.953   4.174
    1STR    C0N 5058  17.368   7.041   4.002
    1STR    O0O 5059  17.298   7.159   3.956
    1STR    C0P 5060  17.313   7.282   4.015
    1STR    O0Q 5061  17.381   7.306   4.115
    1STR    N0R 5062  17.238   7.372   3.951
    1STR    C0S 5063  17.193   7.500   3.988
    1STR    C0T 5064  17.053   7.517   3.985
    1STR    C0U 5065  16.993   7.636   4.029
    1STR    C0V 5066  17.072   7.744   4.074
    1STR    C0W 5067  17.002   7.857   4.148
    1STR    C0X 5068  17.213   7.738   4.062
    1STR    N0Y 5069  17.292   7.847   4.103
    1STR   BCK2 5070  17.288   7.979   4.076
    1STR    O10 5071  17.352   8.056   4.146
    1STR    C13 5072  17.273   7.612   4.025
    1STR    C14 5073  17.101   5.664   4.102
    1STR    C15 5074  17.062   5.533   4.072
    1STR    C16 5075  17.145   5.425   4.101
    1STR    C17 5076  17.102   5.288   4.049
    1STR    H1B 5077   0.002   5.334   4.150
    1STR    H1C 5078  17.404   5.598   4.244
    1STR    H1D 5079  17.346   5.847   4.239
    1STR    H1E 5080  17.175   6.179   4.029
    1STR    H1F 5081  17.149   6.236   4.329
    1STR    H1G 5082  17.059   6.315   4.200
    1STR    H1H 5083  17.034   6.144   4.232
    1STR    H1I 5084  17.399   6.278   4.043
    1STR    H1J 5085  17.374   6.321   4.210
    1STR    H1K 5086  17.417   6.552   4.128
    1STR    H1M 5087  17.335   6.512   3.834
    1STR    H1N 5088   0.037   6.442   3.911
    1STR    H1O 5089   0.027   6.616   3.887
    1STR    H1P 5090  17.184   6.675   3.971
    1STR    H1Q 5091  17.200   6.679   4.144
    1STR    H1R 5092  17.194   6.919   3.961
    1STR    H1S 5093  17.162   7.053   4.176
    1STR    H1T 5094  17.279   6.947   4.255
    1STR    H1U 5095  17.125   6.883   4.198
    1STR    H1V 5096  17.432   7.010   3.920
    1STR    H1W 5097  17.435   7.063   4.085
    1STR    H1X 5098  17.194   7.331   3.871
    1STR    H1Y 5099  16.989   7.436   3.954
    1STR    H1Z 5100  16.886   7.642   4.033
    1STR    H20 5101  17.052   7.874   4.244
    1STR    H21 5102  17.001   7.950   4.093
    1STR    H22 5103  16.898   7.832   4.170
    1STR    H23 5104  17.364   7.826   4.170
    1STR    H27 5105  17.380   7.602   4.025
    1STR    H28 5106  17.030   5.741   4.077
    1STR    H29 5107  16.967   5.517   4.023
    1STR    H2A 5108  17.187   5.234   4.007
    1STR    H2B 5109  17.028   5.297   3.971
    1STR    H2C 5110  17.059   5.229   4.130
    1STR   BCK1 5111  17.363   5.229   8.717
    1STR    O03 5112   0.020   5.166   8.758
    1STR    N04 5113  17.332   5.357   8.755
    1STR    C05 5114  17.385   5.445   8.855
    1STR    C06 5115  17.379   5.588   8.836
    1STR    C07 5116  17.423   5.684   8.935
    1STR    N08 5117  17.411   5.826   8.917
    1STR    C09 5118  17.427   5.929   9.005
    1STR    O0A 5119   0.014   5.913   9.123
    1STR    O0B 5120  17.409   6.055   8.950
    1STR    C0C 5121  17.431   6.176   9.029
    1STR    C0D 5122   0.143   6.204   9.037
    1STR    C0E 5123  17.355   6.303   8.976
    1STR    O0F 5124  17.381   6.426   9.050
    1STR    C0G 5125  17.304   6.545   9.012
    1STR    C0H 5126  17.163   6.531   9.071
    1STR    C0I 5127  17.368   6.680   9.060
    1STR    O0J 5128  17.303   6.798   9.004
    1STR    C0K 5129  17.349   6.930   9.042
    1STR    C0M 5130   0.054   6.950   8.995
    1STR    C0N 5131  17.260   7.045   8.981
    1STR    O0O 5132  17.299   7.179   9.019
    1STR    C0P 5133  17.275   7.288   8.938
    1STR    O0Q 5134  17.227   7.282   8.825
    1STR    N0R 5135  17.310   7.402   8.999
    1STR    C0S 5136  17.315   7.539   8.961
    1STR    C0T 5137  17.365   7.627   9.059
    1STR    C0U 5138  17.385   7.763   9.030
    1STR    C0V 5139  17.355   7.817   8.903
    1STR    C0W 5140  17.400   7.960   8.879
    1STR    C0X 5141  17.295   7.735   8.804
    1STR    N0Y 5142  17.260   7.778   8.673
    1STR   BCK2 5143  17.222   7.887   8.602
    1STR    O10 5144  17.199   7.871   8.483
    1STR    C13 5145  17.278   7.596   8.835
    1STR    C14 5146   0.039   5.630   9.053
    1STR    C15 5147   0.044   5.492   9.075
    1STR    C16 5148  17.434   5.400   8.981
    1STR    C17 5149  17.432   5.255   9.026
    1STR    H1B 5150  17.258   5.394   8.700
    1STR    H1C 5151  17.339   5.626   8.744
    1STR    H1D 5152  17.387   5.859   8.825
    1STR    H1E 5153  17.396   6.157   9.131
    1STR    H1F 5154   0.185   6.223   8.938
    1STR    H1G 5155   0.163   6.291   9.099
    1STR    H1H 5156   0.196   6.120   9.081
    1STR    H1I 5157  17.248   6.281   8.979
    1STR    H1J 5158  17.381   6.319   8.872
    1STR    H1K 5159  17.299   6.549   8.904
    1STR    H1M 5160  17.166   6.518   9.179
    1STR    H1N 5161  17.108   6.447   9.028
    1STR    H1O 5162  17.104   6.620   9.050
    1STR    H1P 5163  17.366   6.686   9.169
    1STR    H1Q 5164   0.033   6.680   9.032
    1STR    H1R 5165  17.345   6.939   9.151
    1STR    H1S 5166   0.088   7.052   9.016
    1STR    H1T 5167   0.063   6.935   8.888
    1STR    H1U 5168   0.124   6.883   9.045
    1STR    H1V 5169  17.156   7.031   9.013
    1STR    H1W 5170  17.258   7.036   8.872
    1STR    H1X 5171  17.342   7.381   9.092
    1STR    H1Y 5172  17.393   7.592   9.157
    1STR    H1Z 5173  17.429   7.826   9.106
    1STR    H20 5174  17.436   7.972   8.777
    1STR    H21 5175  17.318   8.029   8.898
    1STR    H22 5176   0.042   7.988   8.945
    1STR    H23 5177  17.258   7.701   8.608
    1STR    H27 5178  17.237   7.529   8.761
    1STR    H28 5179   0.079   5.693   9.131
    1STR    H29 5180   0.084   5.456   9.169
    1STR    H2A 5181  17.345   5.202   8.986
    1STR    H2B 5182  17.427   5.247   9.134
    1STR    H2C 5183   0.082   5.203   8.994
    1STR   BCK1 5184  17.375   5.239  12.912
    1STR    O03 5185  17.310   5.253  12.809
    1STR    N04 5186   0.013   5.337  12.965
    1STR    C05 5187   0.077   5.443  12.896
    1STR    C06 5188   0.063   5.583  12.930
    1STR    C07 5189   0.140   5.686  12.865
    1STR    N08 5190   0.132   5.825  12.901
    1STR    C09 5191   0.180   5.935  12.836
    1STR    O0A 5192   0.234   5.931  12.726
    1STR    O0B 5193   0.164   6.056  12.904
    1STR    C0C 5194   0.205   6.182  12.841
    1STR    C0D 5195   0.099   6.221  12.736
    1STR    C0E 5196   0.230   6.303  12.938
    1STR    O0F 5197   0.262   6.427  12.869
    1STR    C0G 5198   0.290   6.546  12.948
    1STR    C0H 5199   0.432   6.535  13.005
    1STR    C0I 5200   0.275   6.677  12.862
    1STR    O0J 5201   0.275   6.801  12.937
    1STR    C0K 5202   0.253   6.925  12.863
    1STR    C0M 5203   0.110   6.928  12.808
    1STR    C0N 5204   0.275   7.056  12.946
    1STR    O0O 5205   0.269   7.174  12.863
    1STR    C0P 5206   0.205   7.290  12.900
    1STR    O0Q 5207   0.135   7.304  13.000
    1STR    N0R 5208   0.234   7.388  12.813
    1STR    C0S 5209   0.206   7.527  12.804
    1STR    C0T 5210   0.309   7.605  12.749
    1STR    C0U 5211   0.294   7.743  12.731
    1STR    C0V 5212   0.174   7.809  12.765
    1STR    C0W 5213   0.175   7.960  12.752
    1STR    C0X 5214   0.063   7.734  12.815
    1STR    N0Y 5215  17.382   7.793  12.858
    1STR   BCK2 5216  17.300   7.899  12.832
    1STR    O10 5217  17.206   7.917  12.908
    1STR    C13 5218   0.083   7.593  12.837
    1STR    C14 5219   0.231   5.643  12.766
    1STR    C15 5220   0.247   5.508  12.733
    1STR    C16 5221   0.173   5.408  12.798
    1STR    C17 5222   0.204   5.263  12.766
    1STR    H1B 5223   0.045   5.318  13.058
    1STR    H1C 5224  17.433   5.610  13.008
    1STR    H1D 5225   0.084   5.849  12.985
    1STR    H1E 5226   0.299   6.164  12.789
    1STR    H1F 5227   0.002   6.240  12.782
    1STR    H1G 5228   0.129   6.311  12.682
    1STR    H1H 5229   0.086   6.143  12.661
    1STR    H1I 5230   0.311   6.276  13.006
    1STR    H1J 5231   0.142   6.319  13.000
    1STR    H1K 5232   0.218   6.552  13.029
    1STR    H1M 5233   0.506   6.521  12.926
    1STR    H1N 5234   0.443   6.451  13.074
    1STR    H1O 5235   0.459   6.625  13.060
    1STR    H1P 5236   0.354   6.680  12.787
    1STR    H1Q 5237   0.182   6.667  12.807
    1STR    H1R 5238   0.324   6.927  12.780
    1STR    H1S 5239   0.089   7.023  12.760
    1STR    H1T 5240   0.038   6.916  12.889
    1STR    H1U 5241   0.091   6.851  12.734
    1STR    H1V 5242   0.374   7.054  12.993
    1STR    H1W 5243   0.204   7.062  13.028
    1STR    H1X 5244   0.298   7.352  12.744
    1STR    H1Y 5245   0.404   7.560  12.723
    1STR    H1Z 5246   0.377   7.800  12.692
    1STR    H20 5247   0.135   7.989  12.655
    1STR    H21 5248   0.117   8.006  12.831
    1STR    H22 5249   0.276   8.000  12.759
    1STR    H23 5250  17.338   7.741  12.932
    1STR    H27 5251   0.004   7.533  12.879
    1STR    H28 5252   0.295   5.712  12.713
    1STR    H29 5253   0.319   5.481  12.658
    1STR    H2A 5254   0.218   5.205  12.858
    1STR    H2B 5255   0.295   5.253  12.708
    1STR    H2C 5256   0.122   5.218  12.709
    1STR   BCK1 5257  17.325   9.577  17.339
    1STR    O03 5258  17.433   9.522  17.356
    1STR    N04 5259  17.313   9.704  17.384
    1STR    C05 5260  17.213   9.799  17.413
    1STR    C06 5261  17.240   9.939  17.398
    1STR    C07 5262  17.151  10.042   0.001
    1STR    N08 5263  17.182  10.181  17.428
    1STR    C09 5264  17.111  10.292   0.021
    1STR    O0A 5265  16.999  10.289   0.071
    1STR    O0B 5266  17.176  10.410  17.432
    1STR    C0C 5267  17.113  10.538   0.025
    1STR    C0D 5268  17.132  10.568   0.175
    1STR    C0E 5269  17.164  10.657  17.379
    1STR    O0F 5270  17.095  10.780  17.409
    1STR    C0G 5271  17.127  10.896  17.329
    1STR    C0H 5272  17.062  10.881  17.190
    1STR    C0I 5273  17.080  11.028  17.396
    1STR    O0J 5274  17.124  11.146  17.324
    1STR    C0K 5275  17.081  11.274  17.375
    1STR    C0M 5276  17.152  11.304   0.068
    1STR    C0N 5277  17.112  11.388  17.273
    1STR    O0O 5278  17.049  11.511  17.313
    1STR    C0P 5279  17.105  11.633  17.289
    1STR    O0Q 5280  17.212  11.654  17.232
    1STR    N0R 5281  17.027  11.728  17.341
    1STR    C0S 5282  17.043  11.865  17.365
    1STR    C0T 5283  16.984  11.911   0.044
    1STR    C0U 5284  16.993  12.046   0.081
    1STR    C0V 5285  17.055  12.141  17.438
    1STR    C0W 5286  17.057  12.282   0.052
    1STR    C0X 5287  17.108  12.101  17.311
    1STR    N0Y 5288  17.145  12.192  17.208
    1STR   BCK2 5289  17.177  12.323  17.202
    1STR    O10 5290  17.218  12.392  17.294
    1STR    C13 5291  17.105  11.961  17.279
    1STR    C14 5292  17.030   9.998   0.062
    1STR    C15 5293  17.002   9.862   0.080
    1STR    C16 5294  17.093   9.762   0.039
    1STR    C17 5295  17.060   9.619   0.078
    1STR    H1B 5296  17.406   9.735  17.411
    1STR    H1C 5297  17.334   9.968  17.352
    1STR    H1D 5298  17.271  10.204  17.388
    1STR    H1E 5299  17.006  10.529   0.006
    1STR    H1F 5300  17.237  10.579   0.201
    1STR    H1G 5301  17.081  10.660   0.203
    1STR    H1H 5302  17.090  10.488   0.237
    1STR    H1I 5303  17.151  10.631  17.274
    1STR    H1J 5304  17.271  10.671  17.395
    1STR    H1K 5305  17.236  10.902  17.318
    1STR    H1M 5306  16.954  10.868  17.199
    1STR    H1N 5307  17.102  10.797  17.134
    1STR    H1O 5308  17.079  10.971  17.130
    1STR    H1P 5309  16.971  11.028  17.405
    1STR    H1Q 5310  17.119  11.030   0.058
    1STR    H1R 5311  16.973  11.272  17.390
    1STR    H1S 5312  17.128  11.405   0.103
    1STR    H1T 5313  17.260  11.299   0.057
    1STR    H1U 5314  17.123  11.235   0.147
    1STR    H1V 5315  17.074  11.362  17.174
    1STR    H1W 5316  17.220  11.402  17.261
    1STR    H1X 5317  16.945  11.685  17.381
    1STR    H1Y 5318  16.933  11.843   0.110
    1STR    H1Z 5319  16.949  12.076   0.174
    1STR    H20 5320  17.160  12.312   0.072
    1STR    H21 5321  17.011  12.353  17.423
    1STR    H22 5322  17.005  12.291   0.147
    1STR    H23 5323  17.141  12.152  17.116
    1STR    H27 5324  17.148  11.925  17.186
    1STR    H28 5325  16.957  10.067   0.099
    1STR    H29 5326  16.911   9.835   0.130
    1STR    H2A 5327  17.011   9.568  17.435
    1STR    H2B 5328  16.993   9.616   0.163
    1STR    H2C 5329  17.150   9.565   0.107
    1STR   BCK1 5330   0.010   9.598   4.295
    1STR    O03 5331   0.113   9.535   4.280
    1STR    N04 5332   0.001   9.722   4.352
    1STR    C05 5333   0.098   9.808   4.414
    1STR    C06 5334   0.080   9.952   4.410
    1STR    C07 5335   0.171  10.046   4.472
    1STR    N08 5336   0.148  10.187   4.472
    1STR    C09 5337   0.224  10.290   4.519
    1STR    O0A 5338   0.336  10.276   4.567
    1STR    O0B 5339   0.166  10.417   4.507
    1STR    C0C 5340   0.240  10.538   4.544
    1STR    C0D 5341   0.341  10.570   4.433
    1STR    C0E 5342   0.150  10.663   4.575
    1STR    O0F 5343   0.224  10.787   4.599
    1STR    C0G 5344   0.148  10.906   4.636
    1STR    C0H 5345   0.109  10.894   4.784
    1STR    C0I 5346   0.224  11.041   4.610
    1STR    O0J 5347   0.139  11.160   4.618
    1STR    C0K 5348   0.199  11.291   4.598
    1STR    C0M 5349   0.258  11.301   4.456
    1STR    C0N 5350   0.096  11.409   4.617
    1STR    O0O 5351   0.153  11.541   4.597
    1STR    C0P 5352   0.081  11.647   4.544
    1STR    O0Q 5353  17.409  11.640   4.495
    1STR    N0R 5354   0.152  11.761   4.555
    1STR    C0S 5355   0.136  11.897   4.519
    1STR    C0T 5356   0.231  11.983   4.578
    1STR    C0U 5357   0.239  12.118   4.543
    1STR    C0V 5358   0.152  12.174   4.447
    1STR    C0W 5359   0.183  12.316   4.403
    1STR    C0X 5360   0.047  12.095   4.391
    1STR    N0Y 5361  17.402  12.152   4.293
    1STR   BCK2 5362  17.340  12.272   4.288
    1STR    O10 5363  17.328  12.348   4.384
    1STR    C13 5364   0.043  11.955   4.427
    1STR    C14 5365   0.284   9.990   4.535
    1STR    C15 5366   0.302   9.851   4.543
    1STR    C16 5367   0.209   9.760   4.488
    1STR    C17 5368   0.233   9.614   4.522
    1STR    H1B 5369  17.348   9.759   4.346
    1STR    H1C 5370  17.434   9.991   4.358
    1STR    H1D 5371   0.062  10.220   4.433
    1STR    H1E 5372   0.297  10.516   4.635
    1STR    H1F 5373   0.290  10.592   4.338
    1STR    H1G 5374   0.401  10.657   4.459
    1STR    H1H 5375   0.410  10.487   4.416
    1STR    H1I 5376   0.089  10.640   4.662
    1STR    H1J 5377   0.082  10.680   4.492
    1STR    H1K 5378   0.057  10.909   4.575
    1STR    H1M 5379   0.198  10.883   4.847
    1STR    H1N 5380   0.043  10.810   4.804
    1STR    H1O 5381   0.057  10.984   4.818
    1STR    H1P 5382   0.307  11.051   4.681
    1STR    H1Q 5383   0.269  11.035   4.511
    1STR    H1R 5384   0.279  11.305   4.671
    1STR    H1S 5385   0.297  11.401   4.437
    1STR    H1T 5386   0.182  11.281   4.381
    1STR    H1U 5387   0.341  11.232   4.440
    1STR    H1V 5388   0.055  11.406   4.718
    1STR    H1W 5389   0.010  11.395   4.550
    1STR    H1X 5390   0.237  11.740   4.604
    1STR    H1Y 5391   0.302  11.946   4.651
    1STR    H1Z 5392   0.316  12.180   4.588
    1STR    H20 5393   0.162  12.330   4.297
    1STR    H21 5394   0.124  12.388   4.460
    1STR    H22 5395   0.288  12.341   4.417
    1STR    H23 5396  17.386  12.095   4.211
    1STR    H27 5397  17.408  11.891   4.382
    1STR    H28 5398   0.359  10.050   4.583
    1STR    H29 5399   0.388   9.814   4.596
    1STR    H2A 5400   0.140   9.560   4.534
    1STR    H2B 5401   0.289   9.604   4.615
    1STR    H2C 5402   0.293   9.567   4.444
    1STR   BCK1 5403  17.305   9.585   8.586
    1STR    O03 5404  17.183   9.596   8.580
    1STR    N04 5405  17.389   9.690   8.569
    1STR    C05 5406  17.363   9.803   8.488
    1STR    C06 5407  17.380   9.939   8.531
    1STR    C07 5408  17.361  10.050   8.441
    1STR    N08 5409  17.383  10.186   8.479
    1STR    C09 5410  17.354  10.300   8.412
    1STR    O0A 5411  17.292  10.304   8.306
    1STR    O0B 5412  17.401  10.416   8.472
    1STR    C0C 5413  17.374  10.545   8.409
    1STR    C0D 5414  17.228  10.586   8.436
    1STR    C0E 5415   0.031  10.661   8.451
    1STR    O0F 5416  17.438  10.784   8.383
    1STR    C0G 5417   0.080  10.900   8.409
    1STR    C0H 5418   0.211  10.887   8.330
    1STR    C0I 5419   0.004  11.031   8.370
    1STR    O0J 5420   0.068  11.153   8.415
    1STR    C0K 5421   0.002  11.277   8.382
    1STR    C0M 5422  17.309  11.288   8.460
    1STR    C0N 5423   0.087  11.404   8.413
    1STR    O0O 5424   0.027  11.519   8.352
    1STR    C0P 5425   0.027  11.644   8.407
    1STR    O0Q 5426   0.064  11.674   8.520
    1STR    N0R 5427  17.425  11.730   8.313
    1STR    C0S 5428  17.411  11.869   8.301
    1STR    C0T 5429  17.437  11.916   8.171
    1STR    C0U 5430  17.408  12.048   8.136
    1STR    C0V 5431  17.350  12.138   8.227
    1STR    C0W 5432  17.307  12.270   8.168
    1STR    C0X 5433  17.327  12.098   8.363
    1STR    N0Y 5434  17.259  12.176   8.460
    1STR   BCK2 5435  17.220  12.303   8.489
    1STR    O10 5436  17.139  12.318   8.579
    1STR    C13 5437  17.360  11.962   8.397
    1STR    C14 5438  17.325  10.018   8.308
    1STR    C15 5439  17.311   9.885   8.264
    1STR    C16 5440  17.333   9.778   8.352
    1STR    C17 5441  17.330   9.638   8.293
    1STR    H1B 5442   0.044   9.674   8.598
    1STR    H1C 5443  17.407   9.958   8.633
    1STR    H1D 5444  17.426  10.203   8.568
    1STR    H1E 5445  17.387  10.533   8.301
    1STR    H1F 5446  17.209  10.601   8.542
    1STR    H1G 5447  17.203  10.678   8.384
    1STR    H1H 5448  17.158  10.510   8.399
    1STR    H1I 5449   0.133  10.631   8.427
    1STR    H1J 5450   0.026  10.676   8.559
    1STR    H1K 5451   0.101  10.905   8.516
    1STR    H1M 5452   0.191  10.875   8.223
    1STR    H1N 5453   0.271  10.802   8.362
    1STR    H1O 5454   0.272  10.976   8.341
    1STR    H1P 5455  17.431  11.034   8.261
    1STR    H1Q 5456  17.344  11.024   8.413
    1STR    H1R 5457  17.421  11.277   8.275
    1STR    H1S 5458  17.263  11.386   8.443
    1STR    H1T 5459  17.326  11.278   8.567
    1STR    H1U 5460  17.236  11.214   8.429
    1STR    H1V 5461   0.187  11.393   8.371
    1STR    H1W 5462   0.100  11.419   8.520
    1STR    H1X 5463  17.407  11.678   8.230
    1STR    H1Y 5464   0.037  11.851   8.095
    1STR    H1Z 5465  17.427  12.080   8.034
    1STR    H20 5466  17.207  12.296   8.201
    1STR    H21 5467  17.380  12.347   8.194
    1STR    H22 5468  17.304  12.267   8.059
    1STR    H23 5469  17.224  12.120   8.536
    1STR    H27 5470  17.341  11.925   8.497
    1STR    H28 5471  17.310  10.092   8.232
    1STR    H29 5472  17.286   9.867   8.161
    1STR    H2A 5473  17.415   9.579   8.329
    1STR    H2B 5474  17.335   9.639   8.184
    1STR    H2C 5475  17.238   9.586   8.322
    1STR   BCK1 5476  17.305   9.583  13.059
    1STR    O03 5477  17.383   9.523  13.131
    1STR    N04 5478  17.265   9.712  13.078
    1STR    C05 5479  17.281   9.804  13.187
    1STR    C06 5480  17.289   9.946  13.162
    1STR    C07 5481  17.293  10.044  13.267
    1STR    N08 5482  17.295  10.185  13.242
    1STR    C09 5483  17.266  10.289  13.324
    1STR    O0A 5484  17.226  10.276  13.440
    1STR    O0B 5485  17.283  10.414  13.266
    1STR    C0C 5486  17.263  10.537  13.343
    1STR    C0D 5487  17.389  10.565  13.428
    1STR    C0E 5488  17.227  10.662  13.256
    1STR    O0F 5489  17.208  10.785  13.331
    1STR    C0G 5490  17.164  10.902  13.258
    1STR    C0H 5491  17.014  10.887  13.228
    1STR    C0I 5492  17.190  11.037  13.333
    1STR    O0J 5493  17.162  11.154  13.252
    1STR    C0K 5494  17.177  11.285  13.311
    1STR    C0M 5495  17.325  11.311  13.344
    1STR    C0N 5496  17.126  11.399  13.215
    1STR    O0O 5497  17.130  11.530  13.276
    1STR    C0P 5498  17.145  11.644  13.201
    1STR    O0Q 5499  17.163  11.647  13.079
    1STR    N0R 5500  17.139  11.753  13.279
    1STR    C0S 5501  17.158  11.891  13.258
    1STR    C0T 5502  17.165  11.970  13.374
    1STR    C0U 5503  17.193  12.108  13.367
    1STR    C0V 5504  17.214  12.172  13.243
    1STR    C0W 5505  17.261  12.316  13.246
    1STR    C0X 5506  17.198  12.098  13.122
    1STR    N0Y 5507  17.214  12.153  12.993
    1STR   BCK2 5508  17.150  12.251  12.926
    1STR    O10 5509  17.091  12.221  12.823
    1STR    C13 5510  17.173  11.957  13.133
    1STR    C14 5511  17.295   9.995  13.400
    1STR    C15 5512  17.286   9.857  13.426
    1STR    C16 5513  17.275   9.762  13.323
    1STR    C17 5514  17.251   9.619  13.367
    1STR    H1B 5515  17.214   9.748  12.999
    1STR    H1C 5516  17.291   9.980  13.060
    1STR    H1D 5517  17.322  10.215  13.150
    1STR    H1E 5518  17.180  10.521  13.412
    1STR    H1F 5519   0.037  10.581  13.365
    1STR    H1G 5520  17.375  10.653  13.490
    1STR    H1H 5521  17.411  10.481  13.495
    1STR    H1I 5522  17.136  10.638  13.200
    1STR    H1J 5523  17.305  10.678  13.182
    1STR    H1K 5524  17.220  10.907  13.164
    1STR    H1M 5525  16.957  10.874  13.320
    1STR    H1N 5526  16.992  10.803  13.163
    1STR    H1O 5527  16.975  10.976  13.179
    1STR    H1P 5528  17.130  11.040  13.425
    1STR    H1Q 5529  17.294  11.038  13.365
    1STR    H1R 5530  17.118  11.289  13.402
    1STR    H1S 5531  17.340  11.412  13.381
    1STR    H1T 5532  17.388  11.299  13.255
    1STR    H1U 5533  17.363  11.244  13.421
    1STR    H1V 5534  17.023  11.379  13.186
    1STR    H1W 5535  17.184  11.398  13.123
    1STR    H1X 5536  17.120  11.724  13.373
    1STR    H1Y 5537  17.152  11.927  13.472
    1STR    H1Z 5538  17.202  12.164  13.459
    1STR    H20 5539  17.343  12.331  13.176
    1STR    H21 5540  17.179  12.384  13.222
    1STR    H22 5541  17.298  12.344  13.345
    1STR    H23 5542  17.237  12.081  12.927
    1STR    H27 5543  17.166  11.898  13.043
    1STR    H28 5544  17.302  10.061  13.485
    1STR    H29 5545  17.284   9.825  13.529
    1STR    H2A 5546  17.185   9.567  13.298
    1STR    H2B 5547  17.203   9.615  13.465
    1STR    H2C 5548  17.345   9.565  13.374
    1STR   BCK1 5549  17.429  13.960  17.270
    1STR    O03 5550   0.063  13.908  17.188
    1STR    N04 5551   0.013  14.079  17.332
    1STR    C05 5552   0.123  14.170  17.327
    1STR    C06 5553   0.103  14.312  17.343
    1STR    C07 5554   0.210  14.409  17.339
    1STR    N08 5555   0.190  14.549  17.361
    1STR    C09 5556   0.272  14.654  17.335
    1STR    O0A 5557   0.379  14.644  17.276
    1STR    O0B 5558   0.225  14.778  17.381
    1STR    C0C 5559   0.297  14.901  17.350
    1STR    C0D 5560   0.268  14.939  17.203
    1STR    C0E 5561   0.267  15.024   0.004
    1STR    O0F 5562   0.331  15.148  17.402
    1STR    C0G 5563   0.312  15.267   0.043
    1STR    C0H 5564   0.403  15.257   0.167
    1STR    C0I 5565   0.342  15.400  17.404
    1STR    O0J 5566   0.298  15.523   0.029
    1STR    C0K 5567   0.319  15.649  17.398
    1STR    C0M 5568   0.233  15.651  17.270
    1STR    C0N 5569   0.283  15.777   0.042
    1STR    O0O 5570   0.312  15.901  17.412
    1STR    C0P 5571   0.230  16.011  17.415
    1STR    O0Q 5572   0.118  16.015   0.025
    1STR    N0R 5573   0.291  16.116  17.358
    1STR    C0S 5574   0.258  16.252  17.333
    1STR    C0T 5575   0.369  16.337  17.313
    1STR    C0U 5576   0.352  16.473  17.285
    1STR    C0V 5577   0.224  16.531  17.274
    1STR    C0W 5578   0.220  16.680  17.250
    1STR    C0X 5579   0.108  16.450  17.292
    1STR    N0Y 5580  17.415  16.500  17.294
    1STR   BCK2 5581  17.335  16.602  17.251
    1STR    O10 5582  17.221  16.605  17.296
    1STR    C13 5583   0.128  16.311  17.323
    1STR    C14 5584   0.339  14.357  17.317
    1STR    C15 5585   0.362  14.219  17.306
    1STR    C16 5586   0.258  14.126  17.316
    1STR    C17 5587   0.300  13.980  17.323
    1STR    H1B 5588  17.375  14.108  17.390
    1STR    H1C 5589   0.002  14.348  17.357
    1STR    H1D 5590   0.103  14.577  17.403
    1STR    H1E 5591   0.404  14.881  17.358
    1STR    H1F 5592   0.162  14.960  17.188
    1STR    H1G 5593   0.325  15.028  17.174
    1STR    H1H 5594   0.297  14.859  17.135
    1STR    H1I 5595   0.299  14.998   0.105
    1STR    H1J 5596   0.159  15.040   0.009
    1STR    H1K 5597   0.207  15.272   0.075
    1STR    H1M 5598   0.507  15.244   0.138
    1STR    H1N 5599   0.376  15.173   0.231
    1STR    H1O 5600   0.396  15.347   0.228
    1STR    H1P 5601   0.449  15.406  17.383
    1STR    H1Q 5602   0.293  15.390  17.307
    1STR    H1R 5603   0.424  15.656  17.371
    1STR    H1S 5604   0.241  15.748  17.220
    1STR    H1T 5605   0.128  15.635  17.294
    1STR    H1U 5606   0.264  15.576  17.198
    1STR    H1V 5607   0.340  15.777   0.135
    1STR    H1W 5608   0.178  15.774   0.072
    1STR    H1X 5609   0.383  16.088  17.331
    1STR    H1Y 5610   0.470  16.299  17.322
    1STR    H1Z 5611   0.440  16.534  17.272
    1STR    H20 5612   0.198  16.699  17.145
    1STR    H21 5613   0.145  16.728  17.313
    1STR    H22 5614   0.315  16.728  17.272
    1STR    H23 5615  17.354  16.441  17.348
    1STR    H27 5616   0.043  16.246  17.340
    1STR    H28 5617   0.426  14.421  17.311
    1STR    H29 5618   0.464  14.185  17.293
    1STR    H2A 5619   0.232  13.922  17.385
    1STR    H2B 5620   0.399  13.970  17.367
    1STR    H2C 5621   0.304  13.936  17.223
    1STR   BCK1 5622  17.339  13.929   4.249
    1STR    O03 5623  17.417  13.870   4.324
    1STR    N04 5624  17.316  14.060   4.274
    1STR    C05 5625  17.224  14.161   4.237
    1STR    C06 5626  17.265  14.298   4.238
    1STR    C07 5627  17.175  14.408   4.215
    1STR    N08 5628  17.217  14.544   4.220
    1STR    C09 5629  17.145  14.659   4.208
    1STR    O0A 5630  17.024  14.662   4.190
    1STR    O0B 5631  17.219  14.775   4.217
    1STR    C0C 5632  17.153  14.904   4.210
    1STR    C0D 5633  17.088  14.936   4.346
    1STR    C0E 5634  17.244  15.022   4.164
    1STR    O0F 5635  17.169  15.146   4.151
    1STR    C0G 5636  17.239  15.261   4.099
    1STR    C0H 5637  17.257  15.245   3.948
    1STR    C0I 5638  17.161  15.393   4.131
    1STR    O0J 5639  17.234  15.512   4.093
    1STR    C0K 5640  17.169  15.640   4.113
    1STR    C0M 5641  17.157  15.669   4.264
    1STR    C0N 5642  17.245  15.757   4.044
    1STR    O0O 5643  17.164  15.875   4.033
    1STR    C0P 5644  17.210  16.000   4.063
    1STR    O0Q 5645  17.322  16.027   4.105
    1STR    N0R 5646  17.112  16.089   4.044
    1STR    C0S 5647  17.096  16.224   4.083
    1STR    C0T 5648  16.971  16.255   4.138
    1STR    C0U 5649  16.944  16.383   4.189
    1STR    C0V 5650  17.041  16.485   4.181
    1STR    C0W 5651  17.016  16.613   4.260
    1STR    C0X 5652  17.163  16.462   4.112
    1STR    N0Y 5653  17.258  16.564   4.102
    1STR   BCK2 5654  17.252  16.693   4.061
    1STR    O10 5655  17.344  16.769   4.087
    1STR    C13 5656  17.192  16.328   4.069
    1STR    C14 5657  17.041  14.373   4.189
    1STR    C15 5658  16.998  14.239   4.190
    1STR    C16 5659  17.086  14.134   4.217
    1STR    C17 5660  17.024  13.996   4.233
    1STR    H1B 5661  17.383  14.089   4.344
    1STR    H1C 5662  17.369  14.321   4.259
    1STR    H1D 5663  17.314  14.563   4.237
    1STR    H1E 5664  17.073  14.897   4.136
    1STR    H1F 5665  17.162  14.947   4.425
    1STR    H1G 5666  17.031  15.030   4.341
    1STR    H1H 5667  17.018  14.858   4.377
    1STR    H1I 5668  17.289  14.995   4.069
    1STR    H1J 5669  17.325  15.036   4.235
    1STR    H1K 5670  17.336  15.268   4.148
    1STR    H1M 5671  17.161  15.230   3.898
    1STR    H1N 5672  17.321  15.161   3.922
    1STR    H1O 5673  17.302  15.334   3.904
    1STR    H1P 5674  17.065  15.391   4.080
    1STR    H1Q 5675  17.140  15.395   4.238
    1STR    H1R 5676  17.069  15.635   4.069
    1STR    H1S 5677  17.117  15.769   4.281
    1STR    H1T 5678  17.255  15.665   4.312
    1STR    H1U 5679  17.091  15.599   4.315
    1STR    H1V 5680  17.273  15.728   3.942
    1STR    H1W 5681  17.339  15.777   4.095
    1STR    H1X 5682  17.030  16.043   4.008
    1STR    H1Y 5683  16.894  16.180   4.148
    1STR    H1Z 5684  16.850  16.402   4.238
    1STR    H20 5685  17.106  16.642   4.315
    1STR    H21 5686  16.986  16.695   4.197
    1STR    H22 5687  16.937  16.599   4.334
    1STR    H23 5688  17.351  16.542   4.136
    1STR    H27 5689  17.288  16.306   4.024
    1STR    H28 5690  16.964  14.445   4.170
    1STR    H29 5691  16.893  14.219   4.174
    1STR    H2A 5692  17.024  13.945   4.137
    1STR    H2B 5693  16.921  14.004   4.266
    1STR    H2C 5694  17.076  13.937   4.307
    1STR   BCK1 5695  17.404  13.953   8.706
    1STR    O03 5696   0.066  13.889   8.726
    1STR    N04 5697  17.380  14.079   8.753
    1STR    C05 5698   0.012  14.166   8.841
    1STR    C06 5699   0.000  14.310   8.828
    1STR    C07 5700   0.065  14.404   8.916
    1STR    N08 5701   0.047  14.546   8.905
    1STR    C09 5702   0.090  14.649   8.984
    1STR    O0A 5703   0.157  14.633   9.085
    1STR    O0B 5704   0.052  14.775   8.940
    1STR    C0C 5705   0.099  14.896   9.009
    1STR    C0D 5706   0.244  14.925   8.966
    1STR    C0E 5707   0.008  15.023   8.986
    1STR    O0F 5708   0.058  15.146   9.046
    1STR    C0G 5709  17.413  15.264   9.037
    1STR    C0H 5710  17.301  15.251   9.141
    1STR    C0I 5711   0.049  15.400   9.058
    1STR    O0J 5712  17.409  15.517   9.022
    1STR    C0K 5713   0.025  15.650   9.040
    1STR    C0M 5714   0.150  15.667   8.951
    1STR    C0N 5715  17.362  15.764   9.005
    1STR    O0O 5716  17.413  15.898   9.023
    1STR    C0P 5717  17.369  16.005   8.947
    1STR    O0Q 5718  17.292  15.998   8.852
    1STR    N0R 5719  17.422  16.119   8.993
    1STR    C0S 5720  17.421  16.256   8.956
    1STR    C0T 5721   0.056  16.339   9.042
    1STR    C0U 5722   0.077  16.475   9.012
    1STR    C0V 5723   0.022  16.533   8.897
    1STR    C0W 5724   0.066  16.676   8.865
    1STR    C0X 5725  17.375  16.458   8.813
    1STR    N0Y 5726  17.320  16.518   8.697
    1STR   BCK2 5727  17.260  16.639   8.682
    1STR    O10 5728  17.223  16.710   8.775
    1STR    C13 5729  17.359  16.318   8.842
    1STR    C14 5730   0.147  14.349   9.017
    1STR    C15 5731   0.158  14.210   9.034
    1STR    C16 5732   0.089  14.119   8.952
    1STR    C17 5733   0.097  13.973   8.994
    1STR    H1B 5734  17.296  14.117   8.715
    1STR    H1C 5735  17.380  14.348   8.748
    1STR    H1D 5736  17.434  14.580   8.826
    1STR    H1E 5737   0.099  14.876   9.116
    1STR    H1F 5738   0.251  14.946   8.860
    1STR    H1G 5739   0.283  15.012   9.020
    1STR    H1H 5740   0.310  14.841   8.989
    1STR    H1I 5741  17.350  15.000   9.025
    1STR    H1J 5742  17.436  15.039   8.879
    1STR    H1K 5743  17.370  15.267   8.937
    1STR    H1M 5744  17.342  15.239   9.242
    1STR    H1N 5745  17.235  15.166   9.122
    1STR    H1O 5746  17.238  15.340   9.142
    1STR    H1P 5747   0.083  15.408   9.161
    1STR    H1Q 5748   0.139  15.398   8.996
    1STR    H1R 5749   0.055  15.662   9.144
    1STR    H1S 5750   0.189  15.769   8.958
    1STR    H1T 5751   0.125  15.649   8.846
    1STR    H1U 5752   0.231  15.600   8.979
    1STR    H1V 5753  17.274  15.754   9.069
    1STR    H1W 5754  17.326  15.751   8.903
    1STR    H1X 5755   0.037  16.098   9.075
    1STR    H1Y 5756   0.103  16.300   9.131
    1STR    H1Z 5757   0.139  16.534   9.078
    1STR    H20 5758   0.074  16.691   8.757
    1STR    H21 5759  17.435  16.748   8.905
    1STR    H22 5760   0.164  16.697   8.907
    1STR    H23 5761  17.326  16.465   8.612
    1STR    H27 5762  17.299  16.256   8.777
    1STR    H28 5763   0.203  14.409   9.086
    1STR    H29 5764   0.219  14.173   9.116
    1STR    H2A 5765   0.004  13.921   8.974
    1STR    H2B 5766   0.117  13.964   9.101
    1STR    H2C 5767   0.179  13.923   8.942
    1STR   BCK1 5768  17.340  13.954  12.913
    1STR    O03 5769  17.249  13.967  12.833
    1STR    N04 5770  17.427  14.053  12.944
    1STR    C05 5771   0.024  14.162  12.862
    1STR    C06 5772   0.020  14.301  12.902
    1STR    C07 5773   0.067  14.407  12.817
    1STR    N08 5774   0.069  14.545  12.857
    1STR    C09 5775   0.087  14.657  12.782
    1STR    O0A 5776   0.096  14.655  12.659
    1STR    O0B 5777   0.096  14.775  12.853
    1STR    C0C 5778   0.110  14.903  12.783
    1STR    C0D 5779  17.414  14.943  12.723
    1STR    C0E 5780   0.169  15.021  12.867
    1STR    O0F 5781   0.176  15.145  12.791
    1STR    C0G 5782   0.230  15.263  12.856
    1STR    C0H 5783   0.383  15.251  12.862
    1STR    C0I 5784   0.187  15.393  12.780
    1STR    O0J 5785   0.214  15.518  12.850
    1STR    C0K 5786   0.170  15.640  12.786
    1STR    C0M 5787   0.016  15.646  12.786
    1STR    C0N 5788   0.223  15.771  12.853
    1STR    O0O 5789   0.192  15.887  12.771
    1STR    C0P 5790   0.150  16.007  12.822
    1STR    O0Q 5791   0.120  16.028  12.939
    1STR    N0R 5792   0.152  16.099  12.725
    1STR    C0S 5793   0.131  16.239  12.721
    1STR    C0T 5794   0.223  16.310  12.642
    1STR    C0U 5795   0.212  16.449  12.626
    1STR    C0V 5796   0.108  16.522  12.688
    1STR    C0W 5797   0.117  16.673  12.676
    1STR    C0X 5798   0.008  16.454  12.763
    1STR    N0Y 5799  17.343  16.520  12.830
    1STR   BCK2 5800  17.262  16.628  12.815
    1STR    O10 5801  17.188  16.658  12.908
    1STR    C13 5802   0.025  16.312  12.782
    1STR    C14 5803   0.120  14.368  12.692
    1STR    C15 5804   0.127  14.234  12.652
    1STR    C16 5805   0.082  14.131  12.736
    1STR    C17 5806   0.105  13.988  12.692
    1STR    H1B 5807   0.045  14.036  13.024
    1STR    H1C 5808  17.419  14.324  12.999
    1STR    H1D 5809   0.053  14.566  12.954
    1STR    H1E 5810   0.180  14.887  12.700
    1STR    H1F 5811  17.340  14.961  12.801
    1STR    H1G 5812  17.423  15.034  12.664
    1STR    H1H 5813  17.375  14.866  12.657
    1STR    H1I 5814   0.268  14.993  12.902
    1STR    H1J 5815   0.107  15.037  12.956
    1STR    H1K 5816   0.189  15.269  12.957
    1STR    H1M 5817   0.425  15.238  12.762
    1STR    H1N 5818   0.416  15.167  12.923
    1STR    H1O 5819   0.427  15.341  12.904
    1STR    H1P 5820   0.235  15.395  12.682
    1STR    H1Q 5821   0.080  15.385  12.761
    1STR    H1R 5822   0.206  15.640  12.683
    1STR    H1S 5823  17.421  15.742  12.747
    1STR    H1T 5824  17.418  15.636  12.888
    1STR    H1U 5825  17.410  15.569  12.725
    1STR    H1V 5826   0.331  15.766  12.864
    1STR    H1W 5827   0.183  15.783  12.954
    1STR    H1X 5828   0.185  16.058  12.640
    1STR    H1Y 5829   0.305  16.260  12.593
    1STR    H1Z 5830   0.287  16.501  12.568
    1STR    H20 5831   0.064  16.706  12.586
    1STR    H21 5832   0.076  16.722  12.764
    1STR    H22 5833   0.220  16.706  12.667
    1STR    H23 5834  17.316  16.475  12.916
    1STR    H27 5835  17.394  16.257  12.842
    1STR    H28 5836   0.160  14.440  12.622
    1STR    H29 5837   0.171  14.211  12.556
    1STR    H2A 5838   0.148  13.929  12.773
    1STR    H2B 5839   0.174  13.982  12.608
    1STR    H2C 5840   0.011  13.942  12.662
    1STR   BCK1 5841   4.205   0.861  17.373
    1STR    O03 5842   4.254   0.808   0.032
    1STR    N04 5843   4.166   0.991  17.367
    1STR    C05 5844   4.137   1.086   0.028
    1STR    C06 5845   4.161   1.226   0.007
    1STR    C07 5846   4.116   1.328   0.098
    1STR    N08 5847   4.136   1.467   0.073
    1STR    C09 5848   4.070   1.574   0.125
    1STR    O0A 5849   3.976   1.565   0.203
    1STR    O0B 5850   4.118   1.696   0.081
    1STR    C0C 5851   4.065   1.820   0.134
    1STR    C0D 5852   4.129   1.850   0.270
    1STR    C0E 5853   4.082   1.942   0.037
    1STR    O0F 5854   4.026   2.065   0.089
    1STR    C0G 5855   4.028   2.181   0.003
    1STR    C0H 5856   3.919   2.166  17.336
    1STR    C0I 5857   4.007   2.315   0.082
    1STR    O0J 5858   4.024   2.433  17.439
    1STR    C0K 5859   4.003   2.562   0.060
    1STR    C0M 5860   4.114   2.589   0.163
    1STR    C0N 5861   4.001   2.678  17.394
    1STR    O0O 5862   3.962   2.804   0.012
    1STR    C0P 5863   4.005   2.924  17.402
    1STR    O0Q 5864   4.083   2.937  17.309
    1STR    N0R 5865   3.951   3.025   0.032
    1STR    C0S 5866   3.972   3.164   0.033
    1STR    C0T 5867   3.936   3.229   0.153
    1STR    C0U 5868   3.963   3.366   0.171
    1STR    C0V 5869   4.022   3.444   0.069
    1STR    C0W 5870   4.070   3.582   0.108
    1STR    C0X 5871   4.044   3.386  17.381
    1STR    N0Y 5872   4.096   3.455  17.269
    1STR   BCK2 5873   4.081   3.574  17.206
    1STR    O10 5874   4.136   3.590  17.098
    1STR    C13 5875   4.024   3.244  17.367
    1STR    C14 5876   4.052   1.284   0.215
    1STR    C15 5877   4.027   1.148   0.239
    1STR    C16 5878   4.066   1.049   0.146
    1STR    C17 5879   4.023   0.907   0.177
    1STR    H1B 5880   4.150   1.021  17.272
    1STR    H1C 5881   4.213   1.256  17.357
    1STR    H1D 5882   4.207   1.493   0.007
    1STR    H1E 5883   3.957   1.807   0.149
    1STR    H1F 5884   4.237   1.864   0.262
    1STR    H1G 5885   4.087   1.941   0.314
    1STR    H1H 5886   4.112   1.769   0.341
    1STR    H1I 5887   4.034   1.916  17.383
    1STR    H1J 5888   4.188   1.957   0.016
    1STR    H1K 5889   4.126   2.187  17.395
    1STR    H1M 5890   3.821   2.151  17.381
    1STR    H1N 5891   3.937   2.081  17.269
    1STR    H1O 5892   3.913   2.255  17.273
    1STR    H1P 5893   3.907   2.315   0.127
    1STR    H1Q 5894   4.078   2.317   0.164
    1STR    H1R 5895   3.906   2.562   0.110
    1STR    H1S 5896   4.105   2.690   0.204
    1STR    H1T 5897   4.212   2.582   0.117
    1STR    H1U 5898   4.111   2.521   0.247
    1STR    H1V 5899   3.930   2.654  17.315
    1STR    H1W 5900   4.099   2.686  17.346
    1STR    H1X 5901   3.889   2.988   0.102
    1STR    H1Y 5902   3.894   3.175   0.235
    1STR    H1Z 5903   3.941   3.411   0.267
    1STR    H20 5904   4.169   3.601   0.068
    1STR    H21 5905   4.002   3.660   0.076
    1STR    H22 5906   4.077   3.592   0.217
    1STR    H23 5907   4.155   3.398  17.210
    1STR    H27 5908   4.048   3.195  17.274
    1STR    H28 5909   4.017   1.353   0.290
    1STR    H29 5910   3.974   1.119   0.328
    1STR    H2A 5911   3.993   0.853   0.087
    1STR    H2B 5912   3.937   0.905   0.245
    1STR    H2C 5913   4.104   0.852   0.226
    1STR   BCK1 5914   4.374   0.880   4.254
    1STR    O03 5915   4.472   0.821   4.210
    1STR    N04 5916   4.377   1.001   4.317
    1STR    C05 5917   4.484   1.089   4.353
    1STR    C06 5918   4.465   1.232   4.357
    1STR    C07 5919   4.567   1.326   4.395
    1STR    N08 5920   4.544   1.467   4.405
    1STR    C09 5921   4.630   1.571   4.425
    1STR    O0A 5922   4.752   1.557   4.432
    1STR    O0B 5923   4.570   1.696   4.436
    1STR    C0C 5924   4.652   1.818   4.447
    1STR    C0D 5925   4.708   1.853   4.308
    1STR    C0E 5926   4.577   1.943   4.508
    1STR    O0F 5927   4.654   2.067   4.506
    1STR    C0G 5928   4.595   2.186   4.565
    1STR    C0H 5929   4.608   2.175   4.718
    1STR    C0I 5930   4.659   2.321   4.515
    1STR    O0J 5931   4.583   2.441   4.548
    1STR    C0K 5932   4.634   2.571   4.504
    1STR    C0M 5933   4.639   2.576   4.351
    1STR    C0N 5934   4.546   2.692   4.555
    1STR    O0O 5935   4.597   2.821   4.513
    1STR    C0P 5936   4.515   2.928   4.480
    1STR    O0Q 5937   4.394   2.922   4.467
    1STR    N0R 5938   4.589   3.040   4.467
    1STR    C0S 5939   4.565   3.176   4.436
    1STR    C0T 5940   4.668   3.262   4.478
    1STR    C0U 5941   4.669   3.398   4.443
    1STR    C0V 5942   4.567   3.453   4.364
    1STR    C0W 5943   4.588   3.596   4.315
    1STR    C0X 5944   4.455   3.374   4.326
    1STR    N0Y 5945   4.355   3.429   4.241
    1STR   BCK2 5946   4.292   3.550   4.245
    1STR    O10 5947   4.293   3.625   4.342
    1STR    C13 5948   4.457   3.234   4.362
    1STR    C14 5949   4.693   1.271   4.427
    1STR    C15 5950   4.714   1.132   4.428
    1STR    C16 5951   4.611   1.041   4.397
    1STR    C17 5952   4.644   0.895   4.421
    1STR    H1B 5953   4.285   1.035   4.337
    1STR    H1C 5954   4.368   1.270   4.330
    1STR    H1D 5955   4.449   1.499   4.397
    1STR    H1E 5956   4.736   1.796   4.513
    1STR    H1F 5957   4.628   1.875   4.238
    1STR    H1G 5958   4.773   1.940   4.314
    1STR    H1H 5959   4.767   1.771   4.268
    1STR    H1I 5960   4.550   1.919   4.611
    1STR    H1J 5961   4.484   1.959   4.454
    1STR    H1K 5962   4.489   2.189   4.538
    1STR    H1M 5963   4.713   2.164   4.748
    1STR    H1N 5964   4.553   2.091   4.759
    1STR    H1O 5965   4.571   2.265   4.767
    1STR    H1P 5966   4.761   2.330   4.553
    1STR    H1Q 5967   4.669   2.313   4.407
    1STR    H1R 5968   4.734   2.583   4.545
    1STR    H1S 5969   4.671   2.675   4.317
    1STR    H1T 5970   4.541   2.557   4.308
    1STR    H1U 5971   4.710   2.505   4.309
    1STR    H1V 5972   4.543   2.691   4.664
    1STR    H1W 5973   4.443   2.680   4.522
    1STR    H1X 5974   4.684   3.017   4.489
    1STR    H1Y 5975   4.751   3.225   4.537
    1STR    H1Z 5976   4.752   3.460   4.474
    1STR    H20 5977   4.551   3.609   4.214
    1STR    H21 5978   4.537   3.667   4.381
    1STR    H22 5979   4.693   3.622   4.313
    1STR    H23 5980   4.328   3.372   4.162
    1STR    H27 5981   4.376   3.169   4.330
    1STR    H28 5982   4.777   1.331   4.456
    1STR    H29 5983   4.811   1.095   4.457
    1STR    H2A 5984   4.556   0.839   4.454
    1STR    H2B 5985   4.720   0.883   4.499
    1STR    H2C 5986   4.684   0.849   4.330
    1STR   BCK1 5987   4.228   0.858   8.602
    1STR    O03 5988   4.118   0.857   8.655
    1STR    N04 5989   4.289   0.971   8.559
    1STR    C05 5990   4.222   1.084   8.507
    1STR    C06 5991   4.254   1.220   8.542
    1STR    C07 5992   4.191   1.333   8.478
    1STR    N08 5993   4.227   1.468   8.506
    1STR    C09 5994   4.184   1.584   8.448
    1STR    O0A 5995   4.101   1.588   8.358
    1STR    O0B 5996   4.242   1.699   8.497
    1STR    C0C 5997   4.195   1.829   8.449
    1STR    C0D 5998   4.065   1.865   8.524
    1STR    C0E 5999   4.298   1.946   8.458
    1STR    O0F 6000   4.244   2.070   8.405
    1STR    C0G 6001   4.331   2.185   8.399
    1STR    C0H 6002   4.426   2.168   8.279
    1STR    C0I 6003   4.250   2.318   8.385
    1STR    O0J 6004   4.332   2.437   8.398
    1STR    C0K 6005   4.267   2.565   8.381
    1STR    C0M 6006   4.168   2.590   8.496
    1STR    C0N 6007   4.370   2.683   8.375
    1STR    O0O 6008   4.316   2.802   8.314
    1STR    C0P 6009   4.308   2.923   8.377
    1STR    O0Q 6010   4.339   2.946   8.493
    1STR    N0R 6011   4.255   3.013   8.292
    1STR    C0S 6012   4.196   3.140   8.308
    1STR    C0T 6013   4.081   3.159   8.230
    1STR    C0U 6014   4.002   3.274   8.244
    1STR    C0V 6015   4.040   3.376   8.332
    1STR    C0W 6016   3.934   3.482   8.362
    1STR    C0X 6017   4.165   3.371   8.398
    1STR    N0Y 6018   4.208   3.477   8.480
    1STR   BCK2 6019   4.204   3.612   8.471
    1STR    O10 6020   4.230   3.680   8.570
    1STR    C13 6021   4.240   3.248   8.390
    1STR    C14 6022   4.091   1.302   8.382
    1STR    C15 6023   4.062   1.171   8.344
    1STR    C16 6024   4.129   1.062   8.402
    1STR    C17 6025   4.102   0.924   8.344
    1STR    H1B 6026   4.387   0.963   8.541
    1STR    H1C 6027   4.329   1.237   8.618
    1STR    H1D 6028   4.294   1.485   8.579
    1STR    H1E 6029   4.171   1.819   8.343
    1STR    H1F 6030   4.083   1.879   8.630
    1STR    H1G 6031   4.023   1.958   8.485
    1STR    H1H 6032   3.989   1.788   8.511
    1STR    H1I 6033   4.387   1.917   8.402
    1STR    H1J 6034   4.329   1.960   8.561
    1STR    H1K 6035   4.389   2.191   8.491
    1STR    H1M 6036   4.370   2.154   8.186
    1STR    H1N 6037   4.492   2.083   8.290
    1STR    H1O 6038   4.488   2.256   8.266
    1STR    H1P 6039   4.197   2.319   8.290
    1STR    H1Q 6040   4.173   2.318   8.463
    1STR    H1R 6041   4.213   2.564   8.286
    1STR    H1S 6042   4.126   2.691   8.490
    1STR    H1T 6043   4.218   2.582   8.592
    1STR    H1U 6044   4.084   2.521   8.495
    1STR    H1V 6045   4.454   2.653   8.313
    1STR    H1W 6046   4.411   2.704   8.474
    1STR    H1X 6047   4.243   2.969   8.203
    1STR    H1Y 6048   4.046   3.082   8.163
    1STR    H1Z 6049   3.909   3.281   8.189
    1STR    H20 6050   3.952   3.531   8.457
    1STR    H21 6051   3.930   3.556   8.283
    1STR    H22 6052   3.836   3.435   8.369
    1STR    H23 6053   4.251   3.450   8.567
    1STR    H27 6054   4.331   3.236   8.447
    1STR    H28 6055   4.035   1.377   8.330
    1STR    H29 6056   3.989   1.154   8.267
    1STR    H2A 6057   4.195   0.869   8.331
    1STR    H2B 6058   4.055   0.931   8.246
    1STR    H2C 6059   4.035   0.867   8.409
    1STR   BCK1 6060   4.261   0.873  13.076
    1STR    O03 6061   4.353   0.811  13.128
    1STR    N04 6062   4.225   1.000  13.109
    1STR    C05 6063   4.264   1.088  13.213
    1STR    C06 6064   4.263   1.231  13.193
    1STR    C07 6065   4.292   1.327  13.296
    1STR    N08 6066   4.286   1.468  13.274
    1STR    C09 6067   4.284   1.571  13.363
    1STR    O0A 6068   4.286   1.557  13.485
    1STR    O0B 6069   4.279   1.697  13.304
    1STR    C0C 6070   4.285   1.818  13.385
    1STR    C0D 6071   4.432   1.846  13.423
    1STR    C0E 6072   4.221   1.944  13.316
    1STR    O0F 6073   4.230   2.067  13.393
    1STR    C0G 6074   4.163   2.184  13.339
    1STR    C0H 6075   4.012   2.170  13.364
    1STR    C0I 6076   4.214   2.319  13.399
    1STR    O0J 6077   4.162   2.436  13.330
    1STR    C0K 6078   4.197   2.568  13.377
    1STR    C0M 6079   4.348   2.591  13.362
    1STR    C0N 6080   4.120   2.680  13.300
    1STR    O0O 6081   4.148   2.813  13.349
    1STR    C0P 6082   4.142   2.924  13.267
    1STR    O0Q 6083   4.123   2.921  13.146
    1STR    N0R 6084   4.161   3.036  13.339
    1STR    C0S 6085   4.172   3.173  13.307
    1STR    C0T 6086   4.202   3.257  13.416
    1STR    C0U 6087   4.226   3.395  13.397
    1STR    C0V 6088   4.218   3.452  13.269
    1STR    C0W 6089   4.261   3.598  13.253
    1STR    C0X 6090   4.180   3.373  13.158
    1STR    N0Y 6091   4.174   3.432  13.031
    1STR   BCK2 6092   4.093   3.532  12.990
    1STR    O10 6093   3.971   3.526  13.003
    1STR    C13 6094   4.161   3.232  13.178
    1STR    C14 6095   4.329   1.274  13.422
    1STR    C15 6096   4.329   1.136  13.446
    1STR    C16 6097   4.294   1.043  13.346
    1STR    C17 6098   4.283   0.899  13.390
    1STR    H1B 6099   4.157   1.037  13.044
    1STR    H1C 6100   4.238   1.268  13.095
    1STR    H1D 6101   4.280   1.500  13.179
    1STR    H1E 6102   4.229   1.801  13.477
    1STR    H1F 6103   4.493   1.864  13.334
    1STR    H1G 6104   4.439   1.934  13.487
    1STR    H1H 6105   4.475   1.763  13.478
    1STR    H1I 6106   4.117   1.920  13.295
    1STR    H1J 6107   4.269   1.960  13.219
    1STR    H1K 6108   4.182   2.188  13.231
    1STR    H1M 6109   3.991   2.157  13.470
    1STR    H1N 6110   3.969   2.085  13.311
    1STR    H1O 6111   3.959   2.259  13.331
    1STR    H1P 6112   4.189   2.325  13.505
    1STR    H1Q 6113   4.323   2.320  13.394
    1STR    H1R 6114   4.170   2.576  13.483
    1STR    H1S 6115   4.375   2.693  13.391
    1STR    H1T 6116   4.380   2.577  13.259
    1STR    H1U 6117   4.407   2.525  13.425
    1STR    H1V 6118   4.013   2.664  13.308
    1STR    H1W 6119   4.144   2.674  13.193
    1STR    H1X 6120   4.169   3.012  13.436
    1STR    H1Y 6121   4.210   3.218  13.516
    1STR    H1Z 6122   4.253   3.455  13.482
    1STR    H20 6123   4.334   3.607  13.173
    1STR    H21 6124   4.175   3.661  13.229
    1STR    H22 6125   4.307   3.637  13.344
    1STR    H23 6126   4.217   3.381  12.955
    1STR    H27 6127   4.136   3.170  13.093
    1STR    H28 6128   4.357   1.337  13.504
    1STR    H29 6129   4.354   1.101  13.545
    1STR    H2A 6130   4.202   0.847  13.338
    1STR    H2B 6131   4.261   0.892  13.497
    1STR    H2C 6132   4.377   0.846  13.373
    1STR   BCK1 6133   4.315   5.243  17.281
    1STR    O03 6134   4.262   5.260  17.172
    1STR    N04 6135   4.388   5.338  17.344
    1STR    C05 6136   4.463   5.444  17.286
    1STR    C06 6137   4.446   5.584  17.316
    1STR    C07 6138   4.535   5.686  17.266
    1STR    N08 6139   4.522   5.825  17.298
    1STR    C09 6140   4.585   5.934  17.245
    1STR    O0A 6141   4.662   5.928  17.149
    1STR    O0B 6142   4.555   6.056  17.306
    1STR    C0C 6143   4.610   6.181  17.253
    1STR    C0D 6144   4.530   6.220  17.126
    1STR    C0E 6145   4.614   6.303  17.352
    1STR    O0F 6146   4.660   6.427  17.291
    1STR    C0G 6147   4.670   6.547  17.373
    1STR    C0H 6148   4.797   6.536   0.019
    1STR    C0I 6149   4.673   6.678  17.287
    1STR    O0J 6150   4.655   6.803  17.361
    1STR    C0K 6151   4.650   6.927  17.285
    1STR    C0M 6152   4.523   6.929  17.198
    1STR    C0N 6153   4.650   7.057  17.372
    1STR    O0O 6154   4.659   7.178  17.292
    1STR    C0P 6155   4.585   7.291  17.317
    1STR    O0Q 6156   4.495   7.301  17.400
    1STR    N0R 6157   4.628   7.392  17.240
    1STR    C0S 6158   4.596   7.529  17.226
    1STR    C0T 6159   4.703   7.611  17.185
    1STR    C0U 6160   4.685   7.749  17.163
    1STR    C0V 6161   4.559   7.810  17.179
    1STR    C0W 6162   4.556   7.960  17.161
    1STR    C0X 6163   4.446   7.732  17.217
    1STR    N0Y 6164   4.318   7.786  17.245
    1STR   BCK2 6165   4.235   7.889  17.214
    1STR    O10 6166   4.132   7.898  17.279
    1STR    C13 6167   4.469   7.592  17.242
    1STR    C14 6168   4.642   5.640  17.186
    1STR    C15 6169   4.662   5.504  17.158
    1STR    C16 6170   4.575   5.406  17.208
    1STR    C17 6171   4.610   5.260  17.183
    1STR    H1B 6172   4.411   5.315  17.439
    1STR    H1C 6173   4.363   5.612  17.379
    1STR    H1D 6174   4.457   5.850  17.370
    1STR    H1E 6175   4.713   6.162  17.222
    1STR    H1F 6176   4.426   6.240  17.150
    1STR    H1G 6177   4.572   6.309  17.080
    1STR    H1H 6178   4.534   6.141  17.051
    1STR    H1I 6179   4.679   6.277  17.436
    1STR    H1J 6180   4.514   6.319  17.394
    1STR    H1K 6181   4.582   6.552  17.438
    1STR    H1M 6182   4.886   6.523  17.397
    1STR    H1N 6183   4.793   6.453   0.089
    1STR    H1O 6184   4.812   6.627   0.078
    1STR    H1P 6185   4.766   6.683  17.230
    1STR    H1Q 6186   4.594   6.669  17.213
    1STR    H1R 6187   4.738   6.931  17.220
    1STR    H1S 6188   4.513   7.025  17.147
    1STR    H1T 6189   4.434   6.915  17.260
    1STR    H1U 6190   4.523   6.853  17.121
    1STR    H1V 6191   4.736   7.056  17.439
    1STR    H1W 6192   4.562   7.060  17.437
    1STR    H1X 6193   4.707   7.360  17.186
    1STR    H1Y 6194   4.802   7.570  17.172
    1STR    H1Z 6195   4.771   7.808  17.134
    1STR    H20 6196   4.521   7.984  17.061
    1STR    H21 6197   4.491   8.007  17.235
    1STR    H22 6198   4.654   8.005  17.172
    1STR    H23 6199   4.267   7.729  17.311
    1STR    H27 6200   4.387   7.529  17.274
    1STR    H28 6201   4.716   5.707  17.145
    1STR    H29 6202   4.747   5.476  17.098
    1STR    H2A 6203   4.608   5.204  17.277
    1STR    H2B 6204   4.709   5.249  17.140
    1STR    H2C 6205   4.537   5.216  17.115
    1STR   BCK1 6206   4.250   5.213   4.252
    1STR    O03 6207   4.351   5.157   4.291
    1STR    N04 6208   4.233   5.342   4.291
    1STR    C05 6209   4.131   5.439   4.296
    1STR    C06 6210   4.165   5.579   4.285
    1STR    C07 6211   4.070   5.685   4.305
    1STR    N08 6212   4.107   5.822   4.297
    1STR    C09 6213   4.032   5.935   4.312
    1STR    O0A 6214   3.912   5.935   4.337
    1STR    O0B 6215   4.103   6.053   4.297
    1STR    C0C 6216   4.036   6.181   4.315
    1STR    C0D 6217   4.023   6.212   4.466
    1STR    C0E 6218   4.105   6.301   4.242
    1STR    O0F 6219   4.031   6.425   4.256
    1STR    C0G 6220   4.079   6.541   4.184
    1STR    C0H 6221   4.045   6.525   4.035
    1STR    C0I 6222   4.018   6.673   4.240
    1STR    O0J 6223   4.073   6.792   4.179
    1STR    C0K 6224   4.020   6.920   4.221
    1STR    C0M 6225   4.061   6.948   4.366
    1STR    C0N 6226   4.068   7.038   4.130
    1STR    O0O 6227   3.992   7.158   4.154
    1STR    C0P 6228   4.047   7.282   4.147
    1STR    O0Q 6229   4.165   7.307   4.124
    1STR    N0R 6230   3.954   7.374   4.176
    1STR    C0S 6231   3.962   7.512   4.206
    1STR    C0T 6232   3.874   7.557   4.306
    1STR    C0U 6233   3.881   7.689   4.354
    1STR    C0V 6234   3.971   7.782   4.298
    1STR    C0W 6235   3.992   7.911   4.374
    1STR    C0X 6236   4.046   7.746   4.183
    1STR    N0Y 6237   4.127   7.837   4.112
    1STR   BCK2 6238   4.112   7.962   4.063
    1STR    O10 6239   4.199   8.007   3.989
    1STR    C13 6240   4.046   7.608   4.143
    1STR    C14 6241   3.938   5.645   4.336
    1STR    C15 6242   3.903   5.509   4.350
    1STR    C16 6243   3.998   5.407   4.333
    1STR    C17 6244   3.953   5.266   4.367
    1STR    H1B 6245   4.319   5.371   4.334
    1STR    H1C 6246   4.267   5.605   4.262
    1STR    H1D 6247   4.203   5.844   4.278
    1STR    H1E 6248   3.936   6.173   4.273
    1STR    H1F 6249   4.120   6.223   4.514
    1STR    H1G 6250   3.967   6.305   4.481
    1STR    H1H 6251   3.968   6.133   4.517
    1STR    H1I 6252   4.115   6.275   4.136
    1STR    H1J 6253   4.206   6.315   4.280
    1STR    H1K 6254   4.188   6.547   4.196
    1STR    H1M 6255   3.938   6.510   4.021
    1STR    H1N 6256   4.096   6.441   3.989
    1STR    H1O 6257   4.073   6.614   3.979
    1STR    H1P 6258   3.909   6.671   4.225
    1STR    H1Q 6259   4.034   6.675   4.347
    1STR    H1R 6260   3.911   6.915   4.214
    1STR    H1S 6261   4.030   7.048   4.397
    1STR    H1T 6262   4.170   6.944   4.377
    1STR    H1U 6263   4.017   6.879   4.437
    1STR    H1V 6264   4.054   7.011   4.025
    1STR    H1W 6265   4.174   7.055   4.143
    1STR    H1X 6266   3.865   7.330   4.189
    1STR    H1Y 6267   3.805   7.489   4.354
    1STR    H1Z 6268   3.819   7.718   4.437
    1STR    H20 6269   4.095   7.945   4.365
    1STR    H21 6270   3.925   7.990   4.340
    1STR    H22 6271   3.972   7.897   4.480
    1STR    H23 6272   4.215   7.799   4.079
    1STR    H27 6273   4.110   7.575   4.062
    1STR    H28 6274   3.859   5.715   4.353
    1STR    H29 6275   3.802   5.485   4.377
    1STR    H2A 6276   3.919   5.215   4.277
    1STR    H2B 6277   3.870   5.267   4.437
    1STR    H2C 6278   4.033   5.209   4.414
    1STR   BCK1 6279   4.356   5.236   8.678
    1STR    O03 6280   4.461   5.172   8.677
    1STR    N04 6281   4.342   5.361   8.732
    1STR    C05 6282   4.430   5.447   8.805
    1STR    C06 6283   4.414   5.591   8.798
    1STR    C07 6284   4.496   5.685   8.871
    1STR    N08 6285   4.474   5.827   8.867
    1STR    C09 6286   4.540   5.930   8.928
    1STR    O0A 6287   4.639   5.915   8.999
    1STR    O0B 6288   4.487   6.056   8.903
    1STR    C0C 6289   4.553   6.177   8.953
    1STR    C0D 6290   4.675   6.208   8.865
    1STR    C0E 6291   4.460   6.303   8.964
    1STR    O0F 6292   4.527   6.427   9.003
    1STR    C0G 6293   4.444   6.545   9.023
    1STR    C0H 6294   4.375   6.533   9.160
    1STR    C0I 6295   4.523   6.681   9.015
    1STR    O0J 6296   4.438   6.799   9.006
    1STR    C0K 6297   4.498   6.931   9.001
    1STR    C0M 6298   4.586   6.943   8.875
    1STR    C0N 6299   4.392   7.047   8.999
    1STR    O0O 6300   4.449   7.180   8.994
    1STR    C0P 6301   4.386   7.286   8.931
    1STR    O0Q 6302   4.285   7.278   8.862
    1STR    N0R 6303   4.453   7.400   8.956
    1STR    C0S 6304   4.442   7.537   8.918
    1STR    C0T 6305   4.530   7.622   8.988
    1STR    C0U 6306   4.542   7.757   8.954
    1STR    C0V 6307   4.467   7.814   8.850
    1STR    C0W 6308   4.503   7.956   8.809
    1STR    C0X 6309   4.369   7.735   8.782
    1STR    N0Y 6310   4.295   7.792   8.676
    1STR   BCK2 6311   4.233   7.913   8.666
    1STR    O10 6312   4.210   7.987   8.761
    1STR    C13 6313   4.360   7.596   8.816
    1STR    C14 6314   4.599   5.629   8.949
    1STR    C15 6315   4.615   5.490   8.961
    1STR    C16 6316   4.530   5.399   8.895
    1STR    C17 6317   4.549   5.253   8.932
    1STR    H1B 6318   4.251   5.399   8.713
    1STR    H1C 6319   4.336   5.630   8.734
    1STR    H1D 6320   4.398   5.860   8.811
    1STR    H1E 6321   4.589   6.155   9.054
    1STR    H1F 6322   4.646   6.230   8.763
    1STR    H1G 6323   4.729   6.295   8.903
    1STR    H1H 6324   4.746   6.125   8.864
    1STR    H1I 6325   4.381   6.280   9.036
    1STR    H1J 6326   4.411   6.319   8.868
    1STR    H1K 6327   4.369   6.548   8.944
    1STR    H1M 6328   4.448   6.521   9.240
    1STR    H1N 6329   4.306   6.449   9.165
    1STR    H1O 6330   4.317   6.623   9.182
    1STR    H1P 6331   4.590   6.690   9.101
    1STR    H1Q 6332   4.588   6.676   8.927
    1STR    H1R 6333   4.561   6.944   9.089
    1STR    H1S 6334   4.627   7.044   8.866
    1STR    H1T 6335   4.528   6.924   8.785
    1STR    H1U 6336   4.671   6.875   8.876
    1STR    H1V 6337   4.331   7.041   9.089
    1STR    H1W 6338   4.323   7.033   8.916
    1STR    H1X 6339   4.528   7.379   9.019
    1STR    H1Y 6340   4.592   7.585   9.068
    1STR    H1Z 6341   4.614   7.818   9.008
    1STR    H20 6342   4.493   7.970   8.701
    1STR    H21 6343   4.438   8.028   8.859
    1STR    H22 6344   4.606   7.980   8.834
    1STR    H23 6345   4.289   7.737   8.592
    1STR    H27 6346   4.291   7.532   8.763
    1STR    H28 6347   4.668   5.689   9.006
    1STR    H29 6348   4.693   5.453   9.026
    1STR    H2A 6349   4.454   5.200   8.932
    1STR    H2B 6350   4.591   5.243   9.032
    1STR    H2C 6351   4.618   5.205   8.863
    1STR   BCK1 6352   4.233   5.231  12.931
    1STR    O03 6353   4.117   5.245  12.893
    1STR    N04 6354   4.323   5.332  12.934
    1STR    C05 6355   4.323   5.443  12.847
    1STR    C06 6356   4.331   5.580  12.890
    1STR    C07 6357   4.340   5.689  12.797
    1STR    N08 6358   4.353   5.825  12.837
    1STR    C09 6359   4.340   5.939  12.764
    1STR    O0A 6360   4.302   5.940  12.647
    1STR    O0B 6361   4.374   6.056  12.830
    1STR    C0C 6362   4.362   6.184  12.762
    1STR    C0D 6363   4.213   6.225  12.756
    1STR    C0E 6364   4.447   6.300  12.822
    1STR    O0F 6365   4.429   6.424  12.749
    1STR    C0G 6366   4.503   6.540  12.792
    1STR    C0H 6367   4.648   6.528  12.744
    1STR    C0I 6368   4.437   6.670  12.736
    1STR    O0J 6369   4.488   6.794  12.793
    1STR    C0K 6370   4.426   6.916  12.747
    1STR    C0M 6371   4.281   6.924  12.798
    1STR    C0N 6372   4.500   7.046  12.791
    1STR    O0O 6373   4.445   7.159  12.721
    1STR    C0P 6374   4.433   7.284  12.776
    1STR    O0Q 6375   4.455   7.313  12.893
    1STR    N0R 6376   4.398   7.370  12.680
    1STR    C0S 6377   4.388   7.510  12.671
    1STR    C0T 6378   4.453   7.567  12.561
    1STR    C0U 6379   4.446   7.705  12.536
    1STR    C0V 6380   4.372   7.790  12.620
    1STR    C0W 6381   4.385   7.938  12.589
    1STR    C0X 6382   4.297   7.737  12.729
    1STR    N0Y 6383   4.219   7.816  12.818
    1STR   BCK2 6384   4.145   7.930  12.821
    1STR    O10 6385   4.100   7.965  12.929
    1STR    C13 6386   4.311   7.596  12.755
    1STR    C14 6387   4.341   5.655  12.660
    1STR    C15 6388   4.336   5.521  12.616
    1STR    C16 6389   4.330   5.416  12.708
    1STR    C17 6390   4.339   5.274  12.654
    1STR    H1B 6391   4.407   5.313  12.986
    1STR    H1C 6392   4.329   5.600  12.996
    1STR    H1D 6393   4.374   5.844  12.934
    1STR    H1E 6394   4.397   6.170  12.659
    1STR    H1F 6395   4.172   6.241  12.855
    1STR    H1G 6396   4.201   6.317  12.699
    1STR    H1H 6397   4.153   6.149  12.706
    1STR    H1I 6398   4.552   6.271  12.821
    1STR    H1J 6399   4.419   6.316  12.927
    1STR    H1K 6400   4.500   6.546  12.901
    1STR    H1M 6401   4.653   6.515  12.635
    1STR    H1N 6402   4.700   6.443  12.789
    1STR    H1O 6403   4.705   6.618  12.768
    1STR    H1P 6404   4.447   6.673  12.627
    1STR    H1Q 6405   4.330   6.662  12.756
    1STR    H1R 6406   4.426   6.915  12.637
    1STR    H1S 6407   4.236   7.020  12.773
    1STR    H1T 6408   4.279   6.915  12.907
    1STR    H1U 6409   4.216   6.848  12.756
    1STR    H1V 6410   4.606   7.039  12.766
    1STR    H1W 6411   4.495   7.060  12.899
    1STR    H1X 6412   4.391   7.321  12.592
    1STR    H1Y 6413   4.513   7.506  12.495
    1STR    H1Z 6414   4.501   7.745  12.453
    1STR    H20 6415   4.305   7.968  12.520
    1STR    H21 6416   4.381   7.998  12.680
    1STR    H22 6417   4.479   7.961  12.540
    1STR    H23 6418   4.213   7.775  12.910
    1STR    H27 6419   4.260   7.552  12.839
    1STR    H28 6420   4.349   5.728  12.582
    1STR    H29 6421   4.339   5.501  12.510
    1STR    H2A 6422   4.410   5.215  12.711
    1STR    H2B 6423   4.372   5.272  12.550
    1STR    H2C 6424   4.241   5.226  12.659
    1STR   BCK1 6425   4.210   9.582  17.402
    1STR    O03 6426   4.279   9.524   0.045
    1STR    N04 6427   4.169   9.711  17.413
    1STR    C05 6428   4.170   9.804   0.081
    1STR    C06 6429   4.184   9.945   0.057
    1STR    C07 6430   4.171  10.045   0.159
    1STR    N08 6431   4.179  10.185   0.133
    1STR    C09 6432   4.135  10.290   0.207
    1STR    O0A 6433   4.073  10.279   0.312
    1STR    O0B 6434   4.164  10.414   0.152
    1STR    C0C 6435   4.130  10.538   0.222
    1STR    C0D 6436   4.236  10.566   0.330
    1STR    C0E 6437   4.113  10.661   0.128
    1STR    O0F 6438   4.078  10.784   0.197
    1STR    C0G 6439   4.051  10.901   0.115
    1STR    C0H 6440   3.911  10.886   0.053
    1STR    C0I 6441   4.059  11.036   0.196
    1STR    O0J 6442   4.048  11.153   0.111
    1STR    C0K 6443   4.050  11.284   0.174
    1STR    C0M 6444   4.188  11.310   0.235
    1STR    C0N 6445   4.016  11.398   0.072
    1STR    O0O 6446   4.004  11.528   0.135
    1STR    C0P 6447   4.029  11.644   0.067
    1STR    O0Q 6448   4.070  11.650  17.391
    1STR    N0R 6449   4.006  11.750   0.145
    1STR    C0S 6450   4.026  11.889   0.131
    1STR    C0T 6451   4.021  11.965   0.250
    1STR    C0U 6452   4.051  12.102   0.250
    1STR    C0V 6453   4.084  12.170   0.130
    1STR    C0W 6454   4.137  12.311   0.146
    1STR    C0X 6455   4.076  12.102   0.006
    1STR    N0Y 6456   4.104  12.160  17.320
    1STR   BCK2 6457   4.084  12.275  17.252
    1STR    O10 6458   4.117  12.278  17.134
    1STR    C13 6459   4.052  11.960   0.009
    1STR    C14 6460   4.149   9.997   0.291
    1STR    C15 6461   4.134   9.861   0.317
    1STR    C16 6462   4.140   9.764   0.215
    1STR    C17 6463   4.107   9.622   0.255
    1STR    H1B 6464   4.130   9.745  17.327
    1STR    H1C 6465   4.204   9.978  17.396
    1STR    H1D 6466   4.224  10.214   0.048
    1STR    H1E 6467   4.034  10.522   0.272
    1STR    H1F 6468   4.334  10.582   0.287
    1STR    H1G 6469   4.210  10.655   0.387
    1STR    H1H 6470   4.243  10.484   0.401
    1STR    H1I 6471   4.036  10.637   0.055
    1STR    H1J 6472   4.205  10.677   0.072
    1STR    H1K 6473   4.126  10.907   0.036
    1STR    H1M 6474   3.835  10.872   0.130
    1STR    H1N 6475   3.905  10.802  17.425
    1STR    H1O 6476   3.884  10.975  17.437
    1STR    H1P 6477   3.981  11.037   0.272
    1STR    H1Q 6478   4.154  11.037   0.249
    1STR    H1R 6479   3.974  11.286   0.252
    1STR    H1S 6480   4.194  11.411   0.276
    1STR    H1T 6481   4.267  11.300   0.160
    1STR    H1U 6482   4.211  11.242   0.317
    1STR    H1V 6483   3.922  11.377   0.022
    1STR    H1W 6484   4.092  11.402  17.433
    1STR    H1X 6485   3.971  11.719   0.234
    1STR    H1Y 6486   4.000  11.917   0.344
    1STR    H1Z 6487   4.053  12.154   0.344
    1STR    H20 6488   4.222  12.328   0.079
    1STR    H21 6489   4.060  12.385   0.127
    1STR    H22 6490   4.172  12.329   0.247
    1STR    H23 6491   4.145  12.095  17.255
    1STR    H27 6492   4.053  11.904  17.357
    1STR    H28 6493   4.142  10.065   0.375
    1STR    H29 6494   4.113   9.830   0.419
    1STR    H2A 6495   4.053   9.569   0.176
    1STR    H2B 6496   4.044   9.619   0.343
    1STR    H2C 6497   4.199   9.567   0.278
    1STR   BCK1 6498   4.363   9.602   4.214
    1STR    O03 6499   4.448   9.546   4.146
    1STR    N04 6500   4.379   9.722   4.276
    1STR    C05 6501   4.490   9.811   4.288
    1STR    C06 6502   4.470   9.954   4.299
    1STR    C07 6503   4.578  10.049   4.311
    1STR    N08 6504   4.556  10.189   4.329
    1STR    C09 6505   4.643  10.294   4.321
    1STR    O0A 6506   4.760  10.283   4.286
    1STR    O0B 6507   4.589  10.419   4.354
    1STR    C0C 6508   4.667  10.541   4.338
    1STR    C0D 6509   4.671  10.578   4.189
    1STR    C0E 6510   4.618  10.665   4.422
    1STR    O0F 6511   4.689  10.789   4.394
    1STR    C0G 6512   4.653  10.908   4.470
    1STR    C0H 6513   4.716  10.898   4.610
    1STR    C0I 6514   4.699  11.042   4.399
    1STR    O0J 6515   4.641  11.164   4.454
    1STR    C0K 6516   4.676  11.291   4.391
    1STR    C0M 6517   4.623  11.294   4.247
    1STR    C0N 6518   4.619  11.417   4.466
    1STR    O0O 6519   4.658  11.543   4.405
    1STR    C0P 6520   4.574  11.652   4.395
    1STR    O0Q 6521   4.456  11.653   4.425
    1STR    N0R 6522   4.642  11.759   4.350
    1STR    C0S 6523   4.612  11.895   4.320
    1STR    C0T 6524   4.723  11.981   4.313
    1STR    C0U 6525   4.708  12.116   4.280
    1STR    C0V 6526   4.581  12.172   4.253
    1STR    C0W 6527   4.579  12.321   4.224
    1STR    C0X 6528   4.464  12.091   4.259
    1STR    N0Y 6529   4.331  12.139   4.247
    1STR   BCK2 6530   4.255  12.241   4.198
    1STR    O10 6531   4.136  12.240   4.229
    1STR    C13 6532   4.483  11.952   4.295
    1STR    C14 6533   4.708   9.995   4.311
    1STR    C15 6534   4.731   9.857   4.305
    1STR    C16 6535   4.625   9.765   4.299
    1STR    C17 6536   4.664   9.619   4.313
    1STR    H1B 6537   4.294   9.754   4.319
    1STR    H1C 6538   4.369   9.991   4.297
    1STR    H1D 6539   4.463  10.220   4.352
    1STR    H1E 6540   4.770  10.520   4.370
    1STR    H1F 6541   4.572  10.599   4.150
    1STR    H1G 6542   4.733  10.666   4.172
    1STR    H1H 6543   4.714  10.497   4.129
    1STR    H1I 6544   4.628  10.640   4.528
    1STR    H1J 6545   4.511  10.681   4.404
    1STR    H1K 6546   4.545  10.912   4.479
    1STR    H1M 6547   4.825  10.885   4.603
    1STR    H1N 6548   4.677  10.814   4.667
    1STR    H1O 6549   4.697  10.988   4.668
    1STR    H1P 6550   4.808  11.048   4.401
    1STR    H1Q 6551   4.671  11.033   4.295
    1STR    H1R 6552   4.785  11.300   4.390
    1STR    H1S 6553   4.641  11.391   4.201
    1STR    H1T 6554   4.515  11.276   4.245
    1STR    H1U 6555   4.671  11.220   4.183
    1STR    H1V 6556   4.655  11.418   4.569
    1STR    H1W 6557   4.510  11.411   4.473
    1STR    H1X 6558   4.739  11.734   4.339
    1STR    H1Y 6559   4.822  11.944   4.333
    1STR    H1Z 6560   4.796  12.178   4.277
    1STR    H20 6561   4.564  12.336   4.118
    1STR    H21 6562   4.501  12.370   4.281
    1STR    H22 6563   4.673  12.369   4.250
    1STR    H23 6564   4.266  12.077   4.291
    1STR    H27 6565   4.397  11.887   4.302
    1STR    H28 6566   4.796  10.058   4.319
    1STR    H29 6567   4.833   9.822   4.309
    1STR    H2A 6568   4.587   9.562   4.364
    1STR    H2B 6569   4.755   9.608   4.371
    1STR    H2C 6570   4.682   9.575   4.215
    1STR   BCK1 6571   4.233   9.574   8.605
    1STR    O03 6572   4.158   9.556   8.701
    1STR    N04 6573   4.258   9.696   8.551
    1STR    C05 6574   4.170   9.806   8.548
    1STR    C06 6575   4.214   9.942   8.567
    1STR    C07 6576   4.126  10.054   8.549
    1STR    N08 6577   4.169  10.189   8.561
    1STR    C09 6578   4.111  10.302   8.512
    1STR    O0A 6579   4.009  10.301   8.443
    1STR    O0B 6580   4.175  10.419   8.546
    1STR    C0C 6581   4.112  10.547   8.517
    1STR    C0D 6582   4.015  10.581   8.632
    1STR    C0E 6583   4.211  10.665   8.492
    1STR    O0F 6584   4.141  10.788   8.461
    1STR    C0G 6585   4.220  10.903   8.424
    1STR    C0H 6586   4.269  10.886   8.280
    1STR    C0I 6587   4.137  11.035   8.438
    1STR    O0J 6588   4.217  11.155   8.417
    1STR    C0K 6589   4.148  11.282   8.422
    1STR    C0M 6590   4.103  11.311   8.566
    1STR    C0N 6591   4.238  11.399   8.372
    1STR    O0O 6592   4.162  11.517   8.339
    1STR    C0P 6593   4.192  11.641   8.388
    1STR    O0Q 6594   4.281  11.667   8.468
    1STR    N0R 6595   4.103  11.730   8.341
    1STR    C0S 6596   4.070  11.861   8.381
    1STR    C0T 6597   3.933  11.883   8.404
    1STR    C0U 6598   3.887  12.006   8.453
    1STR    C0V 6599   3.976  12.112   8.476
    1STR    C0W 6600   3.925  12.232   8.555
    1STR    C0X 6601   4.113  12.100   8.440
    1STR    N0Y 6602   4.201  12.207   8.460
    1STR   BCK2 6603   4.197  12.338   8.427
    1STR    O10 6604   4.275  12.415   8.481
    1STR    C13 6605   4.160  11.971   8.398
    1STR    C14 6606   3.991  10.024   8.517
    1STR    C15 6607   3.948   9.893   8.494
    1STR    C16 6608   4.036   9.785   8.505
    1STR    C17 6609   3.984   9.648   8.461
    1STR    H1B 6610   4.340   9.700   8.493
    1STR    H1C 6611   4.316   9.959   8.596
    1STR    H1D 6612   4.255  10.207   8.610
    1STR    H1E 6613   4.053  10.538   8.426
    1STR    H1F 6614   4.068  10.594   8.727
    1STR    H1G 6615   3.961  10.673   8.612
    1STR    H1H 6616   3.941  10.502   8.646
    1STR    H1I 6617   4.277  10.637   8.410
    1STR    H1J 6618   4.274  10.680   8.580
    1STR    H1K 6619   4.305  10.911   8.492
    1STR    H1M 6620   4.186  10.871   8.211
    1STR    H1N 6621   4.337  10.801   8.269
    1STR    H1O 6622   4.323  10.975   8.247
    1STR    H1P 6623   4.054  11.033   8.367
    1STR    H1Q 6624   4.093  11.038   8.538
    1STR    H1R 6625   4.061  11.277   8.357
    1STR    H1S 6626   4.060  11.411   8.574
    1STR    H1T 6627   4.187  11.306   8.635
    1STR    H1U 6628   4.027  11.241   8.601
    1STR    H1V 6629   4.289  11.369   8.280
    1STR    H1W 6630   4.317  11.421   8.444
    1STR    H1X 6631   4.041  11.686   8.276
    1STR    H1Y 6632   3.862  11.804   8.389
    1STR    H1Z 6633   3.783  12.017   8.477
    1STR    H20 6634   3.997  12.260   8.632
    1STR    H21 6635   3.907  12.318   8.491
    1STR    H22 6636   3.831  12.209   8.605
    1STR    H23 6637   4.284  12.186   8.514
    1STR    H27 6638   4.265  11.955   8.379
    1STR    H28 6639   3.916  10.101   8.507
    1STR    H29 6640   3.845   9.876   8.465
    1STR    H2A 6641   4.059   9.595   8.403
    1STR    H2B 6642   3.896   9.657   8.399
    1STR    H2C 6643   3.958   9.588   8.548
    1STR   BCK1 6644   4.299   9.591  13.074
    1STR    O03 6645   4.398   9.527  13.107
    1STR    N04 6646   4.271   9.718  13.117
    1STR    C05 6647   4.331   9.805  13.212
    1STR    C06 6648   4.323   9.948  13.196
    1STR    C07 6649   4.375  10.043  13.291
    1STR    N08 6650   4.361  10.185  13.275
    1STR    C09 6651   4.388  10.288  13.361
    1STR    O0A 6652   4.431  10.272  13.475
    1STR    O0B 6653   4.361  10.414  13.310
    1STR    C0C 6654   4.394  10.535  13.386
    1STR    C0D 6655   4.544  10.564  13.374
    1STR    C0E 6656   4.310  10.662  13.344
    1STR    O0F 6657   4.346  10.785  13.413
    1STR    C0G 6658   4.265  10.903  13.386
    1STR    C0H 6659   4.132  10.889  13.464
    1STR    C0I 6660   4.334  11.039  13.424
    1STR    O0J 6661   4.262  11.155  13.374
    1STR    C0K 6662   4.312  11.288  13.404
    1STR    C0M 6663   4.451  11.308  13.341
    1STR    C0N 6664   4.215  11.401  13.351
    1STR    O0O 6665   4.259  11.535  13.382
    1STR    C0P 6666   4.228  11.643  13.302
    1STR    O0Q 6667   4.170  11.637  13.194
    1STR    N0R 6668   4.271  11.757  13.360
    1STR    C0S 6669   4.276  11.894  13.324
    1STR    C0T 6670   4.341  11.976  13.419
    1STR    C0U 6671   4.365  12.111  13.394
    1STR    C0V 6672   4.324  12.171  13.274
    1STR    C0W 6673   4.372  12.314  13.248
    1STR    C0X 6674   4.248  12.097  13.179
    1STR    N0Y 6675   4.206  12.159  13.059
    1STR   BCK2 6676   4.146  12.280  13.040
    1STR    O10 6677   4.099  12.349  13.130
    1STR    C13 6678   4.228  11.957  13.205
    1STR    C14 6679   4.442   9.989  13.403
    1STR    C15 6680   4.449   9.850  13.423
    1STR    C16 6681   4.392   9.759  13.333
    1STR    C17 6682   4.393   9.613  13.377
    1STR    H1B 6683   4.192   9.756  13.068
    1STR    H1C 6684   4.275   9.987  13.108
    1STR    H1D 6685   4.325  10.218  13.188
    1STR    H1E 6686   4.371  10.516  13.491
    1STR    H1F 6687   4.574  10.583  13.271
    1STR    H1G 6688   4.572  10.651  13.434
    1STR    H1H 6689   4.604  10.480  13.411
    1STR    H1I 6690   4.205  10.639  13.361
    1STR    H1J 6691   4.322  10.678  13.237
    1STR    H1K 6692   4.244  10.906  13.279
    1STR    H1M 6693   4.150  10.877  13.570
    1STR    H1N 6694   4.073  10.805  13.430
    1STR    H1O 6695   4.071  10.979  13.451
    1STR    H1P 6696   4.346  11.046  13.532
    1STR    H1Q 6697   4.435  11.037  13.382
    1STR    H1R 6698   4.320  11.298  13.513
    1STR    H1S 6699   4.486  11.410  13.358
    1STR    H1T 6700   4.447  11.292  13.234
    1STR    H1U 6701   4.526  11.241  13.384
    1STR    H1V 6702   4.116  11.388  13.396
    1STR    H1W 6703   4.201  11.390  13.244
    1STR    H1X 6704   4.310  11.734  13.449
    1STR    H1Y 6705   4.376  11.935  13.513
    1STR    H1Z 6706   4.419  12.169  13.468
    1STR    H20 6707   4.394  12.329  13.143
    1STR    H21 6708   4.297  12.386  13.280
    1STR    H22 6709   4.464  12.335  13.303
    1STR    H23 6710   4.223  12.108  12.974
    1STR    H27 6711   4.176  11.896  13.132
    1STR    H28 6712   4.488  10.050  13.478
    1STR    H29 6713   4.497   9.814  13.513
    1STR    H2A 6714   4.303   9.561  13.345
    1STR    H2B 6715   4.398   9.605  13.486
    1STR    H2C 6716   4.481   9.563  13.337
    1STR   BCK1 6717   4.282  13.958  17.271
    1STR    O03 6718   4.206  13.971  17.176
    1STR    N04 6719   4.364  14.056  17.316
    1STR    C05 6720   4.418  14.163  17.241
    1STR    C06 6721   4.408  14.302  17.278
    1STR    C07 6722   4.475  14.407  17.204
    1STR    N08 6723   4.470  14.545  17.241
    1STR    C09 6724   4.507  14.656  17.171
    1STR    O0A 6725   4.544  14.653  17.054
    1STR    O0B 6726   4.500  14.776  17.241
    1STR    C0C 6727   4.531  14.902  17.174
    1STR    C0D 6728   4.412  14.942  17.086
    1STR    C0E 6729   4.570  15.022  17.268
    1STR    O0F 6730   4.593  15.146  17.196
    1STR    C0G 6731   4.631  15.265  17.270
    1STR    C0H 6732   4.779  15.254  17.308
    1STR    C0I 6733   4.605  15.395  17.187
    1STR    O0J 6734   4.616  15.520  17.261
    1STR    C0K 6735   4.585  15.643  17.190
    1STR    C0M 6736   4.435  15.647  17.156
    1STR    C0N 6737   4.620  15.774  17.268
    1STR    O0O 6738   4.606  15.891  17.185
    1STR    C0P 6739   4.547  16.008  17.227
    1STR    O0Q 6740   4.488  16.024  17.334
    1STR    N0R 6741   4.568  16.105  17.137
    1STR    C0S 6742   4.541  16.243  17.130
    1STR    C0T 6743   4.639  16.321  17.066
    1STR    C0U 6744   4.624  16.459  17.050
    1STR    C0V 6745   4.508  16.526  17.095
    1STR    C0W 6746   4.510  16.677  17.084
    1STR    C0X 6747   4.402  16.452  17.155
    1STR    N0Y 6748   4.286  16.512  17.209
    1STR   BCK2 6749   4.202  16.617  17.189
    1STR    O10 6750   4.116  16.637  17.274
    1STR    C13 6751   4.423  16.311  17.175
    1STR    C14 6752   4.553  14.365  17.094
    1STR    C15 6753   4.565  14.230  17.058
    1STR    C16 6754   4.501  14.129  17.131
    1STR    C17 6755   4.530  13.985  17.094
    1STR    H1B 6756   4.407  14.037  17.405
    1STR    H1C 6757   4.348  14.328  17.364
    1STR    H1D 6758   4.434  14.568  17.332
    1STR    H1E 6759   4.617  14.885  17.109
    1STR    H1F 6760   4.322  14.961  17.145
    1STR    H1G 6761   4.434  15.033  17.029
    1STR    H1H 6762   4.388  14.864  17.013
    1STR    H1I 6763   4.660  14.995  17.324
    1STR    H1J 6764   4.491  15.038  17.342
    1STR    H1K 6765   4.570  15.271  17.360
    1STR    H1M 6766   4.842  15.240  17.220
    1STR    H1N 6767   4.799  15.170  17.375
    1STR    H1O 6768   4.813  15.344  17.359
    1STR    H1P 6769   4.673  15.398  17.101
    1STR    H1Q 6770   4.505  15.386  17.145
    1STR    H1R 6771   4.643  15.644  17.097
    1STR    H1S 6772   4.408  15.743  17.111
    1STR    H1T 6773   4.375  15.637  17.246
    1STR    H1U 6774   4.405  15.570  17.085
    1STR    H1V 6775   4.724  15.770  17.302
    1STR    H1W 6776   4.560  15.783  17.359
    1STR    H1X 6777   4.624  16.068  17.062
    1STR    H1Y 6778   4.731  16.275  17.031
    1STR    H1Z 6779   4.704  16.515  17.004
    1STR    H20 6780   4.464  16.707  16.990
    1STR    H21 6781   4.458  16.723  17.167
    1STR    H22 6782   4.611  16.716  17.084
    1STR    H23 6783   4.250  16.461  17.289
    1STR    H27 6784   4.347  16.251  17.224
    1STR    H28 6785   4.608  14.435  17.033
    1STR    H29 6786   4.628  14.204  16.974
    1STR    H2A 6787   4.555  13.927  17.183
    1STR    H2B 6788   4.614  13.976  17.025
    1STR    H2C 6789   4.442  13.940  17.047
    1STR   BCK1 6790   4.244  13.938   4.264
    1STR    O03 6791   4.354  13.885   4.270
    1STR    N04 6792   4.235  14.065   4.312
    1STR    C05 6793   4.138  14.158   4.354
    1STR    C06 6794   4.162  14.299   4.337
    1STR    C07 6795   4.078  14.400   4.394
    1STR    N08 6796   4.106  14.539   4.378
    1STR    C09 6797   4.039  14.649   4.421
    1STR    O0A 6798   3.935  14.645   4.486
    1STR    O0B 6799   4.098  14.769   4.386
    1STR    C0C 6800   4.039  14.896   4.428
    1STR    C0D 6801   4.077  14.925   4.574
    1STR    C0E 6802   4.078  15.016   4.336
    1STR    O0F 6803   4.013  15.140   4.375
    1STR    C0G 6804   4.035  15.256   4.292
    1STR    C0H 6805   3.952  15.241   4.163
    1STR    C0I 6806   3.997  15.388   4.365
    1STR    O0J 6807   4.031  15.506   4.287
    1STR    C0K 6808   3.997  15.635   4.342
    1STR    C0M 6809   4.084  15.664   4.465
    1STR    C0N 6810   4.015  15.749   4.237
    1STR    O0O 6811   3.962  15.873   4.285
    1STR    C0P 6812   4.013  15.994   4.249
    1STR    O0Q 6813   4.109  16.012   4.174
    1STR    N0R 6814   3.946  16.091   4.312
    1STR    C0S 6815   3.966  16.229   4.329
    1STR    C0T 6816   3.921  16.279   4.452
    1STR    C0U 6817   3.935  16.415   4.483
    1STR    C0V 6818   3.988  16.506   4.391
    1STR    C0W 6819   3.997  16.650   4.441
    1STR    C0X 6820   4.027  16.463   4.260
    1STR    N0Y 6821   4.054  16.550   4.152
    1STR   BCK2 6822   4.090  16.680   4.139
    1STR    O10 6823   4.141  16.750   4.225
    1STR    C13 6824   4.019  16.322   4.233
    1STR    C14 6825   3.968  14.354   4.470
    1STR    C15 6826   3.943  14.218   4.489
    1STR    C16 6827   4.028  14.119   4.435
    1STR    C17 6828   4.002  13.975   4.474
    1STR    H1B 6829   4.330  14.096   4.329
    1STR    H1C 6830   4.248  14.329   4.280
    1STR    H1D 6831   4.189  14.564   4.327
    1STR    H1E 6832   3.931  14.886   4.422
    1STR    H1F 6833   4.185  14.937   4.586
    1STR    H1G 6834   4.030  15.017   4.608
    1STR    H1H 6835   4.045  14.845   4.640
    1STR    H1I 6836   4.051  14.991   4.234
    1STR    H1J 6837   4.186  15.030   4.337
    1STR    H1K 6838   4.141  15.262   4.267
    1STR    H1M 6839   3.846  15.227   4.186
    1STR    H1N 6840   3.984  15.157   4.102
    1STR    H1O 6841   3.960  15.331   4.101
    1STR    H1P 6842   3.890  15.388   4.388
    1STR    H1Q 6843   4.049  15.390   4.461
    1STR    H1R 6844   3.891  15.633   4.371
    1STR    H1S 6845   4.065  15.765   4.503
    1STR    H1T 6846   4.190  15.659   4.440
    1STR    H1U 6847   4.065  15.596   4.548
    1STR    H1V 6848   3.963  15.724   4.145
    1STR    H1W 6849   4.120  15.760   4.211
    1STR    H1X 6850   3.872  16.050   4.366
    1STR    H1Y 6851   3.878  16.214   4.526
    1STR    H1Z 6852   3.902  16.449   4.580
    1STR    H20 6853   4.102  16.678   4.450
    1STR    H21 6854   3.946  16.718   4.374
    1STR    H22 6855   3.953  16.662   4.539
    1STR    H23 6856   4.038  16.509   4.061
    1STR    H27 6857   4.050  16.283   4.138
    1STR    H28 6858   3.899  14.422   4.518
    1STR    H29 6859   3.860  14.189   4.551
    1STR    H2A 6860   3.947  13.924   4.395
    1STR    H2B 6861   3.942  13.969   4.565
    1STR    H2C 6862   4.095  13.922   4.494
    1STR   BCK1 6863   4.374  13.958   8.640
    1STR    O03 6864   4.476  13.896   8.616
    1STR    N04 6865   4.370  14.081   8.698
    1STR    C05 6866   4.471  14.168   8.751
    1STR    C06 6867   4.452  14.312   8.750
    1STR    C07 6868   4.548  14.406   8.804
    1STR    N08 6869   4.524  14.547   8.808
    1STR    C09 6870   4.606  14.651   8.845
    1STR    O0A 6871   4.723  14.637   8.878
    1STR    O0B 6872   4.546  14.777   8.842
    1STR    C0C 6873   4.624  14.898   8.869
    1STR    C0D 6874   4.709  14.931   8.746
    1STR    C0E 6875   4.538  15.023   8.912
    1STR    O0F 6876   4.614  15.147   8.926
    1STR    C0G 6877   4.544  15.266   8.972
    1STR    C0H 6878   4.525  15.255   9.125
    1STR    C0I 6879   4.616  15.401   8.937
    1STR    O0J 6880   4.534  15.520   8.955
    1STR    C0K 6881   4.591  15.651   8.925
    1STR    C0M 6882   4.631  15.659   8.777
    1STR    C0N 6883   4.493  15.770   8.956
    1STR    O0O 6884   4.548  15.902   8.928
    1STR    C0P 6885   4.472  16.008   8.883
    1STR    O0Q 6886   4.355  16.001   8.847
    1STR    N0R 6887   4.544  16.121   8.884
    1STR    C0S 6888   4.525  16.257   8.850
    1STR    C0T 6889   4.624  16.343   8.902
    1STR    C0U 6890   4.629  16.478   8.867
    1STR    C0V 6891   4.536  16.534   8.777
    1STR    C0W 6892   4.563  16.676   8.730
    1STR    C0X 6893   4.428  16.455   8.728
    1STR    N0Y 6894   4.337  16.511   8.635
    1STR   BCK2 6895   4.275  16.632   8.633
    1STR    O10 6896   4.267  16.707   8.730
    1STR    C13 6897   4.426  16.315   8.764
    1STR    C14 6898   4.666  14.350   8.857
    1STR    C15 6899   4.686  14.211   8.863
    1STR    C16 6900   4.589  14.121   8.816
    1STR    C17 6901   4.617  13.974   8.846
    1STR    H1B 6902   4.277  14.118   8.701
    1STR    H1C 6903   4.362  14.351   8.707
    1STR    H1D 6904   4.434  14.580   8.780
    1STR    H1E 6905   4.692  14.876   8.952
    1STR    H1F 6906   4.646  14.953   8.659
    1STR    H1G 6907   4.772  15.018   8.764
    1STR    H1H 6908   4.775  14.849   8.719
    1STR    H1I 6909   4.489  15.000   9.007
    1STR    H1J 6910   4.459  15.039   8.839
    1STR    H1K 6911   4.446  15.269   8.924
    1STR    H1M 6912   4.621  15.243   9.175
    1STR    H1N 6913   4.462  15.171   9.153
    1STR    H1O 6914   4.478  15.345   9.165
    1STR    H1P 6915   4.708  15.411   8.996
    1STR    H1Q 6916   4.648  15.394   8.833
    1STR    H1R 6917   4.680  15.665   8.987
    1STR    H1S 6918   4.668  15.759   8.752
    1STR    H1T 6919   4.545  15.639   8.713
    1STR    H1U 6920   4.710  15.589   8.751
    1STR    H1V 6921   4.466  15.768   9.062
    1STR    H1W 6922   4.399  15.757   8.902
    1STR    H1X 6923   4.634  16.099   8.923
    1STR    H1Y 6924   4.700  16.306   8.969
    1STR    H1Z 6925   4.709  16.540   8.906
    1STR    H20 6926   4.536  16.689   8.626
    1STR    H21 6927   4.507  16.748   8.791
    1STR    H22 6928   4.669  16.701   8.738
    1STR    H23 6929   4.316  16.454   8.554
    1STR    H27 6930   4.348  16.251   8.725
    1STR    H28 6931   4.745  14.410   8.898
    1STR    H29 6932   4.777  14.174   8.908
    1STR    H2A 6933   4.525  13.920   8.867
    1STR    H2B 6934   4.680  13.964   8.935
    1STR    H2C 6935   4.669  13.927   8.763
    1STR   BCK1 6936   4.224  13.943  12.955
    1STR    O03 6937   4.103  13.951  12.973
    1STR    N04 6938   4.302  14.050  12.926
    1STR    C05 6939   4.260  14.163  12.853
    1STR    C06 6940   4.282  14.299  12.893
    1STR    C07 6941   4.246  14.411  12.810
    1STR    N08 6942   4.273  14.546  12.846
    1STR    C09 6943   4.237  14.662  12.783
    1STR    O0A 6944   4.163  14.666  12.685
    1STR    O0B 6945   4.290  14.777  12.838
    1STR    C0C 6946   4.254  14.906  12.781
    1STR    C0D 6947   4.113  14.946  12.827
    1STR    C0E 6948   4.355  15.022  12.810
    1STR    O0F 6949   4.314  15.146  12.748
    1STR    C0G 6950   4.400  15.261  12.762
    1STR    C0H 6951   4.518  15.247  12.665
    1STR    C0I 6952   4.321  15.393  12.734
    1STR    O0J 6953   4.393  15.513  12.770
    1STR    C0K 6954   4.326  15.639  12.744
    1STR    C0M 6955   4.203  15.654  12.836
    1STR    C0N 6956   4.418  15.763  12.765
    1STR    O0O 6957   4.360  15.880  12.704
    1STR    C0P 6958   4.359  16.004  12.761
    1STR    O0Q 6959   4.394  16.033  12.875
    1STR    N0R 6960   4.316  16.090  12.668
    1STR    C0S 6961   4.286  16.227  12.656
    1STR    C0T 6962   4.270  16.268  12.522
    1STR    C0U 6963   4.220  16.394  12.491
    1STR    C0V 6964   4.183  16.484  12.592
    1STR    C0W 6965   4.104  16.604  12.545
    1STR    C0X 6966   4.210  16.454  12.729
    1STR    N0Y 6967   4.173  16.539  12.837
    1STR   BCK2 6968   4.152  16.671  12.862
    1STR    O10 6969   4.096  16.701  12.967
    1STR    C13 6970   4.261  16.323  12.759
    1STR    C14 6971   4.185  14.379  12.686
    1STR    C15 6972   4.165  14.247  12.644
    1STR    C16 6973   4.205  14.139  12.724
    1STR    C17 6974   4.193  14.000  12.665
    1STR    H1B 6975   4.401  14.036  12.937
    1STR    H1C 6976   4.328  14.317  12.990
    1STR    H1D 6977   4.327  14.563  12.929
    1STR    H1E 6978   4.253  14.895  12.672
    1STR    H1F 6979   4.108  14.960  12.935
    1STR    H1G 6980   4.081  15.038  12.779
    1STR    H1H 6981   4.039  14.870  12.800
    1STR    H1I 6982   4.454  14.992  12.774
    1STR    H1J 6983   4.364  15.036  12.918
    1STR    H1K 6984   4.436  15.266  12.865
    1STR    H1M 6985   4.483  15.234  12.562
    1STR    H1N 6986   4.581  15.161  12.689
    1STR    H1O 6987   4.581  15.336  12.668
    1STR    H1P 6988   4.292  15.396  12.629
    1STR    H1Q 6989   4.228  15.387  12.790
    1STR    H1R 6990   4.294  15.640  12.640
    1STR    H1S 6991   4.158  15.752  12.824
    1STR    H1T 6992   4.231  15.643  12.940
    1STR    H1U 6993   4.125  15.581  12.814
    1STR    H1V 6994   4.514  15.746  12.717
    1STR    H1W 6995   4.440  15.780  12.871
    1STR    H1X 6996   4.300  16.036  12.585
    1STR    H1Y 6997   4.292  16.200  12.441
    1STR    H1Z 6998   4.203  16.419  12.388
    1STR    H20 6999   4.030  16.635  12.619
    1STR    H21 7000   4.171  16.686  12.520
    1STR    H22 7001   4.047  16.580  12.455
    1STR    H23 7002   4.155  16.490  12.923
    1STR    H27 7003   4.276  16.292  12.861
    1STR    H28 7004   4.153  14.454  12.616
    1STR    H29 7005   4.120  14.229  12.548
    1STR    H2A 7006   4.284  13.942  12.683
    1STR    H2B 7007   4.178  14.003  12.557
    1STR    H2C 7008   4.108  13.947  12.709
    1STR   BCK1 7009   8.599   0.870  17.427
    1STR    O03 7010   8.684   0.810   0.051
    1STR    N04 7011   8.559   0.998   0.012
    1STR    C05 7012   8.585   1.088   0.120
    1STR    C06 7013   8.589   1.230   0.097
    1STR    C07 7014   8.603   1.327   0.203
    1STR    N08 7015   8.601   1.467   0.179
    1STR    C09 7016   8.582   1.571   0.264
    1STR    O0A 7017   8.560   1.558   0.384
    1STR    O0B 7018   8.590   1.696   0.205
    1STR    C0C 7019   8.580   1.818   0.284
    1STR    C0D 7020   8.716   1.846   0.351
    1STR    C0E 7021   8.533   1.943   0.202
    1STR    O0F 7022   8.525   2.066   0.279
    1STR    C0G 7023   8.471   2.183   0.212
    1STR    C0H 7024   8.318   2.168   0.203
    1STR    C0I 7025   8.507   2.318   0.283
    1STR    O0J 7026   8.469   2.434   0.205
    1STR    C0K 7027   8.492   2.566   0.260
    1STR    C0M 7028   8.643   2.591   0.275
    1STR    C0N 7029   8.431   2.679   0.170
    1STR    O0O 7030   8.444   2.811   0.227
    1STR    C0P 7031   8.452   2.923   0.148
    1STR    O0Q 7032   8.457   2.924   0.026
    1STR    N0R 7033   8.455   3.033   0.225
    1STR    C0S 7034   8.472   3.171   0.200
    1STR    C0T 7035   8.488   3.252   0.314
    1STR    C0U 7036   8.514   3.390   0.304
    1STR    C0V 7037   8.524   3.452   0.178
    1STR    C0W 7038   8.569   3.597   0.173
    1STR    C0X 7039   8.501   3.376   0.060
    1STR    N0Y 7040   8.512   3.439  17.375
    1STR   BCK2 7041   8.431   3.534  17.325
    1STR    O10 7042   8.314   3.512  17.297
    1STR    C13 7043   8.478   3.235   0.072
    1STR    C14 7044   8.618   1.276   0.333
    1STR    C15 7045   8.613   1.138   0.359
    1STR    C16 7046   8.593   1.044   0.256
    1STR    C17 7047   8.574   0.900   0.300
    1STR    H1B 7048   8.500   1.034  17.380
    1STR    H1C 7049   8.580   1.265  17.436
    1STR    H1D 7050   8.615   1.499   0.084
    1STR    H1E 7051   8.507   1.802   0.363
    1STR    H1F 7052   8.795   1.863   0.278
    1STR    H1G 7053   8.711   1.935   0.415
    1STR    H1H 7054   8.747   1.763   0.415
    1STR    H1I 7055   8.435   1.919   0.160
    1STR    H1J 7056   8.600   1.959   0.118
    1STR    H1K 7057   8.513   2.188   0.112
    1STR    H1M 7058   8.274   2.155   0.302
    1STR    H1N 7059   8.287   2.084   0.142
    1STR    H1O 7060   8.273   2.258   0.159
    1STR    H1P 7061   8.459   2.322   0.381
    1STR    H1Q 7062   8.614   2.319   0.301
    1STR    H1R 7063   8.445   2.572   0.358
    1STR    H1S 7064   8.663   2.693   0.310
    1STR    H1T 7065   8.695   2.579   0.180
    1STR    H1U 7066   8.690   2.524   0.348
    1STR    H1V 7067   8.324   2.661   0.155
    1STR    H1W 7068   8.476   2.676   0.071
    1STR    H1X 7069   8.446   3.007   0.321
    1STR    H1Y 7070   8.482   3.209   0.413
    1STR    H1Z 7071   8.530   3.447   0.394
    1STR    H20 7072   8.652   3.608   0.104
    1STR    H21 7073   8.488   3.661   0.139
    1STR    H22 7074   8.602   3.633   0.270
    1STR    H23 7075   8.545   3.377  17.302
    1STR    H27 7076   8.464   3.175  17.424
    1STR    H28 7077   8.634   1.340   0.418
    1STR    H29 7078   8.622   1.104   0.461
    1STR    H2A 7079   8.502   0.848   0.236
    1STR    H2B 7080   8.536   0.894   0.402
    1STR    H2C 7081   8.669   0.847   0.297
    1STR   BCK1 7082   8.688   0.887   4.211
    1STR    O03 7083   8.636   0.913   4.103
    1STR    N04 7084   8.758   0.978   4.285
    1STR    C05 7085   8.841   1.083   4.240
    1STR    C06 7086   8.819   1.224   4.264
    1STR    C07 7087   8.918   1.325   4.232
    1STR    N08 7088   8.901   1.465   4.260
    1STR    C09 7089   8.976   1.573   4.222
    1STR    O0A 7090   9.073   1.565   4.147
    1STR    O0B 7091   8.935   1.696   4.274
    1STR    C0C 7092   9.002   1.820   4.233
    1STR    C0D 7093   8.954   1.858   4.091
    1STR    C0E 7094   8.985   1.944   4.330
    1STR    O0F 7095   9.043   2.068   4.279
    1STR    C0G 7096   9.035   2.187   4.361
    1STR    C0H 7097   9.142   2.177   4.472
    1STR    C0I 7098   9.056   2.319   4.278
    1STR    O0J 7099   9.022   2.443   4.347
    1STR    C0K 7100   9.032   2.569   4.273
    1STR    C0M 7101   8.929   2.570   4.160
    1STR    C0N 7102   9.010   2.698   4.361
    1STR    O0O 7103   9.032   2.820   4.286
    1STR    C0P 7104   8.951   2.932   4.298
    1STR    O0Q 7105   8.847   2.938   4.361
    1STR    N0R 7106   9.007   3.035   4.232
    1STR    C0S 7107   8.974   3.172   4.212
    1STR    C0T 7108   9.084   3.255   4.185
    1STR    C0U 7109   9.067   3.392   4.159
    1STR    C0V 7110   8.939   3.451   4.157
    1STR    C0W 7111   8.935   3.601   4.135
    1STR    C0X 7112   8.823   3.372   4.181
    1STR    N0Y 7113   8.691   3.423   4.191
    1STR   BCK2 7114   8.610   3.526   4.152
    1STR    O10 7115   8.499   3.531   4.203
    1STR    C13 7116   8.844   3.232   4.210
    1STR    C14 7117   9.039   1.277   4.177
    1STR    C15 7118   9.063   1.141   4.154
    1STR    C16 7119   8.967   1.044   4.187
    1STR    C17 7120   9.003   0.897   4.171
    1STR    H1B 7121   8.778   0.945   4.377
    1STR    H1C 7122   8.726   1.254   4.308
    1STR    H1D 7123   8.822   1.492   4.315
    1STR    H1E 7124   9.109   1.800   4.227
    1STR    H1F 7125   8.847   1.879   4.090
    1STR    H1G 7126   9.006   1.947   4.055
    1STR    H1H 7127   8.974   1.778   4.020
    1STR    H1I 7128   9.030   1.919   4.425
    1STR    H1J 7129   8.879   1.960   4.349
    1STR    H1K 7130   8.936   2.193   4.406
    1STR    H1M 7131   9.242   2.164   4.430
    1STR    H1N 7132   9.123   2.093   4.539
    1STR    H1O 7133   9.143   2.268   4.533
    1STR    H1P 7134   9.159   2.325   4.243
    1STR    H1Q 7135   8.994   2.310   4.189
    1STR    H1R 7136   9.133   2.575   4.231
    1STR    H1S 7137   8.930   2.667   4.108
    1STR    H1T 7138   8.829   2.555   4.199
    1STR    H1U 7139   8.948   2.495   4.084
    1STR    H1V 7140   9.079   2.698   4.445
    1STR    H1W 7141   8.910   2.697   4.405
    1STR    H1X 7142   9.095   3.006   4.194
    1STR    H1Y 7143   9.185   3.217   4.186
    1STR    H1Z 7144   9.154   3.453   4.141
    1STR    H20 7145   8.909   3.622   4.031
    1STR    H21 7146   8.863   3.648   4.202
    1STR    H22 7147   9.032   3.647   4.153
    1STR    H23 7148   8.633   3.364   4.249
    1STR    H27 7149   8.760   3.168   4.232
    1STR    H28 7150   9.121   1.343   4.151
    1STR    H29 7151   9.158   1.111   4.114
    1STR    H2A 7152   8.983   0.842   4.262
    1STR    H2B 7153   9.108   0.884   4.147
    1STR    H2C 7154   8.944   0.853   4.090
    1STR   BCK1 7155   8.616   0.851   8.610
    1STR    O03 7156   8.705   0.793   8.671
    1STR    N04 7157   8.595   0.981   8.641
    1STR    C05 7158   8.497   1.080   8.620
    1STR    C06 7159   8.535   1.219   8.616
    1STR    C07 7160   8.441   1.327   8.609
    1STR    N08 7161   8.482   1.464   8.609
    1STR    C09 7162   8.408   1.578   8.606
    1STR    O0A 7163   8.285   1.580   8.605
    1STR    O0B 7164   8.482   1.694   8.606
    1STR    C0C 7165   8.414   1.823   8.609
    1STR    C0D 7166   8.368   1.855   8.752
    1STR    C0E 7167   8.498   1.942   8.551
    1STR    O0F 7168   8.423   2.065   8.548
    1STR    C0G 7169   8.485   2.181   8.488
    1STR    C0H 7170   8.483   2.165   8.335
    1STR    C0I 7171   8.413   2.313   8.529
    1STR    O0J 7172   8.480   2.432   8.482
    1STR    C0K 7173   8.419   2.559   8.511
    1STR    C0M 7174   8.427   2.588   8.662
    1STR    C0N 7175   8.485   2.676   8.432
    1STR    O0O 7176   8.404   2.795   8.435
    1STR    C0P 7177   8.457   2.921   8.450
    1STR    O0Q 7178   8.576   2.947   8.467
    1STR    N0R 7179   8.358   3.011   8.450
    1STR    C0S 7180   8.351   3.147   8.484
    1STR    C0T 7181   8.236   3.184   8.556
    1STR    C0U 7182   8.220   3.315   8.605
    1STR    C0V 7183   8.317   3.413   8.580
    1STR    C0W 7184   8.307   3.544   8.657
    1STR    C0X 7185   8.428   3.384   8.495
    1STR    N0Y 7186   8.523   3.483   8.469
    1STR   BCK2 7187   8.514   3.610   8.422
    1STR    O10 7188   8.610   3.685   8.434
    1STR    C13 7189   8.447   3.248   8.453
    1STR    C14 7190   8.305   1.290   8.605
    1STR    C15 7191   8.265   1.156   8.612
    1STR    C16 7192   8.358   1.051   8.623
    1STR    C17 7193   8.302   0.913   8.648
    1STR    H1B 7194   8.670   1.010   8.701
    1STR    H1C 7195   8.641   1.243   8.619
    1STR    H1D 7196   8.580   1.483   8.612
    1STR    H1E 7197   8.325   1.816   8.546
    1STR    H1F 7198   8.452   1.865   8.821
    1STR    H1G 7199   8.311   1.948   8.755
    1STR    H1H 7200   8.303   1.777   8.792
    1STR    H1I 7201   8.530   1.915   8.451
    1STR    H1J 7202   8.588   1.955   8.611
    1STR    H1K 7203   8.588   2.188   8.523
    1STR    H1M 7204   8.381   2.150   8.299
    1STR    H1N 7205   8.543   2.080   8.301
    1STR    H1O 7206   8.523   2.254   8.287
    1STR    H1P 7207   8.310   2.311   8.492
    1STR    H1Q 7208   8.406   2.315   8.638
    1STR    H1R 7209   8.314   2.554   8.480
    1STR    H1S 7210   8.390   2.688   8.684
    1STR    H1T 7211   8.530   2.584   8.697
    1STR    H1U 7212   8.369   2.519   8.722
    1STR    H1V 7213   8.497   2.648   8.327
    1STR    H1W 7214   8.586   2.696   8.470
    1STR    H1X 7215   8.271   2.965   8.432
    1STR    H1Y 7216   8.160   3.111   8.579
    1STR    H1Z 7217   8.134   3.338   8.666
    1STR    H20 7218   8.402   3.567   8.704
    1STR    H21 7219   8.279   3.628   8.593
    1STR    H22 7220   8.232   3.538   8.736
    1STR    H23 7221   8.619   3.460   8.493
    1STR    H27 7222   8.535   3.221   8.397
    1STR    H28 7223   8.225   1.362   8.600
    1STR    H29 7224   8.159   1.134   8.613
    1STR    H2A 7225   8.287   0.861   8.553
    1STR    H2B 7226   8.205   0.918   8.697
    1STR    H2C 7227   8.367   0.854   8.712
    1STR   BCK1 7228   8.697   0.873  13.057
    1STR    O03 7229   8.800   0.808  13.069
    1STR    N04 7230   8.677   0.999  13.106
    1STR    C05 7231   8.755   1.086  13.189
    1STR    C06 7232   8.742   1.229  13.178
    1STR    C07 7233   8.813   1.323  13.261
    1STR    N08 7234   8.794   1.465  13.252
    1STR    C09 7235   8.846   1.568  13.325
    1STR    O0A 7236   8.927   1.553  13.417
    1STR    O0B 7237   8.802   1.695  13.288
    1STR    C0C 7238   8.857   1.816  13.351
    1STR    C0D 7239   8.995   1.846  13.291
    1STR    C0E 7240   8.764   1.942  13.341
    1STR    O0F 7241   8.821   2.066  13.394
    1STR    C0G 7242   8.736   2.184  13.396
    1STR    C0H 7243   8.639   2.172  13.515
    1STR    C0I 7244   8.814   2.320  13.406
    1STR    O0J 7245   8.731   2.437  13.381
    1STR    C0K 7246   8.790   2.570  13.390
    1STR    C0M 7247   8.902   2.585  13.285
    1STR    C0N 7248   8.684   2.685  13.368
    1STR    O0O 7249   8.739   2.819  13.377
    1STR    C0P 7250   8.687   2.925  13.306
    1STR    O0Q 7251   8.600   2.918  13.220
    1STR    N0R 7252   8.746   3.039  13.344
    1STR    C0S 7253   8.742   3.176  13.306
    1STR    C0T 7254   8.822   3.260  13.386
    1STR    C0U 7255   8.839   3.396  13.354
    1STR    C0V 7256   8.776   3.453  13.242
    1STR    C0W 7257   8.817   3.595  13.206
    1STR    C0X 7258   8.685   3.376  13.164
    1STR    N0Y 7259   8.622   3.435  13.051
    1STR   BCK2 7260   8.561   3.555  13.038
    1STR    O10 7261   8.530   3.628  13.132
    1STR    C13 7262   8.672   3.236  13.196
    1STR    C14 7263   8.904   1.268  13.354
    1STR    C15 7264   8.917   1.129  13.369
    1STR    C16 7265   8.842   1.038  13.292
    1STR    C17 7266   8.854   0.892  13.333
    1STR    H1B 7267   8.590   1.037  13.075
    1STR    H1C 7268   8.674   1.268  13.104
    1STR    H1D 7269   8.731   1.499  13.182
    1STR    H1E 7270   8.871   1.795  13.458
    1STR    H1F 7271   8.988   1.867  13.184
    1STR    H1G 7272   9.040   1.932  13.339
    1STR    H1H 7273   9.063   1.762  13.304
    1STR    H1I 7274   8.671   1.920  13.394
    1STR    H1J 7275   8.737   1.959  13.237
    1STR    H1K 7276   8.679   2.187  13.303
    1STR    H1M 7277   8.693   2.160  13.609
    1STR    H1N 7278   8.571   2.087  13.505
    1STR    H1O 7279   8.577   2.261  13.524
    1STR    H1P 7280   8.862   2.329  13.504
    1STR    H1Q 7281   8.896   2.317  13.333
    1STR    H1R 7282   8.833   2.582  13.489
    1STR    H1S 7283   8.943   2.687  13.287
    1STR    H1T 7284   8.864   2.567  13.185
    1STR    H1U 7285   8.986   2.518  13.303
    1STR    H1V 7286   8.606   2.676  13.443
    1STR    H1W 7287   8.635   2.671  13.271
    1STR    H1X 7288   8.809   3.018  13.419
    1STR    H1Y 7289   8.875   3.222  13.472
    1STR    H1Z 7290   8.905   3.456  13.415
    1STR    H20 7291   8.819   3.610  13.098
    1STR    H21 7292   8.748   3.667  13.250
    1STR    H22 7293   8.917   3.618  13.243
    1STR    H23 7294   8.624   3.380  12.967
    1STR    H27 7295   8.608   3.173  13.135
    1STR    H28 7296   8.965   1.328  13.419
    1STR    H29 7297   8.985   1.092  13.445
    1STR    H2A 7298   8.760   0.839  13.321
    1STR    H2B 7299   8.883   0.883  13.438
    1STR    H2C 7300   8.932   0.843  13.274
    1STR   BCK1 7301   8.608   5.233  17.279
    1STR    O03 7302   8.506   5.248  17.214
    1STR    N04 7303   8.698   5.333  17.300
    1STR    C05 7304   8.721   5.442  17.214
    1STR    C06 7305   8.721   5.580  17.256
    1STR    C07 7306   8.755   5.688  17.166
    1STR    N08 7307   8.761   5.825  17.207
    1STR    C09 7308   8.767   5.938  17.130
    1STR    O0A 7309   8.757   5.937  17.008
    1STR    O0B 7310   8.785   6.056  17.201
    1STR    C0C 7311   8.790   6.183  17.130
    1STR    C0D 7312   8.647   6.224  17.090
    1STR    C0E 7313   8.860   6.301  17.206
    1STR    O0F 7314   8.857   6.425  17.130
    1STR    C0G 7315   8.919   6.542  17.188
    1STR    C0H 7316   9.072   6.530  17.173
    1STR    C0I 7317   8.867   6.673  17.118
    1STR    O0J 7318   8.904   6.797  17.183
    1STR    C0K 7319   8.851   6.919  17.125
    1STR    C0M 7320   8.699   6.926  17.146
    1STR    C0N 7321   8.913   7.051  17.183
    1STR    O0O 7322   8.872   7.165  17.105
    1STR    C0P 7323   8.841   7.287  17.159
    1STR    O0Q 7324   8.832   7.312  17.279
    1STR    N0R 7325   8.828   7.378  17.061
    1STR    C0S 7326   8.812   7.518  17.058
    1STR    C0T 7327   8.896   7.585  16.967
    1STR    C0U 7328   8.888   7.724  16.950
    1STR    C0V 7329   8.794   7.801  17.022
    1STR    C0W 7330   8.806   7.951  17.006
    1STR    C0X 7331   8.701   7.737  17.108
    1STR    N0Y 7332   8.605   7.808  17.185
    1STR   BCK2 7333   8.526   7.918  17.177
    1STR    O10 7334   8.463   7.950  17.277
    1STR    C13 7335   8.715   7.595  17.128
    1STR    C14 7336   8.790   5.651  17.034
    1STR    C15 7337   8.792   5.517  16.993
    1STR    C16 7338   8.761   5.413  17.081
    1STR    C17 7339   8.779   5.270  17.033
    1STR    H1B 7340   8.767   5.314  17.370
    1STR    H1C 7341   8.695   5.603  17.358
    1STR    H1D 7342   8.760   5.845  17.305
    1STR    H1E 7343   8.847   6.168  17.038
    1STR    H1F 7344   8.584   6.241  17.178
    1STR    H1G 7345   8.647   6.315  17.031
    1STR    H1H 7346   8.599   6.147  17.029
    1STR    H1I 7347   8.962   6.273  17.228
    1STR    H1J 7348   8.810   6.317  17.302
    1STR    H1K 7349   8.893   6.549  17.293
    1STR    H1M 7350   9.100   6.517  17.068
    1STR    H1N 7351   9.112   6.446  17.229
    1STR    H1O 7352   9.121   6.620  17.209
    1STR    H1P 7353   8.901   6.674  17.014
    1STR    H1Q 7354   8.758   6.664  17.114
    1STR    H1R 7355   8.873   6.918  17.018
    1STR    H1S 7356   8.659   7.021  17.112
    1STR    H1T 7357   8.674   6.916  17.252
    1STR    H1U 7358   8.645   6.849  17.092
    1STR    H1V 7359   9.022   7.045  17.181
    1STR    H1W 7360   8.886   7.064  17.289
    1STR    H1X 7361   8.846   7.333  16.973
    1STR    H1Y 7362   8.971   7.531  16.911
    1STR    H1Z 7363   8.957   7.772  16.883
    1STR    H20 7364   8.745   7.985  16.922
    1STR    H21 7365   8.776   8.003  17.097
    1STR    H22 7366   8.908   7.981  16.986
    1STR    H23 7367   8.586   7.765  17.274
    1STR    H27 7368   8.650   7.544  17.197
    1STR    H28 7369   8.818   5.723  16.960
    1STR    H29 7370   8.821   5.495  16.891
    1STR    H2A 7371   8.834   5.211  17.106
    1STR    H2B 7372   8.836   5.266  16.940
    1STR    H2C 7373   8.682   5.223  17.016
    1STR   BCK1 7374   8.563   5.220   4.304
    1STR    O03 7375   8.620   5.165   4.398
    1STR    N04 7376   8.522   5.350   4.305
    1STR    C05 7377   8.506   5.444   4.410
    1STR    C06 7378   8.526   5.585   4.386
    1STR    C07 7379   8.495   5.686   4.483
    1STR    N08 7380   8.511   5.825   4.457
    1STR    C09 7381   8.452   5.932   4.518
    1STR    O0A 7382   8.368   5.922   4.607
    1STR    O0B 7383   8.494   6.055   4.470
    1STR    C0C 7384   8.446   6.179   4.530
    1STR    C0D 7385   8.528   6.208   4.658
    1STR    C0E 7386   8.451   6.301   4.433
    1STR    O0F 7387   8.402   6.425   4.493
    1STR    C0G 7388   8.392   6.541   4.407
    1STR    C0H 7389   8.270   6.525   4.316
    1STR    C0I 7390   8.382   6.675   4.488
    1STR    O0J 7391   8.388   6.792   4.403
    1STR    C0K 7392   8.376   6.923   4.466
    1STR    C0M 7393   8.499   6.949   4.554
    1STR    C0N 7394   8.361   7.038   4.361
    1STR    O0O 7395   8.332   7.165   4.422
    1STR    C0P 7396   8.368   7.284   4.363
    1STR    O0Q 7397   8.433   7.294   4.259
    1STR    N0R 7398   8.326   7.387   4.438
    1STR    C0S 7399   8.347   7.527   4.433
    1STR    C0T 7400   8.325   7.596   4.553
    1STR    C0U 7401   8.354   7.733   4.564
    1STR    C0V 7402   8.403   7.806   4.455
    1STR    C0W 7403   8.457   7.945   4.484
    1STR    C0X 7404   8.413   7.745   4.327
    1STR    N0Y 7405   8.458   7.810   4.210
    1STR   BCK2 7406   8.438   7.928   4.145
    1STR    O10 7407   8.490   7.942   4.036
    1STR    C13 7408   8.389   7.603   4.320
    1STR    C14 7409   8.448   5.641   4.609
    1STR    C15 7410   8.427   5.505   4.634
    1STR    C16 7411   8.452   5.407   4.536
    1STR    C17 7412   8.411   5.265   4.571
    1STR    H1B 7413   8.496   5.382   4.213
    1STR    H1C 7414   8.565   5.616   4.291
    1STR    H1D 7415   8.573   5.853   4.383
    1STR    H1E 7416   8.342   6.165   4.559
    1STR    H1F 7417   8.633   6.223   4.636
    1STR    H1G 7418   8.491   6.298   4.707
    1STR    H1H 7419   8.519   6.126   4.729
    1STR    H1I 7420   8.391   6.276   4.345
    1STR    H1J 7421   8.553   6.317   4.398
    1STR    H1K 7422   8.483   6.547   4.346
    1STR    H1M 7423   8.179   6.511   4.375
    1STR    H1N 7424   8.279   6.441   4.248
    1STR    H1O 7425   8.256   6.615   4.255
    1STR    H1P 7426   8.290   6.675   4.546
    1STR    H1Q 7427   8.464   6.677   4.560
    1STR    H1R 7428   8.286   6.923   4.528
    1STR    H1S 7429   8.496   7.050   4.595
    1STR    H1T 7430   8.591   6.941   4.495
    1STR    H1U 7431   8.507   6.881   4.638
    1STR    H1V 7432   8.280   7.015   4.292
    1STR    H1W 7433   8.451   7.045   4.300
    1STR    H1X 7434   8.274   7.352   4.516
    1STR    H1Y 7435   8.291   7.544   4.641
    1STR    H1Z 7436   8.343   7.780   4.661
    1STR    H20 7437   8.555   7.958   4.438
    1STR    H21 7438   8.390   8.024   4.450
    1STR    H22 7439   8.470   7.961   4.592
    1STR    H23 7440   8.515   7.753   4.151
    1STR    H27 7441   8.403   7.551   4.226
    1STR    H28 7442   8.426   5.710   4.689
    1STR    H29 7443   8.388   5.476   4.730
    1STR    H2A 7444   8.371   5.212   4.485
    1STR    H2B 7445   8.333   5.264   4.648
    1STR    H2C 7446   8.497   5.210   4.610
    1STR   BCK1 7447   8.732   5.241   8.598
    1STR    O03 7448   8.826   5.183   8.545
    1STR    N04 7449   8.740   5.362   8.661
    1STR    C05 7450   8.849   5.450   8.689
    1STR    C06 7451   8.829   5.592   8.695
    1STR    C07 7452   8.934   5.687   8.724
    1STR    N08 7453   8.912   5.828   8.736
    1STR    C09 7454   9.000   5.932   8.745
    1STR    O0A 7455   9.121   5.919   8.736
    1STR    O0B 7456   8.941   6.057   8.765
    1STR    C0C 7457   9.022   6.179   8.766
    1STR    C0D 7458   9.059   6.215   8.621
    1STR    C0E 7459   8.956   6.303   8.837
    1STR    O0F 7460   9.032   6.428   8.825
    1STR    C0G 7461   8.981   6.546   8.891
    1STR    C0H 7462   9.014   6.536   9.041
    1STR    C0I 7463   9.038   6.681   8.832
    1STR    O0J 7464   8.968   6.801   8.874
    1STR    C0K 7465   9.013   6.930   8.823
    1STR    C0M 7466   8.997   6.934   8.670
    1STR    C0N 7467   8.935   7.053   8.884
    1STR    O0O 7468   8.981   7.181   8.835
    1STR    C0P 7469   8.897   7.288   8.810
    1STR    O0Q 7470   8.775   7.284   8.811
    1STR    N0R 7471   8.969   7.399   8.787
    1STR    C0S 7472   8.944   7.536   8.759
    1STR    C0T 7473   9.049   7.622   8.794
    1STR    C0U 7474   9.048   7.758   8.760
    1STR    C0V 7475   8.940   7.813   8.688
    1STR    C0W 7476   8.958   7.956   8.639
    1STR    C0X 7477   8.826   7.734   8.657
    1STR    N0Y 7478   8.721   7.789   8.579
    1STR   BCK2 7479   8.659   7.910   8.586
    1STR    O10 7480   8.665   7.985   8.683
    1STR    C13 7481   8.830   7.594   8.692
    1STR    C14 7482   9.063   5.632   8.744
    1STR    C15 7483   9.085   5.494   8.742
    1STR    C16 7484   8.980   5.402   8.720
    1STR    C17 7485   9.015   5.256   8.740
    1STR    H1B 7486   8.650   5.394   8.690
    1STR    H1C 7487   8.730   5.631   8.677
    1STR    H1D 7488   8.817   5.859   8.740
    1STR    H1E 7489   9.115   6.157   8.820
    1STR    H1F 7490   8.970   6.236   8.562
    1STR    H1G 7491   9.124   6.302   8.618
    1STR    H1H 7492   9.113   6.133   8.573
    1STR    H1I 7493   8.943   6.279   8.943
    1STR    H1J 7494   8.856   6.319   8.796
    1STR    H1K 7495   8.873   6.550   8.878
    1STR    H1M 7496   9.121   6.524   9.057
    1STR    H1N 7497   8.964   6.452   9.089
    1STR    H1O 7498   8.983   6.626   9.094
    1STR    H1P 7499   9.144   6.689   8.858
    1STR    H1Q 7500   9.034   6.672   8.724
    1STR    H1R 7501   9.118   6.942   8.849
    1STR    H1S 7502   9.024   7.033   8.631
    1STR    H1T 7503   8.894   6.915   8.642
    1STR    H1U 7504   9.061   6.863   8.619
    1STR    H1V 7505   8.946   7.053   8.992
    1STR    H1W 7506   8.828   7.042   8.865
    1STR    H1X 7507   9.066   7.376   8.799
    1STR    H1Y 7508   9.136   7.585   8.847
    1STR    H1Z 7509   9.133   7.819   8.785
    1STR    H20 7510   8.915   7.970   8.540
    1STR    H21 7511   8.911   8.026   8.707
    1STR    H22 7512   9.063   7.983   8.631
    1STR    H23 7513   8.689   7.732   8.502
    1STR    H27 7514   8.748   7.529   8.666
    1STR    H28 7515   9.149   5.693   8.765
    1STR    H29 7516   9.185   5.457   8.762
    1STR    H2A 7517   8.931   5.200   8.781
    1STR    H2B 7518   9.097   5.245   8.811
    1STR    H2C 7519   9.047   5.211   8.646
    1STR   BCK1 7520   8.591   5.217  12.965
    1STR    O03 7521   8.492   5.210  13.037
    1STR    N04 7522   8.639   5.333  12.915
    1STR    C05 7523   8.561   5.446  12.880
    1STR    C06 7524   8.598   5.581  12.910
    1STR    C07 7525   8.523   5.694  12.862
    1STR    N08 7526   8.562   5.829  12.884
    1STR    C09 7527   8.516   5.944  12.827
    1STR    O0A 7528   8.429   5.946  12.741
    1STR    O0B 7529   8.574   6.060  12.873
    1STR    C0C 7530   8.520   6.189  12.831
    1STR    C0D 7531   8.402   6.224  12.922
    1STR    C0E 7532   8.623   6.307  12.827
    1STR    O0F 7533   8.562   6.430  12.782
    1STR    C0G 7534   8.647   6.545  12.763
    1STR    C0H 7535   8.726   6.528  12.632
    1STR    C0I 7536   8.564   6.678  12.759
    1STR    O0J 7537   8.647   6.797  12.756
    1STR    C0K 7538   8.580   6.925  12.746
    1STR    C0M 7539   8.502   6.953  12.876
    1STR    C0N 7540   8.681   7.041  12.720
    1STR    O0O 7541   8.618   7.160  12.667
    1STR    C0P 7542   8.622   7.281  12.732
    1STR    O0Q 7543   8.671   7.301  12.842
    1STR    N0R 7544   8.557   7.373  12.659
    1STR    C0S 7545   8.504   7.498  12.694
    1STR    C0T 7546   8.365   7.511  12.676
    1STR    C0U 7547   8.298   7.628  12.715
    1STR    C0V 7548   8.368   7.737  12.768
    1STR    C0W 7549   8.285   7.849  12.830
    1STR    C0X 7550   8.510   7.735  12.772
    1STR    N0Y 7551   8.582   7.846  12.819
    1STR   BCK2 7552   8.573   7.979  12.797
    1STR    O10 7553   8.635   8.056  12.870
    1STR    C13 7554   8.576   7.612  12.741
    1STR    C14 7555   8.405   5.664  12.790
    1STR    C15 7556   8.369   5.533  12.756
    1STR    C16 7557   8.448   5.424  12.797
    1STR    C17 7558   8.411   5.287  12.742
    1STR    H1B 7559   8.733   5.330  12.881
    1STR    H1C 7560   8.687   5.598  12.969
    1STR    H1D 7561   8.636   5.847  12.951
    1STR    H1E 7562   8.483   6.180  12.729
    1STR    H1F 7563   8.433   6.237  13.026
    1STR    H1G 7564   8.354   6.317  12.890
    1STR    H1H 7565   8.326   6.146  12.920
    1STR    H1I 7566   8.705   6.278  12.761
    1STR    H1J 7567   8.667   6.322  12.926
    1STR    H1K 7568   8.716   6.552  12.847
    1STR    H1M 7569   8.658   6.513  12.547
    1STR    H1N 7570   8.794   6.443  12.635
    1STR    H1O 7571   8.786   6.616  12.611
    1STR    H1P 7572   8.498   6.677  12.672
    1STR    H1Q 7573   8.500   6.680  12.846
    1STR    H1R 7574   8.511   6.921  12.662
    1STR    H1S 7575   8.459   7.054  12.874
    1STR    H1T 7576   8.567   6.947  12.963
    1STR    H1U 7577   8.419   6.884  12.891
    1STR    H1V 7578   8.753   7.008  12.644
    1STR    H1W 7579   8.740   7.063  12.809
    1STR    H1X 7580   8.528   7.334  12.571
    1STR    H1Y 7581   8.307   7.428  12.638
    1STR    H1Z 7582   8.190   7.631  12.707
    1STR    H20 7583   8.341   7.906  12.903
    1STR    H21 7584   8.199   7.807  12.883
    1STR    H22 7585   8.247   7.916  12.753
    1STR    H23 7586   8.654   7.826  12.887
    1STR    H27 7587   8.683   7.604  12.752
    1STR    H28 7588   8.337   5.740  12.754
    1STR    H29 7589   8.281   5.516  12.696
    1STR    H2A 7590   8.500   5.233  12.710
    1STR    H2B 7591   8.346   5.295  12.655
    1STR    H2C 7592   8.359   5.229  12.818
    1STR   BCK1 7593   8.634   9.589  17.436
    1STR    O03 7594   8.728   9.526   0.041
    1STR    N04 7595   8.601   9.717   0.032
    1STR    C05 7596   8.649   9.805   0.134
    1STR    C06 7597   8.645   9.948   0.115
    1STR    C07 7598   8.683  10.044   0.215
    1STR    N08 7599   8.673  10.186   0.196
    1STR    C09 7600   8.683  10.289   0.285
    1STR    O0A 7601   8.702  10.274   0.405
    1STR    O0B 7602   8.669  10.415   0.228
    1STR    C0C 7603   8.686  10.536   0.309
    1STR    C0D 7604   8.836  10.564   0.328
    1STR    C0E 7605   8.614  10.663   0.249
    1STR    O0F 7606   8.633  10.786   0.325
    1STR    C0G 7607   8.560  10.904   0.281
    1STR    C0H 7608   8.414  10.890   0.327
    1STR    C0I 7609   8.619  11.040   0.334
    1STR    O0J 7610   8.559  11.157   0.272
    1STR    C0K 7611   8.602  11.289   0.315
    1STR    C0M 7612   8.750  11.310   0.280
    1STR    C0N 7613   8.517  11.403   0.248
    1STR    O0O 7614   8.552  11.537   0.290
    1STR    C0P 7615   8.534  11.647   0.209
    1STR    O0Q 7616   8.497  11.642   0.092
    1STR    N0R 7617   8.564  11.761   0.274
    1STR    C0S 7618   8.571  11.897   0.238
    1STR    C0T 7619   8.616  11.985   0.339
    1STR    C0U 7620   8.638  12.121   0.313
    1STR    C0V 7621   8.615  12.176   0.185
    1STR    C0W 7622   8.661  12.319   0.165
    1STR    C0X 7623   8.558  12.095   0.082
    1STR    N0Y 7624   8.528  12.139  17.391
    1STR   BCK2 7625   8.493  12.249  17.319
    1STR    O10 7626   8.469  12.232  17.200
    1STR    C13 7627   8.541  11.955   0.111
    1STR    C14 7628   8.732   9.990   0.336
    1STR    C15 7629   8.735   9.852   0.359
    1STR    C16 7630   8.691   9.760   0.263
    1STR    C17 7631   8.685   9.615   0.308
    1STR    H1B 7632   8.529   9.754  17.414
    1STR    H1C 7633   8.610   9.986   0.020
    1STR    H1D 7634   8.655  10.218   0.103
    1STR    H1E 7635   8.642  10.518   0.407
    1STR    H1F 7636   8.886  10.583   0.233
    1STR    H1G 7637   8.851  10.652   0.391
    1STR    H1H 7638   8.886  10.480   0.376
    1STR    H1I 7639   8.507  10.640   0.243
    1STR    H1J 7640   8.648  10.679   0.147
    1STR    H1K 7641   8.564  10.908   0.172
    1STR    H1M 7642   8.408  10.877   0.435
    1STR    H1N 7643   8.363  10.806   0.280
    1STR    H1O 7644   8.357  10.980   0.301
    1STR    H1P 7645   8.608  11.045   0.443
    1STR    H1Q 7646   8.727  11.039   0.314
    1STR    H1R 7647   8.588  11.297   0.423
    1STR    H1S 7648   8.781  11.412   0.304
    1STR    H1T 7649   8.767  11.296   0.173
    1STR    H1U 7650   8.816  11.243   0.335
    1STR    H1V 7651   8.411  11.389   0.270
    1STR    H1W 7652   8.525  11.396   0.139
    1STR    H1X 7653   8.588  11.739   0.369
    1STR    H1Y 7654   8.638  11.948   0.439
    1STR    H1Z 7655   8.677  12.183   0.392
    1STR    H20 7656   8.704  12.332   0.066
    1STR    H21 7657   8.578  12.388   0.180
    1STR    H22 7658   8.738  12.346   0.237
    1STR    H23 7659   8.524  12.062  17.326
    1STR    H27 7660   8.504  11.889   0.034
    1STR    H28 7661   8.767  10.053   0.417
    1STR    H29 7662   8.770   9.817   0.455
    1STR    H2A 7663   8.600   9.563   0.264
    1STR    H2B 7664   8.674   9.608   0.416
    1STR    H2C 7665   8.777   9.563   0.281
    1STR   BCK1 7666   8.662   9.601   4.195
    1STR    O03 7667   8.602   9.615   4.089
    1STR    N04 7668   8.738   9.698   4.252
    1STR    C05 7669   8.807   9.803   4.187
    1STR    C06 7670   8.792   9.943   4.220
    1STR    C07 7671   8.874  10.046   4.160
    1STR    N08 7672   8.864  10.185   4.194
    1STR    C09 7673   8.919  10.295   4.134
    1STR    O0A 7674   8.981  10.290   4.029
    1STR    O0B 7675   8.897  10.416   4.199
    1STR    C0C 7676   8.943  10.542   4.139
    1STR    C0D 7677   8.847  10.581   4.026
    1STR    C0E 7678   8.961  10.663   4.238
    1STR    O0F 7679   8.998  10.787   4.172
    1STR    C0G 7680   9.019  10.906   4.252
    1STR    C0H 7681   9.156  10.895   4.321
    1STR    C0I 7682   9.011  11.037   4.166
    1STR    O0J 7683   9.004  11.162   4.241
    1STR    C0K 7684   8.989  11.285   4.165
    1STR    C0M 7685   8.851  11.288   4.098
    1STR    C0N 7686   9.003  11.416   4.251
    1STR    O0O 7687   9.002  11.536   4.169
    1STR    C0P 7688   8.934  11.651   4.201
    1STR    O0Q 7689   8.855  11.663   4.294
    1STR    N0R 7690   8.969  11.750   4.118
    1STR    C0S 7691   8.940  11.888   4.107
    1STR    C0T 7692   9.045  11.967   4.059
    1STR    C0U 7693   9.028  12.105   4.039
    1STR    C0V 7694   8.906  12.169   4.065
    1STR    C0W 7695   8.905  12.320   4.051
    1STR    C0X 7696   8.794  12.094   4.110
    1STR    N0Y 7697   8.669  12.150   4.145
    1STR   BCK2 7698   8.587  12.255   4.117
    1STR    O10 7699   8.488  12.269   4.188
    1STR    C13 7700   8.815  11.953   4.133
    1STR    C14 7701   8.972  10.002   4.068
    1STR    C15 7702   8.989   9.866   4.037
    1STR    C16 7703   8.910   9.767   4.097
    1STR    C17 7704   8.942   9.621   4.067
    1STR    H1B 7705   8.767   9.678   4.346
    1STR    H1C 7706   8.717   9.971   4.292
    1STR    H1D 7707   8.809  10.209   4.275
    1STR    H1E 7708   9.042  10.523   4.095
    1STR    H1F 7709   8.747  10.600   4.063
    1STR    H1G 7710   8.882  10.671   3.975
    1STR    H1H 7711   8.840  10.502   3.951
    1STR    H1I 7712   9.036  10.637   4.312
    1STR    H1J 7713   8.868  10.679   4.293
    1STR    H1K 7714   8.941  10.912   4.327
    1STR    H1M 7715   9.236  10.882   4.248
    1STR    H1N 7716   9.161  10.812   4.390
    1STR    H1O 7717   9.179  10.986   4.378
    1STR    H1P 7718   9.096  11.041   4.097
    1STR    H1Q 7719   8.923  11.028   4.103
    1STR    H1R 7720   9.067  11.288   4.089
    1STR    H1S 7721   8.834  11.384   4.048
    1STR    H1T 7722   8.772  11.276   4.172
    1STR    H1U 7723   8.839  11.211   4.022
    1STR    H1V 7724   9.097  11.415   4.306
    1STR    H1W 7725   8.924  11.421   4.327
    1STR    H1X 7726   9.040  11.716   4.055
    1STR    H1Y 7727   9.142  11.924   4.038
    1STR    H1Z 7728   9.113  12.163   4.005
    1STR    H20 7729   8.868  12.347   3.952
    1STR    H21 7730   8.844  12.367   4.128
    1STR    H22 7731   9.005  12.362   4.060
    1STR    H23 7732   8.621  12.097   4.216
    1STR    H27 7733   8.734  11.892   4.170
    1STR    H28 7734   9.040  10.070   4.019
    1STR    H29 7735   9.067   9.838   3.967
    1STR    H2A 7736   8.950   9.564   4.160
    1STR    H2B 7737   9.037   9.611   4.015
    1STR    H2C 7738   8.864   9.577   4.006
    1STR   BCK1 7739   8.607   9.574   8.616
    1STR    O03 7740   8.713   9.519   8.641
    1STR    N04 7741   8.593   9.702   8.659
    1STR    C05 7742   8.491   9.798   8.678
    1STR    C06 7743   8.521   9.938   8.665
    1STR    C07 7744   8.429  10.042   8.700
    1STR    N08 7745   8.463  10.180   8.688
    1STR    C09 7746   8.390  10.292   8.714
    1STR    O0A 7747   8.274  10.290   8.754
    1STR    O0B 7748   8.457  10.410   8.691
    1STR    C0C 7749   8.393  10.538   8.718
    1STR    C0D 7750   8.399  10.568   8.869
    1STR    C0E 7751   8.451  10.657   8.636
    1STR    O0F 7752   8.379  10.780   8.660
    1STR    C0G 7753   8.418  10.896   8.583
    1STR    C0H 7754   8.364  10.881   8.440
    1STR    C0I 7755   8.365  11.028   8.647
    1STR    O0J 7756   8.414  11.146   8.579
    1STR    C0K 7757   8.367  11.274   8.626
    1STR    C0M 7758   8.427  11.304   8.764
    1STR    C0N 7759   8.405  11.388   8.527
    1STR    O0O 7760   8.338  11.511   8.562
    1STR    C0P 7761   8.395  11.633   8.544
    1STR    O0Q 7762   8.507  11.654   8.499
    1STR    N0R 7763   8.312  11.726   8.591
    1STR    C0S 7764   8.325  11.863   8.618
    1STR    C0T 7765   8.255  11.907   8.731
    1STR    C0U 7766   8.259  12.041   8.771
    1STR    C0V 7767   8.329  12.138   8.695
    1STR    C0W 7768   8.326  12.278   8.752
    1STR    C0X 7769   8.393  12.100   8.573
    1STR    N0Y 7770   8.436  12.192   8.475
    1STR   BCK2 7771   8.466  12.324   8.473
    1STR    O10 7772   8.502  12.392   8.569
    1STR    C13 7773   8.394  11.960   8.539
    1STR    C14 7774   8.304   9.999   8.750
    1STR    C15 7775   8.273   9.864   8.766
    1STR    C16 7776   8.366   9.763   8.734
    1STR    C17 7777   8.329   9.620   8.771
    1STR    H1B 7778   8.684   9.732   8.691
    1STR    H1C 7779   8.619   9.966   8.628
    1STR    H1D 7780   8.555  10.203   8.657
    1STR    H1E 7781   8.288  10.529   8.690
    1STR    H1F 7782   8.501  10.579   8.904
    1STR    H1G 7783   8.345  10.660   8.892
    1STR    H1H 7784   8.352  10.489   8.928
    1STR    H1I 7785   8.447  10.631   8.531
    1STR    H1J 7786   8.556  10.671   8.661
    1STR    H1K 7787   8.527  10.902   8.581
    1STR    H1M 7788   8.256  10.867   8.440
    1STR    H1N 7789   8.409  10.797   8.387
    1STR    H1O 7790   8.386  10.971   8.381
    1STR    H1P 7791   8.255  11.027   8.646
    1STR    H1Q 7792   8.395  11.030   8.751
    1STR    H1R 7793   8.258  11.271   8.633
    1STR    H1S 7794   8.399  11.404   8.797
    1STR    H1T 7795   8.536  11.299   8.761
    1STR    H1U 7796   8.392  11.235   8.841
    1STR    H1V 7797   8.375  11.362   8.425
    1STR    H1W 7798   8.513  11.403   8.524
    1STR    H1X 7799   8.227  11.683   8.622
    1STR    H1Y 7800   8.197  11.838   8.791
    1STR    H1Z 7801   8.206  12.071   8.860
    1STR    H20 7802   8.427  12.308   8.780
    1STR    H21 7803   8.285  12.350   8.681
    1STR    H22 7804   8.267  12.286   8.843
    1STR    H23 7805   8.438  12.155   8.381
    1STR    H27 7806   8.445  11.927   8.450
    1STR    H28 7807   8.227  10.069   8.780
    1STR    H29 7808   8.177   9.837   8.808
    1STR    H2A 7809   8.285   9.569   8.686
    1STR    H2B 7810   8.255   9.619   8.852
    1STR    H2C 7811   8.415   9.565   8.807
    1STR   BCK1 7812   8.725   9.596  13.025
    1STR    O03 7813   8.829   9.533  13.015
    1STR    N04 7814   8.714   9.721  13.080
    1STR    C05 7815   8.808   9.807  13.146
    1STR    C06 7816   8.790   9.951  13.141
    1STR    C07 7817   8.878  10.045  13.207
    1STR    N08 7818   8.856  10.186  13.206
    1STR    C09 7819   8.928  10.290  13.258
    1STR    O0A 7820   9.036  10.275  13.316
    1STR    O0B 7821   8.872  10.416  13.242
    1STR    C0C 7822   8.943  10.537  13.284
    1STR    C0D 7823   9.053  10.569  13.181
    1STR    C0E 7824   8.852  10.663  13.307
    1STR    O0F 7825   8.923  10.787  13.337
    1STR    C0G 7826   8.844  10.905  13.368
    1STR    C0H 7827   8.794  10.894  13.513
    1STR    C0I 7828   8.922  11.041  13.349
    1STR    O0J 7829   8.836  11.159  13.350
    1STR    C0K 7830   8.897  11.291  13.336
    1STR    C0M 7831   8.968  11.302  13.200
    1STR    C0N 7832   8.792  11.408  13.347
    1STR    O0O 7833   8.849  11.541  13.333
    1STR    C0P 7834   8.781  11.647  13.276
    1STR    O0Q 7835   8.673  11.639  13.219
    1STR    N0R 7836   8.851  11.760  13.293
    1STR    C0S 7837   8.837  11.897  13.256
    1STR    C0T 7838   8.929  11.982  13.319
    1STR    C0U 7839   8.939  12.118  13.284
    1STR    C0V 7840   8.856  12.173  13.185
    1STR    C0W 7841   8.888  12.316  13.141
    1STR    C0X 7842   8.754  12.095  13.124
    1STR    N0Y 7843   8.673  12.151  13.022
    1STR   BCK2 7844   8.610  12.272  13.016
    1STR    O10 7845   8.594  12.346  13.111
    1STR    C13 7846   8.747  11.955  13.160
    1STR    C14 7847   8.987   9.989  13.276
    1STR    C15 7848   9.005   9.850  13.286
    1STR    C16 7849   8.915   9.759  13.227
    1STR    C17 7850   8.937   9.613  13.262
    1STR    H1B 7851   8.622   9.758  13.069
    1STR    H1C 7852   8.707   9.990  13.085
    1STR    H1D 7853   8.773  10.220  13.160
    1STR    H1E 7854   8.992  10.515  13.379
    1STR    H1F 7855   9.010  10.591  13.083
    1STR    H1G 7856   9.111  10.656  13.212
    1STR    H1H 7857   9.122  10.486  13.170
    1STR    H1I 7858   8.783  10.640  13.389
    1STR    H1J 7859   8.790  10.679  13.219
    1STR    H1K 7860   8.759  10.908  13.300
    1STR    H1M 7861   8.877  10.882  13.582
    1STR    H1N 7862   8.727  10.809  13.527
    1STR    H1O 7863   8.739  10.983  13.542
    1STR    H1P 7864   8.999  11.050  13.426
    1STR    H1Q 7865   8.974  11.035  13.254
    1STR    H1R 7866   8.971  11.304  13.415
    1STR    H1S 7867   9.008  11.402  13.185
    1STR    H1T 7868   8.898  11.282  13.118
    1STR    H1U 7869   9.052  11.233  13.190
    1STR    H1V 7870   8.743  11.404  13.444
    1STR    H1W 7871   8.712  11.394  13.274
    1STR    H1X 7872   8.932  11.739  13.347
    1STR    H1Y 7873   8.997  11.945  13.394
    1STR    H1Z 7874   9.014  12.179  13.332
    1STR    H20 7875   8.872  12.329  13.034
    1STR    H21 7876   8.827  12.387  13.196
    1STR    H22 7877   8.993  12.340  13.160
    1STR    H23 7878   8.661  12.095  12.940
    1STR    H27 7879   8.675  11.891  13.112
    1STR    H28 7880   9.061  10.049  13.327
    1STR    H29 7881   9.088   9.813  13.344
    1STR    H2A 7882   8.843   9.559  13.270
    1STR    H2B 7883   8.988   9.603  13.358
    1STR    H2C 7884   9.001   9.566  13.187
    1STR   BCK1 7885   8.587  13.948  17.301
    1STR    O03 7886   8.466  13.960  17.283
    1STR    N04 7887   8.674  14.050  17.291
    1STR    C05 7888   8.659  14.162  17.207
    1STR    C06 7889   8.672  14.299  17.250
    1STR    C07 7890   8.664  14.409  17.158
    1STR    N08 7891   8.682  14.545  17.198
    1STR    C09 7892   8.659  14.660  17.128
    1STR    O0A 7893   8.604  14.662  17.018
    1STR    O0B 7894   8.701  14.776  17.190
    1STR    C0C 7895   8.679  14.904  17.125
    1STR    C0D 7896   8.532  14.945  17.139
    1STR    C0E 7897   8.772  15.020  17.174
    1STR    O0F 7898   8.745  15.143  17.103
    1STR    C0G 7899   8.825  15.260  17.136
    1STR    C0H 7900   8.962  15.247  17.069
    1STR    C0I 7901   8.752  15.390  17.090
    1STR    O0J 7902   8.811  15.512  17.140
    1STR    C0K 7903   8.746  15.636  17.102
    1STR    C0M 7904   8.608  15.646  17.171
    1STR    C0N 7905   8.828  15.764  17.139
    1STR    O0O 7906   8.768  15.878  17.075
    1STR    C0P 7907   8.766  16.002  17.130
    1STR    O0Q 7908   8.799  16.032  17.244
    1STR    N0R 7909   8.726  16.088  17.036
    1STR    C0S 7910   8.716  16.228  17.024
    1STR    C0T 7911   8.761  16.278  16.902
    1STR    C0U 7912   8.743  16.413  16.869
    1STR    C0V 7913   8.677  16.501  16.955
    1STR    C0W 7914   8.657  16.640  16.898
    1STR    C0X 7915   8.629  16.457  17.082
    1STR    N0Y 7916   8.550  16.531  17.174
    1STR   BCK2 7917   8.499  16.655  17.199
    1STR    O10 7918   8.414  16.663  17.287
    1STR    C13 7919   8.653  16.319  17.115
    1STR    C14 7920   8.643  14.376  17.022
    1STR    C15 7921   8.632  14.244  16.978
    1STR    C16 7922   8.643  14.137  17.068
    1STR    C17 7923   8.645  13.996  17.011
    1STR    H1B 7924   8.766  14.033  17.328
    1STR    H1C 7925   8.688  14.318  17.355
    1STR    H1D 7926   8.718  14.563  17.290
    1STR    H1E 7927   8.701  14.891  17.018
    1STR    H1F 7928   8.504  14.961  17.243
    1STR    H1G 7929   8.512  15.038  17.085
    1STR    H1H 7930   8.465  14.870  17.097
    1STR    H1I 7931   8.876  14.990  17.159
    1STR    H1J 7932   8.759  15.035  17.281
    1STR    H1K 7933   8.837  15.265  17.245
    1STR    H1M 7934   8.952  15.234  16.961
    1STR    H1N 7935   9.019  15.162  17.106
    1STR    H1O 7936   9.022  15.336  17.085
    1STR    H1P 7937   8.748  15.393  16.981
    1STR    H1Q 7938   8.649  15.383  17.124
    1STR    H1R 7939   8.733  15.635  16.994
    1STR    H1S 7940   8.562  15.743  17.151
    1STR    H1T 7941   8.618  15.636  17.279
    1STR    H1U 7942   8.538  15.570  17.136
    1STR    H1V 7943   8.930  15.754  17.102
    1STR    H1W 7944   8.834  15.777  17.247
    1STR    H1X 7945   8.710  16.037  16.951
    1STR    H1Y 7946   8.810  16.214  16.830
    1STR    H1Z 7947   8.779  16.447  16.772
    1STR    H20 7948   8.551  16.665  16.898
    1STR    H21 7949   8.716  16.711  16.955
    1STR    H22 7950   8.690  16.648  16.795
    1STR    H23 7951   8.514  16.474  17.248
    1STR    H27 7952   8.619  16.278  17.209
    1STR    H28 7953   8.637  14.451  16.945
    1STR    H29 7954   8.618  14.224  16.873
    1STR    H2A 7955   8.725  13.937  17.056
    1STR    H2B 7956   8.661  13.996  16.904
    1STR    H2C 7957   8.550  13.946  17.031
    1STR   BCK1 7958   8.579  13.944   4.333
    1STR    O03 7959   8.655  13.885   4.409
    1STR    N04 7960   8.539  14.073   4.349
    1STR    C05 7961   8.549  14.164   4.458
    1STR    C06 7962   8.559  14.306   4.434
    1STR    C07 7963   8.556  14.405   4.538
    1STR    N08 7964   8.561  14.545   4.512
    1STR    C09 7965   8.526  14.650   4.592
    1STR    O0A 7966   8.478  14.637   4.704
    1STR    O0B 7967   8.547  14.775   4.534
    1STR    C0C 7968   8.522  14.897   4.609
    1STR    C0D 7969   8.641  14.925   4.703
    1STR    C0E 7970   8.493  15.022   4.519
    1STR    O0F 7971   8.468  15.145   4.592
    1STR    C0G 7972   8.430  15.262   4.515
    1STR    C0H 7973   8.283  15.247   4.473
    1STR    C0I 7974   8.449  15.396   4.593
    1STR    O0J 7975   8.427  15.514   4.510
    1STR    C0K 7976   8.438  15.645   4.571
    1STR    C0M 7977   8.583  15.670   4.615
    1STR    C0N 7978   8.393  15.759   4.473
    1STR    O0O 7979   8.391  15.890   4.535
    1STR    C0P 7980   8.409  16.004   4.462
    1STR    O0Q 7981   8.436  16.008   4.342
    1STR    N0R 7982   8.396  16.112   4.541
    1STR    C0S 7983   8.415  16.251   4.521
    1STR    C0T 7984   8.420  16.329   4.638
    1STR    C0U 7985   8.450  16.467   4.632
    1STR    C0V 7986   8.472  16.532   4.509
    1STR    C0W 7987   8.525  16.674   4.517
    1STR    C0X 7988   8.454  16.461   4.387
    1STR    N0Y 7989   8.470  16.516   4.258
    1STR   BCK2 7990   8.447  16.630   4.189
    1STR    O10 7991   8.468  16.628   4.068
    1STR    C13 7992   8.430  16.319   4.397
    1STR    C14 7993   8.549  14.356   4.670
    1STR    C15 7994   8.538  14.219   4.697
    1STR    C16 7995   8.534  14.123   4.594
    1STR    C17 7996   8.506  13.980   4.636
    1STR    H1B 7997   8.492  14.107   4.268
    1STR    H1C 7998   8.568  14.340   4.332
    1STR    H1D 7999   8.594  14.575   4.423
    1STR    H1E 8000   8.433  14.882   4.671
    1STR    H1F 8001   8.733  14.942   4.647
    1STR    H1G 8002   8.622  15.014   4.764
    1STR    H1H 8003   8.657  14.843   4.772
    1STR    H1I 8004   8.407  14.998   4.456
    1STR    H1J 8005   8.577  15.037   4.451
    1STR    H1K 8006   8.493  15.267   4.426
    1STR    H1M 8007   8.218  15.233   4.560
    1STR    H1N 8008   8.267  15.163   4.406
    1STR    H1O 8009   8.248  15.336   4.420
    1STR    H1P 8010   8.382  15.399   4.679
    1STR    H1Q 8011   8.550  15.398   4.633
    1STR    H1R 8012   8.372  15.648   4.658
    1STR    H1S 8013   8.594  15.772   4.654
    1STR    H1T 8014   8.651  15.660   4.531
    1STR    H1U 8015   8.615  15.603   4.694
    1STR    H1V 8016   8.292  15.739   4.436
    1STR    H1W 8017   8.458  15.760   4.385
    1STR    H1X 8018   8.372  16.083   4.634
    1STR    H1Y 8019   8.407  16.284   4.736
    1STR    H1Z 8020   8.460  16.521   4.725
    1STR    H20 8021   8.602  16.690   4.441
    1STR    H21 8022   8.445  16.746   4.505
    1STR    H22 8023   8.570  16.694   4.614
    1STR    H23 8024   8.502  16.448   4.191
    1STR    H27 8025   8.423  16.261   4.306
    1STR    H28 8026   8.551  14.422   4.756
    1STR    H29 8027   8.529  14.187   4.800
    1STR    H2A 8028   8.445  13.928   4.563
    1STR    H2B 8029   8.452  13.977   4.731
    1STR    H2C 8030   8.600  13.926   4.649
    1STR   BCK1 8031   8.714  13.963   8.560
    1STR    O03 8032   8.792  13.908   8.483
    1STR    N04 8033   8.735  14.082   8.622
    1STR    C05 8034   8.847  14.171   8.623
    1STR    C06 8035   8.827  14.314   8.637
    1STR    C07 8036   8.934  14.409   8.639
    1STR    N08 8037   8.914  14.549   8.659
    1STR    C09 8038   8.998  14.655   8.640
    1STR    O0A 8039   9.110  14.644   8.590
    1STR    O0B 8040   8.948  14.778   8.681
    1STR    C0C 8041   9.023  14.902   8.656
    1STR    C0D 8042   9.007  14.939   8.507
    1STR    C0E 8043   8.985  15.024   8.746
    1STR    O0F 8044   9.052  15.149   8.710
    1STR    C0G 8045   9.026  15.268   8.789
    1STR    C0H 8046   9.107  15.257   8.920
    1STR    C0I 8047   9.063  15.401   8.713
    1STR    O0J 8048   9.014  15.523   8.774
    1STR    C0K 8049   9.040  15.650   8.706
    1STR    C0M 8050   8.966  15.652   8.571
    1STR    C0N 8051   8.995  15.777   8.787
    1STR    O0O 8052   9.029  15.901   8.721
    1STR    C0P 8053   8.946  16.011   8.719
    1STR    O0Q 8054   8.831  16.014   8.761
    1STR    N0R 8055   9.010  16.117   8.666
    1STR    C0S 8056   8.978  16.252   8.639
    1STR    C0T 8057   9.089  16.338   8.624
    1STR    C0U 8058   9.072  16.474   8.594
    1STR    C0V 8059   8.944  16.531   8.577
    1STR    C0W 8060   8.940  16.680   8.551
    1STR    C0X 8061   8.828  16.450   8.590
    1STR    N0Y 8062   8.695  16.499   8.588
    1STR   BCK2 8063   8.616  16.600   8.542
    1STR    O10 8064   8.500  16.602   8.582
    1STR    C13 8065   8.848  16.311   8.623
    1STR    C14 8066   9.064  14.357   8.625
    1STR    C15 8067   9.087  14.219   8.616
    1STR    C16 8068   8.982  14.126   8.620
    1STR    C17 8069   9.022  13.980   8.630
    1STR    H1B 8070   8.655  14.112   8.674
    1STR    H1C 8071   8.726  14.350   8.645
    1STR    H1D 8072   8.824  14.579   8.694
    1STR    H1E 8073   9.129  14.881   8.673
    1STR    H1F 8074   8.903  14.960   8.483
    1STR    H1G 8075   9.066  15.027   8.482
    1STR    H1H 8076   9.041  14.858   8.442
    1STR    H1I 8077   9.009  14.999   8.850
    1STR    H1J 8078   8.877  15.040   8.742
    1STR    H1K 8079   8.920  15.272   8.812
    1STR    H1M 8080   9.213  15.245   8.900
    1STR    H1N 8081   9.075  15.173   8.982
    1STR    H1O 8082   9.095  15.347   8.980
    1STR    H1P 8083   9.171  15.407   8.701
    1STR    H1Q 8084   9.022  15.391   8.613
    1STR    H1R 8085   9.147  15.658   8.689
    1STR    H1S 8086   8.978  15.749   8.522
    1STR    H1T 8087   8.859  15.636   8.585
    1STR    H1U 8088   9.004  15.578   8.501
    1STR    H1V 8089   9.045  15.777   8.885
    1STR    H1W 8090   8.888  15.773   8.809
    1STR    H1X 8091   9.104  16.090   8.645
    1STR    H1Y 8092   9.189  16.301   8.637
    1STR    H1Z 8093   9.160  16.536   8.584
    1STR    H20 8094   8.921  16.697   8.445
    1STR    H21 8095   8.864  16.728   8.611
    1STR    H22 8096   9.035  16.728   8.574
    1STR    H23 8097   8.632  16.438   8.638
    1STR    H27 8098   8.763  16.246   8.636
    1STR    H28 8099   9.152  14.420   8.625
    1STR    H29 8100   9.189  14.184   8.610
    1STR    H2A 8101   8.951  13.922   8.688
    1STR    H2B 8102   9.119  13.969   8.679
    1STR    H2C 8103   9.031  13.936   8.530
    1STR   BCK1 8104   8.595  13.933  12.969
    1STR    O03 8105   8.542  13.904  13.076
    1STR    N04 8106   8.608  14.059  12.923
    1STR    C05 8107   8.516  14.166  12.935
    1STR    C06 8108   8.559  14.302  12.945
    1STR    C07 8109   8.468  14.413  12.938
    1STR    N08 8110   8.510  14.549  12.941
    1STR    C09 8111   8.443  14.661  12.906
    1STR    O0A 8112   8.330  14.661  12.858
    1STR    O0B 8113   8.512  14.779  12.928
    1STR    C0C 8114   8.445  14.907  12.910
    1STR    C0D 8115   8.367  14.940  13.038
    1STR    C0E 8116   8.540  15.024  12.871
    1STR    O0F 8117   8.467  15.147  12.850
    1STR    C0G 8118   8.541  15.263  12.804
    1STR    C0H 8119   8.571  15.246  12.655
    1STR    C0I 8120   8.461  15.394  12.829
    1STR    O0J 8121   8.537  15.514  12.797
    1STR    C0K 8122   8.470  15.641  12.812
    1STR    C0M 8123   8.445  15.670  12.961
    1STR    C0N 8124   8.553  15.758  12.749
    1STR    O0O 8125   8.472  15.876  12.730
    1STR    C0P 8126   8.513  16.000  12.768
    1STR    O0Q 8127   8.617  16.027  12.826
    1STR    N0R 8128   8.417  16.089  12.738
    1STR    C0S 8129   8.395  16.222  12.778
    1STR    C0T 8130   8.264  16.250  12.822
    1STR    C0U 8131   8.230  16.376  12.873
    1STR    C0V 8132   8.325  16.480  12.877
    1STR    C0W 8133   8.290  16.605  12.957
    1STR    C0X 8134   8.454  16.461  12.820
    1STR    N0Y 8135   8.547  16.565  12.821
    1STR   BCK2 8136   8.542  16.695  12.783
    1STR    O10 8137   8.630  16.771  12.819
    1STR    C13 8138   8.489  16.329  12.776
    1STR    C14 8139   8.331  14.380  12.925
    1STR    C15 8140   8.287  14.248  12.915
    1STR    C16 8141   8.377  14.141  12.917
    1STR    C17 8142   8.320  14.002  12.890
    1STR    H1B 8143   8.684  14.072  12.859
    1STR    H1C 8144   8.665  14.323  12.957
    1STR    H1D 8145   8.603  14.568  12.974
    1STR    H1E 8146   8.374  14.897  12.827
    1STR    H1F 8147   8.433  14.952  13.123
    1STR    H1G 8148   8.310  15.032  13.026
    1STR    H1H 8149   8.295  14.861  13.061
    1STR    H1I 8150   8.594  14.997  12.781
    1STR    H1J 8151   8.615  15.039  12.949
    1STR    H1K 8152   8.634  15.270  12.860
    1STR    H1M 8153   8.479  15.231  12.597
    1STR    H1N 8154   8.637  15.161  12.635
    1STR    H1O 8155   8.621  15.335  12.615
    1STR    H1P 8156   8.369  15.393  12.770
    1STR    H1Q 8157   8.431  15.396  12.933
    1STR    H1R 8158   8.375  15.636  12.759
    1STR    H1S 8159   8.404  15.770  12.975
    1STR    H1T 8160   8.539  15.666  13.018
    1STR    H1U 8161   8.375  15.600  13.007
    1STR    H1V 8162   8.589  15.728  12.651
    1STR    H1W 8163   8.641  15.779  12.809
    1STR    H1X 8164   8.342  16.044  12.690
    1STR    H1Y 8165   8.189  16.173  12.822
    1STR    H1Z 8166   8.131  16.392  12.913
    1STR    H20 8167   8.375  16.637  13.017
    1STR    H21 8168   8.261  16.687  12.892
    1STR    H22 8169   8.207  16.587  13.025
    1STR    H23 8170   8.637  16.544  12.863
    1STR    H27 8171   8.590  16.309  12.741
    1STR    H28 8172   8.254  14.456  12.922
    1STR    H29 8173   8.182  14.229  12.901
    1STR    H2A 8174   8.379  13.950  12.815
    1STR    H2B 8175   8.218  14.007  12.852
    1STR    H2C 8176   8.318  13.944  12.981
    1STR   BCK1 8177  13.034   0.873  17.429
    1STR    O03 8178  13.136   0.809   0.014
    1STR    N04 8179  13.009   0.999   0.035
    1STR    C05 8180  13.077   1.086   0.126
    1STR    C06 8181  13.066   1.229   0.112
    1STR    C07 8182  13.126   1.324   0.203
    1STR    N08 8183  13.110   1.465   0.190
    1STR    C09 8184  13.147   1.568   0.272
    1STR    O0A 8185  13.206   1.553   0.378
    1STR    O0B 8186  13.113   1.695   0.225
    1STR    C0C 8187  13.155   1.816   0.297
    1STR    C0D 8188  13.302   1.845   0.266
    1STR    C0E 8189  13.066   1.942   0.267
    1STR    O0F 8190  13.111   2.065   0.331
    1STR    C0G 8191  13.027   2.183   0.315
    1STR    C0H 8192  12.906   2.170   0.409
    1STR    C0I 8193  13.101   2.319   0.342
    1STR    O0J 8194  13.023   2.436   0.301
    1STR    C0K 8195  13.078   2.569   0.324
    1STR    C0M 8196  13.208   2.587   0.244
    1STR    C0N 8197  12.976   2.682   0.282
    1STR    O0O 8198  13.025   2.817   0.305
    1STR    C0P 8199  12.986   2.924   0.228
    1STR    O0Q 8200  12.916   2.917   0.127
    1STR    N0R 8201  13.035   3.038   0.279
    1STR    C0S 8202  13.037   3.175   0.242
    1STR    C0T 8203  13.108   3.257   0.331
    1STR    C0U 8204  13.130   3.393   0.303
    1STR    C0V 8205  13.081   3.452   0.186
    1STR    C0W 8206  13.126   3.594   0.156
    1STR    C0X 8207  12.998   3.377   0.097
    1STR    N0Y 8208  12.947   3.437  17.420
    1STR   BCK2 8209  12.888   3.558  17.402
    1STR    O10 8210  12.848   3.629   0.054
    1STR    C13 8211  12.980   3.237   0.125
    1STR    C14 8212  13.203   1.268   0.308
    1STR    C15 8213  13.212   1.130   0.326
    1STR    C16 8214  13.148   1.039   0.241
    1STR    C17 8215  13.153   0.893   0.283
    1STR    H1B 8216  12.926   1.037  17.433
    1STR    H1C 8217  13.010   1.268   0.029
    1STR    H1D 8218  13.063   1.499   0.108
    1STR    H1E 8219  13.146   1.796   0.404
    1STR    H1F 8220  13.318   1.865   0.160
    1STR    H1G 8221  13.337   1.932   0.322
    1STR    H1H 8222  13.366   1.761   0.294
    1STR    H1I 8223  12.964   1.919   0.298
    1STR    H1J 8224  13.063   1.958   0.159
    1STR    H1K 8225  12.992   2.187   0.211
    1STR    H1M 8226  12.938   2.158   0.512
    1STR    H1N 8227  12.842   2.086   0.384
    1STR    H1O 8228  12.844   2.260   0.405
    1STR    H1P 8229  13.126   2.327   0.448
    1STR    H1Q 8230  13.195   2.317   0.288
    1STR    H1R 8231  13.099   2.580   0.430
    1STR    H1S 8232  13.246   2.689   0.255
    1STR    H1T 8233  13.191   2.570   0.138
    1STR    H1U 8234  13.287   2.521   0.278
    1STR    H1V 8235  12.884   2.671   0.339
    1STR    H1W 8236  12.948   2.670   0.177
    1STR    H1X 8237  13.084   3.016   0.364
    1STR    H1Y 8238  13.151   3.218   0.422
    1STR    H1Z 8239  13.190   3.452   0.372
    1STR    H20 8240  13.140   3.609   0.048
    1STR    H21 8241  13.054   3.667   0.193
    1STR    H22 8242  13.222   3.616   0.202
    1STR    H23 8243  12.958   3.385  17.334
    1STR    H27 8244  12.923   3.175   0.057
    1STR    H28 8245  13.255   1.329   0.380
    1STR    H29 8246  13.269   1.093   0.411
    1STR    H2A 8247  13.061   0.841   0.259
    1STR    H2B 8248  13.167   0.884   0.391
    1STR    H2C 8249  13.238   0.843   0.236
    1STR   BCK1 8250  12.988   0.871   4.188
    1STR    O03 8251  12.901   0.885   4.102
    1STR    N04 8252  13.072   0.970   4.226
    1STR    C05 8253  13.116   1.079   4.147
    1STR    C06 8254  13.109   1.218   4.187
    1STR    C07 8255  13.165   1.324   4.107
    1STR    N08 8256  13.164   1.462   4.146
    1STR    C09 8257  13.190   1.574   4.072
    1STR    O0A 8258  13.209   1.572   3.951
    1STR    O0B 8259  13.193   1.694   4.144
    1STR    C0C 8260  13.214   1.821   4.074
    1STR    C0D 8261  13.083   1.861   4.003
    1STR    C0E 8262  13.265   1.940   4.162
    1STR    O0F 8263  13.279   2.064   4.087
    1STR    C0G 8264  13.326   2.183   4.156
    1STR    C0H 8265  13.479   2.171   4.174
    1STR    C0I 8266  13.290   2.313   4.076
    1STR    O0J 8267  13.311   2.438   4.148
    1STR    C0K 8268  13.272   2.561   4.081
    1STR    C0M 8269  13.119   2.566   4.068
    1STR    C0N 8270  13.318   2.692   4.153
    1STR    O0O 8271  13.294   2.809   4.070
    1STR    C0P 8272  13.245   2.927   4.119
    1STR    O0Q 8273  13.203   2.946   4.232
    1STR    N0R 8274  13.254   3.022   4.024
    1STR    C0S 8275  13.231   3.161   4.019
    1STR    C0T 8276  13.327   3.235   3.947
    1STR    C0U 8277  13.314   3.374   3.932
    1STR    C0V 8278  13.204   3.444   3.985
    1STR    C0W 8279  13.210   3.595   3.973
    1STR    C0X 8280  13.101   3.374   4.053
    1STR    N0Y 8281  12.989   3.438   4.113
    1STR   BCK2 8282  12.908   3.546   4.097
    1STR    O10 8283  12.826   3.568   4.186
    1STR    C13 8284  13.119   3.233   4.072
    1STR    C14 8285  13.229   1.285   3.987
    1STR    C15 8286  13.238   1.151   3.948
    1STR    C16 8287  13.185   1.048   4.028
    1STR    C17 8288  13.211   0.904   3.985
    1STR    H1B 8289  13.125   0.951   4.310
    1STR    H1C 8290  13.060   1.242   4.280
    1STR    H1D 8291  13.140   1.484   4.241
    1STR    H1E 8292  13.290   1.804   3.998
    1STR    H1F 8293  13.003   1.879   4.074
    1STR    H1G 8294  13.098   1.952   3.944
    1STR    H1H 8295  13.050   1.784   3.933
    1STR    H1I 8296  13.361   1.913   4.206
    1STR    H1J 8297  13.197   1.956   4.246
    1STR    H1K 8298  13.278   2.189   4.253
    1STR    H1M 8299  13.529   2.158   4.078
    1STR    H1N 8300  13.507   2.088   4.237
    1STR    H1O 8301  13.519   2.262   4.220
    1STR    H1P 8302  13.346   2.316   3.983
    1STR    H1Q 8303  13.185   2.305   4.049
    1STR    H1R 8304  13.317   2.561   3.982
    1STR    H1S 8305  13.087   2.662   4.027
    1STR    H1T 8306  13.072   2.556   4.166
    1STR    H1U 8307  13.079   2.489   4.003
    1STR    H1V 8308  13.425   2.688   4.173
    1STR    H1W 8309  13.270   2.703   4.250
    1STR    H1X 8310  13.297   2.982   3.942
    1STR    H1Y 8311  13.413   3.187   3.905
    1STR    H1Z 8312  13.392   3.427   3.879
    1STR    H20 8313  13.160   3.627   3.882
    1STR    H21 8314  13.165   3.644   4.059
    1STR    H22 8315  13.313   3.631   3.967
    1STR    H23 8316  12.956   3.390   4.195
    1STR    H27 8317  13.045   3.176   4.127
    1STR    H28 8318  13.276   1.356   3.921
    1STR    H29 8319  13.290   1.127   3.856
    1STR    H2A 8320  13.248   0.846   4.070
    1STR    H2B 8321  13.287   0.899   3.907
    1STR    H2C 8322  13.120   0.859   3.948
    1STR   BCK1 8323  12.961   0.861   8.636
    1STR    O03 8324  13.070   0.805   8.645
    1STR    N04 8325  12.956   0.990   8.679
    1STR    C05 8326  12.863   1.082   8.732
    1STR    C06 8327  12.883   1.223   8.714
    1STR    C07 8328  12.810   1.323   8.787
    1STR    N08 8329  12.834   1.462   8.769
    1STR    C09 8330  12.772   1.571   8.821
    1STR    O0A 8331  12.676   1.565   8.898
    1STR    O0B 8332  12.825   1.692   8.781
    1STR    C0C 8333  12.771   1.817   8.830
    1STR    C0D 8334  12.827   1.847   8.971
    1STR    C0E 8335  12.797   1.938   8.735
    1STR    O0F 8336  12.737   2.061   8.782
    1STR    C0G 8337  12.748   2.177   8.696
    1STR    C0H 8338  12.649   2.162   8.580
    1STR    C0I 8339  12.721   2.309   8.773
    1STR    O0J 8340  12.745   2.426   8.692
    1STR    C0K 8341  12.719   2.556   8.750
    1STR    C0M 8342  12.821   2.585   8.861
    1STR    C0N 8343  12.724   2.669   8.643
    1STR    O0O 8344  12.680   2.795   8.697
    1STR    C0P 8345  12.727   2.914   8.651
    1STR    O0Q 8346  12.810   2.929   8.562
    1STR    N0R 8347  12.672   3.013   8.722
    1STR    C0S 8348  12.694   3.151   8.732
    1STR    C0T 8349  12.661   3.206   8.858
    1STR    C0U 8350  12.679   3.342   8.883
    1STR    C0V 8351  12.725   3.430   8.783
    1STR    C0W 8352  12.739   3.575   8.826
    1STR    C0X 8353  12.751   3.381   8.651
    1STR    N0Y 8354  12.770   3.465   8.538
    1STR   BCK2 8355  12.808   3.593   8.518
    1STR    O10 8356  12.867   3.665   8.597
    1STR    C13 8357  12.738   3.240   8.630
    1STR    C14 8358  12.717   1.275   8.882
    1STR    C15 8359  12.696   1.138   8.901
    1STR    C16 8360  12.768   1.041   8.829
    1STR    C17 8361  12.747   0.896   8.866
    1STR    H1B 8362  13.051   1.022   8.685
    1STR    H1C 8363  12.958   1.255   8.643
    1STR    H1D 8364  12.910   1.489   8.708
    1STR    H1E 8365  12.663   1.807   8.839
    1STR    H1F 8366  12.936   1.859   8.969
    1STR    H1G 8367  12.784   1.938   9.011
    1STR    H1H 8368  12.804   1.766   9.041
    1STR    H1I 8369  12.757   1.912   8.637
    1STR    H1J 8370  12.904   1.952   8.722
    1STR    H1K 8371  12.850   2.183   8.657
    1STR    H1M 8372  12.547   2.148   8.617
    1STR    H1N 8373  12.673   2.078   8.515
    1STR    H1O 8374  12.649   2.251   8.517
    1STR    H1P 8375  12.618   2.310   8.810
    1STR    H1Q 8376  12.785   2.312   8.861
    1STR    H1R 8377  12.618   2.555   8.793
    1STR    H1S 8378  12.808   2.686   8.901
    1STR    H1T 8379  12.923   2.579   8.822
    1STR    H1U 8380  12.813   2.517   8.945
    1STR    H1V 8381  12.659   2.645   8.559
    1STR    H1W 8382  12.825   2.678   8.602
    1STR    H1X 8383  12.606   2.974   8.787
    1STR    H1Y 8384  12.624   3.144   8.938
    1STR    H1Z 8385  12.656   3.380   8.981
    1STR    H20 8386  12.845   3.602   8.827
    1STR    H21 8387  12.684   3.642   8.761
    1STR    H22 8388  12.703   3.592   8.928
    1STR    H23 8389  12.746   3.421   8.450
    1STR    H27 8390  12.760   3.198   8.533
    1STR    H28 8391  12.661   1.342   8.945
    1STR    H29 8392  12.625   1.107   8.977
    1STR    H2A 8393  12.696   0.843   8.786
    1STR    H2B 8394  12.685   0.886   8.956
    1STR    H2C 8395  12.842   0.847   8.887
    1STR   BCK1 8396  13.093   0.879  12.985
    1STR    O03 8397  13.193   0.820  12.945
    1STR    N04 8398  13.094   1.001  13.046
    1STR    C05 8399  13.199   1.088  13.088
    1STR    C06 8400  13.180   1.232  13.091
    1STR    C07 8401  13.281   1.326  13.134
    1STR    N08 8402  13.258   1.467  13.142
    1STR    C09 8403  13.343   1.571  13.169
    1STR    O0A 8404  13.463   1.557  13.186
    1STR    O0B 8405  13.282   1.696  13.175
    1STR    C0C 8406  13.363   1.818  13.192
    1STR    C0D 8407  13.430   1.852  13.058
    1STR    C0E 8408  13.284   1.943  13.246
    1STR    O0F 8409  13.361   2.067  13.250
    1STR    C0G 8410  13.297   2.186  13.305
    1STR    C0H 8411  13.298   2.175  13.458
    1STR    C0I 8412  13.365   2.321  13.260
    1STR    O0J 8413  13.286   2.440  13.287
    1STR    C0K 8414  13.339   2.571  13.249
    1STR    C0M 8415  13.358   2.577  13.097
    1STR    C0N 8416  13.247   2.691  13.292
    1STR    O0O 8417  13.300   2.821  13.256
    1STR    C0P 8418  13.220   2.928  13.218
    1STR    O0Q 8419  13.100   2.921  13.195
    1STR    N0R 8420  13.293   3.040  13.210
    1STR    C0S 8421  13.271   3.176  13.178
    1STR    C0T 8422  13.373   3.262  13.224
    1STR    C0U 8423  13.375   3.398  13.188
    1STR    C0V 8424  13.276   3.453  13.105
    1STR    C0W 8425  13.299   3.596  13.057
    1STR    C0X 8426  13.166   3.374  13.062
    1STR    N0Y 8427  13.069   3.429  12.974
    1STR   BCK2 8428  13.007   3.550  12.976
    1STR    O10 8429  13.004   3.625  13.073
    1STR    C13 8430  13.166   3.234  13.099
    1STR    C14 8431  13.404   1.270  13.173
    1STR    C15 8432  13.425   1.131  13.175
    1STR    C16 8433  13.324   1.041  13.139
    1STR    C17 8434  13.355   0.894  13.164
    1STR    H1B 8435  13.001   1.035  13.062
    1STR    H1C 8436  13.085   1.271  13.059
    1STR    H1D 8437  13.164   1.500  13.127
    1STR    H1E 8438  13.441   1.796  13.265
    1STR    H1F 8439  13.357   1.874  12.981
    1STR    H1G 8440  13.495   1.939  13.068
    1STR    H1H 8441  13.493   1.770  13.023
    1STR    H1I 8442  13.248   1.919  13.347
    1STR    H1J 8443  13.195   1.959  13.185
    1STR    H1K 8444  13.194   2.189  13.269
    1STR    H1M 8445  13.400   2.163  13.496
    1STR    H1N 8446  13.239   2.091  13.494
    1STR    H1O 8447  13.256   2.265  13.504
    1STR    H1P 8448  13.463   2.330  13.306
    1STR    H1Q 8449  13.383   2.313  13.153
    1STR    H1R 8450  13.436   2.584  13.298
    1STR    H1S 8451  13.392   2.676  13.066
    1STR    H1T 8452  13.264   2.558  13.045
    1STR    H1U 8453  13.433   2.507  13.060
    1STR    H1V 8454  13.235   2.690  13.401
    1STR    H1W 8455  13.147   2.679  13.251
    1STR    H1X 8456  13.387   3.018  13.239
    1STR    H1Y 8457  13.453   3.226  13.286
    1STR    H1Z 8458  13.457   3.460  13.222
    1STR    H20 8459  13.266   3.609  12.954
    1STR    H21 8460  13.247   3.667  13.120
    1STR    H22 8461  13.405   3.621  13.059
    1STR    H23 8462  13.045   3.372  12.895
    1STR    H27 8463  13.087   3.169  13.064
    1STR    H28 8464  13.487   1.330  13.206
    1STR    H29 8465  13.521   1.094  13.209
    1STR    H2A 8466  13.266   0.839  13.193
    1STR    H2B 8467  13.426   0.883  13.246
    1STR    H2C 8468  13.399   0.849  13.076
    1STR   BCK1 8469  12.947   5.220  17.322
    1STR    O03 8470  12.831   5.223  17.362
    1STR    N04 8471  13.014   5.331  17.283
    1STR    C05 8472  12.956   5.443  17.221
    1STR    C06 8473  12.984   5.579  17.258
    1STR    C07 8474  12.931   5.692  17.185
    1STR    N08 8475  12.963   5.827  17.217
    1STR    C09 8476  12.922   5.943  17.158
    1STR    O0A 8477  12.840   5.948  17.067
    1STR    O0B 8478  12.980   6.058  17.209
    1STR    C0C 8479  12.937   6.188  17.157
    1STR    C0D 8480  12.802   6.226  17.221
    1STR    C0E 8481  13.040   6.304  17.174
    1STR    O0F 8482  12.990   6.428  17.118
    1STR    C0G 8483  13.078   6.543  17.119
    1STR    C0H 8484  13.182   6.527  17.007
    1STR    C0I 8485  12.998   6.676  17.101
    1STR    O0J 8486  13.076   6.795  17.125
    1STR    C0K 8487  13.011   6.923  17.105
    1STR    C0M 8488  12.900   6.943  17.211
    1STR    C0N 8489  13.110   7.044  17.112
    1STR    O0O 8490  13.054   7.161  17.051
    1STR    C0P 8491  13.051   7.285  17.109
    1STR    O0Q 8492  13.087   7.313  17.223
    1STR    N0R 8493  12.999   7.371  17.021
    1STR    C0S 8494  12.953   7.504  17.018
    1STR    C0T 8495  12.880   7.534  16.901
    1STR    C0U 8496  12.809   7.653  16.890
    1STR    C0V 8497  12.810   7.749  16.993
    1STR    C0W 8498  12.704   7.856  16.984
    1STR    C0X 8499  12.898   7.733  17.104
    1STR    N0Y 8500  12.906   7.830  17.206
    1STR   BCK2 8501  12.901   7.965  17.213
    1STR    O10 8502  12.889   8.018  17.323
    1STR    C13 8503  12.965   7.606  17.117
    1STR    C14 8504  12.846   5.660  17.076
    1STR    C15 8505  12.820   5.529  17.037
    1STR    C16 8506  12.877   5.421  17.105
    1STR    C17 8507  12.856   5.282  17.046
    1STR    H1B 8508  13.114   5.320  17.275
    1STR    H1C 8509  13.048   5.597  17.344
    1STR    H1D 8510  13.027   5.843  17.293
    1STR    H1E 8511  12.921   6.177  17.049
    1STR    H1F 8512  12.811   6.239  17.329
    1STR    H1G 8513  12.764   6.318  17.179
    1STR    H1H 8514  12.726   6.149  17.204
    1STR    H1I 8515  13.133   6.275  17.125
    1STR    H1J 8516  13.063   6.318  17.279
    1STR    H1K 8517  13.128   6.548  17.216
    1STR    H1M 8518  13.133   6.514  16.910
    1STR    H1N 8519  13.247   6.442  17.023
    1STR    H1O 8520  13.245   6.616  17.001
    1STR    H1P 8521  12.954   6.679  17.001
    1STR    H1Q 8522  12.914   6.673  17.171
    1STR    H1R 8523  12.966   6.923  17.005
    1STR    H1S 8524  12.857   7.042  17.203
    1STR    H1T 8525  12.941   6.932  17.311
    1STR    H1U 8526  12.818   6.872  17.200
    1STR    H1V 8527  13.200   7.019  17.056
    1STR    H1W 8528  13.142   7.063  17.215
    1STR    H1X 8529  12.985   7.319  16.936
    1STR    H1Y 8530  12.872   7.463  16.821
    1STR    H1Z 8531  12.747   7.669  16.803
    1STR    H20 8532  12.680   7.899  17.081
    1STR    H21 8533  12.734   7.935  16.915
    1STR    H22 8534  12.611   7.814  16.946
    1STR    H23 8535  12.920   7.793  17.299
    1STR    H27 8536  13.024   7.585  17.205
    1STR    H28 8537  12.798   5.735  17.016
    1STR    H29 8538  12.758   5.511  16.951
    1STR    H2A 8539  12.950   5.226  17.046
    1STR    H2B 8540  12.821   5.287  16.943
    1STR    H2C 8541  12.782   5.227  17.104
    1STR   BCK1 8542  12.970   5.227   4.352
    1STR    O03 8543  13.059   5.165   4.409
    1STR    N04 8544  12.933   5.355   4.381
    1STR    C05 8545  12.968   5.444   4.487
    1STR    C06 8546  12.969   5.587   4.465
    1STR    C07 8547  12.992   5.684   4.569
    1STR    N08 8548  12.987   5.825   4.547
    1STR    C09 8549  12.979   5.929   4.635
    1STR    O0A 8550  12.972   5.914   4.756
    1STR    O0B 8551  12.979   6.054   4.576
    1STR    C0C 8552  12.979   6.176   4.657
    1STR    C0D 8553  13.123   6.204   4.707
    1STR    C0E 8554  12.922   6.302   4.583
    1STR    O0F 8555  12.924   6.425   4.661
    1STR    C0G 8556  12.862   6.542   4.602
    1STR    C0H 8557  12.710   6.528   4.614
    1STR    C0I 8558  12.908   6.678   4.667
    1STR    O0J 8559  12.861   6.794   4.594
    1STR    C0K 8560  12.892   6.927   4.645
    1STR    C0M 8561  13.044   6.950   4.641
    1STR    C0N 8562  12.820   7.039   4.562
    1STR    O0O 8563  12.843   7.172   4.614
    1STR    C0P 8564  12.842   7.283   4.534
    1STR    O0Q 8565  12.833   7.281   4.411
    1STR    N0R 8566  12.855   7.394   4.608
    1STR    C0S 8567  12.869   7.531   4.578
    1STR    C0T 8568  12.893   7.615   4.689
    1STR    C0U 8569  12.918   7.752   4.673
    1STR    C0V 8570  12.917   7.811   4.546
    1STR    C0W 8571  12.960   7.957   4.534
    1STR    C0X 8572  12.884   7.733   4.432
    1STR    N0Y 8573  12.884   7.794   4.305
    1STR   BCK2 8574  12.803   7.892   4.262
    1STR    O10 8575  12.681   7.885   4.269
    1STR    C13 8576  12.864   7.592   4.449
    1STR    C14 8577  13.022   5.632   4.697
    1STR    C15 8578  13.020   5.494   4.722
    1STR    C16 8579  12.990   5.401   4.621
    1STR    C17 8580  12.976   5.256   4.667
    1STR    H1B 8581  12.870   5.391   4.313
    1STR    H1C 8582  12.949   5.623   4.366
    1STR    H1D 8583  12.989   5.857   4.451
    1STR    H1E 8584  12.916   6.159   4.744
    1STR    H1F 8585  13.191   6.222   4.624
    1STR    H1G 8586  13.125   6.292   4.771
    1STR    H1H 8587  13.161   6.120   4.765
    1STR    H1I 8588  12.819   6.279   4.554
    1STR    H1J 8589  12.977   6.318   4.491
    1STR    H1K 8590  12.890   6.547   4.497
    1STR    H1M 8591  12.680   6.515   4.719
    1STR    H1N 8592  12.671   6.444   4.558
    1STR    H1O 8593  12.659   6.618   4.577
    1STR    H1P 8594  12.874   6.683   4.770
    1STR    H1Q 8595  13.017   6.678   4.670
    1STR    H1R 8596  12.856   6.933   4.748
    1STR    H1S 8597  13.068   7.052   4.672
    1STR    H1T 8598  13.083   6.937   4.541
    1STR    H1U 8599  13.098   6.884   4.708
    1STR    H1V 8600  12.713   7.022   4.561
    1STR    H1W 8601  12.852   7.034   4.458
    1STR    H1X 8602  12.856   7.369   4.705
    1STR    H1Y 8603  12.896   7.575   4.789
    1STR    H1Z 8604  12.941   7.812   4.760
    1STR    H20 8605  13.038   7.967   4.458
    1STR    H21 8606  12.876   8.020   4.505
    1STR    H22 8607  13.001   7.995   4.627
    1STR    H23 8608  12.933   7.745   4.232
    1STR    H27 8609  12.844   7.531   4.363
    1STR    H28 8610  13.045   5.696   4.781
    1STR    H29 8611  13.039   5.460   4.823
    1STR    H2A 8612  12.898   5.204   4.611
    1STR    H2B 8613  12.948   5.251   4.772
    1STR    H2C 8614  13.070   5.204   4.655
    1STR   BCK1 8615  13.039   5.246   8.565
    1STR    O03 8616  12.986   5.267   8.456
    1STR    N04 8617  13.113   5.339   8.632
    1STR    C05 8618  13.191   5.444   8.579
    1STR    C06 8619  13.172   5.584   8.607
    1STR    C07 8620  13.265   5.686   8.563
    1STR    N08 8621  13.251   5.825   8.593
    1STR    C09 8622  13.319   5.934   8.546
    1STR    O0A 8623  13.404   5.927   8.458
    1STR    O0B 8624  13.284   6.056   8.604
    1STR    C0C 8625  13.344   6.181   8.555
    1STR    C0D 8626  13.276   6.219   8.422
    1STR    C0E 8627  13.340   6.304   8.654
    1STR    O0F 8628  13.390   6.428   8.596
    1STR    C0G 8629  13.394   6.547   8.679
    1STR    C0H 8630  13.513   6.537   8.775
    1STR    C0I 8631  13.404   6.679   8.593
    1STR    O0J 8632  13.379   6.803   8.666
    1STR    C0K 8633  13.380   6.928   8.590
    1STR    C0M 8634  13.262   6.930   8.492
    1STR    C0N 8635  13.372   7.057   8.678
    1STR    O0O 8636  13.385   7.179   8.600
    1STR    C0P 8637  13.309   7.292   8.620
    1STR    O0Q 8638  13.212   7.300   8.695
    1STR    N0R 8639  13.357   7.394   8.547
    1STR    C0S 8640  13.325   7.530   8.530
    1STR    C0T 8641  13.434   7.613   8.495
    1STR    C0U 8642  13.416   7.750   8.472
    1STR    C0V 8643  13.290   7.811   8.481
    1STR    C0W 8644  13.286   7.961   8.462
    1STR    C0X 8645  13.175   7.733   8.512
    1STR    N0Y 8646  13.045   7.786   8.532
    1STR   BCK2 8647  12.964   7.889   8.498
    1STR    O10 8648  12.856   7.898   8.556
    1STR    C13 8649  13.196   7.592   8.539
    1STR    C14 8650  13.378   5.639   8.492
    1STR    C15 8651  13.399   5.503   8.466
    1STR    C16 8652  13.309   5.406   8.510
    1STR    C17 8653  13.343   5.259   8.488
    1STR    H1B 8654  13.135   5.311   8.726
    1STR    H1C 8655  13.085   5.613   8.663
    1STR    H1D 8656  13.179   5.851   8.659
    1STR    H1E 8657  13.449   6.162   8.534
    1STR    H1F 8658  13.170   6.240   8.436
    1STR    H1G 8659  13.322   6.309   8.379
    1STR    H1H 8660  13.286   6.140   8.348
    1STR    H1I 8661  13.397   6.278   8.743
    1STR    H1J 8662  13.237   6.320   8.687
    1STR    H1K 8663  13.301   6.553   8.736
    1STR    H1M 8664  13.607   6.524   8.720
    1STR    H1N 8665  13.504   6.453   8.844
    1STR    H1O 8666  13.523   6.627   8.835
    1STR    H1P 8667  13.501   6.684   8.545
    1STR    H1Q 8668  13.331   6.669   8.513
    1STR    H1R 8669  13.474   6.933   8.534
    1STR    H1S 8670  13.256   7.025   8.441
    1STR    H1T 8671  13.168   6.916   8.546
    1STR    H1U 8672  13.269   6.853   8.415
    1STR    H1V 8673  13.452   7.057   8.752
    1STR    H1W 8674  13.279   7.059   8.736
    1STR    H1X 8675  13.440   7.362   8.499
    1STR    H1Y 8676  13.534   7.573   8.488
    1STR    H1Z 8677  13.503   7.810   8.448
    1STR    H20 8678  13.256   7.984   8.360
    1STR    H21 8679  13.218   8.008   8.533
    1STR    H22 8680  13.384   8.006   8.477
    1STR    H23 8681  12.990   7.729   8.595
    1STR    H27 8682  13.113   7.529   8.567
    1STR    H28 8683  13.455   5.706   8.457
    1STR    H29 8684  13.489   5.474   8.413
    1STR    H2A 8685  13.335   5.203   8.582
    1STR    H2B 8686  13.445   5.247   8.452
    1STR    H2C 8687  13.275   5.215   8.416
    1STR   BCK1 8688  12.972   5.212  12.971
    1STR    O03 8689  13.069   5.155  13.018
    1STR    N04 8690  12.953   5.341  13.006
    1STR    C05 8691  12.852   5.440  13.002
    1STR    C06 8692  12.888   5.579  12.993
    1STR    C07 8693  12.793   5.685  13.003
    1STR    N08 8694  12.831   5.823  12.998
    1STR    C09 8695  12.756   5.936  13.006
    1STR    O0A 8696  12.635   5.937  13.021
    1STR    O0B 8697  12.829   6.054  12.996
    1STR    C0C 8698  12.761   6.182  13.009
    1STR    C0D 8699  12.735   6.213  13.158
    1STR    C0E 8700  12.836   6.301  12.941
    1STR    O0F 8701  12.761   6.425  12.949
    1STR    C0G 8702  12.815   6.541  12.881
    1STR    C0H 8703  12.793   6.525  12.730
    1STR    C0I 8704  12.749   6.673  12.932
    1STR    O0J 8705  12.809   6.792  12.876
    1STR    C0K 8706  12.752   6.920  12.914
    1STR    C0M 8707  12.782   6.948  13.062
    1STR    C0N 8708  12.807   7.038  12.827
    1STR    O0O 8709  12.729   7.157  12.844
    1STR    C0P 8710  12.784   7.282  12.846
    1STR    O0Q 8711  12.903   7.308  12.835
    1STR    N0R 8712  12.688   7.373  12.866
    1STR    C0S 8713  12.691   7.510  12.899
    1STR    C0T 8714  12.594   7.552  12.992
    1STR    C0U 8715  12.595   7.683  13.041
    1STR    C0V 8716  12.687   7.778  12.995
    1STR    C0W 8717  12.696   7.907  13.074
    1STR    C0X 8718  12.773   7.746  12.886
    1STR    N0Y 8719  12.857   7.839  12.820
    1STR   BCK2 8720  12.847   7.967  12.777
    1STR    O10 8721  12.934   8.010  12.702
    1STR    C13 8722  12.778   7.609  12.845
    1STR    C14 8723  12.658   5.647  13.022
    1STR    C15 8724  12.621   5.512  13.033
    1STR    C16 8725  12.716   5.409  13.027
    1STR    C17 8726  12.667   5.268  13.058
    1STR    H1B 8727  13.036   5.370  13.056
    1STR    H1C 8728  12.992   5.604  12.980
    1STR    H1D 8729  12.929   5.844  12.987
    1STR    H1E 8730  12.665   6.174  12.959
    1STR    H1F 8731  12.828   6.224  13.214
    1STR    H1G 8732  12.679   6.306  13.168
    1STR    H1H 8733  12.676   6.134  13.205
    1STR    H1I 8734  12.855   6.275  12.837
    1STR    H1J 8735  12.934   6.315  12.988
    1STR    H1K 8736  12.922   6.548  12.902
    1STR    H1M 8737  12.687   6.511  12.707
    1STR    H1N 8738  12.848   6.441  12.688
    1STR    H1O 8739  12.826   6.615  12.677
    1STR    H1P 8740  12.642   6.672  12.909
    1STR    H1Q 8741  12.757   6.675  13.041
    1STR    H1R 8742  12.644   6.915  12.898
    1STR    H1S 8743  12.748   7.048  13.090
    1STR    H1T 8744  12.889   6.944  13.082
    1STR    H1U 8745  12.732   6.879  13.129
    1STR    H1V 8746  12.803   7.011  12.721
    1STR    H1W 8747  12.912   7.056  12.849
    1STR    H1X 8748  12.598   7.328  12.869
    1STR    H1Y 8749  12.523   7.482  13.033
    1STR    H1Z 8750  12.525   7.710  13.119
    1STR    H20 8751  12.794   7.954  13.063
    1STR    H21 8752  12.619   7.978  13.043
    1STR    H22 8753  12.682   7.888  13.180
    1STR    H23 8754  12.942   7.800  12.785
    1STR    H27 8755  12.849   7.578  12.769
    1STR    H28 8756  12.578   5.718  13.031
    1STR    H29 8757  12.517   5.488  13.051
    1STR    H2A 8758  12.640   5.217  12.966
    1STR    H2B 8759  12.579   5.271  13.121
    1STR    H2C 8760  12.742   5.211  13.111
    1STR   BCK1 8761  13.069   9.597  17.406
    1STR    O03 8762  13.174   9.534  17.408
    1STR    N04 8763  13.053   9.722   0.019
    1STR    C05 8764  13.137   9.808   0.096
    1STR    C06 8765  13.122   9.951   0.087
    1STR    C07 8766  13.201  10.045   0.164
    1STR    N08 8767  13.180  10.187   0.158
    1STR    C09 8768  13.242  10.290   0.224
    1STR    O0A 8769  13.334  10.275   0.303
    1STR    O0B 8770  13.191  10.416   0.194
    1STR    C0C 8771  13.253  10.537   0.250
    1STR    C0D 8772  13.382  10.568   0.171
    1STR    C0E 8773  13.159  10.663   0.252
    1STR    O0F 8774  13.223  10.787   0.297
    1STR    C0G 8775  13.138  10.905   0.310
    1STR    C0H 8776  13.058  10.893   0.441
    1STR    C0I 8777  13.218  11.041   0.309
    1STR    O0J 8778  13.133  11.159   0.293
    1STR    C0K 8779  13.193  11.291   0.293
    1STR    C0M 8780  13.291  11.305   0.175
    1STR    C0N 8781  13.086  11.406   0.284
    1STR    O0O 8782  13.142  11.540   0.285
    1STR    C0P 8783  13.084  11.646   0.218
    1STR    O0Q 8784  12.988  11.638   0.142
    1STR    N0R 8785  13.148  11.760   0.249
    1STR    C0S 8786  13.140  11.897   0.210
    1STR    C0T 8787  13.225  11.982   0.284
    1STR    C0U 8788  13.239  12.117   0.251
    1STR    C0V 8789  13.169  12.174   0.144
    1STR    C0W 8790  13.207  12.316   0.104
    1STR    C0X 8791  13.073  12.096   0.072
    1STR    N0Y 8792  13.002  12.154  17.403
    1STR   BCK2 8793  12.941  12.275  17.392
    1STR    O10 8794  12.916  12.349   0.047
    1STR    C13 8795  13.062  11.956   0.106
    1STR    C14 8796  13.299   9.989   0.248
    1STR    C15 8797  13.314   9.850   0.261
    1STR    C16 8798  13.232   9.760   0.190
    1STR    C17 8799  13.249   9.614   0.229
    1STR    H1B 8800  12.962   9.759  17.437
    1STR    H1C 8801  13.048   9.991   0.020
    1STR    H1D 8802  13.108  10.221   0.097
    1STR    H1E 8803  13.281  10.516   0.353
    1STR    H1F 8804  13.361  10.589   0.067
    1STR    H1G 8805  13.433  10.655   0.214
    1STR    H1H 8806  13.452  10.485   0.176
    1STR    H1I 8807  13.075  10.640   0.317
    1STR    H1J 8808  13.118  10.679   0.153
    1STR    H1K 8809  13.070  10.908   0.225
    1STR    H1M 8810  13.124  10.881   0.527
    1STR    H1N 8811  12.990  10.808   0.440
    1STR    H1O 8812  12.998  10.982   0.458
    1STR    H1P 8813  13.277  11.050   0.400
    1STR    H1Q 8814  13.289  11.037   0.227
    1STR    H1R 8815  13.248  11.304   0.387
    1STR    H1S 8816  13.332  11.406   0.171
    1STR    H1T 8817  13.240  11.286   0.081
    1STR    H1U 8818  13.376  11.237   0.183
    1STR    H1V 8819  13.018  11.400   0.369
    1STR    H1W 8820  13.024  11.393   0.195
    1STR    H1X 8821  13.218  11.739   0.317
    1STR    H1Y 8822  13.284  11.944   0.366
    1STR    H1Z 8823  13.309  12.177   0.307
    1STR    H20 8824  13.201  12.330  17.436
    1STR    H21 8825  13.141  12.388   0.153
    1STR    H22 8826  13.309  12.339   0.134
    1STR    H23 8827  12.998  12.099  17.319
    1STR    H27 8828  12.994  11.893   0.050
    1STR    H28 8829  13.366  10.049   0.308
    1STR    H29 8830  13.388   9.813   0.330
    1STR    H2A 8831  13.154   9.560   0.224
    1STR    H2B 8832  13.286   9.603   0.331
    1STR    H2C 8833  13.321   9.565   0.163
    1STR   BCK1 8834  12.958   9.592   4.206
    1STR    O03 8835  12.847   9.607   4.156
    1STR    N04 8836  13.048   9.692   4.216
    1STR    C05 8837  13.058   9.803   4.129
    1STR    C06 8838  13.063   9.940   4.171
    1STR    C07 8839  13.081  10.049   4.079
    1STR    N08 8840  13.091  10.185   4.119
    1STR    C09 8841  13.086  10.299   4.044
    1STR    O0A 8842  13.059  10.300   3.925
    1STR    O0B 8843  13.114  10.416   4.113
    1STR    C0C 8844  13.108  10.544   4.043
    1STR    C0D 8845  12.960  10.585   4.024
    1STR    C0E 8846  13.188  10.661   4.110
    1STR    O0F 8847  13.176  10.784   4.035
    1STR    C0G 8848  13.245  10.901   4.084
    1STR    C0H 8849  13.394  10.889   4.049
    1STR    C0I 8850  13.184  11.031   4.022
    1STR    O0J 8851  13.230  11.155   4.082
    1STR    C0K 8852  13.171  11.278   4.031
    1STR    C0M 8853  13.023  11.285   4.072
    1STR    C0N 8854  13.241  11.409   4.081
    1STR    O0O 8855  13.190  11.522   4.007
    1STR    C0P 8856  13.171  11.646   4.062
    1STR    O0Q 8857  13.181  11.673   4.181
    1STR    N0R 8858  13.144  11.734   3.965
    1STR    C0S 8859  13.132  11.874   3.959
    1STR    C0T 8860  13.205  11.936   3.856
    1STR    C0U 8861  13.199  12.074   3.837
    1STR    C0V 8862  13.117  12.156   3.917
    1STR    C0W 8863  13.131  12.305   3.895
    1STR    C0X 8864  13.034  12.098   4.017
    1STR    N0Y 8865  12.949  12.173   4.102
    1STR   BCK2 8866  12.873  12.286   4.100
    1STR    O10 8867  12.823  12.322   4.205
    1STR    C13 8868  13.047  11.956   4.039
    1STR    C14 8869  13.096  10.013   3.943
    1STR    C15 8870  13.094   9.880   3.900
    1STR    C16 8871  13.078   9.775   3.991
    1STR    C17 8872  13.091   9.633   3.939
    1STR    H1B 8873  13.127   9.674   4.275
    1STR    H1C 8874  13.051   9.962   4.277
    1STR    H1D 8875  13.104  10.205   4.217
    1STR    H1E 8876  13.152  10.530   3.944
    1STR    H1F 8877  12.911  10.601   4.119
    1STR    H1G 8878  12.953  10.677   3.966
    1STR    H1H 8879  12.905  10.509   3.969
    1STR    H1I 8880  13.292  10.632   4.118
    1STR    H1J 8881  13.151  10.676   4.212
    1STR    H1K 8882  13.233  10.907   4.192
    1STR    H1M 8883  13.408  10.876   3.941
    1STR    H1N 8884  13.442  10.805   4.098
    1STR    H1O 8885  13.449  10.979   4.078
    1STR    H1P 8886  13.204  11.033   3.915
    1STR    H1Q 8887  13.076  11.023   4.033
    1STR    H1R 8888  13.179  11.276   3.923
    1STR    H1S 8889  12.979  11.381   4.044
    1STR    H1T 8890  13.012  11.276   4.181
    1STR    H1U 8891  12.962  11.208   4.026
    1STR    H1V 8892  13.348  11.402   4.064
    1STR    H1W 8893  13.228  11.422   4.188
    1STR    H1X 8894  13.147  11.686   3.876
    1STR    H1Y 8895  13.271  11.878   3.793
    1STR    H1Z 8896  13.260  12.119   3.760
    1STR    H20 8897  13.062  12.338   3.818
    1STR    H21 8898  13.114  12.360   3.987
    1STR    H22 8899  13.232  12.331   3.861
    1STR    H23 8900  12.940  12.133   4.194
    1STR    H27 8901  12.989  11.908   4.117
    1STR    H28 8902  13.112  10.087   3.865
    1STR    H29 8903  13.107   9.859   3.795
    1STR    H2A 8904  13.156   9.574   4.003
    1STR    H2B 8905  13.133   9.630   3.839
    1STR    H2C 8906  12.993   9.585   3.935
    1STR   BCK1 8907  12.927   9.582   8.676
    1STR    O03 8908  12.991   9.525   8.763
    1STR    N04 8909  12.886   9.711   8.683
    1STR    C05 8910  12.880   9.804   8.790
    1STR    C06 8911  12.897   9.945   8.766
    1STR    C07 8912  12.876  10.046   8.867
    1STR    N08 8913  12.888  10.185   8.840
    1STR    C09 8914  12.837  10.291   8.909
    1STR    O0A 8915  12.766  10.280   9.009
    1STR    O0B 8916  12.871  10.415   8.857
    1STR    C0C 8917  12.832  10.538   8.924
    1STR    C0D 8918  12.929  10.567   9.040
    1STR    C0E 8919  12.823  10.662   8.828
    1STR    O0F 8920  12.783  10.785   8.893
    1STR    C0G 8921  12.762  10.901   8.810
    1STR    C0H 8922  12.628  10.886   8.736
    1STR    C0I 8923  12.763  11.035   8.891
    1STR    O0J 8924  12.758  11.153   8.806
    1STR    C0K 8925  12.755  11.283   8.869
    1STR    C0M 8926  12.888  11.310   8.941
    1STR    C0N 8927  12.728  11.398   8.765
    1STR    O0O 8928  12.710  11.527   8.828
    1STR    C0P 8929  12.740  11.644   8.763
    1STR    O0Q 8930  12.790  11.652   8.651
    1STR    N0R 8931  12.709  11.749   8.840
    1STR    C0S 8932  12.729  11.888   8.829
    1STR    C0T 8933  12.718  11.961   8.949
    1STR    C0U 8934  12.748  12.099   8.953
    1STR    C0V 8935  12.787  12.169   8.838
    1STR    C0W 8936  12.841  12.309   8.858
    1STR    C0X 8937  12.786  12.103   8.711
    1STR    N0Y 8938  12.822  12.164   8.589
    1STR   BCK2 8939  12.801  12.280   8.522
    1STR    O10 8940  12.843  12.288   8.408
    1STR    C13 8941  12.762  11.961   8.711
    1STR    C14 8942  12.845   9.999   8.996
    1STR    C15 8943  12.827   9.862   9.023
    1STR    C16 8944  12.841   9.766   8.921
    1STR    C17 8945  12.804   9.623   8.960
    1STR    H1B 8946  12.852   9.744   8.594
    1STR    H1C 8947  12.924   9.977   8.667
    1STR    H1D 8948  12.939  10.214   8.759
    1STR    H1E 8949  12.732  10.524   8.966
    1STR    H1F 8950  13.031  10.582   9.004
    1STR    H1G 8951  12.899  10.656   9.094
    1STR    H1H 8952  12.930  10.485   9.111
    1STR    H1I 8953  12.753  10.637   8.748
    1STR    H1J 8954  12.920  10.677   8.780
    1STR    H1K 8955  12.843  10.907   8.737
    1STR    H1M 8956  12.546  10.872   8.807
    1STR    H1N 8957  12.627  10.802   8.667
    1STR    H1O 8958  12.606  10.975   8.677
    1STR    H1P 8959  12.679  11.037   8.961
    1STR    H1Q 8960  12.854  11.037   8.951
    1STR    H1R 8961  12.673  11.285   8.941
    1STR    H1S 8962  12.891  11.411   8.982
    1STR    H1T 8963  12.972  11.301   8.872
    1STR    H1U 8964  12.905  11.242   9.024
    1STR    H1V 8965  12.639  11.376   8.707
    1STR    H1W 8966  12.810  11.403   8.693
    1STR    H1X 8967  12.667  11.717   8.926
    1STR    H1Y 8968  12.692  11.913   9.042
    1STR    H1Z 8969  12.745  12.149   9.049
    1STR    H20 8970  12.931  12.325   8.798
    1STR    H21 8971  12.767  12.385   8.834
    1STR    H22 8972  12.869  12.326   8.962
    1STR    H23 8973  12.870  12.102   8.526
    1STR    H27 8974  12.768  11.907   8.618
    1STR    H28 8975  12.832  10.067   9.079
    1STR    H29 8976  12.799   9.832   9.122
    1STR    H2A 8977  12.755   9.571   8.878
    1STR    H2B 8978  12.735   9.621   9.044
    1STR    H2C 8979  12.894   9.568   8.989
    1STR   BCK1 8980  13.087   9.602  12.943
    1STR    O03 8981  13.176   9.545  12.880
    1STR    N04 8982  13.100   9.722  13.006
    1STR    C05 8983  13.211   9.810  13.023
    1STR    C06 8984  13.191   9.953  13.033
    1STR    C07 8985  13.298  10.048  13.052
    1STR    N08 8986  13.276  10.189  13.067
    1STR    C09 8987  13.364  10.293  13.065
    1STR    O0A 8988  13.483  10.281  13.040
    1STR    O0B 8989  13.307  10.418  13.093
    1STR    C0C 8990  13.387  10.540  13.084
    1STR    C0D 8991  13.404  10.576  12.935
    1STR    C0E 8992  13.331  10.664  13.164
    1STR    O0F 8993  13.404  10.788  13.142
    1STR    C0G 8994  13.362  10.907  13.215
    1STR    C0H 8995  13.415  10.896  13.359
    1STR    C0I 8996  13.412  11.040  13.148
    1STR    O0J 8997  13.348  11.162  13.198
    1STR    C0K 8998  13.387  11.290  13.140
    1STR    C0M 8999  13.349  11.293  12.991
    1STR    C0N 9000  13.319  11.414  13.209
    1STR    O0O 9001  13.361  11.541  13.153
    1STR    C0P 9002  13.275  11.649  13.137
    1STR    O0Q 9003  13.154  11.646  13.153
    1STR    N0R 9004  13.345  11.759  13.105
    1STR    C0S 9005  13.318  11.895  13.080
    1STR    C0T 9006  13.426  11.981  13.108
    1STR    C0U 9007  13.422  12.117  13.074
    1STR    C0V 9008  13.310  12.173  13.011
    1STR    C0W 9009  13.324  12.316  12.961
    1STR    C0X 9010  13.193  12.094  12.987
    1STR    N0Y 9011  13.084  12.149  12.915
    1STR   BCK2 9012  13.023  12.270  12.927
    1STR    O10 9013  13.034  12.344  13.023
    1STR    C13 9014  13.200  11.954  13.022
    1STR    C14 9015  13.428   9.994  13.059
    1STR    C15 9016  13.451   9.856  13.055
    1STR    C16 9017  13.345   9.764  13.042
    1STR    C17 9018  13.382   9.617  13.059
    1STR    H1B 9019  13.013   9.754  13.043
    1STR    H1C 9020  13.091   9.991  13.024
    1STR    H1D 9021  13.182  10.219  13.083
    1STR    H1E 9022  13.487  10.518  13.125
    1STR    H1F 9023  13.308  10.598  12.889
    1STR    H1G 9024  13.468  10.664  12.924
    1STR    H1H 9025  13.451  10.495  12.880
    1STR    H1I 9026  13.332  10.639  13.270
    1STR    H1J 9027  13.227  10.679  13.137
    1STR    H1K 9028  13.253  10.910  13.215
    1STR    H1M 9029  13.523  10.884  13.361
    1STR    H1N 9030  13.371  10.812  13.413
    1STR    H1O 9031  13.391  10.986  13.415
    1STR    H1P 9032  13.521  11.049  13.159
    1STR    H1Q 9033  13.394  11.031  13.041
    1STR    H1R 9034  13.495  11.301  13.150
    1STR    H1S 9035  13.371  11.391  12.947
    1STR    H1T 9036  13.243  11.274  12.978
    1STR    H1U 9037  13.404  11.220  12.932
    1STR    H1V 9038  13.346  11.415  13.315
    1STR    H1W 9039  13.210  11.405  13.206
    1STR    H1X 9040  13.443  11.734  13.105
    1STR    H1Y 9041  13.516  11.943  13.154
    1STR    H1Z 9042  13.508  12.178  13.095
    1STR    H20 9043  13.275  12.330  12.865
    1STR    H21 9044  13.281  12.386  13.033
    1STR    H22 9045  13.428  12.343  12.947
    1STR    H23 9046  13.048  12.093  12.840
    1STR    H27 9047  13.116  11.889  13.001
    1STR    H28 9048  13.516  10.056  13.072
    1STR    H29 9049  13.552   9.820  13.065
    1STR    H2A 9050  13.302   9.561  13.106
    1STR    H2B 9051  13.470   9.606  13.122
    1STR    H2C 9052  13.406   9.573  12.962
    1STR   BCK1 9053  12.953  13.936  17.325
    1STR    O03 9054  12.869  13.922  17.414
    1STR    N04 9055  12.986  14.055  17.272
    1STR    C05 9056  12.901  14.167  17.256
    1STR    C06 9057  12.942  14.302  17.280
    1STR    C07 9058  12.858  14.414  17.250
    1STR    N08 9059  12.900  14.550  17.266
    1STR    C09 9060  12.846  14.663  17.214
    1STR    O0A 9061  12.748  14.664  17.139
    1STR    O0B 9062  12.909  14.780  17.252
    1STR    C0C 9063  12.849  14.909  17.218
    1STR    C0D 9064  12.743  14.943  17.325
    1STR    C0E 9065  12.950  15.026  17.201
    1STR    O0F 9066  12.883  15.149  17.164
    1STR    C0G 9067  12.965  15.264  17.134
    1STR    C0H 9068  13.026  15.247  16.994
    1STR    C0I 9069  12.881  15.397  17.141
    1STR    O0J 9070  12.962  15.516  17.127
    1STR    C0K 9071  12.894  15.643  17.126
    1STR    C0M 9072  12.836  15.672  17.266
    1STR    C0N 9073  12.988  15.760  17.084
    1STR    O0O 9074  12.917  15.879  17.043
    1STR    C0P 9075  12.936  16.001  17.100
    1STR    O0Q 9076  13.010  16.025  17.195
    1STR    N0R 9077  12.857  16.092  17.041
    1STR    C0S 9078  12.816  16.220  17.081
    1STR    C0T 9079  12.677  16.238  17.089
    1STR    C0U 9080  12.622  16.359  17.137
    1STR    C0V 9081  12.705  16.466  17.173
    1STR    C0W 9082  12.643  16.580  17.252
    1STR    C0X 9083  12.845  16.458  17.150
    1STR    N0Y 9084  12.928  16.567  17.183
    1STR   BCK2 9085  12.924  16.698  17.152
    1STR    O10 9086  12.994  16.776  17.216
    1STR    C13 9087  12.900  16.332  17.110
    1STR    C14 9088  12.728  14.384  17.202
    1STR    C15 9089  12.687  14.253  17.175
    1STR    C16 9090  12.774  14.145  17.197
    1STR    C17 9091  12.727  14.008  17.148
    1STR    H1B 9092  13.073  14.057  17.222
    1STR    H1C 9093  13.041  14.319  17.320
    1STR    H1D 9094  12.982  14.567  17.321
    1STR    H1E 9095  12.798  14.899  17.122
    1STR    H1F 9096  12.789  14.956  17.423
    1STR    H1G 9097  12.691  15.035  17.300
    1STR    H1H 9098  12.668  14.864  17.333
    1STR    H1I 9099  13.022  14.998  17.124
    1STR    H1J 9100  13.006  15.041  17.293
    1STR    H1K 9101  13.044  15.272  17.209
    1STR    H1M 9102  12.948  15.232  16.919
    1STR    H1N 9103  13.094  15.162  16.989
    1STR    H1O 9104  13.082  15.336  16.965
    1STR    H1P 9105  12.804  15.395  17.064
    1STR    H1Q 9106  12.829  15.399  17.236
    1STR    H1R 9107  12.813  15.639  17.053
    1STR    H1S 9108  12.793  15.773  17.270
    1STR    H1T 9109  12.914  15.667  17.342
    1STR    H1U 9110  12.757  15.603  17.294
    1STR    H1V 9111  13.048  15.729  16.998
    1STR    H1W 9112  13.061  15.782  17.163
    1STR    H1X 9113  12.807  16.051  16.964
    1STR    H1Y 9114  12.610  16.158  17.065
    1STR    H1Z 9115  12.515  16.366  17.150
    1STR    H20 9116  12.693  16.589  17.348
    1STR    H21 9117  12.649  16.676  17.202
    1STR    H22 9118  12.537  16.562  17.272
    1STR    H23 9119  13.005  16.547  17.244
    1STR    H27 9120  13.007  16.320  17.101
    1STR    H28 9121  12.655  14.461  17.182
    1STR    H29 9122  12.589  14.237  17.133
    1STR    H2A 9123  12.809  13.955  17.099
    1STR    H2B 9124  12.647  14.017  17.076
    1STR    H2C 9125  12.691  13.948  17.232
    1STR   BCK1 9126  13.009  13.950   4.356
    1STR    O03 9127  13.107  13.886   4.393
    1STR    N04 9128  12.979  14.077   4.396
    1STR    C05 9129  13.035  14.165   4.494
    1STR    C06 9130  13.028  14.308   4.477
    1STR    C07 9131  13.075  14.403   4.574
    1STR    N08 9132  13.063  14.545   4.557
    1STR    C09 9133  13.083  14.648   4.644
    1STR    O0A 9134  13.117  14.632   4.761
    1STR    O0B 9135  13.062  14.774   4.591
    1STR    C0C 9136  13.088  14.895   4.669
    1STR    C0D 9137  13.239  14.923   4.669
    1STR    C0E 9138  13.008  15.021   4.620
    1STR    O0F 9139  13.038  15.145   4.692
    1STR    C0G 9140  12.959  15.262   4.658
    1STR    C0H 9141  12.821  15.249   4.724
    1STR    C0I 9142  13.025  15.398   4.702
    1STR    O0J 9143  12.957  15.515   4.646
    1STR    C0K 9144  13.003  15.648   4.681
    1STR    C0M 9145  13.147  15.669   4.630
    1STR    C0N 9146  12.911  15.760   4.622
    1STR    O0O 9147  12.951  15.895   4.657
    1STR    C0P 9148  12.925  16.003   4.576
    1STR    O0Q 9149  12.876  15.998   4.464
    1STR    N0R 9150  12.962  16.117   4.637
    1STR    C0S 9151  12.970  16.254   4.603
    1STR    C0T 9152  13.031  16.334   4.701
    1STR    C0U 9153  13.057  16.470   4.678
    1STR    C0V 9154  13.022  16.531   4.557
    1STR    C0W 9155  13.072  16.673   4.534
    1STR    C0X 9156  12.949  16.458   4.458
    1STR    N0Y 9157  12.912  16.521   4.337
    1STR   BCK2 9158  12.853  16.642   4.317
    1STR    O10 9159  12.804  16.711   4.406
    1STR    C13 9160  12.928  16.318   4.482
    1STR    C14 9161  13.136  14.349   4.690
    1STR    C15 9162  13.141  14.210   4.711
    1STR    C16 9163  13.089  14.119   4.618
    1STR    C17 9164  13.088  13.973   4.663
    1STR    H1B 9165  12.903  14.115   4.343
    1STR    H1C 9166  12.985  14.346   4.386
    1STR    H1D 9167  13.034  14.578   4.467
    1STR    H1E 9168  13.057  14.876   4.772
    1STR    H1F 9169  13.276  14.943   4.568
    1STR    H1G 9170  13.262  15.010   4.730
    1STR    H1H 9171  13.295  14.839   4.710
    1STR    H1I 9172  12.902  14.999   4.628
    1STR    H1J 9173  13.029  15.038   4.514
    1STR    H1K 9174  12.948  15.266   4.550
    1STR    H1M 9175  12.830  15.236   4.832
    1STR    H1N 9176  12.764  15.164   4.685
    1STR    H1O 9177  12.761  15.338   4.706
    1STR    H1P 9178  13.028  15.405   4.811
    1STR    H1Q 9179  13.129  15.398   4.668
    1STR    H1R 9180  13.003  15.658   4.790
    1STR    H1S 9181  13.181  15.770   4.649
    1STR    H1T 9182  13.152  15.653   4.522
    1STR    H1U 9183  13.218  15.602   4.678
    1STR    H1V 9184  12.809  15.746   4.657
    1STR    H1W 9185  12.906  15.750   4.513
    1STR    H1X 9186  12.995  16.093   4.729
    1STR    H1Y 9187  13.062  16.293   4.796
    1STR    H1Z 9188  13.109  16.527   4.754
    1STR    H20 9189  13.097  16.690   4.429
    1STR    H21 9190  12.996  16.746   4.563
    1STR    H22 9191  13.162  16.693   4.592
    1STR    H23 9192  12.931  16.471   4.252
    1STR    H27 9193  12.879  16.258   4.406
    1STR    H28 9194  13.178  14.411   4.767
    1STR    H29 9195  13.185  14.175   4.803
    1STR    H2A 9196  12.999  13.921   4.626
    1STR    H2B 9197  13.086  13.966   4.771
    1STR    H2C 9198  13.177  13.922   4.628
    1STR   BCK1 9199  13.009  13.958   8.551
    1STR    O03 9200  12.940  13.972   8.451
    1STR    N04 9201  13.089  14.056   8.601
    1STR    C05 9202  13.149  14.163   8.530
    1STR    C06 9203  13.137  14.302   8.565
    1STR    C07 9204  13.211  14.406   8.497
    1STR    N08 9205  13.204  14.545   8.533
    1STR    C09 9206  13.248  14.655   8.466
    1STR    O0A 9207  13.295  14.651   8.353
    1STR    O0B 9208  13.235  14.776   8.535
    1STR    C0C 9209  13.272  14.902   8.470
    1STR    C0D 9210  13.161  14.941   8.371
    1STR    C0E 9211  13.303  15.022   8.567
    1STR    O0F 9212  13.332  15.146   8.496
    1STR    C0G 9213  13.363  15.265   8.573
    1STR    C0H 9214  13.508  15.254   8.623
    1STR    C0I 9215  13.344  15.396   8.488
    1STR    O0J 9216  13.348  15.520   8.563
    1STR    C0K 9217  13.323  15.643   8.490
    1STR    C0M 9218  13.177  15.647   8.443
    1STR    C0N 9219  13.350  15.775   8.571
    1STR    O0O 9220  13.341  15.892   8.488
    1STR    C0P 9221  13.279  16.009   8.527
    1STR    O0Q 9222  13.213  16.024   8.629
    1STR    N0R 9223  13.306  16.106   8.438
    1STR    C0S 9224  13.278  16.244   8.430
    1STR    C0T 9225  13.380  16.322   8.372
    1STR    C0U 9226  13.364  16.461   8.355
    1STR    C0V 9227  13.246  16.527   8.393
    1STR    C0W 9228  13.248  16.678   8.382
    1STR    C0X 9229  13.137  16.453   8.447
    1STR    N0Y 9230  13.018  16.512   8.494
    1STR   BCK2 9231  12.935  16.617   8.470
    1STR    O10 9232  12.844  16.637   8.549
    1STR    C13 9233  13.157  16.311   8.468
    1STR    C14 9234  13.297  14.364   8.393
    1STR    C15 9235  13.311  14.228   8.359
    1STR    C16 9236  13.241  14.128   8.428
    1STR    C17 9237  13.271  13.983   8.393
    1STR    H1B 9238  13.126  14.038   8.693
    1STR    H1C 9239  13.071  14.329   8.646
    1STR    H1D 9240  13.160  14.568   8.620
    1STR    H1E 9241  13.363  14.884   8.413
    1STR    H1F 9242  13.067  14.960   8.423
    1STR    H1G 9243  13.188  15.032   8.317
    1STR    H1H 9244  13.144  14.863   8.297
    1STR    H1I 9245  13.388  14.995   8.630
    1STR    H1J 9246  13.218  15.038   8.633
    1STR    H1K 9247  13.295  15.271   8.658
    1STR    H1M 9248  13.578  15.241   8.540
    1STR    H1N 9249  13.522  15.170   8.692
    1STR    H1O 9250  13.538  15.344   8.677
    1STR    H1P 9251  13.419  15.399   8.409
    1STR    H1Q 9252  13.248  15.386   8.438
    1STR    H1R 9253  13.390  15.645   8.403
    1STR    H1S 9254  13.154  15.743   8.395
    1STR    H1T 9255  13.109  15.636   8.528
    1STR    H1U 9256  13.154  15.570   8.370
    1STR    H1V 9257  13.451  15.772   8.613
    1STR    H1W 9258  13.283  15.782   8.657
    1STR    H1X 9259  13.367  16.070   8.367
    1STR    H1Y 9260  13.473  16.277   8.342
    1STR    H1Z 9261  13.446  16.517   8.313
    1STR    H20 9262  13.207  16.708   8.285
    1STR    H21 9263  13.191  16.724   8.462
    1STR    H22 9264  13.349  16.717   8.388
    1STR    H23 9265  12.977  16.462   8.571
    1STR    H27 9266  13.079  16.252   8.512
    1STR    H28 9267  13.358  14.433   8.337
    1STR    H29 9268  13.380  14.202   8.280
    1STR    H2A 9269  13.289  13.925   8.484
    1STR    H2B 9270  13.360  13.974   8.331
    1STR    H2C 9271  13.187  13.939   8.340
    1STR   BCK1 9272  12.965  13.936  12.981
    1STR    O03 9273  13.074  13.882  12.994
    1STR    N04 9274  12.954  14.063  13.027
    1STR    C05 9275  12.854  14.158  13.061
    1STR    C06 9276  12.881  14.298  13.045
    1STR    C07 9277  12.793  14.401  13.094
    1STR    N08 9278  12.823  14.539  13.079
    1STR    C09 9279  12.753  14.650  13.116
    1STR    O0A 9280  12.644  14.647  13.172
    1STR    O0B 9281  12.816  14.769  13.085
    1STR    C0C 9282  12.755  14.896  13.121
    1STR    C0D 9283  12.781  14.926  13.270
    1STR    C0E 9284  12.801  15.016  13.033
    1STR    O0F 9285  12.733  15.140  13.067
    1STR    C0G 9286  12.762  15.256  12.985
    1STR    C0H 9287  12.690  15.241  12.850
    1STR    C0I 9288  12.718  15.388  13.055
    1STR    O0J 9289  12.758  15.506  12.981
    1STR    C0K 9290  12.719  15.634  13.033
    1STR    C0M 9291  12.796  15.664  13.162
    1STR    C0N 9292  12.745  15.749  12.930
    1STR    O0O 9293  12.686  15.872  12.973
    1STR    C0P 9294  12.740  15.994  12.943
    1STR    O0Q 9295  12.842  16.013  12.879
    1STR    N0R 9296  12.666  16.089  13.001
    1STR    C0S 9297  12.684  16.227  13.022
    1STR    C0T 9298  12.630  16.275  13.142
    1STR    C0U 9299  12.640  16.410  13.177
    1STR    C0V 9300  12.699  16.504  13.090
    1STR    C0W 9301  12.704  16.646  13.143
    1STR    C0X 9302  12.747  16.462  12.962
    1STR    N0Y 9303  12.780  16.552  12.857
    1STR   BCK2 9304  12.814  16.682  12.849
    1STR    O10 9305  12.860  16.752  12.938
    1STR    C13 9306  12.742  16.322  12.932
    1STR    C14 9307  12.676  14.356  13.160
    1STR    C15 9308  12.650  14.220  13.179
    1STR    C16 9309  12.738  14.120  13.132
    1STR    C17 9310  12.708  13.977  13.172
    1STR    H1B 9311  13.047  14.094  13.049
    1STR    H1C 9312  12.972  14.328  12.995
    1STR    H1D 9313  12.910  14.564  13.035
    1STR    H1E 9314  12.647  14.887  13.107
    1STR    H1F 9315  12.887  14.938  13.291
    1STR    H1G 9316  12.731  15.018  13.300
    1STR    H1H 9317  12.742  14.846  13.334
    1STR    H1I 9318  12.783  14.991  12.929
    1STR    H1J 9319  12.909  15.030  13.043
    1STR    H1K 9320  12.870  15.262  12.969
    1STR    H1M 9321  12.582  15.227  12.865
    1STR    H1N 9322  12.727  15.157  12.792
    1STR    H1O 9323  12.703  15.331  12.789
    1STR    H1P 9324  12.610  15.388  13.069
    1STR    H1Q 9325  12.762  15.390  13.155
    1STR    H1R 9326  12.612  15.632  13.054
    1STR    H1S 9327  12.774  15.765  13.199
    1STR    H1T 9328  12.904  15.659  13.146
    1STR    H1U 9329  12.771  15.595  13.243
    1STR    H1V 9330  12.701  15.723  12.833
    1STR    H1W 9331  12.852  15.761  12.912
    1STR    H1X 9332  12.587  16.047  13.047
    1STR    H1Y 9333  12.582  16.208  13.212
    1STR    H1Z 9334  12.600  16.442  13.272
    1STR    H20 9335  12.808  16.675  13.159
    1STR    H21 9336  12.656  16.716  13.074
    1STR    H22 9337  12.655  16.656  13.239
    1STR    H23 9338  12.770  16.512  12.765
    1STR    H27 9339  12.780  16.285  12.838
    1STR    H28 9340  12.604  14.424  13.202
    1STR    H29 9341  12.561  14.192  13.234
    1STR    H2A 9342  12.657  13.926  13.090
    1STR    H2B 9343  12.643  13.973  13.259
    1STR    H2C 9344  12.799  13.923  13.197
    1STR   BCK1 9345   0.053  17.393   0.902
    1STR    O03 9346   0.121  17.296   0.872
    1STR    N04 9347  17.412  17.400   1.009
    1STR    C05 9348  17.373  17.297   1.095
    1STR    C06 9349  17.376  17.317   1.236
    1STR    C07 9350  17.330  17.218   1.327
    1STR    N08 9351  17.330  17.243   1.466
    1STR    C09 9352  17.296  17.164   1.569
    1STR    O0A 9353  17.261  17.047   1.559
    1STR    O0B 9354  17.306  17.229   1.688
    1STR    C0C 9355  17.279  17.158   1.810
    1STR    C0D 9356  17.404  17.078   1.851
    1STR    C0E 9357  17.234  17.254   1.923
    1STR    O0F 9358  17.207  17.178   2.042
    1STR    C0G 9359  17.164  17.253   2.156
    1STR    C0H 9360  17.014  17.287   2.142
    1STR    C0I 9361  17.190  17.170   2.283
    1STR    O0J 9362  17.160  17.249   2.398
    1STR    C0K 9363  17.175  17.184   2.525
    1STR    C0M 9364  17.323  17.172   2.561
    1STR    C0N 9365  17.099  17.269   2.629
    1STR    O0O 9366  17.093  17.205   2.756
    1STR    C0P 9367  17.169  17.246   2.858
    1STR    O0Q 9368  17.254  17.334   2.854
    1STR    N0R 9369  17.138  17.174   2.966
    1STR    C0S 9370  17.186  17.173   3.097
    1STR    C0T 9371  17.122  17.084   3.186
    1STR    C0U 9372  17.167  17.070   3.318
    1STR    C0V 9373  17.277  17.144   3.364
    1STR    C0W 9374  17.330  17.113   3.503
    1STR    C0X 9375  17.339  17.239   3.279
    1STR    N0Y 9376   0.011  17.311   3.322
    1STR   BCK2 9377   0.023  17.386   3.432
    1STR    O10 9378  17.370  17.422   3.503
    1STR    C13 9379  17.294  17.251   3.145
    1STR    C14 9380  17.281  17.097   1.272
    1STR    C15 9381  17.276  17.076   1.134
    1STR    C16 9382  17.318  17.176   1.044
    1STR    C17 9383  17.298  17.151   0.896
    1STR    H1B 9384  17.374   0.051   1.026
    1STR    H1C 9385  17.415  17.410   1.274
    1STR    H1D 9386  17.361  17.334   1.497
    1STR    H1E 9387  17.196  17.088   1.793
    1STR    H1F 9388   0.049  17.143   1.870
    1STR    H1G 9389  17.385  17.020   1.941
    1STR    H1H 9390  17.432  17.008   1.773
    1STR    H1I 9391  17.145  17.308   1.891
    1STR    H1J 9392  17.312  17.328   1.943
    1STR    H1K 9393  17.222  17.345   2.164
    1STR    H1M 9394  16.955  17.196   2.129
    1STR    H1N 9395  16.995  17.352   2.057
    1STR    H1O 9396  16.978  17.338   2.230
    1STR    H1P 9397  17.129  17.079   2.281
    1STR    H1Q 9398  17.294  17.139   2.284
    1STR    H1R 9399  17.129  17.085   2.522
    1STR    H1S 9400  17.336  17.126   2.660
    1STR    H1T 9401  17.371  17.270   2.566
    1STR    H1U 9402  17.379  17.110   2.491
    1STR    H1V 9403  16.996  17.283   2.595
    1STR    H1W 9404  17.142  17.369   2.636
    1STR    H1X 9405  17.064  17.109   2.944
    1STR    H1Y 9406  17.039  17.024   3.154
    1STR    H1Z 9407  17.118  16.999   3.383
    1STR    H20 9408  17.437  17.096   3.499
    1STR    H21 9409  17.310  17.195   3.573
    1STR    H22 9410  17.285  17.023   3.545
    1STR    H23 9411   0.093  17.308   3.263
    1STR    H27 9412  17.344  17.321   3.079
    1STR    H28 9413  17.245  17.016   1.334
    1STR    H29 9414  17.235  16.983   1.096
    1STR    H2A 9415  17.271  17.243   0.843
    1STR    H2B 9416  17.217  17.080   0.878
    1STR    H2C 9417  17.388  17.110   0.851
    1STR   BCK1 9418   0.094   0.063   5.256
    1STR    O03 9419   0.090   0.185   5.243
    1STR    N04 9420   0.142  17.440   5.364
    1STR    C05 9421   0.222   0.058   5.461
    1STR    C06 9422   0.191   0.044   5.599
    1STR    C07 9423   0.274   0.100   5.700
    1STR    N08 9424   0.243   0.079   5.835
    1STR    C09 9425   0.316   0.106   5.945
    1STR    O0A 9426   0.427   0.158   5.944
    1STR    O0B 9427   0.253   0.069   6.058
    1STR    C0C 9428   0.313   0.101   6.185
    1STR    C0D 9429   0.270   0.244   6.224
    1STR    C0E 9430   0.276  17.439   6.293
    1STR    O0F 9431   0.347   0.034   6.412
    1STR    C0G 9432   0.330  17.387   6.524
    1STR    C0H 9433   0.418  17.262   6.507
    1STR    C0I 9434   0.368   0.026   6.650
    1STR    O0J 9435   0.341  17.387   6.765
    1STR    C0K 9436   0.376   0.005   6.891
    1STR    C0M 9437   0.273   0.111   6.931
    1STR    C0N 9438   0.381  17.329   6.993
    1STR    O0O 9439   0.435  17.373   7.117
    1STR    C0P 9440   0.355  17.395   7.222
    1STR    O0Q 9441   0.233  17.381   7.223
    1STR    N0R 9442   0.429  17.438   7.324
    1STR    C0S 9443   0.393   0.040   7.452
    1STR    C0T 9444   0.488   0.116   7.524
    1STR    C0U 9445   0.458   0.165   7.653
    1STR    C0V 9446   0.333   0.137   7.712
    1STR    C0W 9447   0.303   0.193   7.851
    1STR    C0X 9448   0.241   0.054   7.644
    1STR    N0Y 9449   0.126   0.012   7.708
    1STR   BCK2 9450   0.123  17.364   7.808
    1STR    O10 9451   0.020  17.342   7.870
    1STR    C13 9452   0.270   0.009   7.514
    1STR    C14 9453   0.387   0.174   5.658
    1STR    C15 9454   0.421   0.185   5.522
    1STR    C16 9455   0.342   0.125   5.424
    1STR    C17 9456   0.391   0.131   5.280
    1STR    H1B 9457   0.127  17.340   5.366
    1STR    H1C 9458   0.101  17.430   5.626
    1STR    H1D 9459   0.156   0.035   5.858
    1STR    H1E 9460   0.422   0.098   6.176
    1STR    H1F 9461   0.162   0.251   6.237
    1STR    H1G 9462   0.318   0.274   6.318
    1STR    H1H 9463   0.300   0.316   6.148
    1STR    H1I 9464   0.305  17.339   6.259
    1STR    H1J 9465   0.169  17.438   6.311
    1STR    H1K 9466   0.225  17.359   6.533
    1STR    H1M 9467   0.522  17.290   6.494
    1STR    H1N 9468   0.388  17.202   6.422
    1STR    H1O 9469   0.411  17.199   6.595
    1STR    H1P 9470   0.474   0.053   6.646
    1STR    H1Q 9471   0.311   0.119   6.653
    1STR    H1R 9472   0.475   0.049   6.885
    1STR    H1S 9473   0.296   0.153   7.029
    1STR    H1T 9474   0.172   0.068   6.937
    1STR    H1U 9475   0.269   0.195   6.861
    1STR    H1V 9476   0.447  17.251   6.955
    1STR    H1W 9477   0.283  17.283   7.004
    1STR    H1X 9478   0.526   0.004   7.298
    1STR    H1Y 9479   0.584   0.139   7.482
    1STR    H1Z 9480   0.531   0.224   7.706
    1STR    H20 9481   0.197   0.216   7.860
    1STR    H21 9482   0.328   0.120   7.928
    1STR    H22 9483   0.359   0.284   7.870
    1STR    H23 9484   0.036   0.048   7.679
    1STR    H27 9485   0.198  17.386   7.463
    1STR    H28 9486   0.453   0.223   5.727
    1STR    H29 9487   0.510   0.239   5.495
    1STR    H2A 9488   0.368   0.038   5.227
    1STR    H2B 9489   0.499   0.144   5.275
    1STR    H2C 9490   0.344   0.214   5.227
    1STR   BCK1 9491   0.009   0.067   9.610
    1STR    O03 9492  17.399  17.402   9.570
    1STR    N04 9493  17.417   0.130   9.724
    1STR    C05 9494  17.309   0.111   9.811
    1STR    C06 9495  17.330   0.107   9.952
    1STR    C07 9496  17.222   0.105  10.045
    1STR    N08 9497  17.246   0.107  10.185
    1STR    C09 9498  17.163   0.135  10.287
    1STR    O0A 9499  17.045   0.166  10.274
    1STR    O0B 9500  17.224   0.125  10.408
    1STR    C0C 9501  17.148   0.142  10.529
    1STR    C0D 9502  17.079   0.010  10.565
    1STR    C0E 9503  17.237   0.192  10.646
    1STR    O0F 9504  17.159   0.210  10.765
    1STR    C0G 9505  17.228   0.260  10.880
    1STR    C0H 9506  17.249   0.411  10.866
    1STR    C0I 9507  17.148   0.227  11.008
    1STR    O0J 9508  17.222   0.265  11.124
    1STR    C0K 9509  17.160   0.242  11.251
    1STR    C0M 9510  17.163   0.093  11.286
    1STR    C0N 9511  17.236   0.325  11.357
    1STR    O0O 9512  17.173   0.319  11.485
    1STR    C0P 9513  17.230   0.255  11.589
    1STR    O0Q 9514  17.334   0.191  11.584
    1STR    N0R 9515  17.155   0.272  11.698
    1STR    C0S 9516  17.167   0.223  11.829
    1STR    C0T 9517  17.061   0.251  11.918
    1STR    C0U 9518  17.061   0.200  12.049
    1STR    C0V 9519  17.168   0.122  12.096
    1STR    C0W 9520  17.157   0.060  12.234
    1STR    C0X 9521  17.280   0.098  12.011
    1STR    N0Y 9522  17.387   0.018  12.051
    1STR   BCK2 9523   0.021   0.023  12.162
    1STR    O10 9524   0.010   0.110  12.249
    1STR    C13 9525  17.277   0.147  11.878
    1STR    C14 9526  17.091   0.102   9.992
    1STR    C15 9527  17.068   0.105   9.854
    1STR    C16 9528  17.176   0.112   9.763
    1STR    C17 9529  17.143   0.128   9.615
    1STR    H1B 9530   0.039   0.206   9.747
    1STR    H1C 9531  17.431   0.109   9.989
    1STR    H1D 9532  17.339   0.087  10.216
    1STR    H1E 9533  17.072   0.219  10.513
    1STR    H1F 9534  17.151  17.370  10.584
    1STR    H1G 9535  17.018   0.021  10.655
    1STR    H1H 9536  17.012  17.417  10.485
    1STR    H1I 9537  17.284   0.286  10.617
    1STR    H1J 9538  17.317   0.121  10.665
    1STR    H1K 9539  17.325   0.209  10.889
    1STR    H1M 9540  17.154   0.463  10.853
    1STR    H1N 9541  17.313   0.437  10.782
    1STR    H1O 9542  17.296   0.452  10.956
    1STR    H1P 9543  17.051   0.278  11.006
    1STR    H1Q 9544  17.126   0.120  11.010
    1STR    H1R 9545  17.056   0.278  11.248
    1STR    H1S 9546  17.120   0.075  11.385
    1STR    H1T 9547  17.266   0.055  11.289
    1STR    H1U 9548  17.106   0.032  11.216
    1STR    H1V 9549  17.238   0.429  11.327
    1STR    H1W 9550  17.341   0.294  11.362
    1STR    H1X 9551  17.075   0.329  11.678
    1STR    H1Y 9552  16.976   0.309  11.886
    1STR    H1Z 9553  16.977   0.220  12.114
    1STR    H20 9554  17.206  17.403  12.239
    1STR    H21 9555  17.203   0.125  12.308
    1STR    H22 9556  17.052   0.045  12.263
    1STR    H23 9557  17.419  17.389  11.984
    1STR    H27 9558  17.361   0.127  11.813
    1STR    H28 9559  17.004   0.097  10.056
    1STR    H29 9560  16.967   0.106   9.817
    1STR    H2A 9561  17.211   0.198   9.568
    1STR    H2B 9562  17.042   0.165   9.601
    1STR    H2C 9563  17.151   0.032   9.565
    1STR   BCK1 9564   0.129  17.428  13.985
    1STR    O03 9565   0.251  17.419  13.974
    1STR    N04 9566   0.057  17.376  14.085
    1STR    C05 9567   0.101  17.280  14.176
    1STR    C06 9568   0.085  17.301  14.316
    1STR    C07 9569   0.122  17.201  14.410
    1STR    N08 9570   0.101  17.223  14.547
    1STR    C09 9571   0.144  17.152  14.653
    1STR    O0A 9572   0.220  17.056  14.647
    1STR    O0B 9573   0.094  17.200  14.769
    1STR    C0C 9574   0.132  17.138  14.893
    1STR    C0D 9575   0.269  17.191  14.937
    1STR    C0E 9576   0.025  17.162  15.002
    1STR    O0F 9577   0.065  17.095  15.121
    1STR    C0G 9578  17.417  17.109  15.232
    1STR    C0H 9579  17.300  17.010  15.218
    1STR    C0I 9580   0.058  17.081  15.361
    1STR    O0J 9581  17.416  17.110  15.474
    1STR    C0K 9582   0.034  17.082  15.601
    1STR    C0M 9583   0.139  17.188  15.638
    1STR    C0N 9584  17.360  17.079  15.705
    1STR    O0O 9585  17.409  17.027  15.828
    1STR    C0P 9586  17.426  17.105  15.936
    1STR    O0Q 9587  17.398  17.224  15.945
    1STR    N0R 9588   0.038  17.029  16.031
    1STR    C0S 9589   0.074  17.051  16.164
    1STR    C0T 9590   0.130  16.941  16.230
    1STR    C0U 9591   0.163  16.948  16.366
    1STR    C0V 9592   0.139  17.066  16.440
    1STR    C0W 9593   0.163  17.057  16.589
    1STR    C0X 9594   0.088  17.182  16.375
    1STR    N0Y 9595   0.051  17.297  16.445
    1STR   BCK2 9596   0.110  17.371  16.540
    1STR    O10 9597   0.043   0.015  16.601
    1STR    C13 9598   0.055  17.172  16.236
    1STR    C14 9599   0.175  17.080  14.360
    1STR    C15 9600   0.190  17.058  14.222
    1STR    C16 9601   0.150  17.156  14.130
    1STR    C17 9602   0.158  17.121  13.982
    1STR    H1B 9603  17.401  17.404  14.087
    1STR    H1C 9604   0.044  17.395  14.350
    1STR    H1D 9605   0.046  17.302  14.575
    1STR    H1E 9606   0.139  17.030  14.878
    1STR    H1F 9607   0.267  17.299  14.954
    1STR    H1G 9608   0.302  17.143  15.029
    1STR    H1H 9609   0.345  17.171  14.861
    1STR    H1I 9610  17.369  17.124  14.967
    1STR    H1J 9611   0.013  17.269  15.020
    1STR    H1K 9612  17.379  17.211  15.238
    1STR    H1M 9613  17.337  16.907  15.208
    1STR    H1N 9614  17.238  17.032  15.132
    1STR    H1O 9615  17.236  17.013  15.306
    1STR    H1P 9616   0.092  16.977  15.362
    1STR    H1Q 9617   0.147  17.144  15.361
    1STR    H1R 9618   0.080  16.983  15.599
    1STR    H1S 9619   0.181  17.169  15.737
    1STR    H1T 9620   0.095  17.288  15.641
    1STR    H1U 9621   0.223  17.190  15.568
    1STR    H1V 9622  17.281  17.013  15.670
    1STR    H1W 9623  17.315  17.178  15.716
    1STR    H1X 9624   0.051  16.936  15.996
    1STR    H1Y 9625   0.146  16.847  16.179
    1STR    H1Z 9626   0.202  16.861  16.416
    1STR    H20 9627   0.267  17.079  16.609
    1STR    H21 9628   0.099  17.126  16.643
    1STR    H22 9629   0.141  16.958  16.627
    1STR    H23 9630  17.401  17.334  16.423
    1STR    H27 9631   0.012  17.257  16.186
    1STR    H28 9632   0.205  16.999  14.425
    1STR    H29 9633   0.229  16.963  14.188
    1STR    H2A 9634   0.072  17.160  13.928
    1STR    H2B 9635   0.161  17.014  13.966
    1STR    H2C 9636   0.249  17.164  13.938
    1STR   BCK1 9637   0.082   4.426   0.877
    1STR    O03 9638  17.429   4.487   0.827
    1STR    N04 9639   0.131   4.444   1.000
    1STR    C05 9640   0.107   4.547   1.092
    1STR    C06 9641   0.101   4.517   1.231
    1STR    C07 9642   0.089   4.618   1.330
    1STR    N08 9643   0.090   4.585   1.467
    1STR    C09 9644   0.113   4.664   1.573
    1STR    O0A 9645   0.139   4.784   1.567
    1STR    O0B 9646   0.105   4.596   1.691
    1STR    C0C 9647   0.115   4.667   1.815
    1STR    C0D 9648  17.416   4.722   1.852
    1STR    C0E 9649   0.173   4.579   1.927
    1STR    O0F 9650   0.186   4.658   2.046
    1STR    C0G 9651   0.242   4.593   2.159
    1STR    C0H 9652   0.394   4.585   2.145
    1STR    C0I 9653   0.202   4.673   2.285
    1STR    O0J 9654   0.250   4.605   2.402
    1STR    C0K 9655   0.224   4.669   2.527
    1STR    C0M 9656   0.078   4.646   2.568
    1STR    C0N 9657   0.322   4.609   2.629
    1STR    O0O 9658   0.317   4.676   2.754
    1STR    C0P 9659   0.256   4.620   2.860
    1STR    O0Q 9660   0.195   4.514   2.856
    1STR    N0R 9661   0.271   4.697   2.968
    1STR    C0S 9662   0.225   4.681   3.099
    1STR    C0T 9663   0.235   4.791   3.187
    1STR    C0U 9664   0.186   4.782   3.318
    1STR    C0V 9665   0.126   4.664   3.366
    1STR    C0W 9666   0.065   4.663   3.505
    1STR    C0X 9667   0.120   4.550   3.281
    1STR    N0Y 9668   0.056   4.432   3.317
    1STR   BCK2 9669   0.081   4.344   3.414
    1STR    O10 9670   0.011   4.243   3.422
    1STR    C13 9671   0.169   4.561   3.149
    1STR    C14 9672   0.076   4.752   1.286
    1STR    C15 9673   0.085   4.784   1.149
    1STR    C16 9674   0.104   4.684   1.053
    1STR    C17 9675   0.127   4.730   0.910
    1STR    H1B 9676   0.198   4.374   1.027
    1STR    H1C 9677   0.108   4.414   1.262
    1STR    H1D 9678   0.075   4.489   1.493
    1STR    H1E 9679   0.183   4.752   1.803
    1STR    H1F 9680  17.344   4.642   1.867
    1STR    H1G 9681  17.420   4.780   1.944
    1STR    H1H 9682  17.377   4.788   1.774
    1STR    H1I 9683   0.270   4.541   1.896
    1STR    H1J 9684   0.108   4.493   1.945
    1STR    H1K 9685   0.200   4.492   2.169
    1STR    H1M 9686   0.438   4.684   2.131
    1STR    H1N 9687   0.425   4.524   2.060
    1STR    H1O 9688   0.440   4.541   2.234
    1STR    H1P 9689   0.244   4.774   2.280
    1STR    H1Q 9690   0.094   4.683   2.289
    1STR    H1R 9691   0.244   4.776   2.519
    1STR    H1S 9692   0.057   4.690   2.666
    1STR    H1T 9693   0.055   4.540   2.575
    1STR    H1U 9694   0.007   4.691   2.498
    1STR    H1V 9695   0.424   4.618   2.591
    1STR    H1W 9696   0.305   4.501   2.640
    1STR    H1X 9697   0.323   4.781   2.946
    1STR    H1Y 9698   0.278   4.884   3.154
    1STR    H1Z 9699   0.192   4.869   3.383
    1STR    H20 9700  17.419   4.596   3.510
    1STR    H21 9701   0.138   4.632   3.579
    1STR    H22 9702   0.029   4.763   3.532
    1STR    H23 9703  17.424   4.400   3.255
    1STR    H27 9704   0.162   4.474   3.085
    1STR    H28 9705   0.063   4.834   1.354
    1STR    H29 9706   0.080   4.888   1.120
    1STR    H2A 9707   0.198   4.665   0.858
    1STR    H2B 9708   0.169   4.831   0.907
    1STR    H2C 9709   0.033   4.732   0.854
    1STR   BCK1 9710   0.010   4.345   5.261
    1STR    O03 9711   0.031   4.230   5.224
    1STR    N04 9712  17.380   4.379   5.370
    1STR    C05 9713  17.302   4.299   5.455
    1STR    C06 9714  17.314   4.312   5.596
    1STR    C07 9715  17.230   4.241   5.687
    1STR    N08 9716  17.243   4.261   5.826
    1STR    C09 9717  17.170   4.213   5.928
    1STR    O0A 9718  17.075   4.136   5.916
    1STR    O0B 9719  17.213   4.260   6.048
    1STR    C0C 9720  17.152   4.212   6.170
    1STR    C0D 9721  17.214   4.077   6.208
    1STR    C0E 9722  17.166   4.315   6.285
    1STR    O0F 9723  17.103   4.265   6.403
    1STR    C0G 9724  17.106   4.350   6.518
    1STR    C0H 9725  16.998   4.459   6.504
    1STR    C0I 9726  17.083   4.266   6.645
    1STR    O0J 9727  17.099   4.348   6.761
    1STR    C0K 9728  17.078   4.285   6.888
    1STR    C0M 9729  17.198   4.196   6.923
    1STR    C0N 9730  17.059   4.396   6.992
    1STR    O0O 9731  17.023   4.344   7.120
    1STR    C0P 9732  17.112   4.342   7.222
    1STR    O0Q 9733  17.229   4.377   7.214
    1STR    N0R 9734  17.051   4.297   7.331
    1STR    C0S 9735  17.097   4.273   7.462
    1STR    C0T 9736  17.004   4.219   7.553
    1STR    C0U 9737  17.042   4.186   7.684
    1STR    C0V 9738  17.174   4.206   7.728
    1STR    C0W 9739  17.212   4.156   7.866
    1STR    C0X 9740  17.268   4.267   7.640
    1STR    N0Y 9741  17.400   4.289   7.679
    1STR   BCK2 9742   0.004   4.351   7.790
    1STR    O10 9743  17.374   4.412   7.870
    1STR    C13 9744  17.229   4.298   7.507
    1STR    C14 9745  17.135   4.152   5.631
    1STR    C15 9746  17.121   4.139   5.492
    1STR    C16 9747  17.201   4.213   5.403
    1STR    C17 9748  17.171   4.202   5.254
    1STR    H1B 9749  17.384   4.477   5.392
    1STR    H1C 9750  17.389   4.379   5.635
    1STR    H1D 9751  17.316   4.322   5.858
    1STR    H1E 9752  17.045   4.198   6.153
    1STR    H1F 9753  17.321   4.086   6.227
    1STR    H1G 9754  17.167   4.037   6.298
    1STR    H1H 9755  17.200   4.004   6.129
    1STR    H1I 9756  17.120   4.409   6.254
    1STR    H1J 9757  17.272   4.335   6.304
    1STR    H1K 9758  17.205   4.396   6.526
    1STR    H1M 9759  16.900   4.415   6.491
    1STR    H1N 9760  17.017   4.525   6.419
    1STR    H1O 9761  16.995   4.521   6.593
    1STR    H1P 9762  16.983   4.221   6.643
    1STR    H1Q 9763  17.155   4.184   6.647
    1STR    H1R 9764  16.987   4.225   6.884
    1STR    H1S 9765  17.185   4.150   7.022
    1STR    H1T 9766  17.290   4.254   6.927
    1STR    H1U 9767  17.212   4.114   6.853
    1STR    H1V 9768  16.977   4.462   6.961
    1STR    H1W 9769  17.147   4.460   6.998
    1STR    H1X 9770  16.955   4.276   7.312
    1STR    H1Y 9771  16.902   4.200   7.523
    1STR    H1Z 9772  16.969   4.142   7.751
    1STR    H20 9773  17.311   4.110   7.864
    1STR    H21 9774  17.212   4.237   7.938
    1STR    H22 9775  17.142   4.080   7.902
    1STR    H23 9776   0.032   4.260   7.616
    1STR    H27 9777  17.302   4.341   7.440
    1STR    H28 9778  17.069   4.093   5.691
    1STR    H29 9779  17.045   4.073   5.453
    1STR    H2A 9780  17.186   4.297   5.204
    1STR    H2B 9781  17.068   4.171   5.237
    1STR    H2C 9782  17.237   4.128   5.208
    1STR   BCK1 9783   0.121   4.417   9.622
    1STR    O03 9784   0.199   4.512   9.614
    1STR    N04 9785   0.116   4.332   9.725
    1STR    C05 9786   0.216   4.316   9.820
    1STR    C06 9787   0.184   4.320   9.959
    1STR    C07 9788   0.284   4.300  10.058
    1STR    N08 9789   0.248   4.300  10.194
    1STR    C09 9790   0.326   4.294  10.303
    1STR    O0A 9791   0.449   4.296  10.302
    1STR    O0B 9792   0.253   4.286  10.416
    1STR    C0C 9793   0.321   4.281  10.543
    1STR    C0D 9794   0.360   4.424  10.585
    1STR    C0E 9795   0.235   4.212  10.649
    1STR    O0F 9796   0.313   4.202  10.769
    1STR    C0G 9797   0.250   4.139  10.879
    1STR    C0H 9798   0.257   3.986  10.862
    1STR    C0I 9799   0.323   4.183  11.007
    1STR    O0J 9800   0.255   4.130  11.121
    1STR    C0K 9801   0.316   4.156  11.247
    1STR    C0M 9802   0.290   4.302  11.290
    1STR    C0N 9803   0.255   4.055  11.346
    1STR    O0O 9804   0.324   4.056  11.470
    1STR    C0P 9805   0.275   4.121  11.576
    1STR    O0Q 9806   0.168   4.181  11.580
    1STR    N0R 9807   0.363   4.114  11.676
    1STR    C0S 9808   0.361   4.175  11.801
    1STR    C0T 9809   0.486   4.201  11.861
    1STR    C0U 9810   0.493   4.271  11.982
    1STR    C0V 9811   0.376   4.314  12.048
    1STR    C0W 9812   0.392   4.401  12.171
    1STR    C0X 9813   0.249   4.279  11.995
    1STR    N0Y 9814   0.132   4.317  12.060
    1STR   BCK2 9815   0.085   4.272  12.176
    1STR    O10 9816  17.435   4.332  12.233
    1STR    C13 9817   0.243   4.212  11.870
    1STR    C14 9818   0.416   4.277  10.014
    1STR    C15 9819   0.448   4.270   9.877
    1STR    C16 9820   0.348   4.286   9.780
    1STR    C17 9821   0.387   4.266   9.634
    1STR    H1B 9822   0.039   4.266   9.724
    1STR    H1C 9823   0.082   4.341   9.988
    1STR    H1D 9824   0.151   4.305  10.217
    1STR    H1E 9825   0.412   4.222  10.532
    1STR    H1F 9826   0.272   4.487  10.599
    1STR    H1G 9827   0.416   4.422  10.679
    1STR    H1H 9828   0.424   4.471  10.510
    1STR    H1I 9829   0.207   4.113  10.614
    1STR    H1J 9830   0.143   4.268  10.667
    1STR    H1K 9831   0.146   4.171  10.887
    1STR    H1M 9832   0.360   3.952  10.850
    1STR    H1N 9833   0.200   3.952  10.776
    1STR    H1O 9834   0.216   3.935  10.950
    1STR    H1P 9835   0.427   4.150  11.004
    1STR    H1Q 9836   0.325   4.292  11.011
    1STR    H1R 9837   0.423   4.137  11.241
    1STR    H1S 9838   0.332   4.322  11.388
    1STR    H1T 9839   0.183   4.322  11.296
    1STR    H1U 9840   0.333   4.374  11.221
    1STR    H1V 9841   0.263   3.955  11.305
    1STR    H1W 9842   0.148   4.073  11.359
    1STR    H1X 9843   0.444   4.062  11.649
    1STR    H1Y 9844   0.578   4.173  11.812
    1STR    H1Z 9845   0.590   4.295  12.024
    1STR    H20 9846   0.299   4.451  12.199
    1STR    H21 9847   0.428   4.342  12.255
    1STR    H22 9848   0.465   4.480  12.152
    1STR    H23 9849   0.075   4.388  12.017
    1STR    H27 9850   0.146   4.190  11.827
    1STR    H28 9851   0.498   4.261  10.082
    1STR    H29 9852   0.550   4.249   9.848
    1STR    H2A 9853   0.308   4.215   9.579
    1STR    H2B 9854   0.477   4.206   9.625
    1STR    H2C 9855   0.406   4.362   9.587
    1STR   BCK1 9856   0.054   4.457  13.963
    1STR    O03 9857  17.407   4.383  13.918
    1STR    N04 9858   0.051   4.518  14.082
    1STR    C05 9859  17.386   4.544  14.171
    1STR    C06 9860  17.403   4.527  14.311
    1STR    C07 9861  17.308   4.573  14.406
    1STR    N08 9862  17.331   4.560  14.545
    1STR    C09 9863  17.276   4.627  14.648
    1STR    O0A 9864  17.192   4.717  14.636
    1STR    O0B 9865  17.323   4.585  14.769
    1STR    C0C 9866  17.269   4.639  14.891
    1STR    C0D 9867  17.139   4.563  14.927
    1STR    C0E 9868  17.371   4.633  15.007
    1STR    O0F 9869  17.315   4.690  15.126
    1STR    C0G 9870  17.401   4.693  15.241
    1STR    C0H 9871   0.060   4.810  15.227
    1STR    C0I 9872  17.315   4.709  15.369
    1STR    O0J 9873  17.399   4.702  15.485
    1STR    C0K 9874  17.334   4.717  15.612
    1STR    C0M 9875  17.257   4.589  15.648
    1STR    C0N 9876   0.002   4.748  15.717
    1STR    O0O 9877  17.385   4.779  15.845
    1STR    C0P 9878  17.401   4.696  15.950
    1STR    O0Q 9879   0.017   4.586  15.946
    1STR    N0R 9880  17.345   4.751  16.058
    1STR    C0S 9881  17.331   4.705  16.190
    1STR    C0T 9882  17.248   4.779  16.276
    1STR    C0U 9883  17.224   4.738  16.408
    1STR    C0V 9884  17.283   4.620  16.458
    1STR    C0W 9885  17.246   4.573  16.598
    1STR    C0X 9886  17.372   4.546  16.376
    1STR    N0Y 9887  17.429   4.427  16.420
    1STR   BCK2 9888   0.065   4.405  16.528
    1STR    O10 9889   0.106   4.492  16.604
    1STR    C13 9890  17.394   4.588  16.242
    1STR    C14 9891  17.190   4.633  14.356
    1STR    C15 9892  17.170   4.650  14.217
    1STR    C16 9893  17.267   4.608  14.125
    1STR    C17 9894  17.245   4.641  13.978
    1STR    H1B 9895   0.140   4.559  14.107
    1STR    H1C 9896   0.054   4.480  14.346
    1STR    H1D 9897  17.400   4.494  14.575
    1STR    H1E 9898  17.244   4.744  14.875
    1STR    H1F 9899  17.158   4.458  14.944
    1STR    H1G 9900  17.094   4.604  15.017
    1STR    H1H 9901  17.065   4.572  14.847
    1STR    H1I 9902   0.021   4.687  14.977
    1STR    H1J 9903  17.400   4.529  15.025
    1STR    H1K 9904   0.015   4.599  15.249
    1STR    H1M 9905   0.008   4.905  15.214
    1STR    H1N 9906   0.128   4.797  15.143
    1STR    H1O 9907   0.122   4.818  15.316
    1STR    H1P 9908  17.261   4.804  15.366
    1STR    H1Q 9909  17.240   4.631  15.371
    1STR    H1R 9910  17.265   4.802  15.608
    1STR    H1S 9911  17.212   4.597  15.747
    1STR    H1T 9912  17.325   4.503  15.651
    1STR    H1U 9913  17.177   4.567  15.578
    1STR    H1V 9914   0.060   4.835  15.686
    1STR    H1W 9915   0.074   4.666  15.723
    1STR    H1X 9916  17.306   4.840  16.036
    1STR    H1Y 9917  17.199   4.869  16.241
    1STR    H1Z 9918  17.158   4.795  16.470
    1STR    H20 9919  17.242   4.464  16.603
    1STR    H21 9920  17.319   4.608  16.670
    1STR    H22 9921  17.148   4.610  16.627
    1STR    H23 9922  17.416   4.346  16.362
    1STR    H27 9923   0.019   4.530  16.179
    1STR    H28 9924  17.112   4.669  14.421
    1STR    H29 9925  17.081   4.700  14.183
    1STR    H2A 9926  17.336   4.678  13.932
    1STR    H2B 9927  17.168   4.717  13.966
    1STR    H2C 9928  17.212   4.552  13.924
    1STR   BCK1 9929   0.089   8.675   0.906
    1STR    O03 9930   0.185   8.602   0.884
    1STR    N04 9931   0.004   8.660   1.008
    1STR    C05 9932  17.434   8.552   1.096
    1STR    C06 9933  17.431   8.573   1.237
    1STR    C07 9934  17.414   8.466   1.328
    1STR    N08 9935  17.407   8.492   1.467
    1STR    C09 9936  17.403   8.407   1.571
    1STR    O0A 9937  17.412   8.285   1.562
    1STR    O0B 9938  17.388   8.472   1.689
    1STR    C0C 9939  17.387   8.397   1.812
    1STR    C0D 9940   0.092   8.366   1.854
    1STR    C0E 9941  17.312   8.473   1.923
    1STR    O0F 9942  17.310   8.393   2.042
    1STR    C0G 9943  17.244   8.450   2.154
    1STR    C0H 9944  17.092   8.430   2.140
    1STR    C0I 9945  17.297   8.381   2.282
    1STR    O0J 9946  17.242   8.447   2.397
    1STR    C0K 9947  17.278   8.391   2.523
    1STR    C0M 9948  17.422   8.429   2.560
    1STR    C0N 9949  17.178   8.447   2.627
    1STR    O0O 9950  17.192   8.382   2.752
    1STR    C0P 9951  17.250   8.443   2.857
    1STR    O0Q 9952  17.302   8.554   2.856
    1STR    N0R 9953  17.241   8.362   2.962
    1STR    C0S 9954  17.284   8.372   3.094
    1STR    C0T 9955  17.247   8.266   3.179
    1STR    C0U 9956  17.291   8.262   3.313
    1STR    C0V 9957  17.373   8.364   3.364
    1STR    C0W 9958  17.429   8.345   3.504
    1STR    C0X 9959  17.408   8.475   3.282
    1STR    N0Y 9960   0.056   8.573   3.329
    1STR   BCK2 9961   0.046   8.644   3.442
    1STR    O10 9962  17.385   8.654   3.511
    1STR    C13 9963  17.364   8.477   3.147
    1STR    C14 9964  17.402   8.336   1.275
    1STR    C15 9965  17.404   8.313   1.136
    1STR    C16 9966  17.417   8.420   1.046
    1STR    C17 9967  17.406   8.389   0.898
    1STR    H1B 9968  17.378   8.735   1.020
    1STR    H1C 9969   0.001   8.674   1.273
    1STR    H1D 9970  17.404   8.588   1.497
    1STR    H1E 9971  17.334   8.303   1.795
    1STR    H1F 9972   0.149   8.457   1.872
    1STR    H1G 9973   0.094   8.306   1.945
    1STR    H1H 9974   0.144   8.309   1.776
    1STR    H1I 9975  17.210   8.493   1.889
    1STR    H1J 9976  17.359   8.569   1.942
    1STR    H1K 9977  17.268   8.556   2.162
    1STR    H1M 9978  17.067   8.325   2.128
    1STR    H1N 9979  17.052   8.484   2.055
    1STR    H1O 9980  17.040   8.467   2.229
    1STR    H1P 9981  17.271   8.275   2.281
    1STR    H1Q 9982  17.406   8.387   2.283
    1STR    H1R 9983  17.267   8.282   2.521
    1STR    H1S 9984   0.009   8.390   2.659
    1STR    H1T 9985  17.434   8.537   2.564
    1STR    H1U 9986   0.055   8.389   2.490
    1STR    H1V 9987  17.076   8.428   2.592
    1STR    H1W 9988  17.187   8.555   2.636
    1STR    H1X 9989  17.192   8.278   2.936
    1STR    H1Y 9990  17.186   8.185   3.144
    1STR    H1Z 9991  17.263   8.178   3.375
    1STR    H20 9992   0.097   8.355   3.501
    1STR    H21 9993  17.388   8.418   3.573
    1STR    H22 9994  17.406   8.247   3.544
    1STR    H23 9995   0.136   8.594   3.273
    1STR    H27 9996  17.393   8.560   3.084
    1STR    H28 9997  17.390   8.249   1.337
    1STR    H29 9998  17.392   8.212   1.100
    1STR    H2A 9999  17.354   8.469   0.845
    1STR    H2B10000  17.352   8.297   0.880
    1STR    H2C10001   0.066   8.379   0.854
    1STR   BCK110002   0.090   8.775   5.249
    1STR    O0310003   0.035   8.882   5.222
    1STR    N0410004   0.152   8.747   5.364
    1STR    C0510005   0.194   8.840   5.459
    1STR    C0610006   0.170   8.816   5.597
    1STR    C0710007   0.220   8.903   5.697
    1STR    N0810008   0.200   8.873   5.833
    1STR    C0910009   0.261   8.923   5.941
    1STR    O0A10010   0.350   9.009   5.938
    1STR    O0B10011   0.215   8.869   6.056
    1STR    C0C10012   0.260   8.921   6.182
    1STR    C0D10013   0.172   9.041   6.220
    1STR    C0E10014   0.261   8.813   6.291
    1STR    O0F10015   0.316   8.871   6.409
    1STR    C0G10016   0.328   8.785   6.522
    1STR    C0H10017   0.453   8.697   6.506
    1STR    C0I10018   0.338   8.873   6.647
    1STR    O0J10019   0.342   8.790   6.763
    1STR    C0K10020   0.355   8.859   6.887
    1STR    C0M10021   0.220   8.919   6.929
    1STR    C0N10022   0.406   8.755   6.989
    1STR    O0O10023   0.441   8.816   7.113
    1STR    C0P10024   0.359   8.808   7.218
    1STR    O0Q10025   0.250   8.753   7.218
    1STR    N0R10026   0.414   8.871   7.322
    1STR    C0S10027   0.367   8.891   7.452
    1STR    C0T10028   0.430   8.989   7.531
    1STR    C0U10029   0.384   9.016   7.662
    1STR    C0V10030   0.275   8.946   7.716
    1STR    C0W10031   0.223   8.983   7.854
    1STR    C0X10032   0.214   8.843   7.640
    1STR    N0Y10033   0.107   8.769   7.690
    1STR   BCK210034   0.106   8.681   7.790
    1STR    O1010035   0.002   8.626   7.823
    1STR    C1310036   0.259   8.817   7.508
    1STR    C1410037   0.289   9.019   5.655
    1STR    C1510038   0.316   9.042   5.520
    1STR    C1610039   0.272   8.952   5.421
    1STR    C1710040   0.317   8.976   5.278
    1STR    H1B10041   0.178   8.651   5.376
    1STR    H1C10042   0.113   8.728   5.625
    1STR    H1D10043   0.133   8.802   5.857
    1STR    H1E10044   0.364   8.956   6.172
    1STR    H1F10045   0.068   9.011   6.234
    1STR    H1G10046   0.207   9.086   6.314
    1STR    H1H10047   0.175   9.118   6.144
    1STR    H1I10048   0.322   8.729   6.257
    1STR    H1J10049   0.161   8.776   6.309
    1STR    H1K10050   0.239   8.722   6.531
    1STR    H1M10051   0.543   8.757   6.492
    1STR    H1N10052   0.446   8.629   6.421
    1STR    H1O10053   0.469   8.635   6.594
    1STR    H1P10054   0.428   8.936   6.641
    1STR    H1Q10055   0.253   8.940   6.650
    1STR    H1R10056   0.430   8.938   6.879
    1STR    H1S10057   0.227   8.968   7.026
    1STR    H1T10058   0.143   8.842   6.937
    1STR    H1U10059   0.184   8.994   6.859
    1STR    H1V10060   0.495   8.707   6.950
    1STR    H1W10061   0.333   8.675   7.002
    1STR    H1X10062   0.503   8.911   7.298
    1STR    H1Y10063   0.513   9.046   7.493
    1STR    H1Z10064   0.432   9.093   7.720
    1STR    H2010065   0.116   8.967   7.861
    1STR    H2110066   0.272   8.924   7.930
    1STR    H2210067   0.241   9.089   7.875
    1STR    H2310068   0.019   8.775   7.641
    1STR    H2710069   0.211   8.739   7.452
    1STR    H2810070   0.326   9.092   5.725
    1STR    H2910071   0.373   9.129   5.492
    1STR    H2A10072   0.338   8.883   5.227
    1STR    H2B10073   0.409   9.035   5.275
    1STR    H2C10074   0.241   9.031   5.223
    1STR   BCK110075  17.438   8.757   9.617
    1STR    O0310076  17.414   8.644   9.577
    1STR    N0410077  17.388   8.812   9.729
    1STR    C0510078  17.286   8.767   9.814
    1STR    C0610079  17.305   8.771   9.955
    1STR    C0710080  17.200   8.740  10.047
    1STR    N0810081  17.222   8.750  10.186
    1STR    C0910082  17.134   8.748  10.288
    1STR    O0A10083  17.012   8.737  10.275
    1STR    O0B10084  17.195   8.762  10.409
    1STR    C0C10085  17.117   8.753  10.530
    1STR    C0D10086  17.097   8.605  10.566
    1STR    C0E10087  17.184   8.830  10.646
    1STR    O0F10088  17.104   8.821  10.765
    1STR    C0G10089  17.153   8.891  10.880
    1STR    C0H10090  17.120   9.041  10.866
    1STR    C0I10091  17.088   8.833  11.008
    1STR    O0J10092  17.146   8.894  11.124
    1STR    C0K10093  17.095   8.851  11.251
    1STR    C0M10094  17.148   8.711  11.286
    1STR    C0N10095  17.139   8.954  11.357
    1STR    O0O10096  17.081   8.928  11.486
    1STR    C0P10097  17.156   8.884  11.589
    1STR    O0Q10098  17.275   8.857  11.583
    1STR    N0R10099  17.080   8.876  11.698
    1STR    C0S10100  17.107   8.833  11.829
    1STR    C0T10101  16.999   8.830  11.919
    1STR    C0U10102  17.015   8.782  12.050
    1STR    C0V10103  17.140   8.734  12.095
    1STR    C0W10104  17.147   8.672  12.233
    1STR    C0X10105  17.252   8.741  12.008
    1STR    N0Y10106  17.378   8.691  12.044
    1STR   BCK210107   0.010   8.711  12.155
    1STR    O1010108  17.419   8.788  12.245
    1STR    C1310109  17.234   8.789  11.875
    1STR    C1410110  17.076   8.700   9.992
    1STR    C1510111  17.056   8.696   9.853
    1STR    C1610112  17.159   8.731   9.763
    1STR    C1710113  17.126   8.736   9.615
    1STR    H1B10114  17.430   8.901   9.752
    1STR    H1C10115  17.401   8.800   9.993
    1STR    H1D10116  17.316   8.762  10.218
    1STR    H1E10117  17.020   8.798  10.513
    1STR    H1F10118  17.192   8.555  10.585
    1STR    H1G10119  17.036   8.595  10.656
    1STR    H1H10120  17.046   8.551  10.486
    1STR    H1I10121  17.196   8.934  10.617
    1STR    H1J10122  17.284   8.790  10.665
    1STR    H1K10123  17.261   8.877  10.889
    1STR    H1M10124  17.013   9.056  10.853
    1STR    H1N10125  17.171   9.087  10.782
    1STR    H1O10126  17.150   9.095  10.955
    1STR    H1P10127  16.980   8.848  11.006
    1STR    H1Q10128  17.105   8.725  11.010
    1STR    H1R10129  16.985   8.849  11.248
    1STR    H1S10130  17.114   8.680  11.385
    1STR    H1T10131  17.257   8.711  11.288
    1STR    H1U10132  17.116   8.635  11.216
    1STR    H1V10133  17.105   9.053  11.327
    1STR    H1W10134  17.247   8.960  11.363
    1STR    H1X10135  16.986   8.905  11.678
    1STR    H1Y10136  16.901   8.864  11.889
    1STR    H1Z10137  16.930   8.778  12.116
    1STR    H2010138  17.220   8.591  12.237
    1STR    H2110139  17.176   8.747  12.307
    1STR    H2210140  17.051   8.630  12.263
    1STR    H2310141  17.425   8.635  11.975
    1STR    H2710142  17.319   8.792  11.809
    1STR    H2810143  16.992   8.673  10.054
    1STR    H2910144  16.959   8.668   9.815
    1STR    H2A10145  17.175   8.820   9.567
    1STR    H2B10146  17.019   8.748   9.599
    1STR    H2C10147  17.158   8.644   9.566
    1STR   BCK110148   0.136   8.738  13.984
    1STR    O0310149   0.254   8.770  13.975
    1STR    N0410150   0.084   8.667  14.084
    1STR    C0510151   0.157   8.592  14.177
    1STR    C0610152   0.134   8.609  14.316
    1STR    C0710153   0.202   8.529  14.412
    1STR    N0810154   0.174   8.545  14.549
    1STR    C0910155   0.239   8.496  14.656
    1STR    O0A10156   0.344   8.433  14.651
    1STR    O0B10157   0.175   8.525  14.771
    1STR    C0C10158   0.230   8.482  14.895
    1STR    C0D10159   0.340   8.580  14.940
    1STR    C0E10160   0.120   8.468  15.002
    1STR    O0F10161   0.180   8.418  15.122
    1STR    C0G10162   0.091   8.401  15.232
    1STR    C0H10163   0.016   8.268  15.217
    1STR    C0I10164   0.175   8.404  15.361
    1STR    O0J10165   0.085   8.406  15.472
    1STR    C0K10166   0.146   8.397  15.600
    1STR    C0M10167   0.213   8.529  15.639
    1STR    C0N10168   0.034   8.359  15.699
    1STR    O0O10169   0.091   8.317  15.822
    1STR    C0P10170   0.093   8.395  15.930
    1STR    O0Q10171   0.038   8.504  15.942
    1STR    N0R10172   0.167   8.334  16.021
    1STR    C0S10173   0.207   8.367  16.150
    1STR    C0T10174   0.306   8.285  16.205
    1STR    C0U10175   0.350   8.304  16.336
    1STR    C0V10176   0.294   8.405  16.416
    1STR    C0W10177   0.340   8.403  16.560
    1STR    C0X10178   0.193   8.492  16.365
    1STR    N0Y10179   0.115   8.581  16.440
    1STR   BCK210180   0.125   8.665  16.544
    1STR    O1010181   0.023   8.716  16.588
    1STR    C1310182   0.152   8.472  16.230
    1STR    C1410183   0.294   8.433  14.364
    1STR    C1510184   0.315   8.414  14.227
    1STR    C1610185   0.246   8.491  14.133
    1STR    C1710186   0.265   8.459  13.985
    1STR    H1B10187  17.424   8.659  14.085
    1STR    H1C10188   0.064   8.684  14.349
    1STR    H1D10189   0.095   8.601  14.575
    1STR    H1E10190   0.275   8.383  14.882
    1STR    H1F10191   0.300   8.680  14.955
    1STR    H1G10192   0.386   8.547  15.033
    1STR    H1H10193   0.419   8.587  14.865
    1STR    H1I10194   0.044   8.399  14.966
    1STR    H1J10195   0.072   8.564  15.020
    1STR    H1K10196   0.020   8.484  15.236
    1STR    H1M10197   0.086   8.185  15.208
    1STR    H1N10198  17.391   8.267  15.130
    1STR    H1O10199  17.394   8.249  15.305
    1STR    H1P10200   0.241   8.318  15.365
    1STR    H1Q10201   0.238   8.493  15.361
    1STR    H1R10202   0.220   8.316  15.600
    1STR    H1S10203   0.257   8.523  15.739
    1STR    H1T10204   0.141   8.611  15.641
    1STR    H1U10205   0.294   8.557  15.571
    1STR    H1V10206  17.417   8.275  15.660
    1STR    H1W10207  17.403   8.441  15.712
    1STR    H1X10208   0.200   8.247  15.984
    1STR    H1Y10209   0.348   8.203  16.148
    1STR    H1Z10210   0.425   8.237  16.375
    1STR    H2010211   0.397   8.493  16.582
    1STR    H2110212   0.252   8.392  16.623
    1STR    H2210213   0.406   8.320  16.581
    1STR    H2310214   0.020   8.588  16.408
    1STR    H2710215   0.075   8.534  16.188
    1STR    H2810216   0.349   8.368  14.431
    1STR    H2910217   0.385   8.338  14.195
    1STR    H2A10218   0.171   8.466  13.931
    1STR    H2B10219   0.304   8.358  13.971
    1STR    H2C10220   0.336   8.529  13.941
    1STR   BCK110221   0.063  13.153   0.876
    1STR    O0310222  17.401  13.187   0.817
    1STR    N0410223   0.098  13.188   1.001
    1STR    C0510224   0.041  13.281   1.090
    1STR    C0610225   0.045  13.253   1.229
    1STR    C0710226  17.440  13.346   1.327
    1STR    N0810227   0.012  13.317   1.465
    1STR    C0910228   0.005  13.400   1.570
    1STR    O0A10229  17.427  13.522   1.562
    1STR    O0B10230   0.020  13.335   1.689
    1STR    C0C10231   0.004  13.407   1.812
    1STR    C0D10232  17.294  13.412   1.848
    1STR    C0E10233   0.088  13.345   1.926
    1STR    O0F10234   0.072  13.424   2.045
    1STR    C0G10235   0.146  13.382   2.159
    1STR    C0H10236   0.293  13.427   2.145
    1STR    C0I10237   0.082  13.443   2.285
    1STR    O0J10238   0.150  13.396   2.402
    1STR    C0K10239   0.104  13.446   2.527
    1STR    C0M10240  17.414  13.375   2.568
    1STR    C0N10241   0.216  13.422   2.630
    1STR    O0O10242   0.188  13.482   2.756
    1STR    C0P10243   0.153  13.406   2.861
    1STR    O0Q10244   0.133  13.285   2.856
    1STR    N0R10245   0.142  13.482   2.970
    1STR    C0S10246   0.106  13.448   3.102
    1STR    C0T10247   0.084  13.553   3.194
    1STR    C0U10248   0.043  13.526   3.326
    1STR    C0V10249   0.021  13.393   3.369
    1STR    C0W10250  17.405  13.371   3.508
    1STR    C0X10251   0.047  13.286   3.280
    1STR    N0Y10252   0.019  13.153   3.308
    1STR   BCK210253   0.061  13.068   3.402
    1STR    O1010254   0.022  12.952   3.397
    1STR    C1310255   0.089  13.316   3.148
    1STR    C1410256  17.383  13.466   1.281
    1STR    C1510257  17.381  13.497   1.144
    1STR    C1610258  17.433  13.408   1.048
    1STR    C1710259  17.440  13.458   0.905
    1STR    H1B10260   0.180  13.139   1.033
    1STR    H1C10261   0.086  13.158   1.262
    1STR    H1D10262   0.031  13.222   1.492
    1STR    H1E10263   0.040  13.510   1.799
    1STR    H1F10264  17.254  13.312   1.864
    1STR    H1G10265  17.278  13.469   1.940
    1STR    H1H10266  17.236  13.459   1.770
    1STR    H1I10267   0.192  13.342   1.896
    1STR    H1J10268   0.057  13.242   1.944
    1STR    H1K10269   0.142  13.273   2.168
    1STR    H1M10270   0.299  13.535   2.131
    1STR    H1N10271   0.343  13.380   2.060
    1STR    H1O10272   0.350  13.402   2.234
    1STR    H1P10273   0.086  13.552   2.280
    1STR    H1Q10274  17.417  13.415   2.289
    1STR    H1R10275   0.087  13.554   2.520
    1STR    H1S10276  17.380  13.408   2.666
    1STR    H1T10277  17.429  13.267   2.574
    1STR    H1U10278  17.332  13.394   2.498
    1STR    H1V10279   0.309  13.466   2.593
    1STR    H1W10280   0.237  13.315   2.639
    1STR    H1X10281   0.161  13.578   2.950
    1STR    H1Y10282   0.096  13.656   3.164
    1STR    H1Z10283   0.024  13.608   3.393
    1STR    H2010284  17.342  13.282   3.511
    1STR    H2110285   0.046  13.359   3.580
    1STR    H2210286  17.344  13.455   3.540
    1STR    H2310287  17.403  13.105   3.240
    1STR    H2710288   0.107  13.232   3.082
    1STR    H2810289  17.342  13.540   1.348
    1STR    H2910290  17.341  13.593   1.113
    1STR    H2A10291   0.088  13.419   0.854
    1STR    H2B10292   0.007  13.567   0.902
    1STR    H2C10293  17.351  13.429   0.850
    1STR   BCK110294   0.034  13.042   5.264
    1STR    O0310295   0.084  12.935   5.230
    1STR    N0410296  17.395  13.059   5.371
    1STR    C0510297  17.340  12.963   5.456
    1STR    C0610298  17.347  12.981   5.597
    1STR    C0710299  17.285  12.890   5.687
    1STR    N0810300  17.290  12.915   5.826
    1STR    C0910301  17.239  12.845   5.929
    1STR    O0A10302  17.178  12.739   5.919
    1STR    O0B10303  17.263  12.905   6.049
    1STR    C0C10304  17.221  12.841   6.171
    1STR    C0D10305  17.326  12.735   6.210
    1STR    C0E10306  17.199  12.943   6.284
    1STR    O0F10307  17.156  12.874   6.403
    1STR    C0G10308  17.130  12.957   6.517
    1STR    C0H10309  16.991  13.021   6.503
    1STR    C0I10310  17.137  12.869   6.644
    1STR    O0J10311  17.124  12.952   6.760
    1STR    C0K10312  17.126  12.886   6.886
    1STR    C0M10313  17.269  12.843   6.922
    1STR    C0N10314  17.070  12.985   6.990
    1STR    O0O10315  17.052  12.923   7.118
    1STR    C0P10316  17.136  12.949   7.220
    1STR    O0Q10317  17.237  13.018   7.213
    1STR    N0R10318  17.091  12.886   7.328
    1STR    C0S10319  17.140  12.877   7.459
    1STR    C0T10320  17.063  12.801   7.550
    1STR    C0U10321  17.106  12.780   7.681
    1STR    C0V10322  17.228  12.834   7.726
    1STR    C0W10323  17.277  12.795   7.865
    1STR    C0X10324  17.305  12.916   7.639
    1STR    N0Y10325  17.428  12.968   7.680
    1STR   BCK210326   0.012  13.042   7.789
    1STR    O1010327  17.366  13.092   7.861
    1STR    C1310328  17.261  12.935   7.505
    1STR    C1410329  17.217  12.779   5.632
    1STR    C1510330  17.207  12.761   5.493
    1STR    C1610331  17.266  12.853   5.404
    1STR    C1710332  17.241  12.833   5.255
    1STR    H1B10333  17.374  13.156   5.390
    1STR    H1C10334  17.401  13.065   5.635
    1STR    H1D10335  17.339  12.997   5.858
    1STR    H1E10336  17.126  12.790   6.154
    1STR    H1F10337  17.423  12.781   6.229
    1STR    H1G10338  17.296  12.682   6.300
    1STR    H1H10339  17.339  12.661   6.131
    1STR    H1I10340  17.124  13.015   6.253
    1STR    H1J10341  17.291  12.998   6.304
    1STR    H1K10342  17.207  13.034   6.525
    1STR    H1M10343  16.914  12.946   6.490
    1STR    H1N10344  16.986  13.090   6.418
    1STR    H1O10345  16.967  13.079   6.592
    1STR    H1P10346  17.059  12.793   6.642
    1STR    H1Q10347  17.233  12.817   6.645
    1STR    H1R10348  17.060  12.798   6.883
    1STR    H1S10349  17.272  12.795   7.021
    1STR    H1T10350  17.336  12.929   6.926
    1STR    H1U10351  17.310  12.771   6.852
    1STR    H1V10352  16.972  13.020   6.958
    1STR    H1W10353  17.132  13.074   6.997
    1STR    H1X10354  17.006  12.837   7.308
    1STR    H1Y10355  16.969  12.757   7.519
    1STR    H1Z10356  17.046  12.720   7.748
    1STR    H2010357  17.381  12.762   7.860
    1STR    H2110358  17.269  12.878   7.934
    1STR    H2210359  17.219  12.712   7.906
    1STR    H2310360   0.067  12.953   7.621
    1STR    H2710361  17.321  12.994   7.439
    1STR    H2810362  17.168  12.705   5.693
    1STR    H2910363  17.152  12.677   5.455
    1STR    H2A10364  17.231  12.929   5.204
    1STR    H2B10365  17.150  12.777   5.238
    1STR    H2C10366  17.324  12.778   5.211
    1STR   BCK110367   0.103  13.145   9.620
    1STR    O0310368   0.134  13.263   9.610
    1STR    N0410369   0.132  13.068   9.725
    1STR    C0510370   0.227  13.098   9.822
    1STR    C0610371   0.194  13.092   9.960
    1STR    C0710372   0.291  13.119  10.060
    1STR    N0810373   0.256  13.106  10.196
    1STR    C0910374   0.332  13.122  10.306
    1STR    O0A10375   0.449  13.156  10.306
    1STR    O0B10376   0.263  13.094  10.419
    1STR    C0C10377   0.327  13.113  10.546
    1STR    C0D10378   0.316  13.261  10.586
    1STR    C0E10379   0.270  13.020  10.653
    1STR    O0F10380   0.347  13.038  10.772
    1STR    C0G10381   0.311  12.958  10.884
    1STR    C0H10382   0.370  12.817  10.867
    1STR    C0I10383   0.365  13.026  11.010
    1STR    O0J10384   0.321  12.954  11.125
    1STR    C0K10385   0.369  13.002  11.250
    1STR    C0M10386   0.291  13.128  11.292
    1STR    C0N10387   0.349  12.887  11.351
    1STR    O0O10388   0.412  12.916  11.476
    1STR    C0P10389   0.339  12.956  11.581
    1STR    O0Q10390   0.218  12.972  11.582
    1STR    N0R10391   0.422  12.980  11.683
    1STR    C0S10392   0.395  13.031  11.810
    1STR    C0T10393   0.504  13.088  11.881
    1STR    C0U10394   0.484  13.147  12.007
    1STR    C0V10395   0.357  13.148  12.066
    1STR    C0W10396   0.339  13.220  12.199
    1STR    C0X10397   0.249  13.083  12.001
    1STR    N0Y10398   0.124  13.078  12.062
    1STR   BCK210399   0.090  13.006  12.169
    1STR    O1010400  17.427  13.028  12.230
    1STR    C1310401   0.268  13.027  11.873
    1STR    C1410402   0.420  13.157  10.018
    1STR    C1510403   0.454  13.161   9.882
    1STR    C1610404   0.360  13.128   9.783
    1STR    C1710405   0.407  13.123   9.639
    1STR    H1B10406   0.090  12.976   9.725
    1STR    H1C10407   0.093  13.066   9.987
    1STR    H1D10408   0.162  13.080  10.218
    1STR    H1E10409   0.433  13.087  10.536
    1STR    H1F10410   0.212  13.291  10.599
    1STR    H1G10411   0.369  13.280  10.680
    1STR    H1H10412   0.361  13.326  10.511
    1STR    H1I10413   0.276  12.917  10.619
    1STR    H1J10414   0.165  13.042  10.671
    1STR    H1K10415   0.202  12.952  10.893
    1STR    H1M10416   0.478  12.821  10.853
    1STR    H1N10417   0.328  12.764  10.781
    1STR    H1O10418   0.350  12.756  10.955
    1STR    H1P10419   0.474  13.030  11.006
    1STR    H1Q10420   0.330  13.129  11.013
    1STR    H1R10421   0.475  13.024  11.244
    1STR    H1S10422   0.323  13.164  11.390
    1STR    H1T10423   0.184  13.108  11.298
    1STR    H1U10424   0.306  13.211  11.222
    1STR    H1V10425   0.395  12.796  11.312
    1STR    H1W10426   0.243  12.864  11.363
    1STR    H1X10427   0.517  12.963  11.658
    1STR    H1Y10428   0.602  13.091  11.837
    1STR    H1Z10429   0.568  13.193  12.057
    1STR    H2010430   0.237  13.257  12.211
    1STR    H2110431   0.360  13.153  12.282
    1STR    H2210432   0.405  13.305  12.206
    1STR    H2310433   0.050  13.137  12.026
    1STR    H2710434   0.184  12.980  11.823
    1STR    H2810435   0.499  13.182  10.086
    1STR    H2910436   0.555  13.187   9.854
    1STR    H2A10437   0.358  13.041   9.585
    1STR    H2B10438   0.514  13.106   9.633
    1STR    H2C10439   0.385  13.217   9.588
    1STR   BCK110440   0.023  13.162  13.966
    1STR    O0310441  17.397  13.067  13.924
    1STR    N0410442   0.003  13.225  14.082
    1STR    C0510443  17.333  13.224  14.170
    1STR    C0610444  17.354  13.215  14.311
    1STR    C0710445  17.248  13.232  14.405
    1STR    N0810446  17.273  13.228  14.544
    1STR    C0910447  17.197  13.273  14.646
    1STR    O0A10448  17.089  13.329  14.633
    1STR    O0B10449  17.256  13.250  14.768
    1STR    C0C10450  17.185  13.283  14.889
    1STR    C0D10451  17.089  13.168  14.925
    1STR    C0E10452  17.283  13.312  15.006
    1STR    O0F10453  17.210  13.346  15.125
    1STR    C0G10454  17.289  13.379  15.240
    1STR    C0H10455  17.342  13.523  15.226
    1STR    C0I10456  17.203  13.365  15.368
    1STR    O0J10457  17.284  13.386  15.484
    1STR    C0K10458  17.218  13.378  15.611
    1STR    C0M10459  17.190  13.231  15.647
    1STR    C0N10460  17.310  13.442  15.717
    1STR    O0O10461  17.247  13.451  15.845
    1STR    C0P10462  17.290  13.377  15.949
    1STR    O0Q10463  17.379  13.292  15.944
    1STR    N0R10464  17.221  13.410  16.059
    1STR    C0S10465  17.223  13.360  16.190
    1STR    C0T10466  17.123  13.408  16.277
    1STR    C0U10467  17.113  13.360  16.409
    1STR    C0V10468  17.203  13.263  16.457
    1STR    C0W10469  17.180  13.206  16.596
    1STR    C0X10470  17.308  13.217  16.373
    1STR    N0Y10471  17.394  13.115  16.414
    1STR   BCK210472   0.030  13.107  16.524
    1STR    O1010473   0.047  13.199  16.604
    1STR    C1310474  17.316  13.265  16.240
    1STR    C1410475  17.118  13.253  14.353
    1STR    C1510476  17.096  13.261  14.214
    1STR    C1610477  17.202  13.249  14.123
    1STR    C1710478  17.172  13.272  13.975
    1STR    H1B10479   0.077  13.289  14.106
    1STR    H1C10480   0.014  13.198  14.347
    1STR    H1D10481  17.360  13.189  14.575
    1STR    H1E10482  17.127  13.374  14.873
    1STR    H1F10483  17.142  13.075  14.943
    1STR    H1G10484  17.032  13.192  15.015
    1STR    H1H10485  17.017  13.151  14.845
    1STR    H1I10486  17.349  13.393  14.977
    1STR    H1J10487  17.346  13.225  15.025
    1STR    H1K10488  17.372  13.309  15.248
    1STR    H1M10489  17.260  13.594  15.213
    1STR    H1N10490  17.410  13.534  15.142
    1STR    H1O10491  17.397  13.552  15.316
    1STR    H1P10492  17.120  13.436  15.366
    1STR    H1Q10493  17.159  13.265  15.370
    1STR    H1R10494  17.125  13.434  15.608
    1STR    H1S10495  17.145  13.223  15.746
    1STR    H1T10496  17.282  13.173  15.649
    1STR    H1U10497  17.122  13.183  15.577
    1STR    H1V10498  17.335  13.544  15.686
    1STR    H1W10499  17.406  13.390  15.722
    1STR    H1X10500  17.154  13.482  16.038
    1STR    H1Y10501  17.050  13.481  16.244
    1STR    H1Z10502  17.034  13.396  16.473
    1STR    H2010503  17.207  13.100  16.601
    1STR    H2110504  17.241  13.260  16.669
    1STR    H2210505  17.076  13.214  16.626
    1STR    H2310506  17.404  13.036  16.352
    1STR    H2710507  17.394  13.229  16.176
    1STR    H2810508  17.032  13.264  14.417
    1STR    H2910509  16.996  13.281  14.179
    1STR    H2A10510  17.250  13.331  13.928
    1STR    H2B10511  17.078  13.326  13.962
    1STR    H2C10512  17.164  13.177  13.924
    1STR   BCK110513   4.480  17.413   0.908
    1STR    O0310514   4.597  17.377   0.896
    1STR    N0410515   4.399  17.374   1.007
    1STR    C0510516   4.421  17.270   1.097
    1STR    C0610517   4.410  17.291   1.237
    1STR    C0710518   4.426  17.185   1.330
    1STR    N0810519   4.410  17.209   1.468
    1STR    C0910520   4.436  17.130   1.573
    1STR    O0A10521   4.488  17.019   1.565
    1STR    O0B10522   4.399  17.187   1.689
    1STR    C0C10523   4.423  17.118   1.813
    1STR    C0D10524   4.569  17.139   1.856
    1STR    C0E10525   4.325  17.164   1.922
    1STR    O0F10526   4.350  17.089   2.041
    1STR    C0G10527   4.267  17.121   2.153
    1STR    C0H10528   4.132  17.049   2.139
    1STR    C0I10529   4.340  17.076   2.281
    1STR    O0J10530   4.267  17.120   2.395
    1STR    C0K10531   4.319  17.080   2.522
    1STR    C0M10532   4.443  17.163   2.558
    1STR    C0N10533   4.207  17.100   2.626
    1STR    O0O10534   4.246  17.041   2.750
    1STR    C0P10535   4.276  17.116   2.857
    1STR    O0Q10536   4.271  17.238   2.865
    1STR    N0R10537   4.313  17.033   2.954
    1STR    C0S10538   4.353  17.051   3.087
    1STR    C0T10539   4.385  16.934   3.157
    1STR    C0U10540   4.419  16.939   3.292
    1STR    C0V10541   4.420  17.061   3.362
    1STR    C0W10542   4.442  17.052   3.511
    1STR    C0X10543   4.392  17.182   3.294
    1STR    N0Y10544   4.380  17.304   3.361
    1STR   BCK210545   4.453  17.369   3.452
    1STR    O1010546   4.406   0.025   3.511
    1STR    C1310547   4.358  17.175   3.156
    1STR    C1410548   4.454  17.057   1.278
    1STR    C1510549   4.464  17.034   1.140
    1STR    C1610550   4.445  17.139   1.049
    1STR    C1710551   4.446  17.105   0.900
    1STR    H1B10552   4.310  17.422   1.011
    1STR    H1C10553   4.389  17.391   1.272
    1STR    H1D10554   4.374  17.299   1.496
    1STR    H1E10555   4.406  17.011   1.797
    1STR    H1F10556   4.591  17.244   1.874
    1STR    H1G10557   4.591  17.084   1.948
    1STR    H1H10558   4.638  17.103   1.780
    1STR    H1I10559   4.222  17.148   1.888
    1STR    H1J10560   4.336  17.271   1.941
    1STR    H1K10561   4.252  17.229   2.160
    1STR    H1M10562   4.145  16.942   2.128
    1STR    H1N10563   4.075  17.085   2.053
    1STR    H1O10564   4.070  17.066   2.227
    1STR    H1P10565   4.351  16.967   2.282
    1STR    H1Q10566   4.440  17.118   2.282
    1STR    H1R10567   4.344  16.974   2.519
    1STR    H1S10568   4.481  17.136   2.657
    1STR    H1T10569   4.419  17.270   2.562
    1STR    H1U10570   4.525  17.149   2.488
    1STR    H1V10571   4.117  17.049   2.593
    1STR    H1W10572   4.181  17.205   2.637
    1STR    H1X10573   4.309  16.938   2.921
    1STR    H1Y10574   4.383  16.837   3.108
    1STR    H1Z10575   4.441  16.847   3.345
    1STR    H2010576   4.549  17.052   3.531
    1STR    H2110577   4.394  17.135   3.563
    1STR    H2210578   4.401  16.961   3.553
    1STR    H2310579   4.297  17.358   3.339
    1STR    H2710580   4.333  17.266   3.103
    1STR    H2810581   4.468  16.971   1.342
    1STR    H2910582   4.484  16.934   1.105
    1STR    H2A10583   4.370  17.162   0.847
    1STR    H2B10584   4.426  17.000   0.883
    1STR    H2C10585   4.543  17.128   0.857
    1STR   BCK110586   4.448   0.058   5.242
    1STR    O0310587   4.364   0.137   5.199
    1STR    N0410588   4.504   0.063   5.364
    1STR    C0510589   4.504   0.168   5.456
    1STR    C0610590   4.491   0.138   5.595
    1STR    C0710591   4.502   0.239   5.694
    1STR    N0810592   4.496   0.205   5.830
    1STR    C0910593   4.536   0.277   5.937
    1STR    O0A10594   4.588   0.388   5.932
    1STR    O0B10595   4.513   0.211   6.053
    1STR    C0C10596   4.537   0.277   6.178
    1STR    C0D10597   4.413   0.360   6.216
    1STR    C0E10598   4.575   0.178   6.289
    1STR    O0F10599   4.606   0.251   6.408
    1STR    C0G10600   4.646   0.175   6.521
    1STR    C0H10601   4.794   0.135   6.505
    1STR    C0I10602   4.625   0.261   6.646
    1STR    O0J10603   4.657   0.185   6.762
    1STR    C0K10604   4.646   0.253   6.887
    1STR    C0M10605   4.498   0.262   6.929
    1STR    C0N10606   4.729   0.174   6.989
    1STR    O0O10607   4.739   0.242   7.114
    1STR    C0P10608   4.667   0.202   7.219
    1STR    O0Q10609   4.584   0.112   7.217
    1STR    N0R10610   4.698   0.277   7.326
    1STR    C0S10611   4.649   0.273   7.457
    1STR    C0T10612   4.679   0.382   7.541
    1STR    C0U10613   4.629   0.386   7.673
    1STR    C0V10614   4.547   0.283   7.723
    1STR    C0W10615   4.487   0.297   7.862
    1STR    C0X10616   4.520   0.170   7.641
    1STR    N0Y10617   4.437   0.067   7.682
    1STR   BCK210618   4.454  17.417   7.780
    1STR    O1010619   4.368  17.332   7.799
    1STR    C1310620   4.570   0.167   7.509
    1STR    C1410621   4.521   0.372   5.650
    1STR    C1510622   4.536   0.403   5.514
    1STR    C1610623   4.532   0.301   5.417
    1STR    C1710624   4.565   0.341   5.274
    1STR    H1B10625   4.559  17.422   5.386
    1STR    H1C10626   4.474   0.036   5.625
    1STR    H1D10627   4.460   0.115   5.856
    1STR    H1E10628   4.622   0.345   6.167
    1STR    H1F10629   4.326   0.296   6.230
    1STR    H1G10630   4.430   0.415   6.309
    1STR    H1H10631   4.390   0.433   6.139
    1STR    H1I10632   4.662   0.119   6.257
    1STR    H1J10633   4.494   0.108   6.307
    1STR    H1K10634   4.584   0.086   6.530
    1STR    H1M10635   4.857   0.223   6.492
    1STR    H1N10636   4.811   0.069   6.421
    1STR    H1O10637   4.829   0.082   6.594
    1STR    H1P10638   4.687   0.351   6.641
    1STR    H1Q10639   4.521   0.295   6.650
    1STR    H1R10640   4.688   0.354   6.879
    1STR    H1S10641   4.487   0.310   7.026
    1STR    H1T10642   4.453   0.163   6.936
    1STR    H1U10643   4.438   0.321   6.859
    1STR    H1V10644   4.830   0.161   6.951
    1STR    H1W10645   4.689   0.073   7.001
    1STR    H1X10646   4.766   0.346   7.303
    1STR    H1Y10647   4.739   0.464   7.507
    1STR    H1Z10648   4.651   0.472   7.735
    1STR    H2010649   4.390   0.247   7.868
    1STR    H2110650   4.553   0.252   7.936
    1STR    H2210651   4.472   0.401   7.888
    1STR    H2310652   4.356   0.048   7.626
    1STR    H2710653   4.547   0.082   7.448
    1STR    H2810654   4.526   0.455   5.719
    1STR    H2910655   4.555   0.505   5.485
    1STR    H2A10656   4.620   0.263   5.223
    1STR    H2B10657   4.627   0.431   5.271
    1STR    H2C10658   4.473   0.362   5.218
    1STR   BCK110659   4.360   0.004   9.618
    1STR    O0310660   4.364  17.327   9.579
    1STR    N0410661   4.297   0.047   9.728
    1STR    C0510662   4.209  17.419   9.813
    1STR    C0610663   4.224  17.429   9.954
    1STR    C0710664   4.131  17.372  10.045
    1STR    N0810665   4.147  17.389  10.184
    1STR    C0910666   4.065  17.358  10.286
    1STR    O0A10667   3.955  17.306  10.274
    1STR    O0B10668   4.117  17.393  10.407
    1STR    C0C10669   4.047  17.359  10.528
    1STR    C0D10670   4.078  17.213  10.566
    1STR    C0E10671   4.083   0.015  10.644
    1STR    O0F10672   4.010  17.419  10.763
    1STR    C0G10673   4.032   0.062  10.877
    1STR    C0H10674   3.950   0.191  10.864
    1STR    C0I10675   3.991  17.425  11.005
    1STR    O0J10676   4.024   0.062  11.121
    1STR    C0K10677   3.990   0.004  11.248
    1STR    C0M10678   4.089  17.332  11.283
    1STR    C0N10679   3.995   0.117  11.353
    1STR    O0O10680   3.950   0.073  11.481
    1STR    C0P10681   4.037   0.054  11.582
    1STR    O0Q10682   4.159   0.065  11.574
    1STR    N0R10683   3.969   0.022  11.692
    1STR    C0S10684   4.010  17.430  11.822
    1STR    C0T10685   3.909  17.391  11.913
    1STR    C0U10686   3.942  17.351  12.044
    1STR    C0V10687   4.076  17.350  12.088
    1STR    C0W10688   4.105  17.294  12.226
    1STR    C0X10689   4.178  17.397  12.001
    1STR    N0Y10690   4.312  17.399  12.039
    1STR   BCK210691   4.365   0.013  12.150
    1STR    O1010692   4.304   0.081  12.232
    1STR    C1310693   4.144  17.433  11.868
    1STR    C1410694   4.022  17.301   9.989
    1STR    C1510695   4.005  17.290   9.850
    1STR    C1610696   4.096  17.351   9.762
    1STR    C1710697   4.063  17.345   9.613
    1STR    H1B10698   4.317   0.143   9.750
    1STR    H1C10699   4.309   0.043   9.993
    1STR    H1D10700   4.232  17.432  10.217
    1STR    H1E10701   3.940  17.369  10.511
    1STR    H1F10702   4.185  17.198  10.585
    1STR    H1G10703   4.024  17.183  10.655
    1STR    H1H10704   4.049  17.145  10.486
    1STR    H1I10705   4.059   0.117  10.614
    1STR    H1J10706   4.190   0.012  10.664
    1STR    H1K10707   4.138   0.086  10.886
    1STR    H1M10708   3.844   0.169  10.851
    1STR    H1N10709   3.982   0.252  10.779
    1STR    H1O10710   3.960   0.253  10.953
    1STR    H1P10711   3.884  17.402  11.003
    1STR    H1Q10712   4.044  17.329  11.007
    1STR    H1R10713   3.888  17.405  11.245
    1STR    H1S10714   4.067  17.291  11.382
    1STR    H1T10715   4.191  17.369  11.286
    1STR    H1U10716   4.085  17.249  11.213
    1STR    H1V10717   3.929   0.199  11.322
    1STR    H1W10718   4.095   0.161  11.358
    1STR    H1X10719   3.870   0.020  11.674
    1STR    H1Y10720   3.806  17.389  11.884
    1STR    H1Z10721   3.864  17.319  12.111
    1STR    H2010722   4.199  17.240  12.227
    1STR    H2110723   4.112  17.375  12.299
    1STR    H2210724   4.028  17.225  12.259
    1STR    H2310725   4.379  17.360  11.975
    1STR    H2710726   4.223   0.025  11.801
    1STR    H2810727   3.948  17.252  10.051
    1STR    H2910728   3.919  17.237   9.812
    1STR    H2A10729   4.092  17.438   9.563
    1STR    H2B10730   3.957  17.331   9.596
    1STR    H2C10731   4.117  17.263   9.566
    1STR   BCK110732   4.490   0.045  13.984
    1STR    O0310733   4.589   0.117  13.975
    1STR    N0410734   4.465  17.402  14.086
    1STR    C0510735   4.559  17.361  14.181
    1STR    C0610736   4.530  17.371  14.319
    1STR    C0710737   4.621  17.324  14.417
    1STR    N0810738   4.587  17.330  14.554
    1STR    C0910739   4.663  17.307  14.662
    1STR    O0A10740   4.783  17.283  14.660
    1STR    O0B10741   4.591  17.314  14.777
    1STR    C0C10742   4.657  17.294  14.902
    1STR    C0D10743   4.727  17.425  14.945
    1STR    C0E10744   4.559  17.245  15.010
    1STR    O0F10745   4.632  17.220  15.131
    1STR    C0G10746   4.555  17.171  15.241
    1STR    C0H10747   4.530  17.021  15.224
    1STR    C0I10748   4.634  17.199  15.371
    1STR    O0J10749   4.553  17.164  15.483
    1STR    C0K10750   4.616  17.174  15.612
    1STR    C0M10751   4.628  17.321  15.653
    1STR    C0N10752   4.528  17.093  15.710
    1STR    O0O10753   4.594  17.069  15.834
    1STR    C0P10754   4.568  17.144  15.942
    1STR    O0Q10755   4.486  17.235  15.948
    1STR    N0R10756   4.648  17.106  16.042
    1STR    C0S10757   4.672  17.166  16.166
    1STR    C0T10758   4.797  17.142  16.226
    1STR    C0U10759   4.835  17.214  16.341
    1STR    C0V10760   4.749  17.309  16.399
    1STR    C0W10761   4.812  17.402  16.501
    1STR    C0X10762   4.617  17.324  16.349
    1STR    N0Y10763   4.519  17.413  16.395
    1STR   BCK210764   4.479   0.034  16.508
    1STR    O1010765   4.385   0.112  16.499
    1STR    C1310766   4.582  17.252  16.232
    1STR    C1410767   4.743  17.268  14.372
    1STR    C1510768   4.771  17.255  14.235
    1STR    C1610769   4.679  17.299  14.139
    1STR    C1710770   4.711  17.272  13.993
    1STR    H1B10771   4.375  17.358  14.085
    1STR    H1C10772   4.436  17.415  14.350
    1STR    H1D10773   4.493  17.356  14.578
    1STR    H1E10774   4.733  17.216  14.891
    1STR    H1F10775   4.655   0.066  14.959
    1STR    H1G10776   4.781  17.411  15.038
    1STR    H1H10777   4.799   0.017  14.870
    1STR    H1I10778   4.510  17.154  14.975
    1STR    H1J10779   4.481  17.319  15.027
    1STR    H1K10780   4.460  17.225  15.247
    1STR    H1M10781   4.624  16.966  15.212
    1STR    H1N10782   4.468  16.999  15.137
    1STR    H1O10783   4.479  16.980  15.311
    1STR    H1P10784   4.728  17.144  15.371
    1STR    H1Q10785   4.660  17.305  15.375
    1STR    H1R10786   4.714  17.127  15.608
    1STR    H1S10787   4.671  17.330  15.753
    1STR    H1T10788   4.531  17.370  15.656
    1STR    H1U10789   4.693  17.378  15.587
    1STR    H1V10790   4.506  16.996  15.667
    1STR    H1W10791   4.431  17.142  15.725
    1STR    H1X10792   4.707  17.029  16.014
    1STR    H1Y10793   4.868  17.074  16.182
    1STR    H1Z10794   4.935  17.200  16.380
    1STR    H2010795   4.765   0.061  16.497
    1STR    H2110796   4.805  17.362  16.602
    1STR    H2210797   4.917  17.418  16.480
    1STR    H2310798   4.453  17.441  16.324
    1STR    H2710799   4.484  17.267  16.189
    1STR    H2810800   4.818  17.230  14.440
    1STR    H2910801   4.865  17.210  14.205
    1STR    H2A10802   4.622  17.243  13.938
    1STR    H2B10803   4.784  17.192  13.982
    1STR    H2C10804   4.753  17.362  13.946
    1STR   BCK110805   4.431   4.458   0.879
    1STR    O0310806   4.333   4.399   0.834
    1STR    N0410807   4.440   4.514   1.001
    1STR    C0510808   4.342   4.558   1.090
    1STR    C0610809   4.357   4.536   1.230
    1STR    C0710810   4.274   4.600   1.327
    1STR    N0810811   4.295   4.582   1.465
    1STR    C0910812   4.256   4.658   1.569
    1STR    O0A10813   4.194   4.764   1.558
    1STR    O0B10814   4.294   4.606   1.689
    1STR    C0C10815   4.252   4.670   1.812
    1STR    C0D10816   4.110   4.623   1.848
    1STR    C0E10817   4.351   4.641   1.927
    1STR    O0F10818   4.309   4.709   2.046
    1STR    C0G10819   4.394   4.694   2.161
    1STR    C0H10820   4.515   4.787   2.147
    1STR    C0I10821   4.313   4.728   2.289
    1STR    O0J10822   4.393   4.703   2.405
    1STR    C0K10823   4.333   4.732   2.531
    1STR    C0M10824   4.231   4.623   2.568
    1STR    C0N10825   4.446   4.740   2.637
    1STR    O0O10826   4.397   4.784   2.763
    1STR    C0P10827   4.394   4.701   2.869
    1STR    O0Q10828   4.426   4.582   2.867
    1STR    N0R10829   4.350   4.768   2.977
    1STR    C0S10830   4.327   4.727   3.109
    1STR    C0T10831   4.257   4.815   3.193
    1STR    C0U10832   4.225   4.780   3.325
    1STR    C0V10833   4.263   4.655   3.377
    1STR    C0W10834   4.217   4.616   3.517
    1STR    C0X10835   4.339   4.566   3.297
    1STR    N0Y10836   4.377   4.440   3.342
    1STR   BCK210837   4.450   4.409   3.450
    1STR    O1010838   4.504   4.489   3.525
    1STR    C1310839   4.369   4.602   3.163
    1STR    C1410840   4.171   4.684   1.278
    1STR    C1510841   4.154   4.706   1.140
    1STR    C1610842   4.239   4.645   1.046
    1STR    C1710843   4.222   4.683   0.900
    1STR    H1B10844   4.535   4.537   1.026
    1STR    H1C10845   4.436   4.472   1.264
    1STR    H1D10846   4.348   4.502   1.494
    1STR    H1E10847   4.251   4.778   1.797
    1STR    H1F10848   4.106   4.516   1.864
    1STR    H1G10849   4.075   4.672   1.938
    1STR    H1H10850   4.039   4.648   1.768
    1STR    H1I10851   4.450   4.675   1.897
    1STR    H1J10852   4.358   4.534   1.945
    1STR    H1K10853   4.426   4.590   2.169
    1STR    H1M10854   4.485   4.890   2.134
    1STR    H1N10855   4.579   4.760   2.063
    1STR    H1O10856   4.578   4.782   2.236
    1STR    H1P10857   4.281   4.832   2.286
    1STR    H1Q10858   4.223   4.667   2.291
    1STR    H1R10859   4.284   4.830   2.527
    1STR    H1S10860   4.189   4.641   2.667
    1STR    H1T10861   4.279   4.525   2.571
    1STR    H1U10862   4.148   4.618   2.499
    1STR    H1V10863   4.521   4.812   2.604
    1STR    H1W10864   4.498   4.645   2.644
    1STR    H1X10865   4.330   4.863   2.953
    1STR    H1Y10866   4.224   4.912   3.156
    1STR    H1Z10867   4.168   4.848   3.386
    1STR    H2010868   4.196   4.509   3.523
    1STR    H2110869   4.295   4.640   3.590
    1STR    H2210870   4.126   4.669   3.544
    1STR    H2310871   4.352   4.361   3.286
    1STR    H2710872   4.425   4.533   3.102
    1STR    H2810873   4.103   4.735   1.344
    1STR    H2910874   4.076   4.773   1.107
    1STR    H2A10875   4.318   4.705   0.854
    1STR    H2B10876   4.160   4.772   0.888
    1STR    H2C10877   4.175   4.601   0.845
    1STR   BCK110878   4.427   4.311   5.261
    1STR    O0310879   4.507   4.221   5.235
    1STR    N0410880   4.344   4.310   5.366
    1STR    C0510881   4.316   4.205   5.454
    1STR    C0610882   4.317   4.226   5.594
    1STR    C0710883   4.281   4.123   5.686
    1STR    N0810884   4.279   4.149   5.825
    1STR    C0910885   4.256   4.067   5.929
    1STR    O0A10886   4.237   3.946   5.919
    1STR    O0B10887   4.256   4.133   6.048
    1STR    C0C10888   4.238   4.059   6.170
    1STR    C0D10889   4.373   3.996   6.211
    1STR    C0E10890   4.181   4.148   6.282
    1STR    O0F10891   4.164   4.070   6.401
    1STR    C0G10892   4.111   4.138   6.514
    1STR    C0H10893   3.959   4.152   6.500
    1STR    C0I10894   4.148   4.059   6.642
    1STR    O0J10895   4.108   4.134   6.757
    1STR    C0K10896   4.131   4.072   6.884
    1STR    C0M10897   4.280   4.079   6.920
    1STR    C0N10898   4.045   4.147   6.987
    1STR    O0O10899   4.046   4.081   7.114
    1STR    C0P10900   4.117   4.131   7.217
    1STR    O0Q10901   4.189   4.229   7.214
    1STR    N0R10902   4.093   4.054   7.324
    1STR    C0S10903   4.140   4.058   7.455
    1STR    C0T10904   4.085   3.963   7.543
    1STR    C0U10905   4.130   3.953   7.676
    1STR    C0V10906   4.231   4.039   7.724
    1STR    C0W10907   4.285   4.013   7.863
    1STR    C0X10908   4.284   4.140   7.639
    1STR    N0Y10909   4.388   4.222   7.683
    1STR   BCK210910   4.390   4.297   7.794
    1STR    O1010911   4.293   4.325   7.863
    1STR    C1310912   4.239   4.147   7.505
    1STR    C1410913   4.246   3.997   5.632
    1STR    C1510914   4.242   3.975   5.494
    1STR    C1610915   4.274   4.078   5.404
    1STR    C1710916   4.257   4.051   5.255
    1STR    H1B10917   4.295   4.397   5.381
    1STR    H1C10918   4.346   4.323   5.632
    1STR    H1D10919   4.297   4.243   5.855
    1STR    H1E10920   4.166   3.979   6.153
    1STR    H1F10921   4.448   4.072   6.230
    1STR    H1G10922   4.361   3.936   6.302
    1STR    H1H10923   4.411   3.930   6.133
    1STR    H1I10924   4.086   4.190   6.250
    1STR    H1J10925   4.248   4.232   6.302
    1STR    H1K10926   4.157   4.237   6.522
    1STR    H1M10927   3.912   4.054   6.488
    1STR    H1N10928   3.930   4.213   6.415
    1STR    H1O10929   3.916   4.198   6.589
    1STR    H1P10930   4.100   3.961   6.640
    1STR    H1Q10931   4.256   4.042   6.643
    1STR    H1R10932   4.098   3.968   6.881
    1STR    H1S10933   4.298   4.036   7.019
    1STR    H1T10934   4.314   4.183   6.925
    1STR    H1U10935   4.343   4.026   6.850
    1STR    H1V10936   3.941   4.148   6.953
    1STR    H1W10937   4.075   4.251   6.995
    1STR    H1X10938   4.029   3.981   7.300
    1STR    H1Y10939   4.009   3.894   7.510
    1STR    H1Z10940   4.089   3.878   7.740
    1STR    H2010941   4.394   4.004   7.859
    1STR    H2110942   4.258   4.093   7.932
    1STR    H2210943   4.247   3.920   7.906
    1STR    H2310944   4.471   4.227   7.626
    1STR    H2710945   4.282   4.222   7.439
    1STR    H2810946   4.218   3.913   5.694
    1STR    H2910947   4.213   3.878   5.457
    1STR    H2A10948   4.221   4.139   5.203
    1STR    H2B10949   4.185   3.971   5.238
    1STR    H2C10950   4.352   4.020   5.211
    1STR   BCK110951   4.449   4.418   9.618
    1STR    O0310952   4.424   4.537   9.601
    1STR    N0410953   4.507   4.368   9.727
    1STR    C0510954   4.575   4.442   9.823
    1STR    C0610955   4.546   4.425   9.961
    1STR    C0710956   4.618   4.495  10.061
    1STR    N0810957   4.591   4.470  10.197
    1STR    C0910958   4.661   4.506  10.305
    1STR    O0A10959   4.766   4.570  10.303
    1STR    O0B10960   4.603   4.462  10.419
    1STR    C0C10961   4.657   4.503  10.545
    1STR    C0D10962   4.597   4.638  10.584
    1STR    C0E10963   4.634   4.396  10.653
    1STR    O0F10964   4.701   4.439  10.771
    1STR    C0G10965   4.694   4.352  10.883
    1STR    C0H10966   4.798   4.239  10.866
    1STR    C0I10967   4.723   4.436  11.008
    1STR    O0J10968   4.708   4.354  11.124
    1STR    C0K10969   4.736   4.417  11.248
    1STR    C0M10970   4.617   4.506  11.290
    1STR    C0N10971   4.762   4.305  11.350
    1STR    O0O10972   4.811   4.357  11.473
    1STR    C0P10973   4.730   4.369  11.578
    1STR    O0Q10974   4.611   4.339  11.580
    1STR    N0R10975   4.798   4.422  11.680
    1STR    C0S10976   4.755   4.456  11.809
    1STR    C0T10977   4.837   4.544  11.884
    1STR    C0U10978   4.798   4.585  12.013
    1STR    C0V10979   4.678   4.538  12.070
    1STR    C0W10980   4.635   4.590  12.206
    1STR    C0X10981   4.599   4.445  11.999
    1STR    N0Y10982   4.483   4.392  12.055
    1STR   BCK210983   4.473   4.307  12.157
    1STR    O1010984   4.364   4.271  12.198
    1STR    C1310985   4.637   4.406  11.869
    1STR    C1410986   4.716   4.588  10.019
    1STR    C1510987   4.747   4.603   9.883
    1STR    C1610988   4.680   4.529   9.785
    1STR    C1710989   4.728   4.542   9.641
    1STR    H1B10990   4.509   4.268   9.733
    1STR    H1C10991   4.468   4.356   9.989
    1STR    H1D10992   4.509   4.417  10.220
    1STR    H1E10993   4.766   4.514  10.536
    1STR    H1F10994   4.489   4.631  10.597
    1STR    H1G10995   4.640   4.674  10.678
    1STR    H1H10996   4.617   4.713  10.508
    1STR    H1I10997   4.675   4.300  10.619
    1STR    H1J10998   4.528   4.381  10.671
    1STR    H1K10999   4.594   4.310  10.892
    1STR    H1M11000   4.898   4.280  10.853
    1STR    H1N11001   4.776   4.175  10.781
    1STR    H1O11002   4.800   4.175  10.955
    1STR    H1P11003   4.824   4.477  11.003
    1STR    H1Q11004   4.654   4.520  11.012
    1STR    H1R11005   4.827   4.477  11.240
    1STR    H1S11006   4.635   4.552  11.387
    1STR    H1T11007   4.526   4.448  11.298
    1STR    H1U11008   4.599   4.587  11.220
    1STR    H1V11009   4.838   4.237  11.310
    1STR    H1W11010   4.673   4.243  11.364
    1STR    H1X11011   4.893   4.441  11.655
    1STR    H1Y11012   4.929   4.582  11.843
    1STR    H1Z11013   4.860   4.654  12.067
    1STR    H2011014   4.527   4.596  12.214
    1STR    H2111015   4.672   4.525  12.285
    1STR    H2211016   4.674   4.691  12.224
    1STR    H2311017   4.395   4.413  12.010
    1STR    H2711018   4.575   4.336  11.816
    1STR    H2811019   4.772   4.648  10.088
    1STR    H2911020   4.826   4.672   9.855
    1STR    H2A11021   4.722   4.447   9.589
    1STR    H2B11022   4.832   4.574   9.637
    1STR    H2C11023   4.668   4.615   9.588
    1STR   BCK111024   4.363   4.418  13.972
    1STR    O0311025   4.324   4.309  13.931
    1STR    N0411026   4.324   4.478  14.086
    1STR    C0511027   4.218   4.448  14.172
    1STR    C0611028   4.238   4.448  14.313
    1STR    C0711029   4.130   4.434  14.405
    1STR    N0811030   4.154   4.439  14.544
    1STR    C0911031   4.068   4.456  14.647
    1STR    O0A11032   3.947   4.472  14.633
    1STR    O0B11033   4.130   4.455  14.768
    1STR    C0C11034   4.052   4.462  14.889
    1STR    C0D11035   4.001   4.322  14.925
    1STR    C0E11036   4.134   4.523  15.006
    1STR    O0F11037   4.053   4.531  15.125
    1STR    C0G11038   4.116   4.589  15.240
    1STR    C0H11039   4.116   4.742  15.226
    1STR    C0I11040   4.040   4.546  15.368
    1STR    O0J11041   4.109   4.593  15.484
    1STR    C0K11042   4.050   4.562  15.611
    1STR    C0M11043   4.073   4.415  15.646
    1STR    C0N11044   4.115   4.654  15.717
    1STR    O0O11045   4.053   4.640  15.845
    1STR    C0P11046   4.118   4.583  15.949
    1STR    O0Q11047   4.229   4.532  15.943
    1STR    N0R11048   4.042   4.591  16.058
    1STR    C0S11049   4.060   4.543  16.189
    1STR    C0T11050   3.952   4.560  16.278
    1STR    C0U11051   3.958   4.509  16.409
    1STR    C0V11052   4.073   4.442  16.455
    1STR    C0W11053   4.069   4.379  16.594
    1STR    C0X11054   4.186   4.430  16.370
    1STR    N0Y11055   4.301   4.361  16.408
    1STR   BCK211056   4.374   4.372  16.519
    1STR    O1011057   4.355   4.456  16.607
    1STR    C1311058   4.177   4.479  16.237
    1STR    C1411059   4.001   4.416  14.351
    1STR    C1511060   3.979   4.416  14.213
    1STR    C1611061   4.085   4.434  14.122
    1STR    C1711062   4.052   4.446  13.975
    1STR    H1B11063   4.379   4.559  14.109
    1STR    H1C11064   4.338   4.460  14.350
    1STR    H1D11065   4.249   4.431  14.576
    1STR    H1E11066   3.966   4.528  14.873
    1STR    H1F11067   4.083   4.252  14.943
    1STR    H1G11068   3.939   4.325  15.015
    1STR    H1H11069   3.939   4.281  14.845
    1STR    H1I11070   4.168   4.622  14.977
    1STR    H1J11071   4.223   4.463  15.025
    1STR    H1K11072   4.218   4.552  15.248
    1STR    H1M11073   4.015   4.780  15.213
    1STR    H1N11074   4.176   4.776  15.142
    1STR    H1O11075   4.157   4.789  15.315
    1STR    H1P11076   3.938   4.584  15.366
    1STR    H1Q11077   4.033   4.437  15.370
    1STR    H1R11078   3.943   4.584  15.608
    1STR    H1S11079   4.033   4.391  15.745
    1STR    H1T11080   4.180   4.391  15.648
    1STR    H1U11081   4.025   4.347  15.576
    1STR    H1V11082   4.103   4.758  15.687
    1STR    H1W11083   4.223   4.637  15.722
    1STR    H1X11084   3.955   4.638  16.038
    1STR    H1Y11085   3.861   4.609  16.247
    1STR    H1Z11086   3.873   4.520  16.475
    1STR    H2011087   4.127   4.287  16.598
    1STR    H2111088   4.108   4.449  16.668
    1STR    H2211089   3.967   4.353  16.623
    1STR    H2311090   4.339   4.296  16.341
    1STR    H2711091   4.262   4.467  16.171
    1STR    H2811092   3.914   4.402  14.415
    1STR    H2911093   3.878   4.405  14.176
    1STR    H2A11094   4.113   4.522  13.927
    1STR    H2B11095   3.948   4.473  13.959
    1STR    H2C11096   4.070   4.351  13.925
    1STR   BCK111097   4.494   8.720   0.907
    1STR    O0311098   4.616   8.726   0.897
    1STR    N0411099   4.428   8.660   1.006
    1STR    C0511100   4.483   8.570   1.097
    1STR    C0611101   4.465   8.589   1.237
    1STR    C0711102   4.515   8.495   1.331
    1STR    N0811103   4.491   8.515   1.469
    1STR    C0911104   4.543   8.452   1.575
    1STR    O0A11105   4.631   8.366   1.569
    1STR    O0B11106   4.487   8.494   1.690
    1STR    C0C11107   4.532   8.438   1.814
    1STR    C0D11108   4.661   8.509   1.858
    1STR    C0E11109   4.423   8.448   1.922
    1STR    O0F11110   4.471   8.387   2.042
    1STR    C0G11111   4.381   8.389   2.152
    1STR    C0H11112   4.279   8.275   2.138
    1STR    C0I11113   4.464   8.373   2.281
    1STR    O0J11114   4.379   8.392   2.394
    1STR    C0K11115   4.440   8.371   2.521
    1STR    C0M11116   4.531   8.489   2.558
    1STR    C0N11117   4.326   8.355   2.623
    1STR    O0O11118   4.380   8.307   2.746
    1STR    C0P11119   4.389   8.385   2.854
    1STR    O0Q11120   4.347   8.500   2.865
    1STR    N0R11121   4.452   8.315   2.948
    1STR    C0S11122   4.487   8.340   3.081
    1STR    C0T11123   4.558   8.237   3.144
    1STR    C0U11124   4.589   8.246   3.280
    1STR    C0V11125   4.550   8.358   3.356
    1STR    C0W11126   4.573   8.348   3.505
    1STR    C0X11127   4.484   8.467   3.294
    1STR    N0Y11128   4.432   8.576   3.365
    1STR   BCK211129   4.476   8.656   3.464
    1STR    O1011130   4.397   8.733   3.518
    1STR    C1311131   4.452   8.456   3.155
    1STR    C1411132   4.583   8.382   1.282
    1STR    C1511133   4.600   8.361   1.144
    1STR    C1611134   4.549   8.453   1.051
    1STR    C1711135   4.561   8.419   0.903
    1STR    H1B11136   4.329   8.674   1.007
    1STR    H1C11137   4.413   8.677   1.270
    1STR    H1D11138   4.426   8.587   1.496
    1STR    H1E11139   4.554   8.332   1.800
    1STR    H1F11140   4.645   8.616   1.875
    1STR    H1G11141   4.700   8.467   1.951
    1STR    H1H11142   4.739   8.499   1.783
    1STR    H1I11143   4.333   8.398   1.887
    1STR    H1J11144   4.397   8.552   1.940
    1STR    H1K11145   4.330   8.485   2.157
    1STR    H1M11146   4.328   8.178   2.128
    1STR    H1N11147   4.214   8.288   2.051
    1STR    H1O11148   4.214   8.270   2.226
    1STR    H1P11149   4.511   8.274   2.283
    1STR    H1Q11150   4.544   8.447   2.281
    1STR    H1R11151   4.497   8.278   2.519
    1STR    H1S11152   4.574   8.475   2.657
    1STR    H1T11153   4.475   8.583   2.560
    1STR    H1U11154   4.614   8.501   2.488
    1STR    H1V11155   4.255   8.280   2.588
    1STR    H1W11156   4.269   8.447   2.636
    1STR    H1X11157   4.475   8.225   2.911
    1STR    H1Y11158   4.586   8.148   3.091
    1STR    H1Z11159   4.641   8.164   3.328
    1STR    H2011160   4.671   8.388   3.528
    1STR    H2111161   4.495   8.402   3.560
    1STR    H2211162   4.570   8.245   3.539
    1STR    H2311163   4.339   8.604   3.339
    1STR    H2711164   4.398   8.536   3.107
    1STR    H2811165   4.623   8.306   1.347
    1STR    H2911166   4.652   8.273   1.111
    1STR    H2A11167   4.470   8.447   0.849
    1STR    H2B11168   4.577   8.313   0.888
    1STR    H2C11169   4.645   8.473   0.860
    1STR   BCK111170   4.436   8.788   5.239
    1STR    O0311171   4.338   8.839   5.185
    1STR    N0411172   4.480   8.815   5.363
    1STR    C0511173   4.443   8.916   5.453
    1STR    C0611174   4.440   8.886   5.592
    1STR    C0711175   4.415   8.985   5.690
    1STR    N0811176   4.420   8.954   5.827
    1STR    C0911177   4.432   9.036   5.933
    1STR    O0A11178   4.442   9.158   5.926
    1STR    O0B11179   4.433   8.968   6.051
    1STR    C0C11180   4.433   9.040   6.175
    1STR    C0D11181   4.288   9.076   6.212
    1STR    C0E11182   4.502   8.961   6.287
    1STR    O0F11183   4.504   9.041   6.406
    1STR    C0G11184   4.568   8.983   6.520
    1STR    C0H11185   4.721   8.996   6.505
    1STR    C0I11186   4.519   9.057   6.646
    1STR    O0J11187   4.575   8.996   6.762
    1STR    C0K11188   4.540   9.056   6.887
    1STR    C0M11189   4.398   9.014   6.928
    1STR    C0N11190   4.646   9.009   6.989
    1STR    O0O11191   4.631   9.075   7.115
    1STR    C0P11192   4.579   9.009   7.220
    1STR    O0Q11193   4.534   8.895   7.216
    1STR    N0R11194   4.584   9.087   7.329
    1STR    C0S11195   4.541   9.064   7.460
    1STR    C0T11196   4.538   9.173   7.550
    1STR    C0U11197   4.491   9.156   7.682
    1STR    C0V11198   4.446   9.031   7.727
    1STR    C0W11199   4.385   9.022   7.866
    1STR    C0X11200   4.453   8.919   7.641
    1STR    N0Y11201   4.402   8.794   7.674
    1STR   BCK211202   4.434   8.706   7.769
    1STR    O1011203   4.376   8.598   7.772
    1STR    C1311204   4.500   8.937   7.509
    1STR    C1411205   4.384   9.116   5.645
    1STR    C1511206   4.388   9.147   5.508
    1STR    C1611207   4.421   9.050   5.412
    1STR    C1711208   4.438   9.098   5.269
    1STR    H1B11209   4.554   8.753   5.392
    1STR    H1C11210   4.461   8.785   5.624
    1STR    H1D11211   4.418   8.857   5.854
    1STR    H1E11212   4.490   9.133   6.163
    1STR    H1F11213   4.227   8.987   6.227
    1STR    H1G11214   4.285   9.135   6.304
    1STR    H1H11215   4.242   9.136   6.133
    1STR    H1I11216   4.603   8.936   6.256
    1STR    H1J11217   4.449   8.867   6.306
    1STR    H1K11218   4.540   8.878   6.529
    1STR    H1M11219   4.750   9.100   6.492
    1STR    H1N11220   4.759   8.939   6.421
    1STR    H1O11221   4.771   8.959   6.594
    1STR    H1P11222   4.546   9.163   6.640
    1STR    H1Q11223   4.410   9.053   6.649
    1STR    H1R11224   4.546   9.165   6.880
    1STR    H1S11225   4.372   9.054   7.026
    1STR    H1T11226   4.390   8.905   6.935
    1STR    H1U11227   4.323   9.049   6.858
    1STR    H1V11228   4.745   9.032   6.952
    1STR    H1W11229   4.643   8.900   7.000
    1STR    H1X11230   4.623   9.177   7.308
    1STR    H1Y11231   4.569   9.271   7.518
    1STR    H1Z11232   4.487   9.242   7.747
    1STR    H2011233   4.309   8.944   7.871
    1STR    H2111234   4.462   8.998   7.940
    1STR    H2211235   4.339   9.116   7.895
    1STR    H2311236   4.336   8.754   7.609
    1STR    H2711237   4.503   8.851   7.444
    1STR    H2811238   4.360   9.196   5.713
    1STR    H2911239   4.369   9.249   5.478
    1STR    H2A11240   4.517   9.042   5.218
    1STR    H2B11241   4.467   9.203   5.266
    1STR    H2C11242   4.345   9.087   5.214
    1STR   BCK111243   4.378   8.694   9.621
    1STR    O0311244   4.410   8.582   9.584
    1STR    N0411245   4.304   8.723   9.729
    1STR    C0511246   4.235   8.636   9.814
    1STR    C0611247   4.245   8.651   9.955
    1STR    C0711248   4.169   8.572  10.046
    1STR    N0811249   4.179   8.594  10.185
    1STR    C0911250   4.113   8.537  10.288
    1STR    O0A11251   4.030   8.448  10.276
    1STR    O0B11252   4.149   8.590  10.408
    1STR    C0C11253   4.095   8.535  10.529
    1STR    C0D11254   4.174   8.409  10.568
    1STR    C0E11255   4.095   8.639  10.644
    1STR    O0F11256   4.039   8.581  10.762
    1STR    C0G11257   4.031   8.666  10.877
    1STR    C0H11258   3.909   8.759  10.863
    1STR    C0I11259   4.019   8.579  11.004
    1STR    O0J11260   4.024   8.663  11.120
    1STR    C0K11261   4.011   8.597  11.247
    1STR    C0M11262   4.142   8.525  11.283
    1STR    C0N11263   3.977   8.705  11.352
    1STR    O0O11264   3.949   8.648  11.479
    1STR    C0P11265   4.036   8.658  11.581
    1STR    O0Q11266   4.148   8.707  11.574
    1STR    N0R11267   3.981   8.605  11.690
    1STR    C0S11268   4.028   8.587  11.821
    1STR    C0T11269   3.941   8.524  11.912
    1STR    C0U11270   3.981   8.495  12.043
    1STR    C0V11271   4.111   8.529  12.087
    1STR    C0W11272   4.153   8.482  12.226
    1STR    C0X11273   4.199   8.598  12.000
    1STR    N0Y11274   4.328   8.632  12.040
    1STR   BCK211275   4.365   8.699  12.150
    1STR    O1011276   4.288   8.757  12.226
    1STR    C1311277   4.157   8.624  11.867
    1STR    C1411278   4.083   8.474   9.990
    1STR    C1511279   4.070   8.459   9.851
    1STR    C1611280   4.143   8.540   9.762
    1STR    C1711281   4.115   8.526   9.614
    1STR    H1B11282   4.299   8.821   9.749
    1STR    H1C11283   4.313   8.726   9.994
    1STR    H1D11284   4.244   8.664  10.217
    1STR    H1E11285   3.991   8.507  10.512
    1STR    H1F11286   4.279   8.432  10.587
    1STR    H1G11287   4.133   8.363  10.658
    1STR    H1H11288   4.170   8.334  10.489
    1STR    H1I11289   4.037   8.726  10.613
    1STR    H1J11290   4.197   8.673  10.664
    1STR    H1K11291   4.122   8.725  10.886
    1STR    H1M11292   3.817   8.702  10.850
    1STR    H1N11293   3.919   8.827  10.779
    1STR    H1O11294   3.897   8.821  10.952
    1STR    H1P11295   3.926   8.521  11.002
    1STR    H1Q11296   4.101   8.507  11.006
    1STR    H1R11297   3.929   8.526  11.244
    1STR    H1S11298   4.135   8.478  11.381
    1STR    H1T11299   4.226   8.595  11.286
    1STR    H1U11300   4.167   8.446  11.212
    1STR    H1V11301   3.888   8.760  11.320
    1STR    H1W11302   4.057   8.780  11.358
    1STR    H1X11303   3.888   8.572  11.670
    1STR    H1Y11304   3.841   8.495  11.882
    1STR    H1Z11305   3.913   8.445  12.110
    1STR    H2011306   4.254   8.441  12.222
    1STR    H2111307   4.151   8.565  12.297
    1STR    H2211308   4.088   8.404  12.264
    1STR    H2311309   4.403   8.608  11.978
    1STR    H2711310   4.226   8.674  11.800
    1STR    H2811311   4.023   8.409  10.051
    1STR    H2911312   4.002   8.385   9.813
    1STR    H2A11313   4.120   8.622   9.563
    1STR    H2B11314   4.015   8.485   9.596
    1STR    H2C11315   4.187   8.458   9.568
    1STR   BCK111316   4.474   8.781  13.982
    1STR    O0311317   4.536   8.887  13.972
    1STR    N0411318   4.482   8.698  14.086
    1STR    C0511319   4.583   8.699  14.182
    1STR    C0611320   4.550   8.700  14.320
    1STR    C0711321   4.651   8.697  14.420
    1STR    N0811322   4.616   8.692  14.555
    1STR    C0911323   4.693   8.695  14.665
    1STR    O0A11324   4.815   8.711  14.665
    1STR    O0B11325   4.621   8.679  14.778
    1STR    C0C11326   4.688   8.684  14.905
    1STR    C0D11327   4.708   8.831  14.947
    1STR    C0E11328   4.612   8.604  15.012
    1STR    O0F11329   4.691   8.605  15.131
    1STR    C0G11330   4.637   8.534  15.242
    1STR    C0H11331   4.664   8.383  15.224
    1STR    C0I11332   4.705   8.588  15.369
    1STR    O0J11333   4.645   8.527  15.483
    1STR    C0K11334   4.702   8.562  15.609
    1STR    C0M11335   4.655   8.702  15.651
    1STR    C0N11336   4.657   8.454  15.709
    1STR    O0O11337   4.725   8.466  15.833
    1STR    C0P11338   4.665   8.522  15.939
    1STR    O0Q11339   4.550   8.565  15.942
    1STR    N0R11340   4.753   8.528  16.039
    1STR    C0S11341   4.741   8.586  16.165
    1STR    C0T11342   4.860   8.627  16.228
    1STR    C0U11343   4.857   8.695  16.351
    1STR    C0V11344   4.734   8.721  16.414
    1STR    C0W11345   4.737   8.809  16.538
    1STR    C0X11346   4.614   8.671  16.359
    1STR    N0Y11347   4.492   8.693  16.422
    1STR   BCK211348   4.446   8.634  16.533
    1STR    O1011349   4.347   8.680  16.590
    1STR    C1311350   4.618   8.607  16.233
    1STR    C1411351   4.786   8.696  14.376
    1STR    C1511352   4.819   8.693  14.240
    1STR    C1611353   4.718   8.691  14.142
    1STR    C1711354   4.761   8.676  13.997
    1STR    H1B11355   4.416   8.622  14.086
    1STR    H1C11356   4.446   8.703  14.349
    1STR    H1D11357   4.518   8.685  14.578
    1STR    H1E11358   4.786   8.637  14.894
    1STR    H1F11359   4.613   8.882  14.960
    1STR    H1G11360   4.763   8.837  15.040
    1STR    H1H11361   4.766   8.885  14.872
    1STR    H1I11362   4.597   8.502  14.976
    1STR    H1J11363   4.514   8.647  15.030
    1STR    H1K11364   4.530   8.552  15.250
    1STR    H1M11365   4.771   8.364  15.212
    1STR    H1N11366   4.612   8.341  15.138
    1STR    H1O11367   4.631   8.328  15.312
    1STR    H1P11368   4.812   8.569  15.365
    1STR    H1Q11369   4.692   8.696  15.372
    1STR    H1R11370   4.811   8.559  15.603
    1STR    H1S11371   4.694   8.729  15.749
    1STR    H1T11372   4.546   8.707  15.657
    1STR    H1U11373   4.688   8.780  15.582
    1STR    H1V11374   4.681   8.355  15.669
    1STR    H1W11375   4.548   8.455  15.721
    1STR    H1X11376   4.841   8.489  16.013
    1STR    H1Y11377   4.956   8.611  16.181
    1STR    H1Z11378   4.949   8.731  16.394
    1STR    H2011379   4.637   8.842  16.569
    1STR    H2111380   4.784   8.756  16.621
    1STR    H2211381   4.795   8.899  16.519
    1STR    H2311382   4.429   8.761  16.384
    1STR    H2711383   4.525   8.573  16.188
    1STR    H2811384   4.869   8.695  14.445
    1STR    H2911385   4.923   8.690  14.211
    1STR    H2A11386   4.691   8.612  13.942
    1STR    H2B11387   4.859   8.631  13.989
    1STR    H2C11388   4.764   8.773  13.948
    1STR   BCK111389   4.401  13.173   0.883
    1STR    O0311390   4.321  13.091   0.840
    1STR    N0411391   4.392  13.236   1.002
    1STR    C0511392   4.284  13.251   1.090
    1STR    C0611393   4.303  13.237   1.231
    1STR    C0711394   4.203  13.272   1.325
    1STR    N0811395   4.227  13.263   1.464
    1STR    C0911396   4.163  13.322   1.567
    1STR    O0A11397   4.069  13.400   1.554
    1STR    O0B11398   4.215  13.287   1.688
    1STR    C0C11399   4.154  13.333   1.810
    1STR    C0D11400   4.035  13.241   1.845
    1STR    C0E11401   4.256  13.340   1.926
    1STR    O0F11402   4.192  13.390   2.045
    1STR    C0G11403   4.277  13.405   2.160
    1STR    C0H11404   4.359  13.534   2.146
    1STR    C0I11405   4.190  13.409   2.288
    1STR    O0J11406   4.273  13.413   2.405
    1STR    C0K11407   4.207  13.419   2.531
    1STR    C0M11408   4.149  13.282   2.567
    1STR    C0N11409   4.311  13.463   2.637
    1STR    O0O11410   4.251  13.486   2.765
    1STR    C0P11411   4.277  13.405   2.870
    1STR    O0Q11412   4.347  13.304   2.866
    1STR    N0R11413   4.215  13.452   2.978
    1STR    C0S11414   4.208  13.405   3.110
    1STR    C0T11415   4.118  13.470   3.197
    1STR    C0U11416   4.099  13.425   3.329
    1STR    C0V11417   4.171  13.315   3.378
    1STR    C0W11418   4.139  13.264   3.518
    1STR    C0X11419   4.266  13.250   3.295
    1STR    N0Y11420   4.334  13.137   3.338
    1STR   BCK211421   4.411  13.121   3.446
    1STR    O1011422   4.446  13.211   3.522
    1STR    C1311423   4.282  13.295   3.161
    1STR    C1411424   4.079  13.318   1.274
    1STR    C1511425   4.058  13.332   1.136
    1STR    C1611426   4.159  13.301   1.043
    1STR    C1711427   4.133  13.330   0.897
    1STR    H1B11428   4.476  13.285   1.026
    1STR    H1C11429   4.399  13.201   1.266
    1STR    H1D11430   4.304  13.206   1.495
    1STR    H1E11431   4.116  13.434   1.794
    1STR    H1F11432   4.068  13.139   1.863
    1STR    H1G11433   3.985  13.276   1.936
    1STR    H1H11434   3.961  13.240   1.766
    1STR    H1I11435   4.338  13.406   1.897
    1STR    H1J11436   4.298  13.242   1.945
    1STR    H1K11437   4.343  13.319   2.169
    1STR    H1M11438   4.295  13.621   2.133
    1STR    H1N11439   4.428  13.530   2.062
    1STR    H1O11440   4.419  13.551   2.236
    1STR    H1P11441   4.124  13.496   2.286
    1STR    H1Q11442   4.126  13.321   2.291
    1STR    H1R11443   4.128  13.494   2.528
    1STR    H1S11444   4.103  13.284   2.666
    1STR    H1T11445   4.227  13.205   2.570
    1STR    H1U11446   4.072  13.249   2.497
    1STR    H1V11447   4.356  13.558   2.606
    1STR    H1W11448   4.393  13.392   2.643
    1STR    H1X11449   4.165  13.536   2.957
    1STR    H1Y11450   4.059  13.554   3.163
    1STR    H1Z11451   4.028  13.476   3.392
    1STR    H2011452   4.145  13.155   3.522
    1STR    H2111453   4.210  13.305   3.590
    1STR    H2211454   4.038  13.291   3.549
    1STR    H2311455   4.328  13.055   3.280
    1STR    H2711456   4.353  13.244   3.098
    1STR    H2811457   3.997  13.344   1.339
    1STR    H2911458   3.963  13.370   1.101
    1STR    H2A11459   4.221  13.376   0.850
    1STR    H2B11460   4.050  13.399   0.884
    1STR    H2C11461   4.110  13.238   0.844
    1STR   BCK111462   4.461  13.039   5.266
    1STR    O0311463   4.567  12.980   5.248
    1STR    N0411464   4.376  13.016   5.367
    1STR    C0511465   4.380  12.908   5.456
    1STR    C0611466   4.373  12.930   5.596
    1STR    C0711467   4.369  12.822   5.689
    1STR    N0811468   4.358  12.848   5.827
    1STR    C0911469   4.367  12.764   5.931
    1STR    O0A11470   4.393  12.644   5.923
    1STR    O0B11471   4.343  12.827   6.049
    1STR    C0C11472   4.351  12.753   6.172
    1STR    C0D11473   4.498  12.742   6.214
    1STR    C0E11474   4.265  12.818   6.282
    1STR    O0F11475   4.275  12.739   6.401
    1STR    C0G11476   4.201  12.787   6.514
    1STR    C0H11477   4.053  12.747   6.499
    1STR    C0I11478   4.263  12.727   6.641
    1STR    O0J11479   4.200  12.785   6.756
    1STR    C0K11480   4.244  12.735   6.882
    1STR    C0M11481   4.382  12.791   6.918
    1STR    C0N11482   4.139  12.776   6.987
    1STR    O0O11483   4.168  12.712   7.111
    1STR    C0P11484   4.212  12.782   7.217
    1STR    O0Q11485   4.229  12.903   7.223
    1STR    N0R11486   4.233  12.695   7.316
    1STR    C0S11487   4.275  12.710   7.449
    1STR    C0T11488   4.283  12.590   7.522
    1STR    C0U11489   4.317  12.592   7.658
    1STR    C0V11490   4.342  12.714   7.724
    1STR    C0W11491   4.363  12.706   7.874
    1STR    C0X11492   4.340  12.836   7.652
    1STR    N0Y11493   4.352  12.960   7.716
    1STR   BCK211494   4.441  13.009   7.804
    1STR    O1011495   4.414  13.111   7.866
    1STR    C1311496   4.304  12.832   7.514
    1STR    C1411497   4.373  12.691   5.636
    1STR    C1511498   4.377  12.668   5.498
    1STR    C1611499   4.378  12.775   5.407
    1STR    C1711500   4.372  12.743   5.258
    1STR    H1B11501   4.300  13.081   5.375
    1STR    H1C11502   4.372  13.032   5.632
    1STR    H1D11503   4.343  12.943   5.856
    1STR    H1E11504   4.311  12.653   6.156
    1STR    H1F11505   4.543  12.840   6.233
    1STR    H1G11506   4.508  12.683   6.306
    1STR    H1H11507   4.558  12.692   6.138
    1STR    H1I11508   4.162  12.825   6.248
    1STR    H1J11509   4.300  12.920   6.301
    1STR    H1K11510   4.210  12.896   6.521
    1STR    H1M11511   4.043  12.639   6.488
    1STR    H1N11512   4.006  12.795   6.414
    1STR    H1O11513   3.997  12.777   6.588
    1STR    H1P11514   4.251  12.618   6.641
    1STR    H1Q11515   4.370  12.747   6.642
    1STR    H1R11516   4.248  12.625   6.879
    1STR    H1S11517   4.414  12.756   7.016
    1STR    H1T11518   4.380  12.900   6.922
    1STR    H1U11519   4.459  12.762   6.847
    1STR    H1V11520   4.040  12.742   6.955
    1STR    H1W11521   4.133  12.884   6.996
    1STR    H1X11522   4.211  12.603   7.285
    1STR    H1Y11523   4.261  12.495   7.477
    1STR    H1Z11524   4.320  12.499   7.714
    1STR    H2011525   4.468  12.685   7.895
    1STR    H2111526   4.334  12.799   7.922
    1STR    H2211527   4.303  12.627   7.918
    1STR    H2311528   4.279  13.027   7.697
    1STR    H2711529   4.298  12.925   7.458
    1STR    H2811530   4.370  12.604   5.699
    1STR    H2911531   4.378  12.566   5.462
    1STR    H2A11532   4.309  12.814   5.205
    1STR    H2B11533   4.330  12.643   5.241
    1STR    H2C11534   4.472  12.745   5.215
    1STR   BCK111535   4.450  13.134   9.607
    1STR    O0311536   4.382  13.230   9.573
    1STR    N0411537   4.511  13.120   9.725
    1STR    C0511538   4.536  13.220   9.819
    1STR    C0611539   4.516  13.193   9.957
    1STR    C0711540   4.552  13.288  10.057
    1STR    N0811541   4.537  13.256  10.193
    1STR    C0911542   4.592  13.315  10.300
    1STR    O0A11543   4.667  13.412  10.296
    1STR    O0B11544   4.554  13.255  10.416
    1STR    C0C11545   4.592  13.314  10.541
    1STR    C0D11546   4.488  13.421  10.580
    1STR    C0E11547   4.607  13.207  10.651
    1STR    O0F11548   4.654  13.272  10.769
    1STR    C0G11549   4.677  13.188  10.882
    1STR    C0H11550   4.813  13.118  10.866
    1STR    C0I11551   4.675  13.278  11.007
    1STR    O0J11552   4.690  13.196  11.123
    1STR    C0K11553   4.694  13.265  11.247
    1STR    C0M11554   4.551  13.307  11.289
    1STR    C0N11555   4.758  13.169  11.349
    1STR    O0O11556   4.784  13.235  11.473
    1STR    C0P11557   4.704  13.214  11.579
    1STR    O0Q11558   4.603  13.144  11.578
    1STR    N0R11559   4.750  13.282  11.684
    1STR    C0S11560   4.701  13.293  11.814
    1STR    C0T11561   4.752  13.396  11.896
    1STR    C0U11562   4.703  13.415  12.026
    1STR    C0V11563   4.603  13.330  12.079
    1STR    C0W11564   4.547  13.359  12.217
    1STR    C0X11565   4.555  13.222  12.001
    1STR    N0Y11566   4.456  13.137  12.047
    1STR   BCK211567   4.462  13.048  12.146
    1STR    O1011568   4.363  12.980  12.174
    1STR    C1311569   4.603  13.206  11.869
    1STR    C1411570   4.602  13.413  10.014
    1STR    C1511571   4.625  13.440   9.878
    1STR    C1611572   4.596  13.343   9.781
    1STR    C1711573   4.637  13.374   9.637
    1STR    H1B11574   4.549  13.029   9.742
    1STR    H1C11575   4.475  13.098   9.986
    1STR    H1D11576   4.481  13.176  10.217
    1STR    H1E11577   4.689  13.362  10.531
    1STR    H1F11578   4.389  13.377  10.593
    1STR    H1G11579   4.516  13.470  10.673
    1STR    H1H11580   4.481  13.498  10.503
    1STR    H1I11581   4.679  13.132  10.618
    1STR    H1J11582   4.512  13.157  10.669
    1STR    H1K11583   4.597  13.115  10.891
    1STR    H1M11584   4.893  13.190  10.853
    1STR    H1N11585   4.814  13.050  10.781
    1STR    H1O11586   4.836  13.059  10.955
    1STR    H1P11587   4.755  13.351  11.001
    1STR    H1Q11588   4.581  13.333  11.010
    1STR    H1R11589   4.757  13.354  11.239
    1STR    H1S11590   4.552  13.356  11.387
    1STR    H1T11591   4.486  13.220  11.297
    1STR    H1U11592   4.506  13.376  11.219
    1STR    H1V11593   4.853  13.134  11.310
    1STR    H1W11594   4.696  13.080  11.362
    1STR    H1X11595   4.833  13.334  11.660
    1STR    H1Y11596   4.827  13.464  11.859
    1STR    H1Z11597   4.742  13.496  12.086
    1STR    H2011598   4.443  13.329  12.224
    1STR    H2111599   4.604  13.305  12.293
    1STR    H2211600   4.553  13.466  12.240
    1STR    H2311601   4.370  13.133  11.995
    1STR    H2711602   4.565  13.124  11.810
    1STR    H2811603   4.627  13.492  10.084
    1STR    H2911604   4.667  13.534   9.850
    1STR    H2A11605   4.672  13.285   9.586
    1STR    H2B11606   4.718  13.447   9.634
    1STR    H2C11607   4.553  13.415   9.582
    1STR   BCK111608   4.357  13.104  13.975
    1STR    O0311609   4.344  12.989  13.935
    1STR    N0411610   4.303  13.155  14.087
    1STR    C0511611   4.206  13.101  14.172
    1STR    C0611612   4.223  13.108  14.313
    1STR    C0711613   4.122  13.066  14.405
    1STR    N0811614   4.141  13.079  14.544
    1STR    C0911615   4.054  13.067  14.646
    1STR    O0A11616   3.935  13.040  14.633
    1STR    O0B11617   4.113  13.088  14.767
    1STR    C0C11618   4.037  13.069  14.888
    1STR    C0D11619   4.036  12.920  14.925
    1STR    C0E11620   4.093  13.155  15.005
    1STR    O0F11621   4.014  13.135  15.123
    1STR    C0G11622   4.053  13.211  15.238
    1STR    C0H11623   4.000  13.355  15.225
    1STR    C0I11624   3.996  13.144  15.366
    1STR    O0J11625   4.045  13.212  15.482
    1STR    C0K11626   4.000  13.164  15.609
    1STR    C0M11627   4.072  13.032  15.644
    1STR    C0N11628   4.029  13.273  15.714
    1STR    O0O11629   3.975  13.239  15.842
    1STR    C0P11630   4.056  13.204  15.944
    1STR    O0Q11631   4.177  13.192  15.937
    1STR    N0R11632   3.982  13.185  16.054
    1STR    C0S11633   4.017  13.145  16.184
    1STR    C0T11634   3.911  13.125  16.275
    1STR    C0U11635   3.937  13.078  16.405
    1STR    C0V11636   4.069  13.053  16.448
    1STR    C0W11637   4.086  12.991  16.586
    1STR    C0X11638   4.178  13.081  16.362
    1STR    N0Y11639   4.312  13.063  16.399
    1STR   BCK211640   4.373  13.111  16.508
    1STR    O1011641   4.318  13.182  16.593
    1STR    C1311642   4.150  13.124  16.229
    1STR    C1411643   4.003  13.014  14.349
    1STR    C1511644   3.983  13.007  14.211
    1STR    C1611645   4.082  13.052  14.121
    1STR    C1711646   4.049  13.053  13.973
    1STR    H1B11647   4.337  13.246  14.109
    1STR    H1C11648   4.316  13.147  14.351
    1STR    H1D11649   4.233  13.103  14.576
    1STR    H1E11650   3.934  13.102  14.871
    1STR    H1F11651   4.137  12.883  14.944
    1STR    H1G11652   3.977  12.902  15.014
    1STR    H1H11653   3.993  12.860  14.845
    1STR    H1I11654   4.091  13.260  14.975
    1STR    H1J11655   4.197  13.129  15.024
    1STR    H1K11656   4.162  13.212  15.247
    1STR    H1M11657   3.892  13.356  15.211
    1STR    H1N11658   4.045  13.407  15.140
    1STR    H1O11659   4.023  13.413  15.314
    1STR    H1P11660   3.887  13.145  15.364
    1STR    H1Q11661   4.027  13.040  15.368
    1STR    H1R11662   3.892  13.147  15.606
    1STR    H1S11663   4.042  12.997  15.743
    1STR    H1T11664   4.180  13.047  15.647
    1STR    H1U11665   4.050  12.952  15.574
    1STR    H1V11666   3.982  13.366  15.683
    1STR    H1W11667   4.136  13.293  15.720
    1STR    H1X11668   3.885  13.202  16.036
    1STR    H1Y11669   3.809  13.143  16.247
    1STR    H1Z11670   3.854  13.060  16.472
    1STR    H2011671   4.174  12.926  16.589
    1STR    H2111672   4.098  13.069  16.662
    1STR    H2211673   4.000  12.930  16.614
    1STR    H2311674   4.372  13.016  16.333
    1STR    H2711675   4.233  13.142  16.163
    1STR    H2811676   3.922  12.978  14.411
    1STR    H2911677   3.889  12.970  14.173
    1STR    H2A11678   4.090  13.141  13.924
    1STR    H2B11679   3.941  13.055  13.957
    1STR    H2C11680   4.089  12.964  13.925
    1STR   BCK111681   8.856   0.029   0.901
    1STR    O0311682   8.969   0.076   0.892
    1STR    N0411683   8.813  17.393   1.003
    1STR    C0511684   8.895  17.329   1.097
    1STR    C0611685   8.870  17.344   1.235
    1STR    C0711686   8.948  17.276   1.332
    1STR    N0811687   8.917  17.288   1.469
    1STR    C0911688   8.988  17.249   1.577
    1STR    O0A11689   9.100  17.201   1.573
    1STR    O0B11690   8.919  17.270   1.691
    1STR    C0C11691   8.980  17.235   1.816
    1STR    C0D11692   9.076  17.347   1.860
    1STR    C0E11693   8.873  17.206   1.923
    1STR    O0F11694   8.938  17.166   2.044
    1STR    C0G11695   8.853  17.136   2.154
    1STR    C0H11696   8.796  16.994   2.138
    1STR    C0I11697   8.934  17.150   2.283
    1STR    O0J11698   8.845  17.138   2.394
    1STR    C0K11699   8.906  17.135   2.523
    1STR    C0M11700   8.956  17.275   2.563
    1STR    C0N11701   8.799  17.083   2.621
    1STR    O0O11702   8.858  17.044   2.744
    1STR    C0P11703   8.852  17.123   2.852
    1STR    O0Q11704   8.791  17.228   2.863
    1STR    N0R11705   8.928  17.067   2.946
    1STR    C0S11706   8.967  17.110   3.073
    1STR    C0T11707   9.080  17.046   3.126
    1STR    C0U11708   9.131  17.086   3.250
    1STR    C0V11709   9.070  17.187   3.326
    1STR    C0W11710   9.142  17.220   3.453
    1STR    C0X11711   8.948  17.247   3.279
    1STR    N0Y11712   8.861  17.334   3.348
    1STR   BCK211713   8.846  17.412   3.456
    1STR    O1011714   8.737   0.025   3.473
    1STR    C1311715   8.902  17.208   3.150
    1STR    C1411716   9.052  17.192   1.286
    1STR    C1511717   9.076  17.175   1.149
    1STR    C1611718   8.997  17.241   1.054
    1STR    C1711719   9.021  17.210   0.907
    1STR    H1B11720   8.715  17.372   1.003
    1STR    H1C11721   8.790  17.409   1.267
    1STR    H1D11722   8.831  17.333   1.494
    1STR    H1E11723   9.037  17.143   1.803
    1STR    H1F11724   9.023   0.001   1.876
    1STR    H1G11725   9.126  17.321   1.954
    1STR    H1H11726   9.153  17.364   1.786
    1STR    H1I11727   8.806  17.128   1.888
    1STR    H1J11728   8.812  17.295   1.941
    1STR    H1K11729   8.771  17.209   2.158
    1STR    H1M11730   8.876  16.921   2.128
    1STR    H1N11731   8.732  16.985   2.051
    1STR    H1O11732   8.736  16.967   2.225
    1STR    H1P11733   9.012  17.073   2.287
    1STR    H1Q11734   8.985  17.246   2.285
    1STR    H1R11735   8.989  17.064   2.523
    1STR    H1S11736   8.999  17.274   2.663
    1STR    H1T11737   8.874  17.347   2.564
    1STR    H1U11738   9.033  17.313   2.496
    1STR    H1V11739   8.753  16.994   2.579
    1STR    H1W11740   8.719  17.155   2.635
    1STR    H1X11741   8.967  16.981   2.912
    1STR    H1Y11742   9.132  16.968   3.071
    1STR    H1Z11743   9.220  17.036   3.286
    1STR    H2011744   9.156  17.327   3.462
    1STR    H2111745   9.088  17.176   3.537
    1STR    H2211746   9.242  17.178   3.456
    1STR    H2311747   8.773  17.344   3.300
    1STR    H2711748   8.813  17.254   3.110
    1STR    H2811749   9.115  17.136   1.353
    1STR    H2911750   9.156  17.109   1.117
    1STR    H2A11751   8.927  17.203   0.852
    1STR    H2B11752   9.073  17.115   0.894
    1STR    H2C11753   9.082  17.288   0.861
    1STR   BCK111754   8.803   0.053   5.250
    1STR    O0311755   8.801  17.377   5.211
    1STR    N0411756   8.751   0.080   5.371
    1STR    C0511757   8.724   0.191   5.452
    1STR    C0611758   8.740   0.174   5.593
    1STR    C0711759   8.700   0.273   5.688
    1STR    N0811760   8.714   0.248   5.826
    1STR    C0911761   8.685   0.326   5.932
    1STR    O0A11762   8.639   0.439   5.926
    1STR    O0B11763   8.712   0.263   6.050
    1STR    C0C11764   8.682   0.329   6.175
    1STR    C0D11765   8.533   0.310   6.209
    1STR    C0E11766   8.773   0.278   6.289
    1STR    O0F11767   8.746   0.352   6.408
    1STR    C0G11768   8.826   0.319   6.522
    1STR    C0H11769   8.964   0.383   6.508
    1STR    C0I11770   8.754   0.370   6.650
    1STR    O0J11771   8.827   0.328   6.766
    1STR    C0K11772   8.774   0.370   6.892
    1STR    C0M11773   8.652   0.285   6.929
    1STR    C0N11774   8.887   0.355   6.996
    1STR    O0O11775   8.848   0.410   7.123
    1STR    C0P11776   8.828   0.331   7.229
    1STR    O0Q11777   8.834   0.208   7.229
    1STR    N0R11778   8.798   0.406   7.335
    1STR    C0S11779   8.765   0.373   7.467
    1STR    C0T11780   8.710   0.473   7.548
    1STR    C0U11781   8.670   0.446   7.681
    1STR    C0V11782   8.687   0.317   7.735
    1STR    C0W11783   8.633   0.289   7.874
    1STR    C0X11784   8.748   0.216   7.657
    1STR    N0Y11785   8.767   0.087   7.706
    1STR   BCK211786   8.835   0.048   7.814
    1STR    O1011787   8.897   0.122   7.889
    1STR    C1311788   8.785   0.244   7.524
    1STR    C1411789   8.645   0.392   5.637
    1STR    C1511790   8.629   0.412   5.499
    1STR    C1611791   8.667   0.313   5.406
    1STR    C1711792   8.635   0.341   5.260
    1STR    H1B11793   8.727  17.432   5.413
    1STR    H1C11794   8.782   0.082   5.629
    1STR    H1D11795   8.751   0.159   5.854
    1STR    H1E11796   8.702   0.436   6.164
    1STR    H1F11797   8.508   0.205   6.222
    1STR    H1G11798   8.508   0.363   6.301
    1STR    H1H11799   8.469   0.350   6.130
    1STR    H1I11800   8.877   0.289   6.259
    1STR    H1J11801   8.756   0.171   6.306
    1STR    H1K11802   8.835   0.211   6.531
    1STR    H1M11803   8.956   0.491   6.495
    1STR    H1N11804   9.020   0.343   6.424
    1STR    H1O11805   9.024   0.366   6.598
    1STR    H1P11806   8.745   0.478   6.647
    1STR    H1Q11807   8.653   0.329   6.652
    1STR    H1R11808   8.747   0.476   6.887
    1STR    H1S11809   8.614   0.312   7.028
    1STR    H1T11810   8.678   0.179   6.933
    1STR    H1U11811   8.569   0.298   6.860
    1STR    H1V11812   8.975   0.409   6.963
    1STR    H1W11813   8.917   0.250   7.005
    1STR    H1X11814   8.797   0.504   7.310
    1STR    H1Y11815   8.695   0.573   7.510
    1STR    H1Z11816   8.625   0.524   7.740
    1STR    H2011817   8.596   0.186   7.882
    1STR    H2111818   8.711   0.303   7.949
    1STR    H2211819   8.549   0.355   7.898
    1STR    H2311820   8.732   0.011   7.649
    1STR    H2711821   8.830   0.166   7.465
    1STR    H2811822   8.610   0.472   5.701
    1STR    H2911823   8.584   0.504   5.464
    1STR    H2A11824   8.721   0.386   5.212
    1STR    H2B11825   8.552   0.411   5.251
    1STR    H2C11826   8.607   0.250   5.207
    1STR   BCK111827   8.766  17.395   9.620
    1STR    O0311828   8.828  17.293   9.589
    1STR    N0411829   8.686  17.406   9.726
    1STR    C0511830   8.640  17.306   9.813
    1STR    C0611831   8.645  17.325   9.954
    1STR    C0711832   8.593  17.230  10.045
    1STR    N0811833   8.595  17.255  10.184
    1STR    C0911834   8.554  17.180  10.288
    1STR    O0A11835   8.508  17.066  10.278
    1STR    O0B11836   8.569  17.243  10.407
    1STR    C0C11837   8.536  17.174  10.529
    1STR    C0D11838   8.654  17.083  10.569
    1STR    C0E11839   8.500  17.272  10.643
    1STR    O0F11840   8.466  17.199  10.761
    1STR    C0G11841   8.430  17.277  10.875
    1STR    C0H11842   8.283  17.323  10.861
    1STR    C0I11843   8.448  17.191  11.003
    1STR    O0J11844   8.424  17.272  11.118
    1STR    C0K11845   8.434  17.206  11.245
    1STR    C0M11846   8.582  17.183  11.281
    1STR    C0N11847   8.366  17.297  11.349
    1STR    O0O11848   8.356  17.234  11.476
    1STR    C0P11849   8.435  17.269  11.579
    1STR    O0Q11850   8.525  17.352  11.574
    1STR    N0R11851   8.398  17.200  11.687
    1STR    C0S11852   8.447  17.196  11.818
    1STR    C0T11853   8.378  17.112  11.907
    1STR    C0U11854   8.423  17.095  12.039
    1STR    C0V11855   8.538  17.162  12.085
    1STR    C0W11856   8.589  17.127  12.224
    1STR    C0X11857   8.605  17.253  11.999
    1STR    N0Y11858   8.722  17.317  12.041
    1STR   BCK211859   8.738  17.391  12.152
    1STR    O1011860   8.647  17.433  12.223
    1STR    C1311861   8.560  17.267  11.865
    1STR    C1411862   8.536  17.112   9.991
    1STR    C1511863   8.529  17.092   9.852
    1STR    C1611864   8.578  17.189   9.763
    1STR    C1711865   8.555  17.165   9.614
    1STR    H1B11866   8.654   0.060   9.744
    1STR    H1C11867   8.691  17.416   9.992
    1STR    H1D11868   8.633  17.343  10.215
    1STR    H1E11869   8.448  17.112  10.512
    1STR    H1F11870   8.744  17.141  10.589
    1STR    H1G11871   8.630  17.027  10.659
    1STR    H1H11872   8.676  17.011  10.491
    1STR    H1I11873   8.416  17.334  10.611
    1STR    H1J11874   8.584  17.339  10.663
    1STR    H1K11875   8.495  17.363  10.884
    1STR    H1M11876   8.217  17.237  10.849
    1STR    H1N11877   8.269  17.389  10.777
    1STR    H1O11878   8.251  17.377  10.950
    1STR    H1P11879   8.381  17.106  11.001
    1STR    H1Q11880   8.550  17.152  11.004
    1STR    H1R11881   8.381  17.111  11.242
    1STR    H1S11882   8.591  17.136  11.380
    1STR    H1T11883   8.637  17.277  11.285
    1STR    H1U11884   8.632  17.117  11.211
    1STR    H1V11885   8.264  17.319  11.316
    1STR    H1W11886   8.416  17.394  11.356
    1STR    H1X11887   8.321  17.140  11.665
    1STR    H1Y11888   8.291  17.057  11.876
    1STR    H1Z11889   8.370  17.028  12.105
    1STR    H2011890   8.696  17.105  12.219
    1STR    H2111891   8.574  17.210  12.293
    1STR    H2211892   8.540  17.040  12.265
    1STR    H2311893   8.803  17.310  11.982
    1STR    H2711894   8.614  17.334  11.799
    1STR    H2811895   8.495  17.034  10.052
    1STR    H2911896   8.483  17.002   9.815
    1STR    H2A11897   8.535  17.259   9.562
    1STR    H2B11898   8.470  17.100   9.597
    1STR    H2C11899   8.643  17.119   9.570
    1STR   BCK111900   8.816   0.064  13.980
    1STR    O0311901   8.827   0.185  13.968
    1STR    N0411902   8.858  17.434  14.086
    1STR    C0511903   8.945   0.043  14.183
    1STR    C0611904   8.913   0.032  14.321
    1STR    C0711905   9.003   0.077  14.421
    1STR    N0811906   8.971   0.060  14.557
    1STR    C0911907   9.045   0.082  14.667
    1STR    O0A11908   9.159   0.127  14.666
    1STR    O0B11909   8.979   0.049  14.780
    1STR    C0C11910   9.041   0.076  14.906
    1STR    C0D11911   9.010   0.222  14.946
    1STR    C0E11912   8.996  17.416  15.014
    1STR    O0F11913   9.069   0.005  15.133
    1STR    C0G11914   9.044  17.360  15.245
    1STR    C0H11915   9.121  17.228  15.228
    1STR    C0I11916   9.090  17.435  15.371
    1STR    O0J11917   9.055  17.358  15.486
    1STR    C0K11918   9.096  17.413  15.611
    1STR    C0M11919   9.001   0.087  15.652
    1STR    C0N11920   9.091  17.297  15.713
    1STR    O0O11921   9.149  17.335  15.837
    1STR    C0P11922   9.072  17.363  15.943
    1STR    O0Q11923   8.949  17.359  15.944
    1STR    N0R11924   9.149  17.398  16.045
    1STR    C0S11925   9.117   0.002  16.174
    1STR    C0T11926   9.217   0.070  16.246
    1STR    C0U11927   9.190   0.121  16.374
    1STR    C0V11928   9.064   0.104  16.433
    1STR    C0W11929   9.038   0.168  16.569
    1STR    C0X11930   8.965   0.030  16.365
    1STR    N0Y11931   8.841   0.008  16.425
    1STR   BCK211932   8.816  17.369  16.529
    1STR    O1011933   8.711  17.377  16.591
    1STR    C1311934   8.991  17.421  16.235
    1STR    C1411935   9.124   0.138  14.379
    1STR    C1511936   9.158   0.146  14.243
    1STR    C1611937   9.071   0.096  14.145
    1STR    C1711938   9.119   0.097  14.001
    1STR    H1B11939   8.832  17.337  14.089
    1STR    H1C11940   8.819  17.429  14.349
    1STR    H1D11941   8.880   0.023  14.580
    1STR    H1E11942   9.149   0.065  14.898
    1STR    H1F11943   8.903   0.238  14.959
    1STR    H1G11944   9.059   0.247  15.040
    1STR    H1H11945   9.046   0.291  14.871
    1STR    H1I11946   9.016  17.315  14.980
    1STR    H1J11947   8.888  17.425  15.032
    1STR    H1K11948   8.937  17.341  15.254
    1STR    H1M11949   9.228  17.247  15.214
    1STR    H1N11950   9.086  17.171  15.142
    1STR    H1O11951   9.110  17.165  15.316
    1STR    H1P11952   9.197   0.014  15.367
    1STR    H1Q11953   9.041   0.093  15.374
    1STR    H1R11954   9.198   0.009  15.605
    1STR    H1S11955   9.028   0.127  15.750
    1STR    H1T11956   8.898   0.053  15.658
    1STR    H1U11957   9.005   0.171  15.582
    1STR    H1V11958   9.150  17.213  15.674
    1STR    H1W11959   8.990  17.259  15.724
    1STR    H1X11960   9.246  17.396  16.019
    1STR    H1Y11961   9.314   0.086  16.203
    1STR    H1Z11962   9.268   0.176  16.426
    1STR    H2011963   8.932   0.192  16.582
    1STR    H2111964   9.069   0.102  16.648
    1STR    H2211965   9.093   0.262  16.579
    1STR    H2311966   8.761   0.060  16.392
    1STR    H2711967   8.913  17.366  16.184
    1STR    H2811968   9.196   0.179  14.448
    1STR    H2911969   9.252   0.190  14.215
    1STR    H2A11970   9.086   0.008  13.947
    1STR    H2B11971   9.228   0.099  13.995
    1STR    H2C11972   9.082   0.185  13.949
    1STR   BCK111973   8.735   4.434   0.889
    1STR    O0311974   8.678   4.333   0.847
    1STR    N0411975   8.707   4.497   1.004
    1STR    C0511976   8.597   4.484   1.091
    1STR    C0611977   8.618   4.479   1.232
    1STR    C0711978   8.510   4.484   1.325
    1STR    N0811979   8.535   4.483   1.464
    1STR    C0911980   8.454   4.518   1.566
    1STR    O0A11981   8.339   4.559   1.553
    1STR    O0B11982   8.515   4.503   1.688
    1STR    C0C11983   8.441   4.526   1.809
    1STR    C0D11984   8.361   4.400   1.845
    1STR    C0E11985   8.534   4.568   1.926
    1STR    O0F11986   8.457   4.593   2.045
    1STR    C0G11987   8.531   4.636   2.160
    1STR    C0H11988   8.564   4.786   2.146
    1STR    C0I11989   8.447   4.610   2.288
    1STR    O0J11990   8.525   4.642   2.404
    1STR    C0K11991   8.460   4.625   2.531
    1STR    C0M11992   8.452   4.476   2.566
    1STR    C0N11993   8.543   4.701   2.637
    1STR    O0O11994   8.480   4.701   2.765
    1STR    C0P11995   8.531   4.632   2.868
    1STR    O0Q11996   8.630   4.560   2.863
    1STR    N0R11997   8.458   4.656   2.978
    1STR    C0S11998   8.467   4.607   3.109
    1STR    C0T11999   8.362   4.642   3.197
    1STR    C0U12000   8.359   4.592   3.328
    1STR    C0V12001   8.460   4.507   3.376
    1STR    C0W12002   8.444   4.446   3.515
    1STR    C0X12003   8.570   4.477   3.292
    1STR    N0Y12004   8.669   4.388   3.333
    1STR   BCK212005   8.739   4.385   3.446
    1STR    O1012006   8.749   4.478   3.527
    1STR    C1312007   8.571   4.525   3.158
    1STR    C1412008   8.379   4.489   1.272
    1STR    C1512009   8.357   4.495   1.133
    1STR    C1612010   8.465   4.495   1.043
    1STR    C1712011   8.433   4.513   0.895
    1STR    H1B12012   8.775   4.567   1.028
    1STR    H1C12013   8.719   4.473   1.269
    1STR    H1D12014   8.626   4.456   1.496
    1STR    H1E12015   8.371   4.609   1.793
    1STR    H1F12016   8.426   4.315   1.863
    1STR    H1G12017   8.301   4.416   1.934
    1STR    H1H12018   8.292   4.373   1.764
    1STR    H1I12019   8.588   4.658   1.897
    1STR    H1J12020   8.608   4.490   1.945
    1STR    H1K12021   8.623   4.578   2.168
    1STR    H1M12022   8.473   4.845   2.133
    1STR    H1N12023   8.630   4.806   2.062
    1STR    H1O12024   8.614   4.822   2.236
    1STR    H1P12025   8.356   4.669   2.285
    1STR    H1Q12026   8.417   4.505   2.290
    1STR    H1R12027   8.360   4.669   2.528
    1STR    H1S12028   8.408   4.461   2.665
    1STR    H1T12029   8.551   4.430   2.569
    1STR    H1U12030   8.390   4.419   2.496
    1STR    H1V12031   8.554   4.805   2.606
    1STR    H1W12032   8.645   4.662   2.642
    1STR    H1X12033   8.383   4.719   2.957
    1STR    H1Y12034   8.281   4.705   3.165
    1STR    H1Z12035   8.276   4.617   3.393
    1STR    H2012036   8.486   4.345   3.519
    1STR    H2112037   8.496   4.507   3.589
    1STR    H2212038   8.340   4.438   3.543
    1STR    H2312039   8.693   4.314   3.269
    1STR    H2712040   8.653   4.498   3.094
    1STR    H2812041   8.293   4.491   1.336
    1STR    H2912042   8.256   4.503   1.097
    1STR    H2A12043   8.505   4.579   0.847
    1STR    H2B12044   8.334   4.557   0.881
    1STR    H2C12045   8.434   4.417   0.844
    1STR   BCK112046   8.845   4.342   5.266
    1STR    O0312047   8.965   4.322   5.254
    1STR    N0412048   8.770   4.295   5.366
    1STR    C0512049   8.805   4.195   5.456
    1STR    C0612050   8.791   4.216   5.596
    1STR    C0712051   8.821   4.113   5.690
    1STR    N0812052   8.802   4.136   5.828
    1STR    C0912053   8.839   4.062   5.933
    1STR    O0A12054   8.906   3.959   5.927
    1STR    O0B12055   8.793   4.114   6.050
    1STR    C0C12056   8.826   4.049   6.173
    1STR    C0D12057   8.968   4.090   6.217
    1STR    C0E12058   8.722   4.081   6.282
    1STR    O0F12059   8.757   4.011   6.402
    1STR    C0G12060   8.670   4.031   6.513
    1STR    C0H12061   8.546   3.943   6.499
    1STR    C0I12062   8.748   3.997   6.641
    1STR    O0J12063   8.670   4.032   6.755
    1STR    C0K12064   8.726   3.999   6.882
    1STR    C0M12065   8.839   4.097   6.918
    1STR    C0N12066   8.612   4.005   6.986
    1STR    O0O12067   8.658   3.950   7.109
    1STR    C0P12068   8.679   4.027   7.217
    1STR    O0Q12069   8.660   4.148   7.225
    1STR    N0R12070   8.726   3.948   7.313
    1STR    C0S12071   8.763   3.969   7.446
    1STR    C0T12072   8.810   3.855   7.514
    1STR    C0U12073   8.842   3.861   7.650
    1STR    C0V12074   8.828   3.981   7.721
    1STR    C0W12075   8.850   3.973   7.871
    1STR    C0X12076   8.787   4.100   7.655
    1STR    N0Y12077   8.760   4.219   7.723
    1STR   BCK212078   8.824   4.290   7.817
    1STR    O1012079   8.766   4.381   7.874
    1STR    C1312080   8.753   4.092   7.516
    1STR    C1412081   8.865   3.989   5.640
    1STR    C1512082   8.877   3.966   5.502
    1STR    C1612083   8.846   4.067   5.409
    1STR    C1712084   8.851   4.033   5.261
    1STR    H1B12085   8.675   4.330   5.369
    1STR    H1C12086   8.758   4.313   5.631
    1STR    H1D12087   8.754   4.220   5.856
    1STR    H1E12088   8.824   3.940   6.158
    1STR    H1F12089   8.975   4.197   6.234
    1STR    H1G12090   8.997   4.039   6.309
    1STR    H1H12091   9.041   4.063   6.141
    1STR    H1I12092   8.623   4.052   6.248
    1STR    H1J12093   8.719   4.189   6.301
    1STR    H1K12094   8.641   4.137   6.519
    1STR    H1M12095   8.573   3.838   6.488
    1STR    H1N12096   8.485   3.970   6.412
    1STR    H1O12097   8.482   3.951   6.587
    1STR    H1P12098   8.774   3.891   6.642
    1STR    H1Q12099   8.842   4.053   6.642
    1STR    H1R12100   8.764   3.897   6.879
    1STR    H1S12101   8.879   4.075   7.017
    1STR    H1T12102   8.802   4.200   6.921
    1STR    H1U12103   8.922   4.093   6.848
    1STR    H1V12104   8.528   3.945   6.952
    1STR    H1W12105   8.574   4.107   6.997
    1STR    H1X12106   8.732   3.854   7.278
    1STR    H1Y12107   8.818   3.760   7.463
    1STR    H1Z12108   8.874   3.772   7.700
    1STR    H2012109   8.956   3.986   7.891
    1STR    H2112110   8.792   4.048   7.924
    1STR    H2212111   8.820   3.876   7.910
    1STR    H2312112   8.672   4.264   7.701
    1STR    H2712113   8.718   4.180   7.465
    1STR    H2812114   8.889   3.906   5.704
    1STR    H2912115   8.910   3.869   5.467
    1STR    H2A12116   8.768   4.079   5.208
    1STR    H2B12117   8.845   3.926   5.245
    1STR    H2C12118   8.944   4.068   5.218
    1STR   BCK112119   8.805   4.422   9.600
    1STR    O0312120   8.714   4.490   9.553
    1STR    N0412121   8.857   4.436   9.723
    1STR    C0512122   8.841   4.541   9.814
    1STR    C0612123   8.833   4.511   9.953
    1STR    C0712124   8.829   4.613  10.052
    1STR    N0812125   8.828   4.579  10.189
    1STR    C0912126   8.858   4.656  10.295
    1STR    O0A12127   8.894   4.773  10.289
    1STR    O0B12128   8.844   4.588  10.412
    1STR    C0C12129   8.859   4.658  10.537
    1STR    C0D12130   8.725   4.724  10.574
    1STR    C0E12131   8.910   4.565  10.648
    1STR    O0F12132   8.930   4.642  10.767
    1STR    C0G12133   8.980   4.572  10.880
    1STR    C0H12134   9.132   4.552  10.865
    1STR    C0I12135   8.947   4.655  11.006
    1STR    O0J12136   8.989   4.583  11.122
    1STR    C0K12137   8.969   4.650  11.247
    1STR    C0M12138   8.821   4.639  11.288
    1STR    C0N12139   9.062   4.581  11.349
    1STR    O0O12140   9.062   4.650  11.474
    1STR    C0P12141   8.997   4.599  11.580
    1STR    O0Q12142   8.927   4.498  11.577
    1STR    N0R12143   9.018   4.676  11.687
    1STR    C0S12144   8.971   4.664  11.818
    1STR    C0T12145   8.988   4.774  11.905
    1STR    C0U12146   8.938   4.770  12.037
    1STR    C0V12147   8.870   4.657  12.085
    1STR    C0W12148   8.808   4.662  12.224
    1STR    C0X12149   8.856   4.543  12.001
    1STR    N0Y12150   8.784   4.430  12.039
    1STR   BCK212151   8.805   4.341  12.136
    1STR    O1012152   8.729   4.246  12.148
    1STR    C1312153   8.905   4.549  11.869
    1STR    C1412154   8.829   4.747  10.008
    1STR    C1512155   8.840   4.778   9.872
    1STR    C1612156   8.850   4.677   9.775
    1STR    C1712157   8.877   4.721   9.632
    1STR    H1B12158   8.919   4.362   9.748
    1STR    H1C12159   8.830   4.407   9.984
    1STR    H1D12160   8.805   4.485  10.215
    1STR    H1E12161   8.934   4.736  10.525
    1STR    H1F12162   8.647   4.649  10.589
    1STR    H1G12163   8.734   4.781  10.666
    1STR    H1H12164   8.692   4.793  10.496
    1STR    H1I12165   9.003   4.518  10.616
    1STR    H1J12166   8.838   4.484  10.667
    1STR    H1K12167   8.930   4.475  10.890
    1STR    H1M12168   9.183   4.647  10.852
    1STR    H1N12169   9.157   4.488  10.781
    1STR    H1O12170   9.173   4.504  10.954
    1STR    H1P12171   8.997   4.752  11.001
    1STR    H1Q12172   8.840   4.674  11.009
    1STR    H1R12173   8.998   4.755  11.239
    1STR    H1S12174   8.804   4.684  11.386
    1STR    H1T12175   8.790   4.534  11.296
    1STR    H1U12176   8.754   4.689  11.219
    1STR    H1V12177   9.164   4.582  11.311
    1STR    H1W12178   9.036   4.476  11.360
    1STR    H1X12179   9.076   4.754  11.665
    1STR    H1Y12180   9.038   4.864  11.871
    1STR    H1Z12181   8.950   4.857  12.100
    1STR    H2012182   8.718   4.600  12.229
    1STR    H2112183   8.879   4.626  12.298
    1STR    H2212184   8.780   4.764  12.251
    1STR    H2312185   8.708   4.402  11.979
    1STR    H2712186   8.892   4.462  11.806
    1STR    H2812187   8.822   4.830  10.077
    1STR    H2912188   8.844   4.882   9.842
    1STR    H2A12189   8.943   4.651   9.581
    1STR    H2B12190   8.927   4.818   9.629
    1STR    H2C12191   8.784   4.730   9.576
    1STR   BCK112192   8.726   4.352  13.979
    1STR    O0312193   8.740   4.236  13.940
    1STR    N0412194   8.659   4.389  14.088
    1STR    C0512195   8.577   4.314  14.173
    1STR    C0612196   8.590   4.326  14.314
    1STR    C0712197   8.502   4.260  14.405
    1STR    N0812198   8.516   4.279  14.544
    1STR    C0912199   8.439   4.238  14.647
    1STR    O0A12200   8.337   4.170  14.635
    1STR    O0B12201   8.486   4.280  14.767
    1STR    C0C12202   8.421   4.237  14.889
    1STR    C0D12203   8.471   4.097  14.926
    1STR    C0E12204   8.444   4.338  15.004
    1STR    O0F12205   8.376   4.293  15.122
    1STR    C0G12206   8.387   4.378  15.237
    1STR    C0H12207   8.288   4.495  15.223
    1STR    C0I12208   8.357   4.296  15.365
    1STR    O0J12209   8.379   4.376  15.481
    1STR    C0K12210   8.353   4.315  15.607
    1STR    C0M12211   8.466   4.216  15.643
    1STR    C0N12212   8.343   4.428  15.713
    1STR    O0O12213   8.304   4.378  15.841
    1STR    C0P12214   8.392   4.370  15.942
    1STR    O0Q12215   8.512   4.397  15.935
    1STR    N0R12216   8.328   4.329  16.052
    1STR    C0S12217   8.372   4.302  16.182
    1STR    C0T12218   8.276   4.253  16.273
    1STR    C0U12219   8.312   4.217  16.403
    1STR    C0V12220   8.445   4.230  16.448
    1STR    C0W12221   8.480   4.177  16.586
    1STR    C0X12222   8.543   4.287  16.361
    1STR    N0Y12223   8.676   4.301  16.400
    1STR   BCK212224   8.723   4.359  16.511
    1STR    O1012225   8.656   4.423  16.592
    1STR    C1312226   8.505   4.320  16.228
    1STR    C1412227   8.401   4.178  14.349
    1STR    C1512228   8.386   4.166  14.210
    1STR    C1612229   8.471   4.235  14.122
    1STR    C1712230   8.440   4.226  13.973
    1STR    H1B12231   8.669   4.487  14.110
    1STR    H1C12232   8.669   4.388  14.353
    1STR    H1D12233   8.595   4.333  14.577
    1STR    H1E12234   8.313   4.233  14.871
    1STR    H1F12235   8.578   4.097  14.946
    1STR    H1G12236   8.421   4.061  15.016
    1STR    H1H12237   8.451   4.025  14.847
    1STR    H1I12238   8.406   4.436  14.974
    1STR    H1J12239   8.551   4.349  15.024
    1STR    H1K12240   8.489   4.416  15.246
    1STR    H1M12241   8.186   4.459  15.210
    1STR    H1N12242   8.312   4.559  15.139
    1STR    H1O12243   8.290   4.557  15.313
    1STR    H1P12244   8.254   4.259  15.362
    1STR    H1Q12245   8.421   4.208  15.366
    1STR    H1R12246   8.257   4.263  15.604
    1STR    H1S12247   8.449   4.172  15.741
    1STR    H1T12248   8.562   4.267  15.646
    1STR    H1U12249   8.473   4.134  15.572
    1STR    H1V12250   8.267   4.499  15.681
    1STR    H1W12251   8.437   4.484  15.718
    1STR    H1X12252   8.231   4.315  16.032
    1STR    H1Y12253   8.173   4.240  16.243
    1STR    H1Z12254   8.238   4.176  16.470
    1STR    H2012255   8.577   4.127  16.584
    1STR    H2112256   8.484   4.258  16.659
    1STR    H2212257   8.407   4.104  16.621
    1STR    H2312258   8.746   4.268  16.336
    1STR    H2712259   8.581   4.359  16.162
    1STR    H2812260   8.332   4.123  14.410
    1STR    H2912261   8.306   4.105  14.172
    1STR    H2A12262   8.459   4.321  13.923
    1STR    H2B12263   8.335   4.202  13.956
    1STR    H2C12264   8.501   4.148  13.927
    1STR   BCK112265   8.844   8.774   0.905
    1STR    O0312266   8.931   8.860   0.897
    1STR    N0412267   8.832   8.688   1.006
    1STR    C0512268   8.930   8.662   1.102
    1STR    C0612269   8.900   8.668   1.240
    1STR    C0712270   8.997   8.638   1.338
    1STR    N0812271   8.962   8.640   1.474
    1STR    C0912272   9.040   8.628   1.583
    1STR    O0A12273   9.162   8.621   1.581
    1STR    O0B12274   8.967   8.626   1.697
    1STR    C0C12275   9.034   8.615   1.823
    1STR    C0D12276   9.085   8.754   1.865
    1STR    C0E12277   8.943   8.553   1.929
    1STR    O0F12278   9.019   8.537   2.049
    1STR    C0G12279   8.951   8.478   2.159
    1STR    C0H12280   8.945   8.326   2.142
    1STR    C0I12281   9.027   8.517   2.287
    1STR    O0J12282   8.954   8.470   2.400
    1STR    C0K12283   9.016   8.489   2.527
    1STR    C0M12284   9.003   8.636   2.570
    1STR    C0N12285   8.945   8.393   2.625
    1STR    O0O12286   9.014   8.386   2.749
    1STR    C0P12287   8.972   8.456   2.855
    1STR    O0Q12288   8.872   8.527   2.859
    1STR    N0R12289   9.060   8.440   2.954
    1STR    C0S12290   9.066   8.504   3.078
    1STR    C0T12291   9.194   8.522   3.134
    1STR    C0U12292   9.209   8.595   3.253
    1STR    C0V12293   9.098   8.649   3.319
    1STR    C0W12294   9.122   8.738   3.440
    1STR    C0X12295   8.967   8.622   3.270
    1STR    N0Y12296   8.855   8.669   3.337
    1STR   BCK212297   8.811   8.632   3.458
    1STR    O1012298   8.727   8.700   3.517
    1STR    C1312299   8.953   8.553   3.148
    1STR    C1412300   9.126   8.601   1.294
    1STR    C1512301   9.156   8.592   1.157
    1STR    C1612302   9.059   8.619   1.060
    1STR    C1712303   9.094   8.597   0.914
    1STR    H1B12304   8.749   8.631   1.006
    1STR    H1C12305   8.800   8.699   1.270
    1STR    H1D12306   8.865   8.653   1.498
    1STR    H1E12307   9.120   8.548   1.811
    1STR    H1F12308   9.002   8.824   1.879
    1STR    H1G12309   9.140   8.748   1.959
    1STR    H1H12310   9.152   8.796   1.791
    1STR    H1I12311   8.906   8.456   1.894
    1STR    H1J12312   8.856   8.616   1.947
    1STR    H1K12313   8.850   8.519   2.167
    1STR    H1M12314   9.045   8.284   2.130
    1STR    H1N12315   8.886   8.296   2.055
    1STR    H1O12316   8.900   8.279   2.229
    1STR    H1P12317   9.127   8.475   2.285
    1STR    H1Q12318   9.038   8.625   2.291
    1STR    H1R12319   9.121   8.460   2.521
    1STR    H1S12320   9.047   8.652   2.669
    1STR    H1T12321   8.899   8.666   2.576
    1STR    H1U12322   9.054   8.704   2.502
    1STR    H1V12323   8.944   8.293   2.583
    1STR    H1W12324   8.840   8.421   2.638
    1STR    H1X12325   9.135   8.379   2.928
    1STR    H1Y12326   9.282   8.484   3.085
    1STR    H1Z12327   9.308   8.612   3.292
    1STR    H2012328   9.035   8.800   3.463
    1STR    H2112329   9.148   8.679   3.527
    1STR    H2212330   9.205   8.806   3.419
    1STR    H2312331   8.800   8.741   3.294
    1STR    H2712332   8.854   8.536   3.108
    1STR    H2812333   9.206   8.576   1.362
    1STR    H2912334   9.256   8.561   1.127
    1STR    H2A12335   9.010   8.554   0.859
    1STR    H2B12336   9.178   8.528   0.904
    1STR    H2C12337   9.122   8.691   0.867
    1STR   BCK112338   8.782   8.819   5.243
    1STR    O0312339   8.690   8.751   5.197
    1STR    N0412340   8.783   8.878   5.364
    1STR    C0512341   8.679   8.911   5.452
    1STR    C0612342   8.696   8.892   5.592
    1STR    C0712343   8.604   8.945   5.687
    1STR    N0812344   8.627   8.930   5.825
    1STR    C0912345   8.577   9.001   5.929
    1STR    O0A12346   8.502   9.097   5.917
    1STR    O0B12347   8.621   8.955   6.049
    1STR    C0C12348   8.572   9.013   6.172
    1STR    C0D12349   8.437   8.948   6.208
    1STR    C0E12350   8.673   8.997   6.287
    1STR    O0F12351   8.622   9.059   6.406
    1STR    C0G12352   8.708   9.056   6.521
    1STR    C0H12353   8.817   9.164   6.507
    1STR    C0I12354   8.624   9.079   6.649
    1STR    O0J12355   8.707   9.064   6.765
    1STR    C0K12356   8.644   9.085   6.892
    1STR    C0M12357   8.557   8.963   6.928
    1STR    C0N12358   8.754   9.107   6.997
    1STR    O0O12359   8.700   9.143   7.124
    1STR    C0P12360   8.709   9.060   7.230
    1STR    O0Q12361   8.755   8.946   7.227
    1STR    N0R12362   8.657   9.119   7.338
    1STR    C0S12363   8.640   9.075   7.469
    1STR    C0T12364   8.562   9.156   7.555
    1STR    C0U12365   8.535   9.116   7.687
    1STR    C0V12366   8.586   8.996   7.738
    1STR    C0W12367   8.545   8.952   7.878
    1STR    C0X12368   8.670   8.916   7.656
    1STR    N0Y12369   8.720   8.794   7.701
    1STR   BCK212370   8.795   8.768   7.809
    1STR    O1012371   8.843   8.852   7.884
    1STR    C1312372   8.695   8.955   7.522
    1STR    C1412373   8.491   9.014   5.637
    1STR    C1512374   8.473   9.033   5.499
    1STR    C1612375   8.566   8.984   5.406
    1STR    C1712376   8.546   9.018   5.259
    1STR    H1B12377   8.874   8.911   5.389
    1STR    H1C12378   8.783   8.838   5.627
    1STR    H1D12379   8.690   8.858   5.855
    1STR    H1E12380   8.556   9.120   6.157
    1STR    H1F12381   8.447   8.840   6.224
    1STR    H1G12382   8.395   8.992   6.298
    1STR    H1H12383   8.364   8.962   6.128
    1STR    H1I12384   8.767   9.044   6.257
    1STR    H1J12385   8.694   8.892   6.305
    1STR    H1K12386   8.755   8.957   6.529
    1STR    H1M12387   8.772   9.262   6.494
    1STR    H1N12388   8.883   9.145   6.423
    1STR    H1O12389   8.879   9.167   6.596
    1STR    H1P12390   8.579   9.178   6.646
    1STR    H1Q12391   8.543   9.006   6.651
    1STR    H1R12392   8.582   9.175   6.888
    1STR    H1S12393   8.513   8.975   7.027
    1STR    H1T12394   8.617   8.872   6.931
    1STR    H1U12395   8.475   8.948   6.858
    1STR    H1V12396   8.819   9.189   6.965
    1STR    H1W12397   8.819   9.019   7.003
    1STR    H1X12398   8.625   9.212   7.315
    1STR    H1Y12399   8.519   9.248   7.519
    1STR    H1Z12400   8.472   9.178   7.749
    1STR    H2012401   8.534   8.843   7.883
    1STR    H2112402   8.621   8.982   7.950
    1STR    H2212403   8.450   8.995   7.907
    1STR    H2312404   8.702   8.713   7.644
    1STR    H2712405   8.757   8.893   7.461
    1STR    H2812406   8.417   9.056   5.703
    1STR    H2912407   8.387   9.089   5.465
    1STR    H2A12408   8.640   9.050   5.213
    1STR    H2B12409   8.475   9.100   5.247
    1STR    H2C12410   8.508   8.932   5.205
    1STR   BCK112411   8.801   8.672   9.623
    1STR    O0312412   8.891   8.592   9.599
    1STR    N0412413   8.716   8.663   9.726
    1STR    C0512414   8.700   8.555   9.814
    1STR    C0612415   8.698   8.577   9.955
    1STR    C0712416   8.674   8.471  10.047
    1STR    N0812417   8.668   8.498  10.185
    1STR    C0912418   8.657   8.413  10.290
    1STR    O0A12419   8.656   8.291  10.281
    1STR    O0B12420   8.648   8.479  10.408
    1STR    C0C12421   8.640   8.404  10.530
    1STR    C0D12422   8.782   8.361  10.572
    1STR    C0E12423   8.572   8.485  10.642
    1STR    O0F12424   8.564   8.406  10.761
    1STR    C0G12425   8.503   8.467  10.874
    1STR    C0H12426   8.350   8.460  10.860
    1STR    C0I12427   8.550   8.394  11.002
    1STR    O0J12428   8.501   8.463  11.117
    1STR    C0K12429   8.531   8.405  11.243
    1STR    C0M12430   8.678   8.431  11.280
    1STR    C0N12431   8.436   8.468  11.347
    1STR    O0O12432   8.445   8.403  11.473
    1STR    C0P12433   8.508   8.460  11.577
    1STR    O0Q12434   8.568   8.567  11.575
    1STR    N0R12435   8.494   8.380  11.682
    1STR    C0S12436   8.539   8.388  11.815
    1STR    C0T12437   8.494   8.286  11.901
    1STR    C0U12438   8.538   8.280  12.034
    1STR    C0V12439   8.628   8.376  12.084
    1STR    C0W12440   8.683   8.355  12.224
    1STR    C0X12441   8.671   8.483  12.001
    1STR    N0Y12442   8.765   8.576  12.046
    1STR   BCK212443   8.760   8.649  12.158
    1STR    O1012444   8.659   8.666  12.226
    1STR    C1312445   8.626   8.487  11.866
    1STR    C1412446   8.653   8.342   9.994
    1STR    C1512447   8.652   8.320   9.855
    1STR    C1612448   8.673   8.425   9.765
    1STR    C1712449   8.659   8.395   9.616
    1STR    H1B12450   8.657   8.743   9.738
    1STR    H1C12451   8.716   8.677   9.992
    1STR    H1D12452   8.673   8.593  10.215
    1STR    H1E12453   8.580   8.315  10.514
    1STR    H1F12454   8.846   8.446  10.591
    1STR    H1G12455   8.779   8.300  10.663
    1STR    H1H12456   8.829   8.300  10.495
    1STR    H1I12457   8.472   8.514  10.609
    1STR    H1J12458   8.627   8.577  10.662
    1STR    H1K12459   8.535   8.571  10.882
    1STR    H1M12460   8.316   8.357  10.848
    1STR    H1N12461   8.314   8.517  10.775
    1STR    H1O12462   8.301   8.501  10.949
    1STR    H1P12463   8.515   8.291  11.001
    1STR    H1Q12464   8.659   8.391  11.003
    1STR    H1R12465   8.512   8.297  11.240
    1STR    H1S12466   8.702   8.390  11.379
    1STR    H1T12467   8.699   8.538  11.284
    1STR    H1U12468   8.748   8.386  11.210
    1STR    H1V12469   8.333   8.457  11.312
    1STR    H1W12470   8.453   8.576  11.355
    1STR    H1X12471   8.439   8.300  11.658
    1STR    H1Y12472   8.427   8.210  11.866
    1STR    H1Z12473   8.505   8.200  12.097
    1STR    H2012474   8.792   8.357  12.220
    1STR    H2112475   8.648   8.431  12.292
    1STR    H2212476   8.654   8.259  12.265
    1STR    H2312477   8.847   8.590  11.990
    1STR    H2712478   8.661   8.567  11.801
    1STR    H2812479   8.634   8.256  10.056
    1STR    H2912480   8.633   8.220   9.818
    1STR    H2A12481   8.613   8.478   9.563
    1STR    H2B12482   8.597   8.307   9.599
    1STR    H2C12483   8.757   8.376   9.573
    1STR   BCK112484   8.809   8.775  13.974
    1STR    O0312485   8.764   8.887  13.951
    1STR    N0412486   8.870   8.739  14.087
    1STR    C0512487   8.923   8.826  14.182
    1STR    C0612488   8.897   8.804  14.320
    1STR    C0712489   8.955   8.886  14.420
    1STR    N0812490   8.932   8.858  14.555
    1STR    C0912491   8.998   8.903  14.663
    1STR    O0A12492   9.094   8.980  14.660
    1STR    O0B12493   8.947   8.852  14.778
    1STR    C0C12494   8.996   8.900  14.904
    1STR    C0D12495   8.918   9.027  14.943
    1STR    C0E12496   8.988   8.792  15.012
    1STR    O0F12497   9.047   8.844  15.130
    1STR    C0G12498   9.053   8.757  15.242
    1STR    C0H12499   9.170   8.659  15.226
    1STR    C0I12500   9.070   8.844  15.368
    1STR    O0J12501   9.066   8.761  15.484
    1STR    C0K12502   9.085   8.828  15.608
    1STR    C0M12503   8.956   8.900  15.650
    1STR    C0N12504   9.127   8.720  15.710
    1STR    O0O12505   9.167   8.779  15.833
    1STR    C0P12506   9.085   8.778  15.939
    1STR    O0Q12507   8.972   8.731  15.939
    1STR    N0R12508   9.145   8.838  16.042
    1STR    C0S12509   9.099   8.863  16.171
    1STR    C0T12510   9.169   8.958  16.249
    1STR    C0U12511   9.125   8.990  16.379
    1STR    C0V12512   9.012   8.928  16.434
    1STR    C0W12513   8.964   8.971  16.572
    1STR    C0X12514   8.945   8.828  16.360
    1STR    N0Y12515   8.834   8.761  16.413
    1STR   BCK212516   8.832   8.674  16.514
    1STR    O1012517   8.726   8.625  16.551
    1STR    C1312518   8.987   8.797  16.229
    1STR    C1412519   9.036   8.994  14.377
    1STR    C1512520   9.065   9.015  14.242
    1STR    C1612521   9.012   8.929  14.144
    1STR    C1712522   9.058   8.949  14.000
    1STR    H1B12523   8.888   8.640  14.097
    1STR    H1C12524   8.831   8.723  14.348
    1STR    H1D12525   8.859   8.793  14.579
    1STR    H1E12526   9.102   8.926  14.894
    1STR    H1F12527   8.812   9.005  14.956
    1STR    H1G12528   8.956   9.068  15.036
    1STR    H1H12529   8.928   9.104  14.866
    1STR    H1I12530   9.041   8.703  14.978
    1STR    H1J12531   8.884   8.763  15.030
    1STR    H1K12532   8.959   8.702  15.252
    1STR    H1M12533   9.264   8.712  15.213
    1STR    H1N12534   9.157   8.593  15.141
    1STR    H1O12535   9.180   8.596  15.315
    1STR    H1P12536   9.164   8.899  15.362
    1STR    H1Q12537   8.990   8.918  15.371
    1STR    H1R12538   9.167   8.900  15.600
    1STR    H1S12539   8.967   8.948  15.747
    1STR    H1T12540   8.873   8.829  15.658
    1STR    H1U12541   8.927   8.978  15.579
    1STR    H1V12542   9.212   8.665  15.671
    1STR    H1W12543   9.047   8.647  15.723
    1STR    H1X12544   9.236   8.871  16.017
    1STR    H1Y12545   9.255   9.008  16.209
    1STR    H1Z12546   9.179   9.065  16.435
    1STR    H2012547   8.855   8.963  16.579
    1STR    H2112548   9.008   8.909  16.649
    1STR    H2212549   8.990   9.075  16.592
    1STR    H2312550   8.746   8.772  16.367
    1STR    H2712551   8.934   8.722  16.174
    1STR    H2812552   9.080   9.064  14.447
    1STR    H2912553   9.131   9.095  14.214
    1STR    H2A12554   9.069   8.854  13.948
    1STR    H2B12555   9.155   8.999  13.996
    1STR    H2C12556   8.987   9.011  13.946
    1STR   BCK112557   8.719  13.125   0.893
    1STR    O0312558   8.689  13.013   0.852
    1STR    N0412559   8.674  13.181   1.006
    1STR    C0512560   8.570  13.142   1.092
    1STR    C0612561   8.590  13.145   1.233
    1STR    C0712562   8.484  13.121   1.325
    1STR    N0812563   8.506  13.129   1.464
    1STR    C0912564   8.418  13.135   1.566
    1STR    O0A12565   8.296  13.134   1.553
    1STR    O0B12566   8.480  13.142   1.687
    1STR    C0C12567   8.402  13.140   1.809
    1STR    C0D12568   8.369  12.994   1.845
    1STR    C0E12569   8.474  13.211   1.925
    1STR    O0F12570   8.394  13.208   2.044
    1STR    C0G12571   8.448  13.274   2.159
    1STR    C0H12572   8.427  13.426   2.145
    1STR    C0I12573   8.379  13.221   2.287
    1STR    O0J12574   8.441  13.277   2.404
    1STR    C0K12575   8.386  13.239   2.531
    1STR    C0M12576   8.429  13.095   2.565
    1STR    C0N12577   8.439  13.338   2.637
    1STR    O0O12578   8.379  13.317   2.765
    1STR    C0P12579   8.450  13.268   2.868
    1STR    O0Q12580   8.567  13.230   2.862
    1STR    N0R12581   8.374  13.265   2.978
    1STR    C0S12582   8.398  13.221   3.108
    1STR    C0T12583   8.289  13.226   3.199
    1STR    C0U12584   8.302  13.176   3.329
    1STR    C0V12585   8.423  13.120   3.374
    1STR    C0W12586   8.426  13.058   3.513
    1STR    C0X12587   8.536  13.120   3.288
    1STR    N0Y12588   8.658  13.063   3.325
    1STR   BCK212589   8.731  13.080   3.436
    1STR    O1012590   8.704  13.159   3.526
    1STR    C1312591   8.521  13.169   3.155
    1STR    C1412592   8.357  13.089   1.270
    1STR    C1512593   8.336  13.087   1.131
    1STR    C1612594   8.440  13.115   1.042
    1STR    C1712595   8.407  13.123   0.894
    1STR    H1B12596   8.722  13.267   1.029
    1STR    H1C12597   8.688  13.168   1.271
    1STR    H1D12598   8.601  13.134   1.496
    1STR    H1E12599   8.308  13.193   1.792
    1STR    H1F12600   8.460  12.936   1.863
    1STR    H1G12601   8.307  12.989   1.934
    1STR    H1H12602   8.314  12.945   1.764
    1STR    H1I12603   8.495  13.314   1.896
    1STR    H1J12604   8.571  13.163   1.944
    1STR    H1K12605   8.554  13.252   2.168
    1STR    H1M12606   8.322  13.450   2.132
    1STR    H1N12607   8.482  13.468   2.061
    1STR    H1O12608   8.462  13.478   2.235
    1STR    H1P12609   8.272  13.245   2.285
    1STR    H1Q12610   8.386  13.112   2.289
    1STR    H1R12611   8.277  13.246   2.528
    1STR    H1S12612   8.392  13.067   2.664
    1STR    H1T12613   8.537  13.086   2.567
    1STR    H1U12614   8.390  13.022   2.495
    1STR    H1V12615   8.414  13.440   2.606
    1STR    H1W12616   8.548  13.336   2.642
    1STR    H1X12617   8.283  13.302   2.958
    1STR    H1Y12618   8.194  13.265   3.168
    1STR    H1Z12619   8.217  13.178   3.395
    1STR    H2012620   8.494  12.972   3.516
    1STR    H2112621   8.459  13.131   3.587
    1STR    H2212622   8.328  13.021   3.542
    1STR    H2312623   8.702  13.004   3.256
    1STR    H2712624   8.606  13.166   3.089
    1STR    H2812625   8.272  13.067   1.333
    1STR    H2912626   8.237  13.065   1.094
    1STR    H2A12627   8.461  13.204   0.845
    1STR    H2B12628   8.300  13.141   0.878
    1STR    H2C12629   8.433  13.029   0.844
    1STR   BCK112630   8.856  13.090   5.263
    1STR    O0312631   8.976  13.113   5.253
    1STR    N0412632   8.798  13.024   5.363
    1STR    C0512633   8.865  12.943   5.456
    1STR    C0612634   8.843  12.961   5.595
    1STR    C0712635   8.905  12.876   5.691
    1STR    N0812636   8.878  12.893   5.828
    1STR    C0912637   8.939  12.838   5.935
    1STR    O0A12638   9.038  12.766   5.930
    1STR    O0B12639   8.877  12.873   6.050
    1STR    C0C12640   8.929  12.824   6.174
    1STR    C0D12641   9.047  12.912   6.219
    1STR    C0E12642   8.818  12.819   6.281
    1STR    O0F12643   8.874  12.765   6.401
    1STR    C0G12644   8.784  12.755   6.511
    1STR    C0H12645   8.699  12.628   6.497
    1STR    C0I12646   8.868  12.751   6.640
    1STR    O0J12647   8.780  12.760   6.752
    1STR    C0K12648   8.841  12.746   6.880
    1STR    C0M12649   8.918  12.874   6.918
    1STR    C0N12650   8.729  12.717   6.981
    1STR    O0O12651   8.786  12.673   7.103
    1STR    C0P12652   8.790  12.751   7.211
    1STR    O0Q12653   8.738  12.862   7.224
    1STR    N0R12654   8.861  12.687   7.303
    1STR    C0S12655   8.898  12.716   7.434
    1STR    C0T12656   8.987  12.625   7.492
    1STR    C0U12657   9.024  12.637   7.627
    1STR    C0V12658   8.971  12.740   7.706
    1STR    C0W12659   9.001  12.731   7.854
    1STR    C0X12660   8.884  12.838   7.649
    1STR    N0Y12661   8.816  12.935   7.724
    1STR   BCK212662   8.841  13.017   7.828
    1STR    O1012663   8.748  13.079   7.878
    1STR    C1312664   8.849  12.824   7.512
    1STR    C1412665   8.988  12.772   5.643
    1STR    C1512666   9.008  12.752   5.506
    1STR    C1612667   8.945  12.835   5.411
    1STR    C1712668   8.962  12.802   5.264
    1STR    H1B12669   8.698  13.025   5.365
    1STR    H1C12670   8.780  13.042   5.628
    1STR    H1D12671   8.804  12.956   5.854
    1STR    H1E12672   8.964  12.722   6.161
    1STR    H1F12673   9.016  13.015   6.235
    1STR    H1G12674   9.090  12.875   6.311
    1STR    H1H12675   9.126  12.912   6.144
    1STR    H1I12676   8.736  12.757   6.246
    1STR    H1J12677   8.779  12.919   6.299
    1STR    H1K12678   8.721  12.844   6.516
    1STR    H1M12679   8.761  12.539   6.488
    1STR    H1N12680   8.633  12.633   6.410
    1STR    H1O12681   8.635  12.615   6.585
    1STR    H1P12682   8.928  12.660   6.644
    1STR    H1Q12683   8.938  12.835   6.640
    1STR    H1R12684   8.909  12.660   6.879
    1STR    H1S12685   8.962  12.864   7.017
    1STR    H1T12686   8.852  12.960   6.920
    1STR    H1U12687   9.000  12.895   6.849
    1STR    H1V12688   8.667  12.635   6.943
    1STR    H1W12689   8.663  12.802   6.994
    1STR    H1X12690   8.892  12.599   7.265
    1STR    H1Y12691   9.026  12.541   7.436
    1STR    H1Z12692   9.089  12.563   7.670
    1STR    H2012693   9.084  12.797   7.877
    1STR    H2112694   8.911  12.757   7.910
    1STR    H2212695   9.030  12.631   7.883
    1STR    H2312696   8.721  12.951   7.695
    1STR    H2712697   8.781  12.895   7.467
    1STR    H2812698   9.038  12.703   5.709
    1STR    H2912699   9.071  12.671   5.473
    1STR    H2A12700   8.869  12.816   5.210
    1STR    H2B12701   8.992  12.698   5.250
    1STR    H2C12702   9.038  12.865   5.220
    1STR   BCK112703   8.789  13.152   9.598
    1STR    O0312704   8.688  13.192   9.541
    1STR    N0412705   8.827  13.184   9.723
    1STR    C0512706   8.777  13.280   9.812
    1STR    C0612707   8.779  13.251   9.951
    1STR    C0712708   8.740  13.347  10.049
    1STR    N0812709   8.750  13.317  10.186
    1STR    C0912710   8.750  13.401  10.292
    1STR    O0A12711   8.743  13.523  10.284
    1STR    O0B12712   8.760  13.334  10.410
    1STR    C0C12713   8.750  13.407  10.534
    1STR    C0D12714   8.602  13.423  10.570
    1STR    C0E12715   8.829  13.338  10.647
    1STR    O0F12716   8.820  13.417  10.765
    1STR    C0G12717   8.891  13.369  10.879
    1STR    C0H12718   9.041  13.402  10.865
    1STR    C0I12719   8.832  13.435  11.006
    1STR    O0J12720   8.896  13.382  11.122
    1STR    C0K12721   8.854  13.437  11.247
    1STR    C0M12722   8.719  13.376  11.288
    1STR    C0N12723   8.964  13.403  11.350
    1STR    O0O12724   8.941  13.466  11.476
    1STR    C0P12725   8.899  13.393  11.581
    1STR    O0Q12726   8.870  13.274  11.576
    1STR    N0R12727   8.894  13.470  11.690
    1STR    C0S12728   8.856  13.440  11.822
    1STR    C0T12729   8.840  13.547  11.912
    1STR    C0U12730   8.797  13.524  12.044
    1STR    C0V12731   8.766  13.393  12.089
    1STR    C0W12732   8.708  13.376  12.228
    1STR    C0X12733   8.785  13.284  12.000
    1STR    N0Y12734   8.748  13.153  12.030
    1STR   BCK212735   8.786  13.067  12.125
    1STR    O1012736   8.741  12.953  12.122
    1STR    C1312737   8.829  13.309  11.868
    1STR    C1412738   8.694  13.472  10.003
    1STR    C1512739   8.694  13.504   9.866
    1STR    C1612740   8.738  13.411   9.770
    1STR    C1712741   8.750  13.460   9.627
    1STR    H1B12742   8.906  13.130   9.754
    1STR    H1C12743   8.812  13.154   9.984
    1STR    H1D12744   8.761  13.221  10.214
    1STR    H1E12745   8.794  13.506  10.521
    1STR    H1F12746   8.553  13.326  10.586
    1STR    H1G12747   8.590  13.481  10.662
    1STR    H1H12748   8.548  13.476  10.492
    1STR    H1I12749   8.933  13.326  10.616
    1STR    H1J12750   8.789  13.238  10.665
    1STR    H1K12751   8.877  13.261  10.889
    1STR    H1M12752   9.056  13.509  10.852
    1STR    H1N12753   9.086  13.351  10.781
    1STR    H1O12754   9.096  13.372  10.954
    1STR    H1P12755   8.845  13.544  11.001
    1STR    H1Q12756   8.725  13.416  11.009
    1STR    H1R12757   8.846  13.545  11.240
    1STR    H1S12758   8.688  13.412  11.386
    1STR    H1T12759   8.725  13.267  11.294
    1STR    H1U12760   8.639  13.401  11.218
    1STR    H1V12761   9.060  13.440  11.313
    1STR    H1W12762   8.976  13.295  11.359
    1STR    H1X12763   8.921  13.565  11.669
    1STR    H1Y12764   8.860  13.649  11.882
    1STR    H1Z12765   8.783  13.608  12.111
    1STR    H2012766   8.640  13.291  12.231
    1STR    H2112767   8.787  13.359  12.300
    1STR    H2212768   8.652  13.464  12.258
    1STR    H2312769   8.689  13.108  11.963
    1STR    H2712770   8.842  13.225  11.803
    1STR    H2812771   8.658  13.549  10.070
    1STR    H2912772   8.661  13.602   9.835
    1STR    H2A12773   8.834  13.415   9.576
    1STR    H2B12774   8.765  13.568   9.624
    1STR    H2C12775   8.658  13.438   9.572
    1STR   BCK112776   8.748  13.046  13.981
    1STR    O0312777   8.791  12.936  13.946
    1STR    N0412778   8.671  13.068  14.089
    1STR    C0512779   8.610  12.975  14.174
    1STR    C0612780   8.618  12.992  14.315
    1STR    C0712781   8.550  12.906  14.406
    1STR    N0812782   8.557  12.929  14.545
    1STR    C0912783   8.500  12.864  14.648
    1STR    O0A12784   8.430  12.764  14.637
    1STR    O0B12785   8.529  12.922  14.768
    1STR    C0C12786   8.482  12.861  14.890
    1STR    C0D12787   8.578  12.747  14.929
    1STR    C0E12788   8.469  12.964  15.004
    1STR    O0F12789   8.420  12.899  15.122
    1STR    C0G12790   8.401  12.983  15.237
    1STR    C0H12791   8.268  13.059  15.223
    1STR    C0I12792   8.401  12.895  15.364
    1STR    O0J12793   8.395  12.979  15.480
    1STR    C0K12794   8.391  12.912  15.606
    1STR    C0M12795   8.530  12.858  15.642
    1STR    C0N12796   8.343  13.015  15.711
    1STR    O0O12797   8.321  12.955  15.838
    1STR    C0P12798   8.406  12.975  15.940
    1STR    O0Q12799   8.512  13.038  15.934
    1STR    N0R12800   8.358  12.915  16.049
    1STR    C0S12801   8.406  12.903  16.180
    1STR    C0T12802   8.326  12.831  16.270
    1STR    C0U12803   8.369  12.806  16.401
    1STR    C0V12804   8.493  12.853  16.446
    1STR    C0W12805   8.541  12.810  16.584
    1STR    C0X12806   8.574  12.932  16.359
    1STR    N0Y12807   8.699  12.978  16.400
    1STR   BCK212808   8.727  13.050  16.510
    1STR    O1012809   8.644  13.104  16.582
    1STR    C1312810   8.530  12.954  16.226
    1STR    C1412811   8.475  12.800  14.351
    1STR    C1512812   8.464  12.783  14.212
    1STR    C1612813   8.529  12.870  14.123
    1STR    C1712814   8.502  12.852  13.974
    1STR    H1B12815   8.656  13.165  14.108
    1STR    H1C12816   8.678  13.073  14.354
    1STR    H1D12817   8.613  13.007  14.577
    1STR    H1E12818   8.383  12.819  14.872
    1STR    H1F12819   8.679  12.783  14.948
    1STR    H1G12820   8.543  12.696  15.019
    1STR    H1H12821   8.584  12.672  14.850
    1STR    H1I12822   8.400  13.042  14.973
    1STR    H1J12823   8.565  13.011  15.023
    1STR    H1K12824   8.484  13.053  15.245
    1STR    H1M12825   8.185  12.990  15.210
    1STR    H1N12826   8.268  13.127  15.138
    1STR    H1O12827   8.248  13.118  15.312
    1STR    H1P12828   8.317  12.826  15.362
    1STR    H1Q12829   8.492  12.835  15.365
    1STR    H1R12830   8.318  12.830  15.603
    1STR    H1S12831   8.529  12.811  15.741
    1STR    H1T12832   8.603  12.938  15.646
    1STR    H1U12833   8.565  12.783  15.572
    1STR    H1V12834   8.248  13.057  15.679
    1STR    H1W12835   8.412  13.099  15.717
    1STR    H1X12836   8.270  12.872  16.029
    1STR    H1Y12837   8.230  12.791  16.240
    1STR    H1Z12838   8.306  12.748  16.468
    1STR    H2012839   8.642  12.771  16.578
    1STR    H2112840   8.539  12.893  16.654
    1STR    H2212841   8.478  12.731  16.626
    1STR    H2312842   8.778  12.958  16.341
    1STR    H2712843   8.593  13.011  16.160
    1STR    H2812844   8.421  12.729  14.412
    1STR    H2912845   8.404  12.702  14.174
    1STR    H2A12846   8.498  12.949  13.923
    1STR    H2B12847   8.407  12.802  13.957
    1STR    H2C12848   8.581  12.792  13.929
    1STR   BCK112849  13.186   0.064   0.903
    1STR    O0312850  13.230   0.178   0.892
    1STR    N0412851  13.208  17.424   1.007
    1STR    C0512852  13.306   0.003   1.103
    1STR    C0612853  13.274  17.440   1.241
    1STR    C0712854  13.373   0.016   1.341
    1STR    N0812855  13.338   0.006   1.477
    1STR    C0912856  13.414   0.017   1.587
    1STR    O0A12857  13.534   0.045   1.587
    1STR    O0B12858  13.344  17.433   1.699
    1STR    C0C12859  13.410   0.007   1.826
    1STR    C0D12860  13.410   0.155   1.867
    1STR    C0E12861  13.345  17.358   1.933
    1STR    O0F12862  13.423  17.370   2.052
    1STR    C0G12863  13.379  17.292   2.164
    1STR    C0H12864  13.427  17.147   2.146
    1STR    C0I12865  13.440  17.356   2.290
    1STR    O0J12866  13.390  17.287   2.405
    1STR    C0K12867  13.441  17.331   2.530
    1STR    C0M12868  13.375   0.023   2.572
    1STR    C0N12869  13.411  17.217   2.631
    1STR    O0O12870  13.477  17.240   2.755
    1STR    C0P12871  13.409  17.288   2.860
    1STR    O0Q12872  13.290  17.314   2.862
    1STR    N0R12873  13.494  17.305   2.962
    1STR    C0S12874  13.472  17.359   3.088
    1STR    C0T12875  13.584  17.411   3.156
    1STR    C0U12876  13.570   0.034   3.281
    1STR    C0V12877  13.443   0.045   3.341
    1STR    C0W12878  13.430   0.123   3.471
    1STR    C0X12879  13.331  17.426   3.278
    1STR    N0Y12880  13.206  17.431   3.340
    1STR   BCK212881  13.169  17.364   3.449
    1STR    O1012882  13.066  17.394   3.509
    1STR    C1312883  13.345  17.366   3.151
    1STR    C1412884  13.506   0.038   1.298
    1STR    C1512885  13.540   0.039   1.162
    1STR    C1612886  13.442   0.019   1.064
    1STR    C1712887  13.487   0.009   0.919
    1STR    H1B12888  13.156  17.338   1.007
    1STR    H1C12889  13.171  17.425   1.269
    1STR    H1D12890  13.242  17.426   1.499
    1STR    H1E12891  13.513  17.413   1.817
    1STR    H1F12892  13.309   0.193   1.880
    1STR    H1G12893  13.464   0.169   1.961
    1STR    H1H12894  13.460   0.217   1.792
    1STR    H1I12895  13.343  17.255   1.899
    1STR    H1J12896  13.241  17.388   1.951
    1STR    H1K12897  13.271  17.296   2.172
    1STR    H1M12898  13.535  17.142   2.133
    1STR    H1N12899  13.380  17.098   2.061
    1STR    H1O12900  13.401  17.088   2.234
    1STR    H1P12901  13.549  17.351   2.286
    1STR    H1Q12902  13.412   0.021   2.294
    1STR    H1R12903  13.549  17.343   2.524
    1STR    H1S12904  13.410   0.055   2.670
    1STR    H1T12905  13.266   0.012   2.578
    1STR    H1U12906  13.396   0.104   2.503
    1STR    H1V12907  13.449  17.123   2.591
    1STR    H1W12908  13.304  17.203   2.643
    1STR    H1X12909  13.587  17.278   2.937
    1STR    H1Y12910  13.683  17.405   3.112
    1STR    H1Z12911  13.657   0.076   3.330
    1STR    H2012912  13.332   0.171   3.479
    1STR    H2112913  13.443   0.057   3.556
    1STR    H2212914  13.505   0.202   3.477
    1STR    H2312915  13.136   0.052   3.303
    1STR    H2712916  13.258  17.323   3.103
    1STR    H2812917  13.588   0.054   1.367
    1STR    H2912918  13.643   0.054   1.133
    1STR    H2A12919  13.429  17.374   0.865
    1STR    H2B12920  13.592  17.421   0.912
    1STR    H2C12921  13.474   0.105   0.869
    1STR   BCK112922  13.111   0.088   5.248
    1STR    O0312923  13.039  17.438   5.204
    1STR    N0412924  13.094   0.151   5.365
    1STR    C0512925  12.984   0.156   5.452
    1STR    C0612926  13.004   0.145   5.592
    1STR    C0712927  12.899   0.168   5.686
    1STR    N0812928  12.924   0.162   5.825
    1STR    C0912929  12.853   0.213   5.927
    1STR    O0A12930  12.749   0.278   5.915
    1STR    O0B12931  12.909   0.185   6.048
    1STR    C0C12932  12.842   0.223   6.170
    1STR    C0D12933  12.737   0.117   6.206
    1STR    C0E12934  12.942   0.244   6.287
    1STR    O0F12935  12.872   0.285   6.406
    1STR    C0G12936  12.954   0.311   6.521
    1STR    C0H12937  13.019   0.450   6.507
    1STR    C0I12938  12.867   0.303   6.649
    1STR    O0J12939  12.950   0.318   6.765
    1STR    C0K12940  12.884   0.315   6.892
    1STR    C0M12941  12.843   0.171   6.927
    1STR    C0N12942  12.981   0.372   6.998
    1STR    O0O12943  12.918   0.386   7.126
    1STR    C0P12944  12.955   0.309   7.230
    1STR    O0Q12945  13.037   0.218   7.225
    1STR    N0R12946  12.888   0.347   7.339
    1STR    C0S12947  12.887   0.298   7.470
    1STR    C0T12948  12.790   0.353   7.558
    1STR    C0U12949  12.777   0.306   7.690
    1STR    C0V12950  12.860   0.203   7.738
    1STR    C0W12951  12.834   0.149   7.878
    1STR    C0X12952  12.961   0.149   7.654
    1STR    N0Y12953  13.041   0.043   7.696
    1STR   BCK212954  13.118   0.033   7.805
    1STR    O1012955  13.142   0.125   7.883
    1STR    C1312956  12.972   0.197   7.521
    1STR    C1412957  12.772   0.198   5.634
    1STR    C1512958  12.750   0.209   5.496
    1STR    C1612959  12.855   0.190   5.404
    1STR    C1712960  12.827   0.215   5.257
    1STR    H1B12961  13.173   0.209   5.389
    1STR    H1C12962  13.103   0.121   5.629
    1STR    H1D12963  13.008   0.116   5.856
    1STR    H1E12964  12.791   0.319   6.154
    1STR    H1F12965  12.783   0.020   6.224
    1STR    H1G12966  12.682   0.145   6.296
    1STR    H1H12967  12.663   0.105   6.126
    1STR    H1I12968  13.014   0.320   6.257
    1STR    H1J12969  12.997   0.152   6.305
    1STR    H1K12970  13.032   0.234   6.529
    1STR    H1M12971  12.943   0.527   6.494
    1STR    H1N12972  13.087   0.455   6.422
    1STR    H1O12973  13.076   0.474   6.596
    1STR    H1P12974  12.791   0.381   6.646
    1STR    H1Q12975  12.816   0.208   6.651
    1STR    H1R12976  12.795   0.379   6.889
    1STR    H1S12977  12.798   0.167   7.026
    1STR    H1T12978  12.931   0.106   6.930
    1STR    H1U12979  12.771   0.129   6.857
    1STR    H1V12980  13.013   0.472   6.967
    1STR    H1W12981  13.072   0.312   7.003
    1STR    H1X12982  12.828   0.424   7.318
    1STR    H1Y12983  12.723   0.431   7.524
    1STR    H1Z12984  12.701   0.348   7.753
    1STR    H2012985  12.852   0.042   7.882
    1STR    H2112986  12.899   0.198   7.950
    1STR    H2212987  12.731   0.165   7.908
    1STR    H2312988  13.045  17.403   7.635
    1STR    H2712989  13.048   0.154   7.457
    1STR    H2812990  12.687   0.215   5.698
    1STR    H2912991  12.652   0.236   5.460
    1STR    H2A12992  12.909   0.269   5.210
    1STR    H2B12993  12.737   0.275   5.243
    1STR    H2C12994  12.813   0.121   5.205
    1STR   BCK112995  13.192  17.406   9.624
    1STR    O0312996  13.305  17.362   9.610
    1STR    N0412997  13.110  17.374   9.725
    1STR    C0512998  13.126  17.268   9.815
    1STR    C0612999  13.116  17.291   9.955
    1STR    C0713000  13.125  17.184  10.048
    1STR    N0813001  13.110  17.208  10.186
    1STR    C0913002  13.130  17.127  10.291
    1STR    O0A13003  13.172  17.012  10.284
    1STR    O0B13004  13.097  17.186  10.408
    1STR    C0C13005  13.115  17.115  10.532
    1STR    C0D13006  13.263  17.123  10.575
    1STR    C0E13007  13.021  17.168  10.642
    1STR    O0F13008  13.041  17.091  10.761
    1STR    C0G13009  12.961  17.129  10.873
    1STR    C0H13010  12.820  17.070  10.859
    1STR    C0I13011  13.030  17.078  11.001
    1STR    O0J13012  12.961  17.128  11.115
    1STR    C0K13013  13.010  17.084  11.242
    1STR    C0M13014  13.140  17.157  11.278
    1STR    C0N13015  12.900  17.112  11.346
    1STR    O0O13016  12.935  17.052  11.470
    1STR    C0P13017  12.971  17.124  11.577
    1STR    O0Q13018  12.974  17.247  11.584
    1STR    N0R13019  13.002  17.040  11.675
    1STR    C0S13020  13.042  17.056  11.807
    1STR    C0T13021  13.066  16.937  11.878
    1STR    C0U13022  13.100  16.941  12.014
    1STR    C0V13023  13.110  17.063  12.082
    1STR    C0W13024  13.132  17.055  12.232
    1STR    C0X13025  13.092  17.186  12.013
    1STR    N0Y13026  13.088  17.309  12.079
    1STR   BCK213027  13.168  17.368  12.169
    1STR    O1013028  13.128   0.027  12.229
    1STR    C1313029  13.057  17.181  11.875
    1STR    C1413030  13.144  17.053   9.997
    1STR    C1513031  13.152  17.030   9.858
    1STR    C1613032  13.140  17.136   9.767
    1STR    C1713033  13.138  17.102   9.619
    1STR    H1B13034  13.025  17.428   9.730
    1STR    H1C13035  13.103  17.391   9.990
    1STR    H1D13036  13.082  17.300  10.215
    1STR    H1E13037  13.089  17.010  10.516
    1STR    H1F13038  13.293  17.226  10.593
    1STR    H1G13039  13.280  17.067  10.666
    1STR    H1H13040  13.328  17.082  10.498
    1STR    H1I13041  12.918  17.161  10.608
    1STR    H1J13042  13.042  17.274  10.661
    1STR    H1K13043  12.956  17.238  10.880
    1STR    H1M13044  12.825  16.961  10.848
    1STR    H1N13045  12.767  17.110  10.773
    1STR    H1O13046  12.760  17.091  10.947
    1STR    H1P13047  13.033  16.969  11.001
    1STR    H1Q13048  13.134  17.113  11.001
    1STR    H1R13049  13.027  16.976  11.239
    1STR    H1S13050  13.176  17.127  11.376
    1STR    H1T13051  13.125  17.265  11.281
    1STR    H1U13052  13.221  17.137  11.208
    1STR    H1V13053  12.806  17.068  11.314
    1STR    H1W13054  12.882  17.219  11.356
    1STR    H1X13055  12.990  16.945  11.642
    1STR    H1Y13056  13.056  16.841  11.831
    1STR    H1Z13057  13.114  16.848  12.067
    1STR    H2013058  13.239  17.047  12.252
    1STR    H2113059  13.091  17.142  12.283
    1STR    H2213060  13.083  16.968  12.275
    1STR    H2313061  13.009  17.368  12.058
    1STR    H2713062  13.039  17.272  11.821
    1STR    H2813063  13.151  16.966  10.060
    1STR    H2913064  13.164  16.929   9.823
    1STR    H2A13065  13.067  17.164   9.565
    1STR    H2B13066  13.110  16.998   9.602
    1STR    H2C13067  13.237  17.117   9.575
    1STR   BCK113068  13.169   0.056  13.964
    1STR    O0313069  13.090   0.141  13.924
    1STR    N0413070  13.227   0.054  14.084
    1STR    C0513071  13.237   0.158  14.177
    1STR    C0613072  13.221   0.129  14.315
    1STR    C0713073  13.242   0.229  14.415
    1STR    N0813074  13.233   0.195  14.551
    1STR    C0913075  13.278   0.262  14.658
    1STR    O0A13076  13.339   0.369  14.653
    1STR    O0B13077  13.249   0.198  14.774
    1STR    C0C13078  13.279   0.262  14.899
    1STR    C0D13079  13.162   0.354  14.937
    1STR    C0E13080  13.309   0.159  15.010
    1STR    O0F13081  13.346   0.230  15.128
    1STR    C0G13082  13.380   0.150  15.241
    1STR    C0H13083  13.524   0.098  15.226
    1STR    C0I13084  13.366   0.238  15.367
    1STR    O0J13085  13.391   0.160  15.483
    1STR    C0K13086  13.385   0.229  15.607
    1STR    C0M13087  13.239   0.250  15.649
    1STR    C0N13088  13.462   0.142  15.710
    1STR    O0O13089  13.478   0.210  15.834
    1STR    C0P13090  13.402   0.177  15.940
    1STR    O0Q13091  13.312   0.094  15.938
    1STR    N0R13092  13.439   0.249  16.046
    1STR    C0S13093  13.390   0.250  16.176
    1STR    C0T13094  13.428   0.357  16.260
    1STR    C0U13095  13.378   0.368  16.391
    1STR    C0V13096  13.290   0.271  16.442
    1STR    C0W13097  13.231   0.290  16.581
    1STR    C0X13098  13.255   0.159  16.362
    1STR    N0Y13099  13.166   0.062  16.407
    1STR   BCK213100  13.180  17.413  16.505
    1STR    O1013101  13.089  17.334  16.530
    1STR    C1313102  13.304   0.151  16.230
    1STR    C1413103  13.273   0.360  14.372
    1STR    C1513104  13.291   0.389  14.236
    1STR    C1613105  13.277   0.288  14.138
    1STR    C1713106  13.313   0.325  13.995
    1STR    H1B13107  13.276  17.409  14.104
    1STR    H1C13108  13.195   0.029  14.345
    1STR    H1D13109  13.189   0.108  14.576
    1STR    H1E13110  13.370   0.323  14.888
    1STR    H1F13111  13.070   0.298  14.951
    1STR    H1G13112  13.183   0.408  15.030
    1STR    H1H13113  13.145   0.429  14.860
    1STR    H1I13114  13.390   0.094  14.977
    1STR    H1J13115  13.222   0.096  15.028
    1STR    H1K13116  13.310   0.067  15.251
    1STR    H1M13117  13.594   0.181  15.212
    1STR    H1N13118  13.534   0.031  15.141
    1STR    H1O13119  13.554   0.043  15.315
    1STR    H1P13120  13.435   0.322  15.361
    1STR    H1Q13121  13.265   0.280  15.370
    1STR    H1R13122  13.437   0.325  15.599
    1STR    H1S13123  13.232   0.298  15.746
    1STR    H1T13124  13.186   0.155  15.656
    1STR    H1U13125  13.184   0.313  15.579
    1STR    H1V13126  13.561   0.120  15.671
    1STR    H1W13127  13.413   0.045  15.722
    1STR    H1X13128  13.513   0.312  16.022
    1STR    H1Y13129  13.494   0.435  16.224
    1STR    H1Z13130  13.407   0.452  16.452
    1STR    H2013131  13.131   0.248  16.588
    1STR    H2113132  13.294   0.242  16.656
    1STR    H2213133  13.224   0.396  16.606
    1STR    H2313134  13.082   0.048  16.353
    1STR    H2713135  13.275   0.066  16.170
    1STR    H2813136  13.286   0.441  14.441
    1STR    H2913137  13.319   0.489  14.207
    1STR    H2A13138  13.362   0.242  13.944
    1STR    H2B13139  13.382   0.409  13.992
    1STR    H2C13140  13.224   0.353  13.939
    1STR   BCK113141  13.078   4.371   0.895
    1STR    O0313142  13.076   4.255   0.856
    1STR    N0413143  13.019   4.417   1.006
    1STR    C0513144  12.927   4.354   1.092
    1STR    C0613145  12.943   4.364   1.233
    1STR    C0713146  12.846   4.313   1.324
    1STR    N0813147  12.864   4.329   1.463
    1STR    C0913148  12.779   4.304   1.566
    1STR    O0A13149  12.665   4.260   1.553
    1STR    O0B13150  12.835   4.334   1.687
    1STR    C0C13151  12.762   4.306   1.808
    1STR    C0D13152  12.781   4.158   1.845
    1STR    C0E13153  12.805   4.398   1.924
    1STR    O0F13154  12.730   4.368   2.042
    1STR    C0G13155  12.758   4.449   2.157
    1STR    C0H13156  12.687   4.584   2.144
    1STR    C0I13157  12.711   4.375   2.285
    1STR    O0J13158  12.750   4.449   2.401
    1STR    C0K13159  12.712   4.395   2.528
    1STR    C0M13160  12.800   4.274   2.563
    1STR    C0N13161  12.726   4.507   2.633
    1STR    O0O13162  12.678   4.467   2.761
    1STR    C0P13163  12.762   4.442   2.862
    1STR    O0Q13164  12.885   4.443   2.855
    1STR    N0R13165  12.692   4.414   2.973
    1STR    C0S13166  12.731   4.379   3.102
    1STR    C0T13167  12.628   4.346   3.193
    1STR    C0U13168  12.659   4.304   3.324
    1STR    C0V13169  12.792   4.294   3.368
    1STR    C0W13170  12.818   4.236   3.506
    1STR    C0X13171  12.897   4.335   3.281
    1STR    N0Y13172  13.031   4.330   3.319
    1STR   BCK213173  13.087   4.381   3.429
    1STR    O1013174  13.029   4.450   3.513
    1STR    C1313175  12.865   4.374   3.148
    1STR    C1413176  12.733   4.248   1.269
    1STR    C1513177  12.715   4.239   1.130
    1STR    C1613178  12.809   4.294   1.041
    1STR    C1713179  12.776   4.291   0.892
    1STR    H1B13180  13.044   4.512   1.028
    1STR    H1C13181  13.031   4.412   1.271
    1STR    H1D13182  12.952   4.365   1.496
    1STR    H1E13183  12.655   4.324   1.791
    1STR    H1F13184  12.885   4.134   1.864
    1STR    H1G13185  12.724   4.132   1.934
    1STR    H1H13186  12.746   4.092   1.765
    1STR    H1I13187  12.789   4.502   1.894
    1STR    H1J13188  12.912   4.387   1.943
    1STR    H1K13189  12.866   4.464   2.166
    1STR    H1M13190  12.580   4.571   2.131
    1STR    H1N13191  12.724   4.642   2.059
    1STR    H1O13192  12.702   4.645   2.233
    1STR    H1P13193  12.603   4.361   2.283
    1STR    H1Q13194  12.756   4.276   2.287
    1STR    H1R13195  12.607   4.364   2.525
    1STR    H1S13196  12.775   4.235   2.662
    1STR    H1T13197  12.906   4.303   2.566
    1STR    H1U13198  12.790   4.192   2.493
    1STR    H1V13199  12.668   4.593   2.602
    1STR    H1W13200  12.830   4.542   2.638
    1STR    H1X13201  12.594   4.420   2.954
    1STR    H1Y13202  12.525   4.351   3.164
    1STR    H1Z13203  12.579   4.277   3.391
    1STR    H2013204  12.910   4.179   3.507
    1STR    H2113205  12.825   4.316   3.580
    1STR    H2213206  12.738   4.169   3.536
    1STR    H2313207  13.096   4.289   3.254
    1STR    H2713208  12.946   4.401   3.081
    1STR    H2813209  12.656   4.205   1.330
    1STR    H2913210  12.626   4.192   1.092
    1STR    H2A13211  12.809   4.382   0.843
    1STR    H2B13212  12.669   4.282   0.876
    1STR    H2C13213  12.825   4.205   0.845
    1STR   BCK113214  13.212   4.399   5.265
    1STR    O0313215  13.317   4.462   5.255
    1STR    N0413216  13.181   4.318   5.366
    1STR    C0513217  13.270   4.268   5.460
    1STR    C0613218  13.243   4.280   5.599
    1STR    C0713219  13.330   4.224   5.697
    1STR    N0813220  13.297   4.233   5.833
    1STR    C0913221  13.371   4.204   5.941
    1STR    O0A13222  13.489   4.170   5.938
    1STR    O0B13223  13.300   4.216   6.056
    1STR    C0C13224  13.365   4.190   6.181
    1STR    C0D13225  13.444   4.315   6.224
    1STR    C0E13226  13.263   4.149   6.289
    1STR    O0F13227  13.333   4.118   6.410
    1STR    C0G13228  13.253   4.076   6.520
    1STR    C0H13229  13.215   3.928   6.503
    1STR    C0I13230  13.333   4.098   6.650
    1STR    O0J13231  13.249   4.070   6.762
    1STR    C0K13232  13.311   4.075   6.890
    1STR    C0M13233  13.338   4.221   6.931
    1STR    C0N13234  13.216   4.004   6.989
    1STR    O0O13235  13.280   3.974   7.113
    1STR    C0P13236  13.262   4.051   7.222
    1STR    O0Q13237  13.190   4.150   7.227
    1STR    N0R13238  13.337   4.004   7.322
    1STR    C0S13239  13.367   4.060   7.446
    1STR    C0T13240  13.487   4.020   7.508
    1STR    C0U13241  13.532   4.086   7.624
    1STR    C0V13242  13.459   4.192   7.681
    1STR    C0W13243  13.532   4.277   7.782
    1STR    C0X13244  13.329   4.223   7.630
    1STR    N0Y13245  13.242   4.322   7.676
    1STR   BCK213246  13.209   4.388   7.788
    1STR    O1013247  13.124   4.475   7.779
    1STR    C1313248  13.287   4.157   7.512
    1STR    C1413249  13.446   4.157   5.651
    1STR    C1513250  13.472   4.143   5.514
    1STR    C1613251  13.384   4.195   5.418
    1STR    C1713252  13.413   4.167   5.271
    1STR    H1B13253  13.087   4.283   5.366
    1STR    H1C13254  13.154   4.333   5.630
    1STR    H1D13255  13.206   4.266   5.858
    1STR    H1E13256  13.434   4.107   6.169
    1STR    H1F13257  13.379   4.401   6.238
    1STR    H1G13258  13.498   4.297   6.317
    1STR    H1H13259  13.519   4.341   6.149
    1STR    H1I13260  13.207   4.062   6.254
    1STR    H1J13261  13.191   4.229   6.306
    1STR    H1K13262  13.162   4.138   6.526
    1STR    H1M13263  13.304   3.866   6.492
    1STR    H1N13264  13.152   3.911   6.416
    1STR    H1O13265  13.160   3.892   6.590
    1STR    H1P13266  13.421   4.034   6.650
    1STR    H1Q13267  13.368   4.201   6.653
    1STR    H1R13268  13.405   4.020   6.888
    1STR    H1S13269  13.381   4.227   7.032
    1STR    H1T13270  13.245   4.279   6.933
    1STR    H1U13271  13.407   4.272   6.865
    1STR    H1V13272  13.185   3.909   6.946
    1STR    H1W13273  13.125   4.062   7.004
    1STR    H1X13274  13.387   3.921   7.293
    1STR    H1Y13275  13.549   3.943   7.464
    1STR    H1Z13276  13.629   4.059   7.664
    1STR    H2013277  13.498   4.380   7.778
    1STR    H2113278  13.522   4.238   7.883
    1STR    H2213279  13.639   4.279   7.760
    1STR    H2313280  13.179   4.356   7.605
    1STR    H2713281  13.192   4.184   7.467
    1STR    H2813282  13.516   4.112   5.718
    1STR    H2913283  13.561   4.090   5.483
    1STR    H2A13284  13.321   4.147   5.216
    1STR    H2B13285  13.478   4.081   5.259
    1STR    H2C13286  13.463   4.253   5.225
    1STR   BCK113287  13.159   4.456   9.601
    1STR    O0313288  13.058   4.405   9.553
    1STR    N0413289  13.170   4.507   9.724
    1STR    C0513290  13.075   4.559   9.812
    1STR    C0613291  13.088   4.537   9.953
    1STR    C0713292  13.012   4.609  10.049
    1STR    N0813293  13.032   4.589  10.187
    1STR    C0913294  12.999   4.668  10.291
    1STR    O0A13295  12.946   4.778  10.280
    1STR    O0B13296  13.033   4.613  10.410
    1STR    C0C13297  12.997   4.679  10.533
    1STR    C0D13298  12.852   4.643  10.569
    1STR    C0E13299  13.094   4.642  10.648
    1STR    O0F13300  13.058   4.713  10.767
    1STR    C0G13301  13.141   4.690  10.882
    1STR    C0H13302  13.270   4.772  10.868
    1STR    C0I13303  13.064   4.731  11.009
    1STR    O0J13304  13.142   4.699  11.125
    1STR    C0K13305  13.084   4.734  11.252
    1STR    C0M13306  12.974   4.633  11.289
    1STR    C0N13307  13.197   4.733  11.357
    1STR    O0O13308  13.152   4.781  11.483
    1STR    C0P13309  13.142   4.699  11.589
    1STR    O0Q13310  13.164   4.578  11.588
    1STR    N0R13311  13.104   4.769  11.696
    1STR    C0S13312  13.077   4.731  11.828
    1STR    C0T13313  13.012   4.824  11.911
    1STR    C0U13314  12.977   4.791  12.043
    1STR    C0V13315  13.007   4.664  12.096
    1STR    C0W13316  12.958   4.630  12.236
    1STR    C0X13317  13.078   4.571  12.017
    1STR    N0Y13318  13.108   4.443  12.064
    1STR   BCK213319  13.179   4.409  12.171
    1STR    O1013320  13.237   4.487  12.246
    1STR    C1313321  13.110   4.604  11.883
    1STR    C1413322  12.918   4.703  10.000
    1STR    C1513323  12.902   4.725   9.862
    1STR    C1613324  12.980   4.655   9.768
    1STR    C1713325  12.966   4.694   9.622
    1STR    H1B13326  13.266   4.521   9.751
    1STR    H1C13327  13.161   4.465   9.987
    1STR    H1D13328  13.079   4.505  10.216
    1STR    H1E13329  13.005   4.787  10.519
    1STR    H1F13330  12.840   4.536  10.585
    1STR    H1G13331  12.821   4.694  10.661
    1STR    H1H13332  12.783   4.674  10.490
    1STR    H1I13333  13.196   4.667  10.618
    1STR    H1J13334  13.092   4.534  10.666
    1STR    H1K13335  13.165   4.584  10.890
    1STR    H1M13336  13.248   4.878  10.855
    1STR    H1N13337  13.331   4.740  10.783
    1STR    H1O13338  13.332   4.763  10.957
    1STR    H1P13339  13.041   4.838  11.007
    1STR    H1Q13340  12.969   4.678  11.012
    1STR    H1R13341  13.043   4.835  11.248
    1STR    H1S13342  12.933   4.655  11.388
    1STR    H1T13343  13.014   4.531  11.292
    1STR    H1U13344  12.891   4.635  11.219
    1STR    H1V13345  13.278   4.798  11.324
    1STR    H1W13346  13.242   4.633  11.364
    1STR    H1X13347  13.091   4.866  11.673
    1STR    H1Y13348  12.986   4.922  11.874
    1STR    H1Z13349  12.925   4.864  12.104
    1STR    H2013350  12.931   4.524  12.243
    1STR    H2113351  13.036   4.649  12.309
    1STR    H2213352  12.869   4.687  12.262
    1STR    H2313353  13.079   4.366  12.007
    1STR    H2713354  13.162   4.531  11.823
    1STR    H2813355  12.856   4.761  10.066
    1STR    H2913356  12.832   4.800   9.829
    1STR    H2A13357  13.064   4.711   9.576
    1STR    H2B13358  12.908   4.785   9.609
    1STR    H2C13359  12.915   4.615   9.567
    1STR   BCK113360  13.139   4.312  13.981
    1STR    O0313361  13.212   4.217  13.952
    1STR    N0413362  13.057   4.316  14.087
    1STR    C0513363  13.022   4.212  14.173
    1STR    C0613364  13.024   4.232  14.314
    1STR    C0713365  12.982   4.132  14.406
    1STR    N0813366  12.981   4.158  14.545
    1STR    C0913367  12.952   4.078  14.649
    1STR    O0A13368  12.923   3.959  14.639
    1STR    O0B13369  12.957   4.143  14.767
    1STR    C0C13370  12.934   4.071  14.890
    1STR    C0D13371  13.062   3.997  14.931
    1STR    C0E13372  12.884   4.164  15.003
    1STR    O0F13373  12.861   4.087  15.121
    1STR    C0G13374  12.814   4.160  15.235
    1STR    C0H13375  12.663   4.185  15.221
    1STR    C0I13376  12.844   4.078  15.362
    1STR    O0J13377  12.810   4.155  15.478
    1STR    C0K13378  12.828   4.091  15.604
    1STR    C0M13379  12.977   4.087  15.641
    1STR    C0N13380  12.748   4.173  15.708
    1STR    O0O13381  12.745   4.108  15.835
    1STR    C0P13382  12.819   4.152  15.938
    1STR    O0Q13383  12.900   4.245  15.934
    1STR    N0R13384  12.790   4.079  16.045
    1STR    C0S13385  12.838   4.079  16.176
    1STR    C0T13386  12.777   3.988  16.265
    1STR    C0U13387  12.822   3.975  16.397
    1STR    C0V13388  12.929   4.054  16.444
    1STR    C0W13389  12.983   4.024  16.583
    1STR    C0X13390  12.987   4.151  16.360
    1STR    N0Y13391  13.096   4.228  16.404
    1STR   BCK213392  13.101   4.303  16.514
    1STR    O1013393  13.005   4.336  16.582
    1STR    C1313394  12.943   4.162  16.225
    1STR    C1413395  12.938   4.009  14.352
    1STR    C1513396  12.933   3.988  14.213
    1STR    C1613397  12.972   4.089  14.123
    1STR    C1713398  12.952   4.063  13.975
    1STR    H1B13399  13.014   4.406  14.102
    1STR    H1C13400  13.060   4.327  14.352
    1STR    H1D13401  13.007   4.250  14.575
    1STR    H1E13402  12.855   3.997  14.873
    1STR    H1F13403  13.144   4.067  14.950
    1STR    H1G13404  13.046   3.938  15.021
    1STR    H1H13405  13.095   3.928  14.852
    1STR    H1I13406  12.793   4.214  14.970
    1STR    H1J13407  12.958   4.242  15.022
    1STR    H1K13408  12.867   4.254  15.243
    1STR    H1M13409  12.608   4.092  15.209
    1STR    H1N13410  12.640   4.249  15.136
    1STR    H1O13411  12.624   4.235  15.310
    1STR    H1P13412  12.788   3.984  15.361
    1STR    H1Q13413  12.950   4.052  15.364
    1STR    H1R13414  12.787   3.990  15.601
    1STR    H1S13415  12.992   4.042  15.739
    1STR    H1T13416  13.020   4.187  15.645
    1STR    H1U13417  13.036   4.028  15.570
    1STR    H1V13418  12.645   4.182  15.674
    1STR    H1W13419  12.786   4.275  15.716
    1STR    H1X13420  12.720   4.011  16.022
    1STR    H1Y13421  12.697   3.924  16.232
    1STR    H1Z13422  12.776   3.902  16.462
    1STR    H2013423  13.090   4.006  16.577
    1STR    H2113424  12.964   4.106  16.652
    1STR    H2213425  12.937   3.934  16.626
    1STR    H2313426  13.179   4.228  16.347
    1STR    H2713427  12.989   4.234  16.160
    1STR    H2813428  12.905   3.927  14.413
    1STR    H2913429  12.897   3.893  14.176
    1STR    H2A13430  12.922   4.153  13.922
    1STR    H2B13431  12.875   3.988  13.958
    1STR    H2C13432  13.045   4.026  13.931
    1STR   BCK113433  13.171   8.781   0.900
    1STR    O0313434  13.159   8.902   0.885
    1STR    N0413435  13.224   8.722   1.007
    1STR    C0513436  13.300   8.787   1.104
    1STR    C0613437  13.270   8.772   1.241
    1STR    C0713438  13.349   8.834   1.342
    1STR    N0813439  13.320   8.812   1.477
    1STR    C0913440  13.392   8.843   1.586
    1STR    O0A13441  13.501   8.900   1.585
    1STR    O0B13442  13.331   8.802   1.699
    1STR    C0C13443  13.388   8.838   1.826
    1STR    C0D13444  13.338   8.978   1.866
    1STR    C0E13445  13.356   8.733   1.933
    1STR    O0F13446  13.426   8.771   2.052
    1STR    C0G13447  13.412   8.684   2.163
    1STR    C0H13448  13.506   8.563   2.147
    1STR    C0I13449  13.447   8.765   2.289
    1STR    O0J13450  13.425   8.685   2.404
    1STR    C0K13451  13.458   8.745   2.529
    1STR    C0M13452  13.348   8.845   2.570
    1STR    C0N13453  13.474   8.631   2.630
    1STR    O0O13454  13.528   8.678   2.753
    1STR    C0P13455  13.449   8.699   2.858
    1STR    O0Q13456  13.328   8.680   2.860
    1STR    N0R13457  13.521   8.747   2.959
    1STR    C0S13458  13.482   8.786   3.087
    1STR    C0T13459  13.570   8.869   3.161
    1STR    C0U13460  13.535   8.916   3.289
    1STR    C0V13461  13.412   8.879   3.347
    1STR    C0W13462  13.374   8.936   3.482
    1STR    C0X13463  13.326   8.789   3.278
    1STR    N0Y13464  13.208   8.745   3.335
    1STR   BCK213465  13.195   8.661   3.439
    1STR    O1013466  13.084   8.631   3.481
    1STR    C1313467  13.361   8.746   3.148
    1STR    C1413468  13.457   8.915   1.299
    1STR    C1513469  13.490   8.928   1.163
    1STR    C1613470  13.415   8.862   1.065
    1STR    C1713471  13.462   8.870   0.921
    1STR    H1B13472  13.215   8.622   1.012
    1STR    H1C13473  13.184   8.712   1.269
    1STR    H1D13474  13.235   8.764   1.500
    1STR    H1E13475  13.497   8.841   1.817
    1STR    H1F13476  13.230   8.980   1.878
    1STR    H1G13477  13.383   9.010   1.959
    1STR    H1H13478  13.364   9.051   1.790
    1STR    H1I13479  13.390   8.635   1.899
    1STR    H1J13480  13.249   8.727   1.951
    1STR    H1K13481  13.309   8.650   2.172
    1STR    H1M13482  13.609   8.596   2.133
    1STR    H1N13483  13.479   8.501   2.061
    1STR    H1O13484  13.503   8.499   2.235
    1STR    H1P13485  13.551   8.798   2.284
    1STR    H1Q13486  13.385   8.855   2.292
    1STR    H1R13487  13.554   8.797   2.521
    1STR    H1S13488  13.370   8.889   2.667
    1STR    H1T13489  13.252   8.795   2.578
    1STR    H1U13490  13.338   8.927   2.500
    1STR    H1V13491  13.544   8.557   2.590
    1STR    H1W13492  13.380   8.578   2.644
    1STR    H1X13493  13.618   8.758   2.933
    1STR    H1Y13494  13.664   8.900   3.119
    1STR    H1Z13495  13.602   8.981   3.342
    1STR    H2013496  13.266   8.949   3.490
    1STR    H2113497  13.406   8.869   3.562
    1STR    H2213498  13.419   9.034   3.498
    1STR    H2313499  13.121   8.769   3.291
    1STR    H2713500  13.294   8.679   3.097
    1STR    H2813501  13.520   8.969   1.368
    1STR    H2913502  13.575   8.988   1.135
    1STR    H2A13503  13.445   8.776   0.868
    1STR    H2B13504  13.569   8.891   0.916
    1STR    H2C13505  13.410   8.950   0.868
    1STR   BCK113506  13.087   8.784   5.251
    1STR    O0313507  13.041   8.679   5.209
    1STR    N0413508  13.052   8.845   5.365
    1STR    C0513509  12.944   8.822   5.452
    1STR    C0613510  12.965   8.820   5.593
    1STR    C0713511  12.857   8.813   5.685
    1STR    N0813512  12.881   8.816   5.824
    1STR    C0913513  12.796   8.840   5.926
    1STR    O0A13514  12.677   8.866   5.913
    1STR    O0B13515  12.858   8.834   6.048
    1STR    C0C13516  12.781   8.848   6.169
    1STR    C0D13517  12.718   8.712   6.205
    1STR    C0E13518  12.868   8.901   6.286
    1STR    O0F13519  12.788   8.916   6.405
    1STR    C0G13520  12.856   8.968   6.520
    1STR    C0H13521  12.869   9.121   6.506
    1STR    C0I13522  12.777   8.931   6.648
    1STR    O0J13523  12.849   8.973   6.764
    1STR    C0K13524  12.788   8.947   6.891
    1STR    C0M13525  12.799   8.798   6.926
    1STR    C0N13526  12.860   9.034   6.997
    1STR    O0O13527  12.797   9.025   7.125
    1STR    C0P13528  12.857   8.963   7.228
    1STR    O0Q13529  12.964   8.903   7.223
    1STR    N0R13530  12.782   8.977   7.338
    1STR    C0S13531  12.796   8.929   7.469
    1STR    C0T13532  12.689   8.952   7.558
    1STR    C0U13533  12.693   8.902   7.689
    1STR    C0V13534  12.803   8.827   7.735
    1STR    C0W13535  12.794   8.765   7.874
    1STR    C0X13536  12.914   8.807   7.650
    1STR    N0Y13537  13.025   8.732   7.689
    1STR   BCK213538  13.099   8.739   7.800
    1STR    O1013539  13.085   8.825   7.887
    1STR    C1313540  12.909   8.857   7.517
    1STR    C1413541  12.726   8.804   5.632
    1STR    C1513542  12.704   8.807   5.493
    1STR    C1613543  12.811   8.818   5.402
    1STR    C1713544  12.778   8.832   5.255
    1STR    H1B13545  13.112   8.923   5.389
    1STR    H1C13546  13.066   8.826   5.630
    1STR    H1D13547  12.975   8.801   5.856
    1STR    H1E13548  12.701   8.920   6.153
    1STR    H1F13549  12.794   8.636   6.223
    1STR    H1G13550  12.657   8.720   6.294
    1STR    H1H13551  12.654   8.676   6.124
    1STR    H1I13552  12.910   8.997   6.257
    1STR    H1J13553  12.951   8.834   6.305
    1STR    H1K13554  12.955   8.923   6.528
    1STR    H1M13555  12.771   9.168   6.493
    1STR    H1N13556  12.931   9.150   6.422
    1STR    H1O13557  12.914   9.164   6.596
    1STR    H1P13558  12.678   8.978   6.645
    1STR    H1Q13559  12.761   8.824   6.650
    1STR    H1R13560  12.683   8.978   6.888
    1STR    H1S13561  12.757   8.778   7.025
    1STR    H1T13562  12.903   8.766   6.928
    1STR    H1U13563  12.745   8.735   6.856
    1STR    H1V13564  12.857   9.138   6.966
    1STR    H1W13565  12.966   9.008   7.002
    1STR    H1X13566  12.699   9.030   7.318
    1STR    H1Y13567  12.602   9.007   7.527
    1STR    H1Z13568  12.608   8.918   7.754
    1STR    H2013569  12.847   8.670   7.878
    1STR    H2113570  12.838   8.832   7.948
    1STR    H2213571  12.691   8.746   7.903
    1STR    H2313572  13.059   8.664   7.622
    1STR    H2713573  12.993   8.840   7.452
    1STR    H2813574  12.639   8.797   5.695
    1STR    H2913575  12.602   8.803   5.456
    1STR    H2A13576  12.844   8.905   5.207
    1STR    H2B13577  12.676   8.866   5.240
    1STR    H2C13578  12.790   8.736   5.204
    1STR   BCK113579  13.211   8.712   9.625
    1STR    O0313580  13.333   8.708   9.614
    1STR    N0413581  13.141   8.657   9.725
    1STR    C0513582  13.189   8.563   9.816
    1STR    C0613583  13.173   8.583   9.956
    1STR    C0713584  13.215   8.486  10.051
    1STR    N0813585  13.193   8.507  10.188
    1STR    C0913586  13.239   8.439  10.294
    1STR    O0A13587  13.320   8.346  10.288
    1STR    O0B13588  13.187   8.485  10.410
    1STR    C0C13589  13.228   8.425  10.534
    1STR    C0D13590  13.362   8.485  10.578
    1STR    C0E13591  13.120   8.444  10.642
    1STR    O0F13592  13.163   8.379  10.762
    1STR    C0G13593  13.074   8.388  10.873
    1STR    C0H13594  12.962   8.284  10.858
    1STR    C0I13595  13.156   8.365  11.001
    1STR    O0J13596  13.073   8.390  11.114
    1STR    C0K13597  13.132   8.365  11.241
    1STR    C0M13598  13.232   8.475  11.278
    1STR    C0N13599  13.018   8.357  11.345
    1STR    O0O13600  13.069   8.306  11.467
    1STR    C0P13601  13.083   8.384  11.576
    1STR    O0Q13602  13.049   8.501  11.586
    1STR    N0R13603  13.139   8.310  11.670
    1STR    C0S13604  13.175   8.334  11.803
    1STR    C0T13605  13.236   8.226  11.869
    1STR    C0U13606  13.267   8.234  12.005
    1STR    C0V13607  13.238   8.349  12.079
    1STR    C0W13608  13.260   8.341  12.228
    1STR    C0X13609  13.182   8.463  12.014
    1STR    N0Y13610  13.139   8.577  12.085
    1STR   BCK213611  13.192   8.654  12.181
    1STR    O1013612  13.121   8.737  12.236
    1STR    C1313613  13.149   8.453  11.876
    1STR    C1413614  13.274   8.367  10.001
    1STR    C1513615  13.289   8.346   9.863
    1STR    C1613616  13.245   8.441   9.770
    1STR    C1713617  13.255   8.407   9.622
    1STR    H1B13618  13.044   8.680   9.727
    1STR    H1C13619  13.128   8.675   9.990
    1STR    H1D13620  13.134   8.584  10.215
    1STR    H1E13621  13.240   8.318  10.519
    1STR    H1F13622  13.355   8.593  10.595
    1STR    H1G13623  13.397   8.439  10.670
    1STR    H1H13624  13.439   8.469  10.502
    1STR    H1I13625  13.026   8.401  10.607
    1STR    H1J13626  13.102   8.550  10.660
    1STR    H1K13627  13.031   8.489  10.878
    1STR    H1M13628  13.004   8.183  10.848
    1STR    H1N13629  12.899   8.303  10.772
    1STR    H1O13630  12.898   8.284  10.946
    1STR    H1P13631  13.195   8.263  11.003
    1STR    H1Q13632  13.242   8.432  11.001
    1STR    H1R13633  13.183   8.268  11.239
    1STR    H1S13634  13.275   8.458  11.377
    1STR    H1T13635  13.183   8.573  11.281
    1STR    H1U13636  13.315   8.481  11.208
    1STR    H1V13637  12.942   8.287  11.310
    1STR    H1W13638  12.968   8.453  11.356
    1STR    H1X13639  13.157   8.218  11.634
    1STR    H1Y13640  13.257   8.133  11.817
    1STR    H1Z13641  13.311   8.148  12.054
    1STR    H2013642  13.362   8.369  12.250
    1STR    H2113643  13.190   8.404  12.282
    1STR    H2213644  13.245   8.239  12.264
    1STR    H2313645  13.048   8.612  12.060
    1STR    H2713646  13.103   8.536  11.826
    1STR    H2813647  13.308   8.288  10.066
    1STR    H2913648  13.334   8.253   9.829
    1STR    H2A13649  13.167   8.442   9.568
    1STR    H2B13650  13.262   8.300   9.607
    1STR    H2C13651  13.343   8.454   9.579
    1STR   BCK113652  13.160   8.786  13.960
    1STR    O0313653  13.064   8.843  13.908
    1STR    N0413654  13.207   8.808  14.083
    1STR    C0513655  13.178   8.911  14.174
    1STR    C0613656  13.173   8.881  14.313
    1STR    C0713657  13.156   8.982  14.411
    1STR    N0813658  13.159   8.949  14.548
    1STR    C0913659  13.177   9.030  14.654
    1STR    O0A13660  13.197   9.151  14.648
    1STR    O0B13661  13.173   8.961  14.771
    1STR    C0C13662  13.179   9.033  14.896
    1STR    C0D13663  13.037   9.081  14.933
    1STR    C0E13664  13.241   8.948  15.008
    1STR    O0F13665  13.250   9.028  15.126
    1STR    C0G13666  13.309   8.965  15.240
    1STR    C0H13667  13.462   8.965  15.225
    1STR    C0I13668  13.266   9.043  15.366
    1STR    O0J13669  13.317   8.977  15.482
    1STR    C0K13670  13.288   9.040  15.607
    1STR    C0M13671  13.143   9.009  15.648
    1STR    C0N13672  13.389   8.984  15.710
    1STR    O0O13673  13.380   9.051  15.835
    1STR    C0P13674  13.322   8.991  15.940
    1STR    O0Q13675  13.266   8.882  15.937
    1STR    N0R13676  13.333   9.068  16.049
    1STR    C0S13677  13.289   9.049  16.180
    1STR    C0T13678  13.294   9.159  16.269
    1STR    C0U13679  13.246   9.147  16.400
    1STR    C0V13680  13.192   9.026  16.447
    1STR    C0W13681  13.131   9.021  16.586
    1STR    C0X13682  13.190   8.913  16.361
    1STR    N0Y13683  13.132   8.792  16.397
    1STR   BCK213684  13.161   8.704  16.493
    1STR    O1013685  13.096   8.601  16.502
    1STR    C1313686  13.238   8.926  16.229
    1STR    C1413687  13.136   9.114  14.366
    1STR    C1513688  13.143   9.146  14.230
    1STR    C1613689  13.167   9.047  14.133
    1STR    C1713690  13.189   9.094  13.990
    1STR    H1B13691  13.277   8.742  14.111
    1STR    H1C13692  13.185   8.778  14.344
    1STR    H1D13693  13.149   8.853  14.574
    1STR    H1E13694  13.243   9.121  14.884
    1STR    H1F13695  12.970   8.997  14.948
    1STR    H1G13696  13.039   9.139  15.025
    1STR    H1H13697  12.995   9.144  14.855
    1STR    H1I13698  13.340   8.915  14.976
    1STR    H1J13699  13.181   8.859  15.026
    1STR    H1K13700  13.273   8.863  15.250
    1STR    H1M13701  13.501   9.066  15.212
    1STR    H1N13702  13.496   8.905  15.141
    1STR    H1O13703  13.510   8.924  15.314
    1STR    H1P13704  13.302   9.146  15.361
    1STR    H1Q13705  13.157   9.048  15.369
    1STR    H1R13706  13.303   9.148  15.600
    1STR    H1S13707  13.120   9.052  15.746
    1STR    H1T13708  13.126   8.902  15.655
    1STR    H1U13709  13.070   9.050  15.578
    1STR    H1V13710  13.490   8.999  15.672
    1STR    H1W13711  13.377   8.876  15.720
    1STR    H1X13712  13.381   9.154  16.027
    1STR    H1Y13713  13.332   9.254  16.236
    1STR    H1Z13714  13.248   9.233  16.465
    1STR    H2013715  13.048   8.950  16.591
    1STR    H2113716  13.206   8.992  16.660
    1STR    H2213717  13.091   9.119  16.615
    1STR    H2313718  13.060   8.757  16.336
    1STR    H2713719  13.235   8.839  16.165
    1STR    H2813720  13.118   9.196  14.434
    1STR    H2913721  13.133   9.249  14.200
    1STR    H2A13722  13.262   9.032  13.939
    1STR    H2B13723  13.225   9.196  13.987
    1STR    H2C13724  13.095   9.090  13.935
    1STR   BCK113725  13.093  13.061   0.900
    1STR    O0313726  13.118  12.947   0.863
    1STR    N0413727  13.021  13.093   1.009
    1STR    C0513728  12.947  13.010   1.094
    1STR    C0613729  12.958  13.024   1.235
    1STR    C0713730  12.877  12.950   1.326
    1STR    N0813731  12.889  12.971   1.465
    1STR    C0913732  12.818  12.919   1.567
    1STR    O0A13733  12.727  12.838   1.556
    1STR    O0B13734  12.859  12.968   1.688
    1STR    C0C13735  12.800  12.918   1.809
    1STR    C0D13736  12.869  12.786   1.847
    1STR    C0E13737  12.809  13.021   1.924
    1STR    O0F13738  12.748  12.968   2.043
    1STR    C0G13739  12.747  13.053   2.157
    1STR    C0H13740  12.634  13.156   2.143
    1STR    C0I13741  12.729  12.968   2.284
    1STR    O0J13742  12.740  13.051   2.401
    1STR    C0K13743  12.722  12.986   2.527
    1STR    C0M13744  12.847  12.904   2.563
    1STR    C0N13745  12.698  13.097   2.632
    1STR    O0O13746  12.665  13.043   2.760
    1STR    C0P13747  12.753  13.045   2.861
    1STR    O0Q13748  12.868  13.086   2.854
    1STR    N0R13749  12.694  12.996   2.971
    1STR    C0S13750  12.741  12.975   3.101
    1STR    C0T13751  12.649  12.917   3.192
    1STR    C0U13752  12.689  12.886   3.323
    1STR    C0V13753  12.820  12.911   3.367
    1STR    C0W13754  12.860  12.862   3.506
    1STR    C0X13755  12.911  12.976   3.280
    1STR    N0Y13756  13.043  13.003   3.320
    1STR   BCK213757  13.084  13.066   3.430
    1STR    O1013758  13.011  13.126   3.508
    1STR    C1313759  12.872  13.005   3.147
    1STR    C1413760  12.786  12.858   1.270
    1STR    C1513761  12.772  12.844   1.131
    1STR    C1613762  12.849  12.920   1.042
    1STR    C1713763  12.820  12.908   0.894
    1STR    H1B13764  13.022  13.191   1.030
    1STR    H1C13765  13.030  13.094   1.274
    1STR    H1D13766  12.959  13.035   1.497
    1STR    H1E13767  12.694  12.899   1.792
    1STR    H1F13768  12.975  12.800   1.867
    1STR    H1G13769  12.824  12.743   1.937
    1STR    H1H13770  12.859  12.712   1.768
    1STR    H1I13771  12.759  13.113   1.893
    1STR    H1J13772  12.913  13.047   1.944
    1STR    H1K13773  12.843  13.105   2.166
    1STR    H1M13774  12.537  13.107   2.130
    1STR    H1N13775  12.649  13.223   2.059
    1STR    H1O13776  12.627  13.218   2.233
    1STR    H1P13777  12.631  12.918   2.282
    1STR    H1Q13778  12.804  12.890   2.286
    1STR    H1R13779  12.634  12.922   2.524
    1STR    H1S13780  12.836  12.858   2.661
    1STR    H1T13781  12.936  12.967   2.566
    1STR    H1U13782  12.865  12.823   2.492
    1STR    H1V13783  12.613  13.158   2.600
    1STR    H1W13784  12.783  13.165   2.638
    1STR    H1X13785  12.599  12.971   2.951
    1STR    H1Y13786  12.548  12.894   3.162
    1STR    H1Z13787  12.618  12.839   3.390
    1STR    H2013788  12.959  12.819   3.503
    1STR    H2113789  12.859  12.944   3.578
    1STR    H2213790  12.792  12.786   3.542
    1STR    H2313791  13.116  12.975   3.257
    1STR    H2713792  12.943  13.051   3.080
    1STR    H2813793  12.722  12.796   1.331
    1STR    H2913794  12.699  12.774   1.093
    1STR    H2A13795  12.831  13.004   0.843
    1STR    H2B13796  12.718  12.873   0.876
    1STR    H2C13797  12.888  12.836   0.848
    1STR   BCK113798  13.198  13.139   5.263
    1STR    O0313799  13.270  13.238   5.253
    1STR    N0413800  13.198  13.054   5.365
    1STR    C0513801  13.299  13.045   5.461
    1STR    C0613802  13.267  13.048   5.599
    1STR    C0713803  13.368  13.034   5.699
    1STR    N0813804  13.332  13.032   5.835
    1STR    C0913805  13.410  13.030   5.944
    1STR    O0A13806  13.532  13.037   5.943
    1STR    O0B13807  13.337  13.019   6.057
    1STR    C0C13808  13.404  13.018   6.183
    1STR    C0D13809  13.436  13.162   6.226
    1STR    C0E13810  13.322  12.944   6.290
    1STR    O0F13811  13.400  12.938   6.409
    1STR    C0G13812  13.341  12.871   6.520
    1STR    C0H13813  13.356  12.719   6.503
    1STR    C0I13814  13.412  12.920   6.647
    1STR    O0J13815  13.347  12.864   6.761
    1STR    C0K13816  13.407  12.893   6.887
    1STR    C0M13817  13.372  13.037   6.930
    1STR    C0N13818  13.352  12.789   6.987
    1STR    O0O13819  13.421  12.795   7.111
    1STR    C0P13820  13.368  12.857   7.216
    1STR    O0Q13821  13.257  12.911   7.219
    1STR    N0R13822  13.456  12.856   7.316
    1STR    C0S13823  13.449  12.916   7.442
    1STR    C0T13824  13.572  12.947   7.504
    1STR    C0U13825  13.575  13.015   7.627
    1STR    C0V13826  13.455  13.050   7.692
    1STR    C0W13827  13.465  13.137   7.816
    1STR    C0X13828  13.331  13.009   7.637
    1STR    N0Y13829  13.211  13.042   7.701
    1STR   BCK213830  13.161  12.995   7.816
    1STR    O1013831  13.069  13.054   7.871
    1STR    C1313832  13.329  12.946   7.510
    1STR    C1413833  13.501  13.019   5.655
    1STR    C1513834  13.533  13.014   5.518
    1STR    C1613835  13.433  13.023   5.421
    1STR    C1713836  13.473  13.005   5.275
    1STR    H1B13837  13.125  12.985   5.365
    1STR    H1C13838  13.164  13.062   5.628
    1STR    H1D13839  13.234  13.033   5.858
    1STR    H1E13840  13.498  12.962   6.173
    1STR    H1F13841  13.345  13.221   6.239
    1STR    H1G13842  13.492  13.163   6.320
    1STR    H1H13843  13.498  13.212   6.151
    1STR    H1I13844  13.299  12.843   6.255
    1STR    H1J13845  13.228  12.995   6.308
    1STR    H1K13846  13.235  12.898   6.528
    1STR    H1M13847  13.460  12.691   6.491
    1STR    H1N13848  13.301  12.682   6.417
    1STR    H1O13849  13.318  12.667   6.590
    1STR    H1P13850  13.518  12.892   6.644
    1STR    H1Q13851  13.408  13.029   6.651
    1STR    H1R13852  13.515  12.881   6.881
    1STR    H1S13853  13.414  13.060   7.028
    1STR    H1T13854  13.264  13.051   6.936
    1STR    H1U13855  13.412  13.111   6.861
    1STR    H1V13856  13.366  12.689   6.946
    1STR    H1W13857  13.244  12.800   7.000
    1STR    H1X13858  13.540  12.808   7.290
    1STR    H1Y13859  13.666  12.924   7.456
    1STR    H1Z13860  13.670  13.044   7.669
    1STR    H2013861  13.370  13.184   7.842
    1STR    H2113862  13.500  13.077   7.900
    1STR    H2213863  13.537  13.217   7.801
    1STR    H2313864  13.152  13.111   7.658
    1STR    H2713865  13.234  12.920   7.466
    1STR    H2813866  13.584  13.009   5.723
    1STR    H2913867  13.636  13.000   5.489
    1STR    H2A13868  13.397  12.949   5.221
    1STR    H2B13869  13.566  12.950   5.267
    1STR    H2C13870  13.486  13.102   5.227
    1STR   BCK113871  13.130  13.177   9.604
    1STR    O0313872  13.045  13.100   9.559
    1STR    N0413873  13.124  13.238   9.723
    1STR    C0513874  13.017  13.260   9.811
    1STR    C0613875  13.036  13.244   9.951
    1STR    C0713876  12.938  13.286  10.046
    1STR    N0813877  12.961  13.274  10.185
    1STR    C0913878  12.902  13.338  10.288
    1STR    O0A13879  12.815  13.423  10.276
    1STR    O0B13880  12.952  13.298  10.408
    1STR    C0C13881  12.895  13.350  10.531
    1STR    C0D13882  12.769  13.268  10.566
    1STR    C0E13883  12.997  13.348  10.647
    1STR    O0F13884  12.938  13.403  10.766
    1STR    C0G13885  13.024  13.411  10.881
    1STR    C0H13886  13.117  13.532  10.867
    1STR    C0I13887  12.937  13.422  11.009
    1STR    O0J13888  13.021  13.419  11.125
    1STR    C0K13889  12.956  13.431  11.252
    1STR    C0M13890  12.886  13.299  11.288
    1STR    C0N13891  13.063  13.467  11.357
    1STR    O0O13892  13.004  13.494  11.485
    1STR    C0P13893  13.024  13.412  11.590
    1STR    O0Q13894  13.085  13.306  11.586
    1STR    N0R13895  12.966  13.464  11.698
    1STR    C0S13896  12.954  13.418  11.830
    1STR    C0T13897  12.869  13.489  11.916
    1STR    C0U13898  12.847  13.446  12.048
    1STR    C0V13899  12.911  13.332  12.098
    1STR    C0W13900  12.875  13.283  12.238
    1STR    C0X13901  13.002  13.261  12.016
    1STR    N0Y13902  13.064  13.144  12.059
    1STR   BCK213903  13.140  13.124  12.167
    1STR    O1013904  13.180  13.212  12.243
    1STR    C1313905  13.021  13.304  11.882
    1STR    C1413906  12.817  13.340   9.995
    1STR    C1513907  12.797  13.356   9.857
    1STR    C1613908  12.896  13.318   9.765
    1STR    C1713909  12.872  13.350   9.618
    1STR    H1B13910  13.211  13.282   9.748
    1STR    H1C13911  13.128  13.202   9.987
    1STR    H1D13912  13.033  13.211  10.215
    1STR    H1E13913  12.865  13.454  10.515
    1STR    H1F13914  12.794  13.163  10.584
    1STR    H1G13915  12.722  13.306  10.657
    1STR    H1H13916  12.695  13.273  10.487
    1STR    H1I13917  13.084  13.407  10.617
    1STR    H1J13918  13.032  13.246  10.665
    1STR    H1K13919  13.083  13.319  10.889
    1STR    H1M13920  13.060  13.624  10.854
    1STR    H1N13921  13.185  13.523  10.782
    1STR    H1O13922  13.178  13.544  10.956
    1STR    H1P13923  12.879  13.514  11.006
    1STR    H1Q13924  12.866  13.340  11.011
    1STR    H1R13925  12.883  13.512  11.248
    1STR    H1S13926  12.840  13.305  11.387
    1STR    H1T13927  12.957  13.216  11.290
    1STR    H1U13928  12.807  13.273  11.218
    1STR    H1V13929  13.116  13.557  11.326
    1STR    H1W13930  13.139  13.389  11.363
    1STR    H1X13931  12.922  13.552  11.676
    1STR    H1Y13932  12.816  13.577  11.882
    1STR    H1Z13933  12.778  13.501  12.111
    1STR    H2013934  12.875  13.174  12.243
    1STR    H2113935  12.948  13.320  12.310
    1STR    H2213936  12.776  13.317  12.268
    1STR    H2313937  13.053  13.063  12.001
    1STR    H2713938  13.089  13.248  11.819
    1STR    H2813939  12.738  13.373  10.061
    1STR    H2913940  12.705  13.401   9.823
    1STR    H2A13941  12.962  13.390   9.572
    1STR    H2B13942  12.793  13.424   9.605
    1STR    H2C13943  12.843  13.259   9.565
    1STR   BCK113944  13.174  13.036  13.984
    1STR    O0313945  13.274  12.968  13.965
    1STR    N0413946  13.089  13.018  14.086
    1STR    C0513947  13.084  12.910  14.175
    1STR    C0613948  13.080  12.932  14.315
    1STR    C0713949  13.068  12.825  14.407
    1STR    N0813950  13.059  12.851  14.546
    1STR    C0913951  13.060  12.766  14.650
    1STR    O0A13952  13.076  12.644  14.642
    1STR    O0B13953  13.041  12.830  14.768
    1STR    C0C13954  13.044  12.756  14.891
    1STR    C0D13955  13.190  12.732  14.933
    1STR    C0E13956  12.964  12.827  15.001
    1STR    O0F13957  12.967  12.747  15.120
    1STR    C0G13958  12.898  12.801  15.233
    1STR    C0H13959  12.747  12.773  15.219
    1STR    C0I13960  12.954  12.735  15.360
    1STR    O0J13961  12.896  12.796  15.475
    1STR    C0K13962  12.936  12.742  15.601
    1STR    C0M13963  13.077  12.789  15.638
    1STR    C0N13964  12.833  12.790  15.706
    1STR    O0O13965  12.857  12.727  15.831
    1STR    C0P13966  12.907  12.794  15.935
    1STR    O0Q13967  12.936  12.913  15.937
    1STR    N0R13968  12.920  12.709  16.037
    1STR    C0S13969  12.963  12.723  16.169
    1STR    C0T13970  12.958  12.606  16.247
    1STR    C0U13971  12.994  12.608  16.382
    1STR    C0V13972  13.035  12.728  16.443
    1STR    C0W13973  13.061  12.721  16.592
    1STR    C0X13974  13.044  12.848  16.367
    1STR    N0Y13975  13.066  12.971  16.429
    1STR   BCK213976  13.155  13.014  16.519
    1STR    O1013977  13.131  13.114  16.586
    1STR    C1313978  13.008  12.843  16.230
    1STR    C1413979  13.062  12.694  14.355
    1STR    C1513980  13.064  12.671  14.216
    1STR    C1613981  13.073  12.777  14.126
    1STR    C1713982  13.064  12.746  13.977
    1STR    H1B13983  13.019  13.090  14.095
    1STR    H1C13984  13.086  13.033  14.351
    1STR    H1D13985  13.051  12.946  14.575
    1STR    H1E13986  12.996  12.659  14.874
    1STR    H1F13987  13.242  12.826  14.952
    1STR    H1G13988  13.194  12.672  15.024
    1STR    H1H13989  13.245  12.677  14.856
    1STR    H1I13990  12.861  12.843  14.968
    1STR    H1J13991  13.007  12.926  15.021
    1STR    H1K13992  12.916  12.908  15.241
    1STR    H1M13993  12.728  12.667  15.207
    1STR    H1N13994  12.704  12.825  15.133
    1STR    H1O13995  12.693  12.807  15.307
    1STR    H1P13996  12.934  12.627  15.359
    1STR    H1Q13997  13.063  12.747  15.361
    1STR    H1R13998  12.932  12.633  15.598
    1STR    H1S13999  13.107  12.751  15.736
    1STR    H1T14000  13.082  12.898  15.643
    1STR    H1U14001  13.152  12.755  15.567
    1STR    H1V14002  12.732  12.763  15.673
    1STR    H1W14003  12.833  12.899  15.714
    1STR    H1X14004  12.889  12.618  16.008
    1STR    H1Y14005  12.923  12.512  16.205
    1STR    H1Z14006  12.986  12.518  16.440
    1STR    H2014007  13.165  12.694  16.608
    1STR    H2114008  13.040  12.816  16.642
    1STR    H2214009  13.000  12.646  16.641
    1STR    H2314010  12.999  13.043  16.407
    1STR    H2714011  13.012  12.934  16.171
    1STR    H2814012  13.053  12.606  14.417
    1STR    H2914013  13.057  12.569  14.180
    1STR    H2A14014  13.007  12.822  13.924
    1STR    H2B14015  13.014  12.650  13.960
    1STR    H2C14016  13.164  12.740  13.934
    1HEX    C0114017   0.299  17.326  16.761
    1HEX    C0214018   0.218  17.410  16.862
    1HEX    C0314019   0.079  17.355  16.891
    1HEX    O0414020   0.052  17.235  16.876
    1HEX    O0514021  17.437   0.008  16.941
    1HEX    C0614022  17.301  17.415  16.970
    1HEX    C0714023  17.274  17.391  17.121
    1HEX    C0814024  17.259   0.089  17.195
    1HEX    O0914025  17.218   0.216  17.139
    1HEX    C0A14026  17.227   0.325  17.225
    1HEX    O0B14027  17.242   0.313  17.347
    1HEX    C0C14028  17.221   0.467  17.164
    1HEX    C0D14029  17.267   0.578  17.266
    1HEX    C0F14030  17.144  17.302  17.130
    1HEX    O0G14031  17.179  17.161  17.126
    1HEX    C0H14032  17.153  17.081  17.020
    1HEX    O0I14033  17.077  17.111  16.928
    1HEX    C0J14034  17.236  16.951  17.015
    1HEX    C0K14035  17.231  16.856  17.139
    1HEX    C0N14036  17.387  17.303  17.189
    1HEX    O0O14037   0.073  17.360  17.231
    1HEX    C0P14038   0.096  17.430  17.355
    1HEX    C0Q14039   0.043  17.379   0.054
    1HEX    C0R14040   0.098  17.235   0.080
    1HEX    O0S14041   0.239  17.222   0.053
    1HEX    C0T14042   0.334  17.228   0.151
    1HEX    O0U14043   0.311  17.254   0.269
    1HEX    C0V14044   0.477  17.194   0.105
    1HEX    C0W14045   0.568  17.314   0.068
    1HEX    C0Y14046   0.104   0.034   0.161
    1HEX    O0Z14047   0.063  17.439   0.293
    1HEX    C1014048   0.125   0.059   0.396
    1HEX    O1114049   0.215   0.142   0.387
    1HEX    C1214050   0.067   0.016   0.531
    1HEX    C1314051   0.158   0.051   0.652
    1HEX    C1514052  17.327  17.399   0.058
    1HEX    O1614053  17.240  17.357   0.165
    1HEX    C1714054  17.127  17.289   0.130
    1HEX    O1814055  17.123  17.201   0.044
    1HEX    C1914056  16.996  17.336   0.197
    1HEX    C1A14057  16.898  17.394   0.090
    1HEX    H1D14058   0.405  17.338  16.782
    1HEX    H1E14059   0.279  17.220  16.779
    1HEX    H1F14060   0.210   0.074  16.830
    1HEX    H1G14061   0.268  17.409  16.959
    1HEX    H1H14062  17.271  17.328  16.910
    1HEX    H1I14063  17.239   0.056  16.932
    1HEX    H1J14064  17.359   0.116  17.222
    1HEX    H1K14065  17.201   0.076  17.286
    1HEX    H1M14066  17.120   0.486  17.129
    1HEX    H1N14067  17.286   0.469  17.076
    1HEX    H1O14068  17.372   0.563  17.291
    1HEX    H1P14069  17.214   0.565  17.360
    1HEX    H1R14070  17.071  17.328  17.053
    1HEX    H1S14071  17.092  17.318  17.224
    1HEX    H1T14072  17.339  16.982  16.996
    1HEX    H1U14073  17.205  16.896  16.926
    1HEX    H1V14074  17.135  16.803  17.141
    1HEX    H1W14075  17.237  16.912  17.232
    1HEX    H1Y14076  17.416  17.229  17.115
    1HEX    H1Z14077  17.350  17.237  17.267
    1HEX    H2014078   0.076   0.096  17.345
    1HEX    H2114079   0.205  17.430  17.361
    1HEX    H2214080   0.045  17.165   0.015
    1HEX    H2314081   0.075  17.204   0.182
    1HEX    H2414082   0.471  17.123   0.022
    1HEX    H2514083   0.522  17.139   0.188
    1HEX    H2614084   0.518  17.408   0.092
    1HEX    H2714085   0.586  17.316  17.401
    1HEX    H2914086   0.075   0.138   0.143
    1HEX    H2A14087   0.213   0.032   0.156
    1HEX    H2B14088   0.047  17.349   0.529
    1HEX    H2C14089  17.411   0.067   0.539
    1HEX    H2D14090   0.219   0.138   0.630
    1HEX    H2E14091   0.228  17.410   0.672
    1HEX    H2G14092  17.284  17.361  17.408
    1HEX    H2H14093  17.308   0.067   0.050
    1HEX    H2I14094  17.017  17.408   0.276
    1HEX    H2J14095  16.951  17.249   0.244
    1HEX    H2K14096  16.909  17.338  17.438
    1HEX    H2M14097  16.926   0.057   0.066
    1STR    S0014098   0.277  17.361  16.582
    1STR    S0E14099  17.242   0.756  17.219
    1STR    S0M14100  17.368  16.730  17.136
    1STR    S0X14101   0.731  17.313   0.156
    1STR    S1414102   0.060   0.092   0.801
    1STR    S1B14103  16.718  17.393   0.130
    1HEX    C0114104   0.223  17.302   3.608
    1HEX    C0214105   0.211  17.354   3.753
    1HEX    C0314106   0.070  17.336   3.805
    1HEX    O0414107   0.015  17.226   3.800
    1HEX    O0514108   0.016   0.010   3.853
    1HEX    C0614109  17.315   0.016   3.876
    1HEX    C0714110  17.272  17.436   4.024
    1HEX    C0814111  17.292   0.130   4.106
    1HEX    O0914112  17.240   0.263   4.081
    1HEX    C0A14113  17.266   0.359   4.181
    1HEX    O0B14114  17.298   0.328   4.295
    1HEX    C0C14115  17.258   0.510   4.144
    1HEX    C0D14116  17.318   0.605   4.257
    1HEX    C0F14117  17.125  17.383   4.022
    1HEX    O0G14118  17.123  17.239   4.006
    1HEX    C0H14119  17.090  17.178   3.889
    1HEX    O0I14120  17.034  17.234   3.795
    1HEX    C0J14121  17.134  17.031   3.878
    1HEX    C0K14122  17.111  16.944   4.004
    1HEX    C0N14123  17.357  17.322   4.094
    1HEX    O0O14124   0.054  17.342   4.136
    1HEX    C0P14125   0.099  17.420   4.249
    1HEX    C0Q14126   0.066  17.378   4.396
    1HEX    C0R14127   0.131  17.238   4.423
    1HEX    O0S14128   0.272  17.232   4.388
    1HEX    C0T14129   0.372  17.244   4.482
    1HEX    O0U14130   0.354  17.267   4.601
    1HEX    C0V14131   0.514  17.220   4.427
    1HEX    C0W14132   0.606  17.346   4.419
    1HEX    C0Y14133   0.133   0.040   4.491
    1HEX    O0Z14134   0.089   0.005   4.621
    1HEX    C1014135   0.139   0.063   4.728
    1HEX    O1114136   0.228   0.148   4.732
    1HEX    C1214137   0.066   0.012   4.852
    1HEX    C1314138   0.134   0.053   4.982
    1HEX    C1514139  17.351  17.392   4.419
    1HEX    O1614140  17.282  17.340   4.534
    1HEX    C1714141  17.162  17.280   4.512
    1HEX    O1814142  17.137  17.205   4.418
    1HEX    C1914143  17.051  17.320   4.610
    1HEX    C1A14144  16.936  17.398   4.538
    1HEX    H1D14145   0.323  17.264   3.588
    1HEX    H1E14146   0.156  17.217   3.593
    1HEX    H1F14147   0.242   0.018   3.761
    1HEX    H1G14148   0.275  17.295   3.818
    1HEX    H1H14149  17.266  17.383   3.811
    1HEX    H1I14150  17.280   0.112   3.840
    1HEX    H1J14151  17.397   0.151   4.096
    1HEX    H1K14152  17.269   0.106   4.210
    1HEX    H1M14153  17.154   0.535   4.123
    1HEX    H1N14154  17.313   0.525   4.051
    1HEX    H1O14155  17.424   0.584   4.268
    1HEX    H1P14156  17.274   0.576   4.352
    1HEX    H1R14157  17.065  17.433   3.946
    1HEX    H1S14158  17.074  17.405   4.116
    1HEX    H1T14159  17.239  17.029   3.850
    1HEX    H1U14160  17.079  16.988   3.794
    1HEX    H1V14161  17.011  16.965   4.045
    1HEX    H1W14162  17.181  16.971   4.083
    1HEX    H1Y14163  17.366  17.242   4.021
    1HEX    H1Z14164  17.300  17.264   4.167
    1HEX    H2014165   0.079   0.086   4.239
    1HEX    H2114166   0.207  17.417   4.238
    1HEX    H2214167   0.079  17.162   4.363
    1HEX    H2314168   0.116  17.208   4.527
    1HEX    H2414169   0.507  17.170   4.331
    1HEX    H2514170   0.560  17.148   4.495
    1HEX    H2614171   0.606  17.399   4.515
    1HEX    H2714172   0.567  17.416   4.345
    1HEX    H2914173   0.103   0.142   4.470
    1HEX    H2A14174   0.242   0.038   4.485
    1HEX    H2B14175   0.062  17.344   4.843
    1HEX    H2C14176  17.404   0.049   4.848
    1HEX    H2D14177   0.129   0.162   4.995
    1HEX    H2E14178   0.240   0.028   4.981
    1HEX    H2G14179  17.297  17.361   4.333
    1HEX    H2H14180  17.329   0.059   4.422
    1HEX    H2I14181  17.093  17.379   4.691
    1HEX    H2J14182  17.013  17.228   4.654
    1HEX    H2K14183  16.948  17.396   4.430
    1HEX    H2M14184  16.938   0.064   4.566
    1STR    S0014185   0.181  17.427   3.482
    1STR    S0E14186  17.295   0.790   4.245
    1STR    S0M14187  17.118  16.762   3.972
    1STR    S0X14188   0.780  17.305   4.373
    1STR    S1414189   0.053  17.408   5.121
    1STR    S1B14190  16.769  17.334   4.576
    1HEX    C0114191   0.249  17.227   8.031
    1HEX    C0214192   0.201  17.283   8.168
    1HEX    C0314193   0.049  17.279   8.180
    1HEX    O0414194  17.428  17.173   8.164
    1HEX    O0514195  17.434  17.396   8.217
    1HEX    C0614196  17.297  17.399   8.254
    1HEX    C0714197  17.277  17.393   8.408
    1HEX    C0814198  17.296   0.097   8.469
    1HEX    O0914199  17.233   0.223   8.436
    1HEX    C0A14200  17.252   0.327   8.528
    1HEX    O0B14201  17.277   0.310   8.647
    1HEX    C0C14202  17.247   0.472   8.472
    1HEX    C0D14203  17.223   0.587   8.577
    1HEX    C0F14204  17.138  17.322   8.435
    1HEX    O0G14205  17.158  17.179   8.451
    1HEX    C0H14206  17.104  17.085   8.371
    1HEX    O0I14207  17.017  17.105   8.287
    1HEX    C0J14208  17.171  16.945   8.386
    1HEX    C0K14209  17.163  16.876   8.526
    1HEX    C0N14210  17.384  17.297   8.478
    1HEX    O0O14211   0.072  17.348   8.516
    1HEX    C0P14212   0.094  17.422   8.638
    1HEX    C0Q14213   0.046  17.370   8.778
    1HEX    C0R14214   0.103  17.227   8.801
    1HEX    O0S14215   0.243  17.213   8.768
    1HEX    C0T14216   0.342  17.221   8.862
    1HEX    O0U14217   0.326  17.257   8.978
    1HEX    C0V14218   0.480  17.174   8.813
    1HEX    C0W14219   0.584  17.285   8.780
    1HEX    C0Y14220   0.108   0.027   8.883
    1HEX    O0Z14221   0.067  17.439   9.016
    1HEX    C1014222   0.120   0.073   9.116
    1HEX    O1114223   0.204   0.162   9.101
    1HEX    C1214224   0.063   0.039   9.254
    1HEX    C1314225   0.169   0.037   9.367
    1HEX    C1514226  17.329  17.385   8.791
    1HEX    O1614227  17.250  17.315   8.889
    1HEX    C1714228  17.137  17.248   8.846
    1HEX    O1814229  17.127  17.189   8.739
    1HEX    C1914230  17.018  17.257   8.942
    1HEX    C1A14231  16.896  17.338   8.886
    1HEX    H1D14232   0.173  17.154   8.006
    1HEX    H1E14233   0.225  17.332   8.013
    1HEX    H1F14234   0.238  17.383   8.196
    1HEX    H1G14235   0.236  17.217   8.247
    1HEX    H1H14236  17.242  17.319   8.204
    1HEX    H1I14237  17.252   0.051   8.214
    1HEX    H1J14238  17.400   0.122   8.448
    1HEX    H1K14239  17.285   0.087   8.576
    1HEX    H1M14240  17.170   0.475   8.396
    1HEX    H1N14241  17.341   0.489   8.420
    1HEX    H1O14242  17.197   0.543   8.674
    1HEX    H1P14243  17.135   0.645   8.550
    1HEX    H1R14244  17.065  17.344   8.357
    1HEX    H1S14245  17.093  17.359   8.527
    1HEX    H1T14246  17.275  16.956   8.356
    1HEX    H1U14247  17.125  16.881   8.311
    1HEX    H1V14248  17.060  16.869   8.560
    1HEX    H1W14249  17.216  16.935   8.601
    1HEX    H1Y14250  17.403  17.215   8.410
    1HEX    H1Z14251  17.346  17.239   8.561
    1HEX    H2014252   0.064   0.086   8.627
    1HEX    H2114253   0.203  17.430   8.642
    1HEX    H2214254   0.048  17.157   8.739
    1HEX    H2314255   0.084  17.196   8.904
    1HEX    H2414256   0.468  17.106   8.730
    1HEX    H2514257   0.519  17.113   8.895
    1HEX    H2614258   0.552  17.382   8.819
    1HEX    H2714259   0.593  17.297   8.672
    1HEX    H2914260   0.080   0.131   8.860
    1HEX    H2A14261   0.217   0.026   8.877
    1HEX    H2B14262   0.014  17.382   9.248
    1HEX    H2C14263  17.425   0.112   9.274
    1HEX    H2D14264   0.264   0.074   9.328
    1HEX    H2E14265   0.187  17.375   9.401
    1HEX    H2G14266  17.280  17.366   8.697
    1HEX    H2H14267  17.306   0.050   8.807
    1HEX    H2I14268  17.054  17.305   9.032
    1HEX    H2J14269  16.987  17.156   8.971
    1HEX    H2K14270  16.929  17.410   8.812
    1HEX    H2M14271  16.853  17.396   8.967
    1STR    S0014272   0.271  17.288   7.862
    1STR    S0E14273  17.362   0.706   8.611
    1STR    S0M14274  17.235  16.704   8.521
    1STR    S0X14275   0.753  17.249   8.848
    1STR    S1414276   0.128   0.143   9.511
    1STR    S1B14277  16.757  17.241   8.810
    1HEX    C0114278   0.241  17.349  12.332
    1HEX    C0214279   0.200  17.322  12.479
    1HEX    C0314280   0.050  17.312  12.503
    1HEX    O0414281  17.428  17.209  12.476
    1HEX    O0514282  17.439  17.422  12.562
    1HEX    C0614283  17.301  17.428  12.593
    1HEX    C0714284  17.272  17.409  12.744
    1HEX    C0814285  17.282   0.108  12.818
    1HEX    O0914286  17.223   0.234  12.782
    1HEX    C0A14287  17.236   0.336  12.876
    1HEX    O0B14288  17.258   0.315  12.995
    1HEX    C0C14289  17.228   0.483  12.826
    1HEX    C0D14290  17.258   0.588  12.940
    1HEX    C0F14291  17.132  17.339  12.755
    1HEX    O0G14292  17.149  17.197  12.735
    1HEX    C0H14293  17.089  17.128  12.635
    1HEX    O0I14294  16.997  17.172  12.566
    1HEX    C0J14295  17.152  16.990  12.607
    1HEX    C0K14296  17.149  16.884  12.722
    1HEX    C0N14297  17.372  17.308  12.814
    1HEX    O0O14298   0.063  17.348  12.858
    1HEX    C0P14299   0.093  17.424  12.977
    1HEX    C0Q14300   0.049  17.379  13.121
    1HEX    C0R14301   0.106  17.236  13.149
    1HEX    O0S14302   0.246  17.221  13.117
    1HEX    C0T14303   0.344  17.229  13.213
    1HEX    O0U14304   0.326  17.261  13.330
    1HEX    C0V14305   0.484  17.186  13.165
    1HEX    C0W14306   0.587  17.301  13.137
    1HEX    C0Y14307   0.116   0.038  13.220
    1HEX    O0Z14308   0.075   0.008  13.352
    1HEX    C1014309   0.134   0.068  13.455
    1HEX    O1114310   0.228   0.148  13.448
    1HEX    C1214311   0.067   0.032  13.587
    1HEX    C1314312   0.152   0.064  13.712
    1HEX    C1514313  17.334  17.399  13.133
    1HEX    O1614314  17.254  17.368  13.249
    1HEX    C1714315  17.130  17.315  13.227
    1HEX    O1814316  17.107  17.227  13.143
    1HEX    C1914317  17.012  17.379  13.303
    1HEX    C1A14318  16.889  17.395  13.209
    1HEX    H1D14319   0.206  17.247  12.313
    1HEX    H1E14320   0.198   0.008  12.335
    1HEX    H1F14321   0.239  17.400  12.545
    1HEX    H1G14322   0.244  17.229  12.516
    1HEX    H1H14323  17.246  17.356  12.533
    1HEX    H1I14324  17.263   0.085  12.559
    1HEX    H1J14325  17.387   0.134  12.811
    1HEX    H1K14326  17.256   0.089  12.921
    1HEX    H1M14327  17.130   0.500  12.782
    1HEX    H1N14328  17.301   0.494  12.745
    1HEX    H1O14329  17.357   0.570  12.982
    1HEX    H1P14330  17.189   0.572  13.023
    1HEX    H1R14331  17.059  17.382  12.686
    1HEX    H1S14332  17.088  17.353  12.855
    1HEX    H1T14333  17.255  17.009  12.577
    1HEX    H1U14334  17.102  16.949  12.519
    1HEX    H1V14335  17.047  16.854  12.744
    1HEX    H1W14336  17.190  16.927  12.814
    1HEX    H1Y14337  17.393  17.231  12.739
    1HEX    H1Z14338  17.325  17.245  12.890
    1HEX    H2014339   0.069   0.089  12.965
    1HEX    H2114340   0.202  17.426  12.977
    1HEX    H2214341   0.051  17.164  13.088
    1HEX    H2314342   0.086  17.208  13.253
    1HEX    H2414343   0.475  17.120  13.080
    1HEX    H2514344   0.523  17.125  13.247
    1HEX    H2614345   0.567  17.387  13.201
    1HEX    H2714346   0.577  17.335  13.034
    1HEX    H2914347   0.089   0.141  13.199
    1HEX    H2A14348   0.225   0.034  13.214
    1HEX    H2B14349   0.042  17.366  13.584
    1HEX    H2C14350  17.413   0.087  13.589
    1HEX    H2D14351   0.201   0.161  13.704
    1HEX    H2E14352   0.231  17.430  13.722
    1HEX    H2G14353  17.285  17.354  13.049
    1HEX    H2H14354  17.315   0.066  13.122
    1HEX    H2I14355  17.045   0.035  13.343
    1HEX    H2J14356  16.987  17.315  13.388
    1HEX    H2K14357  16.851  17.296  13.184
    1HEX    H2M14358  16.922  17.438  13.114
    1STR    S0014359   0.139  17.338  12.179
    1STR    S0E14360  17.246   0.767  12.893
    1STR    S0M14361  17.247  16.734  12.676
    1STR    S0X14362   0.760  17.244  13.165
    1STR    S1414363   0.042   0.062  13.857
    1STR    S1B14364  16.747   0.059  13.266
    1HEX    C0114365   0.237   4.239  16.687
    1HEX    C0214366   0.192   4.249  16.835
    1HEX    C0314367   0.043   4.244  16.864
    1HEX    O0414368  17.417   4.142  16.845
    1HEX    O0514369  17.438   4.360  16.917
    1HEX    C0614370  17.301   4.375  16.948
    1HEX    C0714371  17.269   4.358  17.100
    1HEX    C0814372  17.294   4.493  17.177
    1HEX    O0914373  17.244   4.626  17.148
    1HEX    C0A14374  17.273   4.723  17.245
    1HEX    O0B14375  17.308   4.695  17.360
    1HEX    C0C14376  17.266   4.873  17.204
    1HEX    C0D14377  17.330   4.968  17.313
    1HEX    C0F14378  17.122   4.302  17.109
    1HEX    O0G14379  17.121   4.158  17.095
    1HEX    C0H14380  17.079   4.094  16.983
    1HEX    O0I14381  17.017   4.147  16.891
    1HEX    C0J14382  17.118   3.944  16.976
    1HEX    C0K14383  17.085   3.861  17.102
    1HEX    C0N14384  17.357   4.247  17.169
    1HEX    O0O14385   0.052   4.269  17.215
    1HEX    C0P14386   0.088   4.340  17.336
    1HEX    C0Q14387   0.059   4.284   0.040
    1HEX    C0R14388   0.137   4.152   0.064
    1HEX    O0S14389   0.278   4.159   0.033
    1HEX    C0T14390   0.372   4.164   0.131
    1HEX    O0U14391   0.350   4.180   0.250
    1HEX    C0V14392   0.516   4.142   0.080
    1HEX    C0W14393   0.603   4.270   0.081
    1HEX    C0Y14394   0.110   4.391   0.140
    1HEX    O0Z14395   0.083   4.352   0.274
    1HEX    C1014396   0.137   4.422   0.375
    1HEX    O1114397   0.213   4.518   0.362
    1HEX    C1214398   0.094   4.370   0.511
    1HEX    C1314399   0.197   4.405   0.620
    1HEX    C1514400  17.344   4.264   0.054
    1HEX    O1614401  17.276   4.254   0.180
    1HEX    C1714402  17.147   4.207   0.175
    1HEX    O1814403  17.099   4.143   0.081
    1HEX    C1914404  17.057   4.247   0.292
    1HEX    C1A14405  16.932   4.327   0.244
    1HEX    H1D14406   0.292   4.146  16.674
    1HEX    H1E14407   0.307   4.319  16.665
    1HEX    H1F14408   0.231   4.340  16.879
    1HEX    H1G14409   0.236   4.167  16.893
    1HEX    H1H14410  17.242   4.306  16.887
    1HEX    H1I14411  17.269   4.474  16.915
    1HEX    H1J14412  17.401   4.510  17.166
    1HEX    H1K14413  17.271   4.473  17.281
    1HEX    H1M14414  17.161   4.899  17.187
    1HEX    H1N14415  17.318   4.886  17.109
    1HEX    H1O14416  17.437   4.951  17.319
    1HEX    H1P14417  17.292   4.938  17.411
    1HEX    H1R14418  17.055   4.350  17.036
    1HEX    H1S14419  17.078   4.325  17.206
    1HEX    H1T14420  17.225   3.938  16.953
    1HEX    H1U14421  17.067   3.902  16.889
    1HEX    H1V14422  16.985   3.889  17.136
    1HEX    H1W14423  17.152   3.886  17.184
    1HEX    H1Y14424  17.367   4.166  17.097
    1HEX    H1Z14425  17.299   4.197  17.246
    1HEX    H2014426   0.058   4.444  17.333
    1HEX    H2114427   0.197   4.348  17.327
    1HEX    H2214428   0.095   4.074   0.000
    1HEX    H2314429   0.121   4.117   0.166
    1HEX    H2414430   0.513   4.096  17.421
    1HEX    H2514431   0.561   4.068   0.147
    1HEX    H2614432   0.602   4.314   0.182
    1HEX    H2714433   0.558   4.345   0.016
    1HEX    H2914434   0.064   4.489   0.122
    1HEX    H2A14435   0.217   4.405   0.129
    1HEX    H2B14436   0.083   4.262   0.503
    1HEX    H2C14437  17.436   4.412   0.535
    1HEX    H2D14438   0.197   4.513   0.639
    1HEX    H2E14439   0.297   4.380   0.584
    1HEX    H2G14440  17.322   4.172   0.002
    1HEX    H2H14441  17.294   4.346   0.005
    1HEX    H2I14442  17.114   4.304   0.365
    1HEX    H2J14443  17.026   4.154   0.342
    1HEX    H2K14444  16.933   4.334   0.135
    1HEX    H2M14445  16.934   4.429   0.279
    1STR    S0014446   0.109   4.242  16.557
    1STR    S0E14447  17.299   5.152  17.307
    1STR    S0M14448  17.083   3.677  17.078
    1STR    S0X14449   0.777   4.242   0.027
    1STR    S1414450   0.168   4.316   0.777
    1STR    S1B14451  16.770   4.252   0.288
    1HEX    C0114452   0.224   4.208   3.622
    1HEX    C0214453   0.210   4.235   3.773
    1HEX    C0314454   0.068   4.206   3.821
    1HEX    O0414455   0.025   4.091   3.820
    1HEX    O0514456   0.001   4.316   3.862
    1HEX    C0614457  17.305   4.304   3.900
    1HEX    C0714458  17.282   4.301   4.054
    1HEX    C0814459  17.299   4.447   4.110
    1HEX    O0914460  17.233   4.569   4.069
    1HEX    C0A14461  17.232   4.673   4.162
    1HEX    O0B14462  17.218   4.655   4.283
    1HEX    C0C14463  17.257   4.815   4.108
    1HEX    C0D14464  17.268   4.926   4.220
    1HEX    C0F14465  17.143   4.232   4.080
    1HEX    O0G14466  17.158   4.089   4.098
    1HEX    C0H14467  17.128   3.998   4.002
    1HEX    O0I14468  17.064   4.025   3.900
    1HEX    C0J14469  17.188   3.857   4.021
    1HEX    C0K14470  17.186   3.791   4.163
    1HEX    C0N14471  17.388   4.209   4.127
    1HEX    O0O14472   0.074   4.263   4.168
    1HEX    C0P14473   0.092   4.341   4.289
    1HEX    C0Q14474   0.040   4.292   4.428
    1HEX    C0R14475   0.094   4.148   4.454
    1HEX    O0S14476   0.235   4.134   4.425
    1HEX    C0T14477   0.332   4.144   4.521
    1HEX    O0U14478   0.312   4.172   4.639
    1HEX    C0V14479   0.473   4.109   4.472
    1HEX    C0W14480   0.571   4.230   4.454
    1HEX    C0Y14481   0.102   4.388   4.532
    1HEX    O0Z14482   0.061   4.357   4.665
    1HEX    C1014483   0.117   4.423   4.767
    1HEX    O1114484   0.204   4.510   4.755
    1HEX    C1214485   0.060   4.382   4.902
    1HEX    C1314486   0.157   4.403   5.020
    1HEX    C1514487  17.323   4.312   4.436
    1HEX    O1614488  17.239   4.258   4.538
    1HEX    C1714489  17.128   4.187   4.498
    1HEX    O1814490  17.129   4.105   4.407
    1HEX    C1914491  16.995   4.227   4.565
    1HEX    C1A14492  16.899   4.295   4.463
    1HEX    H1D14493   0.320   4.161   3.600
    1HEX    H1E14494   0.149   4.136   3.590
    1HEX    H1F14495   0.238   4.337   3.800
    1HEX    H1G14496   0.275   4.168   3.830
    1HEX    H1H14497  17.260   4.216   3.852
    1HEX    H1I14498  17.251   4.388   3.856
    1HEX    H1J14499  17.403   4.473   4.091
    1HEX    H1K14500  17.287   4.441   4.217
    1HEX    H1M14501  17.179   4.841   4.036
    1HEX    H1N14502  17.351   4.811   4.053
    1HEX    H1O14503  17.304   4.885   4.314
    1HEX    H1P14504  17.168   4.965   4.242
    1HEX    H1R14505  17.070   4.255   4.001
    1HEX    H1S14506  17.097   4.271   4.171
    1HEX    H1T14507  17.291   3.863   3.985
    1HEX    H1U14508  17.136   3.791   3.951
    1HEX    H1V14509  17.084   3.788   4.203
    1HEX    H1W14510  17.244   3.851   4.234
    1HEX    H1Y14511  17.411   4.127   4.060
    1HEX    H1Z14512  17.347   4.152   4.211
    1HEX    H2014513   0.063   4.444   4.273
    1HEX    H2114514   0.201   4.348   4.295
    1HEX    H2214515   0.041   4.077   4.391
    1HEX    H2314516   0.073   4.118   4.557
    1HEX    H2414517   0.467   4.050   4.381
    1HEX    H2514518   0.514   4.042   4.548
    1HEX    H2614519   0.531   4.320   4.500
    1HEX    H2714520   0.582   4.252   4.348
    1HEX    H2914521   0.075   4.492   4.512
    1HEX    H2A14522   0.211   4.386   4.527
    1HEX    H2B14523   0.028   4.278   4.897
    1HEX    H2C14524  17.410   4.442   4.915
    1HEX    H2D14525   0.236   4.474   4.993
    1HEX    H2E14526   0.208   4.310   5.046
    1HEX    H2G14527  17.278   4.283   4.343
    1HEX    H2H14528  17.304   4.419   4.440
    1HEX    H2I14529  17.013   4.289   4.653
    1HEX    H2J14530  16.950   4.134   4.600
    1HEX    H2K14531  16.921   4.257   4.363
    1HEX    H2M14532  16.920   4.402   4.458
    1STR    S0014533   0.211   4.361   3.525
    1STR    S0E14534  17.378   5.068   4.178
    1STR    S0M14535  17.253   3.618   4.157
    1STR    S0X14536   0.738   4.195   4.524
    1STR    S1414537   0.074   4.473   5.167
    1STR    S1B14538  16.718   4.273   4.490
    1HEX    C0114539   0.178   4.202   7.948
    1HEX    C0214540   0.185   4.253   8.094
    1HEX    C0314541   0.050   4.236   8.162
    1HEX    O0414542  17.434   4.126   8.163
    1HEX    O0514543   0.001   4.351   8.212
    1HEX    C0614544  17.302   4.359   8.244
    1HEX    C0714545  17.268   4.343   8.395
    1HEX    C0814546  17.287   4.481   8.470
    1HEX    O0914547  17.229   4.612   8.444
    1HEX    C0A14548  17.252   4.710   8.543
    1HEX    O0B14549  17.285   4.682   8.658
    1HEX    C0C14550  17.240   4.861   8.504
    1HEX    C0D14551  17.289   4.958   8.619
    1HEX    C0F14552  17.124   4.280   8.403
    1HEX    O0G14553  17.132   4.136   8.386
    1HEX    C0H14554  17.077   4.070   8.281
    1HEX    O0I14555  16.996   4.119   8.203
    1HEX    C0J14556  17.133   3.928   8.257
    1HEX    C0K14557  17.127   3.824   8.373
    1HEX    C0N14558  17.361   4.235   8.465
    1HEX    O0O14559   0.056   4.266   8.502
    1HEX    C0P14560   0.095   4.344   8.617
    1HEX    C0Q14561   0.060   4.300   8.762
    1HEX    C0R14562   0.121   4.158   8.787
    1HEX    O0S14563   0.261   4.148   8.750
    1HEX    C0T14564   0.363   4.159   8.841
    1HEX    O0U14565   0.349   4.187   8.960
    1HEX    C0V14566   0.504   4.127   8.786
    1HEX    C0W14567   0.600   4.248   8.765
    1HEX    C0Y14568   0.129   4.399   8.857
    1HEX    O0Z14569   0.085   4.367   8.988
    1HEX    C1014570   0.134   4.431   9.092
    1HEX    O1114571   0.223   4.515   9.092
    1HEX    C1214572   0.059   4.389   9.217
    1HEX    C1314573   0.126   4.437   9.346
    1HEX    C1514574  17.344   4.318   8.786
    1HEX    O1614575  17.271   4.265   8.897
    1HEX    C1714576  17.151   4.203   8.871
    1HEX    O1814577  17.132   4.130   8.773
    1HEX    C1914578  17.034   4.238   8.965
    1HEX    C1A14579  16.918   4.305   8.885
    1HEX    H1D14580   0.262   4.137   7.926
    1HEX    H1E14581   0.088   4.141   7.933
    1HEX    H1F14582   0.217   4.356   8.100
    1HEX    H1G14583   0.256   4.193   8.151
    1HEX    H1H14584  17.248   4.285   8.185
    1HEX    H1I14585  17.265   4.454   8.207
    1HEX    H1J14586  17.392   4.505   8.454
    1HEX    H1K14587  17.270   4.461   8.575
    1HEX    H1M14588  17.136   4.881   8.476
    1HEX    H1N14589  17.300   4.877   8.414
    1HEX    H1O14590  17.395   4.941   8.638
    1HEX    H1P14591  17.239   4.930   8.712
    1HEX    H1R14592  17.056   4.326   8.330
    1HEX    H1S14593  17.078   4.299   8.500
    1HEX    H1T14594  17.237   3.941   8.226
    1HEX    H1U14595  17.081   3.887   8.170
    1HEX    H1V14596  17.024   3.804   8.403
    1HEX    H1W14597  17.178   3.862   8.462
    1HEX    H1Y14598  17.373   4.153   8.394
    1HEX    H1Z14599  17.311   4.178   8.543
    1HEX    H2014600   0.072   4.449   8.605
    1HEX    H2114601   0.204   4.344   8.609
    1HEX    H2214602   0.066   4.085   8.728
    1HEX    H2314603   0.107   4.129   8.892
    1HEX    H2414604   0.494   4.068   8.695
    1HEX    H2514605   0.548   4.060   8.860
    1HEX    H2614606   0.597   4.315   8.851
    1HEX    H2714607   0.568   4.307   8.679
    1HEX    H2914608   0.102   4.503   8.835
    1HEX    H2A14609   0.238   4.395   8.851
    1HEX    H2B14610   0.051   4.281   9.216
    1HEX    H2C14611  17.398   4.429   9.209
    1HEX    H2D14612   0.138   4.545   9.349
    1HEX    H2E14613   0.226   4.394   9.355
    1HEX    H2G14614  17.288   4.293   8.698
    1HEX    H2H14615  17.326   4.426   8.793
    1HEX    H2I14616  17.069   4.300   9.047
    1HEX    H2J14617  16.999   4.144   9.008
    1HEX    H2K14618  16.904   4.252   8.790
    1HEX    H2M14619  16.946   4.407   8.858
    1STR    S0014620   0.170   4.336   7.825
    1STR    S0E14621  17.263   5.142   8.601
    1STR    S0M14622  17.206   3.665   8.320
    1STR    S0X14623   0.775   4.193   8.737
    1STR    S1414624   0.024   4.381   9.487
    1STR    S1B14625  16.753   4.313   8.967
    1HEX    C0114626   0.235   4.200  12.403
    1HEX    C0214627   0.170   4.174  12.540
    1HEX    C0314628   0.019   4.192  12.545
    1HEX    O0414629  17.385   4.096  12.526
    1HEX    O0514630  17.422   4.315  12.585
    1HEX    C0614631  17.285   4.340  12.616
    1HEX    C0714632  17.256   4.335  12.769
    1HEX    C0814633  17.284   4.476  12.835
    1HEX    O0914634  17.232   4.606  12.798
    1HEX    C0A14635  17.262   4.712  12.886
    1HEX    O0B14636  17.292   4.695  13.005
    1HEX    C0C14637  17.263   4.855  12.827
    1HEX    C0D14638  17.230   4.974  12.926
    1HEX    C0F14639  17.109   4.280  12.787
    1HEX    O0G14640  17.110   4.136  12.800
    1HEX    C0H14641  17.068   4.050  12.705
    1HEX    O0I14642  16.999   4.081  12.608
    1HEX    C0J14643  17.118   3.905  12.726
    1HEX    C0K14644  17.013   3.806  12.786
    1HEX    C0N14645  17.349   4.229  12.843
    1HEX    O0O14646   0.044   4.262  12.879
    1HEX    C0P14647   0.080   4.341  12.995
    1HEX    C0Q14648   0.043   4.295  13.141
    1HEX    C0R14649   0.100   4.153  13.164
    1HEX    O0S14650   0.239   4.141  13.126
    1HEX    C0T14651   0.341   4.148  13.216
    1HEX    O0U14652   0.328   4.172  13.336
    1HEX    C0V14653   0.480   4.118  13.156
    1HEX    C0W14654   0.597   4.207  13.212
    1HEX    C0Y14655   0.114   4.394  13.238
    1HEX    O0Z14656   0.079   4.371  13.374
    1HEX    C1014657   0.138   4.445  13.470
    1HEX    O1114658   0.224   4.530  13.450
    1HEX    C1214659   0.085   4.416  13.610
    1HEX    C1314660   0.196   4.388  13.713
    1HEX    C1514661  17.328   4.314  13.165
    1HEX    O1614662  17.258   4.240  13.265
    1HEX    C1714663  17.139   4.181  13.231
    1HEX    O1814664  17.113   4.135  13.120
    1HEX    C1914665  17.033   4.183  13.342
    1HEX    C1A14666  16.904   4.260  13.301
    1HEX    H1D14667   0.335   4.156  12.403
    1HEX    H1E14668   0.247   4.307  12.388
    1HEX    H1F14669   0.213   4.242  12.614
    1HEX    H1G14670   0.191   4.074  12.574
    1HEX    H1H14671  17.222   4.269  12.561
    1HEX    H1I14672  17.258   4.437  12.575
    1HEX    H1J14673  17.390   4.493  12.816
    1HEX    H1K14674  17.269   4.466  12.941
    1HEX    H1M14675  17.189   4.855  12.747
    1HEX    H1N14676  17.359   4.872  12.780
    1HEX    H1O14677  17.182   4.932  13.014
    1HEX    H1P14678  17.156   5.041  12.882
    1HEX    H1R14679  17.043   4.313  12.707
    1HEX    H1S14680  17.065   4.319  12.879
    1HEX    H1T14681  17.208   3.908  12.787
    1HEX    H1U14682  17.150   3.868  12.629
    1HEX    H1V14683  16.974   3.741  12.707
    1HEX    H1W14684  16.928   3.865  12.820
    1HEX    H1Y14685  17.358   4.143  12.777
    1HEX    H1Z14686  17.301   4.178  12.927
    1HEX    H2014687   0.054   4.446  12.984
    1HEX    H2114688   0.189   4.343  12.989
    1HEX    H2214689   0.043   4.081  13.104
    1HEX    H2314690   0.086   4.123  13.268
    1HEX    H2414691   0.474   4.123  13.048
    1HEX    H2514692   0.498   4.014  13.181
    1HEX    H2614693   0.555   4.295  13.163
    1HEX    H2714694   0.668   4.128  13.188
    1HEX    H2914695   0.088   4.497  13.214
    1HEX    H2A14696   0.222   4.389  13.227
    1HEX    H2B14697   0.017   4.331  13.605
    1HEX    H2C14698   0.024   4.501  13.640
    1HEX    H2D14699   0.293   4.407  13.667
    1HEX    H2E14700   0.197   4.283  13.742
    1HEX    H2G14701  17.272   4.306  13.073
    1HEX    H2H14702  17.310   4.419  13.189
    1HEX    H2I14703  17.079   4.232  13.428
    1HEX    H2J14704  17.011   4.081  13.372
    1HEX    H2K14705  16.924   4.325  13.216
    1HEX    H2M14706  16.872   4.326  13.382
    1STR    S0014707   0.153   4.134  12.255
    1STR    S0E14708  17.368   5.082  12.990
    1STR    S0M14709  17.063   3.699  12.928
    1STR    S0X14710   0.735   4.284  13.115
    1STR    S1414711   0.192   4.492  13.864
    1STR    S1B14712  16.759   4.155  13.257
    1HEX    C0114713   0.282   8.636  16.784
    1HEX    C0214714   0.199   8.699  16.898
    1HEX    C0314715   0.058   8.644  16.906
    1HEX    O0414716   0.033   8.525  16.882
    1HEX    O0514717  17.411   8.735  16.952
    1HEX    C0614718  17.277   8.696  16.981
    1HEX    C0714719  17.256   8.670  17.132
    1HEX    C0814720  17.240   8.808  17.208
    1HEX    O0914721  17.203   8.937  17.153
    1HEX    C0A14722  17.215   9.046  17.241
    1HEX    O0B14723  17.238   9.031  17.361
    1HEX    C0C14724  17.202   9.189  17.183
    1HEX    C0D14725  17.250   9.300  17.286
    1HEX    C0F14726  17.128   8.578  17.146
    1HEX    O0G14727  17.162   8.437  17.149
    1HEX    C0H14728  17.135   8.353  17.047
    1HEX    O0I14729  17.064   8.382  16.951
    1HEX    C0J14730  17.208   8.216  17.051
    1HEX    C0K14731  17.226   8.143  17.188
    1HEX    C0N14732  17.373   8.583  17.195
    1HEX    O0O14733   0.061   8.640  17.228
    1HEX    C0P14734   0.092   8.710  17.351
    1HEX    C0Q14735   0.043   8.662   0.053
    1HEX    C0R14736   0.097   8.518   0.079
    1HEX    O0S14737   0.238   8.502   0.049
    1HEX    C0T14738   0.334   8.508   0.146
    1HEX    O0U14739   0.314   8.537   0.264
    1HEX    C0V14740   0.475   8.468   0.099
    1HEX    C0W14741   0.574   8.585   0.069
    1HEX    C0Y14742   0.108   8.757   0.156
    1HEX    O0Z14743   0.068   8.724   0.288
    1HEX    C1014744   0.131   8.782   0.391
    1HEX    O1114745   0.222   8.864   0.382
    1HEX    C1214746   0.072   8.740   0.525
    1HEX    C1314747   0.159   8.778   0.647
    1HEX    C1514748  17.327   8.685   0.062
    1HEX    O1614749  17.242   8.642   0.170
    1HEX    C1714750  17.126   8.577   0.136
    1HEX    O1814751  17.118   8.490   0.049
    1HEX    C1914752  16.998   8.625   0.206
    1HEX    C1A14753  16.896   8.684   0.102
    1HEX    H1D14754   0.387   8.634  16.812
    1HEX    H1E14755   0.251   8.533  16.774
    1HEX    H1F14756   0.198   8.807  16.893
    1HEX    H1G14757   0.244   8.671  16.993
    1HEX    H1H14758  17.249   8.608  16.922
    1HEX    H1I14759  17.211   8.775  16.945
    1HEX    H1J14760  17.340   8.832  17.240
    1HEX    H1K14761  17.179   8.795  17.298
    1HEX    H1M14762  17.098   9.205  17.155
    1HEX    H1N14763  17.261   9.196  17.092
    1HEX    H1O14764  17.358   9.292  17.297
    1HEX    H1P14765  17.210   9.277  17.385
    1HEX    H1R14766  17.053   8.601  17.069
    1HEX    H1S14767  17.076   8.598  17.240
    1HEX    H1T14768  17.305   8.231  17.004
    1HEX    H1U14769  17.152   8.151  16.983
    1HEX    H1V14770  17.132   8.140  17.243
    1HEX    H1W14771  17.297   8.197  17.251
    1HEX    H1Y14772  17.397   8.508  17.120
    1HEX    H1Z14773  17.341   8.518  17.276
    1HEX    H2014774   0.074   8.816  17.340
    1HEX    H2114775   0.201   8.707  17.352
    1HEX    H2214776   0.043   8.447   0.016
    1HEX    H2314777   0.075   8.487   0.181
    1HEX    H2414778   0.468   8.400   0.014
    1HEX    H2514779   0.516   8.408   0.181
    1HEX    H2614780   0.536   8.679   0.109
    1HEX    H2714781   0.582   8.599  17.401
    1HEX    H2914782   0.081   8.861   0.137
    1HEX    H2A14783   0.217   8.753   0.149
    1HEX    H2B14784   0.053   8.633   0.523
    1HEX    H2C14785  17.415   8.789   0.531
    1HEX    H2D14786   0.213   8.871   0.628
    1HEX    H2E14787   0.236   8.702   0.663
    1HEX    H2G14788  17.281   8.648  17.413
    1HEX    H2H14789  17.310   8.792   0.056
    1HEX    H2I14790  17.022   8.697   0.285
    1HEX    H2J14791  16.954   8.538   0.256
    1HEX    H2K14792  16.901   8.625   0.010
    1HEX    H2M14793  16.926   8.785   0.075
    1STR    S0014794   0.271   8.717  16.620
    1STR    S0E14795  17.205   9.478  17.257
    1STR    S0M14796  17.286   7.969  17.162
    1STR    S0X14797   0.743   8.555   0.139
    1STR    S1414798   0.056   8.802   0.795
    1STR    S1B14799  16.718   8.690   0.151
    1HEX    C0114800   0.252   8.608   3.628
    1HEX    C0214801   0.225   8.657   3.771
    1HEX    C0314802   0.081   8.632   3.812
    1HEX    O0414803   0.032   8.519   3.805
    1HEX    O0514804   0.019   8.743   3.855
    1HEX    C0614805  17.318   8.742   3.874
    1HEX    C0714806  17.274   8.724   4.021
    1HEX    C0814807  17.290   8.857   4.104
    1HEX    O0914808  17.245   8.991   4.073
    1HEX    C0A14809  17.271   9.087   4.173
    1HEX    O0B14810  17.301   9.056   4.289
    1HEX    C0C14811  17.265   9.238   4.135
    1HEX    C0D14812  17.328   9.331   4.247
    1HEX    C0F14813  17.128   8.666   4.018
    1HEX    O0G14814  17.131   8.523   3.999
    1HEX    C0H14815  17.093   8.463   3.884
    1HEX    O0I14816  17.025   8.517   3.797
    1HEX    C0J14817  17.146   8.319   3.863
    1HEX    C0K14818  17.162   8.230   3.989
    1HEX    C0N14819  17.357   8.611   4.095
    1HEX    O0O14820   0.055   8.627   4.137
    1HEX    C0P14821   0.100   8.699   4.253
    1HEX    C0Q14822   0.071   8.649   4.398
    1HEX    C0R14823   0.146   8.515   4.425
    1HEX    O0S14824   0.286   8.519   4.393
    1HEX    C0T14825   0.381   8.527   4.488
    1HEX    O0U14826   0.361   8.546   4.608
    1HEX    C0V14827   0.524   8.505   4.435
    1HEX    C0W14828   0.612   8.632   4.434
    1HEX    C0Y14829   0.123   8.757   4.495
    1HEX    O0Z14830   0.087   8.720   4.627
    1HEX    C1014831   0.139   8.782   4.731
    1HEX    O1114832   0.223   8.872   4.729
    1HEX    C1214833   0.076   8.732   4.860
    1HEX    C1314834   0.166   8.755   4.982
    1HEX    C1514835  17.357   8.630   4.412
    1HEX    O1614836  17.286   8.626   4.536
    1HEX    C1714837  17.157   8.581   4.530
    1HEX    O1814838  17.112   8.509   4.441
    1HEX    C1914839  17.064   8.636   4.637
    1HEX    C1A14840  16.947   8.718   4.576
    1HEX    H1D14841   0.359   8.595   3.612
    1HEX    H1E14842   0.207   8.510   3.613
    1HEX    H1F14843   0.249   8.762   3.783
    1HEX    H1G14844   0.286   8.601   3.842
    1HEX    H1H14845  17.274   8.666   3.809
    1HEX    H1I14846  17.279   8.836   3.835
    1HEX    H1J14847  17.397   8.874   4.104
    1HEX    H1K14848  17.257   8.835   4.205
    1HEX    H1M14849  17.162   9.264   4.116
    1HEX    H1N14850  17.320   9.251   4.042
    1HEX    H1O14851  17.434   9.309   4.257
    1HEX    H1P14852  17.285   9.302   4.344
    1HEX    H1R14853  17.067   8.716   3.942
    1HEX    H1S14854  17.076   8.685   4.112
    1HEX    H1T14855  17.242   8.328   3.813
    1HEX    H1U14856  17.079   8.271   3.792
    1HEX    H1V14857  17.070   8.232   4.049
    1HEX    H1W14858  17.241   8.269   4.053
    1HEX    H1Y14859  17.365   8.528   4.025
    1HEX    H1Z14860  17.295   8.567   4.172
    1HEX    H2014861   0.075   8.805   4.247
    1HEX    H2114862   0.208   8.700   4.241
    1HEX    H2214863   0.101   8.436   4.365
    1HEX    H2314864   0.130   8.484   4.529
    1HEX    H2414865   0.518   8.459   4.337
    1HEX    H2514866   0.569   8.431   4.501
    1HEX    H2614867   0.613   8.678   4.533
    1HEX    H2714868   0.569   8.706   4.366
    1HEX    H2914869   0.082   8.856   4.474
    1HEX    H2A14870   0.232   8.767   4.488
    1HEX    H2B14871   0.059   8.625   4.846
    1HEX    H2C14872  17.420   8.780   4.873
    1HEX    H2D14873   0.169   8.862   5.006
    1HEX    H2E14874   0.269   8.726   4.960
    1HEX    H2G14875  17.334   8.537   4.363
    1HEX    H2H14876  17.308   8.712   4.360
    1HEX    H2I14877  17.123   8.697   4.706
    1HEX    H2J14878  17.027   8.551   4.695
    1HEX    H2K14879  16.961   8.735   4.469
    1HEX    H2M14880  16.939   8.816   4.622
    1STR    S0014881   0.189   8.720   3.498
    1STR    S0E14882  17.306   9.515   4.237
    1STR    S0M14883  17.197   8.054   3.946
    1STR    S0X14884   0.785   8.597   4.381
    1STR    S1414885   0.104   8.659   5.124
    1STR    S1B14886  16.788   8.634   4.601
    1HEX    C0114887   0.211   8.508   7.994
    1HEX    C0214888   0.193   8.567   8.136
    1HEX    C0314889   0.050   8.552   8.185
    1HEX    O0414890  17.437   8.441   8.188
    1HEX    O0514891  17.434   8.668   8.225
    1HEX    C0614892  17.297   8.670   8.265
    1HEX    C0714893  17.275   8.671   8.419
    1HEX    C0814894  17.299   8.816   8.475
    1HEX    O0914895  17.231   8.939   8.440
    1HEX    C0A14896  17.231   9.040   8.536
    1HEX    O0B14897  17.223   9.017   8.657
    1HEX    C0C14898  17.247   9.185   8.485
    1HEX    C0D14899  17.235   9.298   8.595
    1HEX    C0F14900  17.133   8.610   8.446
    1HEX    O0G14901  17.140   8.469   8.477
    1HEX    C0H14902  17.116   8.369   8.389
    1HEX    O0I14903  17.057   8.384   8.282
    1HEX    C0J14904  17.177   8.233   8.430
    1HEX    C0K14905  17.096   8.151   8.535
    1HEX    C0N14906  17.378   8.575   8.493
    1HEX    O0O14907   0.067   8.624   8.530
    1HEX    C0P14908   0.091   8.702   8.650
    1HEX    C0Q14909   0.043   8.654   8.791
    1HEX    C0R14910   0.098   8.510   8.816
    1HEX    O0S14911   0.236   8.497   8.774
    1HEX    C0T14912   0.342   8.508   8.860
    1HEX    O0U14913   0.334   8.527   8.981
    1HEX    C0V14914   0.478   8.489   8.789
    1HEX    C0W14915   0.608   8.525   8.869
    1HEX    C0Y14916   0.109   8.750   8.894
    1HEX    O0Z14917   0.068   8.720   9.026
    1HEX    C1014918   0.121   8.792   9.127
    1HEX    O1114919   0.205   8.881   9.114
    1HEX    C1214920   0.062   8.755   9.263
    1HEX    C1314921   0.164   8.762   9.379
    1HEX    C1514922  17.326   8.674   8.805
    1HEX    O1614923  17.246   8.613   8.907
    1HEX    C1714924  17.137   8.540   8.867
    1HEX    O1814925  17.138   8.464   8.770
    1HEX    C1914926  17.006   8.565   8.944
    1HEX    C1A14927  16.904   8.644   8.857
    1HEX    H1D14928   0.291   8.435   7.994
    1HEX    H1E14929   0.121   8.455   7.961
    1HEX    H1F14930   0.223   8.672   8.141
    1HEX    H1G14931   0.256   8.513   8.207
    1HEX    H1H14932  17.245   8.586   8.218
    1HEX    H1I14933  17.251   8.758   8.221
    1HEX    H1J14934  17.402   8.840   8.450
    1HEX    H1K14935  17.293   8.808   8.582
    1HEX    H1M14936  17.176   9.203   8.405
    1HEX    H1N14937  17.346   9.190   8.439
    1HEX    H1O14938  17.233   9.255   8.695
    1HEX    H1P14939  17.140   9.349   8.585
    1HEX    H1R14940  17.063   8.628   8.363
    1HEX    H1S14941  17.086   8.658   8.532
    1HEX    H1T14942  17.278   8.253   8.467
    1HEX    H1U14943  17.190   8.173   8.339
    1HEX    H1V14944  17.025   8.085   8.484
    1HEX    H1W14945  17.036   8.221   8.593
    1HEX    H1Y14946  17.396   8.490   8.427
    1HEX    H1Z14947  17.337   8.521   8.578
    1HEX    H2014948   0.063   8.806   8.635
    1HEX    H2114949   0.200   8.708   8.652
    1HEX    H2214950   0.040   8.439   8.758
    1HEX    H2314951   0.086   8.481   8.920
    1HEX    H2414952   0.475   8.537   8.691
    1HEX    H2514953   0.481   8.382   8.769
    1HEX    H2614954   0.559   8.623   8.864
    1HEX    H2714955   0.673   8.486   8.790
    1HEX    H2914956   0.084   8.854   8.872
    1HEX    H2A14957   0.218   8.745   8.888
    1HEX    H2B14958   0.020   8.655   9.257
    1HEX    H2C14959  17.419   8.823   9.280
    1HEX    H2D14960   0.255   8.812   9.346
    1HEX    H2E14961   0.194   8.662   9.411
    1HEX    H2G14962  17.276   8.654   8.712
    1HEX    H2H14963  17.308   8.781   8.817
    1HEX    H2I14964  17.027   8.614   9.039
    1HEX    H2J14965  16.965   8.467   8.967
    1HEX    H2K14966  16.923   8.626   8.751
    1HEX    H2M14967  16.920   8.751   8.872
    1STR    S0014968   0.251   8.638   7.873
    1STR    S0E14969  17.371   9.424   8.599
    1STR    S0M14970  17.193   8.050   8.658
    1STR    S0X14971   0.730   8.663   8.889
    1STR    S1414972   0.103   8.857   9.523
    1STR    S1B14973  16.725   8.610   8.888
    1HEX    C0114974   0.239   8.640  12.329
    1HEX    C0214975   0.199   8.605  12.475
    1HEX    C0314976   0.049   8.596  12.501
    1HEX    O0414977  17.427   8.494  12.472
    1HEX    O0514978  17.440   8.705  12.562
    1HEX    C0614979  17.302   8.711  12.595
    1HEX    C0714980  17.274   8.689  12.747
    1HEX    C0814981  17.279   8.827  12.824
    1HEX    O0914982  17.223   8.956  12.789
    1HEX    C0A14983  17.241   9.057  12.886
    1HEX    O0B14984  17.271   9.033  13.003
    1HEX    C0C14985  17.227   9.206  12.842
    1HEX    C0D14986  17.263   9.308  12.958
    1HEX    C0F14987  17.138   8.610  12.758
    1HEX    O0G14988  17.162   8.468  12.742
    1HEX    C0H14989  17.116   8.394  12.639
    1HEX    O0I14990  17.028   8.432  12.561
    1HEX    C0J14991  17.189   8.260  12.617
    1HEX    C0K14992  17.189   8.155  12.733
    1HEX    C0N14993  17.380   8.590  12.813
    1HEX    O0O14994   0.070   8.635  12.855
    1HEX    C0P14995   0.098   8.707  12.977
    1HEX    C0Q14996   0.054   8.658  13.119
    1HEX    C0R14997   0.113   8.516  13.144
    1HEX    O0S14998   0.254   8.503  13.112
    1HEX    C0T14999   0.353   8.513  13.206
    1HEX    O0U15000   0.335   8.544  13.323
    1HEX    C0V15001   0.493   8.472  13.156
    1HEX    C0W15002   0.594   8.588  13.129
    1HEX    C0Y15003   0.118   8.757  13.219
    1HEX    O0Z15004   0.075   8.726  13.350
    1HEX    C1015005   0.131   8.790  13.454
    1HEX    O1115006   0.223   8.871  13.448
    1HEX    C1215007   0.062   8.754  13.584
    1HEX    C1315008   0.141   8.793  13.709
    1HEX    C1515009  17.338   8.674  13.132
    1HEX    O1615010  17.257   8.628  13.242
    1HEX    C1715011  17.134   8.575  13.213
    1HEX    O1815012  17.110   8.505  13.114
    1HEX    C1915013  17.018   8.616  13.306
    1HEX    C1A15014  16.909   8.698  13.230
    1HEX    H1D15015   0.197   8.540  12.313
    1HEX    H1E15016   0.191   8.737  12.334
    1HEX    H1F15017   0.239   8.680  12.544
    1HEX    H1G15018   0.243   8.511  12.508
    1HEX    H1H15019  17.246   8.640  12.534
    1HEX    H1I15020  17.264   8.809  12.564
    1HEX    H1J15021  17.384   8.854  12.821
    1HEX    H1K15022  17.249   8.807  12.925
    1HEX    H1M15023  17.126   9.222  12.805
    1HEX    H1N15024  17.295   9.221  12.757
    1HEX    H1O15025  17.366   9.292  12.990
    1HEX    H1P15026  17.202   9.285  13.045
    1HEX    H1R15027  17.063   8.647  12.687
    1HEX    H1S15028  17.093   8.624  12.856
    1HEX    H1T15029  17.291   8.286  12.591
    1HEX    H1U15030  17.147   8.214  12.527
    1HEX    H1V15031  17.089   8.114  12.747
    1HEX    H1W15032  17.215   8.203  12.827
    1HEX    H1Y15033  17.402   8.515  12.737
    1HEX    H1Z15034  17.338   8.524  12.889
    1HEX    H2015035   0.074   8.812  12.967
    1HEX    H2115036   0.207   8.710  12.977
    1HEX    H2215037   0.059   8.443  13.084
    1HEX    H2315038   0.095   8.486  13.248
    1HEX    H2415039   0.483   8.407  13.070
    1HEX    H2515040   0.533   8.410  13.236
    1HEX    H2615041   0.583   8.668  13.202
    1HEX    H2715042   0.574   8.632  13.031
    1HEX    H2915043   0.090   8.860  13.198
    1HEX    H2A15044   0.227   8.754  13.214
    1HEX    H2B15045   0.042   8.646  13.583
    1HEX    H2C15046  17.405   8.804  13.582
    1HEX    H2D15047   0.179   8.895  13.704
    1HEX    H2E15048   0.229   8.728  13.719
    1HEX    H2G15049  17.291   8.637  13.043
    1HEX    H2H15050  17.317   8.781  13.129
    1HEX    H2I15051  17.057   8.671  13.391
    1HEX    H2J15052  16.975   8.523  13.345
    1HEX    H2K15053  16.922   8.688  13.122
    1HEX    H2M15054  16.921   8.804  13.251
    1STR    S0015055   0.155   8.619  12.167
    1STR    S0E15056  17.240   9.490  12.925
    1STR    S0M15057  17.307   8.016  12.701
    1STR    S0X15058   0.768   8.527  13.132
    1STR    S1415059   0.032   8.773  13.853
    1STR    S1B15060  16.733   8.654  13.265
    1HEX    C0115061   0.231  12.984  16.687
    1HEX    C0215062   0.185  12.959  16.833
    1HEX    C0315063   0.035  12.962  16.859
    1HEX    O0415064  17.405  12.863  16.837
    1HEX    O0515065  17.434  13.077  16.918
    1HEX    C0615066  17.297  13.093  16.952
    1HEX    C0715067  17.269  13.075  17.104
    1HEX    C0815068  17.294  13.209  17.181
    1HEX    O0915069  17.240  13.341  17.151
    1HEX    C0A15070  17.266  13.439  17.246
    1HEX    O0B15071  17.300  13.413  17.362
    1HEX    C0C15072  17.258  13.589  17.203
    1HEX    C0D15073  17.320  13.686  17.310
    1HEX    C0F15074  17.123  13.019  17.117
    1HEX    O0G15075  17.123  12.876  17.096
    1HEX    C0H15076  17.070  12.816  16.988
    1HEX    O0I15077  16.994  12.871  16.909
    1HEX    C0J15078  17.118  12.672  16.967
    1HEX    C0K15079  17.106  12.579  17.091
    1HEX    C0N15080  17.361  12.963  17.170
    1HEX    O0O15081   0.054  12.991  17.219
    1HEX    C0P15082   0.086  13.064  17.341
    1HEX    C0Q15083   0.052  13.010   0.044
    1HEX    C0R15084   0.119  12.871   0.065
    1HEX    O0S15085   0.259  12.870   0.029
    1HEX    C0T15086   0.360  12.876   0.122
    1HEX    O0U15087   0.344  12.891   0.243
    1HEX    C0V15088   0.501  12.860   0.062
    1HEX    C0W15089   0.609  12.951   0.128
    1HEX    C0Y15090   0.113  13.110   0.145
    1HEX    O0Z15091   0.083  13.073   0.279
    1HEX    C1015092   0.138  13.144   0.379
    1HEX    O1115093   0.213  13.241   0.365
    1HEX    C1215094   0.099  13.093   0.518
    1HEX    C1315095   0.197  13.142   0.625
    1HEX    C1515096  17.336  13.014   0.062
    1HEX    O1615097  17.270  12.968   0.181
    1HEX    C1715098  17.144  12.915   0.167
    1HEX    O1815099  17.101  12.858   0.067
    1HEX    C1915100  17.050  12.940   0.286
    1HEX    C1A15101  16.922  13.018   0.243
    1HEX    H1D15102   0.313  12.915  16.666
    1HEX    H1E15103   0.271  13.084  16.676
    1HEX    H1F15104   0.232  13.032  16.899
    1HEX    H1G15105   0.219  12.862  16.867
    1HEX    H1H15106  17.236  13.026  16.892
    1HEX    H1I15107  17.267  13.193  16.921
    1HEX    H1J15108  17.400  13.228  17.167
    1HEX    H1K15109  17.275  13.188  17.286
    1HEX    H1M15110  17.153  13.613  17.184
    1HEX    H1N15111  17.311  13.600  17.108
    1HEX    H1O15112  17.428  13.672  17.316
    1HEX    H1P15113  17.283  13.655  17.408
    1HEX    H1R15114  17.054  13.070  17.048
    1HEX    H1S15115  17.082  13.038  17.216
    1HEX    H1T15116  17.222  12.677  16.935
    1HEX    H1U15117  17.062  12.630  16.883
    1HEX    H1V15118  17.003  12.577  17.127
    1HEX    H1W15119  17.167  12.617  17.173
    1HEX    H1Y15120  17.378  12.888  17.092
    1HEX    H1Z15121  17.308  12.899  17.239
    1HEX    H2015122   0.058  13.168  17.335
    1HEX    H2115123   0.195  13.069  17.335
    1HEX    H2215124   0.069  12.797   0.004
    1HEX    H2315125   0.105  12.838   0.168
    1HEX    H2415126   0.494  12.881  17.395
    1HEX    H2515127   0.530  12.756   0.072
    1HEX    H2615128   0.568  13.049   0.150
    1HEX    H2715129   0.638  12.909   0.225
    1HEX    H2915130   0.076  13.212   0.128
    1HEX    H2A15131   0.221  13.116   0.133
    1HEX    H2B15132   0.098  12.984   0.513
    1HEX    H2C15133  17.437  13.125   0.539
    1HEX    H2D15134   0.188  13.250   0.638
    1HEX    H2E15135   0.299  13.124   0.591
    1HEX    H2G15136  17.290  12.964  17.420
    1HEX    H2H15137  17.304  13.118   0.053
    1HEX    H2I15138  17.105  12.996   0.362
    1HEX    H2J15139  17.024  12.844   0.330
    1HEX    H2K15140  16.931  13.050   0.139
    1HEX    H2M15141  16.911  13.110   0.301
    1STR    S0015142   0.110  12.958  16.552
    1STR    S0E15143  17.285  13.869  17.306
    1STR    S0M15144  17.155  12.405  17.052
    1STR    S0X15145   0.762  12.975   0.026
    1STR    S1415146   0.178  13.061   0.788
    1STR    S1B15147  16.765  12.924   0.256
    1HEX    C0115148   0.216  12.956   3.614
    1HEX    C0215149   0.213  12.975   3.767
    1HEX    C0315150   0.077  12.938   3.822
    1HEX    O0415151   0.041  12.820   3.824
    1HEX    O0515152   0.004  13.044   3.862
    1HEX    C0615153  17.307  13.025   3.897
    1HEX    C0715154  17.282  13.020   4.050
    1HEX    C0815155  17.288  13.166   4.108
    1HEX    O0915156  17.228  13.288   4.058
    1HEX    C0A15157  17.236  13.399   4.143
    1HEX    O0B15158  17.249  13.389   4.265
    1HEX    C0C15159  17.235  13.540   4.079
    1HEX    C0D15160  17.276  13.652   4.181
    1HEX    C0F15161  17.146  12.943   4.072
    1HEX    O0G15162  17.168  12.800   4.087
    1HEX    C0H15163  17.140  12.711   3.989
    1HEX    O0I15164  17.075  12.737   3.889
    1HEX    C0J15165  17.205  12.571   4.006
    1HEX    C0K15166  17.213  12.505   4.147
    1HEX    C0N15167  17.390  12.931   4.125
    1HEX    O0O15168   0.075  12.988   4.165
    1HEX    C0P15169   0.093  13.065   4.286
    1HEX    C0Q15170   0.043  13.015   4.426
    1HEX    C0R15171   0.099  12.872   4.450
    1HEX    O0S15172   0.241  12.860   4.420
    1HEX    C0T15173   0.337  12.868   4.517
    1HEX    O0U15174   0.317  12.893   4.635
    1HEX    C0V15175   0.480  12.837   4.467
    1HEX    C0W15176   0.566  12.960   4.424
    1HEX    C0Y15177   0.104  13.111   4.530
    1HEX    O0Z15178   0.064  13.078   4.662
    1HEX    C1015179   0.122  13.141   4.764
    1HEX    O1115180   0.210  13.227   4.754
    1HEX    C1215181   0.065  13.098   4.899
    1HEX    C1315182   0.159  13.128   5.019
    1HEX    C1515183  17.326  13.034   4.432
    1HEX    O1615184  17.239  12.984   4.535
    1HEX    C1715185  17.125  12.919   4.494
    1HEX    O1815186  17.122  12.837   4.402
    1HEX    C1915187  16.994  12.963   4.562
    1HEX    C1A15188  16.899  13.033   4.459
    1HEX    H1D15189   0.314  12.924   3.579
    1HEX    H1E15190   0.147  12.876   3.587
    1HEX    H1F15191   0.241  13.076   3.797
    1HEX    H1G15192   0.284  12.907   3.814
    1HEX    H1H15193  17.268  12.936   3.848
    1HEX    H1I15194  17.250  13.107   3.853
    1HEX    H1J15195  17.392  13.194   4.101
    1HEX    H1K15196  17.260  13.161   4.212
    1HEX    H1M15197  17.135  13.559   4.039
    1HEX    H1N15198  17.304  13.539   3.995
    1HEX    H1O15199  17.377  13.632   4.219
    1HEX    H1P15200  17.212  13.647   4.269
    1HEX    H1R15201  17.073  12.965   3.993
    1HEX    H1S15202  17.097  12.977   4.164
    1HEX    H1T15203  17.305  12.579   3.963
    1HEX    H1U15204  17.151  12.504   3.939
    1HEX    H1V15205  17.115  12.503   4.195
    1HEX    H1W15206  17.277  12.564   4.213
    1HEX    H1Y15207  17.415  12.850   4.058
    1HEX    H1Z15208  17.350  12.873   4.208
    1HEX    H2015209   0.062  13.168   4.272
    1HEX    H2115210   0.202  13.074   4.291
    1HEX    H2215211   0.047  12.800   4.387
    1HEX    H2315212   0.079  12.840   4.553
    1HEX    H2415213   0.472  12.765   4.385
    1HEX    H2515214   0.529  12.784   4.548
    1HEX    H2615215   0.508  13.052   4.437
    1HEX    H2715216   0.589  12.953   4.318
    1HEX    H2915217   0.077  13.215   4.510
    1HEX    H2A15218   0.213  13.109   4.525
    1HEX    H2B15219   0.041  12.992   4.895
    1HEX    H2C15220  17.411  13.152   4.909
    1HEX    H2D15221   0.226  13.210   4.995
    1HEX    H2E15222   0.222  13.042   5.042
    1HEX    H2G15223  17.282  13.003   4.339
    1HEX    H2H15224  17.307  13.142   4.433
    1HEX    H2I15225  17.014  13.025   4.649
    1HEX    H2J15226  16.947  12.872   4.598
    1HEX    H2K15227  16.920  12.995   4.360
    1HEX    H2M15228  16.921  13.140   4.455
    1STR    S0015229   0.171  13.110   3.528
    1STR    S0E15230  17.270  13.828   4.123
    1STR    S0M15231  17.278  12.331   4.135
    1STR    S0X15232   0.724  12.978   4.519
    1STR    S1415233   0.064  13.180   5.167
    1STR    S1B15234  16.717  13.014   4.486
    1HEX    C0115235   0.200  12.931   7.962
    1HEX    C0215236   0.194  12.983   8.107
    1HEX    C0315237   0.055  12.966   8.165
    1HEX    O0415238  -0.000  12.856   8.163
    1HEX    O0515239   0.002  13.081   8.213
    1HEX    C0615240  17.303  13.086   8.245
    1HEX    C0715241  17.272  13.074   8.397
    1HEX    C0815242  17.299  13.212   8.469
    1HEX    O0915243  17.240  13.342   8.446
    1HEX    C0A15244  17.262  13.439   8.546
    1HEX    O0B15245  17.293  13.409   8.661
    1HEX    C0C15246  17.252  13.589   8.508
    1HEX    C0D15247  17.308  13.685   8.621
    1HEX    C0F15248  17.124  13.022   8.410
    1HEX    O0G15249  17.120  12.878   8.406
    1HEX    C0H15250  17.085  12.809   8.295
    1HEX    O0I15251  17.025  12.858   8.199
    1HEX    C0J15252  17.133  12.663   8.290
    1HEX    C0K15253  17.134  12.578   8.421
    1HEX    C0N15254  17.361  12.961   8.464
    1HEX    O0O15255   0.058  12.988   8.499
    1HEX    C0P15256   0.100  13.065   8.613
    1HEX    C0Q15257   0.066  13.021   8.759
    1HEX    C0R15258   0.127  12.880   8.784
    1HEX    O0S15259   0.268  12.871   8.748
    1HEX    C0T15260   0.369  12.882   8.840
    1HEX    O0U15261   0.353  12.906   8.960
    1HEX    C0V15262   0.510  12.855   8.785
    1HEX    C0W15263   0.604  12.980   8.772
    1HEX    C0Y15264   0.135  13.120   8.855
    1HEX    O0Z15265   0.090  13.086   8.984
    1HEX    C1015266   0.137  13.146   9.091
    1HEX    O1115267   0.226  13.231   9.094
    1HEX    C1215268   0.062  13.099   9.214
    1HEX    C1315269   0.125  13.145   9.345
    1HEX    C1515270  17.351  13.040   8.785
    1HEX    O1615271  17.279  12.978   8.892
    1HEX    C1715272  17.161  12.916   8.862
    1HEX    O1815273  17.142  12.849   8.761
    1HEX    C1915274  17.044  12.945   8.958
    1HEX    C1A15275  16.929  13.021   8.886
    1HEX    H1D15276   0.295  12.881   7.942
    1HEX    H1E15277   0.123  12.855   7.946
    1HEX    H1F15278   0.226  13.087   8.114
    1HEX    H1G15279   0.261  12.925   8.170
    1HEX    H1H15280  17.250  13.009   8.187
    1HEX    H1I15281  17.264  13.180   8.206
    1HEX    H1J15282  17.404  13.233   8.447
    1HEX    H1K15283  17.290  13.192   8.574
    1HEX    H1M15284  17.148  13.612   8.485
    1HEX    H1N15285  17.308  13.605   8.416
    1HEX    H1O15286  17.414  13.665   8.635
    1HEX    H1P15287  17.262  13.657   8.716
    1HEX    H1R15288  17.059  13.067   8.335
    1HEX    H1S15289  17.081  13.052   8.506
    1HEX    H1T15290  17.235  12.670   8.252
    1HEX    H1U15291  17.077  12.610   8.213
    1HEX    H1V15292  17.038  12.527   8.433
    1HEX    H1W15293  17.148  12.640   8.510
    1HEX    H1Y15294  17.367  12.880   8.392
    1HEX    H1Z15295  17.311  12.906   8.543
    1HEX    H2015296   0.079  13.171   8.602
    1HEX    H2115297   0.209  13.063   8.604
    1HEX    H2215298   0.073  12.806   8.724
    1HEX    H2315299   0.112  12.849   8.888
    1HEX    H2415300   0.502  12.802   8.690
    1HEX    H2515301   0.556  12.785   8.855
    1HEX    H2615302   0.603  13.038   8.864
    1HEX    H2715303   0.567  13.046   8.693
    1HEX    H2915304   0.109  13.224   8.834
    1HEX    H2A15305   0.244  13.116   8.849
    1HEX    H2B15306   0.059  12.990   9.209
    1HEX    H2C15307  17.400  13.134   9.205
    1HEX    H2D15308   0.124  13.254   9.352
    1HEX    H2E15309   0.230  13.116   9.349
    1HEX    H2G15310  17.293  13.024   8.696
    1HEX    H2H15311  17.333  13.147   8.801
    1HEX    H2I15312  17.080  12.999   9.046
    1HEX    H2J15313  17.008  12.848   8.993
    1HEX    H2K15314  16.926  12.996   8.780
    1HEX    H2M15315  16.946  13.129   8.891
    1STR    S0015316   0.175  13.060   7.836
    1STR    S0E15317  17.284  13.869   8.608
    1STR    S0M15318  17.268  12.452   8.412
    1STR    S0X15319   0.778  12.933   8.731
    1STR    S1415320   0.035  13.070   9.483
    1STR    S1B15321  16.760  12.989   8.953
    1HEX    C0115322   0.256  12.924  12.396
    1HEX    C0215323   0.192  12.911  12.536
    1HEX    C0315324   0.040  12.916  12.538
    1HEX    O0415325  17.414  12.815  12.514
    1HEX    O0515326  17.433  13.035  12.579
    1HEX    C0615327  17.295  13.050  12.612
    1HEX    C0715328  17.270  13.046  12.766
    1HEX    C0815329  17.296  13.188  12.829
    1HEX    O0915330  17.236  13.316  12.796
    1HEX    C0A15331  17.259  13.420  12.887
    1HEX    O0B15332  17.287  13.402  13.005
    1HEX    C0C15333  17.253  13.564  12.831
    1HEX    C0D15334  17.224  13.679  12.935
    1HEX    C0F15335  17.125  12.988  12.788
    1HEX    O0G15336  17.133  12.845  12.803
    1HEX    C0H15337  17.076  12.754  12.722
    1HEX    O0I15338  16.990  12.778  12.638
    1HEX    C0J15339  17.136  12.613  12.739
    1HEX    C0K15340  17.057  12.518  12.835
    1HEX    C0N15341  17.369  12.943  12.837
    1HEX    O0O15342   0.062  12.984  12.874
    1HEX    C0P15343   0.091  13.059  12.994
    1HEX    C0Q15344   0.052  13.008  13.137
    1HEX    C0R15345   0.114  12.866  13.156
    1HEX    O0S15346   0.255  12.861  13.120
    1HEX    C0T15347   0.354  12.865  13.214
    1HEX    O0U15348   0.336  12.876  13.335
    1HEX    C0V15349   0.498  12.855  13.157
    1HEX    C0W15350   0.568  12.993  13.151
    1HEX    C0Y15351   0.118  13.105  13.238
    1HEX    O0Z15352   0.078  13.079  13.373
    1HEX    C1015353   0.134  13.153  13.471
    1HEX    O1115354   0.222  13.238  13.455
    1HEX    C1215355   0.074  13.125  13.610
    1HEX    C1315356   0.180  13.113  13.722
    1HEX    C1515357  17.335  13.023  13.156
    1HEX    O1615358  17.259  12.945  13.250
    1HEX    C1715359  17.139  12.893  13.209
    1HEX    O1815360  17.115  12.853  13.096
    1HEX    C1915361  17.028  12.893  13.315
    1HEX    C1A15362  16.899  12.971  13.272
    1HEX    H1D15363   0.231  12.818  12.388
    1HEX    H1E15364   0.198  13.015  12.378
    1HEX    H1F15365   0.227  12.992  12.600
    1HEX    H1G15366   0.222  12.820  12.588
    1HEX    H1H15367  17.237  12.973  12.560
    1HEX    H1I15368  17.259  13.144  12.570
    1HEX    H1J15369  17.401  13.209  12.808
    1HEX    H1K15370  17.284  13.177  12.936
    1HEX    H1M15371  17.177  13.565  12.753
    1HEX    H1N15372  17.348  13.584  12.780
    1HEX    H1O15373  17.189  13.635  13.028
    1HEX    H1P15374  17.141  13.741  12.900
    1HEX    H1R15375  17.056  13.016  12.708
    1HEX    H1S15376  17.081  13.027  12.879
    1HEX    H1T15377  17.238  12.625  12.773
    1HEX    H1U15378  17.143  12.567  12.640
    1HEX    H1V15379  16.997  12.448  12.777
    1HEX    H1W15380  16.987  12.577  12.894
    1HEX    H1Y15381  17.382  12.860  12.768
    1HEX    H1Z15382  17.325  12.888  12.920
    1HEX    H2015383   0.062  13.163  12.984
    1HEX    H2115384   0.200  13.066  12.990
    1HEX    H2215385   0.062  12.795  13.092
    1HEX    H2315386   0.098  12.831  13.258
    1HEX    H2415387   0.495  12.807  13.060
    1HEX    H2515388   0.555  12.789  13.223
    1HEX    H2615389   0.573  13.037  13.251
    1HEX    H2715390   0.505  13.059  13.092
    1HEX    H2915391   0.092  13.208  13.215
    1HEX    H2A15392   0.227  13.100  13.231
    1HEX    H2B15393   0.015  13.034  13.604
    1HEX    H2C15394   0.004  13.206  13.630
    1HEX    H2D15395   0.278  13.141  13.683
    1HEX    H2E15396   0.189  13.010  13.756
    1HEX    H2G15397  17.283  13.017  13.062
    1HEX    H2H15398  17.315  13.126  13.183
    1HEX    H2I15399  17.070  12.940  13.404
    1HEX    H2J15400  17.004  12.791  13.343
    1HEX    H2K15401  16.924  13.049  13.200
    1HEX    H2M15402  16.859  13.024  13.358
    1STR    S0015403   0.196  12.882  12.229
    1STR    S0E15404  17.362  13.794  12.982
    1STR    S0M15405  17.162  12.423  12.956
    1STR    S0X15406   0.737  13.001  13.076
    1STR    S1415407   0.151  13.222  13.867
    1STR    S1B15408  16.761  12.872  13.201
    1HEX    C0115409   4.547  17.287  16.713
    1HEX    C0215410   4.548  17.281  16.867
    1HEX    C0315411   4.405  17.275  16.916
    1HEX    O0415412   4.343  17.169  16.909
    1HEX    O0515413   4.356  17.393  16.956
    1HEX    C0615414   4.216  17.407  16.980
    1HEX    C0715415   4.174  17.391  17.128
    1HEX    C0815416   4.174   0.092  17.201
    1HEX    O0915417   4.130   0.220  17.151
    1HEX    C0A15418   4.149   0.327  17.240
    1HEX    O0B15419   4.174   0.312  17.359
    1HEX    C0C15420   4.143   0.471  17.183
    1HEX    C0D15421   4.176   0.581  17.292
    1HEX    C0F15422   4.034  17.319  17.130
    1HEX    O0G15423   4.053  17.176  17.111
    1HEX    C0H15424   4.009  17.110  17.002
    1HEX    O0I15425   3.928  17.155  16.922
    1HEX    C0J15426   4.075  16.972  16.978
    1HEX    C0K15427   4.085  16.872  17.097
    1HEX    C0N15428   4.269  17.292  17.208
    1HEX    O0O15429   4.405  17.328  17.239
    1HEX    C0P15430   4.446  17.410  17.351
    1HEX    C0Q15431   4.411  17.369   0.057
    1HEX    C0R15432   4.467  17.226   0.084
    1HEX    O0S15433   4.607  17.211   0.051
    1HEX    C0T15434   4.706  17.220   0.144
    1HEX    O0U15435   4.689  17.250   0.262
    1HEX    C0V15436   4.846  17.180   0.094
    1HEX    C0W15437   4.945  17.297   0.067
    1HEX    C0Y15438   4.484   0.029   0.150
    1HEX    O0Z15439   4.444   0.004   0.283
    1HEX    C1015440   4.504   0.066   0.384
    1HEX    O1115441   4.599   0.144   0.375
    1HEX    C1215442   4.436   0.033   0.516
    1HEX    C1315443   4.522   0.063   0.640
    1HEX    C1515444   4.257  17.391   0.083
    1HEX    O1615445   4.185  17.317   0.182
    1HEX    C1715446   4.062  17.265   0.148
    1HEX    O1815447   4.031  17.227   0.035
    1HEX    C1915448   3.958  17.266   0.261
    1HEX    C1A15449   3.827  17.342   0.223
    1HEX    H1D15450   4.631  17.235  16.668
    1HEX    H1E15451   4.457  17.241  16.673
    1HEX    H1F15452   4.600  17.366  16.913
    1HEX    H1G15453   4.598  17.191  16.902
    1HEX    H1H15454   4.163  17.335  16.916
    1HEX    H1I15455   4.185   0.064  16.942
    1HEX    H1J15456   4.279   0.115  17.211
    1HEX    H1K15457   4.130   0.080  17.299
    1HEX    H1M15458   4.045   0.488  17.139
    1HEX    H1N15459   4.216   0.478  17.102
    1HEX    H1O15460   4.272   0.560  17.339
    1HEX    H1P15461   4.103   0.574  17.372
    1HEX    H1R15462   3.966  17.362  17.056
    1HEX    H1S15463   3.985  17.333  17.226
    1HEX    H1T15464   4.175  16.993  16.941
    1HEX    H1U15465   4.023  16.925  16.895
    1HEX    H1V15466   3.987  16.832  17.122
    1HEX    H1W15467   4.122  16.922  17.186
    1HEX    H1Y15468   4.283  17.205  17.144
    1HEX    H1Z15469   4.220  17.244  17.291
    1HEX    H2015470   4.425   0.075  17.337
    1HEX    H2115471   4.555  17.407  17.342
    1HEX    H2215472   4.410  17.154   0.025
    1HEX    H2315473   4.449  17.198   0.188
    1HEX    H2415474   4.836  17.116   0.007
    1HEX    H2515475   4.886  17.118   0.173
    1HEX    H2615476   4.918  17.386   0.124
    1HEX    H2715477   4.941  17.326  17.402
    1HEX    H2915478   4.460   0.132   0.126
    1HEX    H2A15479   4.593   0.021   0.141
    1HEX    H2B15480   4.407  17.368   0.515
    1HEX    H2C15481   4.344   0.091   0.518
    1HEX    H2D15482   4.575   0.158   0.630
    1HEX    H2E15483   4.598  17.426   0.652
    1HEX    H2G15484   4.203  17.384  17.431
    1HEX    H2H15485   4.241   0.056   0.108
    1HEX    H2I15486   4.005  17.315   0.346
    1HEX    H2J15487   3.936  17.164   0.291
    1HEX    H2K15488   3.845  17.407   0.136
    1HEX    H2M15489   3.798  17.410   0.303
    1STR    S0015490   4.547   0.021  16.664
    1STR    S0E15491   4.177   0.757  17.235
    1STR    S0M15492   4.198  16.730  17.056
    1STR    S0X15493   5.118  17.250   0.110
    1STR    S1415494   4.412   0.072   0.786
    1STR    S1B15495   3.682  17.237   0.183
    1HEX    C0115496   4.637  17.296   3.672
    1HEX    C0215497   4.570  17.396   3.769
    1HEX    C0315498   4.425  17.363   3.801
    1HEX    O0415499   4.379  17.250   3.786
    1HEX    O0515500   4.358   0.029   3.852
    1HEX    C0615501   4.219   0.018   3.878
    1HEX    C0715502   4.186  17.438   4.029
    1HEX    C0815503   4.207   0.133   4.107
    1HEX    O0915504   4.158   0.266   4.078
    1HEX    C0A15505   4.186   0.363   4.175
    1HEX    O0B15506   4.216   0.335   4.291
    1HEX    C0C15507   4.184   0.513   4.133
    1HEX    C0D15508   4.250   0.608   4.241
    1HEX    C0F15509   4.040  17.380   4.037
    1HEX    O0G15510   4.043  17.236   4.021
    1HEX    C0H15511   3.991  17.173   3.914
    1HEX    O0I15512   3.918  17.225   3.830
    1HEX    C0J15513   4.036  17.026   3.899
    1HEX    C0K15514   4.019  16.936   4.025
    1HEX    C0N15515   4.279  17.326   4.093
    1HEX    O0O15516   4.412  17.356   4.140
    1HEX    C0P15517   4.447  17.429   4.260
    1HEX    C0Q15518   4.406  17.381   4.404
    1HEX    C0R15519   4.473  17.241   4.430
    1HEX    O0S15520   4.615  17.237   4.396
    1HEX    C0T15521   4.715  17.250   4.490
    1HEX    O0U15522   4.697  17.272   4.609
    1HEX    C0V15523   4.858  17.229   4.435
    1HEX    C0W15524   4.952  17.353   4.445
    1HEX    C0Y15525   4.468   0.041   4.504
    1HEX    O0Z15526   4.433   0.004   4.636
    1HEX    C1015527   4.490   0.066   4.738
    1HEX    O1115528   4.571   0.158   4.730
    1HEX    C1215529   4.443   0.011   4.872
    1HEX    C1315530   4.548   0.035   4.982
    1HEX    C1515531   4.249  17.395   4.418
    1HEX    O1615532   4.167  17.351   4.527
    1HEX    C1715533   4.048  17.291   4.495
    1HEX    O1815534   4.036  17.205   4.407
    1HEX    C1915535   3.922  17.345   4.566
    1HEX    C1A15536   3.821  17.404   4.462
    1HEX    H1D15537   4.744  17.294   3.691
    1HEX    H1E15538   4.602  17.196   3.694
    1HEX    H1F15539   4.578   0.058   3.734
    1HEX    H1G15540   4.621  17.391   3.866
    1HEX    H1H15541   4.175  17.378   3.818
    1HEX    H1I15542   4.171   0.109   3.842
    1HEX    H1J15543   4.313   0.151   4.096
    1HEX    H1K15544   4.184   0.112   4.211
    1HEX    H1M15545   4.080   0.542   4.114
    1HEX    H1N15546   4.237   0.523   4.038
    1HEX    H1O15547   4.358   0.589   4.245
    1HEX    H1P15548   4.213   0.580   4.339
    1HEX    H1R15549   3.973  17.428   3.964
    1HEX    H1S15550   3.995  17.400   4.134
    1HEX    H1T15551   4.141  17.028   3.869
    1HEX    H1U15552   3.981  16.983   3.815
    1HEX    H1V15553   3.917  16.941   4.061
    1HEX    H1W15554   4.082  16.972   4.106
    1HEX    H1Y15555   4.294  17.252   4.015
    1HEX    H1Z15556   4.228  17.261   4.164
    1HEX    H2015557   4.424   0.095   4.253
    1HEX    H2115558   4.556  17.429   4.256
    1HEX    H2215559   4.422  17.166   4.369
    1HEX    H2315560   4.457  17.210   4.533
    1HEX    H2415561   4.853  17.190   4.334
    1HEX    H2515562   4.902  17.149   4.496
    1HEX    H2615563   4.954  17.390   4.547
    1HEX    H2715564   4.911  17.434   4.384
    1HEX    H2915565   4.435   0.143   4.486
    1HEX    H2A15566   4.577   0.043   4.495
    1HEX    H2B15567   4.426  17.344   4.859
    1HEX    H2C15568   4.348   0.057   4.898
    1HEX    H2D15569   4.554   0.141   5.005
    1HEX    H2E15570   4.646   0.005   4.946
    1HEX    H2G15571   4.201  17.361   4.329
    1HEX    H2H15572   4.229   0.062   4.416
    1HEX    H2I15573   3.950  17.419   4.641
    1HEX    H2J15574   3.877  17.261   4.618
    1HEX    H2K15575   3.826  17.346   4.369
    1HEX    H2M15576   3.850   0.065   4.435
    1STR    S0015577   4.616  17.327   3.492
    1STR    S0E15578   4.223   0.793   4.232
    1STR    S0M15579   4.058  16.760   3.989
    1STR    S0X15580   5.127  17.323   4.388
    1STR    S1415581   4.510  17.381   5.134
    1STR    S1B15582   3.642  17.408   4.509
    1HEX    C0115583   4.588  17.265   7.984
    1HEX    C0215584   4.572  17.303   8.133
    1HEX    C0315585   4.429  17.281   8.180
    1HEX    O0415586   4.379  17.168   8.178
    1HEX    O0515587   4.368  17.394   8.223
    1HEX    C0615588   4.231  17.389   8.260
    1HEX    C0715589   4.207  17.380   8.414
    1HEX    C0815590   4.215   0.084   8.478
    1HEX    O0915591   4.155   0.208   8.437
    1HEX    C0A15592   4.162   0.312   8.531
    1HEX    O0B15593   4.166   0.293   8.653
    1HEX    C0C15594   4.174   0.456   8.476
    1HEX    C0D15595   4.174   0.570   8.586
    1HEX    C0F15596   4.071  17.303   8.436
    1HEX    O0G15597   4.094  17.160   8.448
    1HEX    C0H15598   4.063  17.072   8.349
    1HEX    O0I15599   3.993  17.100   8.252
    1HEX    C0J15600   4.130  16.933   8.360
    1HEX    C0K15601   4.141  16.864   8.500
    1HEX    C0N15602   4.316  17.290   8.487
    1HEX    O0O15603   4.443  17.345   8.523
    1HEX    C0P15604   4.468  17.422   8.643
    1HEX    C0Q15605   4.422  17.372   8.785
    1HEX    C0R15606   4.471  17.226   8.807
    1HEX    O0S15607   4.607  17.208   8.765
    1HEX    C0T15608   4.711  17.212   8.851
    1HEX    O0U15609   4.703  17.232   8.972
    1HEX    C0V15610   4.847  17.187   8.784
    1HEX    C0W15611   4.952  17.295   8.815
    1HEX    C0Y15612   4.489   0.025   8.890
    1HEX    O0Z15613   4.445  17.434   9.021
    1HEX    C1015614   4.495   0.064   9.124
    1HEX    O1115615   4.583   0.150   9.116
    1HEX    C1215616   4.429   0.029   9.258
    1HEX    C1315617   4.522   0.042   9.380
    1HEX    C1515618   4.268  17.394   8.798
    1HEX    O1615619   4.195  17.344   8.911
    1HEX    C1715620   4.073  17.289   8.887
    1HEX    O1815621   4.044  17.220   8.790
    1HEX    C1915622   3.967  17.330   8.989
    1HEX    C1A15623   3.855  17.419   8.925
    1HEX    H1D15624   4.680  17.208   7.969
    1HEX    H1E15625   4.507  17.200   7.951
    1HEX    H1F15626   4.603  17.405   8.153
    1HEX    H1G15627   4.634  17.238   8.195
    1HEX    H1H15628   4.182  17.307   8.208
    1HEX    H1I15629   4.183   0.039   8.221
    1HEX    H1J15630   4.319   0.112   8.469
    1HEX    H1K15631   4.189   0.071   8.582
    1HEX    H1M15632   4.095   0.473   8.403
    1HEX    H1N15633   4.268   0.459   8.421
    1HEX    H1O15634   4.190   0.530   8.686
    1HEX    H1P15635   4.075   0.616   8.590
    1HEX    H1R15636   3.998  17.327   8.359
    1HEX    H1S15637   4.024  17.335   8.529
    1HEX    H1T15638   4.230  16.944   8.317
    1HEX    H1U15639   4.076  16.868   8.292
    1HEX    H1V15640   4.044  16.862   8.549
    1HEX    H1W15641   4.207  16.921   8.565
    1HEX    H1Y15642   4.339  17.208   8.419
    1HEX    H1Z15643   4.277  17.233   8.570
    1HEX    H2015644   4.438   0.086   8.632
    1HEX    H2115645   4.577  17.429   8.645
    1HEX    H2215646   4.409  17.158   8.748
    1HEX    H2315647   4.456  17.196   8.911
    1HEX    H2415648   4.831  17.178   8.676
    1HEX    H2515649   4.882  17.090   8.819
    1HEX    H2615650   4.919  17.394   8.782
    1HEX    H2715651   4.967  17.303   8.923
    1HEX    H2915652   4.466   0.130   8.869
    1HEX    H2A15653   4.598   0.017   8.885
    1HEX    H2B15654   4.389  17.367   9.252
    1HEX    H2C15655   4.343   0.095   9.266
    1HEX    H2D15656   4.608   0.105   9.355
    1HEX    H2E15657   4.563  17.386   9.410
    1HEX    H2G15658   4.217  17.357   8.711
    1HEX    H2H15659   4.248   0.061   8.797
    1HEX    H2I15660   4.016  17.384   9.070
    1HEX    H2J15661   3.925  17.239   9.032
    1HEX    H2K15662   3.883   0.013   8.825
    1HEX    H2M15663   3.838   0.068   8.984
    1STR    S0015664   4.595  17.413   7.878
    1STR    S0E15665   4.300   0.704   8.563
    1STR    S0M15666   4.205  16.690   8.484
    1STR    S0X15667   5.115  17.256   8.738
    1STR    S1415668   4.441   0.123   9.523
    1STR    S1B15669   3.697  17.329   8.915
    1HEX    C0115670   4.521  17.283  12.304
    1HEX    C0215671   4.537  17.330  12.450
    1HEX    C0315672   4.405  17.316  12.523
    1HEX    O0415673   4.349  17.207  12.528
    1HEX    O0515674   4.357  17.432  12.571
    1HEX    C0615675   4.219   0.001  12.606
    1HEX    C0715676   4.190  17.431  12.758
    1HEX    C0815677   4.219   0.131  12.826
    1HEX    O0915678   4.154   0.258  12.801
    1HEX    C0A15679   4.165   0.355  12.901
    1HEX    O0B15680   4.185   0.328  13.020
    1HEX    C0C15681   4.156   0.504  12.859
    1HEX    C0D15682   4.200   0.602  12.975
    1HEX    C0F15683   4.042  17.380  12.775
    1HEX    O0G15684   4.038  17.236  12.769
    1HEX    C0H15685   4.003  17.168  12.657
    1HEX    O0I15686   3.943  17.218  12.562
    1HEX    C0J15687   4.054  17.023  12.651
    1HEX    C0K15688   4.068  16.942  12.783
    1HEX    C0N15689   4.279  17.319  12.826
    1HEX    O0O15690   4.415  17.347  12.862
    1HEX    C0P15691   4.453  17.423  12.978
    1HEX    C0Q15692   4.413  17.377  13.122
    1HEX    C0R15693   4.474  17.235  13.146
    1HEX    O0S15694   4.614  17.223  13.110
    1HEX    C0T15695   4.716  17.235  13.201
    1HEX    O0U15696   4.702  17.265  13.319
    1HEX    C0V15697   4.856  17.199  13.147
    1HEX    C0W15698   4.955  17.318  13.123
    1HEX    C0Y15699   4.483   0.035  13.219
    1HEX    O0Z15700   4.439   0.005  13.349
    1HEX    C1015701   4.490   0.070  13.453
    1HEX    O1115702   4.580   0.153  13.450
    1HEX    C1215703   4.417   0.031  13.580
    1HEX    C1315704   4.490   0.077  13.707
    1HEX    C1515705   4.257  17.397  13.145
    1HEX    O1615706   4.178  17.325  13.242
    1HEX    C1715707   4.063  17.264  13.198
    1HEX    O1815708   4.054  17.206  13.090
    1HEX    C1915709   3.938  17.283  13.286
    1HEX    C1A15710   3.829  17.366  13.212
    1HEX    H1D15711   4.593  17.206  12.279
    1HEX    H1E15712   4.423  17.236  12.290
    1HEX    H1F15713   4.572  17.433  12.457
    1HEX    H1G15714   4.610  17.268  12.502
    1HEX    H1H15715   4.163  17.366  12.550
    1HEX    H1I15716   4.181   0.096  12.567
    1HEX    H1J15717   4.322   0.153  12.802
    1HEX    H1K15718   4.213   0.114  12.932
    1HEX    H1M15719   4.054   0.525  12.827
    1HEX    H1N15720   4.220   0.519  12.773
    1HEX    H1O15721   4.305   0.586  12.999
    1HEX    H1P15722   4.146   0.576  13.067
    1HEX    H1R15723   3.975  17.426  12.701
    1HEX    H1S15724   4.003  17.409  12.872
    1HEX    H1T15725   4.152  17.030  12.604
    1HEX    H1U15726   3.991  16.968  12.581
    1HEX    H1V15727   3.972  16.897  12.810
    1HEX    H1W15728   4.096  17.005  12.868
    1HEX    H1Y15729   4.286  17.237  12.756
    1HEX    H1Z15730   4.230  17.265  12.907
    1HEX    H2015731   4.431   0.088  12.966
    1HEX    H2115732   4.562  17.421  12.972
    1HEX    H2215733   4.419  17.162  13.086
    1HEX    H2315734   4.459  17.204  13.250
    1HEX    H2415735   4.846  17.139  13.057
    1HEX    H2515736   4.900  17.134  13.223
    1HEX    H2615737   4.950  17.390  13.205
    1HEX    H2715738   4.927  17.373  13.033
    1HEX    H2915739   4.457   0.139  13.196
    1HEX    H2A15740   4.591   0.030  13.213
    1HEX    H2B15741   4.405  17.363  13.580
    1HEX    H2C15742   4.318   0.075  13.575
    1HEX    H2D15743   4.512   0.183  13.706
    1HEX    H2E15744   4.586   0.025  13.716
    1HEX    H2G15745   4.203  17.392  13.053
    1HEX    H2H15746   4.242   0.061  13.171
    1HEX    H2I15747   3.966  17.328  13.382
    1HEX    H2J15748   3.900  17.183  13.308
    1HEX    H2K15749   3.841  17.356  13.104
    1HEX    H2M15750   3.844   0.032  13.233
    1STR    S0015751   4.529  17.418  12.182
    1STR    S0E15752   4.174   0.785  12.952
    1STR    S0M15753   4.191  16.807  12.760
    1STR    S0X15754   5.130  17.260  13.105
    1STR    S1415755   4.385   0.035  13.850
    1STR    S1B15756   3.652  17.327  13.249
    1HEX    C0115757   4.595   4.273  16.694
    1HEX    C0215758   4.552   4.243  16.840
    1HEX    C0315759   4.402   4.238  16.864
    1HEX    O0415760   4.337   4.138  16.832
    1HEX    O0515761   4.355   4.347  16.927
    1HEX    C0615762   4.217   4.355  16.961
    1HEX    C0715763   4.190   4.343  17.114
    1HEX    C0815764   4.216   4.482  17.184
    1HEX    O0915765   4.164   4.612  17.150
    1HEX    C0A15766   4.192   4.716  17.240
    1HEX    O0B15767   4.217   4.698  17.359
    1HEX    C0C15768   4.196   4.861  17.182
    1HEX    C0D15769   4.162   4.980  17.281
    1HEX    C0F15770   4.044   4.286  17.131
    1HEX    O0G15771   4.045   4.141  17.136
    1HEX    C0H15772   3.999   4.061  17.038
    1HEX    O0I15773   3.933   4.099  16.942
    1HEX    C0J15774   4.041   3.913  17.054
    1HEX    C0K15775   3.934   3.819  17.118
    1HEX    C0N15776   4.287   4.235  17.180
    1HEX    O0O15777   4.418   4.271  17.228
    1HEX    C0P15778   4.446   4.345  17.350
    1HEX    C0Q15779   4.402   4.297   0.053
    1HEX    C0R15780   4.463   4.156   0.078
    1HEX    O0S15781   4.603   4.145   0.038
    1HEX    C0T15782   4.707   4.155   0.126
    1HEX    O0U15783   4.695   4.178   0.246
    1HEX    C0V15784   4.846   4.132   0.062
    1HEX    C0W15785   4.961   4.215   0.130
    1HEX    C0Y15786   4.466   4.397   0.154
    1HEX    O0Z15787   4.433   4.370   0.290
    1HEX    C1015788   4.492   4.446   0.386
    1HEX    O1115789   4.575   4.534   0.365
    1HEX    C1215790   4.444   4.413   0.527
    1HEX    C1315791   4.560   4.378   0.624
    1HEX    C1515792   4.246   4.312   0.064
    1HEX    O1615793   4.167   4.267   0.175
    1HEX    C1715794   4.044   4.212   0.146
    1HEX    O1815795   4.022   4.138   0.050
    1HEX    C1915796   3.928   4.255   0.237
    1HEX    C1A15797   3.821   4.338   0.158
    1HEX    H1D15798   4.555   4.173  16.676
    1HEX    H1E15799   4.552   4.372  16.698
    1HEX    H1F15800   4.594   4.319  16.907
    1HEX    H1G15801   4.593   4.148  16.875
    1HEX    H1H15802   4.159   4.280  16.905
    1HEX    H1I15803   4.179   4.451  16.924
    1HEX    H1J15804   4.322   4.499  17.168
    1HEX    H1K15805   4.198   4.467  17.290
    1HEX    H1M15806   4.124   4.862  17.101
    1HEX    H1N15807   4.293   4.876  17.136
    1HEX    H1O15808   4.109   4.938  17.366
    1HEX    H1P15809   4.092   5.049  17.234
    1HEX    H1R15810   3.976   4.323  17.053
    1HEX    H1S15811   4.001   4.320  17.225
    1HEX    H1T15812   4.135   3.908  17.107
    1HEX    H1U15813   4.063   3.876  16.953
    1HEX    H1V15814   3.889   3.755  17.041
    1HEX    H1W15815   3.853   3.881  17.156
    1HEX    H1Y15816   4.305   4.160  17.103
    1HEX    H1Z15817   4.239   4.171  17.254
    1HEX    H2015818   4.420   4.450  17.340
    1HEX    H2115819   4.555   4.349  17.349
    1HEX    H2215820   4.407   4.082   0.020
    1HEX    H2315821   4.451   4.127   0.182
    1HEX    H2415822   4.839   4.154  17.396
    1HEX    H2515823   4.869   4.026   0.071
    1HEX    H2615824   4.921   4.309   0.167
    1HEX    H2715825   4.995   4.161   0.218
    1HEX    H2915826   4.435   4.499   0.131
    1HEX    H2A15827   4.575   4.396   0.143
    1HEX    H2B15828   4.373   4.331   0.523
    1HEX    H2C15829   4.389   4.500   0.563
    1HEX    H2D15830   4.655   4.395   0.572
    1HEX    H2E15831   4.558   4.272   0.649
    1HEX    H2G15832   4.198   4.277  17.415
    1HEX    H2H15833   4.224   4.419   0.061
    1HEX    H2I15834   3.967   4.311   0.323
    1HEX    H2J15835   3.883   4.164   0.277
    1HEX    H2K15836   3.838   4.329   0.051
    1HEX    H2M15837   3.833   4.444   0.181
    1STR    S0015838   4.504   4.259  16.535
    1STR    S0E15839   4.299   5.083  17.354
    1STR    S0M15840   3.984   3.710  17.258
    1STR    S0X15841   5.108   4.255   0.025
    1STR    S1415842   4.570   4.476   0.778
    1STR    S1B15843   3.645   4.294   0.187
    1HEX    C0115844   4.597   4.217   3.609
    1HEX    C0215845   4.558   4.263   3.751
    1HEX    C0315846   4.418   4.224   3.794
    1HEX    O0415847   4.378   4.108   3.786
    1HEX    O0515848   4.349   4.328   3.846
    1HEX    C0615849   4.215   4.312   3.889
    1HEX    C0715850   4.201   4.303   4.043
    1HEX    C0815851   4.206   4.448   4.106
    1HEX    O0915852   4.141   4.570   4.063
    1HEX    C0A15853   4.157   4.680   4.149
    1HEX    O0B15854   4.192   4.668   4.266
    1HEX    C0C15855   4.136   4.822   4.091
    1HEX    C0D15856   4.181   4.935   4.192
    1HEX    C0F15857   4.068   4.222   4.072
    1HEX    O0G15858   4.096   4.079   4.078
    1HEX    C0H15859   4.060   3.992   3.981
    1HEX    O0I15860   3.983   4.019   3.889
    1HEX    C0J15861   4.132   3.854   3.985
    1HEX    C0K15862   4.148   3.782   4.123
    1HEX    C0N15863   4.315   4.215   4.109
    1HEX    O0O15864   4.441   4.274   4.148
    1HEX    C0P15865   4.461   4.347   4.271
    1HEX    C0Q15866   4.417   4.293   4.411
    1HEX    C0R15867   4.474   4.150   4.433
    1HEX    O0S15868   4.616   4.140   4.407
    1HEX    C0T15869   4.707   4.142   4.508
    1HEX    O0U15870   4.682   4.163   4.626
    1HEX    C0V15871   4.850   4.109   4.464
    1HEX    C0W15872   4.939   4.232   4.429
    1HEX    C0Y15873   4.479   4.388   4.516
    1HEX    O0Z15874   4.438   4.354   4.648
    1HEX    C1015875   4.496   4.417   4.752
    1HEX    O1115876   4.585   4.501   4.743
    1HEX    C1215877   4.434   4.376   4.885
    1HEX    C1315878   4.522   4.412   5.008
    1HEX    C1515879   4.261   4.305   4.425
    1HEX    O1615880   4.191   4.253   4.539
    1HEX    C1715881   4.067   4.199   4.521
    1HEX    O1815882   4.028   4.144   4.417
    1HEX    C1915883   3.970   4.218   4.638
    1HEX    C1A15884   3.844   4.299   4.596
    1HEX    H1D15885   4.621   4.111   3.611
    1HEX    H1E15886   4.687   4.270   3.577
    1HEX    H1F15887   4.566   4.371   3.759
    1HEX    H1G15888   4.627   4.221   3.824
    1HEX    H1H15889   4.170   4.226   3.839
    1HEX    H1I15890   4.158   4.398   3.851
    1HEX    H1J15891   4.310   4.478   4.095
    1HEX    H1K15892   4.184   4.437   4.211
    1HEX    H1M15893   4.031   4.834   4.064
    1HEX    H1N15894   4.194   4.831   3.999
    1HEX    H1O15895   4.288   4.925   4.211
    1HEX    H1P15896   4.135   4.916   4.290
    1HEX    H1R15897   3.990   4.244   3.999
    1HEX    H1S15898   4.026   4.250   4.168
    1HEX    H1T15899   4.229   3.868   3.939
    1HEX    H1U15900   4.077   3.789   3.917
    1HEX    H1V15901   4.053   3.779   4.176
    1HEX    H1W15902   4.217   3.838   4.187
    1HEX    H1Y15903   4.341   4.139   4.036
    1HEX    H1Z15904   4.282   4.152   4.190
    1HEX    H2015905   4.428   4.450   4.261
    1HEX    H2115906   4.570   4.357   4.273
    1HEX    H2215907   4.424   4.079   4.366
    1HEX    H2315908   4.451   4.115   4.534
    1HEX    H2415909   4.847   4.039   4.381
    1HEX    H2515910   4.895   4.055   4.547
    1HEX    H2615911   4.890   4.325   4.458
    1HEX    H2715912   4.954   4.237   4.321
    1HEX    H2915913   4.450   4.492   4.497
    1HEX    H2A15914   4.587   4.387   4.510
    1HEX    H2B15915   4.412   4.269   4.883
    1HEX    H2C15916   4.339   4.428   4.890
    1HEX    H2D15917   4.580   4.502   4.988
    1HEX    H2E15918   4.594   4.333   5.028
    1HEX    H2G15919   4.212   4.266   4.337
    1HEX    H2H15920   4.235   4.411   4.424
    1HEX    H2I15921   4.023   4.268   4.719
    1HEX    H2J15922   3.943   4.119   4.674
    1HEX    H2K15923   3.849   4.324   4.490
    1HEX    H2M15924   3.839   4.394   4.649
    1STR    S0015925   4.470   4.242   3.480
    1STR    S0E15926   4.145   5.113   4.153
    1STR    S0M15927   4.211   3.608   4.102
    1STR    S0X15928   5.104   4.226   4.513
    1STR    S1415929   4.419   4.446   5.155
    1STR    S1B15930   3.685   4.211   4.621
    1HEX    C0115931   4.592   4.231   7.976
    1HEX    C0215932   4.574   4.283   8.120
    1HEX    C0315933   4.432   4.261   8.169
    1HEX    O0415934   4.382   4.149   8.165
    1HEX    O0515935   4.374   4.374   8.215
    1HEX    C0615936   4.233   4.374   8.239
    1HEX    C0715937   4.195   4.359   8.389
    1HEX    C0815938   4.217   4.496   8.465
    1HEX    O0915939   4.164   4.628   8.439
    1HEX    C0A15940   4.185   4.724   8.539
    1HEX    O0B15941   4.211   4.694   8.656
    1HEX    C0C15942   4.181   4.875   8.501
    1HEX    C0D15943   4.243   4.968   8.613
    1HEX    C0F15944   4.048   4.303   8.394
    1HEX    O0G15945   4.049   4.159   8.379
    1HEX    C0H15946   4.020   4.098   8.262
    1HEX    O0I15947   3.961   4.153   8.168
    1HEX    C0J15948   4.071   3.954   8.247
    1HEX    C0K15949   4.098   3.870   8.375
    1HEX    C0N15950   4.282   4.246   8.459
    1HEX    O0O15951   4.417   4.272   8.501
    1HEX    C0P15952   4.453   4.348   8.618
    1HEX    C0Q15953   4.413   4.302   8.762
    1HEX    C0R15954   4.476   4.162   8.788
    1HEX    O0S15955   4.618   4.155   8.752
    1HEX    C0T15956   4.720   4.169   8.844
    1HEX    O0U15957   4.704   4.193   8.963
    1HEX    C0V15958   4.862   4.146   8.787
    1HEX    C0W15959   4.956   4.271   8.785
    1HEX    C0Y15960   4.478   4.402   8.860
    1HEX    O0Z15961   4.433   4.367   8.988
    1HEX    C1015962   4.486   4.423   9.095
    1HEX    O1115963   4.574   4.508   9.097
    1HEX    C1215964   4.419   4.370   9.220
    1HEX    C1315965   4.499   4.401   9.346
    1HEX    C1515966   4.256   4.321   8.780
    1HEX    O1615967   4.172   4.259   8.879
    1HEX    C1715968   4.055   4.201   8.835
    1HEX    O1815969   4.047   4.131   8.734
    1HEX    C1915970   3.927   4.240   8.911
    1HEX    C1A15971   3.826   4.316   8.818
    1HEX    H1D15972   4.694   4.200   7.958
    1HEX    H1E15973   4.531   4.142   7.961
    1HEX    H1F15974   4.601   4.388   8.129
    1HEX    H1G15975   4.638   4.227   8.188
    1HEX    H1H15976   4.186   4.297   8.178
    1HEX    H1I15977   4.193   4.467   8.200
    1HEX    H1J15978   4.323   4.516   8.450
    1HEX    H1K15979   4.199   4.476   8.569
    1HEX    H1M15980   4.078   4.902   8.480
    1HEX    H1N15981   4.237   4.887   8.408
    1HEX    H1O15982   4.349   4.947   8.623
    1HEX    H1P15983   4.200   4.940   8.710
    1HEX    H1R15984   3.984   4.351   8.320
    1HEX    H1S15985   4.001   4.325   8.490
    1HEX    H1T15986   4.163   3.961   8.189
    1HEX    H1U15987   4.000   3.901   8.183
    1HEX    H1V15988   4.007   3.858   8.433
    1HEX    H1W15989   4.170   3.920   8.440
    1HEX    H1Y15990   4.293   4.166   8.387
    1HEX    H1Z15991   4.228   4.189   8.535
    1HEX    H2015992   4.431   4.454   8.608
    1HEX    H2115993   4.562   4.347   8.613
    1HEX    H2215994   4.424   4.087   8.729
    1HEX    H2315995   4.462   4.132   8.892
    1HEX    H2415996   4.854   4.100   8.688
    1HEX    H2515997   4.907   4.070   8.851
    1HEX    H2615998   4.957   4.319   8.883
    1HEX    H2715999   4.917   4.345   8.715
    1HEX    H2916000   4.450   4.505   8.839
    1HEX    H2A16001   4.587   4.399   8.855
    1HEX    H2B16002   4.409   4.262   9.208
    1HEX    H2C16003   4.319   4.412   9.226
    1HEX    H2D16004   4.499   4.509   9.364
    1HEX    H2E16005   4.604   4.372   9.335
    1HEX    H2G16006   4.205   4.309   8.687
    1HEX    H2H16007   4.239   4.428   8.798
    1HEX    H2I16008   3.951   4.298   9.000
    1HEX    H2J16009   3.881   4.147   8.945
    1HEX    H2K16010   3.849   4.292   8.714
    1HEX    H2M16011   3.842   4.424   8.826
    1STR    S0016012   4.543   4.352   7.848
    1STR    S0E16013   4.220   5.153   8.603
    1STR    S0M16014   4.161   3.703   8.328
    1STR    S0X16015   5.131   4.232   8.735
    1STR    S1416016   4.426   4.312   9.487
    1STR    S1B16017   3.645   4.284   8.841
    1HEX    C0116018   4.561   4.124  12.360
    1HEX    C0216019   4.544   4.193  12.497
    1HEX    C0316020   4.400   4.187  12.545
    1HEX    O0416021   4.341   4.080  12.549
    1HEX    O0516022   4.351   4.307  12.584
    1HEX    C0616023   4.214   4.317  12.623
    1HEX    C0716024   4.191   4.318  12.777
    1HEX    C0816025   4.217   4.462  12.834
    1HEX    O0916026   4.151   4.587  12.802
    1HEX    C0A16027   4.163   4.689  12.896
    1HEX    O0B16028   4.178   4.669  13.017
    1HEX    C0C16029   4.165   4.834  12.842
    1HEX    C0D16030   4.144   4.948  12.949
    1HEX    C0F16031   4.047   4.259  12.802
    1HEX    O0G16032   4.054   4.116  12.824
    1HEX    C0H16033   4.015   4.024  12.734
    1HEX    O0I16034   3.940   4.046  12.639
    1HEX    C0J16035   4.084   3.887  12.751
    1HEX    C0K16036   4.027   3.789  12.858
    1HEX    C0N16037   4.291   4.220  12.851
    1HEX    O0O16038   4.423   4.265  12.885
    1HEX    C0P16039   4.453   4.345  13.002
    1HEX    C0Q16040   4.409   4.299  13.146
    1HEX    C0R16041   4.459   4.154  13.169
    1HEX    O0S16042   4.598   4.134  13.132
    1HEX    C0T16043   4.700   4.141  13.223
    1HEX    O0U16044   4.688   4.175  13.340
    1HEX    C0V16045   4.836   4.095  13.168
    1HEX    C0W16046   4.940   4.207  13.135
    1HEX    C0Y16047   4.479   4.394  13.247
    1HEX    O0Z16048   4.438   4.366  13.380
    1HEX    C1016049   4.489   4.438  13.481
    1HEX    O1116050   4.574   4.527  13.469
    1HEX    C1216051   4.428   4.401  13.616
    1HEX    C1316052   4.530   4.402  13.733
    1HEX    C1516053   4.254   4.323  13.164
    1HEX    O1616054   4.181   4.266  13.273
    1HEX    C1716055   4.071   4.191  13.243
    1HEX    O1816056   4.064   4.114  13.148
    1HEX    C1916057   3.948   4.218  13.331
    1HEX    C1A16058   3.838   4.292  13.251
    1HEX    H1D16059   4.635   4.045  12.367
    1HEX    H1E16060   4.468   4.077  12.327
    1HEX    H1F16061   4.576   4.298  12.494
    1HEX    H1G16062   4.605   4.144  12.572
    1HEX    H1H16063   4.157   4.237  12.575
    1HEX    H1I16064   4.174   4.409  12.579
    1HEX    H1J16065   4.320   4.485  12.809
    1HEX    H1K16066   4.211   4.452  12.941
    1HEX    H1M16067   4.088   4.842  12.765
    1HEX    H1N16068   4.260   4.848  12.792
    1HEX    H1O16069   4.125   4.905  13.047
    1HEX    H1P16070   4.054   5.005  12.926
    1HEX    H1R16071   3.978   4.284  12.722
    1HEX    H1S16072   4.003   4.304  12.892
    1HEX    H1T16073   4.188   3.909  12.773
    1HEX    H1U16074   4.085   3.838  12.654
    1HEX    H1V16075   3.946   3.730  12.816
    1HEX    H1W16076   3.985   3.843  12.944
    1HEX    H1Y16077   4.306   4.134  12.786
    1HEX    H1Z16078   4.249   4.169  12.937
    1HEX    H2016079   4.427   4.449  12.987
    1HEX    H2116080   4.562   4.347  13.001
    1HEX    H2216081   4.400   4.085  13.109
    1HEX    H2316082   4.442   4.124  13.273
    1HEX    H2416083   4.820   4.030  13.082
    1HEX    H2516084   4.876   4.031  13.246
    1HEX    H2616085   4.907   4.303  13.174
    1HEX    H2716086   4.949   4.219  13.027
    1HEX    H2916087   4.455   4.499  13.225
    1HEX    H2A16088   4.587   4.387  13.239
    1HEX    H2B16089   4.383   4.302  13.608
    1HEX    H2C16090   4.347   4.471  13.634
    1HEX    H2D16091   4.625   4.442  13.699
    1HEX    H2E16092   4.551   4.300  13.767
    1HEX    H2G16093   4.199   4.300  13.075
    1HEX    H2H16094   4.238   4.431  13.174
    1HEX    H2I16095   3.977   4.272  13.421
    1HEX    H2J16096   3.911   4.120  13.363
    1HEX    H2K16097   3.838   4.261  13.147
    1HEX    H2M16098   3.858   4.400  13.251
    1STR    S0016099   4.614   4.242  12.232
    1STR    S0E16100   4.283   5.068  12.972
    1STR    S0M16101   4.160   3.672  12.911
    1STR    S0X16102   5.106   4.166  13.203
    1STR    S1416103   4.478   4.504  13.876
    1STR    S1B16104   3.668   4.268  13.317
    1HEX    C0116105   4.612   8.561  16.749
    1HEX    C0216106   4.549   8.540  16.888
    1HEX    C0316107   4.398   8.557  16.891
    1HEX    O0416108   4.325   8.462  16.866
    1HEX    O0516109   4.360   8.678  16.937
    1HEX    C0616110   4.223   8.700  16.966
    1HEX    C0716111   4.187   8.678  17.116
    1HEX    C0816112   4.183   8.817  17.192
    1HEX    O0916113   4.139   8.948  17.147
    1HEX    C0A16114   4.158   9.052  17.241
    1HEX    O0B16115   4.186   9.031  17.359
    1HEX    C0C16116   4.146   9.199  17.192
    1HEX    C0D16117   4.177   9.304  17.306
    1HEX    C0F16118   4.053   8.596  17.121
    1HEX    O0G16119   4.081   8.454  17.111
    1HEX    C0H16120   4.034   8.375  17.012
    1HEX    O0I16121   3.942   8.405  16.937
    1HEX    C0J16122   4.112   8.242  16.994
    1HEX    C0K16123   4.119   8.143  17.114
    1HEX    C0N16124   4.291   8.583  17.190
    1HEX    O0O16125   4.424   8.626  17.224
    1HEX    C0P16126   4.458   8.701  17.343
    1HEX    C0Q16127   4.417   8.652   0.046
    1HEX    C0R16128   4.474   8.510   0.070
    1HEX    O0S16129   4.614   8.496   0.037
    1HEX    C0T16130   4.712   8.504   0.132
    1HEX    O0U16131   4.694   8.535   0.250
    1HEX    C0V16132   4.853   8.464   0.083
    1HEX    C0W16133   4.953   8.581   0.056
    1HEX    C0Y16134   4.485   8.750   0.144
    1HEX    O0Z16135   4.442   8.723   0.276
    1HEX    C1016136   4.498   8.787   0.378
    1HEX    O1116137   4.591   8.867   0.371
    1HEX    C1216138   4.427   8.755   0.508
    1HEX    C1316139   4.510   8.789   0.633
    1HEX    C1516140   4.261   8.671   0.066
    1HEX    O1616141   4.184   8.595   0.161
    1HEX    C1716142   4.063   8.543   0.122
    1HEX    O1816143   4.036   8.507   0.007
    1HEX    C1916144   3.955   8.539   0.230
    1HEX    C1A16145   3.823   8.615   0.192
    1HEX    H1D16146   4.711   8.514  16.748
    1HEX    H1E16147   4.625   8.667  16.734
    1HEX    H1F16148   4.592   8.611  16.958
    1HEX    H1G16149   4.571   8.441  16.927
    1HEX    H1H16150   4.162   8.636  16.901
    1HEX    H1I16151   4.196   8.801  16.934
    1HEX    H1J16152   4.287   8.841  17.206
    1HEX    H1K16153   4.137   8.803  17.289
    1HEX    H1M16154   4.047   9.214  17.150
    1HEX    H1N16155   4.217   9.212  17.110
    1HEX    H1O16156   4.277   9.288  17.346
    1HEX    H1P16157   4.110   9.286  17.390
    1HEX    H1R16158   3.981   8.630  17.045
    1HEX    H1S16159   4.001   8.612  17.216
    1HEX    H1T16160   4.213   8.269  16.965
    1HEX    H1U16161   4.071   8.191  16.907
    1HEX    H1V16162   4.023   8.093  17.127
    1HEX    H1W16163   4.139   8.197  17.207
    1HEX    H1Y16164   4.310   8.499  17.123
    1HEX    H1Z16165   4.247   8.526  17.272
    1HEX    H2016166   4.435   8.806  17.333
    1HEX    H2116167   4.567   8.701  17.339
    1HEX    H2216168   4.419   8.438   0.008
    1HEX    H2316169   4.455   8.479   0.173
    1HEX    H2416170   4.844   8.398  17.437
    1HEX    H2516171   4.893   8.403   0.164
    1HEX    H2616172   4.936   8.664   0.124
    1HEX    H2716173   4.938   8.619  17.395
    1HEX    H2916174   4.460   8.854   0.121
    1HEX    H2A16175   4.594   8.745   0.138
    1HEX    H2B16176   4.402   8.649   0.508
    1HEX    H2C16177   4.334   8.812   0.507
    1HEX    H2D16178   4.556   8.888   0.627
    1HEX    H2E16179   4.592   8.717   0.644
    1HEX    H2G16180   4.212   8.661  17.412
    1HEX    H2H16181   4.241   8.775   0.090
    1HEX    H2I16182   3.998   8.586   0.319
    1HEX    H2J16183   3.934   8.436   0.257
    1HEX    H2K16184   3.844   8.693   0.119
    1HEX    H2M16185   3.785   8.667   0.280
    1STR    S0016186   4.524   8.497  16.603
    1STR    S0E16187   4.160   9.485  17.264
    1STR    S0M16188   4.250   8.013  17.091
    1STR    S0X16189   5.127   8.523   0.074
    1STR    S1416190   4.400   8.781   0.778
    1STR    S1B16191   3.684   8.513   0.126
    1HEX    C0116192   4.652   8.618   3.696
    1HEX    C0216193   4.573   8.703   3.797
    1HEX    C0316194   4.427   8.662   3.810
    1HEX    O0416195   4.389   8.547   3.785
    1HEX    O0516196   4.351   8.761   3.859
    1HEX    C0616197   4.212   8.741   3.881
    1HEX    C0716198   4.179   8.718   4.031
    1HEX    C0816199   4.197   8.853   4.110
    1HEX    O0916200   4.150   8.986   4.077
    1HEX    C0A16201   4.179   9.085   4.172
    1HEX    O0B16202   4.210   9.058   4.288
    1HEX    C0C16203   4.177   9.234   4.127
    1HEX    C0D16204   4.244   9.330   4.233
    1HEX    C0F16205   4.034   8.658   4.037
    1HEX    O0G16206   4.038   8.514   4.032
    1HEX    C0H16207   4.000   8.441   3.925
    1HEX    O0I16208   3.933   8.483   3.831
    1HEX    C0J16209   4.054   8.297   3.926
    1HEX    C0K16210   3.949   8.185   3.949
    1HEX    C0N16211   4.275   8.608   4.094
    1HEX    O0O16212   4.408   8.639   4.142
    1HEX    C0P16213   4.442   8.709   4.264
    1HEX    C0Q16214   4.404   8.658   4.408
    1HEX    C0R16215   4.472   8.520   4.432
    1HEX    O0S16216   4.614   8.517   4.398
    1HEX    C0T16217   4.713   8.527   4.493
    1HEX    O0U16218   4.694   8.550   4.612
    1HEX    C0V16219   4.857   8.502   4.441
    1HEX    C0W16220   4.948   8.629   4.439
    1HEX    C0Y16221   4.464   8.759   4.509
    1HEX    O0Z16222   4.433   8.721   4.642
    1HEX    C1016223   4.491   8.787   4.742
    1HEX    O1116224   4.567   8.883   4.730
    1HEX    C1216225   4.452   8.732   4.879
    1HEX    C1316226   4.558   8.769   4.985
    1HEX    C1516227   4.247   8.667   4.420
    1HEX    O1616228   4.167   8.633   4.535
    1HEX    C1716229   4.045   8.572   4.510
    1HEX    O1816230   4.030   8.482   4.428
    1HEX    C1916231   3.923   8.631   4.582
    1HEX    C1A16232   3.819   8.690   4.480
    1HEX    H1D16233   4.758   8.623   3.722
    1HEX    H1E16234   4.624   8.514   3.708
    1HEX    H1F16235   4.579   8.809   3.774
    1HEX    H1G16236   4.614   8.688   3.897
    1HEX    H1H16237   4.175   8.659   3.819
    1HEX    H1I16238   4.159   8.829   3.844
    1HEX    H1J16239   4.304   8.871   4.105
    1HEX    H1K16240   4.168   8.832   4.212
    1HEX    H1M16241   4.073   9.262   4.109
    1HEX    H1N16242   4.229   9.242   4.032
    1HEX    H1O16243   4.351   9.313   4.236
    1HEX    H1P16244   4.208   9.301   4.332
    1HEX    H1R16245   3.969   8.699   3.960
    1HEX    H1S16246   3.986   8.685   4.131
    1HEX    H1T16247   4.137   8.289   3.997
    1HEX    H1U16248   4.099   8.281   3.828
    1HEX    H1V16249   3.937   8.126   3.858
    1HEX    H1W16250   3.852   8.232   3.967
    1HEX    H1Y16251   4.293   8.536   4.014
    1HEX    H1Z16252   4.226   8.540   4.162
    1HEX    H2016253   4.418   8.815   4.258
    1HEX    H2116254   4.551   8.711   4.260
    1HEX    H2216255   4.423   8.444   4.370
    1HEX    H2316256   4.457   8.487   4.535
    1HEX    H2416257   4.852   8.454   4.343
    1HEX    H2516258   4.901   8.429   4.509
    1HEX    H2616259   4.947   8.676   4.537
    1HEX    H2716260   4.907   8.702   4.369
    1HEX    H2916261   4.426   8.860   4.492
    1HEX    H2A16262   4.572   8.765   4.497
    1HEX    H2B16263   4.444   8.624   4.870
    1HEX    H2C16264   4.354   8.771   4.906
    1HEX    H2D16265   4.558   8.877   5.002
    1HEX    H2E16266   4.657   8.744   4.947
    1HEX    H2G16267   4.202   8.618   4.337
    1HEX    H2H16268   4.221   8.772   4.407
    1HEX    H2I16269   3.954   8.704   4.656
    1HEX    H2J16270   3.877   8.548   4.637
    1HEX    H2K16271   3.823   8.634   4.387
    1HEX    H2M16272   3.847   8.792   4.455
    1STR    S0016273   4.640   8.664   3.518
    1STR    S0E16274   4.212   9.513   4.227
    1STR    S0M16275   3.975   8.066   4.088
    1STR    S0X16276   5.125   8.599   4.388
    1STR    S1416277   4.533   8.684   5.145
    1STR    S1B16278   3.642   8.691   4.533
    1HEX    C0116279   4.582   8.579   7.980
    1HEX    C0216280   4.572   8.603   8.132
    1HEX    C0316281   4.432   8.571   8.182
    1HEX    O0416282   4.390   8.455   8.181
    1HEX    O0516283   4.364   8.680   8.225
    1HEX    C0616284   4.227   8.666   8.262
    1HEX    C0716285   4.205   8.659   8.416
    1HEX    C0816286   4.217   8.804   8.477
    1HEX    O0916287   4.155   8.926   8.434
    1HEX    C0A16288   4.162   9.032   8.525
    1HEX    O0B16289   4.163   9.016   8.647
    1HEX    C0C16290   4.177   9.174   8.467
    1HEX    C0D16291   4.191   9.287   8.575
    1HEX    C0F16292   4.067   8.587   8.441
    1HEX    O0G16293   4.086   8.443   8.457
    1HEX    C0H16294   4.053   8.354   8.362
    1HEX    O0I16295   3.984   8.380   8.264
    1HEX    C0J16296   4.118   8.214   8.377
    1HEX    C0K16297   4.118   8.146   8.518
    1HEX    C0N16298   4.313   8.568   8.488
    1HEX    O0O16299   4.441   8.622   8.525
    1HEX    C0P16300   4.463   8.701   8.645
    1HEX    C0Q16301   4.417   8.653   8.787
    1HEX    C0R16302   4.468   8.509   8.811
    1HEX    O0S16303   4.609   8.493   8.784
    1HEX    C0T16304   4.703   8.498   8.882
    1HEX    O0U16305   4.680   8.522   9.000
    1HEX    C0V16306   4.845   8.463   8.835
    1HEX    C0W16307   4.941   8.584   8.820
    1HEX    C0Y16308   4.482   8.749   8.890
    1HEX    O0Z16309   4.440   8.717   9.021
    1HEX    C1016310   4.494   8.783   9.125
    1HEX    O1116311   4.582   8.869   9.116
    1HEX    C1216312   4.431   8.743   9.258
    1HEX    C1316313   4.522   8.765   9.380
    1HEX    C1516314   4.262   8.673   8.801
    1HEX    O1616315   4.191   8.629   8.917
    1HEX    C1716316   4.070   8.569   8.899
    1HEX    O1816317   4.041   8.496   8.803
    1HEX    C1916318   3.963   8.605   9.003
    1HEX    C1A16319   3.851   8.690   8.938
    1HEX    H1D16320   4.680   8.539   7.953
    1HEX    H1E16321   4.509   8.504   7.949
    1HEX    H1F16322   4.601   8.704   8.161
    1HEX    H1G16323   4.638   8.534   8.184
    1HEX    H1H16324   4.183   8.579   8.213
    1HEX    H1I16325   4.173   8.751   8.221
    1HEX    H1J16326   4.321   8.831   8.462
    1HEX    H1K16327   4.198   8.794   8.582
    1HEX    H1M16328   4.093   9.195   8.400
    1HEX    H1N16329   4.266   9.171   8.405
    1HEX    H1O16330   4.237   9.250   8.667
    1HEX    H1P16331   4.092   9.322   8.604
    1HEX    H1R16332   3.995   8.609   8.363
    1HEX    H1S16333   4.021   8.623   8.533
    1HEX    H1T16334   4.220   8.222   8.340
    1HEX    H1U16335   4.067   8.148   8.307
    1HEX    H1V16336   4.018   8.142   8.560
    1HEX    H1W16337   4.178   8.205   8.588
    1HEX    H1Y16338   4.335   8.486   8.421
    1HEX    H1Z16339   4.274   8.512   8.573
    1HEX    H2016340   4.434   8.804   8.631
    1HEX    H2116341   4.572   8.708   8.647
    1HEX    H2216342   4.415   8.439   8.747
    1HEX    H2316343   4.445   8.477   8.913
    1HEX    H2416344   4.840   8.404   8.743
    1HEX    H2516345   4.884   8.396   8.911
    1HEX    H2616346   4.904   8.672   8.873
    1HEX    H2716347   4.947   8.613   8.714
    1HEX    H2916348   4.456   8.853   8.869
    1HEX    H2A16349   4.591   8.744   8.884
    1HEX    H2B16350   4.399   8.639   9.253
    1HEX    H2C16351   4.340   8.803   9.266
    1HEX    H2D16352   4.598   8.840   9.357
    1HEX    H2E16353   4.576   8.674   9.406
    1HEX    H2G16354   4.210   8.634   8.715
    1HEX    H2H16355   4.241   8.780   8.797
    1HEX    H2I16356   4.009   8.655   9.088
    1HEX    H2J16357   3.923   8.510   9.038
    1HEX    H2K16358   3.839   8.661   8.833
    1HEX    H2M16359   3.876   8.796   8.937
    1STR    S0016360   4.556   8.734   7.887
    1STR    S0E16361   4.292   9.433   8.522
    1STR    S0M16362   4.186   7.973   8.509
    1STR    S0X16363   5.110   8.544   8.879
    1STR    S1416364   4.430   8.828   9.525
    1STR    S1B16365   3.687   8.667   9.016
    1HEX    C0116366   4.544   8.564  12.314
    1HEX    C0216367   4.545   8.616  12.459
    1HEX    C0316368   4.408   8.599  12.522
    1HEX    O0416369   4.353   8.489  12.523
    1HEX    O0516370   4.357   8.714  12.571
    1HEX    C0616371   4.218   8.721  12.603
    1HEX    C0716372   4.186   8.710  12.755
    1HEX    C0816373   4.212   8.849  12.826
    1HEX    O0916374   4.152   8.979  12.802
    1HEX    C0A16375   4.171   9.076  12.903
    1HEX    O0B16376   4.197   9.046  13.019
    1HEX    C0C16377   4.164   9.226  12.864
    1HEX    C0D16378   4.216   9.322  12.980
    1HEX    C0F16379   4.040   8.653  12.766
    1HEX    O0G16380   4.042   8.509  12.754
    1HEX    C0H16381   3.986   8.442  12.650
    1HEX    O0I16382   3.908   8.493  12.569
    1HEX    C0J16383   4.039   8.299  12.629
    1HEX    C0K16384   4.031   8.196  12.746
    1HEX    C0N16385   4.277   8.599  12.824
    1HEX    O0O16386   4.413   8.627  12.860
    1HEX    C0P16387   4.451   8.705  12.976
    1HEX    C0Q16388   4.413   8.659  13.121
    1HEX    C0R16389   4.476   8.518  13.146
    1HEX    O0S16390   4.616   8.509  13.109
    1HEX    C0T16391   4.719   8.522  13.199
    1HEX    O0U16392   4.705   8.550  13.318
    1HEX    C0V16393   4.860   8.491  13.143
    1HEX    C0W16394   4.956   8.613  13.126
    1HEX    C0Y16395   4.481   8.759  13.217
    1HEX    O0Z16396   4.436   8.726  13.346
    1HEX    C1016397   4.486   8.788  13.452
    1HEX    O1116398   4.576   8.872  13.453
    1HEX    C1216399   4.413   8.743  13.577
    1HEX    C1316400   4.479   8.792  13.706
    1HEX    C1516401   4.257   8.679  13.143
    1HEX    O1616402   4.177   8.612  13.243
    1HEX    C1716403   4.064   8.547  13.200
    1HEX    O1816404   4.061   8.475  13.100
    1HEX    C1916405   3.934   8.579  13.276
    1HEX    C1A16406   3.829   8.647  13.181
    1HEX    H1D16407   4.633   8.505  12.293
    1HEX    H1E16408   4.460   8.497  12.298
    1HEX    H1F16409   4.578   8.719  12.466
    1HEX    H1G16410   4.614   8.557  12.519
    1HEX    H1H16411   4.165   8.644  12.546
    1HEX    H1I16412   4.180   8.815  12.563
    1HEX    H1J16413   4.317   8.870  12.805
    1HEX    H1K16414   4.202   8.831  12.931
    1HEX    H1M16415   4.061   9.250  12.837
    1HEX    H1N16416   4.224   9.241  12.774
    1HEX    H1O16417   4.322   9.303  12.997
    1HEX    H1P16418   4.168   9.294  13.073
    1HEX    H1R16419   3.973   8.700  12.693
    1HEX    H1S16420   3.997   8.677  12.864
    1HEX    H1T16421   4.142   8.309  12.597
    1HEX    H1U16422   3.985   8.258  12.543
    1HEX    H1V16423   3.928   8.179  12.777
    1HEX    H1W16424   4.085   8.232  12.833
    1HEX    H1Y16425   4.285   8.517  12.753
    1HEX    H1Z16426   4.227   8.543  12.903
    1HEX    H2016427   4.428   8.810  12.964
    1HEX    H2116428   4.560   8.704  12.969
    1HEX    H2216429   4.421   8.444  13.088
    1HEX    H2316430   4.462   8.489  13.250
    1HEX    H2416431   4.850   8.436  13.050
    1HEX    H2516432   4.905   8.422  13.214
    1HEX    H2616433   4.955   8.676  13.215
    1HEX    H2716434   4.923   8.676  13.044
    1HEX    H2916435   4.455   8.862  13.195
    1HEX    H2A16436   4.590   8.754  13.212
    1HEX    H2B16437   4.408   8.634  13.575
    1HEX    H2C16438   4.311   8.780  13.570
    1HEX    H2D16439   4.485   8.901  13.709
    1HEX    H2E16440   4.582   8.755  13.712
    1HEX    H2G16441   4.203   8.668  13.052
    1HEX    H2H16442   4.240   8.784  13.164
    1HEX    H2I16443   3.955   8.639  13.364
    1HEX    H2J16444   3.895   8.484  13.311
    1HEX    H2K16445   3.846   8.612  13.079
    1HEX    H2M16446   3.847   8.754  13.179
    1STR    S0016447   4.530   8.697  12.190
    1STR    S0E16448   4.191   9.506  12.964
    1STR    S0M16449   4.104   8.035  12.688
    1STR    S0X16450   5.131   8.561  13.092
    1STR    S1416451   4.384   8.729  13.847
    1STR    S1B16452   3.650   8.619  13.219
    1HEX    C0116453   4.505  12.938  16.674
    1HEX    C0216454   4.545  12.969  16.820
    1HEX    C0316455   4.418  12.947  16.900
    1HEX    O0416456   4.368  12.835  16.903
    1HEX    O0516457   4.361  13.061  16.943
    1HEX    C0616458   4.223  13.062  16.975
    1HEX    C0716459   4.195  13.053  17.128
    1HEX    C0816460   4.218  13.194  17.193
    1HEX    O0916461   4.160  13.321  17.158
    1HEX    C0A16462   4.185  13.427  17.247
    1HEX    O0B16463   4.212  13.411  17.365
    1HEX    C0C16464   4.182  13.571  17.188
    1HEX    C0D16465   4.149  13.688  17.288
    1HEX    C0F16466   4.049  12.995  17.146
    1HEX    O0G16467   4.052  12.851  17.161
    1HEX    C0H16468   4.005  12.763  17.070
    1HEX    O0I16469   3.936  12.793  16.972
    1HEX    C0J16470   4.050  12.617  17.095
    1HEX    C0K16471   3.947  12.525  17.167
    1HEX    C0N16472   4.292  12.948  17.197
    1HEX    O0O16473   4.425  12.988  17.235
    1HEX    C0P16474   4.457  13.065  17.353
    1HEX    C0Q16475   4.416  13.017   0.057
    1HEX    C0R16476   4.476  12.874   0.078
    1HEX    O0S16477   4.616  12.866   0.044
    1HEX    C0T16478   4.715  12.869   0.138
    1HEX    O0U16479   4.697  12.883   0.258
    1HEX    C0V16480   4.859  12.854   0.082
    1HEX    C0W16481   4.933  12.990   0.071
    1HEX    C0Y16482   4.483  13.114   0.157
    1HEX    O0Z16483   4.445  13.088   0.292
    1HEX    C1016484   4.499  13.162   0.390
    1HEX    O1116485   4.586  13.248   0.374
    1HEX    C1216486   4.441  13.131   0.528
    1HEX    C1316487   4.549  13.109   0.637
    1HEX    C1516488   4.260  13.035   0.074
    1HEX    O1616489   4.185  12.987   0.186
    1HEX    C1716490   4.065  12.926   0.160
    1HEX    O1816491   4.047  12.846   0.069
    1HEX    C1916492   3.947  12.973   0.247
    1HEX    C1A16493   3.819  12.997   0.160
    1HEX    H1D16494   4.532  12.838  16.644
    1HEX    H1E16495   4.396  12.936  16.672
    1HEX    H1F16496   4.583  13.070  16.837
    1HEX    H1G16497   4.620  12.899  16.858
    1HEX    H1H16498   4.172  12.982  16.921
    1HEX    H1I16499   4.180  13.154  16.934
    1HEX    H1J16500   4.323  13.215  17.174
    1HEX    H1K16501   4.204  13.181  17.300
    1HEX    H1M16502   4.107  13.570  17.108
    1HEX    H1N16503   4.278  13.589  17.139
    1HEX    H1O16504   4.105  13.645  17.378
    1HEX    H1P16505   4.071  13.753  17.246
    1HEX    H1R16506   3.982  13.025  17.065
    1HEX    H1S16507   4.004  13.035  17.236
    1HEX    H1T16508   4.145  12.619  17.148
    1HEX    H1U16509   4.072  12.573  16.997
    1HEX    H1V16510   3.898  12.459  17.096
    1HEX    H1W16511   3.868  12.589  17.208
    1HEX    H1Y16512   4.306  12.867  17.127
    1HEX    H1Z16513   4.248  12.889  17.276
    1HEX    H2016514   4.430  13.169  17.342
    1HEX    H2116515   4.566  13.069  17.349
    1HEX    H2216516   4.422  12.803   0.015
    1HEX    H2316517   4.458  12.841   0.181
    1HEX    H2416518   4.855  12.802  17.427
    1HEX    H2516519   4.914  12.789   0.151
    1HEX    H2616520   4.938  13.038   0.169
    1HEX    H2716521   4.873  13.054   0.007
    1HEX    H2916522   4.456  13.218   0.134
    1HEX    H2A16523   4.592  13.110   0.149
    1HEX    H2B16524   4.378  13.043   0.520
    1HEX    H2C16525   4.376  13.214   0.555
    1HEX    H2D16526   4.648  13.129   0.594
    1HEX    H2E16527   4.551  13.004   0.669
    1HEX    H2G16528   4.206  13.005  17.426
    1HEX    H2H16529   4.241  13.143   0.075
    1HEX    H2I16530   3.976  13.064   0.299
    1HEX    H2J16531   3.928  12.897   0.323
    1HEX    H2K16532   3.780  12.901   0.125
    1HEX    H2M16533   3.846  13.051   0.069
    1STR    S0016534   4.534  13.062  16.543
    1STR    S0E16535   4.286  13.799  17.347
    1STR    S0M16536   4.007  12.421  17.308
    1STR    S0X16537   5.104  12.988  17.438
    1STR    S1416538   4.536  13.217   0.785
    1STR    S1B16539   3.683  13.091   0.241
    1HEX    C0116540   4.599  12.968   3.602
    1HEX    C0216541   4.558  12.976   3.751
    1HEX    C0316542   4.413  12.948   3.785
    1HEX    O0416543   4.364  12.836   3.771
    1HEX    O0516544   4.352  13.056   3.840
    1HEX    C0616545   4.217  13.048   3.882
    1HEX    C0716546   4.200  13.032   4.036
    1HEX    C0816547   4.202  13.174   4.105
    1HEX    O0916548   4.136  13.298   4.067
    1HEX    C0A16549   4.151  13.405   4.158
    1HEX    O0B16550   4.190  13.388   4.273
    1HEX    C0C16551   4.123  13.550   4.108
    1HEX    C0D16552   4.167  13.658   4.215
    1HEX    C0F16553   4.069  12.946   4.059
    1HEX    O0G16554   4.101  12.804   4.062
    1HEX    C0H16555   4.076  12.720   3.960
    1HEX    O0I16556   3.996  12.743   3.869
    1HEX    C0J16557   4.163  12.592   3.959
    1HEX    C0K16558   4.155  12.496   4.082
    1HEX    C0N16559   4.315  12.944   4.101
    1HEX    O0O16560   4.441  13.001   4.141
    1HEX    C0P16561   4.461  13.071   4.266
    1HEX    C0Q16562   4.417  13.014   4.405
    1HEX    C0R16563   4.474  12.871   4.426
    1HEX    O0S16564   4.616  12.861   4.400
    1HEX    C0T16565   4.708  12.863   4.500
    1HEX    O0U16566   4.683  12.886   4.618
    1HEX    C0V16567   4.850  12.825   4.457
    1HEX    C0W16568   4.946  12.944   4.428
    1HEX    C0Y16569   4.479  13.109   4.510
    1HEX    O0Z16570   4.438  13.076   4.642
    1HEX    C1016571   4.496  13.139   4.745
    1HEX    O1116572   4.586  13.222   4.737
    1HEX    C1216573   4.432  13.101   4.878
    1HEX    C1316574   4.518  13.136   5.001
    1HEX    C1516575   4.260  13.025   4.419
    1HEX    O1616576   4.190  12.966   4.530
    1HEX    C1716577   4.066  12.911   4.507
    1HEX    O1816578   4.030  12.861   4.400
    1HEX    C1916579   3.967  12.921   4.624
    1HEX    C1A16580   3.837  12.997   4.585
    1HEX    H1D16581   4.660  12.879   3.587
    1HEX    H1E16582   4.663  13.053   3.577
    1HEX    H1F16583   4.583  13.074   3.791
    1HEX    H1G16584   4.617  12.904   3.809
    1HEX    H1H16585   4.166  12.967   3.828
    1HEX    H1I16586   4.167  13.138   3.848
    1HEX    H1J16587   4.306  13.207   4.097
    1HEX    H1K16588   4.179  13.159   4.209
    1HEX    H1M16589   4.018  13.559   4.084
    1HEX    H1N16590   4.179  13.565   4.016
    1HEX    H1O16591   4.275  13.653   4.227
    1HEX    H1P16592   4.128  13.630   4.313
    1HEX    H1R16593   3.992  12.969   3.986
    1HEX    H1S16594   4.025  12.971   4.156
    1HEX    H1T16595   4.266  12.626   3.945
    1HEX    H1U16596   4.139  12.536   3.869
    1HEX    H1V16597   4.061  12.440   4.078
    1HEX    H1W16598   4.152  12.553   4.175
    1HEX    H1Y16599   4.342  12.868   4.027
    1HEX    H1Z16600   4.282  12.879   4.181
    1HEX    H2016601   4.428  13.174   4.258
    1HEX    H2116602   4.570  13.080   4.268
    1HEX    H2216603   4.424  12.801   4.359
    1HEX    H2316604   4.451  12.836   4.527
    1HEX    H2416605   4.846  12.756   4.373
    1HEX    H2516606   4.890  12.767   4.541
    1HEX    H2616607   4.909  13.036   4.473
    1HEX    H2716608   4.950  12.962   4.320
    1HEX    H2916609   4.451  13.213   4.491
    1HEX    H2A16610   4.588  13.107   4.505
    1HEX    H2B16611   4.408  12.995   4.876
    1HEX    H2C16612   4.337  13.155   4.881
    1HEX    H2D16613   4.572  13.229   4.986
    1HEX    H2E16614   4.594  13.059   5.016
    1HEX    H2G16615   4.212  12.990   4.330
    1HEX    H2H16616   4.234  13.131   4.423
    1HEX    H2I16617   4.018  12.974   4.705
    1HEX    H2J16618   3.945  12.821   4.660
    1HEX    H2K16619   3.849  13.048   4.489
    1HEX    H2M16620   3.816  13.077   4.657
    1STR    S0016621   4.468  12.962   3.476
    1STR    S0E16622   4.118  13.837   4.194
    1STR    S0M16623   4.296  12.374   4.091
    1STR    S0X16624   5.116  12.911   4.491
    1STR    S1416625   4.412  13.155   5.148
    1STR    S1B16626   3.686  12.893   4.572
    1HEX    C0116627   4.624  12.908   8.013
    1HEX    C0216628   4.573  13.014   8.113
    1HEX    C0316629   4.429  12.992   8.158
    1HEX    O0416630   4.375  12.882   8.149
    1HEX    O0516631   4.372  13.103   8.209
    1HEX    C0616632   4.232  13.104   8.235
    1HEX    C0716633   4.192  13.081   8.384
    1HEX    C0816634   4.209  13.215   8.465
    1HEX    O0916635   4.161  13.348   8.435
    1HEX    C0A16636   4.186  13.445   8.535
    1HEX    O0B16637   4.211  13.415   8.651
    1HEX    C0C16638   4.185  13.595   8.494
    1HEX    C0D16639   4.249  13.689   8.604
    1HEX    C0F16640   4.046  13.023   8.384
    1HEX    O0G16641   4.048  12.880   8.362
    1HEX    C0H16642   4.014  12.824   8.244
    1HEX    O0I16643   3.957  12.883   8.152
    1HEX    C0J16644   4.059  12.677   8.225
    1HEX    C0K16645   4.063  12.588   8.353
    1HEX    C0N16646   4.280  12.968   8.452
    1HEX    O0O16647   4.414  12.994   8.499
    1HEX    C0P16648   4.450  13.068   8.619
    1HEX    C0Q16649   4.409  13.022   8.763
    1HEX    C0R16650   4.475  12.882   8.790
    1HEX    O0S16651   4.616  12.877   8.756
    1HEX    C0T16652   4.717  12.891   8.848
    1HEX    O0U16653   4.700  12.914   8.967
    1HEX    C0V16654   4.860  12.870   8.793
    1HEX    C0W16655   4.954  12.995   8.799
    1HEX    C0Y16656   4.471  13.122   8.862
    1HEX    O0Z16657   4.432  13.086   8.992
    1HEX    C1016658   4.488  13.146   9.097
    1HEX    O1116659   4.573  13.235   9.092
    1HEX    C1216660   4.434  13.092   9.228
    1HEX    C1316661   4.534  13.111   9.342
    1HEX    C1516662   4.252  13.037   8.776
    1HEX    O1616663   4.169  12.991   8.885
    1HEX    C1716664   4.052  12.929   8.851
    1HEX    O1816665   4.043  12.842   8.764
    1HEX    C1916666   3.924  12.982   8.919
    1HEX    C1A16667   3.823  13.039   8.813
    1HEX    H1D16668   4.732  12.896   8.025
    1HEX    H1E16669   4.582  12.811   8.038
    1HEX    H1F16670   4.585  13.115   8.074
    1HEX    H1G16671   4.632  13.009   8.205
    1HEX    H1H16672   4.183  13.031   8.170
    1HEX    H1I16673   4.193  13.200   8.201
    1HEX    H1J16674   4.316  13.234   8.459
    1HEX    H1K16675   4.182  13.192   8.568
    1HEX    H1M16676   4.082  13.624   8.473
    1HEX    H1N16677   4.240  13.605   8.401
    1HEX    H1O16678   4.356  13.668   8.613
    1HEX    H1P16679   4.208  13.662   8.701
    1HEX    H1R16680   3.982  13.074   8.311
    1HEX    H1S16681   3.998  13.040   8.480
    1HEX    H1T16682   4.158  12.679   8.180
    1HEX    H1U16683   3.993  12.632   8.151
    1HEX    H1V16684   3.969  12.598   8.408
    1HEX    H1W16685   4.142  12.622   8.420
    1HEX    H1Y16686   4.295  12.892   8.375
    1HEX    H1Z16687   4.225  12.906   8.522
    1HEX    H2016688   4.429  13.174   8.610
    1HEX    H2116689   4.559  13.066   8.614
    1HEX    H2216690   4.424  12.806   8.730
    1HEX    H2316691   4.460  12.852   8.894
    1HEX    H2416692   4.854  12.830   8.692
    1HEX    H2516693   4.904  12.791   8.854
    1HEX    H2616694   4.957  13.035   8.900
    1HEX    H2716695   4.914  13.074   8.736
    1HEX    H2916696   4.439  13.225   8.842
    1HEX    H2A16697   4.580  13.123   8.854
    1HEX    H2B16698   4.414  12.986   9.213
    1HEX    H2C16699   4.339  13.141   9.250
    1HEX    H2D16700   4.542  13.217   9.368
    1HEX    H2E16701   4.634  13.079   9.311
    1HEX    H2G16702   4.204  13.005   8.687
    1HEX    H2H16703   4.232  13.145   8.776
    1HEX    H2I16704   3.949  13.056   8.995
    1HEX    H2J16705   3.878  12.897   8.971
    1HEX    H2K16706   3.833  12.981   8.721
    1HEX    H2M16707   3.851  13.141   8.786
    1STR    S0016708   4.595  12.937   7.834
    1STR    S0E16709   4.227  13.874   8.593
    1STR    S0M16710   4.086  12.409   8.313
    1STR    S0X16711   5.129  12.962   8.744
    1STR    S1416712   4.484  13.015   9.489
    1STR    S1B16713   3.643  13.039   8.855
    1HEX    C0116714   4.578  12.882  12.351
    1HEX    C0216715   4.560  12.932  12.496
    1HEX    C0316716   4.416  12.915  12.543
    1HEX    O0416717   4.364  12.804  12.544
    1HEX    O0516718   4.359  13.030  12.583
    1HEX    C0616719   4.222  13.030  12.622
    1HEX    C0716720   4.200  13.028  12.776
    1HEX    C0816721   4.221  13.173  12.834
    1HEX    O0916722   4.153  13.296  12.800
    1HEX    C0A16723   4.159  13.397  12.896
    1HEX    O0B16724   4.163  13.376  13.018
    1HEX    C0C16725   4.168  13.542  12.843
    1HEX    C0D16726   4.160  13.656  12.953
    1HEX    C0F16727   4.058  12.964  12.802
    1HEX    O0G16728   4.068  12.820  12.819
    1HEX    C0H16729   4.029  12.732  12.725
    1HEX    O0I16730   3.959  12.760  12.628
    1HEX    C0J16731   4.085  12.589  12.743
    1HEX    C0K16732   4.068  12.519  12.882
    1HEX    C0N16733   4.302  12.932  12.849
    1HEX    O0O16734   4.433  12.981  12.884
    1HEX    C0P16735   4.462  13.060  13.001
    1HEX    C0Q16736   4.418  13.013  13.144
    1HEX    C0R16737   4.468  12.867  13.166
    1HEX    O0S16738   4.605  12.849  13.125
    1HEX    C0T16739   4.709  12.852  13.213
    1HEX    O0U16740   4.700  12.872  13.333
    1HEX    C0V16741   4.845  12.824  13.147
    1HEX    C0W16742   4.951  12.934  13.174
    1HEX    C0Y16743   4.488  13.106  13.247
    1HEX    O0Z16744   4.445  13.078  13.380
    1HEX    C1016745   4.495  13.149  13.482
    1HEX    O1116746   4.583  13.234  13.472
    1HEX    C1216747   4.428  13.115  13.615
    1HEX    C1316748   4.524  13.122  13.737
    1HEX    C1516749   4.264  13.037  13.162
    1HEX    O1616750   4.191  12.981  13.271
    1HEX    C1716751   4.075  12.917  13.242
    1HEX    O1816752   4.057  12.844  13.144
    1HEX    C1916753   3.959  12.951  13.335
    1HEX    C1A16754   3.849  13.036  13.263
    1HEX    H1D16755   4.663  12.814  12.345
    1HEX    H1E16756   4.491  12.824  12.317
    1HEX    H1F16757   4.590  13.036  12.507
    1HEX    H1G16758   4.621  12.873  12.563
    1HEX    H1H16759   4.170  12.946  12.574
    1HEX    H1I16760   4.175  13.119  12.579
    1HEX    H1J16761   4.324  13.198  12.810
    1HEX    H1K16762   4.213  13.163  12.941
    1HEX    H1M16763   4.091  13.557  12.768
    1HEX    H1N16764   4.264  13.549  12.791
    1HEX    H1O16765   4.161  13.614  13.054
    1HEX    H1P16766   4.063  13.706  12.945
    1HEX    H1R16767   3.986  12.990  12.724
    1HEX    H1S16768   4.014  13.004  12.894
    1HEX    H1T16769   4.191  12.594  12.717
    1HEX    H1U16770   4.039  12.527  12.666
    1HEX    H1V16771   3.963  12.514  12.909
    1HEX    H1W16772   4.117  12.578  12.960
    1HEX    H1Y16773   4.319  12.848  12.783
    1HEX    H1Z16774   4.261  12.879  12.934
    1HEX    H2016775   4.433  13.164  12.987
    1HEX    H2116776   4.571  13.066  13.000
    1HEX    H2216777   4.406  12.799  13.108
    1HEX    H2316778   4.453  12.837  13.271
    1HEX    H2416779   4.831  12.809  13.040
    1HEX    H2516780   4.880  12.729  13.188
    1HEX    H2616781   4.923  13.028  13.126
    1HEX    H2716782   4.956  12.956  13.281
    1HEX    H2916783   4.467  13.211  13.225
    1HEX    H2A16784   4.597  13.097  13.242
    1HEX    H2B16785   4.383  13.016  13.609
    1HEX    H2C16786   4.347  13.186  13.626
    1HEX    H2D16787   4.615  13.176  13.710
    1HEX    H2E16788   4.556  13.023  13.768
    1HEX    H2G16789   4.210  13.011  13.073
    1HEX    H2H16790   4.247  13.144  13.169
    1HEX    H2I16791   3.997  13.003  13.423
    1HEX    H2J16792   3.917  12.856  13.370
    1HEX    H2K16793   3.870  13.046  13.157
    1HEX    H2M16794   3.847  13.137  13.304
    1STR    S0016795   4.607  13.020  12.235
    1STR    S0E16796   4.294  13.783  12.949
    1STR    S0M16797   4.138  12.347  12.879
    1STR    S0X16798   5.120  12.885  13.120
    1STR    S1416799   4.453  13.212  13.880
    1STR    S1B16800   3.682  12.965  13.282
    1HEX    C0116801   8.980  17.292  16.758
    1HEX    C0216802   8.909  17.277  16.895
    1HEX    C0316803   8.758  17.288  16.891
    1HEX    O0416804   8.688  17.191  16.863
    1HEX    O0516805   8.714  17.410  16.931
    1HEX    C0616806   8.576  17.430  16.959
    1HEX    C0716807   8.546  17.423  17.112
    1HEX    C0816808   8.574   0.122  17.180
    1HEX    O0916809   8.510   0.250  17.154
    1HEX    C0A16810   8.527   0.349  17.252
    1HEX    O0B16811   8.559   0.323  17.369
    1HEX    C0C16812   8.511   0.497  17.210
    1HEX    C0D16813   8.549   0.597  17.326
    1HEX    C0F16814   8.398  17.373  17.129
    1HEX    O0G16815   8.397  17.229  17.123
    1HEX    C0H16816   8.340  17.160  17.022
    1HEX    O0I16817   8.258  17.205  16.944
    1HEX    C0J16818   8.395  17.017  17.007
    1HEX    C0K16819   8.394  16.925  17.133
    1HEX    C0N16820   8.636  17.312  17.182
    1HEX    O0O16821   8.772  17.341  17.218
    1HEX    C0P16822   8.811  17.419  17.333
    1HEX    C0Q16823   8.774  17.374   0.038
    1HEX    C0R16824   8.833  17.232   0.064
    1HEX    O0S16825   8.974  17.220   0.030
    1HEX    C0T16826   9.074  17.231   0.123
    1HEX    O0U16827   9.058  17.261   0.240
    1HEX    C0V16828   9.215  17.192   0.072
    1HEX    C0W16829   9.314  17.310   0.046
    1HEX    C0Y16830   8.843   0.034   0.135
    1HEX    O0Z16831   8.800   0.005   0.266
    1HEX    C1016832   8.853   0.070   0.369
    1HEX    O1116833   8.945   0.152   0.364
    1HEX    C1216834   8.782   0.034   0.498
    1HEX    C1316835   8.859   0.075   0.625
    1HEX    C1516836   8.619  17.394   0.062
    1HEX    O1616837   8.544  17.325   0.164
    1HEX    C1716838   8.425  17.268   0.128
    1HEX    O1816839   8.405  17.209   0.022
    1HEX    C1916840   8.310  17.289   0.228
    1HEX    C1A16841   8.186  17.359   0.161
    1HEX    H1D16842   8.944  17.190  16.745
    1HEX    H1E16843   8.929  17.386  16.740
    1HEX    H1F16844   8.945  17.353  16.963
    1HEX    H1G16845   8.933  17.182  16.944
    1HEX    H1H16846   8.516  17.358  16.903
    1HEX    H1I16847   8.546   0.087  16.919
    1HEX    H1J16848   8.678   0.144  17.157
    1HEX    H1K16849   8.566   0.105  17.286
    1HEX    H1M16850   8.408   0.513  17.177
    1HEX    H1N16851   8.575   0.514  17.124
    1HEX    H1O16852   8.653   0.582  17.356
    1HEX    H1P16853   8.491   0.573  17.415
    1HEX    H1R16854   8.331  17.418  17.056
    1HEX    H1S16855   8.358  17.401  17.227
    1HEX    H1T16856   8.498  17.031  16.972
    1HEX    H1U16857   8.344  16.968  16.924
    1HEX    H1V16858   8.301  16.869  17.139
    1HEX    H1W16859   8.402  16.983  17.225
    1HEX    H1Y16860   8.643  17.229  17.112
    1HEX    H1Z16861   8.586  17.258  17.262
    1HEX    H2016862   8.788   0.084  17.321
    1HEX    H2116863   8.920  17.418  17.326
    1HEX    H2216864   8.779  17.159   0.004
    1HEX    H2316865   8.817  17.203   0.168
    1HEX    H2416866   9.205  17.129  17.424
    1HEX    H2516867   9.256  17.129   0.150
    1HEX    H2616868   9.305  17.387   0.123
    1HEX    H2716869   9.291  17.359  17.391
    1HEX    H2916870   8.817   0.137   0.112
    1HEX    H2A16871   8.952   0.028   0.128
    1HEX    H2B16872   8.764  17.367   0.498
    1HEX    H2C16873   8.685   0.083   0.495
    1HEX    H2D16874   8.891   0.179   0.622
    1HEX    H2E16875   8.950   0.015   0.634
    1HEX    H2G16876   8.563  17.383  17.411
    1HEX    H2H16877   8.601   0.059   0.082
    1HEX    H2I16878   8.346  17.347   0.312
    1HEX    H2J16879   8.282  17.191   0.267
    1HEX    H2K16880   8.205  17.374   0.055
    1HEX    H2M16881   8.170   0.018   0.203
    1STR    S0016882   8.935  17.256  16.585
    1STR    S0E16883   8.525   0.779  17.297
    1STR    S0M16884   8.535  16.807  17.122
    1STR    S0X16885   9.489  17.250   0.040
    1STR    S1416886   8.751   0.046   0.768
    1STR    S1B16887   8.030  17.263   0.174
    1HEX    C0116888   8.966  17.328   3.700
    1HEX    C0216889   8.900  17.371   3.832
    1HEX    C0316890   8.751  17.344   3.831
    1HEX    O0416891   8.707  17.233   3.802
    1HEX    O0516892   8.681   0.010   3.874
    1HEX    C0616893   8.544  17.433   3.906
    1HEX    C0716894   8.523  17.419   4.059
    1HEX    C0816895   8.546   0.120   4.128
    1HEX    O0916896   8.504   0.252   4.086
    1HEX    C0A16897   8.543   0.359   4.170
    1HEX    O0B16898   8.577   0.343   4.287
    1HEX    C0C16899   8.550   0.501   4.107
    1HEX    C0D16900   8.527   0.625   4.203
    1HEX    C0F16901   8.381  17.355   4.080
    1HEX    O0G16902   8.388  17.211   4.099
    1HEX    C0H16903   8.354  17.120   4.004
    1HEX    O0I16904   8.291  17.146   3.902
    1HEX    C0J16905   8.407  16.977   4.032
    1HEX    C0K16906   8.310  16.883   4.110
    1HEX    C0N16907   8.627  17.315   4.121
    1HEX    O0O16908   8.762  17.353   4.154
    1HEX    C0P16909   8.802  17.428   4.271
    1HEX    C0Q16910   8.766  17.384   4.417
    1HEX    C0R16911   8.824  17.241   4.442
    1HEX    O0S16912   8.963  17.230   4.402
    1HEX    C0T16913   9.068  17.237   4.490
    1HEX    O0U16914   9.057  17.252   4.611
    1HEX    C0V16915   9.207  17.221   4.425
    1HEX    C0W16916   9.320  17.306   4.493
    1HEX    C0Y16917   8.838   0.043   4.512
    1HEX    O0Z16918   8.808   0.018   4.649
    1HEX    C1016919   8.873   0.089   4.743
    1HEX    O1116920   8.959   0.173   4.720
    1HEX    C1216921   8.824   0.060   4.885
    1HEX    C1316922   8.934   0.077   4.994
    1HEX    C1516923   8.611  17.408   4.438
    1HEX    O1616924   8.533  17.367   4.551
    1HEX    C1716925   8.410  17.311   4.524
    1HEX    O1816926   8.391  17.225   4.439
    1HEX    C1916927   8.290  17.371   4.600
    1HEX    C1A16928   8.167  17.386   4.505
    1HEX    H1D16929   9.070  17.303   3.720
    1HEX    H1E16930   8.917  17.239   3.660
    1HEX    H1F16931   8.921   0.035   3.856
    1HEX    H1G16932   8.939  17.311   3.914
    1HEX    H1H16933   8.501  17.349   3.851
    1HEX    H1I16934   8.490   0.081   3.868
    1HEX    H1J16935   8.652   0.135   4.116
    1HEX    H1K16936   8.522   0.111   4.233
    1HEX    H1M16937   8.473   0.502   4.030
    1HEX    H1N16938   8.645   0.511   4.054
    1HEX    H1O16939   8.473   0.590   4.290
    1HEX    H1P16940   8.462   0.698   4.155
    1HEX    H1R16941   8.312  17.380   3.999
    1HEX    H1S16942   8.335  17.395   4.170
    1HEX    H1T16943   8.503  16.985   4.083
    1HEX    H1U16944   8.429  16.931   3.935
    1HEX    H1V16945   8.259  16.815   4.041
    1HEX    H1W16946   8.232  16.944   4.155
    1HEX    H1Y16947   8.638  17.236   4.046
    1HEX    H1Z16948   8.588  17.254   4.202
    1HEX    H2016949   8.782   0.094   4.261
    1HEX    H2116950   8.911  17.426   4.263
    1HEX    H2216951   8.767  17.168   4.385
    1HEX    H2316952   8.812  17.213   4.547
    1HEX    H2416953   9.198  17.247   4.319
    1HEX    H2516954   9.234  17.116   4.429
    1HEX    H2616955   9.280  17.404   4.521
    1HEX    H2716956   9.350  17.259   4.586
    1HEX    H2916957   8.811   0.146   4.490
    1HEX    H2A16958   8.946   0.037   4.498
    1HEX    H2B16959   8.784  17.398   4.888
    1HEX    H2C16960   8.741   0.127   4.903
    1HEX    H2D16961   9.018   0.133   4.954
    1HEX    H2E16962   8.974  17.420   5.023
    1HEX    H2G16963   8.556  17.377   4.351
    1HEX    H2H16964   8.596   0.076   4.437
    1HEX    H2I16965   8.320   0.026   4.643
    1HEX    H2J16966   8.265  17.305   4.684
    1HEX    H2K16967   8.127  17.287   4.483
    1HEX    H2M16968   8.200  17.426   4.409
    1STR    S0016969   8.964   0.018   3.573
    1STR    S0E16970   8.671   0.722   4.272
    1STR    S0M16971   8.380  16.780   4.248
    1STR    S0X16972   9.471  17.335   4.389
    1STR    S1416973   8.877   0.167   5.143
    1STR    S1B16974   8.028   0.055   4.560
    1HEX    C0116975   8.962  17.283   7.972
    1HEX    C0216976   8.926  17.333   8.114
    1HEX    C0316977   8.785  17.301   8.157
    1HEX    O0416978   8.739  17.187   8.149
    1HEX    O0516979   8.721  17.409   8.207
    1HEX    C0616980   8.585  17.399   8.246
    1HEX    C0716981   8.564  17.385   8.399
    1HEX    C0816982   8.564   0.087   8.467
    1HEX    O0916983   8.506   0.210   8.419
    1HEX    C0A16984   8.521   0.320   8.504
    1HEX    O0B16985   8.549   0.308   8.624
    1HEX    C0C16986   8.508   0.462   8.443
    1HEX    C0D16987   8.552   0.574   8.545
    1HEX    C0F16988   8.432  17.301   8.418
    1HEX    O0G16989   8.462  17.159   8.416
    1HEX    C0H16990   8.434  17.079   8.311
    1HEX    O0I16991   8.355  17.107   8.222
    1HEX    C0J16992   8.519  16.949   8.305
    1HEX    C0K16993   8.513  16.852   8.427
    1HEX    C0N16994   8.676  17.297   8.469
    1HEX    O0O16995   8.802  17.353   8.510
    1HEX    C0P16996   8.823  17.427   8.633
    1HEX    C0Q16997   8.777  17.374   8.773
    1HEX    C0R16998   8.834  17.231   8.795
    1HEX    O0S16999   8.976  17.222   8.770
    1HEX    C0T17000   9.067  17.224   8.871
    1HEX    O0U17001   9.041  17.242   8.990
    1HEX    C0V17002   9.212  17.195   8.827
    1HEX    C0W17003   9.295  17.319   8.786
    1HEX    C0Y17004   8.839   0.029   8.879
    1HEX    O0Z17005   8.798  17.435   9.010
    1HEX    C1017006   8.855   0.057   9.115
    1HEX    O1117007   8.944   0.142   9.106
    1HEX    C1217008   8.792   0.016   9.248
    1HEX    C1317009   8.881   0.048   9.371
    1HEX    C1517010   8.621  17.386   8.785
    1HEX    O1617011   8.552  17.340   8.902
    1HEX    C1717012   8.428  17.286   8.886
    1HEX    O1817013   8.390  17.226   8.786
    1HEX    C1917014   8.331  17.310   9.002
    1HEX    C1A17015   8.208  17.394   8.956
    1HEX    H1D17016   8.975  17.175   7.974
    1HEX    H1E17017   9.056  17.327   7.940
    1HEX    H1F17018   8.940  17.441   8.120
    1HEX    H1G17019   8.994  17.289   8.187
    1HEX    H1H17020   8.537  17.318   8.190
    1HEX    H1I17021   8.535   0.049   8.210
    1HEX    H1J17022   8.668   0.117   8.465
    1HEX    H1K17023   8.533   0.074   8.570
    1HEX    H1M17024   8.405   0.477   8.411
    1HEX    H1N17025   8.571   0.466   8.355
    1HEX    H1O17026   8.656   0.559   8.574
    1HEX    H1P17027   8.495   0.563   8.638
    1HEX    H1R17028   8.355  17.328   8.345
    1HEX    H1S17029   8.386  17.323   8.515
    1HEX    H1T17030   8.621  16.981   8.288
    1HEX    H1U17031   8.489  16.895   8.215
    1HEX    H1V17032   8.418  16.798   8.427
    1HEX    H1W17033   8.514  16.909   8.521
    1HEX    H1Y17034   8.704  17.220   8.397
    1HEX    H1Z17035   8.639  17.233   8.549
    1HEX    H2017036   8.791   0.090   8.623
    1HEX    H2117037   8.931  17.435   8.636
    1HEX    H2217038   8.785  17.161   8.728
    1HEX    H2317039   8.810  17.196   8.896
    1HEX    H2417040   9.209  17.122   8.746
    1HEX    H2517041   9.259  17.144   8.911
    1HEX    H2617042   9.239  17.410   8.806
    1HEX    H2717043   9.314  17.318   8.679
    1HEX    H2917044   8.809   0.133   8.860
    1HEX    H2A17045   8.948   0.028   8.873
    1HEX    H2B17046   8.768  17.350   9.245
    1HEX    H2C17047   8.698   0.071   9.254
    1HEX    H2D17048   8.946   0.133   9.350
    1HEX    H2E17049   8.948  17.405   9.393
    1HEX    H2G17050   8.573  17.344   8.699
    1HEX    H2H17051   8.596   0.052   8.779
    1HEX    H2I17052   8.383  17.359   9.084
    1HEX    H2J17053   8.300  17.212   9.038
    1HEX    H2K17054   8.207  17.402   8.847
    1HEX    H2M17055   8.213   0.056   8.994
    1STR    S0017056   8.837  17.319   7.844
    1STR    S0E17057   8.532   0.751   8.493
    1STR    S0M17058   8.652  16.729   8.429
    1STR    S0X17059   9.455  17.332   8.877
    1STR    S1417060   8.781   0.092   9.517
    1STR    S1B17061   8.045  17.321   9.003
    1HEX    C0117062   8.935  17.297  12.325
    1HEX    C0217063   8.926  17.349  12.470
    1HEX    C0317064   8.785  17.332  12.525
    1HEX    O0417065   8.730  17.222  12.521
    1HEX    O0517066   8.733   0.007  12.572
    1HEX    C0617067   8.592   0.014  12.596
    1HEX    C0717068   8.549  17.437  12.744
    1HEX    C0817069   8.570   0.132  12.823
    1HEX    O0917070   8.517   0.265  12.798
    1HEX    C0A17071   8.539   0.360  12.899
    1HEX    O0B17072   8.566   0.329  13.015
    1HEX    C0C17073   8.535   0.512  12.862
    1HEX    C0D17074   8.594   0.605  12.977
    1HEX    C0F17075   8.402  17.382  12.743
    1HEX    O0G17076   8.401  17.239  12.725
    1HEX    C0H17077   8.369  17.180  12.607
    1HEX    O0I17078   8.314  17.237  12.513
    1HEX    C0J17079   8.414  17.033  12.594
    1HEX    C0K17080   8.401  16.945  12.721
    1HEX    C0N17081   8.634  17.323  12.816
    1HEX    O0O17082   8.769  17.346  12.859
    1HEX    C0P17083   8.809  17.424  12.974
    1HEX    C0Q17084   8.771  17.380  13.119
    1HEX    C0R17085   8.836  17.240  13.146
    1HEX    O0S17086   8.977  17.233  13.110
    1HEX    C0T17087   9.079  17.247  13.201
    1HEX    O0U17088   9.064  17.273  13.320
    1HEX    C0V17089   9.221  17.222  13.144
    1HEX    C0W17090   9.316  17.346  13.136
    1HEX    C0Y17091   8.838   0.041  13.215
    1HEX    O0Z17092   8.792   0.007  13.344
    1HEX    C1017093   8.845   0.063  13.452
    1HEX    O1117094   8.935   0.146  13.454
    1HEX    C1217095   8.775   0.011  13.576
    1HEX    C1317096   8.843   0.056  13.705
    1HEX    C1517097   8.615  17.399  13.139
    1HEX    O1617098   8.534  17.340  13.242
    1HEX    C1717099   8.420  17.275  13.203
    1HEX    O1817100   8.417  17.194  13.110
    1HEX    C1917101   8.289  17.318  13.272
    1HEX    C1A17102   8.188  17.376  13.168
    1HEX    H1D17103   9.034  17.255  12.305
    1HEX    H1E17104   8.865  17.215  12.310
    1HEX    H1F17105   8.958   0.012  12.479
    1HEX    H1G17106   8.991  17.289  12.535
    1HEX    H1H17107   8.542  17.381  12.531
    1HEX    H1I17108   8.557   0.110  12.558
    1HEX    H1J17109   8.676   0.153  12.811
    1HEX    H1K17110   8.550   0.110  12.927
    1HEX    H1M17111   8.432   0.538  12.840
    1HEX    H1N17112   8.592   0.526  12.771
    1HEX    H1O17113   8.700   0.584  12.989
    1HEX    H1P17114   8.549   0.576  13.072
    1HEX    H1R17115   8.341  17.433  12.668
    1HEX    H1S17116   8.353  17.403  12.838
    1HEX    H1T17117   8.518  17.033  12.559
    1HEX    H1U17118   8.355  16.989  12.513
    1HEX    H1V17119   8.304  16.962  12.767
    1HEX    H1W17120   8.476  16.974  12.795
    1HEX    H1Y17121   8.644  17.242  12.744
    1HEX    H1Z17122   8.577  17.267  12.890
    1HEX    H2017123   8.788   0.089  12.963
    1HEX    H2117124   8.918  17.422  12.967
    1HEX    H2217125   8.783  17.165  13.088
    1HEX    H2317126   8.822  17.211  13.250
    1HEX    H2417127   9.212  17.172  13.047
    1HEX    H2517128   9.266  17.149  13.211
    1HEX    H2617129   9.317  17.400  13.231
    1HEX    H2717130   9.279  17.416  13.061
    1HEX    H2917131   8.810   0.144  13.194
    1HEX    H2A17132   8.946   0.038  13.211
    1HEX    H2B17133   8.773  17.342  13.569
    1HEX    H2C17134   8.672   0.046  13.573
    1HEX    H2D17135   8.839   0.164  13.715
    1HEX    H2E17136   8.949   0.029  13.704
    1HEX    H2G17137   8.563  17.380  13.047
    1HEX    H2H17138   8.597   0.066  13.151
    1HEX    H2I17139   8.310  17.388  13.353
    1HEX    H2J17140   8.247  17.228  13.318
    1HEX    H2K17141   8.205  17.328  13.072
    1HEX    H2M17142   8.209   0.042  13.151
    1STR    S0017143   8.899  17.424  12.200
    1STR    S0E17144   8.570   0.790  12.966
    1STR    S0M17145   8.415  16.764  12.685
    1STR    S0X17146   9.491  17.302  13.091
    1STR    S1417147   8.761  17.415  13.846
    1STR    S1B17148   8.007  17.360  13.204
    1HEX    C0117149   8.888   4.200  16.668
    1HEX    C0217150   8.901   4.249  16.814
    1HEX    C0317151   8.771   4.222  16.889
    1HEX    O0417152   8.726   4.108  16.896
    1HEX    O0517153   8.713   4.333  16.939
    1HEX    C0617154   8.577   4.329  16.980
    1HEX    C0717155   8.555   4.323  17.133
    1HEX    C0817156   8.578   4.465  17.196
    1HEX    O0917157   8.515   4.590  17.163
    1HEX    C0A17158   8.533   4.695  17.254
    1HEX    O0B17159   8.557   4.678  17.374
    1HEX    C0C17160   8.530   4.839  17.197
    1HEX    C0D17161   8.503   4.955  17.300
    1HEX    C0F17162   8.410   4.264  17.156
    1HEX    O0G17163   8.415   4.120  17.173
    1HEX    C0H17164   8.373   4.032  17.079
    1HEX    O0I17165   8.303   4.060  16.983
    1HEX    C0J17166   8.432   3.891  17.097
    1HEX    C0K17167   8.367   3.798  17.204
    1HEX    C0N17168   8.656   4.222  17.203
    1HEX    O0O17169   8.787   4.265  17.241
    1HEX    C0P17170   8.816   4.344  17.359
    1HEX    C0Q17171   8.776   4.296   0.063
    1HEX    C0R17172   8.840   4.155   0.085
    1HEX    O0S17173   8.982   4.152   0.057
    1HEX    C0T17174   9.077   4.158   0.155
    1HEX    O0U17175   9.052   4.173   0.275
    1HEX    C0V17176   9.224   4.139   0.108
    1HEX    C0W17177   9.284   4.249   0.016
    1HEX    C0Y17178   8.840   4.395   0.164
    1HEX    O0Z17179   8.801   4.366   0.297
    1HEX    C1017180   8.853   4.439   0.398
    1HEX    O1117181   8.937   4.527   0.385
    1HEX    C1217182   8.792   4.405   0.534
    1HEX    C1317183   8.897   4.396   0.648
    1HEX    C1517184   8.620   4.311   0.080
    1HEX    O1617185   8.545   4.257   0.190
    1HEX    C1717186   8.427   4.193   0.161
    1HEX    O1817187   8.411   4.118   0.064
    1HEX    C1917188   8.308   4.227   0.252
    1HEX    C1A17189   8.195   4.297   0.170
    1HEX    H1D17190   8.968   4.130  16.644
    1HEX    H1E17191   8.795   4.145  16.653
    1HEX    H1F17192   8.926   4.355  16.820
    1HEX    H1G17193   8.979   4.194  16.865
    1HEX    H1H17194   8.527   4.245  16.930
    1HEX    H1I17195   8.528   4.417  16.938
    1HEX    H1J17196   8.682   4.488  17.174
    1HEX    H1K17197   8.567   4.453  17.303
    1HEX    H1M17198   8.454   4.841  17.119
    1HEX    H1N17199   8.625   4.856  17.146
    1HEX    H1O17200   8.473   4.912  17.396
    1HEX    H1P17201   8.417   5.014  17.268
    1HEX    H1R17202   8.341   4.293  17.077
    1HEX    H1S17203   8.367   4.305  17.247
    1HEX    H1T17204   8.537   3.906  17.120
    1HEX    H1U17205   8.430   3.841  17.000
    1HEX    H1V17206   8.292   3.734  17.157
    1HEX    H1W17207   8.315   3.855  17.281
    1HEX    H1Y17208   8.672   4.141  17.131
    1HEX    H1Z17209   8.613   4.163  17.283
    1HEX    H2017210   8.788   4.448  17.347
    1HEX    H2117211   8.925   4.350  17.357
    1HEX    H2217212   8.791   4.083   0.020
    1HEX    H2317213   8.820   4.120   0.187
    1HEX    H2417214   9.228   4.043   0.056
    1HEX    H2517215   9.286   4.126   0.197
    1HEX    H2617216   9.204   4.321  17.435
    1HEX    H2717217   9.312   4.206  17.360
    1HEX    H2917218   8.812   4.498   0.141
    1HEX    H2A17219   8.949   4.393   0.157
    1HEX    H2B17220   8.739   4.310   0.525
    1HEX    H2C17221   8.717   4.481   0.555
    1HEX    H2D17222   8.994   4.428   0.610
    1HEX    H2E17223   8.909   4.293   0.681
    1HEX    H2G17224   8.567   4.284  17.431
    1HEX    H2H17225   8.599   4.418   0.086
    1HEX    H2I17226   8.341   4.287   0.336
    1HEX    H2J17227   8.271   4.133   0.292
    1HEX    H2K17228   8.185   4.250   0.072
    1HEX    H2M17229   8.222   4.401   0.151
    1STR    S0017230   8.888   4.335  16.546
    1STR    S0E17231   8.642   5.072  17.339
    1STR    S0M17232   8.496   3.690  17.281
    1STR    S0X17233   9.428   4.348   0.078
    1STR    S1417234   8.860   4.503   0.792
    1STR    S1B17235   8.028   4.297   0.248
    1HEX    C0117236   8.948   4.264   3.603
    1HEX    C0217237   8.915   4.243   3.753
    1HEX    C0317238   8.769   4.227   3.785
    1HEX    O0417239   8.711   4.120   3.767
    1HEX    O0517240   8.717   4.337   3.841
    1HEX    C0617241   8.581   4.338   3.879
    1HEX    C0717242   8.560   4.316   4.031
    1HEX    C0817243   8.562   4.456   4.104
    1HEX    O0917244   8.505   4.583   4.064
    1HEX    C0A17245   8.520   4.688   4.155
    1HEX    O0B17246   8.547   4.669   4.274
    1HEX    C0C17247   8.509   4.833   4.103
    1HEX    C0D17248   8.538   4.941   4.215
    1HEX    C0F17249   8.427   4.233   4.047
    1HEX    O0G17250   8.457   4.091   4.040
    1HEX    C0H17251   8.422   4.011   3.937
    1HEX    O0I17252   8.337   4.040   3.853
    1HEX    C0J17253   8.505   3.881   3.925
    1HEX    C0K17254   8.503   3.781   4.045
    1HEX    C0N17255   8.672   4.223   4.096
    1HEX    O0O17256   8.799   4.275   4.136
    1HEX    C0P17257   8.823   4.345   4.260
    1HEX    C0Q17258   8.778   4.291   4.400
    1HEX    C0R17259   8.836   4.148   4.423
    1HEX    O0S17260   8.977   4.137   4.395
    1HEX    C0T17261   9.071   4.143   4.493
    1HEX    O0U17262   9.049   4.170   4.611
    1HEX    C0V17263   9.213   4.103   4.449
    1HEX    C0W17264   9.312   4.220   4.421
    1HEX    C0Y17265   8.840   4.388   4.504
    1HEX    O0Z17266   8.798   4.357   4.635
    1HEX    C1017267   8.854   4.422   4.738
    1HEX    O1117268   8.947   4.503   4.730
    1HEX    C1217269   8.786   4.388   4.870
    1HEX    C1317270   8.872   4.420   4.994
    1HEX    C1517271   8.621   4.303   4.414
    1HEX    O1617272   8.547   4.238   4.519
    1HEX    C1717273   8.423   4.185   4.488
    1HEX    O1817274   8.390   4.143   4.378
    1HEX    C1917275   8.321   4.187   4.603
    1HEX    C1A17276   8.188   4.261   4.567
    1HEX    H1D17277   9.022   4.190   3.576
    1HEX    H1E17278   8.990   4.363   3.587
    1HEX    H1F17279   8.954   4.325   3.813
    1HEX    H1G17280   8.965   4.154   3.791
    1HEX    H1H17281   8.526   4.264   3.820
    1HEX    H1I17282   8.538   4.434   3.847
    1HEX    H1J17283   8.667   4.485   4.102
    1HEX    H1K17284   8.532   4.441   4.207
    1HEX    H1M17285   8.410   4.848   4.060
    1HEX    H1N17286   8.581   4.845   4.022
    1HEX    H1O17287   8.636   4.924   4.260
    1HEX    H1P17288   8.467   4.927   4.297
    1HEX    H1R17289   8.351   4.262   3.974
    1HEX    H1S17290   8.381   4.252   4.144
    1HEX    H1T17291   8.607   3.913   3.906
    1HEX    H1U17292   8.473   3.830   3.835
    1HEX    H1V17293   8.407   3.729   4.048
    1HEX    H1W17294   8.511   3.834   4.140
    1HEX    H1Y17295   8.696   4.147   4.022
    1HEX    H1Z17296   8.635   4.158   4.175
    1HEX    H2017297   8.795   4.449   4.253
    1HEX    H2117298   8.932   4.350   4.262
    1HEX    H2217299   8.784   4.077   4.358
    1HEX    H2317300   8.814   4.115   4.525
    1HEX    H2417301   9.207   4.035   4.363
    1HEX    H2517302   9.251   4.043   4.531
    1HEX    H2617303   9.287   4.307   4.482
    1HEX    H2717304   9.304   4.251   4.317
    1HEX    H2917305   8.812   4.491   4.483
    1HEX    H2A17306   8.949   4.385   4.499
    1HEX    H2B17307   8.759   4.283   4.868
    1HEX    H2C17308   8.694   4.446   4.871
    1HEX    H2D17309   8.923   4.516   4.985
    1HEX    H2E17310   8.950   4.345   5.005
    1HEX    H2G17311   8.575   4.274   4.322
    1HEX    H2H17312   8.596   4.408   4.423
    1HEX    H2I17313   8.369   4.238   4.687
    1HEX    H2J17314   8.301   4.085   4.636
    1HEX    H2K17315   8.205   4.332   4.486
    1HEX    H2M17316   8.155   4.321   4.652
    1STR    S0017317   8.819   4.238   3.477
    1STR    S0E17318   8.528   5.119   4.165
    1STR    S0M17319   8.638   3.654   4.035
    1STR    S0X17320   9.485   4.168   4.457
    1STR    S1417321   8.763   4.424   5.140
    1STR    S1B17322   8.046   4.155   4.518
    1HEX    C0117323   9.007   4.231   8.040
    1HEX    C0217324   8.937   4.326   8.139
    1HEX    C0317325   8.790   4.292   8.163
    1HEX    O0417326   8.746   4.179   8.142
    1HEX    O0517327   8.721   4.396   8.214
    1HEX    C0617328   8.581   4.384   8.235
    1HEX    C0717329   8.544   4.359   8.384
    1HEX    C0817330   8.561   4.493   8.466
    1HEX    O0917331   8.516   4.627   8.434
    1HEX    C0A17332   8.543   4.724   8.531
    1HEX    O0B17333   8.572   4.695   8.647
    1HEX    C0C17334   8.542   4.874   8.488
    1HEX    C0D17335   8.609   4.969   8.596
    1HEX    C0F17336   8.399   4.300   8.386
    1HEX    O0G17337   8.400   4.156   8.370
    1HEX    C0H17338   8.364   4.094   8.255
    1HEX    O0I17339   8.309   4.150   8.161
    1HEX    C0J17340   8.403   3.945   8.248
    1HEX    C0K17341   8.371   3.861   8.374
    1HEX    C0N17342   8.636   4.247   8.449
    1HEX    O0O17343   8.769   4.275   8.499
    1HEX    C0P17344   8.804   4.347   8.621
    1HEX    C0Q17345   8.765   4.297   8.764
    1HEX    C0R17346   8.834   4.159   8.790
    1HEX    O0S17347   8.976   4.157   8.757
    1HEX    C0T17348   9.075   4.169   8.851
    1HEX    O0U17349   9.056   4.191   8.970
    1HEX    C0V17350   9.219   4.148   8.797
    1HEX    C0W17351   9.312   4.273   8.806
    1HEX    C0Y17352   8.824   4.399   8.865
    1HEX    O0Z17353   8.791   4.362   8.997
    1HEX    C1017354   8.849   4.426   9.099
    1HEX    O1117355   8.929   4.520   9.088
    1HEX    C1217356   8.806   4.371   9.234
    1HEX    C1317357   8.913   4.399   9.342
    1HEX    C1517358   8.608   4.306   8.776
    1HEX    O1617359   8.526   4.271   8.889
    1HEX    C1717360   8.405   4.211   8.861
    1HEX    O1817361   8.390   4.122   8.778
    1HEX    C1917362   8.282   4.270   8.933
    1HEX    C1A17363   8.180   4.329   8.830
    1HEX    H1D17364   9.114   4.231   8.061
    1HEX    H1E17365   8.974   4.129   8.059
    1HEX    H1F17366   8.945   4.430   8.108
    1HEX    H1G17367   8.983   4.318   8.237
    1HEX    H1H17368   8.540   4.305   8.171
    1HEX    H1I17369   8.534   4.475   8.199
    1HEX    H1J17370   8.668   4.511   8.462
    1HEX    H1K17371   8.532   4.471   8.567
    1HEX    H1M17372   8.439   4.903   8.470
    1HEX    H1N17373   8.595   4.883   8.394
    1HEX    H1O17374   8.716   4.951   8.600
    1HEX    H1P17375   8.572   4.940   8.695
    1HEX    H1R17376   8.334   4.348   8.312
    1HEX    H1S17377   8.351   4.321   8.482
    1HEX    H1T17378   8.509   3.938   8.224
    1HEX    H1U17379   8.350   3.903   8.162
    1HEX    H1V17380   8.271   3.888   8.409
    1HEX    H1W17381   8.439   3.887   8.456
    1HEX    H1Y17382   8.654   4.175   8.370
    1HEX    H1Z17383   8.583   4.181   8.515
    1HEX    H2017384   8.781   4.453   8.614
    1HEX    H2117385   8.913   4.348   8.616
    1HEX    H2217386   8.785   4.083   8.729
    1HEX    H2317387   8.818   4.128   8.893
    1HEX    H2417388   9.214   4.108   8.696
    1HEX    H2517389   9.262   4.069   8.859
    1HEX    H2617390   9.313   4.311   8.908
    1HEX    H2717391   9.271   4.353   8.745
    1HEX    H2917392   8.787   4.500   8.847
    1HEX    H2A17393   8.933   4.405   8.854
    1HEX    H2B17394   8.792   4.264   9.223
    1HEX    H2C17395   8.710   4.415   9.261
    1HEX    H2D17396   8.917   4.506   9.362
    1HEX    H2E17397   9.011   4.371   9.304
    1HEX    H2G17398   8.565   4.257   8.692
    1HEX    H2H17399   8.582   4.411   8.762
    1HEX    H2I17400   8.312   4.343   9.007
    1HEX    H2J17401   8.235   4.187   8.987
    1HEX    H2K17402   8.185   4.273   8.736
    1HEX    H2M17403   8.208   4.431   8.804
    1STR    S0017404   8.990   4.266   7.860
    1STR    S0E17405   8.580   5.153   8.589
    1STR    S0M17406   8.373   3.679   8.348
    1STR    S0X17407   9.487   4.244   8.750
    1STR    S1417408   8.881   4.309   9.497
    1STR    S1B17409   8.001   4.332   8.878
    1HEX    C0117410   8.943   4.199  12.345
    1HEX    C0217411   8.929   4.231  12.495
    1HEX    C0317412   8.787   4.205  12.543
    1HEX    O0417413   8.742   4.090  12.543
    1HEX    O0517414   8.723   4.315  12.585
    1HEX    C0617415   8.586   4.306  12.623
    1HEX    C0717416   8.564   4.302  12.777
    1HEX    C0817417   8.579   4.446  12.836
    1HEX    O0917418   8.514   4.569  12.798
    1HEX    C0A17419   8.520   4.672  12.891
    1HEX    O0B17420   8.520   4.654  13.013
    1HEX    C0C17421   8.535   4.816  12.836
    1HEX    C0D17422   8.542   4.929  12.945
    1HEX    C0F17423   8.424   4.233  12.803
    1HEX    O0G17424   8.440   4.089  12.821
    1HEX    C0H17425   8.405   3.999  12.726
    1HEX    O0I17426   8.336   4.025  12.628
    1HEX    C0J17427   8.467   3.858  12.744
    1HEX    C0K17428   8.460   3.790  12.885
    1HEX    C0N17429   8.670   4.210  12.850
    1HEX    O0O17430   8.798   4.262  12.887
    1HEX    C0P17431   8.822   4.342  13.005
    1HEX    C0Q17432   8.777   4.296  13.148
    1HEX    C0R17433   8.828   4.151  13.173
    1HEX    O0S17434   8.968   4.136  13.144
    1HEX    C0T17435   9.063   4.141  13.242
    1HEX    O0U17436   9.041   4.165  13.360
    1HEX    C0V17437   9.205   4.109  13.192
    1HEX    C0W17438   9.297   4.233  13.170
    1HEX    C0Y17439   8.843   4.392  13.250
    1HEX    O0Z17440   8.801   4.360  13.382
    1HEX    C1017441   8.853   4.427  13.485
    1HEX    O1117442   8.939   4.515  13.477
    1HEX    C1217443   8.789   4.388  13.618
    1HEX    C1317444   8.883   4.404  13.740
    1HEX    C1517445   8.622   4.317  13.162
    1HEX    O1617446   8.552   4.275  13.280
    1HEX    C1717447   8.434   4.210  13.263
    1HEX    O1817448   8.412   4.126  13.176
    1HEX    C1917449   8.322   4.257  13.356
    1HEX    C1A17450   8.209   4.324  13.273
    1HEX    H1D17451   9.038   4.148  12.325
    1HEX    H1E17452   8.865   4.130  12.312
    1HEX    H1F17453   8.959   4.333  12.519
    1HEX    H1G17454   8.993   4.164  12.553
    1HEX    H1H17455   8.539   4.220  12.574
    1HEX    H1I17456   8.534   4.392  12.581
    1HEX    H1J17457   8.683   4.473  12.817
    1HEX    H1K17458   8.566   4.436  12.942
    1HEX    H1M17459   8.455   4.836  12.765
    1HEX    H1N17460   8.628   4.816  12.778
    1HEX    H1O17461   8.570   4.890  13.043
    1HEX    H1P17462   8.442   4.972  12.959
    1HEX    H1R17463   8.352   4.256  12.724
    1HEX    H1S17464   8.379   4.271  12.894
    1HEX    H1T17465   8.570   3.865  12.711
    1HEX    H1U17466   8.418   3.793  12.671
    1HEX    H1V17467   8.358   3.786  12.921
    1HEX    H1W17468   8.516   3.849  12.958
    1HEX    H1Y17469   8.690   4.126  12.783
    1HEX    H1Z17470   8.630   4.155  12.935
    1HEX    H2017471   8.793   4.446  12.990
    1HEX    H2117472   8.931   4.348  13.006
    1HEX    H2217473   8.774   4.082  13.109
    1HEX    H2317474   8.805   4.121  13.275
    1HEX    H2417475   9.198   4.049  13.102
    1HEX    H2517476   9.248   4.045  13.269
    1HEX    H2617477   9.251   4.324  13.208
    1HEX    H2717478   9.312   4.248  13.063
    1HEX    H2917479   8.817   4.496  13.229
    1HEX    H2A17480   8.952   4.387  13.244
    1HEX    H2B17481   8.753   4.286  13.611
    1HEX    H2C17482   8.701   4.452  13.628
    1HEX    H2D17483   8.965   4.471  13.716
    1HEX    H2E17484   8.928   4.308  13.767
    1HEX    H2G17485   8.568   4.277  13.078
    1HEX    H2H17486   8.602   4.424  13.157
    1HEX    H2I17487   8.361   4.324  13.432
    1HEX    H2J17488   8.283   4.169  13.407
    1HEX    H2K17489   8.186   4.262  13.186
    1HEX    H2M17490   8.240   4.421  13.234
    1STR    S0017491   8.939   4.351  12.244
    1STR    S0E17492   8.660   5.067  12.909
    1STR    S0M17493   8.529   3.618  12.878
    1STR    S0X17494   9.462   4.211  13.249
    1STR    S1417495   8.798   4.477  13.885
    1STR    S1B17496   8.051   4.344  13.365
    1HEX    C0117497   8.934   8.501  16.719
    1HEX    C0217498   8.911   8.567  16.857
    1HEX    C0317499   8.763   8.572  16.892
    1HEX    O0417500   8.693   8.471  16.883
    1HEX    O0517501   8.721   8.693  16.935
    1HEX    C0617502   8.583   8.713  16.964
    1HEX    C0717503   8.545   8.701  17.114
    1HEX    C0817504   8.562   8.840  17.188
    1HEX    O0917505   8.506   8.972  17.159
    1HEX    C0A17506   8.527   9.070  17.258
    1HEX    O0B17507   8.558   9.042  17.374
    1HEX    C0C17508   8.517   9.221  17.219
    1HEX    C0D17509   8.564   9.318  17.335
    1HEX    C0F17510   8.402   8.636  17.120
    1HEX    O0G17511   8.415   8.492  17.101
    1HEX    C0H17512   8.351   8.423  17.005
    1HEX    O0I17513   8.258   8.467  16.937
    1HEX    C0J17514   8.412   8.283  16.976
    1HEX    C0K17515   8.410   8.177  17.091
    1HEX    C0N17516   8.637   8.594  17.189
    1HEX    O0O17517   8.773   8.626  17.225
    1HEX    C0P17518   8.810   8.704  17.341
    1HEX    C0Q17519   8.773   8.658   0.046
    1HEX    C0R17520   8.835   8.516   0.070
    1HEX    O0S17521   8.975   8.506   0.032
    1HEX    C0T17522   9.078   8.518   0.122
    1HEX    O0U17523   9.065   8.547   0.240
    1HEX    C0V17524   9.218   8.484   0.066
    1HEX    C0W17525   9.316   8.604   0.044
    1HEX    C0Y17526   8.843   8.757   0.141
    1HEX    O0Z17527   8.799   8.727   0.271
    1HEX    C1017528   8.850   8.791   0.375
    1HEX    O1117529   8.940   8.874   0.373
    1HEX    C1217530   8.776   8.751   0.502
    1HEX    C1317531   8.846   8.798   0.629
    1HEX    C1517532   8.618   8.677   0.069
    1HEX    O1617533   8.538   8.608   0.167
    1HEX    C1717534   8.423   8.546   0.122
    1HEX    O1817535   8.415   8.485   0.016
    1HEX    C1917536   8.296   8.568   0.207
    1HEX    C1A17537   8.188   8.649   0.128
    1HEX    H1D17538   9.016   8.430  16.726
    1HEX    H1E17539   8.847   8.445  16.686
    1HEX    H1F17540   8.953   8.667  16.862
    1HEX    H1G17541   8.958   8.509  16.936
    1HEX    H1H17542   8.524   8.644  16.903
    1HEX    H1I17543   8.554   8.812  16.927
    1HEX    H1J17544   8.667   8.863  17.176
    1HEX    H1K17545   8.540   8.823  17.292
    1HEX    H1M17546   8.414   9.241  17.190
    1HEX    H1N17547   8.578   9.237  17.130
    1HEX    H1O17548   8.670   9.301  17.356
    1HEX    H1P17549   8.513   9.290  17.427
    1HEX    H1R17550   8.334   8.680  17.047
    1HEX    H1S17551   8.355   8.652  17.217
    1HEX    H1T17552   8.514   8.300  16.945
    1HEX    H1U17553   8.361   8.243  16.889
    1HEX    H1V17554   8.308   8.151  17.118
    1HEX    H1W17555   8.457   8.218  17.181
    1HEX    H1Y17556   8.650   8.510  17.121
    1HEX    H1Z17557   8.586   8.541  17.269
    1HEX    H2017558   8.784   8.809  17.330
    1HEX    H2117559   8.918   8.705  17.334
    1HEX    H2217560   8.779   8.443   0.012
    1HEX    H2317561   8.822   8.487   0.175
    1HEX    H2417562   9.207   8.425  17.415
    1HEX    H2517563   9.262   8.417   0.139
    1HEX    H2617564   9.312   8.673   0.129
    1HEX    H2717565   9.285   8.662  17.397
    1HEX    H2917566   8.817   8.861   0.119
    1HEX    H2A17567   8.952   8.752   0.135
    1HEX    H2B17568   8.767   8.642   0.501
    1HEX    H2C17569   8.676   8.792   0.495
    1HEX    H2D17570   8.862   8.906   0.630
    1HEX    H2E17571   8.944   8.752   0.638
    1HEX    H2G17572   8.565   8.668  17.417
    1HEX    H2H17573   8.601   8.782   0.092
    1HEX    H2I17574   8.321   8.617   0.302
    1HEX    H2J17575   8.257   8.470   0.232
    1HEX    H2K17576   8.205   8.636   0.021
    1HEX    H2M17577   8.201   8.755   0.146
    1STR    S0017578   8.977   8.624  16.593
    1STR    S0E17579   8.538   9.502  17.317
    1STR    S0M17580   8.500   8.023  17.039
    1STR    S0X17581   9.491   8.548   0.019
    1STR    S1417582   8.743   8.749   0.771
    1STR    S1B17583   8.010   8.608   0.159
    1HEX    C0117584   8.956   8.564   3.688
    1HEX    C0217585   8.889   8.535   3.824
    1HEX    C0317586   8.738   8.554   3.827
    1HEX    O0417587   8.663   8.458   3.807
    1HEX    O0517588   8.702   8.677   3.868
    1HEX    C0617589   8.565   8.703   3.897
    1HEX    C0717590   8.533   8.697   4.049
    1HEX    C0817591   8.559   8.838   4.116
    1HEX    O0917592   8.510   8.969   4.079
    1HEX    C0A17593   8.540   9.074   4.167
    1HEX    O0B17594   8.568   9.057   4.285
    1HEX    C0C17595   8.545   9.217   4.107
    1HEX    C0D17596   8.512   9.337   4.204
    1HEX    C0F17597   8.385   8.643   4.064
    1HEX    O0G17598   8.385   8.498   4.076
    1HEX    C0H17599   8.347   8.414   3.976
    1HEX    O0I17600   8.284   8.447   3.876
    1HEX    C0J17601   8.396   8.268   3.997
    1HEX    C0K17602   8.289   8.170   4.053
    1HEX    C0N17603   8.624   8.590   4.124
    1HEX    O0O17604   8.759   8.623   4.163
    1HEX    C0P17605   8.796   8.703   4.278
    1HEX    C0Q17606   8.758   8.662   4.424
    1HEX    C0R17607   8.815   8.519   4.450
    1HEX    O0S17608   8.953   8.504   4.406
    1HEX    C0T17609   9.061   8.514   4.490
    1HEX    O0U17610   9.055   8.539   4.610
    1HEX    C0V17611   9.198   8.485   4.422
    1HEX    C0W17612   9.319   8.566   4.481
    1HEX    C0Y17613   8.830   8.760   4.520
    1HEX    O0Z17614   8.796   8.736   4.656
    1HEX    C1017615   8.857   8.809   4.752
    1HEX    O1117616   8.943   8.895   4.732
    1HEX    C1217617   8.806   8.778   4.892
    1HEX    C1317618   8.920   8.745   4.992
    1HEX    C1517619   8.603   8.685   4.444
    1HEX    O1617620   8.526   8.632   4.552
    1HEX    C1717621   8.410   8.568   4.521
    1HEX    O1817622   8.397   8.490   4.427
    1HEX    C1917623   8.287   8.608   4.605
    1HEX    C1A17624   8.183   8.686   4.519
    1HEX    H1D17625   9.056   8.523   3.690
    1HEX    H1E17626   8.964   8.672   3.674
    1HEX    H1F17627   8.931   8.599   3.901
    1HEX    H1G17628   8.909   8.432   3.855
    1HEX    H1H17629   8.502   8.634   3.840
    1HEX    H1I17630   8.539   8.801   3.856
    1HEX    H1J17631   8.665   8.854   4.099
    1HEX    H1K17632   8.542   8.827   4.222
    1HEX    H1M17633   8.473   9.218   4.025
    1HEX    H1N17634   8.642   9.232   4.061
    1HEX    H1O17635   8.461   9.297   4.291
    1HEX    H1P17636   8.441   9.405   4.157
    1HEX    H1R17637   8.321   8.676   3.982
    1HEX    H1S17638   8.339   8.682   4.154
    1HEX    H1T17639   8.486   8.269   4.057
    1HEX    H1U17640   8.428   8.232   3.899
    1HEX    H1V17641   8.252   8.105   3.974
    1HEX    H1W17642   8.204   8.228   4.087
    1HEX    H1Y17643   8.634   8.506   4.057
    1HEX    H1Z17644   8.574   8.538   4.206
    1HEX    H2017645   8.772   8.808   4.265
    1HEX    H2117646   8.905   8.704   4.271
    1HEX    H2217647   8.755   8.446   4.394
    1HEX    H2317648   8.804   8.491   4.555
    1HEX    H2417649   9.187   8.496   4.314
    1HEX    H2517650   9.216   8.379   4.439
    1HEX    H2617651   9.284   8.657   4.529
    1HEX    H2717652   9.362   8.505   4.560
    1HEX    H2917653   8.804   8.864   4.496
    1HEX    H2A17654   8.938   8.755   4.508
    1HEX    H2B17655   8.737   8.694   4.887
    1HEX    H2C17656   8.748   8.864   4.926
    1HEX    H2D17657   9.016   8.763   4.943
    1HEX    H2E17658   8.919   8.640   5.019
    1HEX    H2G17659   8.549   8.663   4.354
    1HEX    H2H17660   8.588   8.793   4.451
    1HEX    H2I17661   8.319   8.666   4.692
    1HEX    H2J17662   8.244   8.516   4.643
    1HEX    H2K17663   8.199   8.669   4.413
    1HEX    H2M17664   8.195   8.794   4.534
    1STR    S0017665   8.877   8.496   3.540
    1STR    S0E17666   8.650   9.443   4.272
    1STR    S0M17667   8.337   8.061   4.196
    1STR    S0X17668   9.464   8.618   4.376
    1STR    S1417669   8.922   8.846   5.145
    1STR    S1B17670   8.006   8.646   4.552
    1HEX    C0117671   8.957   8.587   7.966
    1HEX    C0217672   8.917   8.624   8.110
    1HEX    C0317673   8.776   8.586   8.151
    1HEX    O0417674   8.734   8.471   8.141
    1HEX    O0517675   8.709   8.691   8.204
    1HEX    C0617676   8.574   8.676   8.246
    1HEX    C0717677   8.559   8.665   8.401
    1HEX    C0817678   8.564   8.809   8.465
    1HEX    O0917679   8.498   8.932   8.424
    1HEX    C0A17680   8.514   9.041   8.511
    1HEX    O0B17681   8.551   9.028   8.628
    1HEX    C0C17682   8.490   9.184   8.457
    1HEX    C0D17683   8.535   9.295   8.560
    1HEX    C0F17684   8.427   8.583   8.428
    1HEX    O0G17685   8.455   8.440   8.432
    1HEX    C0H17686   8.420   8.354   8.334
    1HEX    O0I17687   8.341   8.382   8.243
    1HEX    C0J17688   8.491   8.217   8.336
    1HEX    C0K17689   8.510   8.143   8.472
    1HEX    C0N17690   8.674   8.577   8.466
    1HEX    O0O17691   8.799   8.635   8.505
    1HEX    C0P17692   8.820   8.707   8.628
    1HEX    C0Q17693   8.776   8.653   8.769
    1HEX    C0R17694   8.834   8.510   8.790
    1HEX    O0S17695   8.975   8.500   8.764
    1HEX    C0T17696   9.067   8.502   8.865
    1HEX    O0U17697   9.042   8.524   8.983
    1HEX    C0V17698   9.210   8.467   8.821
    1HEX    C0W17699   9.302   8.588   8.789
    1HEX    C0Y17700   8.838   8.748   8.873
    1HEX    O0Z17701   8.798   8.715   9.005
    1HEX    C1017702   8.856   8.777   9.109
    1HEX    O1117703   8.946   8.861   9.100
    1HEX    C1217704   8.794   8.737   9.242
    1HEX    C1317705   8.881   8.773   9.365
    1HEX    C1517706   8.620   8.664   8.783
    1HEX    O1617707   8.550   8.610   8.896
    1HEX    C1717708   8.426   8.556   8.876
    1HEX    O1817709   8.387   8.504   8.771
    1HEX    C1917710   8.329   8.571   8.994
    1HEX    C1A17711   8.201   8.650   8.954
    1HEX    H1D17712   8.992   8.484   7.964
    1HEX    H1E17713   9.041   8.649   7.935
    1HEX    H1F17714   8.928   8.732   8.125
    1HEX    H1G17715   8.984   8.576   8.181
    1HEX    H1H17716   8.528   8.591   8.195
    1HEX    H1I17717   8.519   8.763   8.210
    1HEX    H1J17718   8.667   8.840   8.454
    1HEX    H1K17719   8.542   8.797   8.570
    1HEX    H1M17720   8.384   9.195   8.432
    1HEX    H1N17721   8.546   9.195   8.364
    1HEX    H1O17722   8.643   9.288   8.574
    1HEX    H1P17723   8.492   9.273   8.658
    1HEX    H1R17724   8.349   8.607   8.355
    1HEX    H1S17725   8.384   8.610   8.524
    1HEX    H1T17726   8.589   8.232   8.288
    1HEX    H1U17727   8.436   8.153   8.268
    1HEX    H1V17728   8.416   8.140   8.527
    1HEX    H1W17729   8.581   8.198   8.535
    1HEX    H1Y17730   8.700   8.501   8.392
    1HEX    H1Z17731   8.640   8.513   8.547
    1HEX    H2017732   8.787   8.810   8.619
    1HEX    H2117733   8.929   8.717   8.631
    1HEX    H2217734   8.784   8.439   8.724
    1HEX    H2317735   8.810   8.475   8.891
    1HEX    H2417736   9.206   8.397   8.738
    1HEX    H2517737   9.252   8.411   8.905
    1HEX    H2617738   9.257   8.681   8.824
    1HEX    H2717739   9.313   8.598   8.681
    1HEX    H2917740   8.809   8.852   8.854
    1HEX    H2A17741   8.947   8.747   8.867
    1HEX    H2B17742   8.772   8.630   9.241
    1HEX    H2C17743   8.699   8.789   9.247
    1HEX    H2D17744   8.937   8.865   9.347
    1HEX    H2E17745   8.956   8.696   9.383
    1HEX    H2G17746   8.571   8.627   8.694
    1HEX    H2H17747   8.594   8.770   8.783
    1HEX    H2I17748   8.382   8.622   9.075
    1HEX    H2J17749   8.304   8.472   9.031
    1HEX    H2K17750   8.209   8.686   8.851
    1HEX    H2M17751   8.189   8.740   9.016
    1STR    S0017752   8.828   8.602   7.838
    1STR    S0E17753   8.492   9.474   8.527
    1STR    S0M17754   8.571   7.969   8.448
    1STR    S0X17755   9.468   8.571   8.866
    1STR    S1417756   8.777   8.801   9.512
    1STR    S1B17757   8.045   8.554   8.964
    1HEX    C0117758   8.964   8.602  12.343
    1HEX    C0217759   8.940   8.652  12.486
    1HEX    C0317760   8.797   8.627  12.531
    1HEX    O0417761   8.748   8.514  12.523
    1HEX    O0517762   8.736   8.738  12.576
    1HEX    C0617763   8.595   8.736  12.597
    1HEX    C0717764   8.553   8.719  12.746
    1HEX    C0817765   8.573   8.854  12.825
    1HEX    O0917766   8.522   8.987  12.797
    1HEX    C0A17767   8.546   9.083  12.897
    1HEX    O0B17768   8.573   9.053  13.013
    1HEX    C0C17769   8.543   9.234  12.858
    1HEX    C0D17770   8.607   9.328  12.970
    1HEX    C0F17771   8.406   8.663  12.746
    1HEX    O0G17772   8.408   8.519  12.726
    1HEX    C0H17773   8.374   8.462  12.608
    1HEX    O0I17774   8.313   8.520  12.518
    1HEX    C0J17775   8.423   8.317  12.589
    1HEX    C0K17776   8.444   8.230  12.716
    1HEX    C0N17777   8.639   8.605  12.816
    1HEX    O0O17778   8.774   8.630  12.861
    1HEX    C0P17779   8.811   8.707  12.978
    1HEX    C0Q17780   8.771   8.662  13.122
    1HEX    C0R17781   8.835   8.522  13.150
    1HEX    O0S17782   8.977   8.516  13.114
    1HEX    C0T17783   9.079   8.530  13.206
    1HEX    O0U17784   9.063   8.554  13.325
    1HEX    C0V17785   9.221   8.508  13.149
    1HEX    C0W17786   9.315   8.633  13.151
    1HEX    C0Y17787   8.835   8.763  13.220
    1HEX    O0Z17788   8.792   8.728  13.349
    1HEX    C1017789   8.847   8.784  13.455
    1HEX    O1117790   8.935   8.870  13.455
    1HEX    C1217791   8.784   8.731  13.583
    1HEX    C1317792   8.873   8.754  13.705
    1HEX    C1517793   8.614   8.681  13.139
    1HEX    O1617794   8.531   8.627  13.244
    1HEX    C1717795   8.416   8.564  13.206
    1HEX    O1817796   8.410   8.481  13.116
    1HEX    C1917797   8.285   8.613  13.274
    1HEX    C1A17798   8.186   8.671  13.168
    1HEX    H1D17799   9.070   8.581  12.327
    1HEX    H1E17800   8.912   8.507  12.328
    1HEX    H1F17801   8.965   8.758  12.497
    1HEX    H1G17802   9.003   8.597  12.556
    1HEX    H1H17803   8.550   8.659  12.534
    1HEX    H1I17804   8.554   8.830  12.558
    1HEX    H1J17805   8.679   8.874  12.814
    1HEX    H1K17806   8.551   8.833  12.928
    1HEX    H1M17807   8.440   9.262  12.837
    1HEX    H1N17808   8.599   9.246  12.765
    1HEX    H1O17809   8.713   9.306  12.979
    1HEX    H1P17810   8.565   9.300  13.066
    1HEX    H1R17811   8.344   8.713  12.672
    1HEX    H1S17812   8.358   8.681  12.842
    1HEX    H1T17813   8.517   8.324  12.534
    1HEX    H1U17814   8.352   8.269  12.521
    1HEX    H1V17815   8.354   8.232  12.778
    1HEX    H1W17816   8.525   8.270  12.776
    1HEX    H1Y17817   8.652   8.526  12.743
    1HEX    H1Z17818   8.583   8.547  12.889
    1HEX    H2017819   8.790   8.813  12.968
    1HEX    H2117820   8.920   8.706  12.973
    1HEX    H2217821   8.783   8.447  13.091
    1HEX    H2317822   8.821   8.493  13.254
    1HEX    H2417823   9.214   8.465  13.050
    1HEX    H2517824   9.266   8.431  13.212
    1HEX    H2617825   9.317   8.678  13.250
    1HEX    H2717826   9.276   8.710  13.084
    1HEX    H2917827   8.806   8.866  13.199
    1HEX    H2A17828   8.944   8.761  13.214
    1HEX    H2B17829   8.768   8.624  13.568
    1HEX    H2C17830   8.687   8.778  13.596
    1HEX    H2D17831   8.878   8.861  13.727
    1HEX    H2E17832   8.976   8.723  13.684
    1HEX    H2G17833   8.563   8.658  13.048
    1HEX    H2H17834   8.596   8.788  13.147
    1HEX    H2I17835   8.308   8.684  13.353
    1HEX    H2J17836   8.241   8.526  13.322
    1HEX    H2K17837   8.199   8.617  13.074
    1HEX    H2M17838   8.211   8.775  13.146
    1STR    S0017839   8.906   8.717  12.214
    1STR    S0E17840   8.584   9.513  12.959
    1STR    S0M17841   8.480   8.055  12.670
    1STR    S0X17842   9.490   8.597  13.098
    1STR    S1417843   8.808   8.661  13.847
    1STR    S1B17844   8.005   8.665  13.206
    1HEX    C0117845   8.911  12.927  16.678
    1HEX    C0217846   8.913  12.976  16.824
    1HEX    C0317847   8.782  12.943  16.894
    1HEX    O0417848   8.744  12.826  16.902
    1HEX    O0517849   8.717  13.051  16.940
    1HEX    C0617850   8.581  13.038  16.981
    1HEX    C0717851   8.560  13.034  17.135
    1HEX    C0817852   8.581  13.178  17.194
    1HEX    O0917853   8.513  13.301  17.162
    1HEX    C0A17854   8.521  13.403  17.257
    1HEX    O0B17855   8.531  13.382  17.378
    1HEX    C0C17856   8.526  13.548  17.204
    1HEX    C0D17857   8.509  13.662  17.311
    1HEX    C0F17858   8.417  12.972  17.161
    1HEX    O0G17859   8.425  12.830  17.192
    1HEX    C0H17860   8.402  12.732  17.101
    1HEX    O0I17861   8.347  12.748  16.993
    1HEX    C0J17862   8.458  12.594  17.143
    1HEX    C0K17863   8.376  12.516  17.250
    1HEX    C0N17864   8.664  12.938  17.206
    1HEX    O0O17865   8.793  12.987  17.242
    1HEX    C0P17866   8.819  13.065  17.361
    1HEX    C0Q17867   8.774  13.018   0.064
    1HEX    C0R17868   8.827  12.874   0.088
    1HEX    O0S17869   8.965  12.860   0.049
    1HEX    C0T17870   9.068  12.869   0.136
    1HEX    O0U17871   9.058  12.887   0.257
    1HEX    C0V17872   9.205  12.848   0.068
    1HEX    C0W17873   9.333  12.887   0.150
    1HEX    C0Y17874   8.840  13.113   0.167
    1HEX    O0Z17875   8.799  13.084   0.299
    1HEX    C1017876   8.849  13.155   0.401
    1HEX    O1117877   8.934  13.243   0.390
    1HEX    C1217878   8.787  13.119   0.536
    1HEX    C1317879   8.887  13.122   0.654
    1HEX    C1517880   8.618  13.037   0.079
    1HEX    O1617881   8.545  12.982   0.189
    1HEX    C1717882   8.433  12.910   0.160
    1HEX    O1817883   8.421  12.833   0.065
    1HEX    C1917884   8.313  12.940   0.250
    1HEX    C1A17885   8.202  13.018   0.173
    1HEX    H1D17886   9.000  12.870  16.655
    1HEX    H1E17887   8.828  12.858  16.663
    1HEX    H1F17888   8.933  13.083  16.831
    1HEX    H1G17889   8.992  12.925  16.880
    1HEX    H1H17890   8.536  12.950  16.933
    1HEX    H1I17891   8.526  13.122  16.938
    1HEX    H1J17892   8.684  13.204  17.169
    1HEX    H1K17893   8.575  13.168  17.300
    1HEX    H1M17894   8.450  13.559  17.126
    1HEX    H1N17895   8.622  13.559  17.153
    1HEX    H1O17896   8.498  13.620  17.411
    1HEX    H1P17897   8.416  13.716  17.294
    1HEX    H1R17898   8.348  12.990  17.078
    1HEX    H1S17899   8.370  13.020  17.247
    1HEX    H1T17900   8.560  12.610  17.178
    1HEX    H1U17901   8.468  12.532  17.053
    1HEX    H1V17902   8.302  12.452  17.202
    1HEX    H1W17903   8.320  12.589  17.308
    1HEX    H1Y17904   8.681  12.855  17.137
    1HEX    H1Z17905   8.624  12.882  17.290
    1HEX    H2017906   8.791  13.169  17.347
    1HEX    H2117907   8.928  13.071  17.362
    1HEX    H2217908   8.769  12.803   0.029
    1HEX    H2317909   8.812  12.844   0.192
    1HEX    H2417910   9.203  12.892  17.408
    1HEX    H2517911   9.208  12.740   0.051
    1HEX    H2617912   9.289  12.985   0.127
    1HEX    H2717913   9.401  12.837   0.081
    1HEX    H2917914   8.815  13.217   0.145
    1HEX    H2A17915   8.949  13.108   0.161
    1HEX    H2B17916   8.741  13.021   0.528
    1HEX    H2C17917   8.706  13.190   0.551
    1HEX    H2D17918   8.980  13.167   0.622
    1HEX    H2E17919   8.911  13.020   0.686
    1HEX    H2G17920   8.566  13.009  17.430
    1HEX    H2H17921   8.599  13.145   0.086
    1HEX    H2I17922   8.345  12.993   0.339
    1HEX    H2J17923   8.274  12.844   0.283
    1HEX    H2K17924   8.210  13.001   0.065
    1HEX    H2M17925   8.215  13.126   0.187
    1STR    S0017926   8.891  13.060  16.556
    1STR    S0E17927   8.647  13.785  17.325
    1STR    S0M17928   8.471  12.414  17.373
    1STR    S0X17929   9.454  13.025   0.169
    1STR    S1417930   8.828  13.219   0.798
    1STR    S1B17931   8.032  12.974   0.224
    1HEX    C0117932   8.960  12.999   3.608
    1HEX    C0217933   8.920  12.964   3.754
    1HEX    C0317934   8.770  12.955   3.779
    1HEX    O0417935   8.708  12.853   3.750
    1HEX    O0517936   8.721  13.064   3.840
    1HEX    C0617937   8.583  13.070   3.874
    1HEX    C0717938   8.557  13.048   4.026
    1HEX    C0817939   8.563  13.187   4.102
    1HEX    O0917940   8.505  13.315   4.067
    1HEX    C0A17941   8.522  13.417   4.163
    1HEX    O0B17942   8.552  13.394   4.280
    1HEX    C0C17943   8.508  13.565   4.117
    1HEX    C0D17944   8.541  13.668   4.233
    1HEX    C0F17945   8.421  12.969   4.038
    1HEX    O0G17946   8.447  12.826   4.024
    1HEX    C0H17947   8.398  12.749   3.925
    1HEX    O0I17948   8.305  12.782   3.851
    1HEX    C0J17949   8.475  12.617   3.903
    1HEX    C0K17950   8.475  12.512   4.018
    1HEX    C0N17951   8.664  12.949   4.091
    1HEX    O0O17952   8.794  12.994   4.132
    1HEX    C0P17953   8.821  13.065   4.255
    1HEX    C0Q17954   8.777  13.011   4.396
    1HEX    C0R17955   8.837  12.869   4.419
    1HEX    O0S17956   8.978  12.859   4.388
    1HEX    C0T17957   9.074  12.867   4.485
    1HEX    O0U17958   9.054  12.896   4.602
    1HEX    C0V17959   9.216  12.827   4.438
    1HEX    C0W17960   9.315  12.944   4.411
    1HEX    C0Y17961   8.840  13.109   4.498
    1HEX    O0Z17962   8.797  13.080   4.629
    1HEX    C1017963   8.851  13.145   4.732
    1HEX    O1117964   8.943  13.226   4.725
    1HEX    C1217965   8.781  13.112   4.862
    1HEX    C1317966   8.863  13.149   4.987
    1HEX    C1517967   8.620  13.024   4.411
    1HEX    O1617968   8.543  12.952   4.509
    1HEX    C1717969   8.420  12.901   4.470
    1HEX    O1817970   8.393  12.862   4.357
    1HEX    C1917971   8.312  12.898   4.579
    1HEX    C1A17972   8.181  12.975   4.541
    1HEX    H1D17973   8.921  12.898   3.591
    1HEX    H1E17974   8.912  13.096   3.613
    1HEX    H1F17975   8.960  13.039   3.823
    1HEX    H1G17976   8.963  12.870   3.787
    1HEX    H1H17977   8.526  12.998   3.814
    1HEX    H1I17978   8.544  13.167   3.843
    1HEX    H1J17979   8.668  13.214   4.098
    1HEX    H1K17980   8.535  13.169   4.205
    1HEX    H1M17981   8.407  13.580   4.079
    1HEX    H1N17982   8.577  13.580   4.034
    1HEX    H1O17983   8.643  13.652   4.268
    1HEX    H1P17984   8.478  13.646   4.319
    1HEX    H1R17985   8.346  13.004   3.966
    1HEX    H1S17986   8.376  12.984   4.136
    1HEX    H1T17987   8.578  12.646   3.879
    1HEX    H1U17988   8.436  12.571   3.812
    1HEX    H1V17989   8.376  12.467   4.029
    1HEX    H1W17990   8.497  12.560   4.114
    1HEX    H1Y17991   8.685  12.874   4.015
    1HEX    H1Z17992   8.623  12.884   4.168
    1HEX    H2017993   8.793  13.170   4.248
    1HEX    H2117994   8.930  13.069   4.255
    1HEX    H2217995   8.784  12.798   4.356
    1HEX    H2317996   8.818  12.837   4.522
    1HEX    H2417997   9.208  12.761   4.352
    1HEX    H2517998   9.256  12.767   4.519
    1HEX    H2617999   9.301  13.026   4.482
    1HEX    H2718000   9.297  12.986   4.311
    1HEX    H2918001   8.813  13.213   4.476
    1HEX    H2A18002   8.949  13.107   4.493
    1HEX    H2B18003   8.758  13.006   4.862
    1HEX    H2C18004   8.687  13.166   4.861
    1HEX    H2D18005   8.904  13.250   4.982
    1HEX    H2E18006   8.948  13.081   4.997
    1HEX    H2G18007   8.574  13.004   4.317
    1HEX    H2H18008   8.596  13.129   4.427
    1HEX    H2I18009   8.356  12.945   4.667
    1HEX    H2J18010   8.290  12.795   4.606
    1HEX    H2K18011   8.204  13.057   4.472
    1HEX    H2M18012   8.140  13.022   4.630
    1STR    S0018013   8.872  12.981   3.448
    1STR    S0E18014   8.520  13.849   4.197
    1STR    S0M18015   8.599  12.376   3.990
    1STR    S0X18016   9.490  12.885   4.420
    1STR    S1418017   8.754  13.134   5.132
    1STR    S1B18018   8.044  12.877   4.466
    1HEX    C0118019   9.008  12.988   8.065
    1HEX    C0218020   8.928  13.064   8.173
    1HEX    C0318021   8.781  13.024   8.178
    1HEX    O0418022   8.744  12.909   8.152
    1HEX    O0518023   8.704  13.124   8.222
    1HEX    C0618024   8.565  13.103   8.242
    1HEX    C0718025   8.532  13.081   8.392
    1HEX    C0818026   8.548  13.215   8.471
    1HEX    O0918027   8.503  13.348   8.436
    1HEX    C0A18028   8.531  13.446   8.531
    1HEX    O0B18029   8.561  13.419   8.648
    1HEX    C0C18030   8.531  13.595   8.485
    1HEX    C0D18031   8.598  13.691   8.592
    1HEX    C0F18032   8.387  13.020   8.397
    1HEX    O0G18033   8.393  12.878   8.376
    1HEX    C0H18034   8.343  12.817   8.266
    1HEX    O0I18035   8.267  12.870   8.186
    1HEX    C0J18036   8.395  12.674   8.245
    1HEX    C0K18037   8.387  12.579   8.367
    1HEX    C0N18038   8.625  12.970   8.457
    1HEX    O0O18039   8.759  12.998   8.504
    1HEX    C0P18040   8.796  13.070   8.625
    1HEX    C0Q18041   8.761  13.020   8.770
    1HEX    C0R18042   8.828  12.881   8.794
    1HEX    O0S18043   8.968  12.878   8.755
    1HEX    C0T18044   9.071  12.885   8.846
    1HEX    O0U18045   9.058  12.901   8.967
    1HEX    C0V18046   9.212  12.868   8.783
    1HEX    C0W18047   9.323  12.957   8.849
    1HEX    C0Y18048   8.823  13.121   8.869
    1HEX    O0Z18049   8.795  13.082   9.003
    1HEX    C1018050   8.854  13.148   9.103
    1HEX    O1118051   8.932  13.243   9.089
    1HEX    C1218052   8.816  13.094   9.241
    1HEX    C1318053   8.918  13.137   9.347
    1HEX    C1518054   8.604  13.027   8.784
    1HEX    O1618055   8.526  13.009   8.903
    1HEX    C1718056   8.402  12.953   8.886
    1HEX    O1818057   8.379  12.856   8.814
    1HEX    C1918058   8.284  13.028   8.951
    1HEX    C1A18059   8.171  13.051   8.845
    1HEX    H1D18060   9.113  12.990   8.093
    1HEX    H1E18061   8.979  12.884   8.068
    1HEX    H1F18062   8.936  13.172   8.161
    1HEX    H1G18063   8.966  13.038   8.271
    1HEX    H1H18064   8.529  13.021   8.180
    1HEX    H1I18065   8.512  13.191   8.205
    1HEX    H1J18066   8.655  13.232   8.469
    1HEX    H1K18067   8.516  13.195   8.572
    1HEX    H1M18068   8.428  13.624   8.466
    1HEX    H1N18069   8.584  13.602   8.391
    1HEX    H1O18070   8.706  13.674   8.595
    1HEX    H1P18071   8.563  13.661   8.691
    1HEX    H1R18072   8.320  13.070   8.326
    1HEX    H1S18073   8.341  13.036   8.495
    1HEX    H1T18074   8.499  12.682   8.212
    1HEX    H1U18075   8.340  12.631   8.161
    1HEX    H1V18076   8.284  12.571   8.402
    1HEX    H1W18077   8.445  12.619   8.451
    1HEX    H1Y18078   8.642  12.897   8.379
    1HEX    H1Z18079   8.572  12.905   8.526
    1HEX    H2018080   8.773  13.176   8.619
    1HEX    H2118081   8.905  13.071   8.618
    1HEX    H2218082   8.777  12.805   8.734
    1HEX    H2318083   8.816  12.850   8.897
    1HEX    H2418084   9.204  12.890   8.677
    1HEX    H2518085   9.239  12.763   8.792
    1HEX    H2618086   9.284  13.056   8.871
    1HEX    H2718087   9.351  12.915   8.946
    1HEX    H2918088   8.785  13.222   8.853
    1HEX    H2A18089   8.931  13.126   8.856
    1HEX    H2B18090   8.812  12.986   9.233
    1HEX    H2C18091   8.716  13.129   9.266
    1HEX    H2D18092   8.914  13.245   9.362
    1HEX    H2E18093   9.019  13.116   9.311
    1HEX    H2G18094   8.562  12.962   8.710
    1HEX    H2H18095   8.577  13.129   8.756
    1HEX    H2I18096   8.319  13.122   8.994
    1HEX    H2J18097   8.246  12.966   9.032
    1HEX    H2K18098   8.139  12.953   8.807
    1HEX    H2M18099   8.212  13.103   8.759
    1STR    S0018100   8.997  13.051   7.893
    1STR    S0E18101   8.566  13.874   8.587
    1STR    S0M18102   8.446  12.410   8.325
    1STR    S0X18103   9.476  12.977   8.746
    1STR    S1418104   8.897  13.054   9.508
    1STR    S1B18105   8.020  13.144   8.896
    1HEX    C0118106   8.939  12.950  12.337
    1HEX    C0218107   8.933  12.970  12.490
    1HEX    C0318108   8.795  12.935  12.543
    1HEX    O0418109   8.756  12.818  12.543
    1HEX    O0518110   8.724  13.042  12.585
    1HEX    C0618111   8.588  13.025  12.621
    1HEX    C0718112   8.565  13.018  12.775
    1HEX    C0818113   8.573  13.162  12.836
    1HEX    O0918114   8.514  13.286  12.789
    1HEX    C0A18115   8.523  13.393  12.878
    1HEX    O0B18116   8.530  13.379  13.000
    1HEX    C0C18117   8.532  13.535  12.817
    1HEX    C0D18118   8.556  13.647  12.924
    1HEX    C0F18119   8.428  12.943  12.799
    1HEX    O0G18120   8.449  12.800  12.813
    1HEX    C0H18121   8.418  12.711  12.717
    1HEX    O0I18122   8.349  12.737  12.619
    1HEX    C0J18123   8.483  12.571  12.731
    1HEX    C0K18124   8.488  12.504  12.872
    1HEX    C0N18125   8.673  12.928  12.848
    1HEX    O0O18126   8.800  12.983  12.884
    1HEX    C0P18127   8.824  13.061  13.004
    1HEX    C0Q18128   8.777  13.013  13.145
    1HEX    C0R18129   8.828  12.868  13.170
    1HEX    O0S18130   8.969  12.852  13.142
    1HEX    C0T18131   9.063  12.856  13.240
    1HEX    O0U18132   9.041  12.882  13.358
    1HEX    C0V18133   9.204  12.817  13.194
    1HEX    C0W18134   9.303  12.936  13.176
    1HEX    C0Y18135   8.843  13.108  13.248
    1HEX    O0Z18136   8.801  13.076  13.380
    1HEX    C1018137   8.855  13.141  13.483
    1HEX    O1118138   8.943  13.227  13.475
    1HEX    C1218139   8.792  13.101  13.617
    1HEX    C1318140   8.883  13.127  13.739
    1HEX    C1518141   8.622  13.033  13.159
    1HEX    O1618142   8.551  12.987  13.275
    1HEX    C1718143   8.430  12.926  13.257
    1HEX    O1818144   8.401  12.857  13.160
    1HEX    C1918145   8.325  12.958  13.363
    1HEX    C1A18146   8.209  13.042  13.303
    1HEX    H1D18147   9.037  12.915  12.305
    1HEX    H1E18148   8.868  12.871  12.308
    1HEX    H1F18149   8.961  13.071  12.520
    1HEX    H1G18150   9.002  12.902  12.539
    1HEX    H1H18151   8.546  12.938  12.571
    1HEX    H1I18152   8.532  13.109  12.580
    1HEX    H1J18153   8.677  13.190  12.826
    1HEX    H1K18154   8.548  13.153  12.940
    1HEX    H1M18155   8.443  13.555  12.758
    1HEX    H1N18156   8.616  13.533  12.747
    1HEX    H1O18157   8.616  13.611  13.008
    1HEX    H1P18158   8.460  13.676  12.969
    1HEX    H1R18159   8.355  12.965  12.720
    1HEX    H1S18160   8.381  12.977  12.891
    1HEX    H1T18161   8.585  12.580  12.692
    1HEX    H1U18162   8.431  12.505  12.662
    1HEX    H1V18163   8.389  12.501  12.917
    1HEX    H1W18164   8.551  12.562  12.940
    1HEX    H1Y18165   8.695  12.846  12.780
    1HEX    H1Z18166   8.634  12.872  12.932
    1HEX    H2018167   8.794  13.165  12.991
    1HEX    H2118168   8.932  13.068  13.006
    1HEX    H2218169   8.774  12.799  13.105
    1HEX    H2318170   8.805  12.837  13.272
    1HEX    H2418171   9.198  12.756  13.104
    1HEX    H2518172   9.242  12.752  13.273
    1HEX    H2618173   9.270  13.024  13.231
    1HEX    H2718174   9.306  12.965  13.071
    1HEX    H2918175   8.817  13.212  13.228
    1HEX    H2A18176   8.952  13.103  13.243
    1HEX    H2B18177   8.762  12.997  13.612
    1HEX    H2C18178   8.700  13.160  13.624
    1HEX    H2D18179   8.955  13.206  13.717
    1HEX    H2E18180   8.942  13.038  13.763
    1HEX    H2G18181   8.570  12.995  13.073
    1HEX    H2H18182   8.601  13.140  13.156
    1HEX    H2I18183   8.371  13.008  13.449
    1HEX    H2J18184   8.287  12.862  13.398
    1HEX    H2K18185   8.200  13.021  13.196
    1HEX    H2M18186   8.229  13.149  13.310
    1STR    S0018187   8.901  13.105  12.248
    1STR    S0E18188   8.640  13.801  12.865
    1STR    S0M18189   8.554  12.330  12.861
    1STR    S0X18190   9.473  12.891  13.229
    1STR    S1418191   8.787  13.182  13.885
    1STR    S1B18192   8.045  13.005  13.375
    1HEX    C0118193  13.309  17.260  16.712
    1HEX    C0218194  13.283  17.307  16.856
    1HEX    C0318195  13.134  17.312  16.887
    1HEX    O0418196  13.064  17.212  16.871
    1HEX    O0518197  13.092  17.432  16.934
    1HEX    C0618198  12.953   0.013  16.958
    1HEX    C0718199  12.910  17.435  17.107
    1HEX    C0818200  12.930   0.131  17.185
    1HEX    O0918201  12.876   0.264  17.159
    1HEX    C0A18202  12.895   0.359  17.261
    1HEX    O0B18203  12.920   0.328  17.377
    1HEX    C0C18204  12.888   0.510  17.224
    1HEX    C0D18205  12.943   0.604  17.339
    1HEX    C0F18206  12.763  17.380  17.107
    1HEX    O0G18207  12.764  17.237  17.084
    1HEX    C0H18208  12.727  17.181  16.966
    1HEX    O0I18209  12.666  17.241  16.878
    1HEX    C0J18210  12.773  17.035  16.945
    1HEX    C0K18211  12.791  16.947  17.072
    1HEX    C0N18212  12.995  17.322  17.179
    1HEX    O0O18213  13.131  17.346  17.220
    1HEX    C0P18214  13.170  17.423  17.336
    1HEX    C0Q18215  13.133  17.379   0.041
    1HEX    C0R18216  13.196  17.238   0.067
    1HEX    O0S18217  13.337  17.230   0.030
    1HEX    C0T18218  13.439  17.244   0.120
    1HEX    O0U18219  13.425  17.272   0.239
    1HEX    C0V18220  13.581  17.215   0.064
    1HEX    C0W18221  13.676  17.338   0.050
    1HEX    C0Y18222  13.200   0.039   0.137
    1HEX    O0Z18223  13.154   0.006   0.266
    1HEX    C1018224  13.205   0.066   0.373
    1HEX    O1118225  13.294   0.150   0.374
    1HEX    C1218226  13.133   0.018   0.498
    1HEX    C1318227  13.198   0.067   0.627
    1HEX    C1518228  12.977  17.398   0.061
    1HEX    O1618229  12.896  17.335   0.162
    1HEX    C1718230  12.782  17.271   0.120
    1HEX    O1818231  12.778  17.197   0.022
    1HEX    C1918232  12.651  17.306   0.195
    1HEX    C1A18233  12.548  17.373   0.098
    1HEX    H1D18234  13.402  17.203  16.708
    1HEX    H1E18235  13.231  17.192  16.677
    1HEX    H1F18236  13.329  17.403  16.877
    1HEX    H1G18237  13.325  17.235  16.927
    1HEX    H1H18238  12.896  17.387  16.892
    1HEX    H1I18239  12.927   0.113  16.923
    1HEX    H1J18240  13.035   0.153  17.174
    1HEX    H1K18241  12.908   0.110  17.289
    1HEX    H1M18242  12.785   0.535  17.199
    1HEX    H1N18243  12.948   0.525  17.133
    1HEX    H1O18244  13.049   0.585  17.355
    1HEX    H1P18245  12.896   0.575  17.433
    1HEX    H1R18246  12.700  17.432  17.034
    1HEX    H1S18247  12.716  17.396  17.204
    1HEX    H1T18248  12.867  17.039  16.890
    1HEX    H1U18249  12.701  16.988  16.878
    1HEX    H1V18250  12.702  16.951  17.134
    1HEX    H1W18251  12.873  16.986  17.133
    1HEX    H1Y18252  13.005  17.240  17.107
    1HEX    H1Z18253  12.939  17.267  17.254
    1HEX    H2018254  13.149   0.089  17.325
    1HEX    H2118255  13.279  17.421  17.329
    1HEX    H2218256  13.142  17.163   0.009
    1HEX    H2318257  13.182  17.209   0.172
    1HEX    H2418258  13.571  17.162  17.409
    1HEX    H2518259  13.626  17.145   0.134
    1HEX    H2618260  13.676  17.398   0.141
    1HEX    H2718261  13.641  17.404  17.410
    1HEX    H2918262  13.173   0.143   0.115
    1HEX    H2A18263  13.309   0.035   0.132
    1HEX    H2B18264  13.132  17.349   0.494
    1HEX    H2C18265  13.030   0.052   0.491
    1HEX    H2D18266  13.199   0.176   0.632
    1HEX    H2E18267  13.303   0.036   0.631
    1HEX    H2G18268  12.924  17.384  17.409
    1HEX    H2H18269  12.959   0.065   0.078
    1HEX    H2I18270  12.673  17.369   0.282
    1HEX    H2J18271  12.611  17.212   0.233
    1HEX    H2K18272  12.567  17.337  17.437
    1HEX    H2M18273  12.565   0.040   0.095
    1STR    S0018274  13.325  17.401  16.598
    1STR    S0E18275  12.918   0.789  17.326
    1STR    S0M18276  12.824  16.770  17.028
    1STR    S0X18277  13.851  17.289   0.011
    1STR    S1418278  13.108  17.437   0.767
    1STR    S1B18279  12.368  17.346   0.133
    1HEX    C0118280  13.333  17.282   3.676
    1HEX    C0218281  13.274  17.268   3.818
    1HEX    C0318282  13.122  17.269   3.824
    1HEX    O0418283  13.057  17.166   3.803
    1HEX    O0518284  13.073  17.388   3.865
    1HEX    C0618285  12.935  17.400   3.899
    1HEX    C0718286  12.912  17.395   4.053
    1HEX    C0818287  12.932   0.099   4.116
    1HEX    O0918288  12.874   0.227   4.079
    1HEX    C0A18289  12.900   0.334   4.166
    1HEX    O0B18290  12.930   0.319   4.285
    1HEX    C0C18291  12.896   0.477   4.106
    1HEX    C0D18292  12.866   0.596   4.207
    1HEX    C0F18293  12.771  17.329   4.078
    1HEX    O0G18294  12.783  17.186   4.094
    1HEX    C0H18295  12.737  17.096   4.004
    1HEX    O0I18296  12.662  17.123   3.911
    1HEX    C0J18297  12.796  16.953   4.020
    1HEX    C0K18298  12.777  16.882   4.158
    1HEX    C0N18299  13.016  17.298   4.125
    1HEX    O0O18300  13.147  17.344   4.161
    1HEX    C0P18301  13.174  17.423   4.280
    1HEX    C0Q18302  13.134  17.374   4.423
    1HEX    C0R18303  13.194  17.231   4.444
    1HEX    O0S18304  13.334  17.224   4.407
    1HEX    C0T18305  13.435  17.227   4.499
    1HEX    O0U18306  13.419  17.240   4.620
    1HEX    C0V18307  13.578  17.215   4.441
    1HEX    C0W18308  13.651  17.352   4.433
    1HEX    C0Y18309  13.201   0.031   4.524
    1HEX    O0Z18310  13.163   0.005   4.658
    1HEX    C1018311  13.218   0.079   4.757
    1HEX    O1118312  13.305   0.164   4.740
    1HEX    C1218313  13.159   0.049   4.895
    1HEX    C1318314  13.266   0.032   5.005
    1HEX    C1518315  12.978  17.393   4.440
    1HEX    O1618316  12.901  17.342   4.551
    1HEX    C1718317  12.782  17.281   4.522
    1HEX    O1818318  12.765  17.206   4.426
    1HEX    C1918319  12.663  17.319   4.612
    1HEX    C1A18320  12.550  17.386   4.527
    1HEX    H1D18321  13.315  17.174   3.669
    1HEX    H1E18322  13.272  17.370   3.660
    1HEX    H1F18323  13.309  17.349   3.881
    1HEX    H1G18324  13.307  17.177   3.869
    1HEX    H1H18325  12.878  17.322   3.848
    1HEX    H1I18326  12.898   0.053   3.858
    1HEX    H1J18327  13.037   0.121   4.097
    1HEX    H1K18328  12.917   0.089   4.222
    1HEX    H1M18329  12.819   0.476   4.029
    1HEX    H1N18330  12.990   0.495   4.055
    1HEX    H1O18331  12.826   0.554   4.300
    1HEX    H1P18332  12.785   0.659   4.168
    1HEX    H1R18333  12.700  17.355   3.999
    1HEX    H1S18334  12.726  17.368   4.169
    1HEX    H1T18335  12.902  16.960   3.995
    1HEX    H1U18336  12.751  16.892   3.942
    1HEX    H1V18337  12.672  16.875   4.184
    1HEX    H1W18338  12.824  16.940   4.238
    1HEX    H1Y18339  13.032  17.214   4.057
    1HEX    H1Z18340  12.975  17.241   4.208
    1HEX    H2018341  13.144   0.086   4.268
    1HEX    H2118342  13.283  17.430   4.277
    1HEX    H2218343  13.140  17.160   4.382
    1HEX    H2318344  13.179  17.198   4.547
    1HEX    H2418345  13.573  17.166   4.343
    1HEX    H2518346  13.634  17.148   4.506
    1HEX    H2618347  13.656  17.396   4.533
    1HEX    H2718348  13.588  17.418   4.374
    1HEX    H2918349  13.175   0.135   4.501
    1HEX    H2A18350  13.310   0.026   4.516
    1HEX    H2B18351  13.098  17.399   4.888
    1HEX    H2C18352  13.091   0.130   4.918
    1HEX    H2D18353  13.364   0.056   4.964
    1HEX    H2E18354  13.272  17.368   5.038
    1HEX    H2G18355  12.925  17.364   4.351
    1HEX    H2H18356  12.959   0.060   4.444
    1HEX    H2I18357  12.696  17.383   4.694
    1HEX    H2J18358  12.625  17.227   4.656
    1HEX    H2K18359  12.535  17.328   4.436
    1HEX    H2M18360  12.583   0.045   4.495
    1STR    S0018361  13.266  17.236   3.513
    1STR    S0E18362  13.004   0.710   4.258
    1STR    S0M18363  12.850  16.711   4.156
    1STR    S0X18364  13.819  17.355   4.357
    1STR    S1418365  13.244   0.140   5.151
    1STR    S1B18366  12.385  17.407   4.608
    1HEX    C0118367  13.317  17.341   7.964
    1HEX    C0218368  13.274  17.324   8.112
    1HEX    C0318369  13.125  17.310   8.140
    1HEX    O0418370  13.066  17.204   8.120
    1HEX    O0518371  13.073  17.420   8.198
    1HEX    C0618372  12.936  17.422   8.235
    1HEX    C0718373  12.912  17.402   8.388
    1HEX    C0818374  12.919   0.102   8.461
    1HEX    O0918375  12.853   0.227   8.427
    1HEX    C0A18376  12.869   0.331   8.519
    1HEX    O0B18377  12.908   0.312   8.635
    1HEX    C0C18378  12.841   0.477   8.473
    1HEX    C0D18379  12.882   0.583   8.584
    1HEX    C0F18380  12.775  17.325   8.402
    1HEX    O0G18381  12.799  17.183   8.384
    1HEX    C0H18382  12.749  17.111   8.281
    1HEX    O0I18383  12.658  17.149   8.208
    1HEX    C0J18384  12.822  16.977   8.256
    1HEX    C0K18385  12.823  16.872   8.372
    1HEX    C0N18386  13.018  17.304   8.454
    1HEX    O0O18387  13.147  17.350   8.496
    1HEX    C0P18388  13.174  17.423   8.619
    1HEX    C0Q18389  13.132  17.371   8.760
    1HEX    C0R18390  13.191  17.228   8.783
    1HEX    O0S18391  13.333  17.218   8.757
    1HEX    C0T18392  13.426  17.222   8.856
    1HEX    O0U18393  13.402  17.248   8.974
    1HEX    C0V18394  13.568  17.183   8.813
    1HEX    C0W18395  13.666  17.300   8.786
    1HEX    C0Y18396  13.196   0.028   8.863
    1HEX    O0Z18397  13.156  17.437   8.995
    1HEX    C1018398  13.215   0.059   9.098
    1HEX    O1118399  13.307   0.140   9.090
    1HEX    C1218400  13.149   0.023   9.231
    1HEX    C1318401  13.236   0.055   9.354
    1HEX    C1518402  12.976  17.383   8.777
    1HEX    O1618403  12.906  17.320   8.885
    1HEX    C1718404  12.781  17.267   8.860
    1HEX    O1818405  12.744  17.224   8.751
    1HEX    C1918406  12.684  17.273   8.978
    1HEX    C1A18407  12.552  17.349   8.943
    1HEX    H1D18408  13.394  17.267   7.942
    1HEX    H1E18409  13.363  17.439   7.949
    1HEX    H1F18410  13.311  17.408   8.171
    1HEX    H1G18411  13.320  17.235   8.154
    1HEX    H1H18412  12.880  17.349   8.176
    1HEX    H1I18413  12.894   0.078   8.203
    1HEX    H1J18414  13.023   0.132   8.452
    1HEX    H1K18415  12.897   0.084   8.566
    1HEX    H1M18416  12.736   0.486   8.446
    1HEX    H1N18417  12.899   0.495   8.382
    1HEX    H1O18418  12.990   0.577   8.599
    1HEX    H1P18419  12.839   0.552   8.679
    1HEX    H1R18420  12.699  17.363   8.333
    1HEX    H1S18421  12.733  17.338   8.502
    1HEX    H1T18422  12.924  17.003   8.228
    1HEX    H1U18423  12.777  16.932   8.167
    1HEX    H1V18424  12.723  16.832   8.388
    1HEX    H1W18425  12.853  16.919   8.465
    1HEX    H1Y18426  13.040  17.229   8.379
    1HEX    H1Z18427  12.976  17.240   8.531
    1HEX    H2018428  13.144   0.087   8.610
    1HEX    H2118429  13.283  17.430   8.618
    1HEX    H2218430  13.140  17.157   8.718
    1HEX    H2318431  13.169  17.195   8.885
    1HEX    H2418432  13.563  17.115   8.728
    1HEX    H2518433  13.606  17.123   8.896
    1HEX    H2618434  13.635  17.390   8.840
    1HEX    H2718435  13.666  17.325   8.680
    1HEX    H2918436  13.169   0.131   8.842
    1HEX    H2A18437  13.305   0.025   8.856
    1HEX    H2B18438  13.123  17.357   9.229
    1HEX    H2C18439  13.056   0.079   9.234
    1HEX    H2D18440  13.290   0.149   9.342
    1HEX    H2E18441  13.312  17.418   9.368
    1HEX    H2G18442  12.928  17.353   8.686
    1HEX    H2H18443  12.951   0.048   8.785
    1HEX    H2I18444  12.735  17.325   9.059
    1HEX    H2J18445  12.663  17.172   9.013
    1HEX    H2K18446  12.566  17.411   8.855
    1HEX    H2M18447  12.525  17.418   9.023
    1STR    S0018448  13.191  17.320   7.833
    1STR    S0E18449  12.834   0.762   8.565
    1STR    S0M18450  12.939  16.731   8.336
    1STR    S0X18451  13.838  17.257   8.838
    1STR    S1418452  13.128   0.068   9.501
    1STR    S1B18453  12.404  17.243   8.913
    1HEX    C0118454  13.352  17.286  12.385
    1HEX    C0218455  13.290  17.388  12.484
    1HEX    C0318456  13.145  17.359  12.520
    1HEX    O0418457  13.096  17.246  12.507
    1HEX    O0518458  13.081   0.026  12.570
    1HEX    C0618459  12.941   0.019  12.597
    1HEX    C0718460  12.907  17.439  12.748
    1HEX    C0818461  12.929   0.134  12.826
    1HEX    O0918462  12.879   0.267  12.798
    1HEX    C0A18463  12.906   0.364  12.896
    1HEX    O0B18464  12.935   0.335  13.012
    1HEX    C0C18465  12.905   0.514  12.854
    1HEX    C0D18466  12.969   0.609  12.964
    1HEX    C0F18467  12.761  17.383  12.755
    1HEX    O0G18468  12.762  17.239  12.737
    1HEX    C0H18469  12.713  17.177  12.628
    1HEX    O0I18470  12.642  17.231  12.544
    1HEX    C0J18471  12.759  17.031  12.612
    1HEX    C0K18472  12.744  16.940  12.737
    1HEX    C0N18473  12.999  17.327  12.813
    1HEX    O0O18474  13.132  17.355  12.860
    1HEX    C0P18475  13.167  17.428  12.980
    1HEX    C0Q18476  13.127  17.381  13.123
    1HEX    C0R18477  13.193  17.241  13.150
    1HEX    O0S18478  13.335  17.237  13.116
    1HEX    C0T18479  13.435  17.250  13.209
    1HEX    O0U18480  13.418  17.273  13.328
    1HEX    C0V18481  13.579  17.229  13.154
    1HEX    C0W18482  13.673  17.354  13.163
    1HEX    C0Y18483  13.189   0.041  13.223
    1HEX    O0Z18484  13.152   0.005  13.354
    1HEX    C1018485  13.209   0.066  13.458
    1HEX    O1118486  13.292   0.157  13.451
    1HEX    C1218487  13.160   0.011  13.591
    1HEX    C1318488  13.263   0.032  13.702
    1HEX    C1518489  12.970  17.396  13.137
    1HEX    O1618490  12.888  17.351  13.246
    1HEX    C1718491  12.769  17.290  13.214
    1HEX    O1818492  12.758  17.204  13.126
    1HEX    C1918493  12.642  17.344  13.283
    1HEX    C1A18494  12.541  17.402  13.178
    1HEX    H1D18495  13.459  17.281  12.402
    1HEX    H1E18496  13.315  17.186  12.409
    1HEX    H1F18497  13.298   0.050  12.446
    1HEX    H1G18498  13.344  17.384  12.578
    1HEX    H1H18499  12.895  17.381  12.536
    1HEX    H1I18500  12.896   0.111  12.561
    1HEX    H1J18501  13.035   0.153  12.815
    1HEX    H1K18502  12.907   0.113  12.930
    1HEX    H1M18503  12.802   0.543  12.833
    1HEX    H1N18504  12.960   0.524  12.761
    1HEX    H1O18505  13.076   0.589  12.971
    1HEX    H1P18506  12.929   0.580  13.061
    1HEX    H1R18507  12.695  17.432  12.682
    1HEX    H1S18508  12.716  17.403  12.852
    1HEX    H1T18509  12.863  17.034  12.580
    1HEX    H1U18510  12.702  16.988  12.529
    1HEX    H1V18511  12.641  16.942  12.774
    1HEX    H1W18512  12.806  16.977  12.818
    1HEX    H1Y18513  13.013  17.252  12.736
    1HEX    H1Z18514  12.946  17.263  12.884
    1HEX    H2018515  13.145   0.094  12.971
    1HEX    H2118516  13.276  17.428  12.975
    1HEX    H2218517  13.143  17.166  13.089
    1HEX    H2318518  13.178  17.211  13.253
    1HEX    H2418519  13.573  17.191  13.052
    1HEX    H2518520  13.622  17.149  13.214
    1HEX    H2618521  13.675  17.392  13.265
    1HEX    H2718522  13.632  17.435  13.102
    1HEX    H2918523  13.156   0.144  13.204
    1HEX    H2A18524  13.298   0.043  13.214
    1HEX    H2B18525  13.141  17.345  13.577
    1HEX    H2C18526  13.065   0.058  13.615
    1HEX    H2D18527  13.271   0.139  13.726
    1HEX    H2E18528  13.362   0.002  13.667
    1HEX    H2G18529  12.921  17.363  13.048
    1HEX    H2H18530  12.949   0.063  13.137
    1HEX    H2I18531  12.669  17.418  13.359
    1HEX    H2J18532  12.597  17.260  13.336
    1HEX    H2K18533  12.548  17.344  13.086
    1HEX    H2M18534  12.570   0.063  13.150
    1STR    S0018535  13.328  17.315  12.205
    1STR    S0E18536  12.943   0.793  12.955
    1STR    S0M18537  12.787  16.765  12.699
    1STR    S0X18538  13.847  17.323  13.107
    1STR    S1418539  13.222  17.378  13.852
    1STR    S1B18540  12.362  17.406  13.223
    1HEX    C0118541  13.301   4.224  16.691
    1HEX    C0218542  13.289   4.271  16.837
    1HEX    C0318543  13.156   4.230  16.897
    1HEX    O0418544  13.123   4.111  16.901
    1HEX    O0518545  13.082   4.333  16.941
    1HEX    C0618546  12.947   4.312  16.979
    1HEX    C0718547  12.924   4.306  17.133
    1HEX    C0818548  12.942   4.450  17.193
    1HEX    O0918549  12.874   4.573  17.159
    1HEX    C0A18550  12.880   4.674  17.254
    1HEX    O0B18551  12.883   4.654  17.375
    1HEX    C0C18552  12.892   4.819  17.201
    1HEX    C0D18553  12.888   4.933  17.310
    1HEX    C0F18554  12.784   4.239  17.158
    1HEX    O0G18555  12.797   4.095  17.176
    1HEX    C0H18556  12.761   4.005  17.082
    1HEX    O0I18557  12.696   4.032  16.982
    1HEX    C0J18558  12.817   3.862  17.104
    1HEX    C0K18559  12.803   3.796  17.244
    1HEX    C0N18560  13.030   4.212  17.204
    1HEX    O0O18561  13.159   4.262  17.240
    1HEX    C0P18562  13.185   4.340  17.359
    1HEX    C0Q18563  13.140   4.292   0.062
    1HEX    C0R18564  13.189   4.146   0.084
    1HEX    O0S18565  13.326   4.128   0.043
    1HEX    C0T18566  13.430   4.131   0.130
    1HEX    O0U18567  13.420   4.151   0.251
    1HEX    C0V18568  13.566   4.105   0.065
    1HEX    C0W18569  13.671   4.215   0.093
    1HEX    C0Y18570  13.208   4.385   0.166
    1HEX    O0Z18571  13.164   4.356   0.298
    1HEX    C1018572  13.215   4.425   0.401
    1HEX    O1118573  13.304   4.510   0.392
    1HEX    C1218574  13.148   4.391   0.534
    1HEX    C1318575  13.242   4.402   0.657
    1HEX    C1518576  12.986   4.314   0.077
    1HEX    O1618577  12.914   4.262   0.189
    1HEX    C1718578  12.794   4.203   0.164
    1HEX    O1818579  12.769   4.131   0.068
    1HEX    C1918580  12.684   4.244   0.262
    1HEX    C1A18581  12.574   4.331   0.194
    1HEX    H1D18582  13.402   4.189  16.670
    1HEX    H1E18583  13.236   4.138  16.674
    1HEX    H1F18584  13.303   4.379  16.847
    1HEX    H1G18585  13.365   4.223  16.898
    1HEX    H1H18586  12.907   4.222  16.930
    1HEX    H1I18587  12.888   4.393  16.936
    1HEX    H1J18588  13.045   4.477  17.172
    1HEX    H1K18589  12.932   4.439  17.299
    1HEX    H1M18590  12.814   4.836  17.126
    1HEX    H1N18591  12.986   4.824  17.147
    1HEX    H1O18592  12.898   4.892  17.411
    1HEX    H1P18593  12.790   4.980  17.310
    1HEX    H1R18594  12.713   4.263  17.078
    1HEX    H1S18595  12.738   4.278  17.249
    1HEX    H1T18596  12.922   3.866  17.075
    1HEX    H1U18597  12.768   3.798  17.029
    1HEX    H1V18598  12.698   3.793  17.276
    1HEX    H1W18599  12.855   3.854  17.320
    1HEX    H1Y18600  13.049   4.129  17.135
    1HEX    H1Z18601  12.990   4.155  17.288
    1HEX    H2018602  13.155   4.444  17.346
    1HEX    H2118603  13.294   4.347  17.360
    1HEX    H2218604  13.128   4.078   0.025
    1HEX    H2318605  13.174   4.116   0.188
    1HEX    H2418606  13.552   4.093  17.397
    1HEX    H2518607  13.601   4.009   0.103
    1HEX    H2618608  13.640   4.311   0.053
    1HEX    H2718609  13.681   4.229   0.201
    1HEX    H2918610  13.186   4.490   0.145
    1HEX    H2A18611  13.317   4.377   0.161
    1HEX    H2B18612  13.105   4.291   0.528
    1HEX    H2C18613  13.064   4.460   0.543
    1HEX    H2D18614  13.330   4.461   0.631
    1HEX    H2E18615  13.279   4.304   0.687
    1HEX    H2G18616  12.933   4.282  17.429
    1HEX    H2H18617  12.966   4.421   0.080
    1HEX    H2I18618  12.730   4.298   0.345
    1HEX    H2J18619  12.642   4.153   0.304
    1HEX    H2K18620  12.598   4.354   0.090
    1HEX    H2M18621  12.564   4.427   0.245
    1STR    S0018622  13.256   4.351  16.568
    1STR    S0E18623  13.018   5.063  17.295
    1STR    S0M18624  12.870   3.623  17.241
    1STR    S0X18625  13.837   4.171   0.027
    1STR    S1418626  13.164   4.486   0.800
    1STR    S1B18627  12.411   4.248   0.199
    1HEX    C0118628  13.237   4.207   3.582
    1HEX    C0218629  13.264   4.251   3.727
    1HEX    C0318630  13.136   4.232   3.806
    1HEX    O0418631  13.084   4.120   3.812
    1HEX    O0518632  13.084   4.347   3.853
    1HEX    C0618633  12.945   4.352   3.884
    1HEX    C0718634  12.910   4.335   4.035
    1HEX    C0818635  12.922   4.475   4.108
    1HEX    O0918636  12.865   4.604   4.077
    1HEX    C0A18637  12.884   4.704   4.175
    1HEX    O0B18638  12.913   4.679   4.292
    1HEX    C0C18639  12.872   4.854   4.133
    1HEX    C0D18640  12.914   4.954   4.249
    1HEX    C0F18641  12.769   4.264   4.040
    1HEX    O0G18642  12.788   4.121   4.022
    1HEX    C0H18643  12.731   4.050   3.922
    1HEX    O0I18644  12.640   4.090   3.850
    1HEX    C0J18645  12.799   3.913   3.896
    1HEX    C0K18646  12.795   3.805   4.008
    1HEX    C0N18647  13.007   4.231   4.106
    1HEX    O0O18648  13.141   4.269   4.143
    1HEX    C0P18649  13.174   4.345   4.260
    1HEX    C0Q18650  13.134   4.296   4.403
    1HEX    C0R18651  13.195   4.154   4.426
    1HEX    O0S18652  13.335   4.144   4.391
    1HEX    C0T18653  13.437   4.155   4.482
    1HEX    O0U18654  13.421   4.184   4.600
    1HEX    C0V18655  13.577   4.118   4.429
    1HEX    C0W18656  13.676   4.236   4.404
    1HEX    C0Y18657  13.201   4.395   4.501
    1HEX    O0Z18658  13.158   4.365   4.631
    1HEX    C1018659  13.209   4.430   4.735
    1HEX    O1118660  13.300   4.513   4.730
    1HEX    C1218661  13.137   4.393   4.862
    1HEX    C1318662  13.212   4.437   4.989
    1HEX    C1518663  12.978   4.314   4.424
    1HEX    O1618664  12.899   4.248   4.525
    1HEX    C1718665  12.783   4.186   4.485
    1HEX    O1818666  12.771   4.125   4.379
    1HEX    C1918667  12.660   4.206   4.576
    1HEX    C1A18668  12.550   4.290   4.504
    1HEX    H1D18669  13.300   4.123   3.553
    1HEX    H1E18670  13.135   4.170   3.572
    1HEX    H1F18671  13.296   4.355   3.735
    1HEX    H1G18672  13.340   4.189   3.773
    1HEX    H1H18673  12.893   4.277   3.824
    1HEX    H1I18674  12.907   4.447   3.848
    1HEX    H1J18675  13.027   4.500   4.097
    1HEX    H1K18676  12.901   4.457   4.212
    1HEX    H1M18677  12.770   4.873   4.101
    1HEX    H1N18678  12.936   4.869   4.046
    1HEX    H1O18679  13.019   4.938   4.275
    1HEX    H1P18680  12.859   4.927   4.340
    1HEX    H1R18681  12.700   4.307   3.968
    1HEX    H1S18682  12.722   4.278   4.138
    1HEX    H1T18683  12.902   3.936   3.871
    1HEX    H1U18684  12.755   3.872   3.805
    1HEX    H1V18685  12.692   3.770   4.025
    1HEX    H1W18686  12.829   3.847   4.102
    1HEX    H1Y18687  13.023   4.149   4.037
    1HEX    H1Z18688  12.959   4.173   4.185
    1HEX    H2018689  13.148   4.450   4.250
    1HEX    H2118690  13.283   4.348   4.256
    1HEX    H2218691  13.140   4.082   4.366
    1HEX    H2318692  13.180   4.123   4.530
    1HEX    H2418693  13.566   4.056   4.340
    1HEX    H2518694  13.620   4.053   4.506
    1HEX    H2618695  13.669   4.310   4.484
    1HEX    H2718696  13.649   4.288   4.312
    1HEX    H2918697  13.175   4.498   4.479
    1HEX    H2A18698  13.310   4.391   4.495
    1HEX    H2B18699  13.122   4.285   4.862
    1HEX    H2C18700  13.038   4.439   4.858
    1HEX    H2D18701  13.238   4.542   4.987
    1HEX    H2E18702  13.305   4.381   4.998
    1HEX    H2G18703  12.926   4.298   4.332
    1HEX    H2H18704  12.959   4.420   4.440
    1HEX    H2I18705  12.690   4.250   4.670
    1HEX    H2J18706  12.621   4.106   4.598
    1HEX    H2K18707  12.563   4.285   4.396
    1HEX    H2M18708  12.563   4.395   4.530
    1STR    S0018709  13.250   4.341   3.460
    1STR    S0E18710  12.887   5.136   4.225
    1STR    S0M18711  12.901   3.659   3.964
    1STR    S0X18712  13.850   4.177   4.391
    1STR    S1418713  13.106   4.401   5.132
    1STR    S1B18714  12.373   4.247   4.537
    1HEX    C0118715  13.261   4.201   7.999
    1HEX    C0218716  13.252   4.202   8.153
    1HEX    C0318717  13.106   4.206   8.194
    1HEX    O0418718  13.036   4.105   8.183
    1HEX    O0518719  13.066   4.328   8.235
    1HEX    C0618720  12.927   4.350   8.259
    1HEX    C0718721  12.887   4.343   8.409
    1HEX    C0818722  12.910   4.483   8.479
    1HEX    O0918723  12.870   4.616   8.436
    1HEX    C0A18724  12.902   4.721   8.524
    1HEX    O0B18725  12.926   4.705   8.643
    1HEX    C0C18726  12.910   4.864   8.463
    1HEX    C0D18727  12.881   4.986   8.560
    1HEX    C0F18728  12.740   4.289   8.414
    1HEX    O0G18729  12.740   4.145   8.400
    1HEX    C0H18730  12.697   4.081   8.289
    1HEX    O0I18731  12.631   4.133   8.200
    1HEX    C0J18732  12.745   3.935   8.277
    1HEX    C0K18733  12.725   3.845   8.402
    1HEX    C0N18734  12.972   4.233   8.487
    1HEX    O0O18735  13.109   4.258   8.526
    1HEX    C0P18736  13.152   4.338   8.639
    1HEX    C0Q18737  13.115   4.299   8.786
    1HEX    C0R18738  13.174   4.157   8.813
    1HEX    O0S18739  13.312   4.144   8.771
    1HEX    C0T18740  13.420   4.156   8.856
    1HEX    O0U18741  13.412   4.177   8.977
    1HEX    C0V18742  13.558   4.138   8.788
    1HEX    C0W18743  13.674   4.220   8.855
    1HEX    C0Y18744  13.188   4.400   8.879
    1HEX    O0Z18745  13.156   4.378   9.015
    1HEX    C1018746  13.219   4.451   9.109
    1HEX    O1118747  13.305   4.536   9.087
    1HEX    C1218748  13.173   4.420   9.251
    1HEX    C1318749  13.290   4.380   9.345
    1HEX    C1518750  12.959   4.327   8.804
    1HEX    O1618751  12.867   4.264   8.894
    1HEX    C1718752  12.740   4.235   8.846
    1HEX    O1818753  12.717   4.196   8.732
    1HEX    C1918754  12.623   4.256   8.942
    1HEX    C1A18755  12.545   4.391   8.924
    1HEX    H1D18756  13.343   4.140   7.963
    1HEX    H1E18757  13.170   4.161   7.955
    1HEX    H1F18758  13.306   4.285   8.199
    1HEX    H1G18759  13.294   4.110   8.195
    1HEX    H1H18760  12.868   4.280   8.200
    1HEX    H1I18761  12.901   4.448   8.219
    1HEX    H1J18762  13.017   4.497   8.473
    1HEX    H1K18763  12.879   4.476   8.582
    1HEX    H1M18764  12.837   4.866   8.382
    1HEX    H1N18765  13.008   4.875   8.416
    1HEX    H1O18766  12.825   4.948   8.645
    1HEX    H1P18767  12.815   5.057   8.511
    1HEX    H1R18768  12.676   4.337   8.339
    1HEX    H1S18769  12.693   4.312   8.510
    1HEX    H1T18770  12.851   3.937   8.251
    1HEX    H1U18771  12.694   3.891   8.191
    1HEX    H1V18772  12.621   3.850   8.436
    1HEX    H1W18773  12.786   3.882   8.485
    1HEX    H1Y18774  12.981   4.148   8.420
    1HEX    H1Z18775  12.917   4.184   8.567
    1HEX    H2018776  13.132   4.444   8.625
    1HEX    H2118777  13.260   4.335   8.630
    1HEX    H2218778  13.115   4.083   8.758
    1HEX    H2318779  13.163   4.131   8.919
    1HEX    H2418780  13.548   4.166   8.683
    1HEX    H2518781  13.583   4.032   8.790
    1HEX    H2618782  13.636   4.316   8.890
    1HEX    H2718783  13.707   4.167   8.945
    1HEX    H2918784  13.163   4.503   8.853
    1HEX    H2A18785  13.296   4.393   8.866
    1HEX    H2B18786  13.099   4.339   9.248
    1HEX    H2C18787  13.121   4.508   9.289
    1HEX    H2D18788  13.384   4.399   9.293
    1HEX    H2E18789  13.288   4.273   9.365
    1HEX    H2G18790  12.914   4.322   8.708
    1HEX    H2H18791  12.947   4.434   8.825
    1HEX    H2I18792  12.665   4.251   9.043
    1HEX    H2J18793  12.554   4.172   8.934
    1HEX    H2K18794  12.619   4.469   8.905
    1HEX    H2M18795  12.498   4.417   9.018
    1STR    S0018796  13.278   4.373   7.944
    1STR    S0E18797  13.021   5.085   8.633
    1STR    S0M18798  12.765   3.669   8.368
    1STR    S0X18799  13.823   4.255   8.751
    1STR    S1418800  13.301   4.471   9.503
    1STR    S1B18801  12.414   4.408   8.794
    1HEX    C0118802  13.317   4.212  12.331
    1HEX    C0218803  13.278   4.261  12.472
    1HEX    C0318804  13.138   4.222  12.516
    1HEX    O0418805  13.099   4.106  12.509
    1HEX    O0518806  13.070   4.327  12.567
    1HEX    C0618807  12.936   4.310  12.610
    1HEX    C0718808  12.921   4.302  12.764
    1HEX    C0818809  12.927   4.447  12.826
    1HEX    O0918810  12.863   4.569  12.782
    1HEX    C0A18811  12.879   4.679  12.867
    1HEX    O0B18812  12.912   4.668  12.986
    1HEX    C0C18813  12.860   4.821  12.808
    1HEX    C0D18814  12.905   4.934  12.909
    1HEX    C0F18815  12.789   4.221  12.794
    1HEX    O0G18816  12.815   4.078  12.802
    1HEX    C0H18817  12.780   3.991  12.705
    1HEX    O0I18818  12.704   4.017  12.613
    1HEX    C0J18819  12.851   3.853  12.711
    1HEX    C0K18820  12.866   3.782  12.850
    1HEX    C0N18821  13.036   4.214  12.831
    1HEX    O0O18822  13.161   4.273  12.869
    1HEX    C0P18823  13.182   4.347  12.992
    1HEX    C0Q18824  13.137   4.293  13.132
    1HEX    C0R18825  13.194   4.150  13.154
    1HEX    O0S18826  13.336   4.141  13.129
    1HEX    C0T18827  13.428   4.143  13.229
    1HEX    O0U18828  13.402   4.162  13.348
    1HEX    C0V18829  13.571   4.111  13.185
    1HEX    C0W18830  13.658   4.235  13.148
    1HEX    C0Y18831  13.199   4.389  13.237
    1HEX    O0Z18832  13.159   4.354  13.369
    1HEX    C1018833  13.216   4.417  13.473
    1HEX    O1118834  13.305   4.501  13.465
    1HEX    C1218835  13.154   4.376  13.607
    1HEX    C1318836  13.242   4.410  13.729
    1HEX    C1518837  12.981   4.305  13.146
    1HEX    O1618838  12.912   4.255  13.261
    1HEX    C1718839  12.787   4.201  13.243
    1HEX    O1818840  12.749   4.145  13.141
    1HEX    C1918841  12.691   4.222  13.360
    1HEX    C1A18842  12.565   4.304  13.317
    1HEX    H1D18843  13.336   4.105  12.334
    1HEX    H1E18844  13.409   4.261  12.299
    1HEX    H1F18845  13.286   4.370  12.478
    1HEX    H1G18846  13.347   4.221  12.546
    1HEX    H1H18847  12.891   4.224  12.560
    1HEX    H1I18848  12.879   4.395  12.572
    1HEX    H1J18849  13.031   4.477  12.815
    1HEX    H1K18850  12.905   4.436  12.932
    1HEX    H1M18851  12.756   4.834  12.779
    1HEX    H1N18852  12.919   4.828  12.717
    1HEX    H1O18853  13.011   4.922  12.930
    1HEX    H1P18854  12.855   4.918  13.005
    1HEX    H1R18855  12.711   4.243  12.720
    1HEX    H1S18856  12.746   4.251  12.889
    1HEX    H1T18857  12.949   3.866  12.666
    1HEX    H1U18858  12.796   3.787  12.643
    1HEX    H1V18859  12.770   3.778  12.902
    1HEX    H1W18860  12.934   3.838  12.914
    1HEX    H1Y18861  13.062   4.137  12.758
    1HEX    H1Z18862  13.003   4.151  12.912
    1HEX    H2018863  13.148   4.450  12.982
    1HEX    H2118864  13.290   4.357  12.994
    1HEX    H2218865  13.145   4.080  13.088
    1HEX    H2318866  13.171   4.116  13.255
    1HEX    H2418867  13.568   4.040  13.102
    1HEX    H2518868  13.617   4.058  13.268
    1HEX    H2618869  13.605   4.327  13.173
    1HEX    H2718870  13.675   4.237  13.040
    1HEX    H2918871  13.170   4.492  13.219
    1HEX    H2A18872  13.308   4.387  13.232
    1HEX    H2B18873  13.131   4.270  13.604
    1HEX    H2C18874  13.059   4.429  13.612
    1HEX    H2D18875  13.302   4.499  13.709
    1HEX    H2E18876  13.312   4.330  13.750
    1HEX    H2G18877  12.932   4.265  13.059
    1HEX    H2H18878  12.956   4.411  13.144
    1HEX    H2I18879  12.743   4.271  13.442
    1HEX    H2J18880  12.661   4.124  13.396
    1HEX    H2K18881  12.568   4.323  13.210
    1HEX    H2M18882  12.564   4.403  13.364
    1STR    S0018883  13.191   4.241  12.202
    1STR    S0E18884  12.874   5.112  12.864
    1STR    S0M18885  12.929   3.608  12.830
    1STR    S0X18886  13.821   4.236  13.235
    1STR    S1418887  13.139   4.448  13.876
    1STR    S1B18888  12.405   4.222  13.350
    1HEX    C0118889  13.308   8.575  16.705
    1HEX    C0218890  13.283   8.607  16.854
    1HEX    C0318891  13.135   8.603  16.887
    1HEX    O0418892  13.071   8.499  16.873
    1HEX    O0518893  13.087   8.721  16.933
    1HEX    C0618894  12.948   8.732  16.962
    1HEX    C0718895  12.914   8.719  17.114
    1HEX    C0818896  12.941   8.857  17.186
    1HEX    O0918897  12.884   8.989  17.161
    1HEX    C0A18898  12.903   9.084  17.263
    1HEX    O0B18899  12.926   9.054  17.380
    1HEX    C0C18900  12.899   9.235  17.224
    1HEX    C0D18901  12.960   9.329  17.337
    1HEX    C0F18902  12.767   8.666  17.126
    1HEX    O0G18903  12.765   8.521  17.116
    1HEX    C0H18904  12.734   8.457  17.001
    1HEX    O0I18905  12.675   8.509  16.906
    1HEX    C0J18906  12.785   8.312  16.990
    1HEX    C0K18907  12.811   8.230  17.120
    1HEX    C0N18908  13.003   8.606  17.182
    1HEX    O0O18909  13.138   8.634  17.221
    1HEX    C0P18910  13.175   8.709  17.338
    1HEX    C0Q18911  13.134   8.663   0.041
    1HEX    C0R18912  13.197   8.522   0.067
    1HEX    O0S18913  13.338   8.514   0.031
    1HEX    C0T18914  13.440   8.528   0.122
    1HEX    O0U18915  13.425   8.552   0.242
    1HEX    C0V18916  13.582   8.504   0.065
    1HEX    C0W18917  13.676   8.629   0.061
    1HEX    C0Y18918  13.200   8.762   0.139
    1HEX    O0Z18919  13.155   8.726   0.268
    1HEX    C1018920  13.206   8.783   0.375
    1HEX    O1118921  13.294   8.868   0.378
    1HEX    C1218922  13.138   8.730   0.499
    1HEX    C1318923  13.212   8.767   0.627
    1HEX    C1518924  12.977   8.683   0.061
    1HEX    O1618925  12.894   8.619   0.160
    1HEX    C1718926  12.779   8.559   0.115
    1HEX    O1818927  12.774   8.487   0.016
    1HEX    C1918928  12.648   8.597   0.188
    1HEX    C1A18929  12.547   8.667   0.091
    1HEX    H1D18930  13.407   8.533  16.690
    1HEX    H1E18931  13.237   8.499  16.671
    1HEX    H1F18932  13.326   8.703  16.883
    1HEX    H1G18933  13.330   8.531  16.916
    1HEX    H1H18934  12.892   8.660  16.903
    1HEX    H1I18935  12.913   8.829  16.925
    1HEX    H1J18936  13.046   8.877  17.167
    1HEX    H1K18937  12.928   8.838  17.291
    1HEX    H1M18938  12.796   9.262  17.202
    1HEX    H1N18939  12.955   9.248  17.132
    1HEX    H1O18940  13.066   9.308  17.348
    1HEX    H1P18941  12.916   9.301  17.433
    1HEX    H1R18942  12.700   8.712  17.052
    1HEX    H1S18943  12.724   8.691  17.223
    1HEX    H1T18944  12.879   8.319  16.934
    1HEX    H1U18945  12.717   8.258  16.925
    1HEX    H1V18946  12.716   8.202  17.166
    1HEX    H1W18947  12.865   8.288  17.195
    1HEX    H1Y18948  13.012   8.526  17.109
    1HEX    H1Z18949  12.952   8.550  17.259
    1HEX    H2018950  13.153   8.815  17.328
    1HEX    H2118951  13.284   8.708  17.333
    1HEX    H2218952  13.143   8.447   0.008
    1HEX    H2318953  13.182   8.492   0.171
    1HEX    H2418954  13.574   8.457  17.407
    1HEX    H2518955  13.627   8.429   0.131
    1HEX    H2618956  13.677   8.679   0.158
    1HEX    H2718957  13.638   8.701  17.429
    1HEX    H2918958  13.173   8.866   0.119
    1HEX    H2A18959  13.309   8.758   0.135
    1HEX    H2B18960  13.131   8.622   0.489
    1HEX    H2C18961  13.036   8.769   0.501
    1HEX    H2D18962  13.210   8.875   0.642
    1HEX    H2E18963  13.317   8.739   0.621
    1HEX    H2G18964  12.925   8.672  17.409
    1HEX    H2H18965  12.961   8.789   0.081
    1HEX    H2I18966  12.670   8.658   0.276
    1HEX    H2J18967  12.605   8.504   0.225
    1HEX    H2K18968  12.567   8.631  17.430
    1HEX    H2M18969  12.567   8.774   0.088
    1STR    S0018970  13.293   8.726  16.602
    1STR    S0E18971  12.937   9.514  17.325
    1STR    S0M18972  12.904   8.076  17.079
    1STR    S0X18973  13.851   8.588   0.013
    1STR    S1418974  13.134   8.681   0.767
    1STR    S1B18975  12.366   8.644   0.122
    1HEX    C0118976  13.275   8.478   3.644
    1HEX    C0218977  13.263   8.550   3.780
    1HEX    C0318978  13.119   8.546   3.830
    1HEX    O0418979  13.058   8.440   3.835
    1HEX    O0518980  13.072   8.667   3.867
    1HEX    C0618981  12.935   8.680   3.904
    1HEX    C0718982  12.909   8.680   4.057
    1HEX    C0818983  12.935   8.824   4.116
    1HEX    O0918984  12.871   8.949   4.083
    1HEX    C0A18985  12.886   9.053   4.176
    1HEX    O0B18986  12.906   9.034   4.296
    1HEX    C0C18987  12.885   9.197   4.120
    1HEX    C0D18988  12.862   9.312   4.226
    1HEX    C0F18989  12.765   8.622   4.081
    1HEX    O0G18990  12.771   8.479   4.101
    1HEX    C0H18991  12.730   8.388   4.010
    1HEX    O0I18992  12.655   8.411   3.916
    1HEX    C0J18993  12.798   8.250   4.026
    1HEX    C0K18994  12.739   8.150   4.131
    1HEX    C0N18995  13.008   8.581   4.133
    1HEX    O0O18996  13.141   8.624   4.167
    1HEX    C0P18997  13.172   8.704   4.283
    1HEX    C0Q18998  13.129   8.659   4.427
    1HEX    C0R18999  13.180   8.514   4.450
    1HEX    O0S19000  13.319   8.494   4.414
    1HEX    C0T19001  13.421   8.501   4.505
    1HEX    O0U19002  13.408   8.536   4.622
    1HEX    C0V19003  13.558   8.453   4.452
    1HEX    C0W19004  13.663   8.564   4.420
    1HEX    C0Y19005  13.199   8.754   4.527
    1HEX    O0Z19006  13.158   8.727   4.660
    1HEX    C1019007  13.209   8.800   4.760
    1HEX    O1119008  13.293   8.889   4.748
    1HEX    C1219009  13.149   8.764   4.896
    1HEX    C1319010  13.252   8.760   5.011
    1HEX    C1519011  12.974   8.683   4.446
    1HEX    O1619012  12.900   8.626   4.555
    1HEX    C1719013  12.789   8.552   4.524
    1HEX    O1819014  12.781   8.475   4.429
    1HEX    C1919015  12.666   8.579   4.612
    1HEX    C1A19016  12.555   8.652   4.531
    1HEX    H1D19017  13.345   8.395   3.652
    1HEX    H1E19018  13.180   8.435   3.612
    1HEX    H1F19019  13.296   8.653   3.775
    1HEX    H1G19020  13.324   8.500   3.855
    1HEX    H1H19021  12.877   8.602   3.854
    1HEX    H1I19022  12.897   8.773   3.860
    1HEX    H1J19023  13.039   8.846   4.092
    1HEX    H1K19024  12.927   8.814   4.223
    1HEX    H1M19025  12.809   9.202   4.043
    1HEX    H1N19026  12.981   9.212   4.069
    1HEX    H1O19027  12.839   9.269   4.323
    1HEX    H1P19028  12.774   9.370   4.199
    1HEX    H1R19029  12.697   8.648   3.999
    1HEX    H1S19030  12.720   8.666   4.170
    1HEX    H1T19031  12.902   8.271   4.050
    1HEX    H1U19032  12.800   8.202   3.929
    1HEX    H1V19033  12.660   8.091   4.086
    1HEX    H1W19034  12.694   8.203   4.215
    1HEX    H1Y19035  13.021   8.494   4.069
    1HEX    H1Z19036  12.964   8.530   4.218
    1HEX    H2019037  13.146   8.808   4.268
    1HEX    H2119038  13.281   8.706   4.281
    1HEX    H2219039  13.121   8.445   4.389
    1HEX    H2319040  13.163   8.484   4.554
    1HEX    H2419041  13.542   8.388   4.366
    1HEX    H2519042  13.597   8.390   4.531
    1HEX    H2619043  13.632   8.660   4.462
    1HEX    H2719044  13.669   8.579   4.312
    1HEX    H2919045  13.175   8.859   4.504
    1HEX    H2A19046  13.308   8.747   4.519
    1HEX    H2B19047  13.100   8.667   4.887
    1HEX    H2C19048  13.070   8.836   4.916
    1HEX    H2D19049  13.348   8.797   4.975
    1HEX    H2E19050  13.269   8.658   5.045
    1HEX    H2G19051  12.918   8.661   4.357
    1HEX    H2H19052  12.958   8.790   4.456
    1HEX    H2I19053  12.695   8.635   4.701
    1HEX    H2J19054  12.630   8.482   4.646
    1HEX    H2K19055  12.551   8.614   4.429
    1HEX    H2M19056  12.579   8.758   4.522
    1STR    S0019057  13.333   8.591   3.514
    1STR    S0E19058  13.002   9.430   4.256
    1STR    S0M19059  12.872   8.034   4.188
    1STR    S0X19060  13.832   8.524   4.484
    1STR    S1419061  13.207   8.864   5.155
    1STR    S1B19062  12.386   8.638   4.602
    1HEX    C0119063  13.323   8.632   7.968
    1HEX    C0219064  13.284   8.605   8.116
    1HEX    C0319065  13.134   8.592   8.141
    1HEX    O0419066  13.074   8.488   8.113
    1HEX    O0519067  13.082   8.701   8.201
    1HEX    C0619068  12.945   8.703   8.236
    1HEX    C0719069  12.920   8.681   8.388
    1HEX    C0819070  12.922   8.820   8.463
    1HEX    O0919071  12.865   8.947   8.424
    1HEX    C0A19072  12.881   9.051   8.518
    1HEX    O0B19073  12.908   9.031   8.636
    1HEX    C0C19074  12.869   9.198   8.468
    1HEX    C0D19075  12.898   9.303   8.582
    1HEX    C0F19076  12.786   8.599   8.402
    1HEX    O0G19077  12.814   8.456   8.393
    1HEX    C0H19078  12.774   8.378   8.291
    1HEX    O0I19079  12.686   8.408   8.211
    1HEX    C0J19080  12.855   8.247   8.275
    1HEX    C0K19081  12.854   8.145   8.393
    1HEX    C0N19082  13.029   8.585   8.453
    1HEX    O0O19083  13.158   8.634   8.494
    1HEX    C0P19084  13.183   8.704   8.618
    1HEX    C0Q19085  13.137   8.651   8.759
    1HEX    C0R19086  13.196   8.508   8.781
    1HEX    O0S19087  13.337   8.497   8.752
    1HEX    C0T19088  13.432   8.504   8.850
    1HEX    O0U19089  13.411   8.532   8.968
    1HEX    C0V19090  13.573   8.463   8.805
    1HEX    C0W19091  13.673   8.580   8.777
    1HEX    C0Y19092  13.200   8.748   8.861
    1HEX    O0Z19093  13.157   8.718   8.993
    1HEX    C1019094  13.213   8.783   9.095
    1HEX    O1119095  13.306   8.864   9.088
    1HEX    C1219096  13.145   8.750   9.227
    1HEX    C1319097  13.229   8.783   9.351
    1HEX    C1519098  12.981   8.663   8.773
    1HEX    O1619099  12.905   8.596   8.875
    1HEX    C1719100  12.782   8.543   8.841
    1HEX    O1819101  12.751   8.503   8.729
    1HEX    C1919102  12.678   8.543   8.954
    1HEX    C1A19103  12.545   8.617   8.917
    1HEX    H1D19104  13.289   8.530   7.950
    1HEX    H1E19105  13.279   8.731   7.972
    1HEX    H1F19106  13.322   8.683   8.181
    1HEX    H1G19107  13.329   8.513   8.152
    1HEX    H1H19108  12.889   8.630   8.176
    1HEX    H1I19109  12.903   8.799   8.205
    1HEX    H1J19110  13.027   8.848   8.462
    1HEX    H1K19111  12.891   8.803   8.565
    1HEX    H1M19112  12.769   9.212   8.426
    1HEX    H1N19113  12.940   9.211   8.387
    1HEX    H1O19114  12.997   9.287   8.624
    1HEX    H1P19115  12.830   9.286   8.665
    1HEX    H1R19116  12.710   8.630   8.329
    1HEX    H1S19117  12.740   8.616   8.499
    1HEX    H1T19118  12.957   8.278   8.253
    1HEX    H1U19119  12.820   8.197   8.185
    1HEX    H1V19120  12.757   8.095   8.399
    1HEX    H1W19121  12.867   8.196   8.488
    1HEX    H1Y19122  13.053   8.510   8.378
    1HEX    H1Z19123  12.991   8.520   8.531
    1HEX    H2019124  13.155   8.809   8.611
    1HEX    H2119125  13.292   8.709   8.620
    1HEX    H2219126  13.144   8.437   8.717
    1HEX    H2319127  13.175   8.476   8.884
    1HEX    H2419128  13.567   8.396   8.719
    1HEX    H2519129  13.613   8.403   8.887
    1HEX    H2619130  13.653   8.665   8.842
    1HEX    H2719131  13.661   8.615   8.675
    1HEX    H2919132  13.173   8.852   8.840
    1HEX    H2A19133  13.309   8.745   8.857
    1HEX    H2B19134  13.118   8.644   9.226
    1HEX    H2C19135  13.052   8.807   9.227
    1HEX    H2D19136  13.277   8.881   9.344
    1HEX    H2E19137  13.310   8.710   9.362
    1HEX    H2G19138  12.935   8.638   8.679
    1HEX    H2H19139  12.956   8.769   8.784
    1HEX    H2I19140  12.724   8.592   9.039
    1HEX    H2J19141  12.658   8.440   8.985
    1HEX    H2K19142  12.564   8.693   8.841
    1HEX    H2M19143  12.509   8.672   9.004
    1STR    S0019144  13.222   8.619   7.815
    1STR    S0E19145  12.883   9.483   8.537
    1STR    S0M19146  12.986   8.014   8.376
    1STR    S0X19147  13.847   8.524   8.802
    1STR    S1419148  13.120   8.780   9.497
    1STR    S1B19149  12.405   8.514   8.858
    1HEX    C0119150  13.371   8.608  12.410
    1HEX    C0219151  13.294   8.698  12.509
    1HEX    C0319152  13.148   8.659  12.526
    1HEX    O0419153  13.108   8.545  12.502
    1HEX    O0519154  13.075   8.760  12.577
    1HEX    C0619155  12.936   8.742  12.599
    1HEX    C0719156  12.902   8.719  12.749
    1HEX    C0819157  12.920   8.853  12.829
    1HEX    O0919158  12.873   8.987  12.796
    1HEX    C0A19159  12.901   9.085  12.892
    1HEX    O0B19160  12.931   9.058  13.008
    1HEX    C0C19161  12.899   9.234  12.848
    1HEX    C0D19162  12.966   9.330  12.954
    1HEX    C0F19163  12.757   8.659  12.755
    1HEX    O0G19164  12.762   8.515  12.747
    1HEX    C0H19165  12.724   8.445  12.638
    1HEX    O0I19166  12.655   8.489  12.546
    1HEX    C0J19167  12.780   8.301  12.635
    1HEX    C0K19168  12.679   8.189  12.669
    1HEX    C0N19169  12.998   8.609  12.812
    1HEX    O0O19170  13.131   8.639  12.861
    1HEX    C0P19171  13.164   8.710  12.983
    1HEX    C0Q19172  13.124   8.658  13.127
    1HEX    C0R19173  13.193   8.520  13.151
    1HEX    O0S19174  13.335   8.517  13.118
    1HEX    C0T19175  13.434   8.528  13.212
    1HEX    O0U19176  13.415   8.550  13.331
    1HEX    C0V19177  13.577   8.505  13.159
    1HEX    C0W19178  13.670   8.631  13.165
    1HEX    C0Y19179  13.184   8.759  13.228
    1HEX    O0Z19180  13.153   8.721  13.360
    1HEX    C1019181  13.211   8.786  13.461
    1HEX    O1119182  13.288   8.881  13.450
    1HEX    C1219183  13.170   8.731  13.598
    1HEX    C1319184  13.276   8.765  13.704
    1HEX    C1519185  12.967   8.667  13.139
    1HEX    O1619186  12.887   8.633  13.252
    1HEX    C1719187  12.765   8.572  13.227
    1HEX    O1819188  12.750   8.482  13.145
    1HEX    C1919189  12.642   8.631  13.299
    1HEX    C1A19190  12.540   8.690  13.196
    1HEX    H1D19191  13.477   8.612  12.434
    1HEX    H1E19192  13.341   8.505  12.425
    1HEX    H1F19193  13.301   8.803  12.483
    1HEX    H1G19194  13.337   8.686  12.609
    1HEX    H1H19195  12.897   8.661  12.537
    1HEX    H1I19196  12.884   8.832  12.563
    1HEX    H1J19197  13.027   8.872  12.824
    1HEX    H1K19198  12.891   8.832  12.931
    1HEX    H1M19199  12.795   9.263  12.830
    1HEX    H1N19200  12.951   9.243  12.752
    1HEX    H1O19201  13.074   9.312  12.957
    1HEX    H1P19202  12.931   9.301  13.053
    1HEX    H1R19203  12.691   8.702  12.679
    1HEX    H1S19204  12.709   8.684  12.850
    1HEX    H1T19205  12.870   8.295  12.697
    1HEX    H1U19206  12.815   8.286  12.533
    1HEX    H1V19207  12.663   8.125  12.582
    1HEX    H1W19208  12.583   8.235  12.691
    1HEX    H1Y19209  13.016   8.537  12.732
    1HEX    H1Z19210  12.948   8.541  12.880
    1HEX    H2019211  13.140   8.815  12.978
    1HEX    H2119212  13.272   8.711  12.979
    1HEX    H2219213  13.144   8.444  13.089
    1HEX    H2319214  13.177   8.487  13.254
    1HEX    H2419215  13.573   8.463  13.059
    1HEX    H2519216  13.621   8.428  13.223
    1HEX    H2619217  13.671   8.671  13.267
    1HEX    H2719218  13.628   8.710  13.103
    1HEX    H2919219  13.147   8.860  13.211
    1HEX    H2A19220  13.292   8.765  13.216
    1HEX    H2B19221  13.160   8.623  13.588
    1HEX    H2C19222  13.073   8.772  13.625
    1HEX    H2D19223  13.278   8.872  13.722
    1HEX    H2E19224  13.375   8.738  13.666
    1HEX    H2G19225  12.923   8.618  13.055
    1HEX    H2H19226  12.942   8.772  13.125
    1HEX    H2I19227  12.673   8.705  13.373
    1HEX    H2J19228  12.597   8.548  13.353
    1HEX    H2K19229  12.543   8.633  13.103
    1HEX    H2M19230  12.568   8.792  13.170
    1STR    S0019231  13.357   8.649  12.231
    1STR    S0E19232  12.936   9.514  12.947
    1STR    S0M19233  12.716   8.077  12.810
    1STR    S0X19234  13.845   8.602  13.110
    1STR    S1419235  13.249   8.678  13.862
    1STR    S1B19236  12.362   8.693  13.248
    1HEX    C0119237  13.342  12.902  16.723
    1HEX    C0219238  13.288  12.999  16.831
    1HEX    C0319239  13.155  12.955  16.891
    1HEX    O0419240  13.124  12.836  16.897
    1HEX    O0519241  13.081  13.057  16.939
    1HEX    C0619242  12.947  13.032  16.980
    1HEX    C0719243  12.926  13.023  17.134
    1HEX    C0819244  12.937  13.166  17.197
    1HEX    O0919245  12.874  13.289  17.156
    1HEX    C0A19246  12.880  13.393  17.248
    1HEX    O0B19247  12.881  13.376  17.370
    1HEX    C0C19248  12.897  13.536  17.190
    1HEX    C0D19249  12.908  13.649  17.299
    1HEX    C0F19250  12.788  12.950  17.159
    1HEX    O0G19251  12.805  12.806  17.176
    1HEX    C0H19252  12.775  12.716  17.080
    1HEX    O0I19253  12.712  12.743  16.978
    1HEX    C0J19254  12.835  12.575  17.099
    1HEX    C0K19255  12.833  12.509  17.241
    1HEX    C0N19256  13.034  12.931  17.205
    1HEX    O0O19257  13.161  12.985  17.244
    1HEX    C0P19258  13.183  13.062  17.364
    1HEX    C0Q19259  13.136  13.014   0.066
    1HEX    C0R19260  13.188  12.870   0.091
    1HEX    O0S19261  13.329  12.855   0.063
    1HEX    C0T19262  13.422  12.860   0.162
    1HEX    O0U19263  13.400  12.883   0.280
    1HEX    C0V19264  13.564  12.826   0.115
    1HEX    C0W19265  13.659  12.949   0.098
    1HEX    C0Y19266  13.201  13.110   0.169
    1HEX    O0Z19267  13.159  13.078   0.301
    1HEX    C1019268  13.213  13.143   0.405
    1HEX    O1119269  13.301  13.229   0.396
    1HEX    C1219270  13.149  13.105   0.538
    1HEX    C1319271  13.242  13.125   0.660
    1HEX    C1519272  12.981  13.033   0.079
    1HEX    O1619273  12.910  12.989   0.196
    1HEX    C1719274  12.789  12.930   0.178
    1HEX    O1819275  12.760  12.857   0.084
    1HEX    C1919276  12.683  12.969   0.281
    1HEX    C1A19277  12.572  13.056   0.215
    1HEX    H1D19278  13.450  12.894  16.732
    1HEX    H1E19279  13.305  12.802  16.742
    1HEX    H1F19280  13.281  13.102  16.794
    1HEX    H1G19281  13.358  13.001  16.915
    1HEX    H1H19282  12.908  12.943  16.930
    1HEX    H1I19283  12.886  13.114  16.940
    1HEX    H1J19284  13.041  13.194  17.183
    1HEX    H1K19285  12.918  13.155  17.302
    1HEX    H1M19286  12.815  13.557  17.121
    1HEX    H1N19287  12.988  13.534  17.131
    1HEX    H1O19288  12.946  13.611  17.394
    1HEX    H1P19289  12.808  13.687  17.322
    1HEX    H1R19290  12.716  12.972  17.080
    1HEX    H1S19291  12.741  12.987  17.250
    1HEX    H1T19292  12.938  12.580  17.063
    1HEX    H1U19293  12.783  12.509  17.030
    1HEX    H1V19294  12.732  12.507  17.282
    1HEX    H1W19295  12.893  12.568  17.311
    1HEX    H1Y19296  13.056  12.851  17.135
    1HEX    H1Z19297  12.995  12.874  17.288
    1HEX    H2019298  13.154  13.166  17.351
    1HEX    H2119299  13.292  13.069  17.367
    1HEX    H2219300  13.135  12.800   0.026
    1HEX    H2319301  13.165  12.838   0.193
    1HEX    H2419302  13.560  12.767   0.023
    1HEX    H2519303  13.605  12.760   0.191
    1HEX    H2619304  13.619  13.038   0.146
    1HEX    H2719305  13.668  12.973  17.432
    1HEX    H2919306  13.175  13.214   0.149
    1HEX    H2A19307  13.310  13.105   0.164
    1HEX    H2B19308  13.116  13.001   0.533
    1HEX    H2C19309  13.060  13.166   0.546
    1HEX    H2D19310  13.320  13.197   0.637
    1HEX    H2E19311  13.293  13.032   0.686
    1HEX    H2G19312  12.930  12.992  17.434
    1HEX    H2H19313  12.960  13.140   0.075
    1HEX    H2I19314  12.728  13.017   0.367
    1HEX    H2J19315  12.639  12.875   0.316
    1HEX    H2K19316  12.559  13.026   0.111
    1HEX    H2M19317  12.601  13.161   0.212
    1STR    S0019318  13.307  12.937  16.545
    1STR    S0E19319  13.016  13.791  17.253
    1STR    S0M19320  12.899  12.335  17.234
    1STR    S0X19321  13.827  12.914   0.164
    1STR    S1419322  13.152  13.191   0.805
    1STR    S1B19323  12.408  13.040   0.295
    1HEX    C0119324  13.260  12.923   3.590
    1HEX    C0219325  13.265  12.974   3.736
    1HEX    C0319326  13.128  12.957   3.802
    1HEX    O0419327  13.073  12.847   3.803
    1HEX    O0519328  13.078  13.072   3.850
    1HEX    C0619329  12.939  13.079   3.883
    1HEX    C0719330  12.907  13.066   4.034
    1HEX    C0819331  12.929  13.205   4.106
    1HEX    O0919332  12.870  13.336   4.081
    1HEX    C0A19333  12.889  13.433   4.181
    1HEX    O0B19334  12.916  13.404   4.298
    1HEX    C0C19335  12.881  13.584   4.143
    1HEX    C0D19336  12.931  13.680   4.258
    1HEX    C0F19337  12.762  13.005   4.043
    1HEX    O0G19338  12.768  12.861   4.027
    1HEX    C0H19339  12.710  12.794   3.925
    1HEX    O0I19340  12.627  12.843   3.849
    1HEX    C0J19341  12.766  12.652   3.901
    1HEX    C0K19342  12.759  12.547   4.017
    1HEX    C0N19343  12.999  12.957   4.104
    1HEX    O0O19344  13.134  12.988   4.141
    1HEX    C0P19345  13.171  13.065   4.257
    1HEX    C0Q19346  13.133  13.019   4.401
    1HEX    C0R19347  13.196  12.877   4.426
    1HEX    O0S19348  13.336  12.868   4.389
    1HEX    C0T19349  13.439  12.881   4.479
    1HEX    O0U19350  13.424  12.909   4.598
    1HEX    C0V19351  13.579  12.849   4.423
    1HEX    C0W19352  13.676  12.970   4.405
    1HEX    C0Y19353  13.201  13.118   4.498
    1HEX    O0Z19354  13.157  13.086   4.627
    1HEX    C1019355  13.206  13.149   4.732
    1HEX    O1119356  13.296  13.233   4.732
    1HEX    C1219357  13.133  13.106   4.858
    1HEX    C1319358  13.201  13.154   4.986
    1HEX    C1519359  12.977  13.038   4.423
    1HEX    O1619360  12.898  12.972   4.524
    1HEX    C1719361  12.785  12.906   4.481
    1HEX    O1819362  12.782  12.835   4.381
    1HEX    C1919363  12.655  12.936   4.558
    1HEX    C1A19364  12.550  13.005   4.465
    1HEX    H1D19365  13.346  12.860   3.568
    1HEX    H1E19366  13.173  12.860   3.574
    1HEX    H1F19367  13.297  13.077   3.743
    1HEX    H1G19368  13.335  12.914   3.794
    1HEX    H1H19369  12.886  13.003   3.825
    1HEX    H1I19370  12.901  13.174   3.844
    1HEX    H1J19371  13.033  13.228   4.088
    1HEX    H1K19372  12.915  13.187   4.211
    1HEX    H1M19373  12.778  13.606   4.115
    1HEX    H1N19374  12.941  13.599   4.053
    1HEX    H1O19375  13.037  13.662   4.276
    1HEX    H1P19376  12.882  13.652   4.352
    1HEX    H1R19377  12.694  13.051   3.971
    1HEX    H1S19378  12.717  13.025   4.141
    1HEX    H1T19379  12.869  12.664   3.870
    1HEX    H1U19380  12.713  12.611   3.815
    1HEX    H1V19381  12.656  12.529   4.049
    1HEX    H1W19382  12.812  12.585   4.105
    1HEX    H1Y19383  13.010  12.875   4.033
    1HEX    H1Z19384  12.949  12.901   4.183
    1HEX    H2019385  13.147  13.170   4.246
    1HEX    H2119386  13.280  13.065   4.250
    1HEX    H2219387  13.141  12.804   4.367
    1HEX    H2319388  13.182  12.848   4.530
    1HEX    H2419389  13.569  12.792   4.331
    1HEX    H2519390  13.624  12.781   4.496
    1HEX    H2619391  13.674  13.036   4.492
    1HEX    H2719392  13.644  13.031   4.320
    1HEX    H2919393  13.175  13.222   4.475
    1HEX    H2A19394  13.310  13.114   4.492
    1HEX    H2B19395  13.127  12.997   4.857
    1HEX    H2C19396  13.031  13.144   4.851
    1HEX    H2D19397  13.211  13.263   4.989
    1HEX    H2E19398  13.302  13.114   4.993
    1HEX    H2G19399  12.924  13.025   4.332
    1HEX    H2H19400  12.960  13.144   4.443
    1HEX    H2I19401  12.676  12.996   4.647
    1HEX    H2J19402  12.616  12.841   4.593
    1HEX    H2K19403  12.565  12.971   4.363
    1HEX    H2M19404  12.567  13.112   4.463
    1STR    S0019405  13.250  13.057   3.467
    1STR    S0E19406  12.905  13.864   4.242
    1STR    S0M19407  12.835  12.387   3.963
    1STR    S0X19408  13.851  12.917   4.374
    1STR    S1419409  13.103  13.097   5.128
    1STR    S1B19410  12.371  12.977   4.505
    1HEX    C0119411  13.315  12.912   8.039
    1HEX    C0219412  13.254  12.899   8.180
    1HEX    C0319413  13.104  12.913   8.187
    1HEX    O0419414  13.031  12.815   8.171
    1HEX    O0519415  13.065  13.036   8.226
    1HEX    C0619416  12.928  13.058   8.258
    1HEX    C0719417  12.900  13.052   8.411
    1HEX    C0819418  12.926  13.193   8.476
    1HEX    O0919419  12.873  13.323   8.440
    1HEX    C0A19420  12.902  13.429   8.527
    1HEX    O0B19421  12.932  13.413   8.646
    1HEX    C0C19422  12.902  13.572   8.467
    1HEX    C0D19423  12.869  13.691   8.566
    1HEX    C0F19424  12.753  12.997   8.428
    1HEX    O0G19425  12.754  12.853   8.443
    1HEX    C0H19426  12.713  12.766   8.347
    1HEX    O0I19427  12.646  12.797   8.248
    1HEX    C0J19428  12.761  12.621   8.369
    1HEX    C0K19429  12.657  12.525   8.434
    1HEX    C0N19430  12.994  12.947   8.484
    1HEX    O0O19431  13.129  12.981   8.521
    1HEX    C0P19432  13.167  13.061   8.636
    1HEX    C0Q19433  13.131  13.018   8.782
    1HEX    C0R19434  13.191  12.876   8.806
    1HEX    O0S19435  13.332  12.866   8.770
    1HEX    C0T19436  13.433  12.871   8.862
    1HEX    O0U19437  13.416  12.888   8.983
    1HEX    C0V19438  13.576  12.852   8.806
    1HEX    C0W19439  13.652  12.987   8.789
    1HEX    C0Y19440  13.202  13.117   8.879
    1HEX    O0Z19441  13.166  13.093   9.014
    1HEX    C1019442  13.223  13.166   9.111
    1HEX    O1119443  13.310  13.251   9.094
    1HEX    C1219444  13.166  13.136   9.250
    1HEX    C1319445  13.276  13.109   9.357
    1HEX    C1519446  12.976  13.040   8.803
    1HEX    O1619447  12.901  12.993   8.916
    1HEX    C1719448  12.781  12.931   8.890
    1HEX    O1819449  12.764  12.849   8.801
    1HEX    C1919450  12.662  12.980   8.975
    1HEX    C1A19451  12.536  13.002   8.885
    1HEX    H1D19452  13.409  12.858   8.037
    1HEX    H1E19453  13.335  13.017   8.021
    1HEX    H1F19454  13.297  12.975   8.245
    1HEX    H1G19455  13.279  12.803   8.225
    1HEX    H1H19456  12.866  12.987   8.203
    1HEX    H1I19457  12.899  13.155   8.217
    1HEX    H1J19458  13.032  13.211   8.458
    1HEX    H1K19459  12.911  13.182   8.583
    1HEX    H1M19460  12.828  13.572   8.387
    1HEX    H1N19461  12.998  13.589   8.419
    1HEX    H1O19462  12.822  13.649   8.655
    1HEX    H1P19463  12.794  13.757   8.522
    1HEX    H1R19464  12.688  13.028   8.346
    1HEX    H1S19465  12.708  13.038   8.518
    1HEX    H1T19466  12.854  12.623   8.425
    1HEX    H1U19467  12.789  12.582   8.271
    1HEX    H1V19468  12.615  12.459   8.358
    1HEX    H1W19469  12.574  12.585   8.471
    1HEX    H1Y19470  13.004  12.862   8.416
    1HEX    H1Z19471  12.947  12.893   8.565
    1HEX    H2019472  13.141  13.166   8.623
    1HEX    H2119473  13.275  13.063   8.628
    1HEX    H2219474  13.136  12.803   8.745
    1HEX    H2319475  13.175  12.845   8.910
    1HEX    H2419476  13.571  12.796   8.713
    1HEX    H2519477  13.630  12.790   8.877
    1HEX    H2619478  13.654  13.041   8.884
    1HEX    H2719479  13.594  13.048   8.720
    1HEX    H2919480  13.176  13.220   8.855
    1HEX    H2A19481  13.310  13.111   8.869
    1HEX    H2B19482  13.100  13.050   9.243
    1HEX    H2C19483  13.105  13.221   9.279
    1HEX    H2D19484  13.374  13.127   9.312
    1HEX    H2E19485  13.275  13.004   9.386
    1HEX    H2G19486  12.920  13.013   8.716
    1HEX    H2H19487  12.960  13.148   8.805
    1HEX    H2I19488  12.690  13.071   9.026
    1HEX    H2J19489  12.641  12.905   9.051
    1HEX    H2K19490  12.500  12.906   8.848
    1HEX    H2M19491  12.564  13.059   8.796
    1STR    S0019492  13.223  12.854   7.893
    1STR    S0E19493  13.007  13.800   8.628
    1STR    S0M19494  12.712  12.420   8.576
    1STR    S0X19495  13.824  12.980   8.720
    1STR    S1419496  13.268  13.214   9.506
    1STR    S1B19497  12.394  13.091   8.963
    1HEX    C0119498  13.318  12.959  12.324
    1HEX    C0219499  13.276  12.980  12.471
    1HEX    C0319500  13.132  12.947  12.507
    1HEX    O0419501  13.087  12.833  12.495
    1HEX    O0519502  13.069  13.053  12.561
    1HEX    C0619503  12.934  13.041  12.604
    1HEX    C0719504  12.918  13.028  12.758
    1HEX    C0819505  12.922  13.172  12.825
    1HEX    O0919506  12.856  13.295  12.786
    1HEX    C0A19507  12.872  13.403  12.875
    1HEX    O0B19508  12.911  13.388  12.991
    1HEX    C0C19509  12.845  13.547  12.824
    1HEX    C0D19510  12.890  13.657  12.929
    1HEX    C0F19511  12.786  12.945  12.783
    1HEX    O0G19512  12.814  12.803  12.785
    1HEX    C0H19513  12.778  12.718  12.686
    1HEX    O0I19514  12.698  12.747  12.597
    1HEX    C0J19515  12.850  12.581  12.685
    1HEX    C0K19516  12.870  12.505  12.821
    1HEX    C0N19517  13.032  12.939  12.823
    1HEX    O0O19518  13.158  12.996  12.862
    1HEX    C0P19519  13.180  13.067  12.986
    1HEX    C0Q19520  13.136  13.012  13.126
    1HEX    C0R19521  13.194  12.870  13.148
    1HEX    O0S19522  13.335  12.860  13.122
    1HEX    C0T19523  13.427  12.862  13.222
    1HEX    O0U19524  13.402  12.886  13.340
    1HEX    C0V19525  13.570  12.825  13.179
    1HEX    C0W19526  13.664  12.945  13.148
    1HEX    C0Y19527  13.198  13.108  13.231
    1HEX    O0Z19528  13.158  13.075  13.362
    1HEX    C1019529  13.215  13.138  13.466
    1HEX    O1119530  13.306  13.221  13.457
    1HEX    C1219531  13.153  13.099  13.599
    1HEX    C1319532  13.240  13.134  13.722
    1HEX    C1519533  12.979  13.024  13.141
    1HEX    O1619534  12.909  12.967  13.252
    1HEX    C1719535  12.785  12.913  13.230
    1HEX    O1819536  12.747  12.863  13.124
    1HEX    C1919537  12.688  12.925  13.348
    1HEX    C1A19538  12.558  13.002  13.310
    1HEX    H1D19539  13.367  12.862  12.314
    1HEX    H1E19540  13.391  13.034  12.296
    1HEX    H1F19541  13.294  13.083  12.500
    1HEX    H1G19542  13.340  12.919  12.536
    1HEX    H1H19543  12.885  12.958  12.551
    1HEX    H1I19544  12.881  13.130  12.568
    1HEX    H1J19545  13.026  13.203  12.815
    1HEX    H1K19546  12.900  13.158  12.930
    1HEX    H1M19547  12.739  13.557  12.800
    1HEX    H1N19548  12.901  13.561  12.731
    1HEX    H1O19549  12.998  13.651  12.941
    1HEX    H1P19550  12.850  13.631  13.027
    1HEX    H1R19551  12.708  12.970  12.711
    1HEX    H1S19552  12.743  12.970  12.880
    1HEX    H1T19553  12.947  12.597  12.637
    1HEX    H1U19554  12.794  12.518  12.617
    1HEX    H1V19555  12.777  12.503  12.877
    1HEX    H1W19556  12.942  12.558  12.883
    1HEX    H1Y19557  13.058  12.863  12.749
    1HEX    H1Z19558  12.999  12.875  12.903
    1HEX    H2019559  13.147  13.171  12.977
    1HEX    H2119560  13.288  13.077  12.988
    1HEX    H2219561  13.143  12.799  13.081
    1HEX    H2319562  13.171  12.835  13.249
    1HEX    H2419563  13.565  12.756  13.095
    1HEX    H2519564  13.610  12.768  13.262
    1HEX    H2619565  13.624  13.038  13.190
    1HEX    H2719566  13.671  12.960  13.041
    1HEX    H2919567  13.169  13.212  13.211
    1HEX    H2A19568  13.307  13.107  13.225
    1HEX    H2B19569  13.130  12.992  13.597
    1HEX    H2C19570  13.058  13.152  13.603
    1HEX    H2D19571  13.294  13.228  13.705
    1HEX    H2E19572  13.315  13.058  13.738
    1HEX    H2G19573  12.931  12.988  13.051
    1HEX    H2H19574  12.954  13.129  13.143
    1HEX    H2I19575  12.740  12.977  13.429
    1HEX    H2J19576  12.665  12.825  13.385
    1HEX    H2K19577  12.569  13.048  13.212
    1HEX    H2M19578  12.540  13.085  13.379
    1STR    S0019579  13.186  12.962  12.197
    1STR    S0E19580  12.843  13.835  12.903
    1STR    S0M19581  12.928  12.330  12.793
    1STR    S0X19582  13.833  12.918  13.217
    1STR    S1419583  13.134  13.157  13.869
    1STR    S1B19584  12.405  12.900  13.305
  17.44000  17.44000  17.44000
