; GENERATED WITH Auto_Martini M3FF for LAC
; Developed by: Kiran Kanekal, Tristan Bereau, and Andrew Abi-Mansour
; updated to Martini 3 force field by Magdalena Szczuka
; supervised by Matthieu Chavent, Pierre Poulain and Paulo C. T. Souza 
; SMILES code : C[C@H](O)C(O)=O


[moleculetype]
; molname       nrexcl
  LAC           2

[atoms]
; id      type   resnr residue atom    cgnr    charge  mass ;  smiles    ; atom_num
   1       SP2d    1   LAC     P01       1        0    54   ;   CCO      ; atoms: C0, C1, O2,          
   2       SN6d    1   LAC     N01       2        0    54   ;   O=CO     ; atoms: C3, O4, O5, ; ALOGPS defined bead


[bonds]
;  i   j     funct   length   force.c.
   1   2     1       0.27       25000.00
