[ moleculetype ]
; name  nrexcl
  LNK     1

[ atoms ]
; nr  type  resnr  residu  atom  cgnr  charge
  1   C1    1      BCK      C1    1     0.0
  2   C1    1      LNK      C2    2     0.0
  3   C1    1      LNK      C3    3     0.0
  4   C1    1      BCK      C4    4     0.0

[ bonds ]
; i   j   funct   length    force_k
  1   2   1       0.470     1250
  2   3   1       0.470     1250
  3   4   1       0.470     1250

[ angles ]
; i   j   k   funct   angle     force_k
  1   2   3   1       180.0     25
  2   3   4   1       180.0     25

; --- Extra sections for compatibility testing of rich ITP features ---
[ dihedrals ]
; i   j   k   l   funct   phi    kphi
  1   2   3   4    1     180.0   5.0

[ impropers ]
; i   j   k   l   funct   phi    kphi
  2   1   3   4    2       0.0   5.0

[ constraints ]
; i   j   funct   length
  1   2    1      0.470
  3   4    1      0.470

[ pairs ]
; i   j   funct
  1   3    1
  2   4    1

[ exclusions ]
; atom   excls...
  1      4
  4      1

[ position_restraints ]
; atom  funct   fc_x   fc_y   fc_z
  2      1     1000   1000   1000
