[ moleculetype ]
; name  nrexcl
  PE     1

[ atoms ]
; nr  type  resnr  residu  atom  cgnr  charge
  1   C1    1      BCK      C1    1     0.0
  2   C1    1      PE      C2    2     0.0
  3   C1    1      PE      C3    3     0.0
  4   C1    1      PE      C4    4     0.0

[ bonds ]
; i   j   funct   length    force_k
  1   2   1       0.470     1250
  2   3   1       0.470     1250
  3   4   1       0.470     1250

[ angles ]
; i   j   k   funct   angle     force_k
  1   2   3   1       180.0     25
  2   3   4   1       180.0     25

; --- Additional sections for compatibility testing ---
[ dihedrals ]
; i   j   k   l   funct   phi    kphi
  1   2   3   4    1     180.0   5.0

[ impropers ]
; i   j   k   l   funct   phi    kphi
  2   1   3   4    2       0.0   5.0

[ constraints ]
; i   j   funct   length
  1   2    1      0.470

[ pairs ]
; i   j   funct
  1   3    1

[ exclusions ]
; atom   excls...
  1      4

[ virtual_sites3 ]
; i    j    k    l   funct   a
  4    1    2    3    1     0.5

[ distance_restraints ]
; ai   aj   type index type' low up1 up2 fac
  1    4    1    0    1     0.3 0.5 0.6 1.0

[ angle_restraints ]
; ai   aj   ak   type index type' low up1 up2 fac
  1    2    3    1    0    1     90  120 150 1.0

[ dihedral_restraints ]
; ai   aj   ak   al   type index type' phi  dphi  kfac
  1    2    3    4    1    0    1     180   20   1.0

[ orientation_restraints ]
; ai   aj   ak   al   type index type' low up1 up2 fac
  1    2    3    4    1    0    1    -1.0 -0.5  0.5 1.0

[ cmaptypes ]
; a1  a2  a3  a4  a5  func  grid
  C1  C1  C1  C1  C1   1     24
