[ moleculetype ]
; name  nrexcl
  TABT   1

[ atoms ]
; nr  type  resnr  residu  atom  cgnr  charge  mass
  1   C1    1      TABT    A1    1     0.0     72.0
  2   C1    1      TABT    A2    2     0.0     72.0
  3   C1    1      TABT    A3    3     0.0     72.0
  4   C1    1      TABT    A4    4     0.0     72.0

[ bonds ]
; i   j   funct   length    force_k
  1   2    1      0.47      1250
  2   3    1      0.47      1250
; tabulated bond (funct 8) requires table at runtime (e.g., table_bond.xvg)
  3   4    8      table_bond    0

[ angles ]
; i   j   k   funct   angle     force_k
  1   2   3    1      180.0     25
; tabulated angle (funct 8) requires table at runtime
  2   3   4    8      table_angle   0

[ dihedrals ]
; i   j   k   l   funct   phi    kphi
  1   2   3   4    1     180.0   5.0
; tabulated dihedral (funct 8) requires dihedral table
  1   2   3   4    8     table_dih   0

[ impropers ]
; i   j   k   l   funct   phi    kphi
  2   1   3   4    2       0.0   5.0

[ pairs ]
; i   j   funct
  1   3    1

[ exclusions ]
; atom   excls...
  1      4

[ virtual_sites2 ]
; i   j   k   funct   a
  4   1   2    1     0.5

[ distance_restraints ]
; ai   aj   type index type' low up1 up2 fac
  1    4    1    0    1     0.3 0.5 0.6 1.0

[ angle_restraints ]
; ai   aj   ak   type index type' low up1 up2 fac
  1    2    3    1    0    1     90  120 150 1.0

[ dihedral_restraints ]
; ai   aj   ak   al   type index type' phi  dphi  kfac
  1    2    3    4    1    0    1     180   20   1.0

[ orientation_restraints ]
; ai   aj   ak   al   type index type' low up1 up2 fac
  1    2    3    4    1    0    1    -1.0 -0.5  0.5 1.0

[ position_restraints ]
; atom  funct   fc_x   fc_y   fc_z
  1      1     500    500    500

[ cmaptypes ]
; a1  a2  a3  a4  a5  func  grid
  C1  C1  C1  C1  C1   1     24

; Note: This molecule is not referenced in maker.yaml; it exists to test parser
; compatibility with rich ITP sections (including tabulated interactions).
