My System
29952
    1STR   BCK1    1   0.747  17.134  17.278
    1STR    O03    2   0.717  17.159  17.162
    1STR    N04    3   0.868  17.091  17.319
    1STR    C05    4   0.973  17.038  17.242
    1STR    C06    5   1.109  17.075  17.267
    1STR    C07    6   1.218  17.014  17.197
    1STR    N08    7   1.353  17.047  17.225
    1STR    C09    8   1.463  16.973  17.205
    1STR    O0A    9   1.461  16.856  17.165
    1STR    O0B   10   1.580  17.039  17.233
    1STR    C0C   11   1.707  16.979  17.198
    1STR    C0D   12   1.735  17.004  17.049
    1STR    C0E   13   1.824  17.030  17.286
    1STR    O0F   14   1.947  16.963  17.251
    1STR    C0G   15   2.063  16.993  17.332
    1STR    C0H   16   2.052  16.916   0.024
    1STR    C0I   17   2.192  16.953  17.256
    1STR    O0J   18   2.312  16.993  17.326
    1STR    C0K   19   2.437  16.950  17.271
    1STR    C0M   20   2.461  17.016  17.134
    1STR    C0N   21   2.555  16.986  17.367
    1STR    O0O   22   2.677  16.926  17.322
    1STR    C0P   23   2.798  16.984  17.345
    1STR    O0Q   24   2.816  17.091  17.402
    1STR    N0R   25   2.894  16.907  17.293
    1STR    C0S   26   3.033  16.924  17.275
    1STR    C0T   27   3.097  16.828  17.194
    1STR    C0U   28   3.232  16.844  17.158
    1STR    C0V   29   3.307  16.954  17.202
    1STR    C0W   30   3.443  16.974  17.138
    1STR    C0X   31   3.250  17.046  17.294
    1STR    N0Y   32   3.317  17.160  17.340
    1STR   BCK2   33   3.440  17.191  17.384
    1STR    O10   34   3.465  17.309  17.410
    1STR    C13   35   3.111  17.031  17.326
    1STR    C14   36   1.186  16.921  17.096
    1STR    C15   37   1.054  16.881  17.072
    1STR    C16   38   0.948  16.936  17.146
    1STR    C17   39   0.809  16.876  17.125
    1STR    H1B   40   0.880  17.094  17.419
    1STR    H1C   41   1.129  17.149  17.342
    1STR    H1D   42   1.372  17.137  17.266
    1STR    H1E   43   1.700  16.871  17.215
    1STR    H1F   44   1.742  17.110  17.027
    1STR    H1G   45   1.828  16.957  17.018
    1STR    H1H   46   1.655  16.962  16.987
    1STR    H1I   47   1.799  17.012  17.390
    1STR    H1J   48   1.836  17.138  17.274
    1STR    H1K   49   2.067  17.101  17.351
    1STR    H1M   50   2.040  16.809   0.007
    1STR    H1N   51   1.968  16.949   0.085
    1STR    H1O   52   2.142  16.930   0.085
    1STR    H1P   53   2.192  16.846  17.238
    1STR    H1Q   54   2.189  17.001  17.158
    1STR    H1R   55   2.435  16.842  17.260
    1STR    H1S   56   2.561  16.993  17.096
    1STR    H1T   57   2.453  17.124  17.141
    1STR    H1U   58   2.390  16.982  17.058
    1STR    H1V   59   2.534  16.950   0.027
    1STR    H1W   60   2.565  17.094  17.375
    1STR    H1X   61   2.853  16.824  17.254
    1STR    H1Y   62   3.042  16.744  17.155
    1STR    H1Z   63   3.276  16.772  17.091
    1STR    H20   64   3.471  17.080  17.137
    1STR    H21   65   3.520  16.918  17.192
    1STR    H22   66   3.443  16.941  17.035
    1STR    H23   67   3.258  17.242  17.347
    1STR    H27   68   3.064  17.104  17.390
    1STR    H28   69   1.263  16.875  17.036
    1STR    H29   70   1.034  16.806  16.997
    1STR    H2A   71   0.753  16.872  17.218
    1STR    H2B   72   0.816  16.774  17.087
    1STR    H2C   73   0.754  16.935  17.052
    1STR   BCK1   74   0.774  17.298   4.161
    1STR    O03   75   0.737  17.389   4.234
    1STR    N04   76   0.888  17.297   4.090
    1STR    C05   77   0.979  17.402   4.064
    1STR    C06   78   1.120  17.380   4.069
    1STR    C07   79   1.216   0.040   4.034
    1STR    N08   80   1.355   0.013   4.037
    1STR    C09   81   1.460   0.086   3.990
    1STR    O0A   82   1.449   0.194   3.932
    1STR    O0B   83   1.582   0.027   4.014
    1STR    C0C   84   1.704   0.100   3.986
    1STR    C0D   85   1.735   0.192   4.105
    1STR    C0E   86   1.824   0.006   3.955
    1STR    O0F   87   1.946   0.080   3.934
    1STR    C0G   88   2.063   0.005   3.896
    1STR    C0H   89   2.056  17.416   3.746
    1STR    C0I   90   2.192   0.085   3.930
    1STR    O0J   91   2.312   0.005   3.918
    1STR    C0K   92   2.438   0.074   3.936
    1STR    C0M   93   2.448   0.133   4.078
    1STR    C0N   94   2.558  17.417   3.912
    1STR    O0O   95   2.683   0.048   3.914
    1STR    C0P   96   2.799  17.429   3.952
    1STR    O0Q   97   2.812  17.314   3.991
    1STR    N0R   98   2.898   0.078   3.937
    1STR    C0S   99   3.037   0.079   3.961
    1STR    C0T  100   3.106   0.186   3.901
    1STR    C0U  101   3.241   0.209   3.927
    1STR    C0V  102   3.313   0.126   4.016
    1STR    C0W  103   3.454   0.169   4.052
    1STR    C0X  104   3.250   0.012   4.073
    1STR    N0Y  105   3.321  17.370   4.163
    1STR   BCK2  106   3.444  17.317   4.147
    1STR    O10  107   3.503  17.312   4.040
    1STR    C13  108   3.110  17.431   4.046
    1STR    C14  109   1.165   0.166   3.995
    1STR    C15  110   1.026   0.189   3.987
    1STR    C16  111   0.933   0.088   4.017
    1STR    C17  112   0.787   0.119   3.991
    1STR    H1B  113   0.907  17.210   4.044
    1STR    H1C  114   1.155  17.283   4.101
    1STR    H1D  115   1.385  17.367   4.079
    1STR    H1E  116   1.689   0.163   3.898
    1STR    H1F  117   1.752   0.136   4.197
    1STR    H1G  118   1.824   0.252   4.087
    1STR    H1H  119   1.653   0.262   4.123
    1STR    H1I  120   1.800  17.388   3.866
    1STR    H1J  121   1.838  17.376   4.037
    1STR    H1K  122   2.066  17.352   3.953
    1STR    H1M  123   2.046   0.068   3.689
    1STR    H1N  124   1.971  17.352   3.720
    1STR    H1O  125   2.146  17.366   3.711
    1STR    H1P  126   2.199   0.174   3.867
    1STR    H1Q  127   2.183   0.122   4.033
    1STR    H1R  128   2.444   0.155   3.863
    1STR    H1S  129   2.547   0.176   4.095
    1STR    H1T  130   2.432   0.057   4.154
    1STR    H1U  131   2.377   0.214   4.094
    1STR    H1V  132   2.549  17.370   3.814
    1STR    H1W  133   2.558  17.337   3.985
    1STR    H1X  134   2.860   0.163   3.899
    1STR    H1Y  135   3.055   0.254   3.834
    1STR    H1Z  136   3.290   0.294   3.882
    1STR    H20  137   3.476   0.147   4.157
    1STR    H21  138   3.527   0.118   3.989
    1STR    H22  139   3.467   0.276   4.039
    1STR    H23  140   3.278  17.354   4.253
    1STR    H27  141   3.058  17.348   4.092
    1STR    H28  142   1.228   0.249   3.970
    1STR    H29  143   0.992   0.286   3.953
    1STR    H2A  144   0.733   0.030   3.956
    1STR    H2B  145   0.775   0.195   3.915
    1STR    H2C  146   0.739   0.155   4.082
    1STR   BCK1  147   0.752  17.231   8.595
    1STR    O03  148   0.703  17.309   8.514
    1STR    N04  149   0.879  17.255   8.634
    1STR    C05  150   0.972  17.210   8.730
    1STR    C06  151   1.111  17.220   8.698
    1STR    C07  152   1.215  17.192   8.792
    1STR    N08  153   1.351  17.212   8.759
    1STR    C09  154   1.463  17.202   8.834
    1STR    O0A  155   1.464  17.170   8.952
    1STR    O0B  156   1.577  17.233   8.764
    1STR    C0C  157   1.707  17.204   8.821
    1STR    C0D  158   1.745  17.061   8.781
    1STR    C0E  159   1.817  17.305   8.778
    1STR    O0F  160   1.942  17.274   8.843
    1STR    C0G  161   2.054  17.359   8.815
    1STR    C0H  162   2.042   0.046   8.902
    1STR    C0I  163   2.185  17.283   8.847
    1STR    O0J  164   2.302  17.358   8.811
    1STR    C0K  165   2.428  17.301   8.851
    1STR    C0M  166   2.455  17.169   8.778
    1STR    C0N  167   2.545  17.400   8.823
    1STR    O0O  168   2.660  17.356   8.896
    1STR    C0P  169   2.783  17.350   8.841
    1STR    O0Q  170   2.815  17.387   8.728
    1STR    N0R  171   2.865  17.293   8.929
    1STR    C0S  172   2.997  17.248   8.925
    1STR    C0T  173   3.031  17.155   9.024
    1STR    C0U  174   3.158  17.097   9.027
    1STR    C0V  175   3.256  17.132   8.932
    1STR    C0W  176   3.383  17.049   8.941
    1STR    C0X  177   3.230  17.233   8.835
    1STR    N0Y  178   3.320  17.288   8.740
    1STR   BCK2  179   3.451  17.295   8.708
    1STR    O10  180   3.483  17.370   8.616
    1STR    C13  181   3.097  17.287   8.832
    1STR    C14  182   1.174  17.148   8.920
    1STR    C15  183   1.038  17.139   8.954
    1STR    C16  184   0.937  17.173   8.862
    1STR    C17  185   0.796  17.179   8.916
    1STR    H1B  186   0.914  17.327   8.573
    1STR    H1C  187   1.139  17.252   8.599
    1STR    H1D  188   1.372  17.237   8.663
    1STR    H1E  189   1.701  17.209   8.930
    1STR    H1F  190   1.753  17.051   8.673
    1STR    H1G  191   1.841  17.033   8.824
    1STR    H1H  192   1.671  16.989   8.816
    1STR    H1I  193   1.785  17.406   8.805
    1STR    H1J  194   1.829  17.304   8.670
    1STR    H1K  195   2.055  17.386   8.710
    1STR    H1M  196   2.035   0.020   9.008
    1STR    H1N  197   1.955   0.105   8.876
    1STR    H1O  198   2.130   0.109   8.890
    1STR    H1P  199   2.187  17.257   8.953
    1STR    H1Q  200   2.183  17.189   8.792
    1STR    H1R  201   2.425  17.284   8.959
    1STR    H1S  202   2.555  17.131   8.800
    1STR    H1T  203   2.448  17.181   8.670
    1STR    H1U  204   2.385  17.090   8.807
    1STR    H1V  205   2.519   0.060   8.858
    1STR    H1W  206   2.565  17.408   8.716
    1STR    H1X  207   2.813  17.273   9.013
    1STR    H1Y  208   2.959  17.124   9.098
    1STR    H1Z  209   3.179  17.023   9.102
    1STR    H20  210   3.413  17.016   8.842
    1STR    H21  211   3.461  17.106   8.990
    1STR    H22  212   3.369  16.959   9.000
    1STR    H23  213   3.274  17.347   8.673
    1STR    H27  214   3.070  17.360   8.757
    1STR    H28  215   1.245  17.121   8.997
    1STR    H29  216   1.012  17.108   9.054
    1STR    H2A  217   0.737  17.257   8.867
    1STR    H2B  218   0.795  17.202   9.023
    1STR    H2C  219   0.747  17.082   8.903
    1STR   BCK1  220   0.759  17.163  12.844
    1STR    O03  221   0.720  17.268  12.794
    1STR    N04  222   0.881  17.109  12.824
    1STR    C05  223   0.978  17.138  12.726
    1STR    C06  224   1.117  17.141  12.760
    1STR    C07  225   1.219  17.158  12.661
    1STR    N08  226   1.357  17.156  12.695
    1STR    C09  227   1.463  17.129  12.617
    1STR    O0A  228   1.455  17.095  12.499
    1STR    O0B  229   1.583  17.144  12.682
    1STR    C0C  230   1.708  17.132  12.609
    1STR    C0D  231   1.735  17.264  12.535
    1STR    C0E  232   1.827  17.094  12.701
    1STR    O0F  233   1.951  17.082  12.627
    1STR    C0G  234   2.066  17.036  12.700
    1STR    C0H  235   2.056  16.883  12.716
    1STR    C0I  236   2.197  17.074  12.625
    1STR    O0J  237   2.314  17.049  12.706
    1STR    C0K  238   2.443  17.064  12.642
    1STR    C0M  239   2.464  17.210  12.599
    1STR    C0N  240   2.557  17.019  12.737
    1STR    O0O  241   2.684  17.016  12.669
    1STR    C0P  242   2.800  17.048  12.731
    1STR    O0Q  243   2.813  17.087  12.846
    1STR    N0R  244   2.900  17.036  12.643
    1STR    C0S  245   3.037  17.069  12.646
    1STR    C0T  246   3.097  17.084  12.519
    1STR    C0U  247   3.230  17.126  12.507
    1STR    C0V  248   3.308  17.151  12.621
    1STR    C0W  249   3.445  17.214  12.596
    1STR    C0X  250   3.257  17.124  12.751
    1STR    N0Y  251   3.337  17.141  12.866
    1STR   BCK2  252   3.465  17.102  12.885
    1STR    O10  253   3.529  17.034  12.807
    1STR    C13  254   3.119  17.088  12.761
    1STR    C14  255   1.177  17.177  12.528
    1STR    C15  256   1.042  17.172  12.493
    1STR    C16  257   0.942  17.149  12.589
    1STR    C17  258   0.800  17.130  12.540
    1STR    H1B  259   0.902  17.033  12.887
    1STR    H1C  260   1.145  17.129  12.863
    1STR    H1D  261   1.382  17.175  12.791
    1STR    H1E  262   1.697  17.052  12.535
    1STR    H1F  263   1.746  17.347  12.604
    1STR    H1G  264   1.827  17.257  12.476
    1STR    H1H  265   1.654  17.287  12.466
    1STR    H1I  266   1.803  16.999  12.750
    1STR    H1J  267   1.838  17.168  12.780
    1STR    H1K  268   2.068  17.084  12.798
    1STR    H1M  269   2.045  16.834  12.620
    1STR    H1N  270   1.972  16.854  12.778
    1STR    H1O  271   2.146  16.844  12.763
    1STR    H1P  272   2.203  17.019  12.531
    1STR    H1Q  273   2.192  17.180  12.600
    1STR    H1R  274   2.445  16.999  12.554
    1STR    H1S  275   2.565  17.224  12.559
    1STR    H1T  276   2.453  17.277  12.684
    1STR    H1U  277   2.395  17.241  12.521
    1STR    H1V  278   2.538  16.918  12.775
    1STR    H1W  279   2.561  17.084  12.825
    1STR    H1X  280   2.864  17.000  12.557
    1STR    H1Y  281   3.040  17.068  12.429
    1STR    H1Z  282   3.271  17.142  12.408
    1STR    H20  283   3.476  17.276  12.680
    1STR    H21  284   3.520  17.136  12.580
    1STR    H22  285   3.444  17.278  12.508
    1STR    H23  286   3.292  17.181  12.947
    1STR    H27  287   3.074  17.072  12.858
    1STR    H28  288   1.249  17.194  12.449
    1STR    H29  289   1.015  17.183  12.389
    1STR    H2A  290   0.748  17.055  12.599
    1STR    H2B  291   0.798  17.096  12.436
    1STR    H2C  292   0.745  17.224  12.545
    1STR   BCK1  293   0.783   4.218  17.349
    1STR    O03  294   0.751   4.254   0.022
    1STR    N04  295   0.894   4.257  17.284
    1STR    C05  296   0.985   4.359  17.319
    1STR    C06  297   1.126   4.337  17.306
    1STR    C07  298   1.222   4.438  17.334
    1STR    N08  299   1.360   4.415  17.314
    1STR    C09  300   1.467   4.489  17.352
    1STR    O0A  301   1.460   4.590  17.422
    1STR    O0B  302   1.585   4.438  17.306
    1STR    C0C  303   1.710   4.501  17.344
    1STR    C0D  304   1.748   4.455   0.046
    1STR    C0E  305   1.825   4.471  17.243
    1STR    O0F  306   1.948   4.532  17.287
    1STR    C0G  307   2.063   4.514  17.203
    1STR    C0H  308   2.054   4.613  17.085
    1STR    C0I  309   2.192   4.539  17.286
    1STR    O0J  310   2.312   4.500  17.216
    1STR    C0K  311   2.437   4.528  17.283
    1STR    C0M  312   2.448   4.448  17.414
    1STR    C0N  313   2.558   4.495  17.192
    1STR    O0O  314   2.679   4.547  17.249
    1STR    C0P  315   2.797   4.479  17.245
    1STR    O0Q  316   2.814   4.365  17.204
    1STR    N0R  317   2.893   4.560  17.293
    1STR    C0S  318   3.030   4.547  17.316
    1STR    C0T  319   3.097   4.669  17.341
    1STR    C0U  320   3.231   4.672  17.379
    1STR    C0V  321   3.305   4.553  17.393
    1STR    C0W  322   3.445   4.564   0.010
    1STR    C0X  323   3.245   4.428  17.361
    1STR    N0Y  324   3.318   4.309  17.380
    1STR   BCK2  325   3.443   4.282  17.339
    1STR    O10  326   3.502   4.344  17.251
    1STR    C13  327   3.106   4.426  17.324
    1STR    C14  328   1.172   4.564  17.376
    1STR    C15  329   1.035   4.588  17.387
    1STR    C16  330   0.941   4.488  17.356
    1STR    C17  331   0.794   4.528  17.358
    1STR    H1B  332   0.910   4.209  17.197
    1STR    H1C  333   1.160   4.239  17.275
    1STR    H1D  334   1.387   4.332  17.265
    1STR    H1E  335   1.696   4.609  17.345
    1STR    H1F  336   1.763   4.347   0.050
    1STR    H1G  337   1.839   4.504   0.079
    1STR    H1H  338   1.670   4.481   0.117
    1STR    H1I  339   1.796   4.509  17.145
    1STR    H1J  340   1.838   4.363  17.233
    1STR    H1K  341   2.066   4.412  17.165
    1STR    H1M  342   2.044   4.715  17.120
    1STR    H1N  343   1.970   4.592  17.020
    1STR    H1O  344   2.144   4.608  17.024
    1STR    H1P  345   2.197   4.643  17.316
    1STR    H1Q  346   2.183   4.480  17.378
    1STR    H1R  347   2.440   4.635  17.306
    1STR    H1S  348   2.547   4.460   0.019
    1STR    H1T  349   2.434   4.341  17.395
    1STR    H1U  350   2.375   4.479   0.048
    1STR    H1V  351   2.545   4.541  17.094
    1STR    H1W  352   2.565   4.387  17.174
    1STR    H1X  353   2.851   4.648  17.315
    1STR    H1Y  354   3.044   4.763  17.334
    1STR    H1Z  355   3.278   4.767  17.401
    1STR    H20  356   3.467   4.482   0.078
    1STR    H21  357   3.519   4.565  17.370
    1STR    H22  358   3.457   4.656   0.068
    1STR    H23  359   3.274   4.237  17.436
    1STR    H27  360   3.056   4.333  17.304
    1STR    H28  361   1.238   4.647  17.398
    1STR    H29  362   1.001   4.686  17.417
    1STR    H2A  363   0.737   4.476  17.281
    1STR    H2B  364   0.782   4.635  17.339
    1STR    H2C  365   0.750   4.506   0.015
    1STR   BCK1  366   0.752   4.111   4.221
    1STR    O03  367   0.707   4.207   4.161
    1STR    N04  368   0.884   4.084   4.208
    1STR    C05  369   0.978   3.987   4.248
    1STR    C06  370   1.113   4.030   4.264
    1STR    C07  371   1.220   3.940   4.295
    1STR    N08  372   1.354   3.984   4.296
    1STR    C09  373   1.466   3.924   4.342
    1STR    O0A  374   1.466   3.823   4.413
    1STR    O0B  375   1.579   3.988   4.300
    1STR    C0C  376   1.707   3.921   4.298
    1STR    C0D  377   1.731   3.869   4.156
    1STR    C0E  378   1.823   4.014   4.343
    1STR    O0F  379   1.946   3.939   4.353
    1STR    C0G  380   2.062   4.010   4.401
    1STR    C0H  381   2.054   4.020   4.554
    1STR    C0I  382   2.191   3.936   4.357
    1STR    O0J  383   2.310   4.007   4.397
    1STR    C0K  384   2.436   3.942   4.374
    1STR    C0M  385   2.462   3.926   4.223
    1STR    C0N  386   2.553   4.021   4.439
    1STR    O0O  387   2.672   3.942   4.440
    1STR    C0P  388   2.794   3.994   4.413
    1STR    O0Q  389   2.816   4.111   4.382
    1STR    N0R  390   2.886   3.898   4.420
    1STR    C0S  391   3.023   3.895   4.387
    1STR    C0T  392   3.077   3.768   4.358
    1STR    C0U  393   3.208   3.755   4.311
    1STR    C0V  394   3.291   3.868   4.294
    1STR    C0W  395   3.422   3.847   4.220
    1STR    C0X  396   3.244   3.996   4.335
    1STR    N0Y  397   3.320   4.113   4.320
    1STR   BCK2  398   3.448   4.150   4.342
    1STR    O10  399   3.482   4.263   4.309
    1STR    C13  400   3.109   4.008   4.377
    1STR    C14  401   1.186   3.804   4.311
    1STR    C15  402   1.055   3.759   4.293
    1STR    C16  403   0.951   3.848   4.257
    1STR    C17  404   0.819   3.785   4.218
    1STR    H1B  405   0.923   4.159   4.152
    1STR    H1C  406   1.136   4.134   4.251
    1STR    H1D  407   1.375   4.070   4.249
    1STR    H1E  408   1.705   3.836   4.366
    1STR    H1F  409   1.734   3.951   4.083
    1STR    H1G  410   1.826   3.816   4.149
    1STR    H1H  411   1.652   3.800   4.125
    1STR    H1I  412   1.799   4.058   4.440
    1STR    H1J  413   1.836   4.096   4.273
    1STR    H1K  414   2.064   4.110   4.357
    1STR    H1M  415   2.045   3.921   4.599
    1STR    H1N  416   1.969   4.080   4.587
    1STR    H1O  417   2.144   4.067   4.594
    1STR    H1P  418   2.192   3.835   4.399
    1STR    H1Q  419   2.190   3.925   4.249
    1STR    H1R  420   2.433   3.844   4.421
    1STR    H1S  421   2.562   3.887   4.205
    1STR    H1T  422   2.455   4.022   4.172
    1STR    H1U  423   2.392   3.858   4.176
    1STR    H1V  424   2.529   4.048   4.542
    1STR    H1W  425   2.568   4.116   4.387
    1STR    H1X  426   2.843   3.812   4.449
    1STR    H1Y  427   3.016   3.679   4.366
    1STR    H1Z  428   3.244   3.658   4.282
    1STR    H20  429   3.454   3.939   4.170
    1STR    H21  430   3.500   3.814   4.288
    1STR    H22  431   3.410   3.772   4.142
    1STR    H23  432   3.267   4.193   4.289
    1STR    H27  433   3.068   4.105   4.402
    1STR    H28  434   1.262   3.729   4.333
    1STR    H29  435   1.034   3.653   4.301
    1STR    H2A  436   0.755   3.774   4.305
    1STR    H2B  437   0.834   3.686   4.175
    1STR    H2C  438   0.768   3.844   4.142
    1STR   BCK1  439   0.768   4.173   8.474
    1STR    O03  440   0.728   4.284   8.505
    1STR    N04  441   0.886   4.147   8.415
    1STR    C05  442   0.979   4.234   8.355
    1STR    C06  443   1.119   4.215   8.374
    1STR    C07  444   1.218   4.293   8.306
    1STR    N08  445   1.356   4.271   8.325
    1STR    C09  446   1.460   4.305   8.244
    1STR    O0A  447   1.446   4.356   8.134
    1STR    O0B  448   1.582   4.275   8.299
    1STR    C0C  449   1.704   4.324   8.236
    1STR    C0D  450   1.731   4.466   8.286
    1STR    C0E  451   1.825   4.230   8.262
    1STR    O0F  452   1.948   4.282   8.207
    1STR    C0G  453   2.064   4.198   8.214
    1STR    C0H  454   2.056   4.094   8.101
    1STR    C0I  455   2.195   4.281   8.200
    1STR    O0J  456   2.314   4.205   8.232
    1STR    C0K  457   2.441   4.268   8.208
    1STR    C0M  458   2.456   4.395   8.293
    1STR    C0N  459   2.558   4.170   8.240
    1STR    O0O  460   2.685   4.225   8.202
    1STR    C0P  461   2.801   4.196   8.267
    1STR    O0Q  462   2.812   4.124   8.365
    1STR    N0R  463   2.901   4.260   8.206
    1STR    C0S  464   3.038   4.278   8.230
    1STR    C0T  465   3.103   4.363   8.139
    1STR    C0U  466   3.237   4.400   8.157
    1STR    C0V  467   3.311   4.353   8.267
    1STR    C0W  468   3.448   4.415   8.288
    1STR    C0X  469   3.254   4.258   8.356
    1STR    N0Y  470   3.329   4.206   8.464
    1STR   BCK2  471   3.456   4.161   8.463
    1STR    O10  472   3.522   4.143   8.361
    1STR    C13  473   3.115   4.224   8.338
    1STR    C14  474   1.170   4.395   8.221
    1STR    C15  475   1.033   4.414   8.199
    1STR    C16  476   0.937   4.333   8.262
    1STR    C17  477   0.792   4.353   8.221
    1STR    H1B  478   0.908   4.049   8.412
    1STR    H1C  479   1.152   4.138   8.442
    1STR    H1D  480   1.386   4.224   8.409
    1STR    H1E  481   1.689   4.328   8.127
    1STR    H1F  482   1.746   4.469   8.394
    1STR    H1G  483   1.819   4.509   8.238
    1STR    H1H  484   1.647   4.533   8.262
    1STR    H1I  485   1.803   4.133   8.219
    1STR    H1J  486   1.837   4.215   8.369
    1STR    H1K  487   2.067   4.148   8.311
    1STR    H1M  488   2.045   4.142   8.004
    1STR    H1N  489   1.971   4.026   8.113
    1STR    H1O  490   2.146   4.032   8.097
    1STR    H1P  491   2.202   4.323   8.099
    1STR    H1Q  492   2.187   4.367   8.268
    1STR    H1R  493   2.447   4.294   8.102
    1STR    H1S  494   2.556   4.437   8.283
    1STR    H1T  495   2.440   4.373   8.399
    1STR    H1U  496   2.386   4.473   8.264
    1STR    H1V  497   2.544   4.076   8.185
    1STR    H1W  498   2.558   4.143   8.346
    1STR    H1X  499   2.863   4.308   8.126
    1STR    H1Y  500   3.050   4.403   8.054
    1STR    H1Z  501   3.282   4.469   8.087
    1STR    H20  502   3.474   4.419   8.394
    1STR    H21  503   3.524   4.358   8.235
    1STR    H22  504   3.451   4.518   8.251
    1STR    H23  505   3.281   4.199   8.553
    1STR    H27  506   3.067   4.156   8.407
    1STR    H28  507   1.238   4.462   8.169
    1STR    H29  508   1.002   4.492   8.130
    1STR    H2A  509   0.738   4.258   8.220
    1STR    H2B  510   0.785   4.395   8.121
    1STR    H2C  511   0.742   4.421   8.290
    1STR   BCK1  512   0.771   4.113  13.024
    1STR    O03  513   0.761   4.045  13.125
    1STR    N04  514   0.874   4.195  12.998
    1STR    C05  515   0.974   4.236  13.087
    1STR    C06  516   1.113   4.233  13.051
    1STR    C07  517   1.216   4.278  13.140
    1STR    N08  518   1.352   4.278  13.101
    1STR    C09  519   1.463   4.293  13.177
    1STR    O0A  520   1.462   4.301  13.299
    1STR    O0B  521   1.579   4.297  13.103
    1STR    C0C  522   1.707   4.303  13.171
    1STR    C0D  523   1.745   4.161  13.218
    1STR    C0E  524   1.819   4.365  13.084
    1STR    O0F  525   1.943   4.369  13.157
    1STR    C0G  526   2.058   4.426  13.091
    1STR    C0H  527   2.048   4.579  13.098
    1STR    C0I  528   2.187   4.376  13.162
    1STR    O0J  529   2.308   4.412  13.092
    1STR    C0K  530   2.431   4.378  13.158
    1STR    C0M  531   2.446   4.225  13.169
    1STR    C0N  532   2.555   4.436  13.085
    1STR    O0O  533   2.671   4.420  13.168
    1STR    C0P  534   2.794   4.389  13.119
    1STR    O0Q  535   2.822   4.370  13.001
    1STR    N0R  536   2.879   4.384  13.222
    1STR    C0S  537   3.016   4.360  13.237
    1STR    C0T  538   3.065   4.373  13.368
    1STR    C0U  539   3.201   4.359  13.396
    1STR    C0V  540   3.294   4.331  13.294
    1STR    C0W  541   3.440   4.338  13.333
    1STR    C0X  542   3.249   4.309  13.160
    1STR    N0Y  543   3.334   4.288  13.050
    1STR   BCK2  544   3.452   4.231  13.019
    1STR    O10  545   3.496   4.247  12.905
    1STR    C13  546   3.109   4.326  13.134
    1STR    C14  547   1.175   4.327  13.266
    1STR    C15  548   1.040   4.334  13.302
    1STR    C16  549   0.939   4.292  13.213
    1STR    C17  550   0.795   4.314  13.255
    1STR    H1B  551   0.876   4.234  12.905
    1STR    H1C  552   1.140   4.194  12.955
    1STR    H1D  553   1.375   4.263  13.004
    1STR    H1E  554   1.697   4.366  13.259
    1STR    H1F  555   1.757   4.093  13.134
    1STR    H1G  556   1.839   4.163  13.274
    1STR    H1H  557   1.670   4.120  13.285
    1STR    H1I  558   1.790   4.466  13.054
    1STR    H1J  559   1.832   4.307  12.992
    1STR    H1K  560   2.061   4.393  12.988
    1STR    H1M  561   2.038   4.614  13.201
    1STR    H1N  562   1.962   4.617  13.042
    1STR    H1O  563   2.137   4.626  13.056
    1STR    H1P  564   2.189   4.414  13.265
    1STR    H1Q  565   2.180   4.268  13.170
    1STR    H1R  566   2.429   4.421  13.259
    1STR    H1S  567   2.544   4.198  13.209
    1STR    H1T  568   2.437   4.178  13.071
    1STR    H1U  569   2.372   4.180  13.236
    1STR    H1V  570   2.541   4.542  13.066
    1STR    H1W  571   2.569   4.388  12.988
    1STR    H1X  572   2.827   4.406  13.305
    1STR    H1Y  573   2.998   4.399  13.449
    1STR    H1Z  574   3.235   4.375  13.497
    1STR    H20  575   3.475   4.239  13.362
    1STR    H21  576   3.500   4.378  13.252
    1STR    H22  577   3.455   4.404  13.418
    1STR    H23  578   3.296   4.331  12.966
    1STR    H27  579   3.071   4.316  13.034
    1STR    H28  580   1.245   4.364  13.339
    1STR    H29  581   1.014   4.374  13.399
    1STR    H2A  582   0.733   4.343  13.171
    1STR    H2B  583   0.787   4.394  13.329
    1STR    H2C  584   0.754   4.224  13.301
    1STR   BCK1  585   0.751   8.416  17.249
    1STR    O03  586   0.717   8.480  17.151
    1STR    N04  587   0.874   8.362  17.266
    1STR    C05  588   0.976   8.340  17.172
    1STR    C06  589   1.113   8.365  17.205
    1STR    C07  590   1.220   8.332  17.116
    1STR    N08  591   1.355   8.352  17.150
    1STR    C09  592   1.464   8.286  17.104
    1STR    O0A  593   1.458   8.188  17.030
    1STR    O0B  594   1.582   8.338  17.149
    1STR    C0C  595   1.708   8.291  17.094
    1STR    C0D  596   1.734   8.363  16.961
    1STR    C0E  597   1.827   8.310  17.192
    1STR    O0F  598   1.949   8.257  17.137
    1STR    C0G  599   2.065   8.258  17.222
    1STR    C0H  600   2.056   8.140  17.320
    1STR    C0I  601   2.195   8.248  17.137
    1STR    O0J  602   2.315   8.262  17.217
    1STR    C0K  603   2.441   8.244  17.151
    1STR    C0M  604   2.462   8.352  17.043
    1STR    C0N  605   2.559   8.249  17.253
    1STR    O0O  606   2.683   8.213  17.190
    1STR    C0P  607   2.803   8.254  17.240
    1STR    O0Q  608   2.818   8.321  17.342
    1STR    N0R  609   2.901   8.209  17.162
    1STR    C0S  610   3.040   8.229  17.158
    1STR    C0T  611   3.109   8.161  17.055
    1STR    C0U  612   3.246   8.186  17.032
    1STR    C0V  613   3.318   8.278  17.110
    1STR    C0W  614   3.457   8.316  17.061
    1STR    C0X  615   3.255   8.341  17.221
    1STR    N0Y  616   3.318   8.440  17.299
    1STR   BCK2  617   3.439   8.464  17.352
    1STR    O10  618   3.457   8.572  17.407
    1STR    C13  619   3.116   8.317  17.241
    1STR    C14  620   1.185   8.280  16.989
    1STR    C15  621   1.051   8.253  16.956
    1STR    C16  622   0.947   8.279  17.047
    1STR    C17  623   0.807   8.232  17.008
    1STR    H1B  624   0.891   8.330  17.360
    1STR    H1C  625   1.136   8.408  17.301
    1STR    H1D  626   1.378   8.425  17.216
    1STR    H1E  627   1.699   8.184  17.074
    1STR    H1F  628   1.743   8.471  16.975
    1STR    H1G  629   1.826   8.328  16.915
    1STR    H1H  630   1.653   8.345  16.890
    1STR    H1I  631   1.803   8.259  17.286
    1STR    H1J  632   1.840   8.415  17.215
    1STR    H1K  633   2.069   8.352  17.277
    1STR    H1M  634   2.045   8.046  17.266
    1STR    H1N  635   1.971   8.149  17.387
    1STR    H1O  636   2.146   8.133  17.381
    1STR    H1P  637   2.197   8.154  17.082
    1STR    H1Q  638   2.192   8.328  17.062
    1STR    H1R  639   2.442   8.146  17.103
    1STR    H1S  640   2.561   8.346  17.000
    1STR    H1T  641   2.451   8.452  17.086
    1STR    H1U  642   2.391   8.343  16.961
    1STR    H1V  643   2.541   8.179  17.335
    1STR    H1W  644   2.566   8.348  17.298
    1STR    H1X  645   2.861   8.155  17.088
    1STR    H1Y  646   3.058   8.093  16.990
    1STR    H1Z  647   3.294   8.137  16.948
    1STR    H20  648   3.481   8.419  17.086
    1STR    H21  649   3.532   8.249  17.103
    1STR    H22  650   3.463   8.308  16.952
    1STR    H23  651   3.256   8.516  17.323
    1STR    H27  652   3.064   8.369  17.321
    1STR    H28  653   1.260   8.257  16.915
    1STR    H29  654   1.029   8.208  16.860
    1STR    H2A  655   0.753   8.196  17.095
    1STR    H2B  656   0.812   8.151  16.936
    1STR    H2C  657   0.751   8.314  16.964
    1STR   BCK1  658   0.786   8.595   4.205
    1STR    O03  659   0.749   8.670   4.294
    1STR    N04  660   0.899   8.610   4.133
    1STR    C05  661   0.988   8.719   4.127
    1STR    C06  662   1.129   8.696   4.124
    1STR    C07  663   1.223   8.802   4.110
    1STR    N08  664   1.362   8.776   4.102
    1STR    C09  665   1.468   8.860   4.102
    1STR    O0A  666   1.460   8.981   4.116
    1STR    O0B  667   1.587   8.795   4.086
    1STR    C0C  668   1.711   8.869   4.087
    1STR    C0D  669   1.747   8.907   4.232
    1STR    C0E  670   1.828   8.792   4.019
    1STR    O0F  671   1.952   8.866   4.028
    1STR    C0G  672   2.067   8.807   3.965
    1STR    C0H  673   2.059   8.829   3.814
    1STR    C0I  674   2.197   8.871   4.024
    1STR    O0J  675   2.316   8.797   3.989
    1STR    C0K  676   2.442   8.856   4.027
    1STR    C0M  677   2.454   8.865   4.180
    1STR    C0N  678   2.561   8.773   3.970
    1STR    O0O  679   2.686   8.843   3.985
    1STR    C0P  680   2.798   8.784   4.035
    1STR    O0Q  681   2.805   8.675   4.090
    1STR    N0R  682   2.901   8.867   4.017
    1STR    C0S  683   3.038   8.867   4.049
    1STR    C0T  684   3.107   8.984   4.012
    1STR    C0U  685   3.242   9.002   4.045
    1STR    C0V  686   3.313   8.904   4.116
    1STR    C0W  687   3.453   8.940   4.161
    1STR    C0X  688   3.250   8.780   4.148
    1STR    N0Y  689   3.322   8.682   4.219
    1STR   BCK2  690   3.446   8.635   4.195
    1STR    O10  691   3.507   8.654   4.090
    1STR    C13  692   3.111   8.764   4.116
    1STR    C14  693   1.171   8.933   4.099
    1STR    C15  694   1.033   8.957   4.098
    1STR    C16  695   0.941   8.852   4.109
    1STR    C17  696   0.794   8.886   4.094
    1STR    H1B  697   0.920   8.533   4.071
    1STR    H1C  698   1.165   8.595   4.134
    1STR    H1D  699   1.391   8.680   4.094
    1STR    H1E  700   1.696   8.962   4.030
    1STR    H1F  701   1.763   8.818   4.293
    1STR    H1G  702   1.838   8.967   4.235
    1STR    H1H  703   1.669   8.966   4.278
    1STR    H1I  704   1.802   8.774   3.915
    1STR    H1J  705   1.840   8.695   4.066
    1STR    H1K  706   2.070   8.700   3.988
    1STR    H1M  707   2.048   8.935   3.789
    1STR    H1N  708   1.976   8.776   3.768
    1STR    H1O  709   2.150   8.793   3.764
    1STR    H1P  710   2.204   8.975   3.990
    1STR    H1Q  711   2.186   8.874   4.132
    1STR    H1R  712   2.448   8.956   3.984
    1STR    H1S  713   2.553   8.900   4.209
    1STR    H1T  714   2.439   8.767   4.225
    1STR    H1U  715   2.382   8.934   4.223
    1STR    H1V  716   2.547   8.757   3.863
    1STR    H1W  717   2.565   8.674   4.015
    1STR    H1X  718   2.867   8.947   3.966
    1STR    H1Y  719   3.056   9.063   3.958
    1STR    H1Z  720   3.290   9.095   4.018
    1STR    H20  721   3.476   8.895   4.258
    1STR    H21  722   3.526   8.905   4.088
    1STR    H22  723   3.465   9.047   4.172
    1STR    H23  724   3.274   8.640   4.298
    1STR    H27  725   3.059   8.673   4.142
    1STR    H28  726   1.235   9.020   4.086
    1STR    H29  727   0.998   9.059   4.086
    1STR    H2A  728   0.740   8.807   4.042
    1STR    H2B  729   0.781   8.977   4.035
    1STR    H2C  730   0.748   8.902   4.191
    1STR   BCK1  731   0.755   8.458   8.562
    1STR    O03  732   0.712   8.456   8.448
    1STR    N04  733   0.887   8.437   8.581
    1STR    C05  734   0.976   8.412   8.687
    1STR    C06  735   1.111   8.453   8.671
    1STR    C07  736   1.214   8.418   8.764
    1STR    N08  737   1.349   8.452   8.741
    1STR    C09  738   1.460   8.390   8.785
    1STR    O0A  739   1.459   8.285   8.850
    1STR    O0B  740   1.576   8.452   8.747
    1STR    C0C  741   1.704   8.396   8.783
    1STR    C0D  742   1.737   8.279   8.689
    1STR    C0E  743   1.818   8.502   8.781
    1STR    O0F  744   1.943   8.443   8.822
    1STR    C0G  745   2.057   8.530   8.829
    1STR    C0H  746   2.046   8.620   8.953
    1STR    C0I  747   2.187   8.446   8.835
    1STR    O0J  748   2.306   8.528   8.826
    1STR    C0K  749   2.431   8.460   8.845
    1STR    C0M  750   2.459   8.365   8.728
    1STR    C0N  751   2.547   8.562   8.859
    1STR    O0O  752   2.666   8.497   8.907
    1STR    C0P  753   2.788   8.519   8.853
    1STR    O0Q  754   2.812   8.594   8.759
    1STR    N0R  755   2.877   8.441   8.915
    1STR    C0S  756   3.011   8.411   8.889
    1STR    C0T  757   3.058   8.289   8.942
    1STR    C0U  758   3.186   8.241   8.909
    1STR    C0V  759   3.272   8.314   8.825
    1STR    C0W  760   3.396   8.242   8.775
    1STR    C0X  761   3.235   8.445   8.783
    1STR    N0Y  762   3.316   8.525   8.702
    1STR   BCK2  763   3.447   8.556   8.698
    1STR    O10  764   3.489   8.624   8.604
    1STR    C13  765   3.102   8.489   8.812
    1STR    C14  766   1.175   8.346   8.879
    1STR    C15  767   1.043   8.303   8.896
    1STR    C16  768   0.944   8.331   8.800
    1STR    C17  769   0.810   8.262   8.819
    1STR    H1B  770   0.931   8.437   8.490
    1STR    H1C  771   1.139   8.510   8.584
    1STR    H1D  772   1.370   8.531   8.682
    1STR    H1E  773   1.697   8.357   8.885
    1STR    H1F  774   1.744   8.311   8.585
    1STR    H1G  775   1.832   8.233   8.716
    1STR    H1H  776   1.661   8.201   8.694
    1STR    H1I  777   1.790   8.583   8.849
    1STR    H1J  778   1.828   8.544   8.682
    1STR    H1K  779   2.061   8.592   8.739
    1STR    H1M  780   2.034   8.560   9.044
    1STR    H1N  781   1.962   8.689   8.947
    1STR    H1O  782   2.136   8.680   8.965
    1STR    H1P  783   2.188   8.387   8.926
    1STR    H1Q  784   2.186   8.375   8.752
    1STR    H1R  785   2.426   8.403   8.939
    1STR    H1S  786   2.559   8.321   8.737
    1STR    H1T  787   2.456   8.417   8.633
    1STR    H1U  788   2.389   8.282   8.724
    1STR    H1V  789   2.521   8.639   8.931
    1STR    H1W  790   2.565   8.614   8.764
    1STR    H1X  791   2.833   8.392   8.991
    1STR    H1Y  792   2.994   8.227   9.003
    1STR    H1Z  793   3.216   8.143   8.945
    1STR    H20  794   3.432   8.285   8.682
    1STR    H21  795   3.475   8.246   8.850
    1STR    H22  796   3.374   8.137   8.755
    1STR    H23  797   3.266   8.577   8.632
    1STR    H27  798   3.068   8.585   8.774
    1STR    H28  799   1.247   8.319   8.955
    1STR    H29  800   1.019   8.244   8.983
    1STR    H2A  801   0.744   8.324   8.879
    1STR    H2B  802   0.823   8.168   8.873
    1STR    H2C  803   0.764   8.237   8.724
    1STR   BCK1  804   0.765   8.475  12.830
    1STR    O03  805   0.726   8.590  12.813
    1STR    N04  806   0.885   8.427  12.790
    1STR    C05  807   0.979   8.483  12.702
    1STR    C06  808   1.119   8.476  12.731
    1STR    C07  809   1.219   8.520  12.639
    1STR    N08  810   1.357   8.509  12.668
    1STR    C09  811   1.462   8.507  12.583
    1STR    O0A  812   1.452   8.509  12.461
    1STR    O0B  813   1.583   8.502  12.648
    1STR    C0C  814   1.706   8.514  12.573
    1STR    C0D  815   1.733   8.663  12.545
    1STR    C0E  816   1.826   8.447  12.646
    1STR    O0F  817   1.950   8.462  12.572
    1STR    C0G  818   2.065   8.394  12.625
    1STR    C0H  819   2.056   8.245  12.587
    1STR    C0I  820   2.196   8.456  12.568
    1STR    O0J  821   2.313   8.407  12.636
    1STR    C0K  822   2.441   8.445  12.582
    1STR    C0M  823   2.460   8.597  12.590
    1STR    C0N  824   2.556   8.373  12.659
    1STR    O0O  825   2.684   8.400  12.598
    1STR    C0P  826   2.799   8.404  12.670
    1STR    O0Q  827   2.810   8.390  12.791
    1STR    N0R  828   2.900   8.429  12.586
    1STR    C0S  829   3.037   8.455  12.599
    1STR    C0T  830   3.102   8.494  12.480
    1STR    C0U  831   3.236   8.533  12.480
    1STR    C0V  832   3.311   8.532  12.599
    1STR    C0W  833   3.452   8.590  12.592
    1STR    C0X  834   3.254   8.483  12.720
    1STR    N0Y  835   3.330   8.478  12.838
    1STR   BCK2  836   3.453   8.424  12.853
    1STR    O10  837   3.508   8.356  12.767
    1STR    C13  838   3.115   8.448  12.719
    1STR    C14  839   1.174   8.577  12.518
    1STR    C15  840   1.037   8.583  12.486
    1STR    C16  841   0.940   8.534  12.575
    1STR    C17  842   0.796   8.531  12.527
    1STR    H1B  843   0.905   8.336  12.826
    1STR    H1C  844   1.150   8.434  12.826
    1STR    H1D  845   1.384   8.500  12.764
    1STR    H1E  846   1.694   8.463  12.477
    1STR    H1F  847   1.746   8.719  12.638
    1STR    H1G  848   1.824   8.676  12.486
    1STR    H1H  849   1.651   8.708  12.489
    1STR    H1I  850   1.803   8.342  12.660
    1STR    H1J  851   1.838   8.491  12.745
    1STR    H1K  852   2.067   8.405  12.733
    1STR    H1M  853   2.045   8.233  12.479
    1STR    H1N  854   1.971   8.195  12.634
    1STR    H1O  855   2.146   8.192  12.617
    1STR    H1P  856   2.202   8.437  12.461
    1STR    H1Q  857   2.189   8.564  12.580
    1STR    H1R  858   2.445   8.413  12.478
    1STR    H1S  859   2.561   8.626  12.558
    1STR    H1T  860   2.447   8.633  12.692
    1STR    H1U  861   2.391   8.651  12.526
    1STR    H1V  862   2.540   8.265  12.658
    1STR    H1W  863   2.556   8.403  12.764
    1STR    H1X  864   2.863   8.432  12.492
    1STR    H1Y  865   3.048   8.498  12.386
    1STR    H1Z  866   3.282   8.566  12.388
    1STR    H20  867   3.480   8.637  12.686
    1STR    H21  868   3.524   8.512  12.568
    1STR    H22  869   3.459   8.667  12.515
    1STR    H23  870   3.290   8.520  12.920
    1STR    H27  871   3.067   8.415  12.809
    1STR    H28  872   1.243   8.616  12.445
    1STR    H29  873   1.007   8.624  12.391
    1STR    H2A  874   0.743   8.443  12.563
    1STR    H2B  875   0.791   8.529  12.418
    1STR    H2C  876   0.743   8.620  12.561
    1STR   BCK1  877   0.779  12.903  17.373
    1STR    O03  878   0.757  12.897   0.053
    1STR    N04  879   0.886  12.963  17.318
    1STR    C05  880   0.980  13.047  17.380
    1STR    C06  881   1.120  13.030  17.357
    1STR    C07  882   1.218  13.117  17.414
    1STR    N08  883   1.356  13.101  17.386
    1STR    C09  884   1.465  13.165  17.434
    1STR    O0A  885   1.461  13.253   0.080
    1STR    O0B  886   1.582  13.122  17.379
    1STR    C0C  887   1.709  13.167  17.434
    1STR    C0D  888   1.744  13.076   0.113
    1STR    C0E  889   1.824  13.170  17.329
    1STR    O0F  890   1.946  13.217  17.390
    1STR    C0G  891   2.061  13.228  17.305
    1STR    C0H  892   2.053  13.360  17.228
    1STR    C0I  893   2.190  13.222  17.392
    1STR    O0J  894   2.311  13.217  17.315
    1STR    C0K  895   2.435  13.220  17.390
    1STR    C0M  896   2.447  13.097   0.041
    1STR    C0N  897   2.559  13.226  17.297
    1STR    O0O  898   2.676  13.256  17.374
    1STR    C0P  899   2.798  13.206  17.345
    1STR    O0Q  900   2.825  13.131  17.252
    1STR    N0R  901   2.887  13.255  17.432
    1STR    C0S  902   3.025  13.237   0.012
    1STR    C0T  903   3.086  13.331   0.097
    1STR    C0U  904   3.223  13.323   0.127
    1STR    C0V  905   3.303  13.221   0.073
    1STR    C0W  906   3.450  13.227   0.108
    1STR    C0X  907   3.246  13.122  17.428
    1STR    N0Y  908   3.316  13.019  17.360
    1STR   BCK2  909   3.430  12.947  17.359
    1STR    O10  910   3.446  12.871  17.265
    1STR    C13  911   3.106  13.134  17.398
    1STR    C14  912   1.171  13.221   0.057
    1STR    C15  913   1.034  13.241   0.079
    1STR    C16  914   0.938  13.157   0.019
    1STR    C17  915   0.791  13.193   0.039
    1STR    H1B  916   0.896  12.945  17.219
    1STR    H1C  917   1.152  12.948  17.294
    1STR    H1D  918   1.382  13.028  17.321
    1STR    H1E  919   1.697  13.269   0.030
    1STR    H1F  920   1.756  12.972   0.081
    1STR    H1G  921   1.836  13.108   0.160
    1STR    H1H  922   1.666  13.078   0.189
    1STR    H1I  923   1.795  13.235  17.247
    1STR    H1J  924   1.839  13.070  17.288
    1STR    H1K  925   2.064  13.144  17.236
    1STR    H1M  926   2.044  13.445  17.296
    1STR    H1N  927   1.967  13.363  17.161
    1STR    H1O  928   2.142  13.375  17.167
    1STR    H1P  929   2.192  13.307   0.021
    1STR    H1Q  930   2.182  13.132   0.014
    1STR    H1R  931   2.435  13.311   0.011
    1STR    H1S  932   2.545  13.093   0.088
    1STR    H1T  933   2.435  13.005  17.424
    1STR    H1U  934   2.374  13.097   0.121
    1STR    H1V  935   2.547  13.305  17.222
    1STR    H1W  936   2.571  13.133  17.242
    1STR    H1X  937   2.840  13.317   0.055
    1STR    H1Y  938   3.029  13.412   0.140
    1STR    H1Z  939   3.266  13.397   0.191
    1STR    H20  940   3.472  13.151   0.183
    1STR    H21  941   3.511  13.213   0.019
    1STR    H22  942   3.478  13.323   0.152
    1STR    H23  943   3.261  12.981  17.285
    1STR    H27  944   3.058  13.062  17.334
    1STR    H28  945   1.237  13.291   0.106
    1STR    H29  946   1.002  13.323   0.141
    1STR    H2A  947   0.732  13.170  17.390
    1STR    H2B  948   0.779  13.299   0.058
    1STR    H2C  949   0.750  13.139   0.123
    1STR   BCK1  950   0.748  12.783   4.216
    1STR    O03  951   0.726  12.788   4.096
    1STR    N04  952   0.866  12.747   4.270
    1STR    C05  953   0.972  12.679   4.208
    1STR    C06  954   1.108  12.721   4.226
    1STR    C07  955   1.218  12.646   4.172
    1STR    N08  956   1.352  12.685   4.194
    1STR    C09  957   1.465  12.610   4.185
    1STR    O0A  958   1.465  12.490   4.160
    1STR    O0B  959   1.580  12.682   4.205
    1STR    C0C  960   1.708  12.617   4.185
    1STR    C0D  961   1.739  12.612   4.035
    1STR    C0E  962   1.824  12.686   4.263
    1STR    O0F  963   1.948  12.616   4.241
    1STR    C0G  964   2.063  12.661   4.315
    1STR    C0H  965   2.051  12.614   4.460
    1STR    C0I  966   2.192  12.604   4.250
    1STR    O0J  967   2.312  12.661   4.308
    1STR    C0K  968   2.437  12.605   4.266
    1STR    C0M  969   2.463  12.639   4.118
    1STR    C0N  970   2.554  12.658   4.353
    1STR    O0O  971   2.676  12.588   4.324
    1STR    C0P  972   2.796  12.650   4.323
    1STR    O0Q  973   2.815  12.770   4.340
    1STR    N0R  974   2.892  12.560   4.296
    1STR    C0S  975   3.030  12.572   4.271
    1STR    C0T  976   3.091  12.460   4.210
    1STR    C0U  977   3.225  12.466   4.168
    1STR    C0V  978   3.303  12.581   4.187
    1STR    C0W  979   3.438  12.586   4.118
    1STR    C0X  980   3.249  12.691   4.260
    1STR    N0Y  981   3.319  12.811   4.282
    1STR   BCK2  982   3.444  12.846   4.318
    1STR    O10  983   3.471  12.966   4.320
    1STR    C13  984   3.111  12.686   4.297
    1STR    C14  985   1.186  12.532   4.095
    1STR    C15  986   1.054  12.488   4.080
    1STR    C16  987   0.947  12.558   4.138
    1STR    C17  988   0.809  12.496   4.130
    1STR    H1B  989   0.873  12.763   4.370
    1STR    H1C  990   1.128  12.810   4.283
    1STR    H1D  991   1.370  12.780   4.223
    1STR    H1E  992   1.701  12.515   4.223
    1STR    H1F  993   1.746  12.712   3.992
    1STR    H1G  994   1.832  12.560   4.016
    1STR    H1H  995   1.661  12.558   3.981
    1STR    H1I  996   1.798  12.686   4.369
    1STR    H1J  997   1.834  12.790   4.232
    1STR    H1K  998   2.068  12.770   4.311
    1STR    H1M  999   2.038  12.506   4.466
    1STR    H1N 1000   1.968  12.661   4.513
    1STR    H1O 1001   2.142  12.638   4.516
    1STR    H1P 1002   2.193  12.496   4.259
    1STR    H1Q 1003   2.190  12.627   4.143
    1STR    H1R 1004   2.433  12.496   4.278
    1STR    H1S 1005   2.562  12.605   4.087
    1STR    H1T 1006   2.458  12.746   4.101
    1STR    H1U 1007   2.392  12.590   4.051
    1STR    H1V 1008   2.531  12.644   4.459
    1STR    H1W 1009   2.566  12.766   4.339
    1STR    H1X 1010   2.852  12.469   4.289
    1STR    H1Y 1011   3.035  12.370   4.190
    1STR    H1Z 1012   3.267  12.381   4.116
    1STR    H20 1013   3.468  12.688   4.096
    1STR    H21 1014   3.514  12.538   4.179
    1STR    H22 1015   3.434  12.533   4.023
    1STR    H23 1016   3.262  12.893   4.274
    1STR    H27 1017   3.066  12.770   4.347
    1STR    H28 1018   1.263  12.473   4.047
    1STR    H29 1019   1.035  12.397   4.025
    1STR    H2A 1020   0.753  12.511   4.222
    1STR    H2B 1021   0.815  12.388   4.114
    1STR    H2C 1022   0.753  12.539   4.047
    1STR   BCK1 1023   0.767  12.927   8.494
    1STR    O03 1024   0.721  13.030   8.541
    1STR    N04 1025   0.886  12.916   8.432
    1STR    C05 1026   0.977  13.016   8.390
    1STR    C06 1027   1.119  12.994   8.401
    1STR    C07 1028   1.215  13.087   8.352
    1STR    N08 1029   1.355  13.061   8.360
    1STR    C09 1030   1.459  13.123   8.300
    1STR    O0A 1031   1.448  13.216   8.221
    1STR    O0B 1032   1.581  13.071   8.336
    1STR    C0C 1033   1.704  13.135   8.294
    1STR    C0D 1034   1.733  13.251   8.392
    1STR    C0E 1035   1.825  13.038   8.286
    1STR    O0F 1036   1.947  13.106   8.249
    1STR    C0G 1037   2.064  13.025   8.229
    1STR    C0H 1038   2.057  12.964   8.088
    1STR    C0I 1039   2.194  13.109   8.246
    1STR    O0J 1040   2.313  13.027   8.250
    1STR    C0K 1041   2.440  13.095   8.252
    1STR    C0M 1042   2.452  13.185   8.376
    1STR    C0N 1043   2.559  12.993   8.250
    1STR    O0O 1044   2.684  13.061   8.231
    1STR    C0P 1045   2.800  13.018   8.290
    1STR    O0Q 1046   2.810  12.925   8.369
    1STR    N0R 1047   2.901  13.094   8.247
    1STR    C0S 1048   3.038  13.103   8.275
    1STR    C0T 1049   3.106  13.201   8.200
    1STR    C0U 1050   3.241  13.231   8.225
    1STR    C0V 1051   3.312  13.163   8.326
    1STR    C0W 1052   3.452  13.215   8.357
    1STR    C0X 1053   3.251  13.056   8.397
    1STR    N0Y 1054   3.324  12.987   8.496
    1STR   BCK2 1055   3.448  12.936   8.487
    1STR    O10 1056   3.510  12.925   8.382
    1STR    C13 1057   3.112  13.030   8.373
    1STR    C14 1058   1.166  13.207   8.295
    1STR    C15 1059   1.028  13.228   8.280
    1STR    C16 1060   0.934  13.133   8.322
    1STR    C17 1061   0.788  13.160   8.288
    1STR    H1B 1062   0.915  12.821   8.417
    1STR    H1C 1063   1.153  12.903   8.448
    1STR    H1D 1064   1.385  12.985   8.419
    1STR    H1E 1065   1.690  13.177   8.195
    1STR    H1F 1066   1.748  13.214   8.494
    1STR    H1G 1067   1.823  13.305   8.363
    1STR    H1H 1068   1.651  13.322   8.394
    1STR    H1I 1069   1.802  12.960   8.213
    1STR    H1J 1070   1.839  12.988   8.382
    1STR    H1K 1071   2.066  12.945   8.304
    1STR    H1M 1072   2.048  13.041   8.012
    1STR    H1N 1073   1.972  12.896   8.077
    1STR    H1O 1074   2.147  12.907   8.066
    1STR    H1P 1075   2.201  13.182   8.165
    1STR    H1Q 1076   2.185  13.165   8.339
    1STR    H1R 1077   2.447  13.156   8.162
    1STR    H1S 1078   2.552  13.228   8.383
    1STR    H1T 1079   2.435  13.128   8.467
    1STR    H1U 1080   2.382  13.268   8.374
    1STR    H1V 1081   2.546  12.923   8.167
    1STR    H1W 1082   2.559  12.934   8.341
    1STR    H1X 1083   2.865  13.158   8.179
    1STR    H1Y 1084   3.056  13.257   8.123
    1STR    H1Z 1085   3.289  13.308   8.168
    1STR    H20 1086   3.475  13.203   8.463
    1STR    H21 1087   3.526  13.161   8.299
    1STR    H22 1088   3.461  13.321   8.334
    1STR    H23 1089   3.278  12.972   8.585
    1STR    H27 1090   3.061  12.953   8.429
    1STR    H28 1091   1.231  13.284   8.259
    1STR    H29 1092   0.995  13.319   8.232
    1STR    H2A 1093   0.735  13.067   8.268
    1STR    H2B 1094   0.780  13.221   8.198
    1STR    H2C 1095   0.739  13.212   8.369
    1STR   BCK1 1096   0.748  12.809  13.005
    1STR    O03 1097   0.714  12.725  13.087
    1STR    N04 1098   0.866  12.875  13.005
    1STR    C05 1099   0.967  12.880  13.104
    1STR    C06 1100   1.105  12.885  13.066
    1STR    C07 1101   1.210  12.896  13.162
    1STR    N08 1102   1.346  12.907  13.122
    1STR    C09 1103   1.459  12.905  13.196
    1STR    O0A 1104   1.462  12.885  13.317
    1STR    O0B 1105   1.573  12.927  13.122
    1STR    C0C 1106   1.703  12.912  13.185
    1STR    C0D 1107   1.742  12.763  13.179
    1STR    C0E 1108   1.813  13.001  13.121
    1STR    O0F 1109   1.937  12.984  13.193
    1STR    C0G 1110   2.050  13.061  13.149
    1STR    C0H 1111   2.039  13.203  13.208
    1STR    C0I 1112   2.181  12.992  13.197
    1STR    O0J 1113   2.300  13.056  13.147
    1STR    C0K 1114   2.424  13.005  13.197
    1STR    C0M 1115   2.445  12.858  13.155
    1STR    C0N 1116   2.546  13.089  13.149
    1STR    O0O 1117   2.660  13.049  13.227
    1STR    C0P 1118   2.785  13.048  13.178
    1STR    O0Q 1119   2.821  13.092  13.069
    1STR    N0R 1120   2.864  12.993  13.270
    1STR    C0S 1121   3.000  12.959  13.279
    1STR    C0T 1122   3.036  12.898  13.400
    1STR    C0U 1123   3.169  12.861  13.424
    1STR    C0V 1124   3.270  12.886  13.329
    1STR    C0W 1125   3.410  12.851  13.375
    1STR    C0X 1126   3.238  12.944  13.203
    1STR    N0Y 1127   3.330  12.980  13.102
    1STR   BCK2 1128   3.455  12.954  13.058
    1STR    O10 1129   3.501  13.027  12.970
    1STR    C13 1130   3.101  12.980  13.181
    1STR    C14 1131   1.173  12.900  13.298
    1STR    C15 1132   1.038  12.898  13.337
    1STR    C16 1133   0.935  12.893  13.242
    1STR    C17 1134   0.793  12.909  13.295
    1STR    H1B 1135   0.883  12.927  12.920
    1STR    H1C 1136   1.130  12.879  12.961
    1STR    H1D 1137   1.366  12.916  13.024
    1STR    H1E 1138   1.696  12.942  13.289
    1STR    H1F 1139   1.751  12.728  13.077
    1STR    H1G 1140   1.837  12.746  13.229
    1STR    H1H 1141   1.667  12.701  13.229
    1STR    H1I 1142   1.782  13.105  13.125
    1STR    H1J 1143   1.827  12.975  13.016
    1STR    H1K 1144   2.052  13.066  13.040
    1STR    H1M 1145   2.031  13.199  13.317
    1STR    H1N 1146   1.952  13.256  13.171
    1STR    H1O 1147   2.127  13.262  13.183
    1STR    H1P 1148   2.182  12.987  13.306
    1STR    H1Q 1149   2.177  12.889  13.162
    1STR    H1R 1150   2.422  13.011  13.306
    1STR    H1S 1151   2.544  12.822  13.183
    1STR    H1T 1152   2.436  12.847  13.047
    1STR    H1U 1153   2.373  12.790  13.202
    1STR    H1V 1154   2.529  13.195  13.165
    1STR    H1W 1155   2.564  13.075  13.042
    1STR    H1X 1156   2.807  12.968  13.348
    1STR    H1Y 1157   2.963  12.879  13.477
    1STR    H1Z 1158   3.193  12.815  13.518
    1STR    H20 1159   3.438  12.754  13.333
    1STR    H21 1160   3.480  12.928  13.346
    1STR    H22 1161   3.416  12.841  13.483
    1STR    H23 1162   3.292  13.047  13.038
    1STR    H27 1163   3.071  13.026  13.087
    1STR    H28 1164   1.244  12.907  13.378
    1STR    H29 1165   1.014  12.904  13.442
    1STR    H2A 1166   0.729  12.961  13.223
    1STR    H2B 1167   0.792  12.966  13.387
    1STR    H2C 1168   0.751  12.811  13.316
    1STR   BCK1 1169   5.120  17.147  17.225
    1STR    O03 1170   5.081  17.242  17.157
    1STR    N04 1171   5.241  17.090  17.215
    1STR    C05 1172   5.338  17.102  17.114
    1STR    C06 1173   5.477  17.113  17.148
    1STR    C07 1174   5.579  17.112  17.048
    1STR    N08 1175   5.716  17.117  17.083
    1STR    C09 1176   5.824  17.077  17.012
    1STR    O0A 1177   5.817  17.022  16.902
    1STR    O0B 1178   5.943  17.104  17.074
    1STR    C0C 1179   6.068  17.077  17.007
    1STR    C0D 1180   6.096  17.192  16.907
    1STR    C0E 1181   6.185  17.059  17.106
    1STR    O0F 1182   6.309  17.032  17.037
    1STR    C0G 1183   6.423  17.002  17.118
    1STR    C0H 1184   6.413  16.856  17.167
    1STR    C0I 1185   6.554  17.022  17.036
    1STR    O0J 1186   6.672  17.013  17.119
    1STR    C0K 1187   6.799  17.018  17.051
    1STR    C0M 1188   6.818  17.155  16.983
    1STR    C0N 1189   6.916  16.991  17.150
    1STR    O0O 1190   7.040  16.987  17.078
    1STR    C0P 1191   7.159  17.011  17.138
    1STR    O0Q 1192   7.176  17.035  17.257
    1STR    N0R 1193   7.254  17.008  17.045
    1STR    C0S 1194   7.393  17.032  17.044
    1STR    C0T 1195   7.451  17.038  16.916
    1STR    C0U 1196   7.589  17.058  16.901
    1STR    C0V 1197   7.673  17.071  17.012
    1STR    C0W 1198   7.823  17.082  16.984
    1STR    C0X 1199   7.619  17.068  17.144
    1STR    N0Y 1200   7.703  17.067  17.256
    1STR   BCK2 1201   7.809  17.146  17.285
    1STR    O10 1202   7.834  17.253  17.229
    1STR    C13 1203   7.478  17.047  17.158
    1STR    C14 1204   5.539  17.107  16.913
    1STR    C15 1205   5.403  17.095  16.879
    1STR    C16 1206   5.303  17.089  16.977
    1STR    C17 1207   5.161  17.060  16.932
    1STR    H1B 1208   5.261  17.026  17.290
    1STR    H1C 1209   5.505  17.119  17.252
    1STR    H1D 1210   5.741  17.154  17.174
    1STR    H1E 1211   6.058  16.984  16.951
    1STR    H1F 1212   6.107  17.287  16.958
    1STR    H1G 1213   6.189  17.173  16.852
    1STR    H1H 1214   6.016  17.201  16.834
    1STR    H1I 1215   6.160  16.977  17.173
    1STR    H1J 1216   6.196  17.148  17.168
    1STR    H1K 1217   6.426  17.070  17.203
    1STR    H1M 1218   6.402  16.787  17.084
    1STR    H1N 1219   6.329  16.841  17.234
    1STR    H1O 1220   6.503  16.828  17.222
    1STR    H1P 1221   6.558  16.950  16.955
    1STR    H1Q 1222   6.549  17.121  16.990
    1STR    H1R 1223   6.800  16.939  16.975
    1STR    H1S 1224   6.918  17.163  16.940
    1STR    H1T 1225   6.807  17.236  17.055
    1STR    H1U 1226   6.748  17.171  16.902
    1STR    H1V 1227   6.902  16.896  17.201
    1STR    H1W 1228   6.919  17.068  17.227
    1STR    H1X 1229   7.212  16.985  16.957
    1STR    H1Y 1230   7.391  17.027  16.827
    1STR    H1Z 1231   7.630  17.061  16.801
    1STR    H20 1232   7.853  17.187  16.987
    1STR    H21 1233   7.881  17.027  17.057
    1STR    H22 1234   7.849  17.043  16.886
    1STR    H23 1235   7.686  16.995  17.324
    1STR    H27 1236   7.434  17.042  17.257
    1STR    H28 1237   5.610  17.110  16.833
    1STR    H29 1238   5.377  17.087  16.774
    1STR    H2A 1239   5.109  16.997  17.003
    1STR    H2B 1240   5.160  17.009  16.836
    1STR    H2C 1241   5.106  17.153  16.920
    1STR   BCK1 1242   5.123  17.309   4.245
    1STR    O03 1243   5.089  17.363   4.349
    1STR    N04 1244   5.238  17.335   4.179
    1STR    C05 1245   5.331  17.440   4.198
    1STR    C06 1246   5.472  17.416   4.189
    1STR    C07 1247   5.570   0.080   4.200
    1STR    N08 1248   5.709   0.055   4.185
    1STR    C09 1249   5.816   0.137   4.201
    1STR    O0A 1250   5.808   0.253   4.239
    1STR    O0B 1251   5.936   0.077   4.171
    1STR    C0C 1252   6.060   0.149   4.194
    1STR    C0D 1253   6.096   0.139   4.344
    1STR    C0E 1254   6.179   0.099   4.106
    1STR    O0F 1255   6.301   0.171   4.137
    1STR    C0G 1256   6.419   0.138   4.060
    1STR    C0H 1257   6.411   0.209   3.924
    1STR    C0I 1258   6.547   0.182   4.138
    1STR    O0J 1259   6.669   0.133   4.078
    1STR    C0K 1260   6.793   0.176   4.139
    1STR    C0M 1261   6.804   0.122   4.282
    1STR    C0N 1262   6.917   0.130   4.057
    1STR    O0O 1263   7.038   0.189   4.110
    1STR    C0P 1264   7.155   0.120   4.118
    1STR    O0Q 1265   7.170   0.001   4.091
    1STR    N0R 1266   7.252   0.202   4.158
    1STR    C0S 1267   7.390   0.188   4.183
    1STR    C0T 1268   7.461   0.307   4.206
    1STR    C0U 1269   7.600   0.305   4.230
    1STR    C0V 1270   7.672   0.184   4.232
    1STR    C0W 1271   7.822   0.196   4.247
    1STR    C0X 1272   7.604   0.060   4.212
    1STR    N0Y 1273   7.666  17.374   4.201
    1STR   BCK2 1274   7.777  17.304   4.234
    1STR    O10 1275   7.788  17.193   4.184
    1STR    C13 1276   7.463   0.065   4.188
    1STR    C14 1277   5.520   0.211   4.221
    1STR    C15 1278   5.382   0.237   4.227
    1STR    C16 1279   5.288   0.134   4.212
    1STR    C17 1280   5.142   0.176   4.206
    1STR    H1B 1281   5.257  17.271   4.104
    1STR    H1C 1282   5.506  17.314   4.175
    1STR    H1D 1283   5.737  17.402   4.160
    1STR    H1E 1284   6.045   0.254   4.169
    1STR    H1F 1285   6.113   0.036   4.374
    1STR    H1G 1286   6.186   0.196   4.366
    1STR    H1H 1287   6.016   0.180   4.406
    1STR    H1I 1288   6.153   0.112   4.001
    1STR    H1J 1289   6.195  17.432   4.122
    1STR    H1K 1290   6.424   0.030   4.046
    1STR    H1M 1291   6.400   0.317   3.937
    1STR    H1N 1292   6.327   0.174   3.864
    1STR    H1O 1293   6.501   0.192   3.866
    1STR    H1P 1294   6.550   0.290   4.146
    1STR    H1Q 1295   6.538   0.143   4.239
    1STR    H1R 1296   6.794   0.285   4.141
    1STR    H1S 1297   6.902   0.145   4.325
    1STR    H1T 1298   6.793   0.013   4.284
    1STR    H1U 1299   6.730   0.165   4.349
    1STR    H1V 1300   6.908   0.161   3.953
    1STR    H1W 1301   6.924   0.021   4.056
    1STR    H1X 1302   7.215   0.295   4.167
    1STR    H1Y 1303   7.412   0.403   4.202
    1STR    H1Z 1304   7.651   0.399   4.243
    1STR    H20 1305   7.850   0.174   4.350
    1STR    H21 1306   7.873   0.130   4.178
    1STR    H22 1307   7.857   0.297   4.225
    1STR    H23 1308   7.609  17.310   4.147
    1STR    H27 1309   7.409  17.414   4.170
    1STR    H28 1310   5.585   0.297   4.231
    1STR    H29 1311   5.349   0.339   4.240
    1STR    H2A 1312   5.085   0.112   4.138
    1STR    H2B 1313   5.131   0.278   4.169
    1STR    H2C 1314   5.097   0.171   4.305
    1STR   BCK1 1315   5.122  17.225   8.618
    1STR    O03 1316   5.069  17.335   8.634
    1STR    N04 1317   5.251  17.210   8.654
    1STR    C05 1318   5.343  17.105   8.667
    1STR    C06 1319   5.481  17.136   8.645
    1STR    C07 1320   5.585  17.041   8.668
    1STR    N08 1321   5.720  17.079   8.657
    1STR    C09 1322   5.831  17.019   8.704
    1STR    O0A 1323   5.830  16.914   8.769
    1STR    O0B 1324   5.945  17.087   8.674
    1STR    C0C 1325   6.074  17.027   8.699
    1STR    C0D 1326   6.112  16.941   8.577
    1STR    C0E 1327   6.184  17.131   8.731
    1STR    O0F 1328   6.308  17.063   8.757
    1STR    C0G 1329   6.421  17.142   8.795
    1STR    C0H 1330   6.406  17.186   8.941
    1STR    C0I 1331   6.551  17.060   8.777
    1STR    O0J 1332   6.669  17.141   8.792
    1STR    C0K 1333   6.794  17.070   8.788
    1STR    C0M 1334   6.822  17.022   8.644
    1STR    C0N 1335   6.910  17.160   8.836
    1STR    O0O 1336   7.029  17.083   8.850
    1STR    C0P 1337   7.152  17.133   8.827
    1STR    O0Q 1338   7.178  17.249   8.796
    1STR    N0R 1339   7.240  17.034   8.839
    1STR    C0S 1340   7.377  17.021   8.810
    1STR    C0T 1341   7.428  16.890   8.807
    1STR    C0U 1342   7.559  16.865   8.764
    1STR    C0V 1343   7.644  16.970   8.725
    1STR    C0W 1344   7.773  16.931   8.656
    1STR    C0X 1345   7.601  17.105   8.739
    1STR    N0Y 1346   7.678  17.215   8.700
    1STR   BCK2 1347   7.806  17.253   8.714
    1STR    O10 1348   7.844  17.355   8.658
    1STR    C13 1349   7.465  17.128   8.778
    1STR    C14 1350   5.546  16.911   8.706
    1STR    C15 1351   5.412  16.880   8.731
    1STR    C16 1352   5.311  16.977   8.718
    1STR    C17 1353   5.174  16.939   8.772
    1STR    H1B 1354   5.289  17.301   8.675
    1STR    H1C 1355   5.508  17.235   8.612
    1STR    H1D 1356   5.743  17.165   8.609
    1STR    H1E 1357   6.068  16.961   8.786
    1STR    H1F 1358   6.121  17.002   8.487
    1STR    H1G 1359   6.207  16.891   8.593
    1STR    H1H 1360   6.037  16.864   8.558
    1STR    H1I 1361   6.154  17.189   8.818
    1STR    H1J 1362   6.197  17.200   8.648
    1STR    H1K 1363   6.428  17.230   8.730
    1STR    H1M 1364   6.394  17.099   9.006
    1STR    H1N 1365   6.321  17.252   8.957
    1STR    H1O 1366   6.495  17.239   8.975
    1STR    H1P 1367   6.553  16.976   8.847
    1STR    H1Q 1368   6.550  17.015   8.677
    1STR    H1R 1369   6.788  16.983   8.855
    1STR    H1S 1370   6.921  16.977   8.637
    1STR    H1T 1371   6.817  17.104   8.573
    1STR    H1U 1372   6.751  16.945   8.613
    1STR    H1V 1373   6.886  17.203   8.934
    1STR    H1W 1374   6.925  17.244   8.768
    1STR    H1X 1375   7.190  16.951   8.867
    1STR    H1Y 1376   7.365  16.806   8.833
    1STR    H1Z 1377   7.592  16.763   8.756
    1STR    H20 1378   7.808  17.010   8.588
    1STR    H21 1379   7.851  16.910   8.729
    1STR    H22 1380   7.759  16.842   8.595
    1STR    H23 1381   7.626  17.286   8.650
    1STR    H27 1382   7.427  17.229   8.782
    1STR    H28 1383   5.619  16.832   8.720
    1STR    H29 1384   5.388  16.781   8.766
    1STR    H2A 1385   5.120  17.026   8.807
    1STR    H2B 1386   5.184  16.872   8.857
    1STR    H2C 1387   5.117  16.887   8.695
    1STR   BCK1 1388   5.126  17.229  12.831
    1STR    O03 1389   5.090  17.345  12.850
    1STR    N04 1390   5.244  17.194  12.774
    1STR    C05 1391   5.337  17.272  12.702
    1STR    C06 1392   5.477  17.258  12.724
    1STR    C07 1393   5.575  17.326  12.645
    1STR    N08 1394   5.714  17.306  12.666
    1STR    C09 1395   5.820  17.341  12.589
    1STR    O0A 1396   5.811  17.399  12.481
    1STR    O0B 1397   5.941  17.305  12.644
    1STR    C0C 1398   6.064  17.342  12.577
    1STR    C0D 1399   6.094   0.051  12.602
    1STR    C0E 1400   6.184  17.253  12.620
    1STR    O0F 1401   6.308  17.294  12.557
    1STR    C0G 1402   6.424  17.212  12.581
    1STR    C0H 1403   6.415  17.086  12.494
    1STR    C0I 1404   6.555  17.291  12.550
    1STR    O0J 1405   6.673  17.223  12.598
    1STR    C0K 1406   6.801  17.278  12.561
    1STR    C0M 1407   6.817  17.420  12.618
    1STR    C0N 1408   6.917  17.187  12.611
    1STR    O0O 1409   7.044  17.234  12.563
    1STR    C0P 1410   7.159  17.219  12.634
    1STR    O0Q 1411   7.168  17.173  12.747
    1STR    N0R 1412   7.261  17.267  12.561
    1STR    C0S 1413   7.398  17.287  12.583
    1STR    C0T 1414   7.465  17.352  12.478
    1STR    C0U 1415   7.600  17.389  12.489
    1STR    C0V 1416   7.673  17.361  12.606
    1STR    C0W 1417   7.813  17.419  12.616
    1STR    C0X 1418   7.612  17.286  12.711
    1STR    N0Y 1419   7.687  17.255  12.827
    1STR   BCK2 1420   7.810  17.201  12.833
    1STR    O10 1421   7.867  17.151  12.736
    1STR    C13 1422   7.473  17.253  12.700
    1STR    C14 1423   5.526  17.412  12.544
    1STR    C15 1424   5.389  17.426  12.520
    1STR    C16 1425   5.294  17.355  12.595
    1STR    C17 1426   5.149  17.364  12.552
    1STR    H1B 1427   5.261  17.095  12.775
    1STR    H1C 1428   5.510  17.192  12.803
    1STR    H1D 1429   5.741  17.255  12.748
    1STR    H1E 1430   6.050  17.327  12.469
    1STR    H1F 1431   6.108   0.071  12.708
    1STR    H1G 1432   6.184   0.082  12.549
    1STR    H1H 1433   6.013   0.114  12.566
    1STR    H1I 1434   6.161  17.149  12.594
    1STR    H1J 1435   6.196  17.256  12.728
    1STR    H1K 1436   6.427  17.184  12.687
    1STR    H1M 1437   6.404  17.112  12.388
    1STR    H1N 1438   6.332  17.022  12.521
    1STR    H1O 1439   6.506  17.026  12.503
    1STR    H1P 1440   6.562  17.309  12.442
    1STR    H1Q 1441   6.547  17.389  12.597
    1STR    H1R 1442   6.806  17.283  12.452
    1STR    H1S 1443   6.917   0.019  12.598
    1STR    H1T 1444   6.803  17.420  12.726
    1STR    H1U 1445   6.747   0.051  12.574
    1STR    H1V 1446   6.903  17.086  12.575
    1STR    H1W 1447   6.917  17.182  12.720
    1STR    H1X 1448   7.226  17.295  12.471
    1STR    H1Y 1449   7.414  17.378  12.386
    1STR    H1Z 1450   7.647   0.002  12.408
    1STR    H20 1451   7.838   0.005  12.718
    1STR    H21 1452   7.886  17.348  12.578
    1STR    H22 1453   7.822   0.070  12.557
    1STR    H23 1454   7.645  17.280  12.916
    1STR    H27 1455   7.423  17.201  12.780
    1STR    H28 1456   5.592   0.029  12.481
    1STR    H29 1457   5.356   0.049  12.438
    1STR    H2A 1458   5.098  17.268  12.563
    1STR    H2B 1459   5.140  17.391  12.447
    1STR    H2C 1460   5.096  17.439  12.610
    1STR   BCK1 1461   5.131   4.141  17.386
    1STR    O03 1462   5.122   4.093   0.058
    1STR    N04 1463   5.234   4.218  17.346
    1STR    C05 1464   5.333   4.276  17.427
    1STR    C06 1465   5.472   4.266  17.395
    1STR    C07 1466   5.574   4.329   0.034
    1STR    N08 1467   5.711   4.320  17.438
    1STR    C09 1468   5.822   4.361   0.065
    1STR    O0A 1469   5.821   4.413   0.176
    1STR    O0B 1470   5.939   4.341  17.436
    1STR    C0C 1471   6.066   4.363   0.061
    1STR    C0D 1472   6.103   4.236   0.140
    1STR    C0E 1473   6.180   4.403  17.403
    1STR    O0F 1474   6.304   4.425   0.034
    1STR    C0G 1475   6.418   4.466  17.398
    1STR    C0H 1476   6.408   4.617  17.371
    1STR    C0I 1477   6.547   4.433   0.039
    1STR    O0J 1478   6.669   4.454  17.405
    1STR    C0K 1479   6.791   4.431   0.039
    1STR    C0M 1480   6.803   4.283   0.080
    1STR    C0N 1481   6.919   4.471  17.398
    1STR    O0O 1482   7.033   4.465   0.045
    1STR    C0P 1483   7.158   4.436  17.439
    1STR    O0Q 1484   7.187   4.411  17.323
    1STR    N0R 1485   7.243   4.443   0.102
    1STR    C0S 1486   7.382   4.426   0.116
    1STR    C0T 1487   7.436   4.474   0.237
    1STR    C0U 1488   7.574   4.467   0.262
    1STR    C0V 1489   7.662   4.411   0.168
    1STR    C0W 1490   7.810   4.425   0.199
    1STR    C0X 1491   7.612   4.355   0.047
    1STR    N0Y 1492   7.692   4.304  17.383
    1STR   BCK2 1493   7.810   4.241  17.364
    1STR    O10 1494   7.847   4.228  17.248
    1STR    C13 1495   7.471   4.366   0.023
    1STR    C14 1496   5.531   4.402   0.147
    1STR    C15 1497   5.395   4.416   0.178
    1STR    C16 1498   5.296   4.356   0.098
    1STR    C17 1499   5.151   4.385   0.134
    1STR    H1B 1500   5.232   4.242  17.248
    1STR    H1C 1501   5.500   4.207  17.310
    1STR    H1D 1502   5.732   4.273  17.353
    1STR    H1E 1503   6.055   4.446   0.132
    1STR    H1F 1504   6.114   4.150   0.075
    1STR    H1G 1505   6.196   4.250   0.195
    1STR    H1H 1506   6.025   4.212   0.213
    1STR    H1I 1507   6.149   4.494  17.351
    1STR    H1J 1508   6.192   4.326  17.328
    1STR    H1K 1509   6.422   4.411  17.305
    1STR    H1M 1510   6.397   4.672   0.025
    1STR    H1N 1511   6.322   4.642  17.310
    1STR    H1O 1512   6.497   4.655  17.321
    1STR    H1P 1513   6.548   4.491   0.131
    1STR    H1Q 1514   6.539   4.329   0.069
    1STR    H1R 1515   6.789   4.493   0.129
    1STR    H1S 1516   6.900   4.263   0.126
    1STR    H1T 1517   6.793   4.217  17.434
    1STR    H1U 1518   6.728   4.254   0.154
    1STR    H1V 1519   6.910   4.572  17.360
    1STR    H1W 1520   6.932   4.405  17.312
    1STR    H1X 1521   7.193   4.470   0.184
    1STR    H1Y 1522   7.373   4.520   0.312
    1STR    H1Z 1523   7.612   4.508   0.354
    1STR    H20 1524   7.845   4.336   0.251
    1STR    H21 1525   7.868   4.441   0.108
    1STR    H22 1526   7.829   4.511   0.264
    1STR    H23 1527   7.650   4.316  17.292
    1STR    H27 1528   7.429   4.329  17.370
    1STR    H28 1529   5.599   4.453   0.214
    1STR    H29 1530   5.366   4.474   0.265
    1STR    H2A 1531   5.089   4.394   0.045
    1STR    H2B 1532   5.141   4.478   0.190
    1STR    H2C 1533   5.111   4.305   0.196
    1STR   BCK1 1534   5.120   4.060   4.190
    1STR    O03 1535   5.088   4.098   4.078
    1STR    N04 1536   5.240   4.008   4.221
    1STR    C05 1537   5.342   3.965   4.135
    1STR    C06 1538   5.479   3.997   4.163
    1STR    C07 1539   5.586   3.945   4.084
    1STR    N08 1540   5.721   3.975   4.113
    1STR    C09 1541   5.829   3.899   4.087
    1STR    O0A 1542   5.824   3.784   4.043
    1STR    O0B 1543   5.947   3.962   4.117
    1STR    C0C 1544   6.072   3.905   4.074
    1STR    C0D 1545   6.099   3.948   3.929
    1STR    C0E 1546   6.190   3.944   4.167
    1STR    O0F 1547   6.312   3.881   4.125
    1STR    C0G 1548   6.427   3.901   4.210
    1STR    C0H 1549   6.416   3.808   4.331
    1STR    C0I 1550   6.557   3.871   4.129
    1STR    O0J 1551   6.676   3.903   4.205
    1STR    C0K 1552   6.802   3.869   4.144
    1STR    C0M 1553   6.825   3.952   4.017
    1STR    C0N 1554   6.919   3.893   4.244
    1STR    O0O 1555   7.042   3.841   4.192
    1STR    C0P 1556   7.162   3.898   4.224
    1STR    O0Q 1557   7.177   3.997   4.294
    1STR    N0R 1558   7.260   3.829   4.164
    1STR    C0S 1559   7.398   3.849   4.151
    1STR    C0T 1560   7.466   3.762   4.063
    1STR    C0U 1561   7.601   3.782   4.032
    1STR    C0V 1562   7.674   3.888   4.088
    1STR    C0W 1563   7.812   3.915   4.030
    1STR    C0X 1564   7.614   3.971   4.186
    1STR    N0Y 1565   7.678   4.082   4.244
    1STR   BCK2 1566   7.800   4.111   4.294
    1STR    O10 1567   7.821   4.227   4.329
    1STR    C13 1568   7.475   3.952   4.214
    1STR    C14 1569   5.552   3.865   3.973
    1STR    C15 1570   5.419   3.831   3.946
    1STR    C16 1571   5.314   3.876   4.028
    1STR    C17 1572   5.175   3.823   3.999
    1STR    H1B 1573   5.256   3.999   4.320
    1STR    H1C 1574   5.501   4.062   4.246
    1STR    H1D 1575   5.742   4.063   4.155
    1STR    H1E 1576   6.065   3.796   4.077
    1STR    H1F 1577   6.107   4.056   3.920
    1STR    H1G 1578   6.191   3.904   3.891
    1STR    H1H 1579   6.018   3.915   3.863
    1STR    H1I 1580   6.164   3.915   4.269
    1STR    H1J 1581   6.202   4.053   4.167
    1STR    H1K 1582   6.431   4.005   4.242
    1STR    H1M 1583   6.405   3.704   4.300
    1STR    H1N 1584   6.332   3.833   4.395
    1STR    H1O 1585   6.506   3.814   4.393
    1STR    H1P 1586   6.558   3.766   4.099
    1STR    H1Q 1587   6.554   3.930   4.038
    1STR    H1R 1588   6.801   3.763   4.119
    1STR    H1S 1589   6.925   3.934   3.976
    1STR    H1T 1590   6.816   4.059   4.038
    1STR    H1U 1591   6.754   3.927   3.938
    1STR    H1V 1592   6.898   3.842   4.339
    1STR    H1W 1593   6.927   3.999   4.268
    1STR    H1X 1594   7.221   3.751   4.115
    1STR    H1Y 1595   7.413   3.681   4.014
    1STR    H1Z 1596   7.648   3.717   3.959
    1STR    H20 1597   7.839   4.020   4.038
    1STR    H21 1598   7.887   3.855   4.081
    1STR    H22 1599   7.815   3.890   3.924
    1STR    H23 1600   7.618   4.162   4.255
    1STR    H27 1601   7.425   4.018   4.283
    1STR    H28 1602   5.628   3.827   3.906
    1STR    H29 1603   5.398   3.767   3.861
    1STR    H2A 1604   5.118   3.809   4.091
    1STR    H2B 1605   5.179   3.727   3.949
    1STR    H2C 1606   5.121   3.893   3.935
    1STR   BCK1 1607   5.124   4.228   8.536
    1STR    O03 1608   5.087   4.316   8.612
    1STR    N04 1609   5.241   4.230   8.467
    1STR    C05 1610   5.333   4.336   8.448
    1STR    C06 1611   5.474   4.313   8.451
    1STR    C07 1612   5.570   4.415   8.422
    1STR    N08 1613   5.710   4.388   8.422
    1STR    C09 1614   5.816   4.467   8.391
    1STR    O0A 1615   5.807   4.585   8.359
    1STR    O0B 1616   5.937   4.403   8.401
    1STR    C0C 1617   6.061   4.477   8.384
    1STR    C0D 1618   6.092   4.551   8.515
    1STR    C0E 1619   6.181   4.389   8.340
    1STR    O0F 1620   6.303   4.466   8.328
    1STR    C0G 1621   6.421   4.397   8.281
    1STR    C0H 1622   6.414   4.388   8.128
    1STR    C0I 1623   6.550   4.472   8.326
    1STR    O0J 1624   6.670   4.396   8.302
    1STR    C0K 1625   6.797   4.461   8.328
    1STR    C0M 1626   6.807   4.501   8.476
    1STR    C0N 1627   6.917   4.368   8.292
    1STR    O0O 1628   7.042   4.440   8.297
    1STR    C0P 1629   7.157   4.384   8.344
    1STR    O0Q 1630   7.167   4.275   8.398
    1STR    N0R 1631   7.258   4.469   8.322
    1STR    C0S 1632   7.396   4.470   8.352
    1STR    C0T 1633   7.466   4.580   8.298
    1STR    C0U 1634   7.601   4.601   8.328
    1STR    C0V 1635   7.671   4.513   8.412
    1STR    C0W 1636   7.812   4.553   8.452
    1STR    C0X 1637   7.608   4.395   8.461
    1STR    N0Y 1638   7.679   4.307   8.545
    1STR   BCK2 1639   7.803   4.256   8.525
    1STR    O10 1640   7.862   4.260   8.418
    1STR    C13 1641   7.468   4.376   8.432
    1STR    C14 1642   5.519   4.544   8.393
    1STR    C15 1643   5.381   4.568   8.387
    1STR    C16 1644   5.288   4.466   8.410
    1STR    C17 1645   5.142   4.499   8.386
    1STR    H1B 1646   5.262   4.143   8.422
    1STR    H1C 1647   5.509   4.214   8.475
    1STR    H1D 1648   5.738   4.294   8.446
    1STR    H1E 1649   6.046   4.551   8.305
    1STR    H1F 1650   6.108   4.481   8.597
    1STR    H1G 1651   6.182   4.612   8.505
    1STR    H1H 1652   6.011   4.618   8.543
    1STR    H1I 1653   6.157   4.342   8.244
    1STR    H1J 1654   6.196   4.308   8.411
    1STR    H1K 1655   6.424   4.297   8.325
    1STR    H1M 1656   6.404   4.486   8.083
    1STR    H1N 1657   6.330   4.327   8.095
    1STR    H1O 1658   6.504   4.342   8.088
    1STR    H1P 1659   6.556   4.569   8.277
    1STR    H1Q 1660   6.541   4.492   8.433
    1STR    H1R 1661   6.803   4.550   8.266
    1STR    H1S 1662   6.907   4.541   8.499
    1STR    H1T 1663   6.791   4.416   8.541
    1STR    H1U 1664   6.736   4.579   8.503
    1STR    H1V 1665   6.905   4.329   8.191
    1STR    H1W 1666   6.919   4.281   8.358
    1STR    H1X 1667   7.223   4.548   8.272
    1STR    H1Y 1668   7.417   4.652   8.235
    1STR    H1Z 1669   7.651   4.688   8.288
    1STR    H20 1670   7.835   4.522   8.554
    1STR    H21 1671   7.885   4.508   8.385
    1STR    H22 1672   7.825   4.661   8.448
    1STR    H23 1673   7.634   4.278   8.630
    1STR    H27 1674   7.416   4.290   8.471
    1STR    H28 1675   5.583   4.628   8.373
    1STR    H29 1676   5.347   4.667   8.361
    1STR    H2A 1677   5.087   4.414   8.346
    1STR    H2B 1678   5.131   4.581   8.314
    1STR    H2C 1679   5.094   4.530   8.479
    1STR   BCK1 1680   5.114   4.139  12.951
    1STR    O03 1681   5.067   4.225  12.878
    1STR    N04 1682   5.241   4.158  12.995
    1STR    C05 1683   5.334   4.102  13.083
    1STR    C06 1684   5.473   4.121  13.053
    1STR    C07 1685   5.578   4.080  13.141
    1STR    N08 1686   5.714   4.110  13.112
    1STR    C09 1687   5.827   4.063  13.167
    1STR    O0A 1688   5.830   3.972  13.251
    1STR    O0B 1689   5.940   4.125  13.121
    1STR    C0C 1690   6.070   4.085  13.169
    1STR    C0D 1691   6.112   3.954  13.101
    1STR    C0E 1692   6.180   4.194  13.148
    1STR    O0F 1693   6.307   4.149  13.199
    1STR    C0G 1694   6.419   4.238  13.187
    1STR    C0H 1695   6.406   4.352  13.289
    1STR    C0I 1696   6.550   4.159  13.211
    1STR    O0J 1697   6.669   4.236  13.185
    1STR    C0K 1698   6.795   4.176  13.220
    1STR    C0M 1699   6.824   4.057  13.128
    1STR    C0N 1700   6.910   4.280  13.211
    1STR    O0O 1701   7.028   4.231  13.275
    1STR    C0P 1702   7.148   4.223  13.212
    1STR    O0Q 1703   7.169   4.250  13.094
    1STR    N0R 1704   7.239   4.174  13.297
    1STR    C0S 1705   7.371   4.131  13.278
    1STR    C0T 1706   7.417   4.029  13.363
    1STR    C0U 1707   7.543   3.970  13.344
    1STR    C0V 1708   7.628   4.014  13.241
    1STR    C0W 1709   7.750   3.928  13.212
    1STR    C0X 1710   7.592   4.127  13.163
    1STR    N0Y 1711   7.673   4.179  13.061
    1STR   BCK2 1712   7.804   4.204  13.043
    1STR    O10 1713   7.842   4.242  12.933
    1STR    C13 1714   7.461   4.181  13.180
    1STR    C14 1715   5.540   4.016  13.261
    1STR    C15 1716   5.404   3.998  13.293
    1STR    C16 1717   5.302   4.044  13.209
    1STR    C17 1718   5.160   4.038  13.263
    1STR    H1B 1719   5.270   4.244  12.951
    1STR    H1C 1720   5.499   4.171  12.961
    1STR    H1D 1721   5.731   4.180  13.042
    1STR    H1E 1722   6.063   4.068  13.277
    1STR    H1F 1723   6.120   3.966  12.993
    1STR    H1G 1724   6.209   3.920  13.138
    1STR    H1H 1725   6.040   3.875  13.121
    1STR    H1I 1726   6.148   4.286  13.199
    1STR    H1J 1727   6.188   4.219  13.042
    1STR    H1K 1728   6.422   4.279  13.086
    1STR    H1M 1729   6.394   4.314  13.390
    1STR    H1N 1730   6.321   4.417  13.268
    1STR    H1O 1731   6.495   4.416  13.287
    1STR    H1P 1732   6.551   4.122  13.314
    1STR    H1Q 1733   6.549   4.071  13.146
    1STR    H1R 1734   6.789   4.142  13.324
    1STR    H1S 1735   6.924   4.016  13.147
    1STR    H1T 1736   6.821   4.087  13.023
    1STR    H1U 1737   6.754   3.975  13.141
    1STR    H1V 1738   6.881   4.371  13.262
    1STR    H1W 1739   6.928   4.309  13.107
    1STR    H1X 1740   7.199   4.161  13.388
    1STR    H1Y 1741   7.354   3.991  13.442
    1STR    H1Z 1742   7.573   3.888  13.407
    1STR    H20 1743   7.785   3.940  13.110
    1STR    H21 1744   7.831   3.952  13.281
    1STR    H22 1745   7.726   3.822  13.224
    1STR    H23 1746   7.623   4.213  12.980
    1STR    H27 1747   7.428   4.263  13.117
    1STR    H28 1748   5.612   3.984  13.333
    1STR    H29 1749   5.379   3.953  13.388
    1STR    H2A 1750   5.101   4.122  13.227
    1STR    H2B 1751   5.160   4.044  13.372
    1STR    H2C 1752   5.112   3.945  13.235
    1STR   BCK1 1753   5.124   8.453  17.197
    1STR    O03 1754   5.082   8.562  17.157
    1STR    N04 1755   5.246   8.403  17.169
    1STR    C05 1756   5.341   8.442  17.073
    1STR    C06 1757   5.481   8.442  17.104
    1STR    C07 1758   5.581   8.468  17.006
    1STR    N08 1759   5.719   8.462  17.037
    1STR    C09 1760   5.825   8.444  16.955
    1STR    O0A 1761   5.815   8.422  16.834
    1STR    O0B 1762   5.944   8.450  17.021
    1STR    C0C 1763   6.069   8.450  16.947
    1STR    C0D 1764   6.096   8.591  16.893
    1STR    C0E 1765   6.189   8.402  17.034
    1STR    O0F 1766   6.309   8.385  16.954
    1STR    C0G 1767   6.425   8.340  17.027
    1STR    C0H 1768   6.421   8.186  17.027
    1STR    C0I 1769   6.556   8.393  16.962
    1STR    O0J 1770   6.674   8.348  17.031
    1STR    C0K 1771   6.802   8.379  16.973
    1STR    C0M 1772   6.819   8.531  16.953
    1STR    C0N 1773   6.918   8.325  17.062
    1STR    O0O 1774   7.044   8.336  16.995
    1STR    C0P 1775   7.161   8.348  17.062
    1STR    O0Q 1776   7.175   8.350  17.184
    1STR    N0R 1777   7.261   8.360  16.973
    1STR    C0S 1778   7.398   8.387  16.982
    1STR    C0T 1779   7.460   8.414  16.859
    1STR    C0U 1780   7.594   8.455  16.853
    1STR    C0V 1781   7.671   8.468  16.970
    1STR    C0W 1782   7.809   8.530  16.954
    1STR    C0X 1783   7.616   8.430  17.096
    1STR    N0Y 1784   7.693   8.438  17.214
    1STR   BCK2 1785   7.820   8.395  17.233
    1STR    O10 1786   7.883   8.329  17.151
    1STR    C13 1787   7.478   8.394  17.100
    1STR    C14 1788   5.537   8.502  16.876
    1STR    C15 1789   5.401   8.501  16.843
    1STR    C16 1790   5.303   8.468  16.939
    1STR    C17 1791   5.160   8.455  16.890
    1STR    H1B 1792   5.269   8.324  17.226
    1STR    H1C 1793   5.511   8.419  17.205
    1STR    H1D 1794   5.748   8.474  17.133
    1STR    H1E 1795   6.060   8.380  16.864
    1STR    H1F 1796   6.108   8.662  16.974
    1STR    H1G 1797   6.188   8.593  16.835
    1STR    H1H 1798   6.015   8.626  16.829
    1STR    H1I 1799   6.164   8.308  17.082
    1STR    H1J 1800   6.208   8.475  17.113
    1STR    H1K 1801   6.422   8.379  17.129
    1STR    H1M 1802   6.418   8.147  16.926
    1STR    H1N 1803   6.333   8.149  17.080
    1STR    H1O 1804   6.509   8.146  17.077
    1STR    H1P 1805   6.559   8.362  16.857
    1STR    H1Q 1806   6.550   8.502  16.964
    1STR    H1R 1807   6.808   8.329  16.876
    1STR    H1S 1808   6.919   8.556  16.920
    1STR    H1T 1809   6.800   8.584  17.047
    1STR    H1U 1810   6.750   8.571  16.879
    1STR    H1V 1811   6.901   8.220  17.087
    1STR    H1W 1812   6.920   8.379  17.157
    1STR    H1X 1813   7.221   8.352  16.881
    1STR    H1Y 1814   7.405   8.407  16.766
    1STR    H1Z 1815   7.638   8.479  16.757
    1STR    H20 1816   7.838   8.585  17.043
    1STR    H21 1817   7.883   8.453  16.933
    1STR    H22 1818   7.811   8.601  16.871
    1STR    H23 1819   7.648   8.476  17.295
    1STR    H27 1820   7.431   8.371  17.195
    1STR    H28 1821   5.607   8.528  16.799
    1STR    H29 1822   5.372   8.523  16.742
    1STR    H2A 1823   5.108   8.375  16.942
    1STR    H2B 1824   5.156   8.431  16.783
    1STR    H2C 1825   5.106   8.548  16.905
    1STR   BCK1 1826   5.121   8.565   4.280
    1STR    O03 1827   5.090   8.591   4.395
    1STR    N04 1828   5.235   8.607   4.220
    1STR    C05 1829   5.330   8.702   4.265
    1STR    C06 1830   5.470   8.680   4.247
    1STR    C07 1831   5.569   8.777   4.285
    1STR    N08 1832   5.708   8.755   4.261
    1STR    C09 1833   5.816   8.828   4.300
    1STR    O0A 1834   5.810   8.928   4.370
    1STR    O0B 1835   5.935   8.779   4.253
    1STR    C0C 1836   6.060   8.838   4.297
    1STR    C0D 1837   6.097   8.779   4.434
    1STR    C0E 1838   6.177   8.821   4.196
    1STR    O0F 1839   6.300   8.877   4.248
    1STR    C0G 1840   6.417   8.872   4.163
    1STR    C0H 1841   6.408   8.986   4.060
    1STR    C0I 1842   6.545   8.885   4.250
    1STR    O0J 1843   6.667   8.860   4.175
    1STR    C0K 1844   6.792   8.879   4.246
    1STR    C0M 1845   6.804   8.782   4.364
    1STR    C0N 1846   6.914   8.860   4.151
    1STR    O0O 1847   7.035   8.906   4.214
    1STR    C0P 1848   7.153   8.839   4.206
    1STR    O0Q 1849   7.169   8.728   4.157
    1STR    N0R 1850   7.249   8.915   4.259
    1STR    C0S 1851   7.387   8.900   4.281
    1STR    C0T 1852   7.454   9.019   4.317
    1STR    C0U 1853   7.589   9.018   4.354
    1STR    C0V 1854   7.662   8.899   4.357
    1STR    C0W 1855   7.803   8.905   4.414
    1STR    C0X 1856   7.602   8.777   4.313
    1STR    N0Y 1857   7.676   8.657   4.322
    1STR   BCK2 1858   7.801   8.634   4.277
    1STR    O10 1859   7.859   8.704   4.194
    1STR    C13 1860   7.463   8.779   4.277
    1STR    C14 1861   5.522   8.897   4.342
    1STR    C15 1862   5.385   8.921   4.358
    1STR    C16 1863   5.288   8.828   4.316
    1STR    C17 1864   5.143   8.871   4.324
    1STR    H1B 1865   5.251   8.566   4.130
    1STR    H1C 1866   5.503   8.587   4.205
    1STR    H1D 1867   5.735   8.674   4.209
    1STR    H1E 1868   6.046   8.946   4.310
    1STR    H1F 1869   6.113   8.671   4.428
    1STR    H1G 1870   6.187   8.824   4.474
    1STR    H1H 1871   6.018   8.797   4.507
    1STR    H1I 1872   6.150   8.870   4.102
    1STR    H1J 1873   6.192   8.715   4.174
    1STR    H1K 1874   6.420   8.776   4.112
    1STR    H1M 1875   6.398   9.083   4.110
    1STR    H1N 1876   6.324   8.974   3.993
    1STR    H1O 1877   6.498   8.990   3.999
    1STR    H1P 1878   6.549   8.984   4.296
    1STR    H1Q 1879   6.537   8.813   4.331
    1STR    H1R 1880   6.794   8.982   4.283
    1STR    H1S 1881   6.902   8.789   4.411
    1STR    H1T 1882   6.791   8.679   4.331
    1STR    H1U 1883   6.731   8.802   4.442
    1STR    H1V 1884   6.900   8.918   4.060
    1STR    H1W 1885   6.923   8.756   4.120
    1STR    H1X 1886   7.209   9.002   4.287
    1STR    H1Y 1887   7.401   9.113   4.319
    1STR    H1Z 1888   7.636   9.111   4.384
    1STR    H20 1889   7.825   8.817   4.474
    1STR    H21 1890   7.876   8.912   4.334
    1STR    H22 1891   7.816   8.991   4.479
    1STR    H23 1892   7.633   8.581   4.371
    1STR    H27 1893   7.414   8.687   4.248
    1STR    H28 1894   5.587   8.976   4.375
    1STR    H29 1895   5.353   9.016   4.400
    1STR    H2A 1896   5.084   8.829   4.242
    1STR    H2B 1897   5.134   8.980   4.316
    1STR    H2C 1898   5.099   8.841   4.419
    1STR   BCK1 1899   5.120   8.475   8.567
    1STR    O03 1900   5.072   8.576   8.517
    1STR    N04 1901   5.250   8.448   8.543
    1STR    C05 1902   5.342   8.345   8.572
    1STR    C06 1903   5.478   8.381   8.594
    1STR    C07 1904   5.581   8.285   8.613
    1STR    N08 1905   5.716   8.324   8.626
    1STR    C09 1906   5.828   8.252   8.605
    1STR    O0A 1907   5.829   8.135   8.567
    1STR    O0B 1908   5.942   8.324   8.626
    1STR    C0C 1909   6.072   8.262   8.610
    1STR    C0D 1910   6.104   8.243   8.461
    1STR    C0E 1911   6.184   8.343   8.681
    1STR    O0F 1912   6.310   8.274   8.671
    1STR    C0G 1913   6.424   8.338   8.732
    1STR    C0H 1914   6.414   8.325   8.885
    1STR    C0I 1915   6.554   8.271   8.680
    1STR    O0J 1916   6.672   8.338   8.727
    1STR    C0K 1917   6.798   8.275   8.696
    1STR    C0M 1918   6.824   8.279   8.544
    1STR    C0N 1919   6.915   8.346   8.770
    1STR    O0O 1920   7.035   8.268   8.760
    1STR    C0P 1921   7.157   8.326   8.746
    1STR    O0Q 1922   7.178   8.446   8.739
    1STR    N0R 1923   7.250   8.230   8.736
    1STR    C0S 1924   7.387   8.233   8.705
    1STR    C0T 1925   7.444   8.111   8.664
    1STR    C0U 1926   7.576   8.106   8.618
    1STR    C0V 1927   7.656   8.222   8.614
    1STR    C0W 1928   7.789   8.211   8.540
    1STR    C0X 1929   7.607   8.344   8.667
    1STR    N0Y 1930   7.680   8.463   8.666
    1STR   BCK2 1931   7.807   8.500   8.694
    1STR    O10 1932   7.839   8.616   8.674
    1STR    C13 1933   7.470   8.348   8.709
    1STR    C14 1934   5.543   8.150   8.619
    1STR    C15 1935   5.410   8.111   8.594
    1STR    C16 1936   5.310   8.207   8.565
    1STR    C17 1937   5.177   8.153   8.517
    1STR    H1B 1938   5.290   8.526   8.493
    1STR    H1C 1939   5.505   8.486   8.594
    1STR    H1D 1940   5.736   8.420   8.651
    1STR    H1E 1941   6.067   8.163   8.658
    1STR    H1F 1942   6.108   8.338   8.408
    1STR    H1G 1943   6.201   8.194   8.448
    1STR    H1H 1944   6.030   8.180   8.411
    1STR    H1I 1945   6.156   8.357   8.785
    1STR    H1J 1946   6.192   8.442   8.636
    1STR    H1K 1947   6.426   8.443   8.704
    1STR    H1M 1948   6.402   8.221   8.915
    1STR    H1N 1949   6.330   8.381   8.926
    1STR    H1O 1950   6.504   8.363   8.933
    1STR    H1P 1951   6.555   8.166   8.709
    1STR    H1Q 1952   6.551   8.274   8.571
    1STR    H1R 1953   6.795   8.172   8.730
    1STR    H1S 1954   6.923   8.242   8.520
    1STR    H1T 1955   6.817   8.381   8.506
    1STR    H1U 1956   6.753   8.218   8.488
    1STR    H1V 1957   6.891   8.357   8.876
    1STR    H1W 1958   6.929   8.447   8.732
    1STR    H1X 1959   7.206   8.140   8.747
    1STR    H1Y 1960   7.385   8.021   8.662
    1STR    H1Z 1961   7.615   8.013   8.580
    1STR    H20 1962   7.820   8.308   8.501
    1STR    H21 1963   7.866   8.172   8.606
    1STR    H22 1964   7.780   8.144   8.455
    1STR    H23 1965   7.627   8.545   8.643
    1STR    H27 1966   7.428   8.442   8.743
    1STR    H28 1967   5.614   8.071   8.639
    1STR    H29 1968   5.386   8.006   8.594
    1STR    H2A 1969   5.114   8.128   8.602
    1STR    H2B 1970   5.191   8.062   8.459
    1STR    H2C 1971   5.126   8.224   8.453
    1STR   BCK1 1972   5.125   8.544  12.842
    1STR    O03 1973   5.088   8.652  12.886
    1STR    N04 1974   5.242   8.523  12.778
    1STR    C05 1975   5.336   8.616  12.727
    1STR    C06 1976   5.476   8.595  12.742
    1STR    C07 1977   5.574   8.680  12.682
    1STR    N08 1978   5.713   8.655  12.697
    1STR    C09 1979   5.816   8.699  12.621
    1STR    O0A 1980   5.803   8.764  12.518
    1STR    O0B 1981   5.939   8.663  12.671
    1STR    C0C 1982   6.061   8.719  12.615
    1STR    C0D 1983   6.088   8.854  12.684
    1STR    C0E 1984   6.183   8.624  12.628
    1STR    O0F 1985   6.305   8.683  12.580
    1STR    C0G 1986   6.422   8.599  12.576
    1STR    C0H 1987   6.414   8.511  12.450
    1STR    C0I 1988   6.552   8.685  12.574
    1STR    O0J 1989   6.671   8.605  12.595
    1STR    C0K 1990   6.799   8.672  12.581
    1STR    C0M 1991   6.812   8.786  12.683
    1STR    C0N 1992   6.917   8.572  12.600
    1STR    O0O 1993   7.043   8.634  12.571
    1STR    C0P 1994   7.159   8.596  12.630
    1STR    O0Q 1995   7.171   8.510  12.717
    1STR    N0R 1996   7.259   8.668  12.580
    1STR    C0S 1997   7.397   8.681  12.605
    1STR    C0T 1998   7.464   8.770  12.518
    1STR    C0U 1999   7.598   8.803  12.539
    1STR    C0V 2000   7.671   8.747  12.646
    1STR    C0W 2001   7.810   8.803  12.670
    1STR    C0X 2002   7.611   8.649  12.729
    1STR    N0Y 2003   7.685   8.592  12.835
    1STR   BCK2 2004   7.810   8.541  12.831
    1STR    O10 2005   7.871   8.519  12.727
    1STR    C13 2006   7.472   8.619  12.710
    1STR    C14 2007   5.527   8.791  12.610
    1STR    C15 2008   5.389   8.813  12.591
    1STR    C16 2009   5.294   8.725  12.646
    1STR    C17 2010   5.148   8.749  12.609
    1STR    H1B 2011   5.262   8.427  12.760
    1STR    H1C 2012   5.509   8.510  12.800
    1STR    H1D 2013   5.743   8.598  12.774
    1STR    H1E 2014   6.046   8.738  12.508
    1STR    H1F 2015   6.103   8.843  12.791
    1STR    H1G 2016   6.176   8.903  12.642
    1STR    H1H 2017   6.004   8.923  12.669
    1STR    H1I 2018   6.161   8.533  12.572
    1STR    H1J 2019   6.195   8.594  12.732
    1STR    H1K 2020   6.425   8.537  12.665
    1STR    H1M 2021   6.404   8.572  12.360
    1STR    H1N 2022   6.330   8.442  12.453
    1STR    H1O 2023   6.505   8.451  12.439
    1STR    H1P 2024   6.559   8.740  12.480
    1STR    H1Q 2025   6.544   8.760  12.653
    1STR    H1R 2026   6.805   8.713  12.480
    1STR    H1S 2027   6.911   8.831  12.679
    1STR    H1T 2028   6.796   8.750  12.785
    1STR    H1U 2029   6.741   8.867  12.664
    1STR    H1V 2030   6.905   8.487  12.533
    1STR    H1W 2031   6.916   8.531  12.701
    1STR    H1X 2032   7.221   8.728  12.508
    1STR    H1Y 2033   7.412   8.817  12.436
    1STR    H1Z 2034   7.645   8.874  12.473
    1STR    H20 2035   7.834   8.804  12.777
    1STR    H21 2036   7.885   8.744  12.618
    1STR    H22 2037   7.818   8.906  12.636
    1STR    H23 2038   7.640   8.588  12.926
    1STR    H27 2039   7.422   8.549  12.775
    1STR    H28 2040   5.594   8.863  12.565
    1STR    H29 2041   5.358   8.898  12.532
    1STR    H2A 2042   5.094   8.655  12.597
    1STR    H2B 2043   5.140   8.802  12.514
    1STR    H2C 2044   5.099   8.810  12.685
    1STR   BCK1 2045   5.115  12.828  17.373
    1STR    O03 2046   5.090  12.755   0.028
    1STR    N04 2047   5.229  12.900  17.360
    1STR    C05 2048   5.329  12.926   0.015
    1STR    C06 2049   5.467  12.924  17.419
    1STR    C07 2050   5.571  12.957   0.071
    1STR    N08 2051   5.707  12.961   0.032
    1STR    C09 2052   5.819  12.963   0.108
    1STR    O0A 2053   5.819  12.949   0.230
    1STR    O0B 2054   5.934  12.981   0.036
    1STR    C0C 2055   6.062  12.979   0.103
    1STR    C0D 2056   6.103  12.833   0.128
    1STR    C0E 2057   6.173  13.055   0.025
    1STR    O0F 2058   6.298  13.048   0.096
    1STR    C0G 2059   6.412  13.115   0.039
    1STR    C0H 2060   6.401  13.266   0.065
    1STR    C0I 2061   6.542  13.058   0.101
    1STR    O0J 2062   6.662  13.104   0.036
    1STR    C0K 2063   6.786  13.063   0.097
    1STR    C0M 2064   6.804  12.911   0.088
    1STR    C0N 2065   6.910  13.133   0.033
    1STR    O0O 2066   7.024  13.106   0.115
    1STR    C0P 2067   7.149  13.090   0.064
    1STR    O0Q 2068   7.180  13.098  17.386
    1STR    N0R 2069   7.231  13.064   0.166
    1STR    C0S 2070   7.368  13.037   0.179
    1STR    C0T 2071   7.413  13.023   0.312
    1STR    C0U 2072   7.549  13.002   0.340
    1STR    C0V 2073   7.644  12.996   0.237
    1STR    C0W 2074   7.789  12.991   0.283
    1STR    C0X 2075   7.603  13.002   0.101
    1STR    N0Y 2076   7.691  13.004  17.430
    1STR   BCK2 2077   7.811  12.956  17.393
    1STR    O10 2078   7.857  12.995  17.286
    1STR    C13 2079   7.464  13.025   0.075
    1STR    C14 2080   5.532  12.992   0.202
    1STR    C15 2081   5.397  12.997   0.239
    1STR    C16 2082   5.295  12.968   0.147
    1STR    C17 2083   5.152  12.991   0.193
    1STR    H1B 2084   5.238  12.944  17.270
    1STR    H1C 2085   5.493  12.896  17.318
    1STR    H1D 2086   5.728  12.964  17.374
    1STR    H1E 2087   6.051  13.029   0.199
    1STR    H1F 2088   6.116  12.778   0.035
    1STR    H1G 2089   6.198  12.828   0.183
    1STR    H1H 2090   6.029  12.781   0.188
    1STR    H1I 2091   6.143  13.159   0.012
    1STR    H1J 2092   6.185  13.013  17.365
    1STR    H1K 2093   6.415  13.096  17.371
    1STR    H1M 2094   6.391  13.287   0.172
    1STR    H1N 2095   6.315  13.311   0.015
    1STR    H1O 2096   6.490  13.318   0.029
    1STR    H1P 2097   6.545  13.082   0.208
    1STR    H1Q 2098   6.537  12.949   0.094
    1STR    H1R 2099   6.783  13.093   0.202
    1STR    H1S 2100   6.902  12.881   0.124
    1STR    H1T 2101   6.797  12.877  17.424
    1STR    H1U 2102   6.731  12.856   0.147
    1STR    H1V 2103   6.895  13.241   0.029
    1STR    H1W 2104   6.925  13.100  17.371
    1STR    H1X 2105   7.178  13.065   0.251
    1STR    H1Y 2106   7.344  13.030   0.395
    1STR    H1Z 2107   7.580  12.995   0.443
    1STR    H20 2108   7.822  12.888   0.290
    1STR    H21 2109   7.853  13.047   0.215
    1STR    H22 2110   7.801  13.035   0.381
    1STR    H23 2111   7.653  13.054  17.352
    1STR    H27 2112   7.429  13.035  17.413
    1STR    H28 2113   5.604  13.020   0.278
    1STR    H29 2114   5.371  13.027   0.340
    1STR    H2A 2115   5.089  13.026   0.112
    1STR    H2B 2116   5.147  13.065   0.272
    1STR    H2C 2117   5.110  12.898   0.232
    1STR   BCK1 2118   5.126  12.787   4.161
    1STR    O03 2119   5.091  12.866   4.074
    1STR    N04 2120   5.246  12.728   4.167
    1STR    C05 2121   5.345  12.717   4.068
    1STR    C06 2122   5.483  12.734   4.099
    1STR    C07 2123   5.586  12.712   4.003
    1STR    N08 2124   5.723  12.725   4.038
    1STR    C09 2125   5.831  12.672   3.977
    1STR    O0A 2126   5.826  12.597   3.880
    1STR    O0B 2127   5.949  12.711   4.035
    1STR    C0C 2128   6.075  12.672   3.975
    1STR    C0D 2129   6.104  12.763   3.855
    1STR    C0E 2130   6.192  12.674   4.077
    1STR    O0F 2131   6.315  12.633   4.014
    1STR    C0G 2132   6.430  12.621   4.099
    1STR    C0H 2133   6.419  12.491   4.181
    1STR    C0I 2134   6.560  12.621   4.014
    1STR    O0J 2135   6.679  12.630   4.096
    1STR    C0K 2136   6.806  12.617   4.029
    1STR    C0M 2137   6.828  12.737   3.935
    1STR    C0N 2138   6.922  12.610   4.133
    1STR    O0O 2139   7.047  12.578   4.070
    1STR    C0P 2140   7.164  12.634   4.111
    1STR    O0Q 2141   7.175  12.723   4.195
    1STR    N0R 2142   7.266  12.580   4.044
    1STR    C0S 2143   7.404  12.606   4.040
    1STR    C0T 2144   7.476  12.545   3.935
    1STR    C0U 2145   7.612  12.573   3.915
    1STR    C0V 2146   7.682  12.663   3.999
    1STR    C0W 2147   7.821  12.703   3.956
    1STR    C0X 2148   7.616  12.717   4.112
    1STR    N0Y 2149   7.677  12.811   4.198
    1STR   BCK2 2150   7.797  12.832   4.256
    1STR    O10 2151   7.813  12.938   4.315
    1STR    C13 2152   7.477  12.690   4.129
    1STR    C14 2153   5.546  12.677   3.872
    1STR    C15 2154   5.411  12.656   3.840
    1STR    C16 2155   5.311  12.673   3.937
    1STR    C17 2156   5.169  12.634   3.898
    1STR    H1B 2157   5.264  12.679   4.254
    1STR    H1C 2158   5.509  12.764   4.200
    1STR    H1D 2159   5.746  12.778   4.120
    1STR    H1E 2160   6.065  12.569   3.939
    1STR    H1F 2161   6.113  12.867   3.885
    1STR    H1G 2162   6.196  12.734   3.805
    1STR    H1H 2163   6.024  12.757   3.780
    1STR    H1I 2164   6.167  12.608   4.159
    1STR    H1J 2165   6.203  12.774   4.119
    1STR    H1K 2166   6.435  12.707   4.167
    1STR    H1M 2167   6.407  12.405   4.115
    1STR    H1N 2168   6.336  12.493   4.251
    1STR    H1O 2169   6.510  12.475   4.239
    1STR    H1P 2170   6.563  12.532   3.952
    1STR    H1Q 2171   6.556  12.707   3.947
    1STR    H1R 2172   6.806  12.524   3.972
    1STR    H1S 2173   6.928  12.734   3.892
    1STR    H1T 2174   6.819  12.831   3.989
    1STR    H1U 2175   6.758  12.738   3.852
    1STR    H1V 2176   6.901  12.531   4.206
    1STR    H1W 2177   6.928  12.703   4.190
    1STR    H1X 2178   7.232  12.508   3.983
    1STR    H1Y 2179   7.427  12.478   3.866
    1STR    H1Z 2180   7.663  12.529   3.830
    1STR    H20 2181   7.846  12.804   3.989
    1STR    H21 2182   7.895  12.634   3.996
    1STR    H22 2183   7.831  12.703   3.847
    1STR    H23 2184   7.614  12.883   4.231
    1STR    H27 2185   7.424  12.736   4.212
    1STR    H28 2186   5.619  12.662   3.794
    1STR    H29 2187   5.386  12.625   3.740
    1STR    H2A 2188   5.117  12.587   3.981
    1STR    H2B 2189   5.169  12.562   3.816
    1STR    H2C 2190   5.113  12.721   3.866
    1STR   BCK1 2191   5.123  12.954   8.580
    1STR    O03 2192   5.087  13.024   8.674
    1STR    N04 2193   5.239  12.971   8.513
    1STR    C05 2194   5.332  13.078   8.515
    1STR    C06 2195   5.473  13.053   8.512
    1STR    C07 2196   5.570  13.159   8.505
    1STR    N08 2197   5.709  13.132   8.495
    1STR    C09 2198   5.816  13.216   8.504
    1STR    O0A 2199   5.807  13.335   8.533
    1STR    O0B 2200   5.936  13.154   8.479
    1STR    C0C 2201   6.060  13.229   8.488
    1STR    C0D 2202   6.097  13.249   8.636
    1STR    C0E 2203   6.179  13.164   8.411
    1STR    O0F 2204   6.301  13.239   8.429
    1STR    C0G 2205   6.419  13.192   8.361
    1STR    C0H 2206   6.411  13.232   8.213
    1STR    C0I 2207   6.547  13.251   8.427
    1STR    O0J 2208   6.669  13.188   8.381
    1STR    C0K 2209   6.793  13.243   8.430
    1STR    C0M 2210   6.804  13.222   8.582
    1STR    C0N 2211   6.916  13.179   8.360
    1STR    O0O 2212   7.037  13.247   8.398
    1STR    C0P 2213   7.151  13.180   8.430
    1STR    O0Q 2214   7.162  13.059   8.443
    1STR    N0R 2215   7.251  13.268   8.446
    1STR    C0S 2216   7.388  13.257   8.476
    1STR    C0T 2217   7.460  13.377   8.481
    1STR    C0U 2218   7.599  13.378   8.503
    1STR    C0V 2219   7.671  13.258   8.521
    1STR    C0W 2220   7.821  13.270   8.527
    1STR    C0X 2221   7.601  13.133   8.521
    1STR    N0Y 2222   7.663  13.007   8.524
    1STR   BCK2 2223   7.772  12.943   8.570
    1STR    O10 2224   7.789  12.828   8.532
    1STR    C13 2225   7.460  13.136   8.497
    1STR    C14 2226   5.520  13.291   8.504
    1STR    C15 2227   5.382  13.317   8.505
    1STR    C16 2228   5.288  13.213   8.508
    1STR    C17 2229   5.142  13.252   8.494
    1STR    H1B 2230   5.259  12.896   8.448
    1STR    H1C 2231   5.507  12.951   8.513
    1STR    H1D 2232   5.737  13.037   8.477
    1STR    H1E 2233   6.043  13.328   8.443
    1STR    H1F 2234   6.115  13.154   8.686
    1STR    H1G 2235   6.187  13.309   8.646
    1STR    H1H 2236   6.018  13.301   8.690
    1STR    H1I 2237   6.153  13.158   8.305
    1STR    H1J 2238   6.194  13.062   8.445
    1STR    H1K 2239   6.424  13.083   8.369
    1STR    H1M 2240   6.399  13.340   8.202
    1STR    H1N 2241   6.328  13.184   8.160
    1STR    H1O 2242   6.502  13.204   8.160
    1STR    H1P 2243   6.551  13.358   8.410
    1STR    H1Q 2244   6.537  13.236   8.535
    1STR    H1R 2245   6.794  13.350   8.408
    1STR    H1S 2246   6.902  13.254   8.618
    1STR    H1T 2247   6.794  13.116   8.607
    1STR    H1U 2248   6.730  13.278   8.638
    1STR    H1V 2249   6.907  13.188   8.252
    1STR    H1W 2250   6.922  13.072   8.381
    1STR    H1X 2251   7.217  13.360   8.425
    1STR    H1Y 2252   7.411  13.472   8.464
    1STR    H1Z 2253   7.651  13.472   8.502
    1STR    H20 2254   7.854  13.268   8.631
    1STR    H21 2255   7.869  13.189   8.472
    1STR    H22 2256   7.856  13.363   8.483
    1STR    H23 2257   7.610  12.939   8.471
    1STR    H27 2258   7.405  13.043   8.492
    1STR    H28 2259   5.585  13.377   8.497
    1STR    H29 2260   5.349  13.420   8.500
    1STR    H2A 2261   5.086  13.178   8.436
    1STR    H2B 2262   5.131  13.347   8.442
    1STR    H2C 2263   5.096  13.262   8.592
    1STR   BCK1 2264   5.117  12.872  12.974
    1STR    O03 2265   5.063  12.982  12.962
    1STR    N04 2266   5.245  12.870  13.015
    1STR    C05 2267   5.339  12.774  13.057
    1STR    C06 2268   5.477  12.800  13.030
    1STR    C07 2269   5.582  12.717  13.079
    1STR    N08 2270   5.718  12.752  13.060
    1STR    C09 2271   5.829  12.703  13.118
    1STR    O0A 2272   5.830  12.613  13.202
    1STR    O0B 2273   5.943  12.765  13.074
    1STR    C0C 2274   6.072  12.712  13.110
    1STR    C0D 2275   6.110  12.603  13.008
    1STR    C0E 2276   6.183  12.821  13.119
    1STR    O0F 2277   6.307  12.761  13.159
    1STR    C0G 2278   6.420  12.849  13.177
    1STR    C0H 2279   6.406  12.922  13.311
    1STR    C0I 2280   6.550  12.765  13.172
    1STR    O0J 2281   6.669  12.848  13.177
    1STR    C0K 2282   6.794  12.778  13.187
    1STR    C0M 2283   6.822  12.699  13.058
    1STR    C0N 2284   6.910  12.877  13.215
    1STR    O0O 2285   7.028  12.805  13.253
    1STR    C0P 2286   7.151  12.837  13.205
    1STR    O0Q 2287   7.176  12.928  13.128
    1STR    N0R 2288   7.239  12.749  13.252
    1STR    C0S 2289   7.375  12.725  13.223
    1STR    C0T 2290   7.423  12.596  13.253
    1STR    C0U 2291   7.552  12.557  13.215
    1STR    C0V 2292   7.638  12.647  13.149
    1STR    C0W 2293   7.765  12.588  13.090
    1STR    C0X 2294   7.598  12.782  13.129
    1STR    N0Y 2295   7.678  12.877  13.064
    1STR   BCK2 2296   7.808  12.912  13.067
    1STR    O10 2297   7.848  12.995  12.987
    1STR    C13 2298   7.464  12.818  13.163
    1STR    C14 2299   5.543  12.600  13.150
    1STR    C15 2300   5.409  12.574  13.179
    1STR    C16 2301   5.307  12.663  13.139
    1STR    C17 2302   5.169  12.638  13.197
    1STR    H1B 2303   5.279  12.965  13.012
    1STR    H1C 2304   5.503  12.887  12.973
    1STR    H1D 2305   5.738  12.826  12.996
    1STR    H1E 2306   6.067  12.666  13.209
    1STR    H1F 2307   6.117  12.644  12.908
    1STR    H1G 2308   6.205  12.557  13.033
    1STR    H1H 2309   6.035  12.524  13.007
    1STR    H1I 2310   6.152  12.897  13.191
    1STR    H1J 2311   6.194  12.871  13.023
    1STR    H1K 2312   6.423  12.921  13.095
    1STR    H1M 2313   6.396  12.851  13.393
    1STR    H1N 2314   6.320  12.989  13.313
    1STR    H1O 2315   6.495  12.983  13.331
    1STR    H1P 2316   6.550  12.694  13.255
    1STR    H1Q 2317   6.550  12.707  13.080
    1STR    H1R 2318   6.789  12.709  13.272
    1STR    H1S 2319   6.922  12.655  13.060
    1STR    H1T 2320   6.818  12.764  12.971
    1STR    H1U 2321   6.752  12.617  13.043
    1STR    H1V 2322   6.884  12.944  13.296
    1STR    H1W 2323   6.928  12.941  13.127
    1STR    H1X 2324   7.194  12.684  13.313
    1STR    H1Y 2325   7.359  12.523  13.301
    1STR    H1Z 2326   7.584  12.456  13.233
    1STR    H20 2327   7.801  12.647  13.005
    1STR    H21 2328   7.844  12.582  13.165
    1STR    H22 2329   7.747  12.488  13.052
    1STR    H23 2330   7.628  12.936  12.999
    1STR    H27 2331   7.429  12.918  13.142
    1STR    H28 2332   5.616  12.529  13.185
    1STR    H29 2333   5.384  12.487  13.238
    1STR    H2A 2334   5.112  12.730  13.206
    1STR    H2B 2335   5.176  12.596  13.297
    1STR    H2C 2336   5.114  12.567  13.135
    1STR   BCK1 2337   9.482  17.206  17.184
    1STR    O03 2338   9.439  17.321  17.176
    1STR    N04 2339   9.603  17.165  17.141
    1STR    C05 2340   9.697  17.230  17.059
    1STR    C06 2341   9.837  17.219  17.086
    1STR    C07 2342   9.937  17.272  16.999
    1STR    N08 2343  10.075  17.258  17.026
    1STR    C09 2344  10.180  17.264  16.940
    1STR    O0A 2345  10.169  17.276  16.819
    1STR    O0B 2346  10.301  17.253  17.003
    1STR    C0C 2347  10.424  17.275  16.930
    1STR    C0D 2348  10.451  17.426  16.920
    1STR    C0E 2349  10.546  17.201  16.993
    1STR    O0F 2350  10.667  17.223  16.919
    1STR    C0G 2351  10.784  17.150  16.962
    1STR    C0H 2352  10.776  17.008  16.906
    1STR    C0I 2353  10.914  17.220  16.915
    1STR    O0J 2354  11.032  17.161  16.974
    1STR    C0K 2355  11.160  17.207  16.928
    1STR    C0M 2356  11.178  17.358  16.957
    1STR    C0N 2357  11.276  17.128  16.995
    1STR    O0O 2358  11.402  17.161  16.936
    1STR    C0P 2359  11.518  17.159  17.008
    1STR    O0Q 2360  11.528  17.133  17.127
    1STR    N0R 2361  11.619  17.193  16.928
    1STR    C0S 2362  11.756  17.218  16.946
    1STR    C0T 2363  11.822  17.270  16.833
    1STR    C0U 2364  11.956  17.310  16.839
    1STR    C0V 2365  12.030  17.298  16.959
    1STR    C0W 2366  12.169  17.359  16.960
    1STR    C0X 2367  11.971  17.236  17.073
    1STR    N0Y 2368  12.047  17.217  17.190
    1STR   BCK2 2369  12.171  17.165  17.199
    1STR    O10 2370  12.228  17.111  17.106
    1STR    C13 2371  11.832  17.200  17.066
    1STR    C14 2372   9.892  17.342  16.884
    1STR    C15 2373   9.755  17.351  16.854
    1STR    C16 2374   9.658  17.293  16.938
    1STR    C17 2375   9.514  17.296  16.889
    1STR    H1B 2376   9.627  17.073  17.173
    1STR    H1C 2377   9.868  17.169  17.176
    1STR    H1D 2378  10.104  17.241  17.121
    1STR    H1E 2379  10.412  17.235  16.828
    1STR    H1F 2380  10.464   0.030  17.019
    1STR    H1G 2381  10.541   0.006  16.862
    1STR    H1H 2382  10.368   0.037  16.870
    1STR    H1I 2383  10.523  17.094  16.997
    1STR    H1J 2384  10.559  17.234  17.096
    1STR    H1K 2385  10.786  17.147  17.071
    1STR    H1M 2386  10.767  17.009  16.797
    1STR    H1N 2387  10.691  16.952  16.945
    1STR    H1O 2388  10.866  16.952  16.930
    1STR    H1P 2389  10.921  17.217  16.806
    1STR    H1Q 2390  10.909  17.326  16.943
    1STR    H1R 2391  11.166  17.190  16.820
    1STR    H1S 2392  11.279  17.390  16.931
    1STR    H1T 2393  11.163  17.379  17.062
    1STR    H1U 2394  11.109  17.419  16.899
    1STR    H1V 2395  11.261  17.020  16.983
    1STR    H1W 2396  11.277  17.146  17.103
    1STR    H1X 2397  11.585  17.206  16.834
    1STR    H1Y 2398  11.771  17.282  16.739
    1STR    H1Z 2399  12.003  17.352  16.752
    1STR    H20 2400  12.196  17.395  17.059
    1STR    H21 2401  12.243  17.286  16.927
    1STR    H22 2402  12.175   0.005  16.893
    1STR    H23 2403  12.005  17.244  17.278
    1STR    H27 2404  11.784  17.157  17.153
    1STR    H28 2405   9.961  17.388  16.816
    1STR    H29 2406   9.725  17.402  16.763
    1STR    H2A 2407   9.461  17.205  16.917
    1STR    H2B 2408   9.509  17.303  16.780
    1STR    H2C 2409   9.462  17.381  16.931
    1STR   BCK1 2410   9.488  17.246   4.304
    1STR    O03 2411   9.470  17.227   4.424
    1STR    N04 2412   9.596  17.309   4.253
    1STR    C05 2413   9.693  17.385   4.322
    1STR    C06 2414   9.833  17.370   4.294
    1STR    C07 2415   9.933   0.010   4.358
    1STR    N08 2416  10.071  17.437   4.325
    1STR    C09 2417  10.180   0.046   4.388
    1STR    O0A 2418  10.176   0.108   4.495
    1STR    O0B 2419  10.298   0.020   4.322
    1STR    C0C 2420  10.424   0.057   4.382
    1STR    C0D 2421  10.462  17.390   4.487
    1STR    C0E 2422  10.540   0.076   4.280
    1STR    O0F 2423  10.662   0.112   4.347
    1STR    C0G 2424  10.779   0.135   4.266
    1STR    C0H 2425  10.771   0.276   4.206
    1STR    C0I 2426  10.907   0.119   4.353
    1STR    O0J 2427  11.030   0.123   4.276
    1STR    C0K 2428  11.153   0.115   4.351
    1STR    C0M 2429  11.164  17.420   4.424
    1STR    C0N 2430  11.279   0.134   4.262
    1STR    O0O 2431  11.395   0.152   4.345
    1STR    C0P 2432  11.516   0.099   4.313
    1STR    O0Q 2433  11.539   0.026   4.218
    1STR    N0R 2434  11.606   0.140   4.403
    1STR    C0S 2435  11.745   0.120   4.420
    1STR    C0T 2436  11.804   0.195   4.523
    1STR    C0U 2437  11.943   0.189   4.546
    1STR    C0V 2438  12.027   0.108   4.466
    1STR    C0W 2439  12.176   0.125   4.488
    1STR    C0X 2440  11.970   0.025   4.365
    1STR    N0Y 2441  12.046  17.388   4.275
    1STR   BCK2 2442  12.162  17.318   4.268
    1STR    O10 2443  12.194  17.276   4.157
    1STR    C13 2444  11.829   0.034   4.343
    1STR    C14 2445   9.888   0.106   4.451
    1STR    C15 2446   9.751   0.124   4.478
    1STR    C16 2447   9.654   0.047   4.412
    1STR    C17 2448   9.508   0.083   4.438
    1STR    H1B 2449   9.604  17.304   4.153
    1STR    H1C 2450   9.863  17.295   4.223
    1STR    H1D 2451  10.095  17.383   4.245
    1STR    H1E 2452  10.412   0.152   4.434
    1STR    H1F 2453  10.476  17.292   4.440
    1STR    H1G 2454  10.554  17.416   4.538
    1STR    H1H 2455  10.384  17.380   4.563
    1STR    H1I 2456  10.512   0.154   4.209
    1STR    H1J 2457  10.555  17.425   4.223
    1STR    H1K 2458  10.783   0.061   4.186
    1STR    H1M 2459  10.761   0.352   4.284
    1STR    H1N 2460  10.687   0.288   4.138
    1STR    H1O 2461  10.861   0.299   4.149
    1STR    H1P 2462  10.909   0.196   4.430
    1STR    H1Q 2463  10.900   0.023   4.404
    1STR    H1R 2464  11.153   0.196   4.425
    1STR    H1S 2465  11.262  17.409   4.471
    1STR    H1T 2466  11.153  17.337   4.353
    1STR    H1U 2467  11.090  17.407   4.502
    1STR    H1V 2468  11.268   0.223   4.200
    1STR    H1W 2469  11.291   0.051   4.193
    1STR    H1X 2470  11.562   0.201   4.469
    1STR    H1Y 2471  11.746   0.261   4.585
    1STR    H1Z 2472  11.986   0.251   4.623
    1STR    H20 2473  12.211   0.050   4.559
    1STR    H21 2474  12.230   0.116   4.394
    1STR    H22 2475  12.199   0.223   4.529
    1STR    H23 2476  12.003  17.381   4.184
    1STR    H27 2477  11.784  17.417   4.263
    1STR    H28 2478   9.956   0.171   4.503
    1STR    H29 2479   9.722   0.200   4.548
    1STR    H2A 2480   9.448   0.071   4.348
    1STR    H2B 2481   9.498   0.187   4.470
    1STR    H2C 2482   9.467   0.020   4.517
    1STR   BCK1 2483   9.478  17.145   8.565
    1STR    O03 2484   9.453  17.161   8.446
    1STR    N04 2485   9.596  17.101   8.612
    1STR    C05 2486   9.700  17.039   8.541
    1STR    C06 2487   9.836  17.077   8.562
    1STR    C07 2488   9.944  17.010   8.498
    1STR    N08 2489  10.079  17.045   8.522
    1STR    C09 2490  10.189  16.968   8.510
    1STR    O0A 2491  10.187  16.849   8.484
    1STR    O0B 2492  10.305  17.038   8.531
    1STR    C0C 2493  10.432  16.975   8.502
    1STR    C0D 2494  10.460  16.987   8.351
    1STR    C0E 2495  10.548  17.034   8.586
    1STR    O0F 2496  10.672  16.965   8.558
    1STR    C0G 2497  10.786  17.001   8.636
    1STR    C0H 2498  10.774  16.936   8.775
    1STR    C0I 2499  10.915  16.954   8.564
    1STR    O0J 2500  11.034  17.001   8.631
    1STR    C0K 2501  11.160  16.952   8.580
    1STR    C0M 2502  11.186  17.007   8.439
    1STR    C0N 2503  11.276  16.995   8.675
    1STR    O0O 2504  11.398  16.928   8.640
    1STR    C0P 2505  11.517  16.993   8.637
    1STR    O0Q 2506  11.532  17.114   8.651
    1STR    N0R 2507  11.616  16.907   8.611
    1STR    C0S 2508  11.753  16.924   8.585
    1STR    C0T 2509  11.817  16.821   8.514
    1STR    C0U 2510  11.951  16.834   8.474
    1STR    C0V 2511  12.026  16.949   8.505
    1STR    C0W 2512  12.161  16.964   8.439
    1STR    C0X 2513  11.969  17.049   8.589
    1STR    N0Y 2514  12.036  17.167   8.625
    1STR   BCK2 2515  12.160  17.200   8.667
    1STR    O10 2516  12.184  17.319   8.685
    1STR    C13 2517  11.831  17.037   8.624
    1STR    C14 2518   9.912  16.906   8.408
    1STR    C15 2519   9.779  16.866   8.388
    1STR    C16 2520   9.674  16.929   8.456
    1STR    C17 2521   9.534  16.870   8.439
    1STR    H1B 2522   9.606  17.108   8.712
    1STR    H1C 2523   9.857  17.159   8.629
    1STR    H1D 2524  10.098  17.139   8.552
    1STR    H1E 2525  10.426  16.869   8.527
    1STR    H1F 2526  10.466  17.092   8.320
    1STR    H1G 2527  10.553  16.938   8.324
    1STR    H1H 2528  10.380  16.941   8.293
    1STR    H1I 2529  10.522  17.025   8.691
    1STR    H1J 2530  10.559  17.140   8.565
    1STR    H1K 2531  10.790  17.110   8.646
    1STR    H1M 2532  10.762  16.828   8.767
    1STR    H1N 2533  10.690  16.975   8.832
    1STR    H1O 2534  10.864  16.955   8.834
    1STR    H1P 2535  10.915  16.846   8.557
    1STR    H1Q 2536  10.912  16.993   8.462
    1STR    H1R 2537  11.157  16.843   8.579
    1STR    H1S 2538  11.285  16.980   8.404
    1STR    H1T 2539  11.179  17.115   8.438
    1STR    H1U 2540  11.114  16.968   8.366
    1STR    H1V 2541  11.252  16.969   8.778
    1STR    H1W 2542  11.288  17.104   8.674
    1STR    H1X 2543  11.580  16.813   8.607
    1STR    H1Y 2544  11.764  16.732   8.486
    1STR    H1Z 2545  11.997  16.756   8.415
    1STR    H20 2546  12.190  17.069   8.429
    1STR    H21 2547  12.238  16.911   8.495
    1STR    H22 2548  12.160  16.923   8.338
    1STR    H23 2549  11.979  17.250   8.626
    1STR    H27 2550  11.784  17.115   8.682
    1STR    H28 2551   9.989  16.854   8.352
    1STR    H29 2552   9.759  16.784   8.320
    1STR    H2A 2553   9.477  16.876   8.532
    1STR    H2B 2554   9.538  16.765   8.410
    1STR    H2C 2555   9.480  16.924   8.361
    1STR   BCK1 2556   9.483  17.295  12.871
    1STR    O03 2557   9.446  17.392  12.937
    1STR    N04 2558   9.600  17.289  12.803
    1STR    C05 2559   9.692  17.391  12.772
    1STR    C06 2560   9.833  17.368  12.780
    1STR    C07 2561   9.930   0.025  12.739
    1STR    N08 2562  10.070  17.439  12.745
    1STR    C09 2563  10.174   0.066  12.691
    1STR    O0A 2564  10.163   0.166  12.621
    1STR    O0B 2565  10.297   0.011  12.721
    1STR    C0C 2566  10.419   0.081  12.687
    1STR    C0D 2567  10.449   0.183  12.799
    1STR    C0E 2568  10.540  17.426  12.664
    1STR    O0F 2569  10.663   0.058  12.639
    1STR    C0G 2570  10.780  17.421  12.607
    1STR    C0H 2571  10.772  17.379  12.459
    1STR    C0I 2572  10.910   0.062  12.633
    1STR    O0J 2573  11.029  17.420  12.629
    1STR    C0K 2574  11.156   0.050  12.638
    1STR    C0M 2575  11.168   0.122  12.774
    1STR    C0N 2576  11.276  17.393  12.620
    1STR    O0O 2577  11.401   0.024  12.616
    1STR    C0P 2578  11.517  17.411  12.665
    1STR    O0Q 2579  11.527  17.303  12.723
    1STR    N0R 2580  11.617   0.054  12.637
    1STR    C0S 2581  11.755   0.058  12.664
    1STR    C0T 2582  11.825   0.160  12.595
    1STR    C0U 2583  11.960   0.185  12.621
    1STR    C0V 2584  12.031   0.109  12.716
    1STR    C0W 2585  12.172   0.155  12.750
    1STR    C0X 2586  11.968  17.439  12.781
    1STR    N0Y 2587  12.040  17.364  12.877
    1STR   BCK2 2588  12.163  17.310  12.862
    1STR    O10 2589  12.220  17.298  12.755
    1STR    C13 2590  11.829  17.417  12.756
    1STR    C14 2591   9.880   0.149  12.693
    1STR    C15 2592   9.742   0.173  12.681
    1STR    C16 2593   9.648   0.075  12.717
    1STR    C17 2594   9.502   0.105  12.687
    1STR    H1B 2595   9.620  17.198  12.767
    1STR    H1C 2596   9.867  17.274  12.819
    1STR    H1D 2597  10.099  17.358  12.798
    1STR    H1E 2598  10.404   0.137  12.594
    1STR    H1F 2599  10.466   0.134  12.895
    1STR    H1G 2600  10.538   0.242  12.775
    1STR    H1H 2601  10.367   0.254  12.811
    1STR    H1I 2602  10.516  17.362  12.579
    1STR    H1J 2603  10.552  17.362  12.751
    1STR    H1K 2604  10.783  17.332  12.671
    1STR    H1M 2605  10.761   0.027  12.395
    1STR    H1N 2606  10.688  17.314  12.438
    1STR    H1O 2607  10.863  17.328  12.427
    1STR    H1P 2608  10.917   0.144  12.561
    1STR    H1Q 2609  10.901   0.109  12.731
    1STR    H1R 2610  11.161   0.124  12.558
    1STR    H1S 2611  11.267   0.167  12.785
    1STR    H1T 2612  11.155   0.052  12.857
    1STR    H1U 2613  11.097   0.203  12.785
    1STR    H1V 2614  11.267  17.338  12.527
    1STR    H1W 2615  11.277  17.318  12.700
    1STR    H1X 2616  11.582   0.132  12.584
    1STR    H1Y 2617  11.775   0.222  12.523
    1STR    H1Z 2618  12.010   0.266  12.570
    1STR    H20 2619  12.195   0.139  12.855
    1STR    H21 2620  12.245   0.101  12.689
    1STR    H22 2621  12.185   0.261  12.731
    1STR    H23 2622  11.998  17.353  12.967
    1STR    H27 2623  11.777  17.337  12.808
    1STR    H28 2624   9.945   0.230  12.663
    1STR    H29 2625   9.709   0.268  12.642
    1STR    H2A 2626   9.448   0.015  12.657
    1STR    H2B 2627   9.493   0.176  12.605
    1STR    H2C 2628   9.454   0.148  12.775
    1STR   BCK1 2629   9.461   4.116  17.352
    1STR    O03 2630   9.457   3.994  17.348
    1STR    N04 2631   9.569   4.188  17.388
    1STR    C05 2632   9.678   4.147   0.028
    1STR    C06 2633   9.814   4.168  17.430
    1STR    C07 2634   9.924   4.139   0.078
    1STR    N08 2635  10.059   4.165   0.041
    1STR    C09 2636  10.174   4.140   0.107
    1STR    O0A 2637  10.180   4.083   0.216
    1STR    O0B 2638  10.287   4.184   0.042
    1STR    C0C 2639  10.418   4.156   0.098
    1STR    C0D 2640  10.457   4.011   0.068
    1STR    C0E 2641  10.529   4.254   0.051
    1STR    O0F 2642  10.654   4.222   0.115
    1STR    C0G 2643  10.768   4.305   0.084
    1STR    C0H 2644  10.757   4.437   0.162
    1STR    C0I 2645  10.899   4.230   0.123
    1STR    O0J 2646  11.017   4.300   0.080
    1STR    C0K 2647  11.143   4.248   0.126
    1STR    C0M 2648  11.169   4.108   0.067
    1STR    C0N 2649  11.261   4.342   0.090
    1STR    O0O 2650  11.377   4.303   0.164
    1STR    C0P 2651  11.499   4.291   0.108
    1STR    O0Q 2652  11.529   4.316  17.432
    1STR    N0R 2653  11.581   4.242   0.201
    1STR    C0S 2654  11.714   4.197   0.202
    1STR    C0T 2655  11.748   4.117   0.311
    1STR    C0U 2656  11.877   4.065   0.324
    1STR    C0V 2657  11.977   4.093   0.229
    1STR    C0W 2658  12.110   4.028   0.257
    1STR    C0X 2659  11.949   4.178   0.118
    1STR    N0Y 2660  12.040   4.228   0.021
    1STR   BCK2 2661  12.169   4.220  17.419
    1STR    O10 2662  12.204   4.302  17.334
    1STR    C13 2663  11.815   4.227   0.106
    1STR    C14 2664   9.890   4.088   0.205
    1STR    C15 2665   9.757   4.068   0.244
    1STR    C16 2666   9.651   4.099   0.158
    1STR    C17 2667   9.509   4.086   0.212
    1STR    H1B 2668   9.562   4.287  17.369
    1STR    H1C 2669   9.834   4.208  17.332
    1STR    H1D 2670  10.075   4.208  17.391
    1STR    H1E 2671  10.411   4.168   0.207
    1STR    H1F 2672  10.466   3.993  17.401
    1STR    H1G 2673  10.552   3.986   0.115
    1STR    H1H 2674  10.383   3.941   0.108
    1STR    H1I 2675  10.500   4.356   0.075
    1STR    H1J 2676  10.541   4.248  17.383
    1STR    H1K 2677  10.771   4.324  17.417
    1STR    H1M 2678  10.747   4.419   0.269
    1STR    H1N 2679  10.671   4.496   0.130
    1STR    H1O 2680  10.846   4.498   0.147
    1STR    H1P 2681  10.901   4.214   0.231
    1STR    H1Q 2682  10.897   4.131   0.077
    1STR    H1R 2683  11.139   4.241   0.235
    1STR    H1S 2684  11.269   4.072   0.094
    1STR    H1T 2685  11.164   4.110  17.398
    1STR    H1U 2686  11.098   4.034   0.103
    1STR    H1V 2687  11.236   4.445   0.117
    1STR    H1W 2688  11.279   4.343  17.422
    1STR    H1X 2689  11.531   4.232   0.287
    1STR    H1Y 2690  11.676   4.092   0.388
    1STR    H1Z 2691  11.899   4.002   0.408
    1STR    H20 2692  12.135   3.960   0.176
    1STR    H21 2693  12.187   4.103   0.272
    1STR    H22 2694  12.109   3.967   0.348
    1STR    H23 2695  11.998   4.296  17.401
    1STR    H27 2696  11.787   4.291   0.023
    1STR    H28 2697   9.964   4.063   0.279
    1STR    H29 2698   9.737   4.031   0.344
    1STR    H2A 2699   9.450   4.173   0.186
    1STR    H2B 2700   9.508   4.078   0.321
    1STR    H2C 2701   9.462   3.997   0.171
    1STR   BCK1 2702   9.485   4.080   4.131
    1STR    O03 2703   9.443   4.177   4.069
    1STR    N04 2704   9.608   4.026   4.116
    1STR    C05 2705   9.704   4.046   4.016
    1STR    C06 2706   9.843   4.052   4.049
    1STR    C07 2707   9.945   4.060   3.949
    1STR    N08 2708  10.082   4.061   3.984
    1STR    C09 2709  10.189   4.026   3.909
    1STR    O0A 2710  10.181   3.979   3.795
    1STR    O0B 2711  10.308   4.048   3.972
    1STR    C0C 2712  10.432   4.031   3.901
    1STR    C0D 2713  10.459   4.156   3.816
    1STR    C0E 2714  10.551   4.001   3.996
    1STR    O0F 2715  10.674   3.981   3.924
    1STR    C0G 2716  10.788   3.942   4.002
    1STR    C0H 2717  10.778   3.791   4.031
    1STR    C0I 2718  10.920   3.974   3.925
    1STR    O0J 2719  11.037   3.953   4.007
    1STR    C0K 2720  11.165   3.964   3.942
    1STR    C0M 2721  11.187   4.106   3.888
    1STR    C0N 2722  11.279   3.927   4.041
    1STR    O0O 2723  11.406   3.917   3.973
    1STR    C0P 2724  11.522   3.955   4.032
    1STR    O0Q 2725  11.535   4.005   4.143
    1STR    N0R 2726  11.622   3.935   3.945
    1STR    C0S 2727  11.759   3.968   3.944
    1STR    C0T 2728  11.818   3.975   3.817
    1STR    C0U 2729  11.950   4.018   3.801
    1STR    C0V 2730  12.029   4.052   3.913
    1STR    C0W 2731  12.165   4.113   3.882
    1STR    C0X 2732  11.978   4.033   4.045
    1STR    N0Y 2733  12.057   4.058   4.160
    1STR   BCK2 2734  12.187   4.027   4.181
    1STR    O10 2735  12.255   3.959   4.106
    1STR    C13 2736  11.840   3.996   4.058
    1STR    C14 2737   9.903   4.068   3.815
    1STR    C15 2738   9.768   4.059   3.780
    1STR    C16 2739   9.668   4.045   3.878
    1STR    C17 2740   9.526   4.021   3.830
    1STR    H1B 2741   9.632   3.963   4.191
    1STR    H1C 2742   9.871   4.049   4.153
    1STR    H1D 2743  10.107   4.090   4.077
    1STR    H1E 2744  10.423   3.945   3.834
    1STR    H1F 2745  10.468   4.245   3.878
    1STR    H1G 2746  10.551   4.146   3.758
    1STR    H1H 2747  10.378   4.174   3.745
    1STR    H1I 2748  10.526   3.913   4.055
    1STR    H1J 2749  10.563   4.084   4.067
    1STR    H1K 2750  10.790   3.998   4.095
    1STR    H1M 2751  10.769   3.734   3.939
    1STR    H1N 2752  10.693   3.767   4.094
    1STR    H1O 2753  10.868   3.756   4.083
    1STR    H1P 2754  10.925   3.913   3.834
    1STR    H1Q 2755  10.915   4.078   3.893
    1STR    H1R 2756  11.168   3.892   3.860
    1STR    H1S 2757  11.287   4.118   3.848
    1STR    H1T 2758  11.173   4.180   3.967
    1STR    H1U 2759  11.118   4.131   3.807
    1STR    H1V 2760  11.259   3.831   4.088
    1STR    H1W 2761  11.284   4.000   4.123
    1STR    H1X 2762  11.586   3.891   3.862
    1STR    H1Y 2763  11.761   3.951   3.728
    1STR    H1Z 2764  11.992   4.026   3.702
    1STR    H20 2765  12.197   4.180   3.962
    1STR    H21 2766  12.239   4.035   3.869
    1STR    H22 2767  12.162   4.171   3.790
    1STR    H23 2768  12.009   4.091   4.241
    1STR    H27 2769  11.796   3.986   4.156
    1STR    H28 2770   9.975   4.078   3.735
    1STR    H29 2771   9.740   4.062   3.675
    1STR    H2A 2772   9.473   3.953   3.896
    1STR    H2B 2773   9.525   3.977   3.731
    1STR    H2C 2774   9.471   4.116   3.826
    1STR   BCK1 2775   9.484   4.224   8.620
    1STR    O03 2776   9.449   4.271   8.727
    1STR    N04 2777   9.600   4.254   8.557
    1STR    C05 2778   9.694   4.357   8.585
    1STR    C06 2779   9.835   4.333   8.573
    1STR    C07 2780   9.934   4.435   8.593
    1STR    N08 2781  10.073   4.411   8.575
    1STR    C09 2782  10.180   4.489   8.602
    1STR    O0A 2783  10.173   4.599   8.656
    1STR    O0B 2784  10.300   4.434   8.563
    1STR    C0C 2785  10.425   4.501   8.595
    1STR    C0D 2786  10.461   4.472   8.742
    1STR    C0E 2787  10.544   4.463   8.501
    1STR    O0F 2788  10.667   4.530   8.541
    1STR    C0G 2789  10.784   4.508   8.460
    1STR    C0H 2790  10.776   4.597   8.335
    1STR    C0I 2791  10.914   4.538   8.541
    1STR    O0J 2792  11.036   4.498   8.473
    1STR    C0K 2793  11.162   4.530   8.537
    1STR    C0M 2794  11.171   4.461   8.675
    1STR    C0N 2795  11.285   4.489   8.451
    1STR    O0O 2796  11.408   4.539   8.508
    1STR    C0P 2797  11.527   4.474   8.490
    1STR    O0Q 2798  11.543   4.367   8.433
    1STR    N0R 2799  11.626   4.549   8.543
    1STR    C0S 2800  11.765   4.532   8.558
    1STR    C0T 2801  11.839   4.652   8.567
    1STR    C0U 2802  11.974   4.650   8.603
    1STR    C0V 2803  12.041   4.529   8.633
    1STR    C0W 2804  12.177   4.543   8.697
    1STR    C0X 2805  11.973   4.405   8.617
    1STR    N0Y 2806  12.028   4.281   8.657
    1STR   BCK2 2807  12.148   4.218   8.666
    1STR    O10 2808  12.154   4.115   8.732
    1STR    C13 2809  11.835   4.409   8.579
    1STR    C14 2810   9.885   4.564   8.626
    1STR    C15 2811   9.747   4.590   8.635
    1STR    C16 2812   9.652   4.490   8.612
    1STR    C17 2813   9.506   4.533   8.609
    1STR    H1B 2814   9.621   4.195   8.478
    1STR    H1C 2815   9.869   4.233   8.550
    1STR    H1D 2816  10.101   4.322   8.538
    1STR    H1E 2817  10.410   4.609   8.584
    1STR    H1F 2818  10.478   4.366   8.759
    1STR    H1G 2819  10.551   4.525   8.771
    1STR    H1H 2820  10.381   4.505   8.809
    1STR    H1I 2821  10.519   4.490   8.399
    1STR    H1J 2822  10.560   4.356   8.503
    1STR    H1K 2823  10.788   4.403   8.430
    1STR    H1M 2824  10.766   4.702   8.363
    1STR    H1N 2825  10.691   4.571   8.271
    1STR    H1O 2826  10.866   4.588   8.275
    1STR    H1P 2827  10.919   4.645   8.565
    1STR    H1Q 2828  10.907   4.486   8.636
    1STR    H1R 2829  11.166   4.638   8.551
    1STR    H1S 2830  11.270   4.477   8.719
    1STR    H1T 2831  11.156   4.354   8.666
    1STR    H1U 2832  11.099   4.500   8.747
    1STR    H1V 2833  11.276   4.529   8.350
    1STR    H1W 2834  11.289   4.380   8.441
    1STR    H1X 2835  11.588   4.634   8.580
    1STR    H1Y 2836  11.792   4.747   8.550
    1STR    H1Z 2837  12.026   4.744   8.615
    1STR    H20 2838  12.193   4.465   8.772
    1STR    H21 2839  12.255   4.538   8.621
    1STR    H22 2840  12.187   4.638   8.750
    1STR    H23 2841  11.960   4.220   8.700
    1STR    H27 2842  11.778   4.318   8.573
    1STR    H28 2843   9.950   4.648   8.643
    1STR    H29 2844   9.716   4.691   8.658
    1STR    H2A 2845   9.449   4.476   8.536
    1STR    H2B 2846   9.497   4.638   8.582
    1STR    H2C 2847   9.462   4.521   8.708
    1STR   BCK1 2848   9.479   4.118  12.932
    1STR    O03 2849   9.433   4.203  12.857
    1STR    N04 2850   9.610   4.087  12.920
    1STR    C05 2851   9.701   3.996  12.976
    1STR    C06 2852   9.837   4.037  12.989
    1STR    C07 2853   9.941   3.950  13.032
    1STR    N08 2854  10.076   3.992  13.035
    1STR    C09 2855  10.189   3.918  13.037
    1STR    O0A 2856  10.190   3.795  13.039
    1STR    O0B 2857  10.302   3.994  13.036
    1STR    C0C 2858  10.432   3.931  13.035
    1STR    C0D 2859  10.463   3.876  12.894
    1STR    C0E 2860  10.544   4.026  13.083
    1STR    O0F 2861  10.669   3.955  13.091
    1STR    C0G 2862  10.783   4.029  13.137
    1STR    C0H 2863  10.773   4.050  13.288
    1STR    C0I 2864  10.913   3.951  13.102
    1STR    O0J 2865  11.031   4.027  13.132
    1STR    C0K 2866  11.157   3.959  13.116
    1STR    C0M 2867  11.184   3.931  12.968
    1STR    C0N 2868  11.273   4.042  13.176
    1STR    O0O 2869  11.392   3.963  13.183
    1STR    C0P 2870  11.514   4.015  13.155
    1STR    O0Q 2871  11.537   4.130  13.121
    1STR    N0R 2872  11.606   3.918  13.166
    1STR    C0S 2873  11.742   3.912  13.134
    1STR    C0T 2874  11.797   3.783  13.119
    1STR    C0U 2875  11.928   3.765  13.073
    1STR    C0V 2876  12.010   3.875  13.043
    1STR    C0W 2877  12.141   3.847  12.971
    1STR    C0X 2878  11.964   4.007  13.071
    1STR    N0Y 2879  12.040   4.122  13.045
    1STR   BCK2 2880  12.167   4.160  13.065
    1STR    O10 2881  12.203   4.269  13.022
    1STR    C13 2882  11.828   4.023  13.112
    1STR    C14 2883   9.903   3.820  13.072
    1STR    C15 2884   9.771   3.775  13.057
    1STR    C16 2885   9.671   3.859  13.004
    1STR    C17 2886   9.539   3.794  12.971
    1STR    H1B 2887   9.652   4.152  12.855
    1STR    H1C 2888   9.864   4.138  12.961
    1STR    H1D 2889  10.096   4.090  13.028
    1STR    H1E 2890  10.429   3.847  13.105
    1STR    H1F 2891  10.466   3.956  12.820
    1STR    H1G 2892  10.559   3.825  12.893
    1STR    H1H 2893  10.388   3.803  12.862
    1STR    H1I 2894  10.517   4.066  13.180
    1STR    H1J 2895  10.554   4.111  13.015
    1STR    H1K 2896  10.788   4.125  13.085
    1STR    H1M 2897  10.761   3.955  13.341
    1STR    H1N 2898  10.690   4.115  13.316
    1STR    H1O 2899  10.864   4.098  13.327
    1STR    H1P 2900  10.914   3.856  13.155
    1STR    H1Q 2901  10.911   3.927  12.995
    1STR    H1R 2902  11.152   3.864  13.171
    1STR    H1S 2903  11.284   3.888  12.954
    1STR    H1T 2904  11.180   4.023  12.909
    1STR    H1U 2905  11.114   3.860  12.925
    1STR    H1V 2906  11.249   4.074  13.278
    1STR    H1W 2907  11.288   4.134  13.119
    1STR    H1X 2908  11.563   3.833  13.198
    1STR    H1Y 2909  11.737   3.695  13.137
    1STR    H1Z 2910  11.964   3.665  13.056
    1STR    H20 2911  12.175   3.932  12.914
    1STR    H21 2912  12.218   3.818  13.043
    1STR    H22 2913  12.129   3.765  12.901
    1STR    H23 2914  11.988   4.198  13.003
    1STR    H27 2915  11.788   4.122  13.126
    1STR    H28 2916   9.974   3.749  13.111
    1STR    H29 2917   9.748   3.673  13.082
    1STR    H2A 2918   9.474   3.793  13.058
    1STR    H2B 2919   9.554   3.690  12.940
    1STR    H2C 2920   9.489   3.844  12.888
    1STR   BCK1 2921   9.483   8.525  17.189
    1STR    O03 2922   9.442   8.638  17.211
    1STR    N04 2923   9.603   8.495  17.134
    1STR    C05 2924   9.696   8.578  17.069
    1STR    C06 2925   9.836   8.561  17.090
    1STR    C07 2926   9.935   8.635  17.017
    1STR    N08 2927  10.074   8.614  17.037
    1STR    C09 2928  10.178   8.642  16.955
    1STR    O0A 2929  10.165   8.686  16.841
    1STR    O0B 2930  10.300   8.616  17.012
    1STR    C0C 2931  10.422   8.660  16.947
    1STR    C0D 2932  10.448   8.806  16.987
    1STR    C0E 2933  10.544   8.570  16.981
    1STR    O0F 2934  10.666   8.616  16.919
    1STR    C0G 2935  10.783   8.533  16.934
    1STR    C0H 2936  10.775   8.420  16.831
    1STR    C0I 2937  10.913   8.616  16.915
    1STR    O0J 2938  11.032   8.541  16.950
    1STR    C0K 2939  11.160   8.602  16.924
    1STR    C0M 2940  11.174   8.735  17.001
    1STR    C0N 2941  11.277   8.507  16.962
    1STR    O0O 2942  11.403   8.562  16.922
    1STR    C0P 2943  11.520   8.530  16.984
    1STR    O0Q 2944  11.532   8.453  17.078
    1STR    N0R 2945  11.620   8.596  16.924
    1STR    C0S 2946  11.758   8.612  16.947
    1STR    C0T 2947  11.823   8.691  16.851
    1STR    C0U 2948  11.957   8.728  16.867
    1STR    C0V 2949  12.031   8.686  16.979
    1STR    C0W 2950  12.170   8.746  16.996
    1STR    C0X 2951  11.973   8.596  17.073
    1STR    N0Y 2952  12.048   8.551  17.183
    1STR   BCK2 2953  12.174   8.501  17.183
    1STR    O10 2954  12.235   8.471  17.081
    1STR    C13 2955  11.834   8.563  17.057
    1STR    C14 2956   9.888   8.731  16.925
    1STR    C15 2957   9.751   8.749  16.901
    1STR    C16 2958   9.655   8.671  16.969
    1STR    C17 2959   9.510   8.687  16.925
    1STR    H1B 2960   9.626   8.398  17.139
    1STR    H1C 2961   9.869   8.489  17.163
    1STR    H1D 2962  10.104   8.574  17.124
    1STR    H1E 2963  10.409   8.656  16.838
    1STR    H1F 2964  10.463   8.817  17.094
    1STR    H1G 2965  10.538   8.845  16.937
    1STR    H1H 2966  10.365   8.871  16.958
    1STR    H1I 2967  10.522   8.468  16.949
    1STR    H1J 2968  10.558   8.567  17.089
    1STR    H1K 2969  10.785   8.493  17.035
    1STR    H1M 2970  10.767   8.459  16.730
    1STR    H1N 2971  10.690   8.354  16.848
    1STR    H1O 2972  10.866   8.358  16.835
    1STR    H1P 2973  10.920   8.652  16.812
    1STR    H1Q 2974  10.906   8.705  16.978
    1STR    H1R 2975  11.166   8.623  16.817
    1STR    H1S 2976  11.274   8.776  16.990
    1STR    H1T 2977  11.157   8.720  17.108
    1STR    H1U 2978  11.104   8.811  16.966
    1STR    H1V 2979  11.265   8.410  16.914
    1STR    H1W 2980  11.277   8.488  17.070
    1STR    H1X 2981  11.581   8.649  16.848
    1STR    H1Y 2982  11.771   8.728  16.764
    1STR    H1Z 2983  12.003   8.792  16.793
    1STR    H20 2984  12.194   8.758  17.102
    1STR    H21 2985  12.245   8.683  16.948
    1STR    H22 2986  12.175   8.845  16.951
    1STR    H23 2987  12.004   8.557  17.274
    1STR    H27 2988  11.785   8.501  17.130
    1STR    H28 2989   9.957   8.794  16.870
    1STR    H29 2990   9.720   8.821  16.828
    1STR    H2A 2991   9.456   8.593  16.930
    1STR    H2B 2992   9.504   8.722  16.823
    1STR    H2C 2993   9.460   8.760  16.989
    1STR   BCK1 2994   9.486   8.481   4.309
    1STR    O03 2995   9.478   8.421   4.415
    1STR    N04 2996   9.590   8.561   4.276
    1STR    C05 2997   9.691   8.609   4.362
    1STR    C06 2998   9.830   8.603   4.326
    1STR    C07 2999   9.933   8.656   4.409
    1STR    N08 3000  10.069   8.654   4.370
    1STR    C09 3001  10.180   8.668   4.447
    1STR    O0A 3002  10.178   8.672   4.570
    1STR    O0B 3003  10.296   8.674   4.374
    1STR    C0C 3004  10.424   8.686   4.442
    1STR    C0D 3005  10.464   8.548   4.497
    1STR    C0E 3006  10.536   8.745   4.352
    1STR    O0F 3007  10.661   8.751   4.424
    1STR    C0G 3008  10.776   8.803   4.354
    1STR    C0H 3009  10.766   8.956   4.348
    1STR    C0I 3010  10.905   8.760   4.429
    1STR    O0J 3011  11.027   8.788   4.356
    1STR    C0K 3012  11.150   8.760   4.425
    1STR    C0M 3013  11.166   8.609   4.448
    1STR    C0N 3014  11.274   8.813   4.348
    1STR    O0O 3015  11.390   8.804   4.433
    1STR    C0P 3016  11.512   8.767   4.387
    1STR    O0Q 3017  11.539   8.732   4.273
    1STR    N0R 3018  11.599   8.775   4.489
    1STR    C0S 3019  11.737   8.751   4.504
    1STR    C0T 3020  11.789   8.780   4.632
    1STR    C0U 3021  11.926   8.767   4.658
    1STR    C0V 3022  12.016   8.726   4.558
    1STR    C0W 3023  12.163   8.734   4.594
    1STR    C0X 3024  11.967   8.688   4.430
    1STR    N0Y 3025  12.049   8.654   4.320
    1STR   BCK2 3026  12.167   8.594   4.294
    1STR    O10 3027  12.208   8.598   4.178
    1STR    C13 3028  11.827   8.704   4.405
    1STR    C14 3029   9.893   8.717   4.530
    1STR    C15 3030   9.758   8.727   4.566
    1STR    C16 3031   9.657   8.676   4.482
    1STR    C17 3032   9.512   8.702   4.523
    1STR    H1B 3033   9.590   8.595   4.182
    1STR    H1C 3034   9.857   8.556   4.233
    1STR    H1D 3035  10.091   8.643   4.273
    1STR    H1E 3036  10.411   8.755   4.526
    1STR    H1F 3037  10.478   8.476   4.417
    1STR    H1G 3038  10.558   8.555   4.553
    1STR    H1H 3039  10.389   8.509   4.566
    1STR    H1I 3040  10.507   8.845   4.320
    1STR    H1J 3041  10.548   8.685   4.263
    1STR    H1K 3042  10.780   8.762   4.254
    1STR    H1M 3043  10.755   9.000   4.448
    1STR    H1N 3044  10.681   8.990   4.288
    1STR    H1O 3045  10.856   8.999   4.303
    1STR    H1P 3046  10.908   8.808   4.527
    1STR    H1Q 3047  10.898   8.653   4.447
    1STR    H1R 3048  11.148   8.812   4.522
    1STR    H1S 3049  11.264   8.586   4.491
    1STR    H1T 3050  11.159   8.555   4.354
    1STR    H1U 3051  11.092   8.569   4.517
    1STR    H1V 3052  11.261   8.918   4.321
    1STR    H1W 3053  11.289   8.759   4.255
    1STR    H1X 3054  11.551   8.809   4.570
    1STR    H1Y 3055  11.725   8.816   4.711
    1STR    H1Z 3056  11.962   8.795   4.756
    1STR    H20 3057  12.197   8.639   4.633
    1STR    H21 3058  12.222   8.764   4.508
    1STR    H22 3059  12.180   8.809   4.671
    1STR    H23 3060  12.010   8.683   4.232
    1STR    H27 3061  11.787   8.681   4.307
    1STR    H28 3062   9.964   8.761   4.598
    1STR    H29 3063   9.732   8.776   4.658
    1STR    H2A 3064   9.450   8.724   4.436
    1STR    H2B 3065   9.505   8.788   4.590
    1STR    H2C 3066   9.472   8.616   4.575
    1STR   BCK1 3067   9.481   8.423   8.538
    1STR    O03 3068   9.446   8.477   8.433
    1STR    N04 3069   9.602   8.369   8.559
    1STR    C05 3070   9.703   8.337   8.466
    1STR    C06 3071   9.840   8.364   8.496
    1STR    C07 3072   9.946   8.322   8.410
    1STR    N08 3073  10.081   8.344   8.442
    1STR    C09 3074  10.190   8.275   8.401
    1STR    O0A 3075  10.183   8.173   8.333
    1STR    O0B 3076  10.307   8.329   8.444
    1STR    C0C 3077  10.433   8.278   8.394
    1STR    C0D 3078  10.461   8.340   8.256
    1STR    C0E 3079  10.551   8.305   8.492
    1STR    O0F 3080  10.673   8.247   8.442
    1STR    C0G 3081  10.788   8.256   8.527
    1STR    C0H 3082  10.778   8.147   8.635
    1STR    C0I 3083  10.918   8.237   8.443
    1STR    O0J 3084  11.037   8.260   8.522
    1STR    C0K 3085  11.163   8.235   8.459
    1STR    C0M 3086  11.185   8.334   8.343
    1STR    C0N 3087  11.280   8.247   8.561
    1STR    O0O 3088  11.404   8.203   8.503
    1STR    C0P 3089  11.523   8.256   8.542
    1STR    O0Q 3090  11.537   8.345   8.625
    1STR    N0R 3091  11.622   8.197   8.474
    1STR    C0S 3092  11.761   8.219   8.466
    1STR    C0T 3093  11.830   8.143   8.369
    1STR    C0U 3094  11.965   8.167   8.342
    1STR    C0V 3095  12.037   8.266   8.411
    1STR    C0W 3096  12.176   8.300   8.359
    1STR    C0X 3097  11.975   8.338   8.517
    1STR    N0Y 3098  12.037   8.442   8.587
    1STR   BCK2 3099  12.159   8.468   8.639
    1STR    O10 3100  12.177   8.580   8.685
    1STR    C13 3101  11.835   8.314   8.541
    1STR    C14 3102   9.910   8.258   8.289
    1STR    C15 3103   9.776   8.229   8.259
    1STR    C16 3104   9.672   8.264   8.348
    1STR    C17 3105   9.532   8.215   8.316
    1STR    H1B 3106   9.620   8.345   8.655
    1STR    H1C 3107   9.865   8.415   8.588
    1STR    H1D 3108  10.105   8.420   8.504
    1STR    H1E 3109  10.425   8.170   8.383
    1STR    H1F 3110  10.470   8.449   8.262
    1STR    H1G 3111  10.554   8.302   8.215
    1STR    H1H 3112  10.381   8.317   8.186
    1STR    H1I 3113  10.526   8.261   8.589
    1STR    H1J 3114  10.564   8.412   8.507
    1STR    H1K 3115  10.793   8.354   8.573
    1STR    H1M 3116  10.767   8.048   8.591
    1STR    H1N 3117  10.694   8.163   8.702
    1STR    H1O 3118  10.868   8.146   8.697
    1STR    H1P 3119  10.920   8.138   8.399
    1STR    H1Q 3120  10.915   8.308   8.361
    1STR    H1R 3121  11.164   8.133   8.420
    1STR    H1S 3122  11.286   8.323   8.301
    1STR    H1T 3123  11.176   8.437   8.377
    1STR    H1U 3124  11.116   8.319   8.261
    1STR    H1V 3125  11.261   8.186   8.649
    1STR    H1W 3126  11.288   8.350   8.597
    1STR    H1X 3127  11.585   8.125   8.415
    1STR    H1Y 3128  11.779   8.068   8.311
    1STR    H1Z 3129  12.014   8.111   8.264
    1STR    H20 3130  12.201   8.405   8.377
    1STR    H21 3131  12.251   8.236   8.405
    1STR    H22 3132  12.181   8.285   8.251
    1STR    H23 3133  11.977   8.520   8.606
    1STR    H27 3134  11.784   8.372   8.616
    1STR    H28 3135   9.984   8.228   8.217
    1STR    H29 3136   9.753   8.176   8.168
    1STR    H2A 3137   9.478   8.188   8.406
    1STR    H2B 3138   9.536   8.127   8.252
    1STR    H2C 3139   9.476   8.293   8.263
    1STR   BCK1 3140   9.482   8.592  12.911
    1STR    O03 3141   9.443   8.675  12.993
    1STR    N04 3142   9.599   8.600  12.844
    1STR    C05 3143   9.691   8.707  12.833
    1STR    C06 3144   9.833   8.683  12.834
    1STR    C07 3145   9.929   8.787  12.815
    1STR    N08 3146  10.069   8.760  12.812
    1STR    C09 3147  10.174   8.840  12.783
    1STR    O0A 3148  10.164   8.958  12.752
    1STR    O0B 3149  10.296   8.777  12.791
    1STR    C0C 3150  10.419   8.853  12.782
    1STR    C0D 3151  10.451   8.911  12.921
    1STR    C0E 3152  10.540   8.771  12.727
    1STR    O0F 3153  10.661   8.850  12.725
    1STR    C0G 3154  10.779   8.788  12.669
    1STR    C0H 3155  10.772   8.799  12.516
    1STR    C0I 3156  10.909   8.857  12.723
    1STR    O0J 3157  11.029   8.784  12.690
    1STR    C0K 3158  11.155   8.846  12.725
    1STR    C0M 3159  11.165   8.865  12.878
    1STR    C0N 3160  11.276   8.761  12.676
    1STR    O0O 3161  11.400   8.831  12.696
    1STR    C0P 3162  11.517   8.767  12.724
    1STR    O0Q 3163  11.530   8.647  12.743
    1STR    N0R 3164  11.616   8.857  12.724
    1STR    C0S 3165  11.755   8.854  12.748
    1STR    C0T 3166  11.824   8.968  12.704
    1STR    C0U 3167  11.960   8.986  12.734
    1STR    C0V 3168  12.031   8.890  12.808
    1STR    C0W 3169  12.173   8.927  12.851
    1STR    C0X 3170  11.967   8.769  12.848
    1STR    N0Y 3171  12.039   8.675  12.925
    1STR   BCK2 3172  12.162   8.625  12.902
    1STR    O10 3173  12.220   8.633  12.794
    1STR    C13 3174  11.828   8.753  12.819
    1STR    C14 3175   9.879   8.918  12.798
    1STR    C15 3176   9.741   8.943  12.793
    1STR    C16 3177   9.647   8.840  12.807
    1STR    C17 3178   9.501   8.876  12.785
    1STR    H1B 3179   9.622   8.516  12.795
    1STR    H1C 3180   9.867   8.582  12.851
    1STR    H1D 3181  10.099   8.667  12.835
    1STR    H1E 3182  10.404   8.937  12.713
    1STR    H1F 3183  10.468   8.832  12.994
    1STR    H1G 3184  10.540   8.973  12.918
    1STR    H1H 3185  10.370   8.974  12.957
    1STR    H1I 3186  10.516   8.737  12.627
    1STR    H1J 3187  10.556   8.683  12.789
    1STR    H1K 3188  10.783   8.684  12.700
    1STR    H1M 3189  10.763   8.903  12.485
    1STR    H1N 3190  10.688   8.744  12.475
    1STR    H1O 3191  10.863   8.759  12.471
    1STR    H1P 3192  10.915   8.959  12.685
    1STR    H1Q 3193  10.900   8.865  12.831
    1STR    H1R 3194  11.161   8.943  12.676
    1STR    H1S 3195  11.264   8.902  12.906
    1STR    H1T 3196  11.150   8.770  12.930
    1STR    H1U 3197  11.094   8.937  12.916
    1STR    H1V 3198  11.267   8.739  12.570
    1STR    H1W 3199  11.278   8.664  12.727
    1STR    H1X 3200  11.578   8.947  12.700
    1STR    H1Y 3201  11.774   9.046  12.649
    1STR    H1Z 3202  12.009   9.077  12.701
    1STR    H20 3203  12.194   8.890  12.951
    1STR    H21 3204  12.245   8.884  12.781
    1STR    H22 3205  12.187   9.035  12.853
    1STR    H23 3206  11.996   8.647  13.012
    1STR    H27 3207  11.776   8.665  12.852
    1STR    H28 3208   9.943   9.004  12.786
    1STR    H29 3209   9.708   9.045  12.776
    1STR    H2A 3210   9.446   8.795  12.738
    1STR    H2B 3211   9.492   8.963  12.720
    1STR    H2C 3212   9.454   8.901  12.880
    1STR   BCK1 3213   9.483  12.818  17.283
    1STR    O03 3214   9.442  12.808  17.168
    1STR    N04 3215   9.614  12.797  17.306
    1STR    C05 3216   9.701  12.783  17.416
    1STR    C06 3217   9.837  12.823  17.398
    1STR    C07 3218   9.938  12.798   0.056
    1STR    N08 3219  10.074  12.831   0.030
    1STR    C09 3220  10.185  12.776   0.084
    1STR    O0A 3221  10.184  12.685   0.166
    1STR    O0B 3222  10.300  12.832   0.036
    1STR    C0C 3223  10.428  12.779   0.077
    1STR    C0D 3224  10.460  12.653  17.433
    1STR    C0E 3225  10.542  12.884   0.065
    1STR    O0F 3226  10.666  12.830   0.111
    1STR    C0G 3227  10.780  12.917   0.111
    1STR    C0H 3228  10.769  13.016   0.227
    1STR    C0I 3229  10.910  12.833   0.123
    1STR    O0J 3230  11.028  12.914   0.108
    1STR    C0K 3231  11.154  12.848   0.133
    1STR    C0M 3232  11.182  12.743   0.024
    1STR    C0N 3233  11.270  12.951   0.139
    1STR    O0O 3234  11.388  12.889   0.193
    1STR    C0P 3235  11.510  12.904   0.136
    1STR    O0Q 3236  11.534  12.970   0.035
    1STR    N0R 3237  11.598  12.832   0.205
    1STR    C0S 3238  11.732  12.798   0.181
    1STR    C0T 3239  11.778  12.681   0.245
    1STR    C0U 3240  11.905  12.629   0.217
    1STR    C0V 3241  11.992  12.694   0.127
    1STR    C0W 3242  12.115  12.617   0.084
    1STR    C0X 3243  11.955  12.820   0.072
    1STR    N0Y 3244  12.036  12.892  17.424
    1STR   BCK2 3245  12.167  12.922  17.415
    1STR    O10 3246  12.207  12.982  17.316
    1STR    C13 3247  11.823  12.868   0.097
    1STR    C14 3248   9.898  12.739   0.177
    1STR    C15 3249   9.765  12.698   0.197
    1STR    C16 3250   9.668  12.715   0.096
    1STR    C17 3251   9.535  12.647   0.120
    1STR    H1B 3252   9.660  12.783  17.218
    1STR    H1C 3253   9.866  12.870  17.306
    1STR    H1D 3254  10.095  12.898  17.399
    1STR    H1E 3255  10.422  12.750   0.182
    1STR    H1F 3256  10.466  12.676  17.327
    1STR    H1G 3257  10.554  12.609   0.024
    1STR    H1H 3258  10.383  12.577   0.007
    1STR    H1I 3259  10.514  12.971   0.124
    1STR    H1J 3260  10.552  12.916  17.401
    1STR    H1K 3261  10.784  12.971   0.016
    1STR    H1M 3262  10.757  12.964   0.322
    1STR    H1N 3263  10.685  13.084   0.216
    1STR    H1O 3264  10.859  13.077   0.235
    1STR    H1P 3265  10.911  12.782   0.220
    1STR    H1Q 3266  10.908  12.755   0.047
    1STR    H1R 3267  11.149  12.799   0.231
    1STR    H1S 3268  11.282  12.699   0.037
    1STR    H1T 3269  11.179  12.787  17.365
    1STR    H1U 3270  11.112  12.660   0.027
    1STR    H1V 3271  11.243  13.034   0.204
    1STR    H1W 3272  11.288  12.994   0.040
    1STR    H1X 3273  11.554  12.790   0.284
    1STR    H1Y 3274  11.714  12.626   0.313
    1STR    H1Z 3275  11.935  12.536   0.262
    1STR    H20 3276  12.151  12.650  17.426
    1STR    H21 3277  12.195  12.628   0.158
    1STR    H22 3278  12.093  12.511   0.074
    1STR    H23 3279  11.987  12.938  17.349
    1STR    H27 3280  11.789  12.960   0.051
    1STR    H28 3281   9.968  12.720   0.257
    1STR    H29 3282   9.740  12.647   0.288
    1STR    H2A 3283   9.466  12.714   0.172
    1STR    H2B 3284   9.547  12.558   0.183
    1STR    H2C 3285   9.490  12.612   0.027
    1STR   BCK1 3286   9.485  12.826   4.110
    1STR    O03 3287   9.443  12.938   4.082
    1STR    N04 3288   9.606  12.779   4.076
    1STR    C05 3289   9.701  12.828   3.984
    1STR    C06 3290   9.841  12.824   4.015
    1STR    C07 3291   9.941  12.861   3.920
    1STR    N08 3292  10.079  12.852   3.950
    1STR    C09 3293  10.184  12.844   3.866
    1STR    O0A 3294  10.175  12.839   3.744
    1STR    O0B 3295  10.305  12.843   3.931
    1STR    C0C 3296  10.428  12.849   3.857
    1STR    C0D 3297  10.456  12.995   3.818
    1STR    C0E 3298  10.548  12.789   3.936
    1STR    O0F 3299  10.671  12.796   3.860
    1STR    C0G 3300  10.786  12.733   3.918
    1STR    C0H 3301  10.778  12.581   3.894
    1STR    C0I 3302  10.917  12.790   3.857
    1STR    O0J 3303  11.034  12.745   3.928
    1STR    C0K 3304  11.163  12.779   3.873
    1STR    C0M 3305  11.182  12.931   3.869
    1STR    C0N 3306  11.278  12.713   3.955
    1STR    O0O 3307  11.404  12.730   3.889
    1STR    C0P 3308  11.520  12.744   3.958
    1STR    O0Q 3309  11.532  12.747   4.079
    1STR    N0R 3310  11.621  12.758   3.870
    1STR    C0S 3311  11.757  12.787   3.882
    1STR    C0T 3312  11.820  12.825   3.762
    1STR    C0U 3313  11.953  12.867   3.760
    1STR    C0V 3314  12.029  12.871   3.878
    1STR    C0W 3315  12.167  12.935   3.868
    1STR    C0X 3316  11.974  12.822   4.000
    1STR    N0Y 3317  12.052  12.818   4.118
    1STR   BCK2 3318  12.179  12.772   4.131
    1STR    O10 3319  12.240  12.715   4.042
    1STR    C13 3320  11.836  12.785   4.001
    1STR    C14 3321   9.897  12.910   3.795
    1STR    C15 3322   9.760  12.913   3.763
    1STR    C16 3323   9.662  12.870   3.854
    1STR    C17 3324   9.519  12.863   3.804
    1STR    H1B 3325   9.630  12.693   4.123
    1STR    H1C 3326   9.871  12.789   4.112
    1STR    H1D 3327  10.106  12.849   4.047
    1STR    H1E 3328  10.417  12.790   3.766
    1STR    H1F 3329  10.468  13.058   3.906
    1STR    H1G 3330  10.547  13.003   3.759
    1STR    H1H 3331  10.375  13.036   3.758
    1STR    H1I 3332  10.525  12.685   3.961
    1STR    H1J 3333  10.561  12.842   4.030
    1STR    H1K 3334  10.788  12.753   4.025
    1STR    H1M 3335  10.768  12.559   3.788
    1STR    H1N 3336  10.693  12.536   3.945
    1STR    H1O 3337  10.867  12.531   3.930
    1STR    H1P 3338  10.924  12.764   3.751
    1STR    H1Q 3339  10.912  12.899   3.862
    1STR    H1R 3340  11.168  12.739   3.771
    1STR    H1S 3341  11.283  12.957   3.837
    1STR    H1T 3342  11.167  12.974   3.968
    1STR    H1U 3343  11.113  12.980   3.800
    1STR    H1V 3344  11.260  12.607   3.967
    1STR    H1W 3345  11.281  12.755   4.056
    1STR    H1X 3346  11.584  12.748   3.777
    1STR    H1Y 3347  11.765  12.825   3.669
    1STR    H1Z 3348  11.997  12.900   3.667
    1STR    H20 3349  12.196  12.981   3.963
    1STR    H21 3350  12.242  12.861   3.840
    1STR    H22 3351  12.168  13.014   3.793
    1STR    H23 3352  12.007  12.846   4.204
    1STR    H27 3353  11.790  12.753   4.093
    1STR    H28 3354   9.966  12.944   3.720
    1STR    H29 3355   9.731  12.947   3.664
    1STR    H2A 3356   9.466  12.777   3.847
    1STR    H2B 3357   9.515  12.851   3.696
    1STR    H2C 3358   9.465  12.954   3.831
    1STR   BCK1 3359   9.497  12.910   8.652
    1STR    O03 3360   9.476  12.910   8.773
    1STR    N04 3361   9.603  12.966   8.592
    1STR    C05 3362   9.698  13.053   8.648
    1STR    C06 3363   9.838  13.034   8.624
    1STR    C07 3364   9.937  13.124   8.673
    1STR    N08 3365  10.074  13.107   8.644
    1STR    C09 3366  10.182  13.160   8.705
    1STR    O0A 3367  10.177  13.226   8.809
    1STR    O0B 3368  10.300  13.131   8.642
    1STR    C0C 3369  10.425  13.180   8.695
    1STR    C0D 3370  10.466  13.095   8.816
    1STR    C0E 3371  10.539  13.182   8.589
    1STR    O0F 3372  10.664  13.225   8.647
    1STR    C0G 3373  10.779  13.232   8.562
    1STR    C0H 3374  10.769  13.359   8.475
    1STR    C0I 3375  10.907  13.235   8.649
    1STR    O0J 3376  11.030  13.221   8.574
    1STR    C0K 3377  11.153  13.231   8.649
    1STR    C0M 3378  11.164  13.116   8.751
    1STR    C0N 3379  11.277  13.229   8.556
    1STR    O0O 3380  11.395  13.265   8.631
    1STR    C0P 3381  11.515  13.206   8.611
    1STR    O0Q 3382  11.538  13.114   8.534
    1STR    N0R 3383  11.607  13.265   8.689
    1STR    C0S 3384  11.745  13.247   8.709
    1STR    C0T 3385  11.809  13.348   8.783
    1STR    C0U 3386  11.947  13.342   8.808
    1STR    C0V 3387  12.026  13.236   8.759
    1STR    C0W 3388  12.175  13.248   8.782
    1STR    C0X 3389  11.965  13.129   8.687
    1STR    N0Y 3390  12.034  13.022   8.626
    1STR   BCK2 3391  12.147  12.949   8.633
    1STR    O10 3392  12.166  12.869   8.543
    1STR    C13 3393  11.824  13.138   8.662
    1STR    C14 3394   9.891  13.236   8.747
    1STR    C15 3395   9.754  13.258   8.770
    1STR    C16 3396   9.658  13.169   8.719
    1STR    C17 3397   9.511  13.207   8.736
    1STR    H1B 3398   9.610  12.946   8.494
    1STR    H1C 3399   9.869  12.948   8.567
    1STR    H1D 3400  10.098  13.048   8.567
    1STR    H1E 3401  10.410  13.283   8.728
    1STR    H1F 3402  10.481  12.991   8.788
    1STR    H1G 3403  10.558  13.132   8.861
    1STR    H1H 3404  10.389  13.098   8.894
    1STR    H1I 3405  10.510  13.248   8.507
    1STR    H1J 3406  10.551  13.082   8.545
    1STR    H1K 3407  10.783  13.144   8.498
    1STR    H1M 3408  10.757  13.448   8.536
    1STR    H1N 3409  10.685  13.355   8.406
    1STR    H1O 3410  10.859  13.372   8.415
    1STR    H1P 3411  10.909  13.327   8.708
    1STR    H1Q 3412  10.899  13.152   8.720
    1STR    H1R 3413  11.152  13.326   8.702
    1STR    H1S 3414  11.262  13.116   8.799
    1STR    H1T 3415  11.153  13.019   8.701
    1STR    H1U 3416  11.089  13.122   8.830
    1STR    H1V 3417  11.265  13.300   8.475
    1STR    H1W 3418  11.289  13.131   8.509
    1STR    H1X 3419  11.562  13.339   8.739
    1STR    H1Y 3420  11.754  13.433   8.820
    1STR    H1Z 3421  11.993  13.423   8.862
    1STR    H20 3422  12.204  13.187   8.867
    1STR    H21 3423  12.229  13.217   8.693
    1STR    H22 3424  12.205  13.351   8.802
    1STR    H23 3425  11.983  12.983   8.548
    1STR    H27 3426  11.775  13.061   8.605
    1STR    H28 3427   9.959  13.310   8.786
    1STR    H29 3428   9.724  13.346   8.824
    1STR    H2A 3429   9.452  13.180   8.649
    1STR    H2B 3430   9.500  13.315   8.750
    1STR    H2C 3431   9.469  13.158   8.824
    1STR   BCK1 3432   9.481  12.834  12.931
    1STR    O03 3433   9.432  12.942  12.898
    1STR    N04 3434   9.610  12.812  12.901
    1STR    C05 3435   9.701  12.705  12.910
    1STR    C06 3436   9.838  12.736  12.937
    1STR    C07 3437   9.941  12.638  12.937
    1STR    N08 3438  10.076  12.676  12.956
    1STR    C09 3439  10.188  12.608  12.924
    1STR    O0A 3440  10.189  12.499  12.868
    1STR    O0B 3441  10.303  12.675  12.955
    1STR    C0C 3442  10.432  12.613  12.932
    1STR    C0D 3443  10.465  12.610  12.782
    1STR    C0E 3444  10.545  12.684  13.012
    1STR    O0F 3445  10.672  12.619  12.989
    1STR    C0G 3446  10.786  12.671  13.059
    1STR    C0H 3447  10.775  12.637  13.208
    1STR    C0I 3448  10.915  12.609  12.999
    1STR    O0J 3449  11.034  12.673  13.050
    1STR    C0K 3450  11.159  12.613  13.014
    1STR    C0M 3451  11.187  12.635  12.864
    1STR    C0N 3452  11.275  12.673  13.098
    1STR    O0O 3453  11.397  12.600  13.076
    1STR    C0P 3454  11.517  12.662  13.065
    1STR    O0Q 3455  11.534  12.783  13.065
    1STR    N0R 3456  11.613  12.570  13.049
    1STR    C0S 3457  11.750  12.579  13.020
    1STR    C0T 3458  11.810  12.462  12.968
    1STR    C0U 3459  11.943  12.464  12.924
    1STR    C0V 3460  12.021  12.580  12.933
    1STR    C0W 3461  12.156  12.579  12.862
    1STR    C0X 3462  11.969  12.696  12.997
    1STR    N0Y 3463  12.040  12.816  13.009
    1STR   BCK2 3464  12.165  12.852  13.044
    1STR    O10 3465  12.194  12.971  13.038
    1STR    C13 3466  11.831  12.694  13.036
    1STR    C14 3467   9.903  12.504  12.916
    1STR    C15 3468   9.769  12.471  12.886
    1STR    C16 3469   9.669  12.570  12.878
    1STR    C17 3470   9.535  12.525  12.826
    1STR    H1B 3471   9.649  12.896  12.863
    1STR    H1C 3472   9.864  12.839  12.957
    1STR    H1D 3473  10.096  12.764  12.999
    1STR    H1E 3474  10.426  12.510  12.968
    1STR    H1F 3475  10.470  12.710  12.739
    1STR    H1G 3476  10.561  12.560  12.765
    1STR    H1H 3477  10.391  12.553  12.726
    1STR    H1I 3478  10.519  12.681  13.118
    1STR    H1J 3479  10.551  12.789  12.983
    1STR    H1K 3480  10.791  12.779  13.045
    1STR    H1M 3481  10.760  12.530  13.223
    1STR    H1N 3482  10.693  12.690  13.257
    1STR    H1O 3483  10.866  12.664  13.261
    1STR    H1P 3484  10.917  12.502  13.020
    1STR    H1Q 3485  10.912  12.619  12.891
    1STR    H1R 3486  11.155  12.506  13.035
    1STR    H1S 3487  11.286  12.598  12.837
    1STR    H1T 3488  11.184  12.741  12.839
    1STR    H1U 3489  11.115  12.583  12.801
    1STR    H1V 3490  11.251  12.666  13.204
    1STR    H1W 3491  11.287  12.779  13.077
    1STR    H1X 3492  11.573  12.478  13.054
    1STR    H1Y 3493  11.753  12.371  12.957
    1STR    H1Z 3494  11.985  12.374  12.880
    1STR    H20 3495  12.187  12.679  12.833
    1STR    H21 3496  12.232  12.534  12.926
    1STR    H22 3497  12.150  12.520  12.771
    1STR    H23 3498  11.984  12.899  12.994
    1STR    H27 3499  11.787  12.783  13.079
    1STR    H28 3500   9.974  12.423  12.919
    1STR    H29 3501   9.746  12.368  12.866
    1STR    H2A 3502   9.473  12.487  12.907
    1STR    H2B 3503   9.547  12.444  12.754
    1STR    H2C 3504   9.482  12.605  12.775
    1STR   BCK1 3505  13.842  17.278  17.211
    1STR    O03 3506  13.799  17.384  17.257
    1STR    N04 3507  13.961  17.264  17.149
    1STR    C05 3508  14.053  17.360  17.102
    1STR    C06 3509  14.194  17.339  17.115
    1STR    C07 3510  14.291  17.429  17.060
    1STR    N08 3511  14.430  17.404  17.070
    1STR    C09 3512  14.535   0.024  17.009
    1STR    O0A 3513  14.525   0.117  16.929
    1STR    O0B 3514  14.657  17.412  17.045
    1STR    C0C 3515  14.780   0.034  17.000
    1STR    C0D 3516  14.810   0.157  17.088
    1STR    C0E 3517  14.901  17.377  16.998
    1STR    O0F 3518  15.023   0.003  16.957
    1STR    C0G 3519  15.141  17.361  16.942
    1STR    C0H 3520  15.133  17.288  16.806
    1STR    C0I 3521  15.270   0.006  16.951
    1STR    O0J 3522  15.389  17.365  16.961
    1STR    C0K 3523  15.517  17.433  16.956
    1STR    C0M 3524  15.531   0.092  17.073
    1STR    C0N 3525  15.635  17.331  16.961
    1STR    O0O 3526  15.761  17.397  16.937
    1STR    C0P 3527  15.876  17.358  16.999
    1STR    O0Q 3528  15.885  17.272  17.086
    1STR    N0R 3529  15.977  17.430  16.951
    1STR    C0S 3530  16.115   0.001  16.980
    1STR    C0T 3531  16.184   0.094  16.900
    1STR    C0U 3532  16.319   0.125  16.924
    1STR    C0V 3533  16.389   0.062  17.029
    1STR    C0W 3534  16.529   0.114  17.058
    1STR    C0X 3535  16.326  17.400  17.106
    1STR    N0Y 3536  16.398  17.337  17.209
    1STR   BCK2 3537  16.522  17.283  17.203
    1STR    O10 3538  16.582  17.263  17.098
    1STR    C13 3539  16.188  17.373  17.082
    1STR    C14 3540  14.241   0.105  16.996
    1STR    C15 3541  14.103   0.126  16.980
    1STR    C16 3542  14.009   0.034  17.029
    1STR    C17 3543  13.864   0.058  16.992
    1STR    H1B 3544  13.987  17.168  17.134
    1STR    H1C 3545  14.229  17.251  17.167
    1STR    H1D 3546  14.460  17.328  17.129
    1STR    H1E 3547  14.766   0.069  16.897
    1STR    H1F 3548  14.826   0.128  17.192
    1STR    H1G 3549  14.899   0.208  17.054
    1STR    H1H 3550  14.728   0.229  17.085
    1STR    H1I 3551  14.879  17.294  16.930
    1STR    H1J 3552  14.916  17.333  17.097
    1STR    H1K 3553  15.144  17.288  17.023
    1STR    H1M 3554  15.123  17.360  16.724
    1STR    H1N 3555  15.050  17.219  16.801
    1STR    H1O 3556  15.224  17.231  16.789
    1STR    H1P 3557  15.277   0.073  16.865
    1STR    H1Q 3558  15.262   0.070  17.039
    1STR    H1R 3559  15.523   0.048  16.862
    1STR    H1S 3560  15.630   0.136  17.075
    1STR    H1T 3561  15.515   0.042  17.169
    1STR    H1U 3562  15.460   0.175  17.067
    1STR    H1V 3563  15.622  17.256  16.883
    1STR    H1W 3564  15.636  17.278  17.056
    1STR    H1X 3565  15.944   0.050  16.878
    1STR    H1Y 3566  16.135   0.147  16.819
    1STR    H1Z 3567  16.368   0.199  16.863
    1STR    H20 3568  16.552   0.109  17.164
    1STR    H21 3569  16.603   0.056  17.004
    1STR    H22 3570  16.540   0.218  17.028
    1STR    H23 3571  16.354  17.332  17.300
    1STR    H27 3572  16.136  17.300  17.142
    1STR    H28 3573  14.306   0.181  16.955
    1STR    H29 3574  14.070   0.214  16.926
    1STR    H2A 3575  13.811  17.404  16.976
    1STR    H2B 3576  13.856   0.115  16.900
    1STR    H2C 3577  13.814   0.114  17.071
    1STR   BCK1 3578  13.832  17.175   4.290
    1STR    O03 3579  13.803  17.092   4.376
    1STR    N04 3580  13.947  17.244   4.285
    1STR    C05 3581  14.049  17.257   4.381
    1STR    C06 3582  14.186  17.260   4.342
    1STR    C07 3583  14.292  17.280   4.436
    1STR    N08 3584  14.428  17.290   4.396
    1STR    C09 3585  14.540  17.275   4.470
    1STR    O0A 3586  14.540  17.234   4.585
    1STR    O0B 3587  14.654  17.308   4.402
    1STR    C0C 3588  14.783  17.297   4.467
    1STR    C0D 3589  14.826  17.149   4.468
    1STR    C0E 3590  14.894  17.385   4.402
    1STR    O0F 3591  15.020  17.366   4.469
    1STR    C0G 3592  15.133   0.001   4.421
    1STR    C0H 3593  15.121   0.147   4.466
    1STR    C0I 3594  15.264  17.377   4.475
    1STR    O0J 3595  15.383  17.431   4.414
    1STR    C0K 3596  15.508  17.388   4.470
    1STR    C0M 3597  15.531  17.239   4.444
    1STR    C0N 3598  15.628   0.029   4.413
    1STR    O0O 3599  15.745   0.007   4.493
    1STR    C0P 3600  15.864  17.406   4.442
    1STR    O0Q 3601  15.887  17.380   4.324
    1STR    N0R 3602  15.951  17.395   4.542
    1STR    C0S 3603  16.085  17.354   4.553
    1STR    C0T 3604  16.125  17.317   4.683
    1STR    C0U 3605  16.258  17.283   4.709
    1STR    C0V 3606  16.356  17.286   4.608
    1STR    C0W 3607  16.497  17.260   4.655
    1STR    C0X 3608  16.320  17.320   4.475
    1STR    N0Y 3609  16.410  17.337   4.367
    1STR   BCK2 3610  16.534  17.307   4.324
    1STR    O10 3611  16.572  17.362   4.221
    1STR    C13 3612  16.183  17.353   4.450
    1STR    C14 3613  14.256  17.298   4.572
    1STR    C15 3614  14.121  17.298   4.612
    1STR    C16 3615  14.018  17.282   4.518
    1STR    C17 3616  13.876  17.300   4.569
    1STR    H1B 3617  13.958  17.298   4.200
    1STR    H1C 3618  14.211  17.247   4.238
    1STR    H1D 3619  14.447  17.315   4.301
    1STR    H1E 3620  14.772  17.331   4.570
    1STR    H1F 3621  14.838  17.110   4.367
    1STR    H1G 3622  14.921  17.136   4.521
    1STR    H1H 3623  14.752  17.087   4.520
    1STR    H1I 3624  14.863   0.049   4.406
    1STR    H1J 3625  14.904  17.360   4.296
    1STR    H1K 3626  15.136  17.436   4.312
    1STR    H1M 3627  15.110   0.154   4.575
    1STR    H1N 3628  15.036   0.198   4.421
    1STR    H1O 3629  15.210   0.204   4.438
    1STR    H1P 3630  15.268  17.390   4.583
    1STR    H1Q 3631  15.259  17.270   4.456
    1STR    H1R 3632  15.506  17.407   4.578
    1STR    H1S 3633  15.630  17.208   4.478
    1STR    H1T 3634  15.525  17.217   4.338
    1STR    H1U 3635  15.459  17.176   4.496
    1STR    H1V 3636  15.606   0.136   4.417
    1STR    H1W 3637  15.646   0.006   4.308
    1STR    H1X 3638  15.906  17.423   4.628
    1STR    H1Y 3639  16.054  17.317   4.765
    1STR    H1Z 3640  16.285  17.257   4.810
    1STR    H20 3641  16.527  17.159   4.628
    1STR    H21 3642  16.565  17.333   4.613
    1STR    H22 3643  16.507  17.267   4.763
    1STR    H23 3644  16.371  17.395   4.294
    1STR    H27 3645  16.151  17.382   4.351
    1STR    H28 3646  14.330  17.315   4.648
    1STR    H29 3647  14.098  17.315   4.716
    1STR    H2A 3648  13.812  17.347   4.494
    1STR    H2B 3649  13.874  17.364   4.657
    1STR    H2C 3650  13.833  17.204   4.597
    1STR   BCK1 3651  13.842  17.148   8.508
    1STR    O03 3652  13.804  17.233   8.429
    1STR    N04 3653  13.964  17.091   8.506
    1STR    C05 3654  14.062  17.093   8.406
    1STR    C06 3655  14.200  17.107   8.440
    1STR    C07 3656  14.304  17.096   8.343
    1STR    N08 3657  14.441  17.107   8.378
    1STR    C09 3658  14.547  17.050   8.317
    1STR    O0A 3659  14.538  16.969   8.225
    1STR    O0B 3660  14.666  17.091   8.370
    1STR    C0C 3661  14.791  17.058   8.303
    1STR    C0D 3662  14.816  17.162   8.192
    1STR    C0E 3663  14.910  17.051   8.402
    1STR    O0F 3664  15.032  17.012   8.334
    1STR    C0G 3665  15.148  16.992   8.417
    1STR    C0H 3666  15.138  16.853   8.481
    1STR    C0I 3667  15.278  17.005   8.333
    1STR    O0J 3668  15.396  16.998   8.415
    1STR    C0K 3669  15.523  17.000   8.346
    1STR    C0M 3670  15.543  17.132   8.271
    1STR    C0N 3671  15.641  16.980   8.447
    1STR    O0O 3672  15.766  16.964   8.378
    1STR    C0P 3673  15.884  16.994   8.439
    1STR    O0Q 3674  15.896  17.037   8.554
    1STR    N0R 3675  15.985  16.969   8.356
    1STR    C0S 3676  16.125  16.990   8.361
    1STR    C0T 3677  16.199  16.940   8.252
    1STR    C0U 3678  16.336  16.968   8.240
    1STR    C0V 3679  16.404  17.046   8.335
    1STR    C0W 3680  16.545  17.089   8.301
    1STR    C0X 3681  16.335  17.090   8.452
    1STR    N0Y 3682  16.393  17.177   8.546
    1STR   BCK2 3683  16.511  17.193   8.609
    1STR    O10 3684  16.526  17.295   8.675
    1STR    C13 3685  16.195  17.063   8.461
    1STR    C14 3686  14.266  17.077   8.209
    1STR    C15 3687  14.131  17.061   8.173
    1STR    C16 3688  14.030  17.065   8.270
    1STR    C17 3689  13.888  17.033   8.224
    1STR    H1B 3690  13.984  17.038   8.589
    1STR    H1C 3691  14.227  17.125   8.543
    1STR    H1D 3692  14.466  17.165   8.456
    1STR    H1E 3693  14.781  16.960   8.257
    1STR    H1F 3694  14.825  17.263   8.233
    1STR    H1G 3695  14.908  17.140   8.138
    1STR    H1H 3696  14.734  17.163   8.120
    1STR    H1I 3697  14.886  16.980   8.481
    1STR    H1J 3698  14.925  17.148   8.449
    1STR    H1K 3699  15.151  17.069   8.494
    1STR    H1M 3700  15.129  16.775   8.405
    1STR    H1N 3701  15.054  16.844   8.549
    1STR    H1O 3702  15.228  16.831   8.539
    1STR    H1P 3703  15.280  16.928   8.256
    1STR    H1Q 3704  15.274  17.101   8.281
    1STR    H1R 3705  15.526  16.917   8.275
    1STR    H1S 3706  15.643  17.139   8.228
    1STR    H1T 3707  15.530  17.218   8.337
    1STR    H1U 3708  15.473  17.144   8.187
    1STR    H1V 3709  15.624  16.891   8.508
    1STR    H1W 3710  15.646  17.065   8.516
    1STR    H1X 3711  15.950  16.931   8.270
    1STR    H1Y 3712  16.152  16.883   8.174
    1STR    H1Z 3713  16.389  16.933   8.153
    1STR    H20 3714  16.568  17.188   8.342
    1STR    H21 3715  16.618  17.017   8.339
    1STR    H22 3716  16.559  17.096   8.194
    1STR    H23 3717  16.331  17.251   8.575
    1STR    H27 3718  16.139  17.101   8.545
    1STR    H28 3719  14.340  17.072   8.130
    1STR    H29 3720  14.107  17.043   8.069
    1STR    H2A 3721  13.834  16.977   8.300
    1STR    H2B 3722  13.889  16.972   8.134
    1STR    H2C 3723  13.834  17.125   8.203
    1STR   BCK1 3724  13.841  17.312  12.954
    1STR    O03 3725  13.803  17.375  13.052
    1STR    N04 3726  13.958  17.334  12.889
    1STR    C05 3727  14.051   0.000  12.901
    1STR    C06 3728  14.192  17.416  12.895
    1STR    C07 3729  14.289   0.081  12.900
    1STR    N08 3730  14.428   0.055  12.887
    1STR    C09 3731  14.535   0.138  12.894
    1STR    O0A 3732  14.527   0.258  12.918
    1STR    O0B 3733  14.656   0.076  12.872
    1STR    C0C 3734  14.780   0.150  12.888
    1STR    C0D 3735  14.815   0.154  13.038
    1STR    C0E 3736  14.899   0.092  12.806
    1STR    O0F 3737  15.020   0.168  12.830
    1STR    C0G 3738  15.138   0.129  12.757
    1STR    C0H 3739  15.130   0.189  12.615
    1STR    C0I 3740  15.266   0.179  12.831
    1STR    O0J 3741  15.388   0.127  12.775
    1STR    C0K 3742  15.512   0.174  12.834
    1STR    C0M 3743  15.521   0.130  12.981
    1STR    C0N 3744  15.637   0.121  12.758
    1STR    O0O 3745  15.756   0.182  12.810
    1STR    C0P 3746  15.876   0.119  12.807
    1STR    O0Q 3747  15.897   0.006  12.764
    1STR    N0R 3748  15.970   0.200  12.858
    1STR    C0S 3749  16.109   0.187  12.879
    1STR    C0T 3750  16.179   0.307  12.902
    1STR    C0U 3751  16.318   0.306  12.924
    1STR    C0V 3752  16.391   0.185  12.924
    1STR    C0W 3753  16.541   0.198  12.939
    1STR    C0X 3754  16.324   0.061  12.907
    1STR    N0Y 3755  16.386  17.375  12.896
    1STR   BCK2 3756  16.497  17.306  12.931
    1STR    O10 3757  16.508  17.194  12.882
    1STR    C13 3758  16.183   0.065  12.883
    1STR    C14 3759  14.239   0.213  12.913
    1STR    C15 3760  14.102   0.239  12.916
    1STR    C16 3761  14.007   0.135  12.907
    1STR    C17 3762  13.861   0.177  12.897
    1STR    H1B 3763  13.981  17.263  12.821
    1STR    H1C 3764  14.226  17.314  12.887
    1STR    H1D 3765  14.458  17.400  12.872
    1STR    H1E 3766  14.764   0.252  12.854
    1STR    H1F 3767  14.832   0.054  13.078
    1STR    H1G 3768  14.905   0.213  13.056
    1STR    H1H 3769  14.735   0.200  13.096
    1STR    H1I 3770  14.873   0.096  12.700
    1STR    H1J 3771  14.915  17.428  12.832
    1STR    H1K 3772  15.143   0.020  12.751
    1STR    H1M 3773  15.120   0.298  12.619
    1STR    H1N 3774  15.047   0.149  12.558
    1STR    H1O 3775  15.221   0.167  12.559
    1STR    H1P 3776  15.268   0.288  12.832
    1STR    H1Q 3777  15.257   0.147  12.935
    1STR    H1R 3778  15.513   0.283  12.828
    1STR    H1S 3779  15.618   0.155  13.023
    1STR    H1T 3780  15.509   0.022  12.991
    1STR    H1U 3781  15.447   0.178  13.044
    1STR    H1V 3782  15.630   0.145  12.651
    1STR    H1W 3783  15.643   0.012  12.765
    1STR    H1X 3784  15.929   0.288  12.883
    1STR    H1Y 3785  16.129   0.402  12.900
    1STR    H1Z 3786  16.369   0.400  12.939
    1STR    H20 3787  16.570   0.178  13.042
    1STR    H21 3788  16.592   0.130  12.871
    1STR    H22 3789  16.576   0.299  12.915
    1STR    H23 3790  16.328  17.309  12.847
    1STR    H27 3791  16.128  17.413  12.867
    1STR    H28 3792  14.304   0.299  12.918
    1STR    H29 3793  14.069   0.342  12.923
    1STR    H2A 3794  13.805   0.109  12.833
    1STR    H2B 3795  13.852   0.276  12.853
    1STR    H2C 3796  13.816   0.179  12.996
    1STR   BCK1 3797  13.839   4.148  17.339
    1STR    O03 3798  13.786   4.258  17.345
    1STR    N04 3799  13.968   4.138  17.376
    1STR    C05 3800  14.062   4.035  17.400
    1STR    C06 3801  14.199   4.064  17.376
    1STR    C07 3802  14.304   3.974  17.409
    1STR    N08 3803  14.440   4.011  17.394
    1STR    C09 3804  14.551   3.955   0.006
    1STR    O0A 3805  14.551   3.856   0.078
    1STR    O0B 3806  14.665   4.021  17.410
    1STR    C0C 3807  14.794   3.963  17.440
    1STR    C0D 3808  14.831   3.869  17.324
    1STR    C0E 3809  14.905   4.070   0.023
    1STR    O0F 3810  15.030   4.005   0.053
    1STR    C0G 3811  15.142   4.088   0.084
    1STR    C0H 3812  15.128   4.142   0.227
    1STR    C0I 3813  15.273   4.005   0.070
    1STR    O0J 3814  15.390   4.087   0.082
    1STR    C0K 3815  15.516   4.017   0.084
    1STR    C0M 3816  15.546   3.956  17.386
    1STR    C0N 3817  15.632   4.112   0.127
    1STR    O0O 3818  15.751   4.037   0.153
    1STR    C0P 3819  15.872   4.073   0.105
    1STR    O0Q 3820  15.893   4.170   0.033
    1STR    N0R 3821  15.963   3.984   0.144
    1STR    C0S 3822  16.098   3.966   0.110
    1STR    C0T 3823  16.149   3.835   0.123
    1STR    C0U 3824  16.279   3.804   0.081
    1STR    C0V 3825  16.363   3.903   0.027
    1STR    C0W 3826  16.492   3.855  17.402
    1STR    C0X 3827  16.321   4.039   0.026
    1STR    N0Y 3828  16.400   4.144  17.416
    1STR   BCK2 3829  16.528   4.182  17.425
    1STR    O10 3830  16.563   4.282  17.363
    1STR    C13 3831  16.187   4.068   0.064
    1STR    C14 3832  14.266   3.848   0.019
    1STR    C15 3833  14.132   3.818   0.047
    1STR    C16 3834  14.030   3.912   0.023
    1STR    C17 3835  13.893   3.879   0.080
    1STR    H1B 3836  14.005   4.231  17.389
    1STR    H1C 3837  14.226   4.160  17.333
    1STR    H1D 3838  14.462   4.093  17.340
    1STR    H1E 3839  14.788   3.905   0.092
    1STR    H1F 3840  14.840   3.922  17.230
    1STR    H1G 3841  14.927   3.819  17.344
    1STR    H1H 3842  14.757   3.790  17.312
    1STR    H1I 3843  14.875   4.134   0.106
    1STR    H1J 3844  14.916   4.133  17.375
    1STR    H1K 3845  15.147   4.171   0.013
    1STR    H1M 3846  15.116   4.061   0.299
    1STR    H1N 3847  15.043   4.209   0.238
    1STR    H1O 3848  15.217   4.198   0.256
    1STR    H1P 3849  15.274   3.926   0.145
    1STR    H1Q 3850  15.272   3.956  17.413
    1STR    H1R 3851  15.511   3.937   0.159
    1STR    H1S 3852  15.645   3.911  17.384
    1STR    H1T 3853  15.543   4.033  17.308
    1STR    H1U 3854  15.476   3.878  17.359
    1STR    H1V 3855  15.605   4.164   0.218
    1STR    H1W 3856  15.648   4.188   0.051
    1STR    H1X 3857  15.922   3.915   0.203
    1STR    H1Y 3858  16.087   3.755   0.161
    1STR    H1Z 3859  16.313   3.702   0.086
    1STR    H20 3860  16.528   3.925  17.327
    1STR    H21 3861  16.570   3.840   0.037
    1STR    H22 3862  16.477   3.760  17.351
    1STR    H23 3863  16.349   4.213  17.364
    1STR    H27 3864  16.150   4.169   0.057
    1STR    H28 3865  14.339   3.771   0.041
    1STR    H29 3866  14.108   3.722   0.091
    1STR    H2A 3867  13.838   3.969   0.105
    1STR    H2B 3868  13.903   3.820   0.171
    1STR    H2C 3869  13.837   3.819   0.008
    1STR   BCK1 3870  13.844   4.141   4.106
    1STR    O03 3871  13.801   4.256   4.109
    1STR    N04 3872  13.964   4.105   4.057
    1STR    C05 3873  14.057   4.177   3.980
    1STR    C06 3874  14.197   4.164   4.004
    1STR    C07 3875  14.296   4.227   3.921
    1STR    N08 3876  14.434   4.209   3.944
    1STR    C09 3877  14.539   4.229   3.861
    1STR    O0A 3878  14.528   4.263   3.744
    1STR    O0B 3879  14.660   4.206   3.921
    1STR    C0C 3880  14.783   4.236   3.851
    1STR    C0D 3881  14.811   4.387   3.862
    1STR    C0E 3882  14.904   4.154   3.903
    1STR    O0F 3883  15.026   4.187   3.834
    1STR    C0G 3884  15.143   4.109   3.866
    1STR    C0H 3885  15.135   3.975   3.791
    1STR    C0I 3886  15.273   4.184   3.828
    1STR    O0J 3887  15.391   4.119   3.881
    1STR    C0K 3888  15.519   4.170   3.840
    1STR    C0M 3889  15.537   4.315   3.887
    1STR    C0N 3890  15.634   4.082   3.897
    1STR    O0O 3891  15.762   4.122   3.843
    1STR    C0P 3892  15.876   4.117   3.916
    1STR    O0Q 3893  15.884   4.087   4.035
    1STR    N0R 3894  15.978   4.154   3.839
    1STR    C0S 3895  16.115   4.180   3.860
    1STR    C0T 3896  16.182   4.239   3.752
    1STR    C0U 3897  16.315   4.280   3.762
    1STR    C0V 3898  16.387   4.261   3.881
    1STR    C0W 3899  16.525   4.324   3.888
    1STR    C0X 3900  16.328   4.190   3.990
    1STR    N0Y 3901  16.402   4.164   4.107
    1STR   BCK2 3902  16.528   4.115   4.117
    1STR    O10 3903  16.592   4.073   4.021
    1STR    C13 3904  16.190   4.154   3.979
    1STR    C14 3905  14.249   4.308   3.816
    1STR    C15 3906  14.112   4.320   3.789
    1STR    C16 3907  14.016   4.253   3.867
    1STR    C17 3908  13.871   4.260   3.820
    1STR    H1B 3909  13.989   4.010   4.077
    1STR    H1C 3910  14.230   4.104   4.087
    1STR    H1D 3911  14.464   4.175   4.034
    1STR    H1E 3912  14.771   4.211   3.745
    1STR    H1F 3913  14.825   4.418   3.966
    1STR    H1G 3914  14.902   4.414   3.807
    1STR    H1H 3915  14.729   4.446   3.820
    1STR    H1I 3916  14.882   4.048   3.890
    1STR    H1J 3917  14.918   4.170   4.010
    1STR    H1K 3918  15.145   4.091   3.974
    1STR    H1M 3919  15.125   3.991   3.683
    1STR    H1N 3920  15.051   3.914   3.823
    1STR    H1O 3921  15.225   3.916   3.807
    1STR    H1P 3922  15.281   4.194   3.720
    1STR    H1Q 3923  15.267   4.285   3.868
    1STR    H1R 3924  15.525   4.166   3.731
    1STR    H1S 3925  15.638   4.351   3.865
    1STR    H1T 3926  15.523   4.323   3.995
    1STR    H1U 3927  15.468   4.384   3.839
    1STR    H1V 3928  15.618   3.977   3.870
    1STR    H1W 3929  15.635   4.086   4.006
    1STR    H1X 3930  15.945   4.170   3.745
    1STR    H1Y 3931  16.130   4.258   3.658
    1STR    H1Z 3932  16.362   4.330   3.678
    1STR    H20 3933  16.551   4.352   3.991
    1STR    H21 3934  16.601   4.255   3.850
    1STR    H22 3935  16.530   4.415   3.829
    1STR    H23 3936  16.356   4.179   4.195
    1STR    H27 3937  16.141   4.104   4.061
    1STR    H28 3938  14.317   4.362   3.752
    1STR    H29 3939  14.081   4.380   3.704
    1STR    H2A 3940  13.819   4.166   3.839
    1STR    H2B 3941  13.866   4.278   3.713
    1STR    H2C 3942  13.819   4.341   3.871
    1STR   BCK1 3943  13.841   4.148   8.672
    1STR    O03 3944  13.827   4.114   8.789
    1STR    N04 3945  13.948   4.217   8.626
    1STR    C05 3946  14.048   4.283   8.701
    1STR    C06 3947  14.187   4.270   8.668
    1STR    C07 3948  14.289   4.341   8.739
    1STR    N08 3949  14.427   4.332   8.703
    1STR    C09 3950  14.537   4.367   8.774
    1STR    O0A 3951  14.534   4.405   8.891
    1STR    O0B 3952  14.654   4.356   8.703
    1STR    C0C 3953  14.781   4.384   8.768
    1STR    C0D 3954  14.821   4.263   8.855
    1STR    C0E 3955  14.896   4.420   8.669
    1STR    O0F 3956  15.020   4.443   8.740
    1STR    C0G 3957  15.137   4.478   8.663
    1STR    C0H 3958  15.128   4.626   8.623
    1STR    C0I 3959  15.266   4.451   8.746
    1STR    O0J 3960  15.388   4.463   8.669
    1STR    C0K 3961  15.511   4.449   8.743
    1STR    C0M 3962  15.524   4.305   8.797
    1STR    C0N 3963  15.637   4.482   8.658
    1STR    O0O 3964  15.753   4.487   8.743
    1STR    C0P 3965  15.875   4.443   8.703
    1STR    O0Q 3966  15.901   4.390   8.595
    1STR    N0R 3967  15.964   4.469   8.799
    1STR    C0S 3968  16.102   4.449   8.815
    1STR    C0T 3969  16.159   4.508   8.930
    1STR    C0U 3970  16.297   4.501   8.954
    1STR    C0V 3971  16.383   4.435   8.865
    1STR    C0W 3972  16.531   4.449   8.893
    1STR    C0X 3973  16.331   4.368   8.751
    1STR    N0Y 3974  16.409   4.307   8.651
    1STR   BCK2 3975  16.526   4.242   8.634
    1STR    O10 3976  16.559   4.218   8.518
    1STR    C13 3977  16.190   4.379   8.727
    1STR    C14 3978  14.247   4.427   8.843
    1STR    C15 3979  14.111   4.443   8.875
    1STR    C16 3980  14.012   4.374   8.803
    1STR    C17 3981  13.867   4.408   8.836
    1STR    H1B 3982  13.952   4.226   8.526
    1STR    H1C 3983  14.215   4.204   8.588
    1STR    H1D 3984  14.450   4.294   8.614
    1STR    H1E 3985  14.768   4.470   8.834
    1STR    H1F 3986  14.836   4.174   8.795
    1STR    H1G 3987  14.913   4.283   8.909
    1STR    H1H 3988  14.744   4.241   8.930
    1STR    H1I 3989  14.868   4.509   8.613
    1STR    H1J 3990  14.910   4.340   8.597
    1STR    H1K 3991  15.141   4.416   8.573
    1STR    H1M 3992  15.117   4.690   8.710
    1STR    H1N 3993  15.044   4.646   8.556
    1STR    H1O 3994  15.218   4.658   8.570
    1STR    H1P 3995  15.268   4.519   8.832
    1STR    H1Q 3996  15.258   4.351   8.786
    1STR    H1R 3997  15.510   4.519   8.827
    1STR    H1S 3998  15.622   4.290   8.844
    1STR    H1T 3999  15.516   4.232   8.717
    1STR    H1U 4000  15.450   4.282   8.873
    1STR    H1V 4001  15.626   4.579   8.609
    1STR    H1W 4002  15.650   4.409   8.577
    1STR    H1X 4003  15.917   4.517   8.874
    1STR    H1Y 4004  16.098   4.562   9.000
    1STR    H1Z 4005  16.337   4.550   9.042
    1STR    H20 4006  16.567   4.363   8.951
    1STR    H21 4007  16.588   4.458   8.801
    1STR    H22 4008  16.553   4.538   8.952
    1STR    H23 4009  16.365   4.310   8.560
    1STR    H27 4010  16.147   4.333   8.639
    1STR    H28 4011  14.317   4.485   8.901
    1STR    H29 4012  14.084   4.511   8.954
    1STR    H2A 4013  13.805   4.408   8.746
    1STR    H2B 4014  13.859   4.507   8.881
    1STR    H2C 4015  13.826   4.336   8.906
    1STR   BCK1 4016  13.839   4.062  12.916
    1STR    O03 4017  13.810   4.093  12.801
    1STR    N04 4018  13.959   4.013  12.953
    1STR    C05 4019  14.062   3.962  12.872
    1STR    C06 4020  14.198   3.997  12.897
    1STR    C07 4021  14.305   3.938  12.823
    1STR    N08 4022  14.440   3.970  12.850
    1STR    C09 4023  14.549   3.894  12.829
    1STR    O0A 4024  14.545   3.777  12.789
    1STR    O0B 4025  14.666   3.959  12.857
    1STR    C0C 4026  14.792   3.899  12.819
    1STR    C0D 4027  14.820   3.931  12.671
    1STR    C0E 4028  14.909   3.947  12.910
    1STR    O0F 4029  15.031   3.879  12.874
    1STR    C0G 4030  15.146   3.906  12.956
    1STR    C0H 4031  15.135   3.823  13.085
    1STR    C0I 4032  15.275   3.870  12.878
    1STR    O0J 4033  15.395   3.903  12.951
    1STR    C0K 4034  15.520   3.866  12.890
    1STR    C0M 4035  15.541   3.944  12.759
    1STR    C0N 4036  15.639   3.894  12.986
    1STR    O0O 4037  15.759   3.839  12.932
    1STR    C0P 4038  15.881   3.876  12.979
    1STR    O0Q 4039  15.900   3.946  13.078
    1STR    N0R 4040  15.976   3.822  12.903
    1STR    C0S 4041  16.115   3.838  12.895
    1STR    C0T 4042  16.183   3.751  12.808
    1STR    C0U 4043  16.319   3.770  12.778
    1STR    C0V 4044  16.392   3.876  12.836
    1STR    C0W 4045  16.530   3.904  12.778
    1STR    C0X 4046  16.330   3.960  12.932
    1STR    N0Y 4047  16.393   4.072  12.988
    1STR   BCK2 4048  16.514   4.103  13.038
    1STR    O10 4049  16.535   4.219  13.068
    1STR    C13 4050  16.191   3.941  12.959
    1STR    C14 4051  14.272   3.849  12.719
    1STR    C15 4052  14.138   3.812  12.695
    1STR    C16 4053  14.034   3.865  12.772
    1STR    C17 4054  13.894   3.809  12.749
    1STR    H1B 4055  13.972   4.009  13.052
    1STR    H1C 4056  14.220   4.068  12.974
    1STR    H1D 4057  14.461   4.060  12.890
    1STR    H1E 4058  14.785   3.791  12.831
    1STR    H1F 4059  14.827   4.038  12.654
    1STR    H1G 4060  14.913   3.885  12.638
    1STR    H1H 4061  14.740   3.892  12.607
    1STR    H1I 4062  14.883   3.927  13.014
    1STR    H1J 4063  14.922   4.055  12.900
    1STR    H1K 4064  15.150   4.012  12.980
    1STR    H1M 4065  15.125   3.717  13.062
    1STR    H1N 4066  15.050   3.852  13.146
    1STR    H1O 4067  15.225   3.835  13.146
    1STR    H1P 4068  15.274   3.764  12.852
    1STR    H1Q 4069  15.273   3.925  12.784
    1STR    H1R 4070  15.518   3.759  12.869
    1STR    H1S 4071  15.640   3.926  12.718
    1STR    H1T 4072  15.531   4.051  12.774
    1STR    H1U 4073  15.470   3.914  12.681
    1STR    H1V 4074  15.621   3.850  13.084
    1STR    H1W 4075  15.651   4.002  13.003
    1STR    H1X 4076  15.934   3.766  12.830
    1STR    H1Y 4077  16.132   3.671  12.757
    1STR    H1Z 4078  16.368   3.706  12.706
    1STR    H20 4079  16.556   4.010  12.784
    1STR    H21 4080  16.607   3.847  12.830
    1STR    H22 4081  16.535   3.877  12.673
    1STR    H23 4082  16.337   4.156  12.989
    1STR    H27 4083  16.140   4.009  13.025
    1STR    H28 4084  14.348   3.805  12.657
    1STR    H29 4085  14.117   3.740  12.617
    1STR    H2A 4086  13.838   3.802  12.842
    1STR    H2B 4087  13.898   3.709  12.706
    1STR    H2C 4088  13.839   3.873  12.680
    1STR   BCK1 4089  13.842   8.584  17.244
    1STR    O03 4090  13.801   8.677  17.312
    1STR    N04 4091  13.961   8.583  17.178
    1STR    C05 4092  14.052   8.688  17.153
    1STR    C06 4093  14.194   8.665  17.159
    1STR    C07 4094  14.290   8.765  17.126
    1STR    N08 4095  14.430   8.738  17.127
    1STR    C09 4096  14.535   8.812  17.084
    1STR    O0A 4097  14.524   8.922  17.031
    1STR    O0B 4098  14.656   8.752  17.105
    1STR    C0C 4099  14.780   8.825  17.081
    1STR    C0D 4100  14.810   8.911  17.205
    1STR    C0E 4101  14.901   8.734  17.046
    1STR    O0F 4102  15.022   8.811  17.027
    1STR    C0G 4103  15.140   8.738  16.986
    1STR    C0H 4104  15.133   8.716  16.834
    1STR    C0I 4105  15.269   8.816  17.025
    1STR    O0J 4106  15.389   8.738  17.006
    1STR    C0K 4107  15.516   8.804  17.027
    1STR    C0M 4108  15.528   8.856  17.171
    1STR    C0N 4109  15.636   8.708  16.998
    1STR    O0O 4110  15.761   8.779  16.994
    1STR    C0P 4111  15.875   8.729  17.050
    1STR    O0Q 4112  15.882   8.629  17.120
    1STR    N0R 4113  15.977   8.809  17.019
    1STR    C0S 4114  16.114   8.813  17.051
    1STR    C0T 4115  16.185   8.921  16.992
    1STR    C0U 4116  16.319   8.944  17.023
    1STR    C0V 4117  16.389   8.861  17.111
    1STR    C0W 4118  16.530   8.904  17.150
    1STR    C0X 4119  16.326   8.745  17.165
    1STR    N0Y 4120  16.397   8.661  17.252
    1STR   BCK2 4121  16.522   8.610  17.236
    1STR    O10 4122  16.582   8.612  17.129
    1STR    C13 4123  16.187   8.724  17.136
    1STR    C14 4124  14.240   8.892  17.090
    1STR    C15 4125  14.102   8.916  17.081
    1STR    C16 4126  14.008   8.815  17.108
    1STR    C17 4127  13.862   8.848  17.080
    1STR    H1B 4128  13.986   8.492  17.143
    1STR    H1C 4129  14.228   8.567  17.189
    1STR    H1D 4130  14.460   8.650  17.166
    1STR    H1E 4131  14.765   8.891  16.995
    1STR    H1F 4132  14.826   8.849  17.293
    1STR    H1G 4133  14.899   8.971  17.189
    1STR    H1H 4134  14.728   8.979  17.226
    1STR    H1I 4135  14.878   8.677  16.956
    1STR    H1J 4136  14.917   8.660  17.125
    1STR    H1K 4137  15.143   8.642  17.038
    1STR    H1M 4138  15.124   8.811  16.781
    1STR    H1N 4139  15.049   8.653  16.805
    1STR    H1O 4140  15.224   8.667  16.799
    1STR    H1P 4141  15.275   8.909  16.967
    1STR    H1Q 4142  15.261   8.845  17.130
    1STR    H1R 4143  15.523   8.888  16.957
    1STR    H1S 4144  15.628   8.896  17.190
    1STR    H1T 4145  15.512   8.775  17.243
    1STR    H1U 4146  15.457   8.936  17.193
    1STR    H1V 4147  15.623   8.661  16.900
    1STR    H1W 4148  15.638   8.626  17.070
    1STR    H1X 4149  15.944   8.882  16.958
    1STR    H1Y 4150  16.136   8.989  16.925
    1STR    H1Z 4151  16.369   9.029  16.979
    1STR    H20 4152  16.552   8.877  17.253
    1STR    H21 4153  16.603   8.857  17.085
    1STR    H22 4154  16.542   9.012  17.143
    1STR    H23 4155  16.353   8.633  17.338
    1STR    H27 4156  16.136   8.639  17.178
    1STR    H28 4157  14.304   8.975  17.068
    1STR    H29 4158  14.068   9.014  17.050
    1STR    H2A 4159  13.808   8.760  17.045
    1STR    H2B 4160  13.853   8.924  17.003
    1STR    H2C 4161  13.814   8.885  17.171
    1STR   BCK1 4162  13.833   8.508   4.234
    1STR    O03 4163  13.783   8.589   4.158
    1STR    N04 4164  13.960   8.531   4.275
    1STR    C05 4165  14.053   8.480   4.368
    1STR    C06 4166  14.192   8.493   4.337
    1STR    C07 4167  14.296   8.460   4.429
    1STR    N08 4168  14.433   8.484   4.397
    1STR    C09 4169  14.546   8.455   4.465
    1STR    O0A 4170  14.549   8.393   4.571
    1STR    O0B 4171  14.659   8.503   4.404
    1STR    C0C 4172  14.789   8.470   4.457
    1STR    C0D 4173  14.829   8.330   4.406
    1STR    C0E 4174  14.900   8.574   4.422
    1STR    O0F 4175  15.025   8.537   4.483
    1STR    C0G 4176  15.138   8.624   4.461
    1STR    C0H 4177  15.126   8.746   4.553
    1STR    C0I 4178  15.269   8.546   4.489
    1STR    O0J 4179  15.388   8.623   4.460
    1STR    C0K 4180  15.514   8.564   4.496
    1STR    C0M 4181  15.540   8.436   4.414
    1STR    C0N 4182  15.632   8.664   4.476
    1STR    O0O 4183  15.747   8.618   4.548
    1STR    C0P 4184  15.871   8.613   4.491
    1STR    O0Q 4185  15.898   8.647   4.377
    1STR    N0R 4186  15.957   8.560   4.579
    1STR    C0S 4187  16.090   8.517   4.567
    1STR    C0T 4188  16.130   8.417   4.657
    1STR    C0U 4189  16.256   8.356   4.646
    1STR    C0V 4190  16.347   8.396   4.546
    1STR    C0W 4191  16.469   8.309   4.527
    1STR    C0X 4192  16.316   8.507   4.462
    1STR    N0Y 4193  16.401   8.556   4.362
    1STR   BCK2 4194  16.533   8.577   4.344
    1STR    O10 4195  16.568   8.622   4.235
    1STR    C13 4196  16.185   8.563   4.471
    1STR    C14 4197  14.256   8.409   4.554
    1STR    C15 4198  14.120   8.397   4.588
    1STR    C16 4199  14.019   8.436   4.498
    1STR    C17 4200  13.877   8.438   4.553
    1STR    H1B 4201  13.994   8.608   4.221
    1STR    H1C 4202  14.220   8.531   4.240
    1STR    H1D 4203  14.453   8.530   4.310
    1STR    H1E 4204  14.783   8.467   4.566
    1STR    H1F 4205  14.836   8.328   4.297
    1STR    H1G 4206  14.925   8.299   4.447
    1STR    H1H 4207  14.755   8.255   4.436
    1STR    H1I 4208  14.868   8.672   4.457
    1STR    H1J 4209  14.911   8.581   4.314
    1STR    H1K 4210  15.140   8.656   4.356
    1STR    H1M 4211  15.117   8.715   4.658
    1STR    H1N 4212  15.039   8.807   4.529
    1STR    H1O 4213  15.214   8.809   4.544
    1STR    H1P 4214  15.271   8.513   4.593
    1STR    H1Q 4215  15.269   8.456   4.428
    1STR    H1R 4216  15.510   8.539   4.602
    1STR    H1S 4217  15.640   8.398   4.434
    1STR    H1T 4218  15.533   8.456   4.307
    1STR    H1U 4219  15.470   8.356   4.438
    1STR    H1V 4220  15.605   8.762   4.514
    1STR    H1W 4221  15.653   8.678   4.369
    1STR    H1X 4222  15.910   8.542   4.666
    1STR    H1Y 4223  16.062   8.380   4.733
    1STR    H1Z 4224  16.281   8.275   4.712
    1STR    H20 4225  16.506   8.314   4.425
    1STR    H21 4226  16.549   8.338   4.596
    1STR    H22 4227  16.445   8.204   4.546
    1STR    H23 4228  16.354   8.590   4.280
    1STR    H27 4229  16.156   8.642   4.403
    1STR    H28 4230  14.327   8.381   4.630
    1STR    H29 4231  14.094   8.361   4.686
    1STR    H2A 4232  13.819   8.518   4.508
    1STR    H2B 4233  13.877   8.455   4.660
    1STR    H2C 4234  13.829   8.342   4.535
    1STR   BCK1 4235  13.846   8.449   8.483
    1STR    O03 4236  13.806   8.555   8.437
    1STR    N04 4237  13.967   8.395   8.459
    1STR    C05 4238  14.062   8.428   8.360
    1STR    C06 4239  14.202   8.430   8.392
    1STR    C07 4240  14.302   8.450   8.293
    1STR    N08 4241  14.440   8.447   8.326
    1STR    C09 4242  14.547   8.426   8.245
    1STR    O0A 4243  14.539   8.403   8.125
    1STR    O0B 4244  14.666   8.435   8.312
    1STR    C0C 4245  14.791   8.427   8.239
    1STR    C0D 4246  14.819   8.562   8.172
    1STR    C0E 4247  14.909   8.383   8.330
    1STR    O0F 4248  15.032   8.374   8.255
    1STR    C0G 4249  15.147   8.324   8.325
    1STR    C0H 4250  15.137   8.171   8.334
    1STR    C0I 4251  15.278   8.366   8.253
    1STR    O0J 4252  15.395   8.336   8.332
    1STR    C0K 4253  15.523   8.355   8.269
    1STR    C0M 4254  15.545   8.504   8.235
    1STR    C0N 4255  15.638   8.306   8.363
    1STR    O0O 4256  15.763   8.307   8.294
    1STR    C0P 4257  15.880   8.335   8.357
    1STR    O0Q 4258  15.892   8.366   8.475
    1STR    N0R 4259  15.980   8.329   8.269
    1STR    C0S 4260  16.117   8.362   8.275
    1STR    C0T 4261  16.179   8.380   8.150
    1STR    C0U 4262  16.312   8.423   8.141
    1STR    C0V 4263  16.388   8.446   8.257
    1STR    C0W 4264  16.525   8.509   8.236
    1STR    C0X 4265  16.334   8.416   8.385
    1STR    N0Y 4266  16.412   8.430   8.502
    1STR   BCK2 4267  16.539   8.390   8.523
    1STR    O10 4268  16.605   8.324   8.444
    1STR    C13 4269  16.196   8.378   8.393
    1STR    C14 4270  14.259   8.475   8.161
    1STR    C15 4271  14.123   8.471   8.127
    1STR    C16 4272  14.025   8.445   8.225
    1STR    C17 4273  13.881   8.428   8.176
    1STR    H1B 4274  13.989   8.318   8.519
    1STR    H1C 4275  14.231   8.413   8.495
    1STR    H1D 4276  14.466   8.458   8.422
    1STR    H1E 4277  14.780   8.351   8.161
    1STR    H1F 4278  14.830   8.642   8.246
    1STR    H1G 4279  14.911   8.558   8.114
    1STR    H1H 4280  14.739   8.591   8.104
    1STR    H1I 4281  14.885   8.287   8.374
    1STR    H1J 4282  14.921   8.453   8.412
    1STR    H1K 4283  15.149   8.368   8.426
    1STR    H1M 4284  15.127   8.127   8.236
    1STR    H1N 4285  15.053   8.139   8.395
    1STR    H1O 4286  15.227   8.130   8.380
    1STR    H1P 4287  15.283   8.317   8.156
    1STR    H1Q 4288  15.274   8.473   8.234
    1STR    H1R 4289  15.527   8.296   8.178
    1STR    H1S 4290  15.646   8.521   8.198
    1STR    H1T 4291  15.532   8.566   8.324
    1STR    H1U 4292  15.476   8.540   8.159
    1STR    H1V 4293  15.618   8.204   8.395
    1STR    H1W 4294  15.642   8.367   8.453
    1STR    H1X 4295  15.945   8.299   8.180
    1STR    H1Y 4296  16.124   8.366   8.058
    1STR    H1Z 4297  16.355   8.441   8.044
    1STR    H20 4298  16.554   8.569   8.323
    1STR    H21 4299  16.600   8.432   8.220
    1STR    H22 4300  16.525   8.576   8.150
    1STR    H23 4301  16.367   8.469   8.583
    1STR    H27 4302  16.151   8.360   8.489
    1STR    H28 4303  14.329   8.495   8.081
    1STR    H29 4304  14.094   8.486   8.024
    1STR    H2A 4305  13.830   8.350   8.233
    1STR    H2B 4306  13.878   8.397   8.072
    1STR    H2C 4307  13.827   8.521   8.186
    1STR   BCK1 4308  13.842   8.575  12.995
    1STR    O03 4309  13.808   8.612  13.107
    1STR    N04 4310  13.957   8.611  12.934
    1STR    C05 4311  14.052   8.710  12.971
    1STR    C06 4312  14.192   8.686  12.957
    1STR    C07 4313  14.291   8.786  12.986
    1STR    N08 4314  14.430   8.764  12.965
    1STR    C09 4315  14.537   8.836  13.005
    1STR    O0A 4316  14.531   8.934  13.079
    1STR    O0B 4317  14.656   8.788  12.956
    1STR    C0C 4318  14.782   8.849  12.996
    1STR    C0D 4319  14.819   8.798  13.136
    1STR    C0E 4320  14.899   8.825  12.896
    1STR    O0F 4321  15.021   8.886  12.943
    1STR    C0G 4322  15.138   8.873  12.860
    1STR    C0H 4323  15.131   8.977  12.747
    1STR    C0I 4324  15.268   8.892  12.945
    1STR    O0J 4325  15.389   8.860  12.872
    1STR    C0K 4326  15.515   8.884  12.939
    1STR    C0M 4327  15.527   8.798  13.066
    1STR    C0N 4328  15.636   8.855  12.846
    1STR    O0O 4329  15.758   8.909  12.900
    1STR    C0P 4330  15.873   8.836  12.911
    1STR    O0Q 4331  15.883   8.716  12.893
    1STR    N0R 4332  15.973   8.919  12.945
    1STR    C0S 4333  16.110   8.904  12.973
    1STR    C0T 4334  16.176   9.026  12.999
    1STR    C0U 4335  16.311   9.028  13.037
    1STR    C0V 4336  16.384   8.909  13.051
    1STR    C0W 4337  16.525   8.920  13.108
    1STR    C0X 4338  16.324   8.784  13.016
    1STR    N0Y 4339  16.399   8.666  13.031
    1STR   BCK2 4340  16.525   8.643  12.986
    1STR    O10 4341  16.579   8.709  12.898
    1STR    C13 4342  16.186   8.783  12.980
    1STR    C14 4343  14.243   8.911  13.031
    1STR    C15 4344  14.106   8.937  13.044
    1STR    C16 4345  14.010   8.840  13.011
    1STR    C17 4346  13.865   8.884  13.013
    1STR    H1B 4347  13.977   8.560  12.850
    1STR    H1C 4348  14.225   8.590  12.922
    1STR    H1D 4349  14.457   8.683  12.911
    1STR    H1E 4350  14.767   8.958  13.002
    1STR    H1F 4351  14.836   8.690  13.136
    1STR    H1G 4352  14.911   8.845  13.172
    1STR    H1H 4353  14.741   8.820  13.209
    1STR    H1I 4354  14.872   8.866  12.799
    1STR    H1J 4355  14.915   8.718  12.882
    1STR    H1K 4356  15.142   8.772  12.818
    1STR    H1M 4357  15.122   9.078  12.787
    1STR    H1N 4358  15.047   8.959  12.680
    1STR    H1O 4359  15.222   8.973  12.686
    1STR    H1P 4360  15.273   8.995  12.982
    1STR    H1Q 4361  15.260   8.828  13.032
    1STR    H1R 4362  15.519   8.990  12.967
    1STR    H1S 4363  15.626   8.808  13.110
    1STR    H1T 4364  15.513   8.692  13.042
    1STR    H1U 4365  15.455   8.825  13.143
    1STR    H1V 4366  15.621   8.903  12.749
    1STR    H1W 4367  15.645   8.749  12.825
    1STR    H1X 4368  15.937   9.012  12.948
    1STR    H1Y 4369  16.125   9.120  12.991
    1STR    H1Z 4370  16.359   9.122  13.059
    1STR    H20 4371  16.549   8.835  13.172
    1STR    H21 4372  16.598   8.924  13.027
    1STR    H22 4373  16.537   9.010  13.168
    1STR    H23 4374  16.359   8.590  13.084
    1STR    H27 4375  16.137   8.690  12.957
    1STR    H28 4376  14.310   8.993  13.054
    1STR    H29 4377  14.075   9.035  13.076
    1STR    H2A 4378  13.807   8.834  12.935
    1STR    H2B 4379  13.856   8.991  12.996
    1STR    H2C 4380  13.820   8.862  13.110
    1STR   BCK1 4381  13.840  12.833  17.288
    1STR    O03 4382  13.791  12.927  17.226
    1STR    N04 4383  13.970  12.806  17.270
    1STR    C05 4384  14.062  12.707  17.309
    1STR    C06 4385  14.199  12.746  17.329
    1STR    C07 4386  14.302  12.653  17.357
    1STR    N08 4387  14.437  12.693  17.366
    1STR    C09 4388  14.550  12.620  17.354
    1STR    O0A 4389  14.551  12.498  17.332
    1STR    O0B 4390  14.663  12.694  17.367
    1STR    C0C 4391  14.793  12.633  17.356
    1STR    C0D 4392  14.825  12.600  17.209
    1STR    C0E 4393  14.906  12.721  17.417
    1STR    O0F 4394  15.030  12.648  17.417
    1STR    C0G 4395  15.145  12.717   0.031
    1STR    C0H 4396  15.136  12.718   0.184
    1STR    C0I 4397  15.275  12.646  17.424
    1STR    O0J 4398  15.394  12.714   0.028
    1STR    C0K 4399  15.520  12.651   0.001
    1STR    C0M 4400  15.546  12.643  17.290
    1STR    C0N 4401  15.635  12.728   0.070
    1STR    O0O 4402  15.755  12.649   0.073
    1STR    C0P 4403  15.875  12.699   0.032
    1STR    O0Q 4404  15.892  12.809  17.421
    1STR    N0R 4405  15.971  12.607   0.050
    1STR    C0S 4406  16.106  12.605   0.012
    1STR    C0T 4407  16.162  12.479  17.424
    1STR    C0U 4408  16.293  12.468  17.375
    1STR    C0V 4409  16.373  12.582  17.356
    1STR    C0W 4410  16.505  12.562  17.283
    1STR    C0X 4411  16.326  12.709  17.396
    1STR    N0Y 4412  16.400  12.827  17.383
    1STR   BCK2 4413  16.527  12.865  17.407
    1STR    O10 4414  16.560  12.979  17.378
    1STR    C13 4415  16.190  12.720  17.440
    1STR    C14 4416  14.264  12.518  17.375
    1STR    C15 4417  14.132  12.477  17.353
    1STR    C16 4418  14.032  12.569  17.315
    1STR    C17 4419  13.899  12.509  17.272
    1STR    H1B 4420  14.011  12.884  17.220
    1STR    H1C 4421  14.225  12.851  17.319
    1STR    H1D 4422  14.458  12.791  17.380
    1STR    H1E 4423  14.791  12.540  17.414
    1STR    H1F 4424  14.827  12.691  17.149
    1STR    H1G 4425  14.922  12.552  17.201
    1STR    H1H 4426  14.751  12.532  17.167
    1STR    H1I 4427  14.878  12.750   0.079
    1STR    H1J 4428  14.916  12.814  17.361
    1STR    H1K 4429  15.147  12.820  17.433
    1STR    H1M 4430  15.125  12.617   0.224
    1STR    H1N 4431  15.052  12.778   0.219
    1STR    H1O 4432  15.226  12.762   0.227
    1STR    H1P 4433  15.275  12.543   0.019
    1STR    H1Q 4434  15.274  12.642  17.315
    1STR    H1R 4435  15.518  12.550   0.043
    1STR    H1S 4436  15.646  12.605  17.270
    1STR    H1T 4437  15.539  12.742  17.244
    1STR    H1U 4438  15.476  12.577  17.238
    1STR    H1V 4439  15.609  12.750   0.174
    1STR    H1W 4440  15.651  12.825   0.022
    1STR    H1X 4441  15.935  12.525   0.095
    1STR    H1Y 4442  16.103  12.389  17.435
    1STR    H1Z 4443  16.331  12.371  17.349
    1STR    H20 4444  16.538  12.654  17.234
    1STR    H21 4445  16.582  12.528  17.351
    1STR    H22 4446  16.494  12.487  17.204
    1STR    H23 4447  16.348  12.909  17.357
    1STR    H27 4448  16.149  12.817   0.025
    1STR    H28 4449  14.336  12.443  17.403
    1STR    H29 4450  14.108  12.372  17.363
    1STR    H2A 4451  13.835  12.494  17.359
    1STR    H2B 4452  13.914  12.413  17.224
    1STR    H2C 4453  13.849  12.574  17.200
    1STR   BCK1 4454  13.841  12.899   4.113
    1STR    O03 4455  13.797  13.011   4.140
    1STR    N04 4456  13.961  12.875   4.056
    1STR    C05 4457  14.055  12.964   3.997
    1STR    C06 4458  14.195  12.944   4.016
    1STR    C07 4459  14.294  13.024   3.950
    1STR    N08 4460  14.433  13.002   3.967
    1STR    C09 4461  14.536  13.038   3.888
    1STR    O0A 4462  14.522  13.092   3.779
    1STR    O0B 4463  14.658  13.006   3.941
    1STR    C0C 4464  14.780  13.058   3.882
    1STR    C0D 4465  14.807  13.198   3.940
    1STR    C0E 4466  14.903  12.965   3.904
    1STR    O0F 4467  15.024  13.019   3.847
    1STR    C0G 4468  15.141  12.936   3.852
    1STR    C0H 4469  15.134  12.835   3.735
    1STR    C0I 4470  15.271  13.021   3.842
    1STR    O0J 4471  15.390  12.942   3.869
    1STR    C0K 4472  15.518  13.006   3.850
    1STR    C0M 4473  15.532  13.127   3.944
    1STR    C0N 4474  15.635  12.907   3.876
    1STR    O0O 4475  15.761  12.965   3.840
    1STR    C0P 4476  15.877  12.935   3.906
    1STR    O0Q 4477  15.886  12.861   4.003
    1STR    N0R 4478  15.978  13.000   3.847
    1STR    C0S 4479  16.115  13.016   3.875
    1STR    C0T 4480  16.183  13.100   3.784
    1STR    C0U 4481  16.317  13.135   3.805
    1STR    C0V 4482  16.388  13.086   3.916
    1STR    C0W 4483  16.527  13.144   3.939
    1STR    C0X 4484  16.328  12.992   4.004
    1STR    N0Y 4485  16.400  12.940   4.114
    1STR   BCK2 4486  16.526  12.891   4.115
    1STR    O10 4487  16.590  12.867   4.014
    1STR    C13 4488  16.189  12.960   3.984
    1STR    C14 4489  14.247  13.129   3.869
    1STR    C15 4490  14.110  13.149   3.847
    1STR    C16 4491  14.014  13.065   3.907
    1STR    C17 4492  13.869  13.086   3.865
    1STR    H1B 4493  13.988  12.779   4.061
    1STR    H1C 4494  14.228  12.866   4.082
    1STR    H1D 4495  14.463  12.953   4.050
    1STR    H1E 4496  14.767  13.067   3.774
    1STR    H1F 4497  14.822  13.194   4.048
    1STR    H1G 4498  14.896  13.242   3.896
    1STR    H1H 4499  14.724  13.266   3.920
    1STR    H1I 4500  14.881  12.867   3.860
    1STR    H1J 4501  14.918  12.948   4.011
    1STR    H1K 4502  15.144  12.883   3.947
    1STR    H1M 4503  15.126  12.887   3.640
    1STR    H1N 4504  15.050  12.767   3.744
    1STR    H1O 4505  15.225  12.775   3.732
    1STR    H1P 4506  15.278  13.068   3.744
    1STR    H1Q 4507  15.265  13.101   3.916
    1STR    H1R 4508  15.525  13.040   3.746
    1STR    H1S 4509  15.633  13.170   3.937
    1STR    H1T 4510  15.517  13.099   4.048
    1STR    H1U 4511  15.463  13.208   3.919
    1STR    H1V 4512  15.622  12.816   3.816
    1STR    H1W 4513  15.636  12.875   3.980
    1STR    H1X 4514  15.944  13.049   3.767
    1STR    H1Y 4515  16.133  13.142   3.699
    1STR    H1Z 4516  16.365  13.203   3.737
    1STR    H20 4517  16.551  13.149   4.046
    1STR    H21 4518  16.602  13.084   3.889
    1STR    H22 4519  16.534  13.246   3.901
    1STR    H23 4520  16.354  12.939   4.203
    1STR    H27 4521  16.139  12.893   4.052
    1STR    H28 4522  14.315  13.197   3.820
    1STR    H29 4523  14.079  13.229   3.781
    1STR    H2A 4524  13.814  12.992   3.863
    1STR    H2B 4525  13.862  13.129   3.765
    1STR    H2C 4526  13.819  13.154   3.934
    1STR   BCK1 4527  13.833  12.829   8.664
    1STR    O03 4528  13.802  12.776   8.769
    1STR    N04 4529  13.950  12.894   8.642
    1STR    C05 4530  14.050  12.934   8.733
    1STR    C06 4531  14.188  12.928   8.696
    1STR    C07 4532  14.293  12.973   8.783
    1STR    N08 4533  14.429  12.972   8.743
    1STR    C09 4534  14.540  12.983   8.820
    1STR    O0A 4535  14.539  12.979   8.943
    1STR    O0B 4536  14.656  12.997   8.748
    1STR    C0C 4537  14.784  13.002   8.815
    1STR    C0D 4538  14.825  12.859   8.853
    1STR    C0E 4539  14.895  13.071   8.732
    1STR    O0F 4540  15.020  13.072   8.805
    1STR    C0G 4541  15.134  13.133   8.741
    1STR    C0H 4542  15.123  13.286   8.755
    1STR    C0I 4543  15.264  13.081   8.808
    1STR    O0J 4544  15.385  13.122   8.742
    1STR    C0K 4545  15.509  13.085   8.806
    1STR    C0M 4546  15.525  12.932   8.809
    1STR    C0N 4547  15.634  13.147   8.736
    1STR    O0O 4548  15.749  13.129   8.820
    1STR    C0P 4549  15.872  13.101   8.772
    1STR    O0Q 4550  15.901  13.086   8.654
    1STR    N0R 4551  15.957  13.093   8.874
    1STR    C0S 4552  16.095  13.067   8.889
    1STR    C0T 4553  16.142  13.070   9.021
    1STR    C0U 4554  16.278  13.052   9.049
    1STR    C0V 4555  16.372  13.030   8.946
    1STR    C0W 4556  16.517  13.029   8.989
    1STR    C0X 4557  16.328  13.019   8.811
    1STR    N0Y 4558  16.414  13.006   8.700
    1STR   BCK2 4559  16.535  12.958   8.664
    1STR    O10 4560  16.573  12.983   8.550
    1STR    C13 4561  16.189  13.040   8.785
    1STR    C14 4562  14.254  13.025   8.908
    1STR    C15 4563  14.119  13.034   8.945
    1STR    C16 4564  14.017  12.993   8.858
    1STR    C17 4565  13.874  13.023   8.901
    1STR    H1B 4566  13.969  12.914   8.545
    1STR    H1C 4567  14.216  12.888   8.599
    1STR    H1D 4568  14.449  12.961   8.644
    1STR    H1E 4569  14.772  13.060   8.907
    1STR    H1F 4570  14.836  12.797   8.764
    1STR    H1G 4571  14.919  12.858   8.907
    1STR    H1H 4572  14.750  12.812   8.917
    1STR    H1I 4573  14.864  13.173   8.708
    1STR    H1J 4574  14.907  13.019   8.636
    1STR    H1K 4575  15.136  13.105   8.636
    1STR    H1M 4576  15.113  13.315   8.859
    1STR    H1N 4577  15.037  13.325   8.701
    1STR    H1O 4578  15.211  13.335   8.714
    1STR    H1P 4579  15.266  13.113   8.913
    1STR    H1Q 4580  15.258  12.972   8.809
    1STR    H1R 4581  15.507  13.124   8.908
    1STR    H1S 4582  15.623  12.904   8.848
    1STR    H1T 4583  15.516  12.890   8.709
    1STR    H1U 4584  15.452  12.884   8.874
    1STR    H1V 4585  15.619  13.254   8.720
    1STR    H1W 4586  15.649  13.103   8.637
    1STR    H1X 4587  15.907  13.113   8.959
    1STR    H1Y 4588  16.076  13.090   9.104
    1STR    H1Z 4589  16.312  13.059   9.152
    1STR    H20 4590  16.550  12.926   9.003
    1STR    H21 4591  16.580  13.079   8.915
    1STR    H22 4592  16.532  13.081   9.083
    1STR    H23 4593  16.374  13.043   8.615
    1STR    H27 4594  16.152  13.036   8.683
    1STR    H28 4595  14.326  13.063   8.979
    1STR    H29 4596  14.094  13.077   9.041
    1STR    H2A 4597  13.811  13.048   8.816
    1STR    H2B 4598  13.871  13.109   8.969
    1STR    H2C 4599  13.831  12.938   8.954
    1STR   BCK1 4600  13.844  12.783  12.886
    1STR    O03 4601  13.810  12.853  12.791
    1STR    N04 4602  13.965  12.725  12.899
    1STR    C05 4603  14.065  12.706  12.802
    1STR    C06 4604  14.202  12.728  12.834
    1STR    C07 4605  14.307  12.698  12.742
    1STR    N08 4606  14.443  12.716  12.775
    1STR    C09 4607  14.550  12.650  12.727
    1STR    O0A 4608  14.542  12.554  12.651
    1STR    O0B 4609  14.668  12.701  12.773
    1STR    C0C 4610  14.793  12.656  12.716
    1STR    C0D 4611  14.819  12.736  12.587
    1STR    C0E 4612  14.912  12.670  12.815
    1STR    O0F 4613  15.033  12.619  12.758
    1STR    C0G 4614  15.149  12.617  12.844
    1STR    C0H 4615  15.139  12.495  12.937
    1STR    C0I 4616  15.279  12.610  12.758
    1STR    O0J 4617  15.397  12.621  12.840
    1STR    C0K 4618  15.524  12.607  12.773
    1STR    C0M 4619  15.545  12.721  12.672
    1STR    C0N 4620  15.641  12.606  12.875
    1STR    O0O 4621  15.765  12.573  12.812
    1STR    C0P 4622  15.884  12.618  12.861
    1STR    O0Q 4623  15.896  12.691  12.958
    1STR    N0R 4624  15.984  12.572  12.785
    1STR    C0S 4625  16.123  12.595  12.783
    1STR    C0T 4626  16.196  12.530  12.681
    1STR    C0U 4627  16.332  12.557  12.661
    1STR    C0V 4628  16.401  12.648  12.742
    1STR    C0W 4629  16.541  12.687  12.699
    1STR    C0X 4630  16.335  12.708  12.853
    1STR    N0Y 4631  16.395  12.805  12.935
    1STR   BCK2 4632  16.514  12.825  12.994
    1STR    O10 4633  16.532  12.932  13.052
    1STR    C13 4634  16.195  12.682  12.870
    1STR    C14 4635  14.270  12.651  12.614
    1STR    C15 4636  14.135  12.627  12.581
    1STR    C16 4637  14.033  12.651  12.675
    1STR    C17 4638  13.892  12.609  12.636
    1STR    H1B 4639  13.981  12.687  12.990
    1STR    H1C 4640  14.227  12.767  12.931
    1STR    H1D 4641  14.466  12.786  12.843
    1STR    H1E 4642  14.785  12.550  12.691
    1STR    H1F 4643  14.828  12.842  12.606
    1STR    H1G 4644  14.912  12.703  12.539
    1STR    H1H 4645  14.739  12.721  12.514
    1STR    H1I 4646  14.887  12.616  12.907
    1STR    H1J 4647  14.925  12.775  12.843
    1STR    H1K 4648  15.152  12.709  12.902
    1STR    H1M 4649  15.129  12.403  12.880
    1STR    H1N 4650  15.054  12.502  13.005
    1STR    H1O 4651  15.229  12.486  12.998
    1STR    H1P 4652  15.281  12.518  12.700
    1STR    H1Q 4653  15.276  12.692  12.687
    1STR    H1R 4654  15.525  12.511  12.720
    1STR    H1S 4655  15.645  12.717  12.629
    1STR    H1T 4656  15.534  12.818  12.720
    1STR    H1U 4657  15.475  12.716  12.588
    1STR    H1V 4658  15.623  12.532  12.954
    1STR    H1W 4659  15.648  12.703  12.925
    1STR    H1X 4660  15.949  12.511  12.714
    1STR    H1Y 4661  16.147  12.461  12.614
    1STR    H1Z 4662  16.384  12.510  12.579
    1STR    H20 4663  16.566  12.789  12.728
    1STR    H21 4664  16.616  12.620  12.740
    1STR    H22 4665  16.551  12.683  12.590
    1STR    H23 4666  16.335  12.882  12.958
    1STR    H27 4667  16.142  12.731  12.950
    1STR    H28 4668  14.344  12.631  12.538
    1STR    H29 4669  14.111  12.588  12.484
    1STR    H2A 4670  13.838  12.569  12.722
    1STR    H2B 4671  13.893  12.530  12.561
    1STR    H2C 4672  13.837  12.694  12.596
    1STR   BCK1 4673  17.210   0.710  17.113
    1STR    O03 4674  17.309   0.656  17.159
    1STR    N04 4675  17.188   0.839  17.147
    1STR    C05 4676  17.086   0.936  17.135
    1STR    C06 4677  17.123   1.073  17.120
    1STR    C07 4678  17.028   1.180  17.122
    1STR    N08 4679  17.069   1.316  17.113
    1STR    C09 4680  16.998   1.431  17.129
    1STR    O0A 4681  16.879   1.435  17.156
    1STR    O0B 4682  17.075   1.545  17.116
    1STR    C0C 4683  17.015   1.675  17.135
    1STR    C0D 4684  16.996   1.703  17.285
    1STR    C0E 4685  17.095   1.791  17.068
    1STR    O0F 4686  17.026   1.918  17.081
    1STR    C0G 4687  17.086   2.033  17.018
    1STR    C0H 4688  17.070   2.023  16.866
    1STR    C0I 4689  17.019   2.164  17.070
    1STR    O0J 4690  17.081   2.285  17.019
    1STR    C0K 4691  17.015   2.410  17.049
    1STR    C0M 4692  17.023   2.438  17.200
    1STR    C0N 4693  17.077   2.530  16.971
    1STR    O0O 4694  16.993   2.646  16.982
    1STR    C0P 4695  17.043   2.773  16.983
    1STR    O0Q 4696  17.162   2.803  16.976
    1STR    N0R 4697  16.943   2.860  17.000
    1STR    C0S 4698  16.938   2.997  17.028
    1STR    C0T 4699  16.831   3.038  17.110
    1STR    C0U 4700  16.821   3.171  17.154
    1STR    C0V 4701  16.915   3.268  17.114
    1STR    C0W 4702  16.908   3.403  17.184
    1STR    C0X 4703  17.017   3.234  17.021
    1STR    N0Y 4704  17.113   3.329  16.981
    1STR   BCK2 4705  17.107   3.457  16.940
    1STR    O10 4706  17.211   3.523  16.937
    1STR    C13 4707  17.030   3.097  16.983
    1STR    C14 4708  16.892   1.143  17.134
    1STR    C15 4709  16.854   1.009  17.151
    1STR    C16 4710  16.949   0.906  17.156
    1STR    C17 4711  16.900   0.768  17.196
    1STR    H1B 4712  17.269   0.872  17.197
    1STR    H1C 4713  17.228   1.098  17.110
    1STR    H1D 4714  17.166   1.335  17.095
    1STR    H1E 4715  16.916   1.674  17.087
    1STR    H1F 4716  17.091   1.704  17.338
    1STR    H1G 4717  16.947   1.799  17.301
    1STR    H1H 4718  16.933   1.627  17.332
    1STR    H1I 4719  17.110   1.767  16.963
    1STR    H1J 4720  17.194   1.799  17.113
    1STR    H1K 4721  17.192   2.038  17.045
    1STR    H1M 4722  16.966   2.009  16.838
    1STR    H1N 4723  17.127   1.940  16.824
    1STR    H1O 4724  17.106   2.113  16.817
    1STR    H1P 4725  16.913   2.163  17.044
    1STR    H1Q 4726  17.023   2.164  17.179
    1STR    H1R 4727  16.911   2.402  17.019
    1STR    H1S 4728  16.982   2.537  17.224
    1STR    H1T 4729  17.126   2.436  17.235
    1STR    H1U 4730  16.966   2.366  17.259
    1STR    H1V 4731  17.086   2.505  16.865
    1STR    H1W 4732  17.178   2.551  17.006
    1STR    H1X 4733  16.856   2.810  17.001
    1STR    H1Y 4734  16.759   2.967  17.145
    1STR    H1Z 4735  16.742   3.197  17.222
    1STR    H20 4736  17.007   3.449  17.192
    1STR    H21 4737  16.841   3.471  17.132
    1STR    H22 4738  16.871   3.392  17.286
    1STR    H23 4739  17.208   3.297  16.984
    1STR    H27 4740  17.111   3.066  16.919
    1STR    H28 4741  16.813   1.216  17.133
    1STR    H29 4742  16.749   0.987  17.165
    1STR    H2A 4743  16.870   0.712  17.107
    1STR    H2B 4744  16.813   0.775  17.261
    1STR    H2C 4745  16.975   0.712  17.251
    1STR   BCK1 4746  17.310   0.737   4.116
    1STR    O03 4747  17.420   0.683   4.116
    1STR    N04 4748  17.284   0.858   4.172
    1STR    C05 4749  17.364   0.945   4.250
    1STR    C06 4750  17.350   1.088   4.237
    1STR    C07 4751  17.424   1.182   4.316
    1STR    N08 4752  17.405   1.323   4.304
    1STR    C09 4753   0.011   1.425   4.380
    1STR    O0A 4754   0.080   1.411   4.481
    1STR    O0B 4755  17.412   1.550   4.334
    1STR    C0C 4756   0.029   1.671   4.392
    1STR    C0D 4757   0.165   1.697   4.325
    1STR    C0E 4758  17.375   1.796   4.380
    1STR    O0F 4759  17.436   1.918   4.431
    1STR    C0G 4760  17.352   2.035   4.436
    1STR    C0H 4761  17.270   2.029   4.566
    1STR    C0I 4762  17.435   2.168   4.431
    1STR    O0J 4763  17.352   2.285   4.411
    1STR    C0K 4764  17.414   2.416   4.421
    1STR    C0M 4765   0.093   2.427   4.325
    1STR    C0N 4766  17.311   2.530   4.391
    1STR    O0O 4767  17.366   2.661   4.411
    1STR    C0P 4768  17.314   2.772   4.349
    1STR    O0Q 4769  17.224   2.771   4.267
    1STR    N0R 4770  17.379   2.881   4.390
    1STR    C0S 4771  17.374   3.019   4.359
    1STR    C0T 4772   0.018   3.100   4.437
    1STR    C0U 4773   0.032   3.237   4.410
    1STR    C0V 4774  17.402   3.298   4.304
    1STR    C0W 4775  17.438   3.442   4.272
    1STR    C0X 4776  17.308   3.223   4.229
    1STR    N0Y 4777  17.239   3.283   4.121
    1STR   BCK2 4778  17.176   3.403   4.115
    1STR    O10 4779  17.148   3.472   4.212
    1STR    C13 4780  17.297   3.082   4.255
    1STR    C14 4781   0.077   1.128   4.407
    1STR    C15 4782   0.090   0.989   4.425
    1STR    C16 4783   0.012   0.898   4.351
    1STR    C17 4784   0.024   0.752   4.391
    1STR    H1B 4785  17.191   0.891   4.149
    1STR    H1C 4786  17.281   1.126   4.163
    1STR    H1D 4787  17.349   1.355   4.227
    1STR    H1E 4788   0.045   1.654   4.499
    1STR    H1F 4789   0.154   1.714   4.218
    1STR    H1G 4790   0.213   1.785   4.368
    1STR    H1H 4791   0.232   1.613   4.339
    1STR    H1I 4792  17.283   1.775   4.433
    1STR    H1J 4793  17.348   1.811   4.275
    1STR    H1K 4794  17.285   2.035   4.350
    1STR    H1M 4795  17.335   2.022   4.653
    1STR    H1N 4796  17.203   1.943   4.568
    1STR    H1O 4797  17.208   2.118   4.577
    1STR    H1P 4798   0.054   2.177   4.521
    1STR    H1Q 4799   0.065   2.159   4.348
    1STR    H1R 4800   0.009   2.429   4.524
    1STR    H1S 4801   0.134   2.529   4.326
    1STR    H1T 4802   0.063   2.405   4.223
    1STR    H1U 4803   0.175   2.360   4.352
    1STR    H1V 4804  17.224   2.520   4.456
    1STR    H1W 4805  17.273   2.520   4.289
    1STR    H1X 4806   0.005   2.855   4.461
    1STR    H1Y 4807   0.076   3.059   4.518
    1STR    H1Z 4808   0.101   3.296   4.469
    1STR    H20 4809  17.433   3.461   4.165
    1STR    H21 4810  17.369   3.511   4.323
    1STR    H22 4811   0.099   3.467   4.304
    1STR    H23 4812  17.236   3.232   4.034
    1STR    H27 4813  17.230   3.021   4.196
    1STR    H28 4814   0.141   1.190   4.468
    1STR    H29 4815   0.160   0.953   4.499
    1STR    H2A 4816  17.370   0.699   4.377
    1STR    H2B 4817   0.051   0.742   4.496
    1STR    H2C 4818   0.102   0.703   4.333
    1STR   BCK1 4819  17.201   0.724   8.316
    1STR    O03 4820  17.100   0.739   8.248
    1STR    N04 4821  17.292   0.822   8.336
    1STR    C05 4822  17.314   0.934   8.254
    1STR    C06 4823  17.316   1.069   8.303
    1STR    C07 4824  17.347   1.181   8.217
    1STR    N08 4825  17.353   1.315   8.265
    1STR    C09 4826  17.354   1.431   8.194
    1STR    O0A 4827  17.340   1.436   8.072
    1STR    O0B 4828  17.372   1.545   8.270
    1STR    C0C 4829  17.364   1.676   8.207
    1STR    C0D 4830  17.216   1.712   8.186
    1STR    C0E 4831  17.438   1.792   8.281
    1STR    O0F 4832  17.427   1.914   8.205
    1STR    C0G 4833   0.047   2.034   8.259
    1STR    C0H 4834   0.199   2.030   8.234
    1STR    C0I 4835  17.423   2.160   8.191
    1STR    O0J 4836   0.022   2.287   8.249
    1STR    C0K 4837  17.403   2.405   8.189
    1STR    C0M 4838  17.251   2.407   8.214
    1STR    C0N 4839   0.024   2.539   8.240
    1STR    O0O 4840  17.417   2.649   8.158
    1STR    C0P 4841  17.411   2.777   8.206
    1STR    O0Q 4842  17.431   2.810   8.322
    1STR    N0R 4843  17.385   2.862   8.106
    1STR    C0S 4844  17.384   3.003   8.104
    1STR    C0T 4845   0.030   3.065   8.012
    1STR    C0U 4846   0.036   3.205   8.002
    1STR    C0V 4847  17.393   3.287   8.081
    1STR    C0W 4848  17.420   3.436   8.076
    1STR    C0X 4849  17.298   3.228   8.169
    1STR    N0Y 4850  17.214   3.303   8.254
    1STR   BCK2 4851  17.141   3.417   8.249
    1STR    O10 4852  17.087   3.455   8.352
    1STR    C13 4853  17.298   3.086   8.181
    1STR    C14 4854  17.379   1.150   8.083
    1STR    C15 4855  17.379   1.019   8.034
    1STR    C16 4856  17.349   0.911   8.119
    1STR    C17 4857  17.361   0.770   8.061
    1STR    H1B 4858  17.360   0.802   8.407
    1STR    H1C 4859  17.291   1.087   8.406
    1STR    H1D 4860  17.353   1.331   8.364
    1STR    H1E 4861  17.411   1.668   8.109
    1STR    H1F 4862  17.164   1.722   8.281
    1STR    H1G 4863  17.206   1.807   8.133
    1STR    H1H 4864  17.164   1.637   8.127
    1STR    H1I 4865   0.103   1.765   8.295
    1STR    H1J 4866  17.395   1.806   8.381
    1STR    H1K 4867   0.027   2.041   8.366
    1STR    H1M 4868   0.221   2.020   8.128
    1STR    H1N 4869   0.247   1.949   8.287
    1STR    H1O 4870   0.245   2.123   8.268
    1STR    H1P 4871   0.006   2.159   8.085
    1STR    H1Q 4872  17.315   2.148   8.200
    1STR    H1R 4873  17.422   2.401   8.081
    1STR    H1S 4874  17.208   2.502   8.181
    1STR    H1T 4875  17.230   2.398   8.321
    1STR    H1U 4876  17.198   2.328   8.162
    1STR    H1V 4877   0.133   2.537   8.236
    1STR    H1W 4878  17.438   2.556   8.345
    1STR    H1X 4879  17.377   2.814   8.018
    1STR    H1Y 4880   0.097   3.006   7.950
    1STR    H1Z 4881   0.107   3.250   7.935
    1STR    H20 4882  17.364   3.482   7.994
    1STR    H21 4883  17.394   3.485   8.170
    1STR    H22 4884   0.086   3.456   8.058
    1STR    H23 4885  17.201   3.262   8.345
    1STR    H27 4886  17.231   3.038   8.251
    1STR    H28 4887  17.406   1.226   8.012
    1STR    H29 4888  17.404   1.001   7.931
    1STR    H2A 4889  17.414   0.705   8.130
    1STR    H2B 4890  17.415   0.770   7.967
    1STR    H2C 4891  17.262   0.729   8.043
    1STR   BCK1 4892  17.146   0.729  12.802
    1STR    O03 4893  17.229   0.683  12.879
    1STR    N04 4894  17.092   0.852  12.812
    1STR    C05 4895  17.096   0.945  12.919
    1STR    C06 4896  17.112   1.085  12.891
    1STR    C07 4897  17.103   1.185  12.993
    1STR    N08 4898  17.116   1.323  12.964
    1STR    C09 4899  17.062   1.428  13.030
    1STR    O0A 4900  16.984   1.418  13.124
    1STR    O0B 4901  17.103   1.550  12.980
    1STR    C0C 4902  17.066   1.673  13.046
    1STR    C0D 4903  17.159   1.696  13.167
    1STR    C0E 4904  17.069   1.796  12.950
    1STR    O0F 4905  17.026   1.918  13.015
    1STR    C0G 4906  17.013   2.034  12.931
    1STR    C0H 4907  16.881   2.024  12.854
    1STR    C0I 4908  17.016   2.165  13.016
    1STR    O0J 4909  17.012   2.284  12.933
    1STR    C0K 4910  17.003   2.412  13.000
    1STR    C0M 4911  17.128   2.436  13.087
    1STR    C0N 4912  16.986   2.528  12.898
    1STR    O0O 4913  16.966   2.654  12.965
    1STR    C0P 4914  16.971   2.771  12.896
    1STR    O0Q 4915  16.982   2.781  12.775
    1STR    N0R 4916  16.964   2.874  12.982
    1STR    C0S 4917  16.976   3.014  12.968
    1STR    C0T 4918  16.976   3.087  13.089
    1STR    C0U 4919  17.001   3.225  13.089
    1STR    C0V 4920  17.026   3.295  12.969
    1STR    C0W 4921  17.074   3.439  12.982
    1STR    C0X 4922  17.017   3.227  12.845
    1STR    N0Y 4923  17.047   3.288  12.722
    1STR   BCK2 4924  17.019   3.404  12.658
    1STR    O10 4925  17.066   3.422  12.547
    1STR    C13 4926  16.995   3.086  12.847
    1STR    C14 4927  17.082   1.141  13.125
    1STR    C15 4928  17.065   1.004  13.154
    1STR    C16 4929  17.069   0.907  13.053
    1STR    C17 4930  17.036   0.764  13.093
    1STR    H1B 4931  17.033   0.878  12.735
    1STR    H1C 4932  17.130   1.116  12.790
    1STR    H1D 4933  17.172   1.351  12.886
    1STR    H1E 4934  16.964   1.663  13.083
    1STR    H1F 4935  17.263   1.705  13.136
    1STR    H1G 4936  17.132   1.787  13.220
    1STR    H1H 4937  17.153   1.614  13.238
    1STR    H1I 4938  17.005   1.773  12.865
    1STR    H1J 4939  17.170   1.809  12.910
    1STR    H1K 4940  17.097   2.039  12.861
    1STR    H1M 4941  16.796   2.013  12.922
    1STR    H1N 4942  16.879   1.940  12.785
    1STR    H1O 4943  16.864   2.115  12.794
    1STR    H1P 4944  16.933   2.166  13.086
    1STR    H1Q 4945  17.108   2.165  13.075
    1STR    H1R 4946  16.915   2.411  13.064
    1STR    H1S 4947  17.128   2.536  13.129
    1STR    H1T 4948  17.219   2.427  13.027
    1STR    H1U 4949  17.135   2.367  13.170
    1STR    H1V 4950  16.901   2.510  12.832
    1STR    H1W 4951  17.074   2.536  12.833
    1STR    H1X 4952  16.957   2.838  13.075
    1STR    H1Y 4953  16.963   3.038  13.184
    1STR    H1Z 4954  17.008   3.277  13.183
    1STR    H20 4955  17.140   3.466  12.899
    1STR    H21 4956  16.990   3.508  12.984
    1STR    H22 4957  17.132   3.453  13.073
    1STR    H23 4958  17.104   3.233  12.660
    1STR    H27 4959  16.996   3.031  12.754
    1STR    H28 4960  17.077   1.211  13.208
    1STR    H29 4961  17.046   0.975  13.257
    1STR    H2A 4962  16.981   0.712  13.015
    1STR    H2B 4963  16.974   0.762  13.183
    1STR    H2C 4964  17.128   0.709  13.114
    1STR   BCK1 4965  17.345   5.107  17.082
    1STR    O03 4966  17.439   5.065  17.016
    1STR    N04 4967  17.347   5.222  17.154
    1STR    C05 4968   0.015   5.311  17.181
    1STR    C06 4969  17.433   5.453  17.185
    1STR    C07 4970   0.097   5.547  17.216
    1STR    N08 4971   0.071   5.687  17.226
    1STR    C09 4972   0.158   5.791  17.228
    1STR    O0A 4973   0.279   5.780  17.213
    1STR    O0B 4974   0.097   5.913  17.248
    1STR    C0C 4975   0.175   6.036  17.243
    1STR    C0D 4976   0.201   6.072  17.096
    1STR    C0E 4977   0.109   6.156  17.318
    1STR    O0F 4978   0.182   6.280  17.298
    1STR    C0G 4979   0.133   6.398  17.366
    1STR    C0H 4980   0.181   6.394   0.072
    1STR    C0I 4981   0.184   6.528  17.295
    1STR    O0J 4982   0.114   6.648  17.337
    1STR    C0K 4983   0.163   6.774  17.286
    1STR    C0M 4984   0.159   6.776  17.132
    1STR    C0N 4985   0.080   6.895  17.341
    1STR    O0O 4986   0.137   7.021  17.300
    1STR    C0P 4987   0.060   7.133  17.283
    1STR    O0Q 4988  17.378   7.137  17.286
    1STR    N0R 4989   0.140   7.239  17.264
    1STR    C0S 4990   0.119   7.377  17.242
    1STR    C0T 4991   0.228   7.459  17.275
    1STR    C0U 4992   0.227   7.596  17.246
    1STR    C0V 4993   0.117   7.656  17.181
    1STR    C0W 4994   0.134   7.801  17.137
    1STR    C0X 4995   0.002   7.578  17.151
    1STR    N0Y 4996  17.334   7.634  17.078
    1STR   BCK2 4997  17.273   7.754  17.092
    1STR    O10 4998  17.283   7.828  17.189
    1STR    C13 4999   0.005   7.438  17.181
    1STR    C14 5000   0.225   5.494  17.243
    1STR    C15 5001   0.248   5.355  17.243
    1STR    C16 5002   0.145   5.264  17.217
    1STR    C17 5003   0.178   5.117  17.236
    1STR    H1B 5004  17.258   5.246  17.193
    1STR    H1C 5005  17.335   5.490  17.162
    1STR    H1D 5006  17.416   5.717  17.232
    1STR    H1E 5007   0.271   6.018  17.291
    1STR    H1F 5008   0.108   6.092  17.043
    1STR    H1G 5009   0.264   6.160  17.088
    1STR    H1H 5010   0.253   5.991  17.044
    1STR    H1I 5011   0.104   6.133  17.424
    1STR    H1J 5012   0.006   6.169  17.283
    1STR    H1K 5013   0.024   6.399  17.363
    1STR    H1M 5014   0.290   6.386   0.077
    1STR    H1N 5015   0.139   6.310   0.127
    1STR    H1O 5016   0.153   6.485   0.125
    1STR    H1P 5017   0.291   6.539  17.310
    1STR    H1Q 5018   0.169   6.514  17.188
    1STR    H1R 5019   0.266   6.787  17.319
    1STR    H1S 5020   0.185   6.875  17.094
    1STR    H1T 5021   0.058   6.753  17.096
    1STR    H1U 5022   0.228   6.706  17.088
    1STR    H1V 5023   0.079   6.893   0.010
    1STR    H1W 5024  17.416   6.888  17.309
    1STR    H1X 5025   0.236   7.210  17.271
    1STR    H1Y 5026   0.316   7.419  17.323
    1STR    H1Z 5027   0.313   7.656  17.270
    1STR    H20 5028   0.087   7.818  17.040
    1STR    H21 5029   0.089   7.868  17.210
    1STR    H22 5030   0.239   7.827  17.126
    1STR    H23 5031  17.297   7.579  17.003
    1STR    H27 5032  17.360   7.375  17.156
    1STR    H28 5033   0.309   5.557  17.268
    1STR    H29 5034   0.347   5.320  17.267
    1STR    H2A 5035   0.092   5.060  17.271
    1STR    H2B 5036   0.257   5.104  17.310
    1STR    H2C 5037   0.214   5.074  17.142
    1STR   BCK1 5038  17.181   5.071   3.991
    1STR    O03 5039  17.095   5.059   4.078
    1STR    N04 5040  17.215   5.189   3.935
    1STR    C05 5041  17.135   5.305   3.926
    1STR    C06 5042  17.185   5.436   3.951
    1STR    C07 5043  17.105   5.553   3.931
    1STR    N08 5044  17.155   5.685   3.950
    1STR    C09 5045  17.109   5.801   3.896
    1STR    O0A 5046  17.019   5.806   3.813
    1STR    O0B 5047  17.172   5.914   3.944
    1STR    C0C 5048  17.116   6.044   3.916
    1STR    C0D 5049  17.008   6.074   4.021
    1STR    C0E 5050  17.220   6.160   3.909
    1STR    O0F 5051  17.155   6.285   3.876
    1STR    C0G 5052  17.238   6.401   3.853
    1STR    C0H 5053  17.306   6.387   3.716
    1STR    C0I 5054  17.151   6.530   3.858
    1STR    O0J 5055  17.229   6.652   3.850
    1STR    C0K 5056  17.157   6.776   3.836
    1STR    C0M 5057  17.079   6.806   3.965
    1STR    C0N 5058  17.254   6.894   3.803
    1STR    O0O 5059  17.188   7.011   3.751
    1STR    C0P 5060  17.173   7.125   3.822
    1STR    O0Q 5061  17.199   7.138   3.941
    1STR    N0R 5062  17.120   7.222   3.746
    1STR    C0S 5063  17.068   7.346   3.784
    1STR    C0T 5064  16.928   7.360   3.783
    1STR    C0U 5065  16.868   7.481   3.823
    1STR    C0V 5066  16.946   7.591   3.862
    1STR    C0W 5067  16.873   7.710   3.923
    1STR    C0X 5068  17.087   7.585   3.853
    1STR    N0Y 5069  17.169   7.692   3.893
    1STR   BCK2 5070  17.168   7.826   3.874
    1STR    O10 5071  17.242   7.894   3.944
    1STR    C13 5072  17.147   7.460   3.817
    1STR    C14 5073  16.971   5.533   3.891
    1STR    C15 5074  16.921   5.405   3.862
    1STR    C16 5075  17.003   5.292   3.875
    1STR    C17 5076  16.946   5.159   3.826
    1STR    H1B 5077  17.301   5.188   3.884
    1STR    H1C 5078  17.287   5.447   3.986
    1STR    H1D 5079  17.235   5.697   4.009
    1STR    H1E 5080  17.068   6.042   3.817
    1STR    H1F 5081  17.050   6.079   4.121
    1STR    H1G 5082  16.958   6.169   4.001
    1STR    H1H 5083  16.931   5.996   4.021
    1STR    H1I 5084  17.294   6.135   3.833
    1STR    H1J 5085  17.273   6.169   4.004
    1STR    H1K 5086  17.313   6.407   3.932
    1STR    H1M 5087  17.233   6.372   3.637
    1STR    H1N 5088  17.377   6.304   3.713
    1STR    H1O 5089  17.363   6.477   3.692
    1STR    H1P 5090  17.078   6.527   3.777
    1STR    H1Q 5091  17.095   6.530   3.951
    1STR    H1R 5092  17.088   6.766   3.752
    1STR    H1S 5093  17.032   6.905   3.960
    1STR    H1T 5094  17.146   6.807   4.051
    1STR    H1U 5095  17.000   6.734   3.984
    1STR    H1V 5096  17.324   6.861   3.726
    1STR    H1W 5097  17.316   6.919   3.890
    1STR    H1X 5098  17.110   7.195   3.649
    1STR    H1Y 5099  16.866   7.277   3.754
    1STR    H1Z 5100  16.760   7.488   3.825
    1STR    H20 5101  16.935   7.763   3.995
    1STR    H21 5102  16.841   7.780   3.845
    1STR    H22 5103  16.783   7.678   3.977
    1STR    H23 5104  17.250   7.667   3.946
    1STR    H27 5105  17.254   7.451   3.814
    1STR    H28 5106  16.902   5.616   3.880
    1STR    H29 5107  16.820   5.395   3.827
    1STR    H2A 5108  17.023   5.101   3.774
    1STR    H2B 5109  16.865   5.174   3.755
    1STR    H2C 5110  16.908   5.101   3.909
    1STR   BCK1 5111  17.236   5.091   8.504
    1STR    O03 5112  17.343   5.040   8.533
    1STR    N04 5113  17.195   5.213   8.548
    1STR    C05 5114  17.252   5.303   8.642
    1STR    C06 5115  17.245   5.444   8.621
    1STR    C07 5116  17.293   5.541   8.716
    1STR    N08 5117  17.282   5.681   8.694
    1STR    C09 5118  17.291   5.784   8.782
    1STR    O0A 5119  17.306   5.769   8.903
    1STR    O0B 5120  17.282   5.909   8.723
    1STR    C0C 5121  17.305   6.029   8.801
    1STR    C0D 5122   0.017   6.052   8.812
    1STR    C0E 5123  17.233   6.155   8.743
    1STR    O0F 5124  17.263   6.278   8.814
    1STR    C0G 5125  17.187   6.395   8.778
    1STR    C0H 5126  17.048   6.386   8.843
    1STR    C0I 5127  17.257   6.528   8.822
    1STR    O0J 5128  17.196   6.645   8.763
    1STR    C0K 5129  17.238   6.776   8.809
    1STR    C0M 5130  17.388   6.796   8.783
    1STR    C0N 5131  17.155   6.889   8.739
    1STR    O0O 5132  17.190   7.021   8.784
    1STR    C0P 5133  17.164   7.132   8.707
    1STR    O0Q 5134  17.118   7.129   8.593
    1STR    N0R 5135  17.197   7.244   8.772
    1STR    C0S 5136  17.200   7.381   8.739
    1STR    C0T 5137  17.252   7.467   8.837
    1STR    C0U 5138  17.272   7.603   8.811
    1STR    C0V 5139  17.239   7.659   8.686
    1STR    C0W 5140  17.286   7.802   8.662
    1STR    C0X 5141  17.176   7.579   8.587
    1STR    N0Y 5142  17.142   7.625   8.458
    1STR   BCK2 5143  17.095   7.737   8.397
    1STR    O10 5144  17.082   7.735   8.275
    1STR    C13 5145  17.160   7.440   8.615
    1STR    C14 5146  17.354   5.489   8.833
    1STR    C15 5147  17.359   5.351   8.857
    1STR    C16 5148  17.306   5.258   8.766
    1STR    C17 5149  17.305   5.113   8.811
    1STR    H1B 5150  17.111   5.243   8.503
    1STR    H1C 5151  17.202   5.480   8.529
    1STR    H1D 5152  17.266   5.712   8.600
    1STR    H1E 5153  17.266   6.014   8.902
    1STR    H1F 5154   0.062   6.067   8.714
    1STR    H1G 5155   0.039   6.140   8.873
    1STR    H1H 5156   0.066   5.967   8.859
    1STR    H1I 5157  17.126   6.135   8.745
    1STR    H1J 5158  17.261   6.167   8.638
    1STR    H1K 5159  17.177   6.398   8.669
    1STR    H1M 5160  17.056   6.374   8.951
    1STR    H1N 5161  16.990   6.302   8.805
    1STR    H1O 5162  16.990   6.476   8.824
    1STR    H1P 5163  17.256   6.536   8.931
    1STR    H1Q 5164  17.362   6.523   8.793
    1STR    H1R 5165  17.219   6.782   8.917
    1STR    H1S 5166  17.418   6.897   8.810
    1STR    H1T 5167  17.412   6.782   8.677
    1STR    H1U 5168   0.010   6.728   8.841
    1STR    H1V 5169  17.049   6.874   8.757
    1STR    H1W 5170  17.168   6.882   8.631
    1STR    H1X 5171  17.229   7.220   8.865
    1STR    H1Y 5172  17.282   7.429   8.934
    1STR    H1Z 5173  17.317   7.665   8.887
    1STR    H20 5174  17.309   7.819   8.557
    1STR    H21 5175  17.210   7.873   8.695
    1STR    H22 5176  17.377   7.823   8.717
    1STR    H23 5177  17.149   7.554   8.387
    1STR    H27 5178  17.117   7.375   8.540
    1STR    H28 5179  17.397   5.554   8.907
    1STR    H29 5180  17.404   5.317   8.949
    1STR    H2A 5181  17.218   5.060   8.772
    1STR    H2B 5182  17.300   5.105   8.920
    1STR    H2C 5183  17.396   5.063   8.778
    1STR   BCK1 5184  17.263   5.097  12.681
    1STR    O03 5185  17.205   5.113  12.574
    1STR    N04 5186  17.342   5.191  12.737
    1STR    C05 5187  17.408   5.298  12.673
    1STR    C06 5188  17.394   5.435  12.712
    1STR    C07 5189   0.031   5.541  12.652
    1STR    N08 5190   0.020   5.677  12.692
    1STR    C09 5191   0.059   5.789  12.626
    1STR    O0A 5192   0.103   5.788  12.512
    1STR    O0B 5193   0.044   5.907  12.698
    1STR    C0C 5194   0.077   6.034  12.637
    1STR    C0D 5195  17.407   6.073  12.537
    1STR    C0E 5196   0.102   6.152  12.737
    1STR    O0F 5197   0.128   6.276  12.667
    1STR    C0G 5198   0.150   6.397  12.744
    1STR    C0H 5199   0.293   6.393  12.802
    1STR    C0I 5200   0.130   6.523  12.654
    1STR    O0J 5201   0.125   6.649  12.725
    1STR    C0K 5202   0.109   6.768  12.644
    1STR    C0M 5203  17.412   6.767  12.574
    1STR    C0N 5204   0.121   6.901  12.726
    1STR    O0O 5205   0.122   7.016  12.639
    1STR    C0P 5206   0.070   7.137  12.677
    1STR    O0Q 5207   0.008   7.159  12.780
    1STR    N0R 5208   0.102   7.231  12.586
    1STR    C0S 5209   0.082   7.370  12.581
    1STR    C0T 5210   0.186   7.446  12.525
    1STR    C0U 5211   0.178   7.586  12.517
    1STR    C0V 5212   0.063   7.655  12.562
    1STR    C0W 5213   0.072   7.806  12.564
    1STR    C0X 5214  17.391   7.582  12.611
    1STR    N0Y 5215  17.275   7.643  12.662
    1STR   BCK2 5216  17.196   7.749  12.635
    1STR    O10 5217  17.106   7.774  12.715
    1STR    C13 5218  17.405   7.439  12.623
    1STR    C14 5219   0.125   5.502  12.554
    1STR    C15 5220   0.141   5.368  12.515
    1STR    C16 5221   0.065   5.266  12.575
    1STR    C17 5222   0.096   5.122  12.536
    1STR    H1B 5223  17.373   5.170  12.831
    1STR    H1C 5224  17.322   5.459  12.789
    1STR    H1D 5225  17.418   5.697  12.781
    1STR    H1E 5226   0.170   6.021  12.581
    1STR    H1F 5227  17.311   6.089  12.587
    1STR    H1G 5228  17.433   6.165  12.484
    1STR    H1H 5229  17.393   5.996  12.461
    1STR    H1I 5230   0.187   6.127  12.801
    1STR    H1J 5231   0.016   6.164  12.802
    1STR    H1K 5232   0.077   6.401  12.825
    1STR    H1M 5233   0.367   6.381  12.724
    1STR    H1N 5234   0.306   6.311  12.873
    1STR    H1O 5235   0.315   6.486  12.855
    1STR    H1P 5236   0.209   6.526  12.579
    1STR    H1Q 5237   0.037   6.508  12.600
    1STR    H1R 5238   0.188   6.770  12.569
    1STR    H1S 5239  17.394   6.861  12.523
    1STR    H1T 5240  17.332   6.753  12.647
    1STR    H1U 5241  17.404   6.688  12.499
    1STR    H1V 5242   0.214   6.902  12.783
    1STR    H1W 5243   0.040   6.908  12.800
    1STR    H1X 5244   0.158   7.190  12.513
    1STR    H1Y 5245   0.277   7.398  12.491
    1STR    H1Z 5246   0.262   7.641  12.478
    1STR    H20 5247   0.040   7.847  12.468
    1STR    H21 5248   0.011   7.848  12.644
    1STR    H22 5249   0.174   7.839  12.581
    1STR    H23 5250  17.236   7.594  12.741
    1STR    H27 5251  17.324   7.381  12.665
    1STR    H28 5252   0.190   5.574  12.506
    1STR    H29 5253   0.216   5.344  12.441
    1STR    H2A 5254   0.108   5.060  12.625
    1STR    H2B 5255   0.188   5.115  12.478
    1STR    H2C 5256   0.015   5.082  12.476
    1STR   BCK1 5257  17.201   9.432  17.121
    1STR    O03 5258  17.313   9.384  17.128
    1STR    N04 5259  17.186   9.560  17.163
    1STR    C05 5260  17.085   9.653  17.191
    1STR    C06 5261  17.111   9.792  17.169
    1STR    C07 5262  17.021   9.895  17.210
    1STR    N08 5263  17.054  10.032  17.195
    1STR    C09 5264  16.977  10.143  17.200
    1STR    O0A 5265  16.853  10.142  17.202
    1STR    O0B 5266  17.052  10.257  17.202
    1STR    C0C 5267  16.997  10.385  17.240
    1STR    C0D 5268  17.019  10.403  17.391
    1STR    C0E 5269  17.058  10.505  17.162
    1STR    O0F 5270  16.984  10.627  17.185
    1STR    C0G 5271  17.027  10.742  17.110
    1STR    C0H 5272  16.962  10.735  16.971
    1STR    C0I 5273  16.986  10.873  17.183
    1STR    O0J 5274  17.020  10.993  17.109
    1STR    C0K 5275  16.977  11.119  17.165
    1STR    C0M 5276  17.043  11.143  17.302
    1STR    C0N 5277  17.009  11.239  17.070
    1STR    O0O 5278  16.952  11.359  17.124
    1STR    C0P 5279  16.980  11.482  17.074
    1STR    O0Q 5280  17.038  11.506  16.969
    1STR    N0R 5281  16.934  11.572  17.160
    1STR    C0S 5282  16.939  11.712  17.173
    1STR    C0T 5283  16.903  11.759  17.301
    1STR    C0U 5284  16.899  11.896  17.328
    1STR    C0V 5285  16.928  11.992  17.229
    1STR    C0W 5286  16.910  12.137  17.270
    1STR    C0X 5287  16.967  11.949  17.098
    1STR    N0Y 5288  16.985  12.040  16.992
    1STR   BCK2 5289  17.037  12.165  16.987
    1STR    O10 5290  17.103  12.218  17.076
    1STR    C13 5291  16.972  11.808  17.072
    1STR    C14 5292  16.903   9.855  17.275
    1STR    C15 5293  16.876   9.720  17.300
    1STR    C16 5294  16.967   9.619  17.262
    1STR    C17 5295  16.938   9.478  17.310
    1STR    H1B 5296  17.279   9.594  17.183
    1STR    H1C 5297  17.204   9.820  17.122
    1STR    H1D 5298  17.152  10.057  17.184
    1STR    H1E 5299  16.890  10.385  17.220
    1STR    H1F 5300  17.126  10.404  17.414
    1STR    H1G 5301  16.979  10.498  17.426
    1STR    H1H 5302  16.974  10.323   0.009
    1STR    H1I 5303  17.062  10.481  17.055
    1STR    H1J 5304  17.163  10.518  17.191
    1STR    H1K 5305  17.136  10.741  17.100
    1STR    H1M 5306  16.854  10.729  16.979
    1STR    H1N 5307  16.998  10.648  16.916
    1STR    H1O 5308  16.988  10.823  16.913
    1STR    H1P 5309  16.879  10.872  17.205
    1STR    H1Q 5310  17.037  10.874  17.280
    1STR    H1R 5311  16.869  11.116  17.178
    1STR    H1S 5312  17.020  11.242  17.341
    1STR    H1T 5313  17.151  11.135  17.296
    1STR    H1U 5314  17.009  11.072  17.378
    1STR    H1V 5315  16.969  11.221  16.970
    1STR    H1W 5316  17.117  11.251  17.059
    1STR    H1X 5317  16.893  11.523  17.237
    1STR    H1Y 5318  16.878  11.691  17.380
    1STR    H1Z 5319  16.871  11.928  17.428
    1STR    H20 5320  17.006  12.179  17.299
    1STR    H21 5321  16.867  12.196  17.189
    1STR    H22 5322  16.843  12.147  17.355
    1STR    H23 5323  16.954  12.008  16.902
    1STR    H27 5324  17.000  11.772  16.975
    1STR    H28 5325  16.833   9.929  17.313
    1STR    H29 5326  16.787   9.694  17.356
    1STR    H2A 5327  16.885   9.421  17.234
    1STR    H2B 5328  16.878   9.478  17.401
    1STR    H2C 5329  17.031   9.425  17.335
    1STR   BCK1 5330  17.339   9.461   4.080
    1STR    O03 5331   0.007   9.406   4.061
    1STR    N04 5332  17.323   9.581   4.140
    1STR    C05 5333  17.416   9.669   4.203
    1STR    C06 5334  17.399   9.811   4.194
    1STR    C07 5335   0.046   9.905   4.258
    1STR    N08 5336   0.025  10.046   4.250
    1STR    C09 5337   0.080  10.147   4.322
    1STR    O0A 5338   0.157  10.131   4.416
    1STR    O0B 5339   0.038  10.272   4.280
    1STR    C0C 5340   0.110  10.392   4.322
    1STR    C0D 5341   0.217  10.421   4.216
    1STR    C0E 5342   0.017  10.517   4.343
    1STR    O0F 5343   0.090  10.639   4.369
    1STR    C0G 5344   0.013  10.757   4.403
    1STR    C0H 5345  17.419  10.751   4.553
    1STR    C0I 5346   0.090  10.889   4.370
    1STR    O0J 5347   0.005  11.007   4.373
    1STR    C0K 5348   0.069  11.136   4.360
    1STR    C0M 5349   0.150  11.144   4.230
    1STR    C0N 5350  17.404  11.252   4.363
    1STR    O0O 5351   0.025  11.383   4.358
    1STR    C0P 5352  17.398  11.493   4.314
    1STR    O0Q 5353  17.284  11.494   4.267
    1STR    N0R 5354   0.034  11.602   4.330
    1STR    C0S 5355   0.021  11.739   4.302
    1STR    C0T 5356   0.117  11.821   4.364
    1STR    C0U 5357   0.125  11.958   4.335
    1STR    C0V 5358   0.038  12.018   4.243
    1STR    C0W 5359   0.066  12.163   4.205
    1STR    C0X 5360  17.374  11.942   4.183
    1STR    N0Y 5361  17.290  12.000   4.086
    1STR   BCK2 5362  17.226  12.119   4.086
    1STR    O10 5363  17.210  12.190   4.184
    1STR    C13 5364  17.368  11.801   4.212
    1STR    C14 5365   0.156   9.852   4.328
    1STR    C15 5366   0.174   9.713   4.341
    1STR    C16 5367   0.083   9.622   4.284
    1STR    C17 5368   0.105   9.476   4.320
    1STR    H1B 5369  17.229   9.615   4.132
    1STR    H1C 5370  17.317   9.849   4.136
    1STR    H1D 5371  17.402  10.080   4.179
    1STR    H1E 5372   0.160  10.374   4.417
    1STR    H1F 5373   0.173  10.441   4.118
    1STR    H1G 5374   0.277  10.508   4.243
    1STR    H1H 5375   0.286  10.337   4.205
    1STR    H1I 5376  17.389  10.495   4.425
    1STR    H1J 5377  17.395  10.531   4.254
    1STR    H1K 5378  17.361  10.757   4.344
    1STR    H1M 5379   0.070  10.744   4.612
    1STR    H1N 5380  17.357  10.665   4.578
    1STR    H1O 5381  17.366  10.841   4.584
    1STR    H1P 5382   0.174  10.900   4.438
    1STR    H1Q 5383   0.132  10.878   4.270
    1STR    H1R 5384   0.137  11.150   4.445
    1STR    H1S 5385   0.191  11.244   4.215
    1STR    H1T 5386   0.088  11.121   4.143
    1STR    H1U 5387   0.235  11.076   4.230
    1STR    H1V 5388  17.345  11.247   4.455
    1STR    H1W 5389  17.333  11.241   4.281
    1STR    H1X 5390   0.120  11.574   4.375
    1STR    H1Y 5391   0.189  11.780   4.434
    1STR    H1Z 5392   0.202  12.017   4.383
    1STR    H20 5393   0.047  12.181   4.100
    1STR    H21 5394   0.005  12.231   4.265
    1STR    H22 5395   0.171  12.189   4.222
    1STR    H23 5396  17.277  11.947   4.001
    1STR    H27 5397  17.294  11.739   4.165
    1STR    H28 5398   0.231   9.915   4.374
    1STR    H29 5399   0.258   9.678   4.399
    1STR    H2A 5400   0.010   9.421   4.324
    1STR    H2B 5401   0.152   9.466   4.418
    1STR    H2C 5402   0.171   9.429   4.247
    1STR   BCK1 5403  17.176   9.441   8.339
    1STR    O03 5404  17.055   9.452   8.320
    1STR    N04 5405  17.263   9.543   8.326
    1STR    C05 5406  17.244   9.658   8.247
    1STR    C06 5407  17.262   9.791   8.297
    1STR    C07 5408  17.251   9.906   8.211
    1STR    N08 5409  17.273  10.039   8.258
    1STR    C09 5410  17.237  10.156   8.200
    1STR    O0A 5411  17.165  10.164   8.101
    1STR    O0B 5412  17.289  10.268   8.262
    1STR    C0C 5413  17.258  10.399   8.210
    1STR    C0D 5414  17.115  10.439   8.250
    1STR    C0E 5415  17.358  10.511   8.252
    1STR    O0F 5416  17.320  10.637   8.192
    1STR    C0G 5417  17.400  10.754   8.222
    1STR    C0H 5418   0.092  10.747   8.144
    1STR    C0I 5419  17.320  10.882   8.184
    1STR    O0J 5420  17.378  11.006   8.230
    1STR    C0K 5421  17.312  11.127   8.188
    1STR    C0M 5422  17.172  11.137   8.251
    1STR    C0N 5423  17.393  11.256   8.223
    1STR    O0O 5424  17.345  11.367   8.145
    1STR    C0P 5425  17.330  11.493   8.196
    1STR    O0Q 5426  17.331  11.524   8.314
    1STR    N0R 5427  17.315  11.577   8.093
    1STR    C0S 5428  17.296  11.715   8.077
    1STR    C0T 5429  17.333  11.765   7.951
    1STR    C0U 5430  17.301  11.896   7.914
    1STR    C0V 5431  17.230  11.982   8.001
    1STR    C0W 5432  17.181  12.110   7.938
    1STR    C0X 5433  17.201  11.940   8.134
    1STR    N0Y 5434  17.126  12.016   8.228
    1STR   BCK2 5435  17.096  12.144   8.259
    1STR    O10 5436  17.010  12.164   8.343
    1STR    C13 5437  17.234  11.805   8.170
    1STR    C14 5438  17.223   9.882   8.075
    1STR    C15 5439  17.206   9.752   8.025
    1STR    C16 5440  17.219   9.640   8.109
    1STR    C17 5441  17.210   9.502   8.045
    1STR    H1B 5442  17.355   9.526   8.363
    1STR    H1C 5443  17.284   9.805   8.401
    1STR    H1D 5444  17.322  10.051   8.345
    1STR    H1E 5445  17.263  10.394   8.101
    1STR    H1F 5446  17.104  10.446   8.358
    1STR    H1G 5447  17.087  10.535   8.206
    1STR    H1H 5448  17.042  10.366   8.214
    1STR    H1I 5449   0.019  10.483   8.220
    1STR    H1J 5450  17.361  10.521   8.360
    1STR    H1K 5451  17.420  10.758   8.329
    1STR    H1M 5452   0.074  10.736   8.037
    1STR    H1N 5453   0.155  10.663   8.176
    1STR    H1O 5454   0.150  10.838   8.158
    1STR    H1P 5455  17.307  10.885   8.075
    1STR    H1Q 5456  17.220  10.871   8.226
    1STR    H1R 5457  17.303  11.124   8.079
    1STR    H1S 5458  17.127  11.233   8.229
    1STR    H1T 5459  17.178  11.127   8.359
    1STR    H1U 5460  17.104  11.060   8.214
    1STR    H1V 5461   0.058  11.242   8.198
    1STR    H1W 5462  17.390  11.277   8.330
    1STR    H1X 5463  17.326  11.525   8.008
    1STR    H1Y 5464  17.383  11.703   7.879
    1STR    H1Z 5465  17.327  11.930   7.815
    1STR    H20 5466  17.083  12.138   7.978
    1STR    H21 5467  17.253  12.190   7.954
    1STR    H22 5468  17.168  12.099   7.831
    1STR    H23 5469  17.081  11.958   8.296
    1STR    H27 5470  17.209  11.766   8.267
    1STR    H28 5471  17.216   9.962   8.003
    1STR    H29 5472  17.186   9.739   7.920
    1STR    H2A 5473  17.290   9.438   8.083
    1STR    H2B 5474  17.221   9.507   7.937
    1STR    H2C 5475  17.114   9.456   8.068
    1STR   BCK1 5476  17.169   9.438  12.844
    1STR    O03 5477  17.248   9.379  12.918
    1STR    N04 5478  17.129   9.566  12.862
    1STR    C05 5479  17.147   9.659  12.968
    1STR    C06 5480  17.154   9.799  12.939
    1STR    C07 5481  17.163   9.899  13.041
    1STR    N08 5482  17.167  10.038  13.012
    1STR    C09 5483  17.132  10.143  13.090
    1STR    O0A 5484  17.081  10.131  13.202
    1STR    O0B 5485  17.159  10.266  13.035
    1STR    C0C 5486  17.145  10.387  13.113
    1STR    C0D 5487  17.271  10.407  13.198
    1STR    C0E 5488  17.118  10.512  13.023
    1STR    O0F 5489  17.097  10.634  13.100
    1STR    C0G 5490  17.057  10.751  13.026
    1STR    C0H 5491  16.905  10.742  13.002
    1STR    C0I 5492  17.092  10.882  13.103
    1STR    O0J 5493  17.059  11.001  13.027
    1STR    C0K 5494  17.075  11.129  13.091
    1STR    C0M 5495  17.221  11.151  13.135
    1STR    C0N 5496  17.031  11.245  12.995
    1STR    O0O 5497  17.036  11.374  13.058
    1STR    C0P 5498  17.020  11.488  12.986
    1STR    O0Q 5499  16.991  11.494  12.867
    1STR    N0R 5500  17.041  11.595  13.065
    1STR    C0S 5501  17.048  11.734  13.043
    1STR    C0T 5502  17.071  11.813  13.158
    1STR    C0U 5503  17.094  11.951  13.146
    1STR    C0V 5504  17.095  12.015  13.021
    1STR    C0W 5505  17.145  12.158  13.018
    1STR    C0X 5506  17.062  11.941  12.903
    1STR    N0Y 5507  17.064  11.994  12.773
    1STR   BCK2 5508  17.030  12.108  12.708
    1STR    O10 5509  17.044  12.112  12.587
    1STR    C13 5510  17.042  11.800  12.917
    1STR    C14 5511  17.174   9.854  13.174
    1STR    C15 5512  17.165   9.718  13.206
    1STR    C16 5513  17.147   9.621  13.105
    1STR    C17 5514  17.123   9.479  13.154
    1STR    H1B 5515  17.088   9.604  12.777
    1STR    H1C 5516  17.151   9.830  12.835
    1STR    H1D 5517  17.199  10.063  12.920
    1STR    H1E 5518  17.059  10.376  13.180
    1STR    H1F 5519  17.360  10.416  13.136
    1STR    H1G 5520  17.264  10.496  13.260
    1STR    H1H 5521  17.288  10.322  13.264
    1STR    H1I 5522  17.030  10.491  12.962
    1STR    H1J 5523  17.201  10.526  12.954
    1STR    H1K 5524  17.110  10.753  12.931
    1STR    H1M 5525  16.851  10.732  13.097
    1STR    H1N 5526  16.879  10.656  12.941
    1STR    H1O 5527  16.869  10.831  12.952
    1STR    H1P 5528  17.040  10.883  13.199
    1STR    H1Q 5529  17.199  10.880  13.125
    1STR    H1R 5530  17.010  11.132  13.179
    1STR    H1S 5531  17.236  11.251  13.175
    1STR    H1T 5532  17.289  11.138  13.052
    1STR    H1U 5533  17.250  11.082  13.214
    1STR    H1V 5534  16.929  11.227  12.959
    1STR    H1W 5535  17.094  11.245  12.906
    1STR    H1X 5536  17.061  11.562  13.158
    1STR    H1Y 5537  17.075  11.768  13.256
    1STR    H1Z 5538  17.117  12.007  13.235
    1STR    H20 5539  17.195  12.180  12.924
    1STR    H21 5540  17.062  12.228  13.033
    1STR    H22 5541  17.218  12.175  13.097
    1STR    H23 5542  17.097  11.929  12.704
    1STR    H27 5543  17.024  11.740  12.829
    1STR    H28 5544  17.188   9.924  13.256
    1STR    H29 5545  17.170   9.688  13.309
    1STR    H2A 5546  17.055   9.426  13.088
    1STR    H2B 5547  17.078   9.478  13.253
    1STR    H2C 5548  17.217   9.425  13.160
    1STR   BCK1 5549  17.324  13.829  17.037
    1STR    O03 5550  17.404  13.784  16.955
    1STR    N04 5551  17.341  13.943  17.107
    1STR    C05 5552   0.011  14.033  17.112
    1STR    C06 5553  17.428  14.174  17.122
    1STR    C07 5554   0.094  14.270  17.131
    1STR    N08 5555   0.070  14.409  17.148
    1STR    C09 5556   0.151  14.514  17.123
    1STR    O0A 5557   0.260  14.504  17.067
    1STR    O0B 5558   0.099  14.635  17.164
    1STR    C0C 5559   0.169  14.759  17.134
    1STR    C0D 5560   0.140  14.796  16.988
    1STR    C0E 5561   0.132  14.877  17.230
    1STR    O0F 5562   0.195  15.000  17.187
    1STR    C0G 5563   0.171  15.119  17.266
    1STR    C0H 5564   0.262  15.115  17.390
    1STR    C0I 5565   0.199  15.247  17.181
    1STR    O0J 5566   0.152  15.369  17.241
    1STR    C0K 5567   0.180  15.492  17.170
    1STR    C0M 5568   0.112  15.493  17.033
    1STR    C0N 5569   0.133  15.618  17.250
    1STR    O0O 5570   0.175  15.740  17.184
    1STR    C0P 5571   0.097  15.852  17.183
    1STR    O0Q 5572  17.422  15.859  17.225
    1STR    N0R 5573   0.166  15.954  17.130
    1STR    C0S 5574   0.137  16.091  17.109
    1STR    C0T 5575   0.248  16.174  17.084
    1STR    C0U 5576   0.233  16.312  17.066
    1STR    C0V 5577   0.106  16.373  17.072
    1STR    C0W 5578   0.102  16.524  17.068
    1STR    C0X 5579  17.430  16.292  17.091
    1STR    N0Y 5580  17.300  16.345  17.108
    1STR   BCK2 5581  17.223  16.444  17.060
    1STR    O10 5582  17.115  16.462  17.114
    1STR    C13 5583   0.009  16.152  17.112
    1STR    C14 5584   0.226  14.220  17.128
    1STR    C15 5585   0.251  14.082  17.121
    1STR    C16 5586   0.146  13.988  17.117
    1STR    C17 5587   0.186  13.842  17.128
    1STR    H1B 5588  17.261  13.967  17.162
    1STR    H1C 5589  17.326  14.210  17.123
    1STR    H1D 5590  17.420  14.437  17.184
    1STR    H1E 5591   0.276  14.741  17.145
    1STR    H1F 5592   0.034  14.816  16.972
    1STR    H1G 5593   0.195  14.886  16.960
    1STR    H1H 5594   0.171  14.717  16.920
    1STR    H1I 5595   0.164  14.852  17.331
    1STR    H1J 5596   0.024  14.891  17.232
    1STR    H1K 5597   0.067  15.122  17.297
    1STR    H1M 5598   0.367  15.106  17.362
    1STR    H1N 5599   0.239  15.032   0.016
    1STR    H1O 5600   0.252  15.207   0.008
    1STR    H1P 5601   0.306  15.254  17.160
    1STR    H1Q 5602   0.150  15.232  17.085
    1STR    H1R 5603   0.288  15.500  17.157
    1STR    H1S 5604   0.124  15.589  16.983
    1STR    H1T 5605   0.005  15.474  17.043
    1STR    H1U 5606   0.154  15.418  16.965
    1STR    H1V 5607   0.177  15.619  17.350
    1STR    H1W 5608   0.025  15.617  17.264
    1STR    H1X 5609   0.259  15.925  17.107
    1STR    H1Y 5610   0.348  16.134  17.081
    1STR    H1Z 5611   0.320  16.373  17.051
    1STR    H20 5612   0.092  16.559  16.965
    1STR    H21 5613   0.021  16.564  17.128
    1STR    H22 5614   0.194  16.567  17.108
    1STR    H23 5615  17.245  16.296  17.177
    1STR    H27 5616  17.363  16.089  17.131
    1STR    H28 5617   0.312  14.285  17.134
    1STR    H29 5618   0.353  14.048  17.122
    1STR    H2A 5619   0.110  13.784  17.180
    1STR    H2B 5620   0.279  13.830  17.182
    1STR    H2C 5621   0.200  13.799  17.028
    1STR   BCK1 5622  17.207  13.785   4.015
    1STR    O03 5623  17.295  13.730   4.081
    1STR    N04 5624  17.187  13.917   4.036
    1STR    C05 5625  17.093  14.016   4.002
    1STR    C06 5626  17.138  14.151   3.989
    1STR    C07 5627  17.048  14.261   3.970
    1STR    N08 5628  17.094  14.395   3.965
    1STR    C09 5629  17.027  14.510   3.990
    1STR    O0A 5630  16.908  14.512   4.024
    1STR    O0B 5631  17.101  14.624   3.977
    1STR    C0C 5632  17.040  14.755   3.991
    1STR    C0D 5633  17.002  14.785   4.137
    1STR    C0E 5634  17.132  14.869   3.935
    1STR    O0F 5635  17.065  14.997   3.938
    1STR    C0G 5636  17.138  15.112   3.891
    1STR    C0H 5637  17.156  15.102   3.739
    1STR    C0I 5638  17.061  15.243   3.928
    1STR    O0J 5639  17.131  15.364   3.893
    1STR    C0K 5640  17.059  15.488   3.908
    1STR    C0M 5641  17.034  15.517   4.057
    1STR    C0N 5642  17.135  15.608   3.844
    1STR    O0O 5643  17.049  15.723   3.832
    1STR    C0P 5644  17.091  15.849   3.862
    1STR    O0Q 5645  17.201  15.880   3.905
    1STR    N0R 5646  16.989  15.934   3.844
    1STR    C0S 5647  16.973  16.069   3.881
    1STR    C0T 5648  16.849  16.101   3.939
    1STR    C0U 5649  16.823  16.231   3.987
    1STR    C0V 5650  16.919  16.333   3.974
    1STR    C0W 5651  16.892  16.464   4.046
    1STR    C0X 5652  17.040  16.308   3.904
    1STR    N0Y 5653  17.139  16.407   3.890
    1STR   BCK2 5654  17.139  16.537   3.854
    1STR    O10 5655  17.240  16.603   3.875
    1STR    C13 5656  17.068  16.173   3.863
    1STR    C14 5657  16.911  14.230   3.956
    1STR    C15 5658  16.865  14.098   3.972
    1STR    C16 5659  16.953  13.992   4.000
    1STR    C17 5660  16.890  13.859   4.035
    1STR    H1B 5661  17.263  13.953   4.090
    1STR    H1C 5662  17.243  14.174   3.995
    1STR    H1D 5663  17.193  14.408   3.938
    1STR    H1E 5664  16.949  14.754   3.930
    1STR    H1F 5665  17.090  14.783   4.202
    1STR    H1G 5666  16.955  14.883   4.145
    1STR    H1H 5667  16.931  14.712   4.176
    1STR    H1I 5668  17.160  14.842   3.834
    1STR    H1J 5669  17.224  14.872   3.993
    1STR    H1K 5670  17.235  15.115   3.940
    1STR    H1M 5671  17.060  15.088   3.689
    1STR    H1N 5672  17.221  15.020   3.711
    1STR    H1O 5673  17.201  15.193   3.699
    1STR    H1P 5674  16.963  15.241   3.879
    1STR    H1Q 5675  17.042  15.241   4.035
    1STR    H1R 5676  16.964  15.478   3.856
    1STR    H1S 5677  16.988  15.615   4.070
    1STR    H1T 5678  17.127  15.517   4.113
    1STR    H1U 5679  16.967  15.444   4.103
    1STR    H1V 5680  17.169  15.581   3.744
    1STR    H1W 5681  17.226  15.631   3.901
    1STR    H1X 5682  16.909  15.887   3.807
    1STR    H1Y 5683  16.773  16.025   3.953
    1STR    H1Z 5684  16.730  16.251   4.037
    1STR    H20 5685  16.984  16.515   4.074
    1STR    H21 5686  16.832  16.530   3.984
    1STR    H22 5687  16.836  16.446   4.138
    1STR    H23 5688  17.233  16.377   3.911
    1STR    H27 5689  17.162  16.150   3.816
    1STR    H28 5690  16.839  14.307   3.936
    1STR    H29 5691  16.758  14.080   3.966
    1STR    H2A 5692  16.876  13.799   3.946
    1STR    H2B 5693  16.793  13.873   4.082
    1STR    H2C 5694  16.952  13.804   4.107
    1STR   BCK1 5695  17.285  13.818   8.492
    1STR    O03 5696  17.396  13.766   8.501
    1STR    N04 5697  17.252  13.939   8.544
    1STR    C05 5698  17.325  14.027   8.629
    1STR    C06 5699  17.314  14.169   8.610
    1STR    C07 5700  17.377  14.264   8.697
    1STR    N08 5701  17.363  14.404   8.678
    1STR    C09 5702  17.380  14.505   8.767
    1STR    O0A 5703  17.402  14.488   8.887
    1STR    O0B 5704  17.368  14.631   8.711
    1STR    C0C 5705  17.411  14.750   8.782
    1STR    C0D 5706   0.119  14.774   8.748
    1STR    C0E 5707  17.324  14.876   8.750
    1STR    O0F 5708  17.373  14.997   8.812
    1STR    C0G 5709  17.289  15.114   8.801
    1STR    C0H 5710  17.181  15.107   8.911
    1STR    C0I 5711  17.370  15.248   8.815
    1STR    O0J 5712  17.291  15.364   8.778
    1STR    C0K 5713  17.348  15.495   8.802
    1STR    C0M 5714   0.043  15.510   8.731
    1STR    C0N 5715  17.250  15.608   8.755
    1STR    O0O 5716  17.301  15.740   8.783
    1STR    C0P 5717  17.251  15.851   8.721
    1STR    O0Q 5718  17.162  15.851   8.637
    1STR    N0R 5719  17.314  15.960   8.766
    1STR    C0S 5720  17.311  16.098   8.736
    1STR    C0T 5721  17.388  16.178   8.823
    1STR    C0U 5722  17.404  16.316   8.799
    1STR    C0V 5723  17.344  16.377   8.688
    1STR    C0W 5724  17.381  16.523   8.661
    1STR    C0X 5725  17.258  16.303   8.603
    1STR    N0Y 5726  17.200  16.364   8.489
    1STR   BCK2 5727  17.134  16.482   8.480
    1STR    O10 5728  17.093  16.545   8.577
    1STR    C13 5729  17.245  16.162   8.627
    1STR    C14 5730   0.017  14.213   8.801
    1STR    C15 5731   0.028  14.074   8.822
    1STR    C16 5732  17.400  13.982   8.740
    1STR    C17 5733  17.408  13.836   8.782
    1STR    H1B 5734  17.162  13.970   8.514
    1STR    H1C 5735  17.255  14.206   8.528
    1STR    H1D 5736  17.343  14.437   8.586
    1STR    H1E 5737  17.404  14.732   8.890
    1STR    H1F 5738   0.133  14.792   8.641
    1STR    H1G 5739   0.158  14.860   8.802
    1STR    H1H 5740   0.180  14.688   8.776
    1STR    H1I 5741  17.222  14.856   8.782
    1STR    H1J 5742  17.321  14.891   8.642
    1STR    H1K 5743  17.242  15.115   8.702
    1STR    H1M 5744  17.227  15.100   9.009
    1STR    H1N 5745  17.116  15.020   8.899
    1STR    H1O 5746  17.119  15.196   8.910
    1STR    H1P 5747  17.408  15.258   8.916
    1STR    H1Q 5748   0.017  15.241   8.749
    1STR    H1R 5749  17.363  15.507   8.910
    1STR    H1S 5750   0.082  15.611   8.741
    1STR    H1T 5751   0.033  15.490   8.624
    1STR    H1U 5752   0.119  15.444   8.771
    1STR    H1V 5753  17.154  15.598   8.805
    1STR    H1W 5754  17.231  15.599   8.648
    1STR    H1X 5755  17.380  15.933   8.837
    1STR    H1Y 5756  17.439  16.136   8.908
    1STR    H1Z 5757   0.027  16.373   8.865
    1STR    H20 5758  17.389  16.542   8.554
    1STR    H21 5759  17.307  16.590   8.703
    1STR    H22 5760   0.038  16.548   8.704
    1STR    H23 5761  17.213  16.317   8.401
    1STR    H27 5762  17.185  16.101   8.561
    1STR    H28 5763   0.072  14.277   8.868
    1STR    H29 5764   0.088  14.039   8.905
    1STR    H2A 5765  17.317  13.781   8.759
    1STR    H2B 5766  17.425  13.826   8.890
    1STR    H2C 5767   0.052  13.787   8.733
    1STR   BCK1 5768  17.224  13.812  12.675
    1STR    O03 5769  17.136  13.830  12.592
    1STR    N04 5770  17.315  13.906  12.709
    1STR    C05 5771  17.355  14.016  12.632
    1STR    C06 5772  17.349  14.152  12.677
    1STR    C07 5773  17.400  14.261  12.599
    1STR    N08 5774  17.398  14.396  12.645
    1STR    C09 5775  17.409  14.510  12.572
    1STR    O0A 5776  17.408  14.512  12.449
    1STR    O0B 5777  17.419  14.626  12.647
    1STR    C0C 5778  17.427  14.755  12.580
    1STR    C0D 5779  17.287  14.794  12.529
    1STR    C0E 5780   0.047  14.870  12.667
    1STR    O0F 5781   0.048  14.995  12.593
    1STR    C0G 5782   0.096  15.114  12.658
    1STR    C0H 5783   0.249  15.109  12.666
    1STR    C0I 5784   0.048  15.239  12.578
    1STR    O0J 5785   0.069  15.366  12.645
    1STR    C0K 5786   0.026  15.484  12.574
    1STR    C0M 5787  17.313  15.486  12.562
    1STR    C0N 5788   0.073  15.618  12.640
    1STR    O0O 5789   0.046  15.729  12.553
    1STR    C0P 5790   0.018  15.853  12.600
    1STR    O0Q 5791  17.436  15.881  12.718
    1STR    N0R 5792   0.021  15.943  12.500
    1STR    C0S 5793   0.010  16.083  12.500
    1STR    C0T 5794   0.105  16.153  12.423
    1STR    C0U 5795   0.103  16.293  12.417
    1STR    C0V 5796   0.005  16.368  12.484
    1STR    C0W 5797   0.023  16.519  12.486
    1STR    C0X 5798  17.341  16.301  12.555
    1STR    N0Y 5799  17.241  16.368  12.627
    1STR   BCK2 5800  17.162  16.477  12.612
    1STR    O10 5801  17.091  16.510  12.706
    1STR    C13 5802  17.348  16.158  12.565
    1STR    C14 5803   0.019  14.228  12.475
    1STR    C15 5804   0.027  14.096  12.430
    1STR    C16 5805  17.417  13.990  12.507
    1STR    C17 5806  17.437  13.848  12.456
    1STR    H1B 5807  17.374  13.881  12.787
    1STR    H1C 5808  17.304  14.172  12.773
    1STR    H1D 5809  17.388  14.414  12.743
    1STR    H1E 5810   0.053  14.744  12.494
    1STR    H1F 5811  17.217  14.808  12.611
    1STR    H1G 5812  17.291  14.888  12.473
    1STR    H1H 5813  17.246  14.719  12.462
    1STR    H1I 5814   0.149  14.844  12.696
    1STR    H1J 5815  17.429  14.883  12.758
    1STR    H1K 5816   0.054  15.120  12.758
    1STR    H1M 5817   0.293  15.097  12.566
    1STR    H1N 5818   0.285  15.028  12.728
    1STR    H1O 5819   0.289  15.202  12.707
    1STR    H1P 5820   0.097  15.241  12.480
    1STR    H1Q 5821  17.382  15.226  12.559
    1STR    H1R 5822   0.070  15.481  12.474
    1STR    H1S 5823  17.279  15.580  12.519
    1STR    H1T 5824  17.267  15.477  12.661
    1STR    H1U 5825  17.274  15.407  12.499
    1STR    H1V 5826   0.180  15.615  12.660
    1STR    H1W 5827   0.025  15.632  12.737
    1STR    H1X 5828   0.046  15.899  12.414
    1STR    H1Y 5829   0.184  16.100  12.371
    1STR    H1Z 5830   0.181  16.344  12.362
    1STR    H20 5831  17.417  16.563  12.397
    1STR    H21 5832  17.419  16.564  12.575
    1STR    H22 5833   0.128  16.546  12.486
    1STR    H23 5834  17.217  16.325  12.715
    1STR    H27 5835  17.274  16.105  12.623
    1STR    H28 5836   0.063  14.303  12.412
    1STR    H29 5837   0.075  14.076  12.335
    1STR    H2A 5838   0.036  13.784  12.535
    1STR    H2B 5839   0.068  13.845  12.373
    1STR    H2C 5840  17.343  13.807  12.421
    1STR   BCK1 5841   4.058   0.719  17.147
    1STR    O03 5842   4.125   0.674  17.240
    1STR    N04 5843   4.007   0.844  17.143
    1STR    C05 5844   3.994   0.941  17.245
    1STR    C06 5845   4.017   1.080  17.218
    1STR    C07 5846   3.992   1.183  17.314
    1STR    N08 5847   4.011   1.320  17.284
    1STR    C09 5848   3.954   1.428  17.343
    1STR    O0A 5849   3.871   1.422  17.433
    1STR    O0B 5850   4.000   1.548  17.292
    1STR    C0C 5851   3.953   1.674  17.348
    1STR    C0D 5852   4.023   1.700   0.043
    1STR    C0E 5853   3.972   1.794  17.251
    1STR    O0F 5854   3.923   1.918  17.308
    1STR    C0G 5855   3.925   2.035  17.223
    1STR    C0H 5856   3.813   2.024  17.119
    1STR    C0I 5857   3.907   2.166  17.306
    1STR    O0J 5858   3.926   2.285  17.226
    1STR    C0K 5859   3.897   2.412  17.288
    1STR    C0M 5860   3.998   2.440  17.400
    1STR    C0N 5861   3.900   2.529  17.184
    1STR    O0O 5862   3.858   2.653  17.243
    1STR    C0P 5863   3.896   2.773  17.192
    1STR    O0Q 5864   3.971   2.788  17.096
    1STR    N0R 5865   3.843   2.873  17.264
    1STR    C0S 5866   3.862   3.013  17.262
    1STR    C0T 5867   3.834   3.080  17.383
    1STR    C0U 5868   3.860   3.217  17.396
    1STR    C0V 5869   3.910   3.293  17.288
    1STR    C0W 5870   3.954   3.435  17.319
    1STR    C0X 5871   3.926   3.232  17.161
    1STR    N0Y 5872   3.975   3.301  17.048
    1STR   BCK2 5873   3.952   3.420  16.988
    1STR    O10 5874   4.015   3.448  16.887
    1STR    C13 5875   3.906   3.090  17.151
    1STR    C14 5876   3.948   1.141   0.002
    1STR    C15 5877   3.923   1.006   0.030
    1STR    C16 5878   3.943   0.906  17.373
    1STR    C17 5879   3.898   0.766  17.409
    1STR    H1B 5880   3.967   0.868  17.054
    1STR    H1C 5881   4.053   1.108  17.120
    1STR    H1D 5882   4.070   1.345  17.207
    1STR    H1E 5883   3.846   1.664  17.367
    1STR    H1F 5884   4.131   1.710   0.030
    1STR    H1G 5885   3.986   1.792   0.088
    1STR    H1H 5886   4.004   1.620   0.114
    1STR    H1I 5887   3.919   1.772  17.159
    1STR    H1J 5888   4.077   1.805  17.226
    1STR    H1K 5889   4.022   2.041  17.173
    1STR    H1M 5890   3.716   2.009  17.167
    1STR    H1N 5891   3.829   1.942  17.049
    1STR    H1O 5892   3.806   2.115  17.059
    1STR    H1P 5893   3.808   2.167  17.351
    1STR    H1Q 5894   3.979   2.165  17.388
    1STR    H1R 5895   3.796   2.409  17.329
    1STR    H1S 5896   3.983   2.540   0.002
    1STR    H1T 5897   4.100   2.436  17.363
    1STR    H1U 5898   3.989   2.370   0.043
    1STR    H1V 5899   3.834   2.508  17.100
    1STR    H1W 5900   4.000   2.540  17.142
    1STR    H1X 5901   3.784   2.837  17.336
    1STR    H1Y 5902   3.798   3.026   0.029
    1STR    H1Z 5903   3.843   3.265   0.051
    1STR    H20 5904   4.031   3.469  17.249
    1STR    H21 5905   3.870   3.503  17.316
    1STR    H22 5906   3.998   3.441  17.418
    1STR    H23 5907   4.038   3.247  16.991
    1STR    H27 5908   3.925   3.040  17.058
    1STR    H28 5909   3.930   1.212   0.081
    1STR    H29 5910   3.885   0.980   0.128
    1STR    H2A 5911   3.856   0.714  17.323
    1STR    H2B 5912   3.821   0.767   0.046
    1STR    H2C 5913   3.982   0.708   0.008
    1STR   BCK1 5914   4.268   0.747   4.031
    1STR    O03 5915   4.370   0.697   3.984
    1STR    N04 5916   4.263   0.863   4.099
    1STR    C05 5917   4.367   0.950   4.142
    1STR    C06 5918   4.347   1.092   4.141
    1STR    C07 5919   4.446   1.186   4.187
    1STR    N08 5920   4.421   1.326   4.191
    1STR    C09 5921   4.506   1.430   4.210
    1STR    O0A 5922   4.628   1.418   4.220
    1STR    O0B 5923   4.443   1.552   4.217
    1STR    C0C 5924   4.521   1.674   4.227
    1STR    C0D 5925   4.578   1.709   4.089
    1STR    C0E 5926   4.441   1.795   4.285
    1STR    O0F 5927   4.516   1.919   4.281
    1STR    C0G 5928   4.455   2.036   4.339
    1STR    C0H 5929   4.473   2.032   4.491
    1STR    C0I 5930   4.518   2.167   4.280
    1STR    O0J 5931   4.439   2.286   4.307
    1STR    C0K 5932   4.497   2.414   4.271
    1STR    C0M 5933   4.527   2.419   4.120
    1STR    C0N 5934   4.400   2.531   4.308
    1STR    O0O 5935   4.457   2.660   4.279
    1STR    C0P 5936   4.381   2.768   4.247
    1STR    O0Q 5937   4.260   2.766   4.225
    1STR    N0R 5938   4.459   2.877   4.245
    1STR    C0S 5939   4.441   3.015   4.218
    1STR    C0T 5940   4.545   3.097   4.265
    1STR    C0U 5941   4.548   3.234   4.236
    1STR    C0V 5942   4.448   3.294   4.157
    1STR    C0W 5943   4.468   3.439   4.117
    1STR    C0X 5944   4.337   3.216   4.113
    1STR    N0Y 5945   4.240   3.275   4.029
    1STR   BCK2 5946   4.174   3.391   4.042
    1STR    O10 5947   4.166   3.455   4.147
    1STR    C13 5948   4.336   3.076   4.143
    1STR    C14 5949   4.568   1.131   4.234
    1STR    C15 5950   4.589   0.993   4.239
    1STR    C16 5951   4.489   0.902   4.198
    1STR    C17 5952   4.518   0.755   4.223
    1STR    H1B 5953   4.169   0.892   4.120
    1STR    H1C 5954   4.254   1.131   4.103
    1STR    H1D 5955   4.327   1.357   4.177
    1STR    H1E 5956   4.605   1.656   4.295
    1STR    H1F 5957   4.499   1.729   4.017
    1STR    H1G 5958   4.642   1.798   4.094
    1STR    H1H 5959   4.640   1.628   4.050
    1STR    H1I 5960   4.413   1.772   4.388
    1STR    H1J 5961   4.349   1.808   4.229
    1STR    H1K 5962   4.349   2.037   4.313
    1STR    H1M 5963   4.578   2.024   4.518
    1STR    H1N 5964   4.421   1.947   4.536
    1STR    H1O 5965   4.434   2.122   4.538
    1STR    H1P 5966   4.620   2.179   4.318
    1STR    H1Q 5967   4.527   2.154   4.173
    1STR    H1R 5968   4.590   2.427   4.327
    1STR    H1S 5969   4.562   2.518   4.091
    1STR    H1T 5970   4.439   2.396   4.061
    1STR    H1U 5971   4.606   2.349   4.092
    1STR    H1V 5972   4.379   2.528   4.415
    1STR    H1W 5973   4.305   2.519   4.257
    1STR    H1X 5974   4.552   2.851   4.271
    1STR    H1Y 5975   4.627   3.057   4.323
    1STR    H1Z 5976   4.631   3.294   4.270
    1STR    H20 5977   4.435   3.456   4.014
    1STR    H21 5978   4.413   3.505   4.183
    1STR    H22 5979   4.573   3.468   4.121
    1STR    H23 5980   4.225   3.230   3.940
    1STR    H27 5981   4.255   3.014   4.107
    1STR    H28 5982   4.648   1.194   4.270
    1STR    H29 5983   4.682   0.956   4.278
    1STR    H2A 5984   4.427   0.700   4.246
    1STR    H2B 5985   4.585   0.742   4.309
    1STR    H2C 5986   4.566   0.710   4.137
    1STR   BCK1 5987   4.102   0.715   8.353
    1STR    O03 5988   3.992   0.715   8.408
    1STR    N04 5989   4.161   0.827   8.305
    1STR    C05 5990   4.094   0.943   8.261
    1STR    C06 5991   4.134   1.076   8.299
    1STR    C07 5992   4.070   1.192   8.246
    1STR    N08 5993   4.112   1.325   8.278
    1STR    C09 5994   4.081   1.442   8.219
    1STR    O0A 5995   4.010   1.452   8.118
    1STR    O0B 5996   4.134   1.553   8.281
    1STR    C0C 5997   4.088   1.686   8.243
    1STR    C0D 5998   3.961   1.717   8.324
    1STR    C0E 5999   4.193   1.800   8.257
    1STR    O0F 6000   4.138   1.925   8.210
    1STR    C0G 6001   4.225   2.040   8.209
    1STR    C0H 6002   4.321   2.029   8.089
    1STR    C0I 6003   4.141   2.171   8.199
    1STR    O0J 6004   4.220   2.292   8.208
    1STR    C0K 6005   4.152   2.417   8.182
    1STR    C0M 6006   4.043   2.443   8.286
    1STR    C0N 6007   4.251   2.538   8.180
    1STR    O0O 6008   4.195   2.651   8.111
    1STR    C0P 6009   4.178   2.773   8.170
    1STR    O0Q 6010   4.206   2.801   8.286
    1STR    N0R 6011   4.121   2.856   8.082
    1STR    C0S 6012   4.060   2.982   8.097
    1STR    C0T 6013   3.940   2.999   8.025
    1STR    C0U 6014   3.864   3.116   8.039
    1STR    C0V 6015   3.908   3.222   8.122
    1STR    C0W 6016   3.808   3.333   8.149
    1STR    C0X 6017   4.036   3.215   8.183
    1STR    N0Y 6018   4.084   3.320   8.264
    1STR   BCK2 6019   4.087   3.454   8.256
    1STR    O10 6020   4.124   3.519   8.354
    1STR    C13 6021   4.108   3.092   8.175
    1STR    C14 6022   3.960   1.171   8.159
    1STR    C15 6023   3.923   1.042   8.118
    1STR    C16 6024   3.991   0.929   8.165
    1STR    C17 6025   3.954   0.794   8.105
    1STR    H1B 6026   4.259   0.818   8.282
    1STR    H1C 6027   4.216   1.087   8.368
    1STR    H1D 6028   4.175   1.335   8.355
    1STR    H1E 6029   4.061   1.685   8.137
    1STR    H1F 6030   3.982   1.721   8.431
    1STR    H1G 6031   3.919   1.814   8.296
    1STR    H1H 6032   3.884   1.642   8.308
    1STR    H1I 6033   4.282   1.773   8.200
    1STR    H1J 6034   4.224   1.809   8.362
    1STR    H1K 6035   4.282   2.044   8.301
    1STR    H1M 6036   4.266   2.018   7.995
    1STR    H1N 6037   4.388   1.944   8.098
    1STR    H1O 6038   4.383   2.118   8.080
    1STR    H1P 6039   4.085   2.171   8.105
    1STR    H1Q 6040   4.067   2.170   8.279
    1STR    H1R 6041   4.107   2.411   8.083
    1STR    H1S 6042   3.999   2.542   8.273
    1STR    H1T 6043   4.083   2.439   8.387
    1STR    H1U 6044   3.961   2.371   8.280
    1STR    H1V 6045   4.342   2.509   8.126
    1STR    H1W 6046   4.284   2.564   8.280
    1STR    H1X 6047   4.110   2.812   7.993
    1STR    H1Y 6048   3.901   2.920   7.963
    1STR    H1Z 6049   3.769   3.123   7.990
    1STR    H20 6050   3.828   3.384   8.243
    1STR    H21 6051   3.807   3.405   8.068
    1STR    H22 6052   3.707   3.292   8.158
    1STR    H23 6053   4.128   3.290   8.350
    1STR    H27 6054   4.202   3.080   8.227
    1STR    H28 6055   3.902   1.251   8.118
    1STR    H29 6056   3.842   1.030   8.047
    1STR    H2A 6057   4.044   0.734   8.086
    1STR    H2B 6058   3.903   0.805   8.009
    1STR    H2C 6059   3.889   0.739   8.172
    1STR   BCK1 6060   4.134   0.739  12.860
    1STR    O03 6061   4.239   0.689  12.900
    1STR    N04 6062   4.087   0.859  12.899
    1STR    C05 6063   4.132   0.947  13.000
    1STR    C06 6064   4.130   1.089  12.979
    1STR    C07 6065   4.166   1.184  13.080
    1STR    N08 6066   4.158   1.324  13.057
    1STR    C09 6067   4.161   1.427  13.144
    1STR    O0A 6068   4.169   1.415  13.266
    1STR    O0B 6069   4.154   1.550  13.082
    1STR    C0C 6070   4.164   1.672  13.160
    1STR    C0D 6071   4.311   1.698  13.196
    1STR    C0E 6072   4.102   1.795  13.087
    1STR    O0F 6073   4.116   1.918  13.162
    1STR    C0G 6074   4.050   2.034  13.108
    1STR    C0H 6075   3.899   2.025  13.139
    1STR    C0I 6076   4.108   2.167  13.167
    1STR    O0J 6077   4.062   2.282  13.093
    1STR    C0K 6078   4.090   2.413  13.147
    1STR    C0M 6079   4.242   2.437  13.154
    1STR    C0N 6080   4.022   2.524  13.061
    1STR    O0O 6081   4.040   2.655  13.116
    1STR    C0P 6082   4.048   2.766  13.037
    1STR    O0Q 6083   4.059   2.765  12.915
    1STR    N0R 6084   4.048   2.876  13.114
    1STR    C0S 6085   4.059   3.014  13.088
    1STR    C0T 6086   4.085   3.093  13.202
    1STR    C0U 6087   4.104   3.232  13.191
    1STR    C0V 6088   4.097   3.296  13.066
    1STR    C0W 6089   4.131   3.444  13.061
    1STR    C0X 6090   4.061   3.221  12.950
    1STR    N0Y 6091   4.050   3.287  12.826
    1STR   BCK2 6092   3.978   3.398  12.798
    1STR    O10 6093   3.893   3.445  12.872
    1STR    C13 6094   4.047   3.079  12.962
    1STR    C14 6095   4.209   1.132  13.203
    1STR    C15 6096   4.210   0.993  13.228
    1STR    C16 6097   4.168   0.901  13.130
    1STR    C17 6098   4.158   0.756  13.173
    1STR    H1B 6099   4.006   0.888  12.847
    1STR    H1C 6100   4.099   1.125  12.882
    1STR    H1D 6101   4.146   1.355  12.962
    1STR    H1E 6102   4.107   1.658  13.253
    1STR    H1F 6103   4.372   1.713  13.107
    1STR    H1G 6104   4.320   1.788  13.257
    1STR    H1H 6105   4.353   1.616  13.253
    1STR    H1I 6106   3.996   1.774  13.068
    1STR    H1J 6107   4.149   1.808  12.989
    1STR    H1K 6108   4.065   2.037  13.000
    1STR    H1M 6109   3.882   2.015  13.247
    1STR    H1N 6110   3.851   1.942  13.089
    1STR    H1O 6111   3.848   2.116  13.107
    1STR    H1P 6112   4.081   2.176  13.272
    1STR    H1Q 6113   4.217   2.162  13.162
    1STR    H1R 6114   4.048   2.419  13.248
    1STR    H1S 6115   4.263   2.538  13.187
    1STR    H1T 6116   4.287   2.424  13.056
    1STR    H1U 6117   4.291   2.369  13.224
    1STR    H1V 6118   3.915   2.506  13.054
    1STR    H1W 6119   4.060   2.520  12.958
    1STR    H1X 6120   4.035   2.851  13.210
    1STR    H1Y 6121   4.092   3.050  13.300
    1STR    H1Z 6122   4.126   3.290  13.279
    1STR    H20 6123   4.183   3.469  12.969
    1STR    H21 6124   4.040   3.504  13.066
    1STR    H22 6125   4.194   3.474  13.144
    1STR    H23 6126   4.098   3.248  12.747
    1STR    H27 6127   4.023   3.020  12.875
    1STR    H28 6128   4.242   1.195  13.284
    1STR    H29 6129   4.240   0.958  13.326
    1STR    H2A 6130   4.077   0.705  13.122
    1STR    H2B 6131   4.139   0.748  13.280
    1STR    H2C 6132   4.252   0.704  13.152
    1STR   BCK1 6133   4.208   5.098  17.049
    1STR    O03 6134   4.171   5.112  16.932
    1STR    N04 6135   4.277   5.192  17.117
    1STR    C05 6136   4.356   5.298  17.065
    1STR    C06 6137   4.337   5.436  17.100
    1STR    C07 6138   4.425   5.540  17.054
    1STR    N08 6139   4.409   5.677  17.090
    1STR    C09 6140   4.466   5.788  17.036
    1STR    O0A 6141   4.539   5.786  16.938
    1STR    O0B 6142   4.434   5.908  17.100
    1STR    C0C 6143   4.482   6.034  17.045
    1STR    C0D 6144   4.396   6.070  16.922
    1STR    C0E 6145   4.485   6.155  17.145
    1STR    O0F 6146   4.526   6.277  17.078
    1STR    C0G 6147   4.532   6.400  17.154
    1STR    C0H 6148   4.657   6.398  17.244
    1STR    C0I 6149   4.536   6.523  17.057
    1STR    O0J 6150   4.520   6.653  17.120
    1STR    C0K 6151   4.524   6.769  17.033
    1STR    C0M 6152   4.400   6.770  16.942
    1STR    C0N 6153   4.529   6.903  17.114
    1STR    O0O 6154   4.544   7.020  17.032
    1STR    C0P 6155   4.467   7.132  17.049
    1STR    O0Q 6156   4.363   7.137  17.115
    1STR    N0R 6157   4.522   7.238  16.988
    1STR    C0S 6158   4.489   7.375  16.981
    1STR    C0T 6159   4.593   7.462  16.943
    1STR    C0U 6160   4.574   7.601  16.938
    1STR    C0V 6161   4.450   7.659  16.969
    1STR    C0W 6162   4.445   7.810  16.977
    1STR    C0X 6163   4.339   7.575  17.001
    1STR    N0Y 6164   4.214   7.625  17.042
    1STR   BCK2 6165   4.130   7.726  17.011
    1STR    O10 6166   4.032   7.742  17.084
    1STR    C13 6167   4.362   7.434  17.009
    1STR    C14 6168   4.535   5.498  16.975
    1STR    C15 6169   4.555   5.364  16.941
    1STR    C16 6170   4.468   5.264  16.986
    1STR    C17 6171   4.502   5.119  16.955
    1STR    H1B 6172   4.286   5.174  17.216
    1STR    H1C 6173   4.253   5.462  17.163
    1STR    H1D 6174   4.347   5.698  17.166
    1STR    H1E 6175   4.585   6.019  17.012
    1STR    H1F 6176   4.292   6.086  16.950
    1STR    H1G 6177   4.433   6.160  16.874
    1STR    H1H 6178   4.399   5.991  16.847
    1STR    H1I 6179   4.553   6.132  17.227
    1STR    H1J 6180   4.386   6.169  17.189
    1STR    H1K 6181   4.442   6.409  17.216
    1STR    H1M 6182   4.747   6.382  17.185
    1STR    H1N 6183   4.652   6.319  17.319
    1STR    H1O 6184   4.668   6.492  17.298
    1STR    H1P 6185   4.629   6.521  17.000
    1STR    H1Q 6186   4.456   6.508  16.985
    1STR    H1R 6187   4.615   6.764  16.972
    1STR    H1S 6188   4.395   6.863  16.885
    1STR    H1T 6189   4.309   6.763  17.001
    1STR    H1U 6190   4.400   6.689  16.870
    1STR    H1V 6191   4.612   6.900  17.184
    1STR    H1W 6192   4.440   6.911  17.175
    1STR    H1X 6193   4.608   7.211  16.945
    1STR    H1Y 6194   4.692   7.424  16.921
    1STR    H1Z 6195   4.658   7.664  16.913
    1STR    H20 6196   4.419   7.852  16.880
    1STR    H21 6197   4.373   7.844  17.052
    1STR    H22 6198   4.541   7.851  17.006
    1STR    H23 6199   4.171   7.572  17.116
    1STR    H27 6200   4.281   7.369  17.038
    1STR    H28 6201   4.609   5.568  16.938
    1STR    H29 6202   4.641   5.338  16.881
    1STR    H2A 6203   4.497   5.057  17.045
    1STR    H2B 6204   4.603   5.109  16.914
    1STR    H2C 6205   4.432   5.079  16.882
    1STR   BCK1 6206   4.120   5.066   4.036
    1STR    O03 6207   4.226   5.014   4.069
    1STR    N04 6208   4.103   5.195   4.072
    1STR    C05 6209   4.001   5.292   4.076
    1STR    C06 6210   4.035   5.430   4.059
    1STR    C07 6211   3.941   5.537   4.077
    1STR    N08 6212   3.979   5.673   4.064
    1STR    C09 6213   3.915   5.786   4.102
    1STR    O0A 6214   3.808   5.787   4.163
    1STR    O0B 6215   3.982   5.902   4.069
    1STR    C0C 6216   3.923   6.031   4.097
    1STR    C0D 6217   3.928   6.062   4.248
    1STR    C0E 6218   3.989   6.148   4.017
    1STR    O0F 6219   3.924   6.275   4.043
    1STR    C0G 6220   3.974   6.391   3.973
    1STR    C0H 6221   3.939   6.380   3.824
    1STR    C0I 6222   3.913   6.521   4.033
    1STR    O0J 6223   3.970   6.642   3.977
    1STR    C0K 6224   3.908   6.767   4.015
    1STR    C0M 6225   3.938   6.797   4.163
    1STR    C0N 6226   3.957   6.885   3.926
    1STR    O0O 6227   3.878   7.003   3.951
    1STR    C0P 6228   3.933   7.128   3.953
    1STR    O0Q 6229   4.052   7.153   3.942
    1STR    N0R 6230   3.838   7.219   3.976
    1STR    C0S 6231   3.847   7.357   4.005
    1STR    C0T 6232   3.769   7.404   4.112
    1STR    C0U 6233   3.776   7.538   4.152
    1STR    C0V 6234   3.858   7.630   4.084
    1STR    C0W 6235   3.875   7.768   4.146
    1STR    C0X 6236   3.926   7.590   3.966
    1STR    N0Y 6237   4.005   7.677   3.889
    1STR   BCK2 6238   3.987   7.801   3.837
    1STR    O10 6239   4.077   7.850   3.771
    1STR    C13 6240   3.924   7.451   3.931
    1STR    C14 6241   3.808   5.499   4.108
    1STR    C15 6242   3.773   5.365   4.129
    1STR    C16 6243   3.868   5.262   4.118
    1STR    C17 6244   3.825   5.123   4.160
    1STR    H1B 6245   4.192   5.227   4.106
    1STR    H1C 6246   4.137   5.455   4.033
    1STR    H1D 6247   4.067   5.691   4.019
    1STR    H1E 6248   3.818   6.026   4.067
    1STR    H1F 6249   4.031   6.066   4.285
    1STR    H1G 6250   3.881   6.158   4.270
    1STR    H1H 6251   3.875   5.986   4.306
    1STR    H1I 6252   3.983   6.123   3.911
    1STR    H1J 6253   4.095   6.155   4.042
    1STR    H1K 6254   4.082   6.396   3.985
    1STR    H1M 6255   3.833   6.365   3.809
    1STR    H1N 6256   3.992   6.299   3.774
    1STR    H1O 6257   3.967   6.472   3.771
    1STR    H1P 6258   3.805   6.520   4.017
    1STR    H1Q 6259   3.929   6.520   4.141
    1STR    H1R 6260   3.800   6.758   4.000
    1STR    H1S 6261   3.899   6.895   4.191
    1STR    H1T 6262   4.045   6.797   4.181
    1STR    H1U 6263   3.892   6.724   4.230
    1STR    H1V 6264   3.946   6.860   3.821
    1STR    H1W 6265   4.063   6.904   3.943
    1STR    H1X 6266   3.746   7.178   3.979
    1STR    H1Y 6267   3.705   7.337   4.167
    1STR    H1Z 6268   3.719   7.571   4.238
    1STR    H20 6269   3.966   7.816   4.112
    1STR    H21 6270   3.790   7.831   4.122
    1STR    H22 6271   3.882   7.760   4.254
    1STR    H23 6272   4.091   7.639   3.854
    1STR    H27 6273   3.980   7.416   3.846
    1STR    H28 6274   3.730   5.572   4.119
    1STR    H29 6275   3.672   5.341   4.157
    1STR    H2A 6276   3.785   5.068   4.075
    1STR    H2B 6277   3.746   5.128   4.236
    1STR    H2C 6278   3.907   5.067   4.205
    1STR   BCK1 6279   4.242   5.103   8.460
    1STR    O03 6280   4.352   5.050   8.451
    1STR    N04 6281   4.219   5.222   8.520
    1STR    C05 6282   4.305   5.308   8.594
    1STR    C06 6283   4.290   5.451   8.583
    1STR    C07 6284   4.370   5.544   8.659
    1STR    N08 6285   4.350   5.685   8.650
    1STR    C09 6286   4.406   5.787   8.718
    1STR    O0A 6287   4.491   5.773   8.806
    1STR    O0B 6288   4.360   5.911   8.680
    1STR    C0C 6289   4.423   6.033   8.730
    1STR    C0D 6290   4.548   6.061   8.645
    1STR    C0E 6291   4.328   6.157   8.731
    1STR    O0F 6292   4.395   6.279   8.772
    1STR    C0G 6293   4.313   6.396   8.789
    1STR    C0H 6294   4.249   6.390   8.929
    1STR    C0I 6295   4.395   6.529   8.773
    1STR    O0J 6296   4.310   6.646   8.762
    1STR    C0K 6297   4.373   6.776   8.763
    1STR    C0M 6298   4.479   6.787   8.653
    1STR    C0N 6299   4.268   6.891   8.746
    1STR    O0O 6300   4.327   7.022   8.758
    1STR    C0P 6301   4.271   7.132   8.699
    1STR    O0Q 6302   4.174   7.130   8.624
    1STR    N0R 6303   4.338   7.241   8.735
    1STR    C0S 6304   4.331   7.379   8.702
    1STR    C0T 6305   4.418   7.461   8.775
    1STR    C0U 6306   4.430   7.598   8.747
    1STR    C0V 6307   4.354   7.657   8.644
    1STR    C0W 6308   4.387   7.802   8.610
    1STR    C0X 6309   4.257   7.581   8.574
    1STR    N0Y 6310   4.183   7.639   8.469
    1STR   BCK2 6311   4.119   7.758   8.465
    1STR    O10 6312   4.096   7.829   8.563
    1STR    C13 6313   4.249   7.440   8.603
    1STR    C14 6314   4.469   5.488   8.743
    1STR    C15 6315   4.483   5.349   8.757
    1STR    C16 6316   4.400   5.259   8.688
    1STR    C17 6317   4.415   5.113   8.724
    1STR    H1B 6318   4.125   5.254   8.505
    1STR    H1C 6319   4.216   5.490   8.516
    1STR    H1D 6320   4.284   5.718   8.581
    1STR    H1E 6321   4.454   6.016   8.833
    1STR    H1F 6322   4.522   6.079   8.541
    1STR    H1G 6323   4.601   6.149   8.682
    1STR    H1H 6324   4.618   5.977   8.649
    1STR    H1I 6325   4.244   6.136   8.798
    1STR    H1J 6326   4.285   6.172   8.632
    1STR    H1K 6327   4.235   6.397   8.712
    1STR    H1M 6328   4.325   6.383   9.006
    1STR    H1N 6329   4.182   6.305   8.940
    1STR    H1O 6330   4.190   6.480   8.948
    1STR    H1P 6331   4.464   6.540   8.856
    1STR    H1Q 6332   4.455   6.520   8.683
    1STR    H1R 6333   4.421   6.790   8.860
    1STR    H1S 6334   4.520   6.888   8.648
    1STR    H1T 6335   4.436   6.765   8.555
    1STR    H1U 6336   4.564   6.720   8.669
    1STR    H1V 6337   4.190   6.882   8.821
    1STR    H1W 6338   4.217   6.881   8.649
    1STR    H1X 6339   4.410   7.216   8.800
    1STR    H1Y 6340   4.481   7.421   8.854
    1STR    H1Z 6341   4.501   7.658   8.803
    1STR    H20 6342   4.377   7.821   8.503
    1STR    H21 6343   4.321   7.870   8.664
    1STR    H22 6344   4.490   7.827   8.637
    1STR    H23 6345   4.175   7.586   8.384
    1STR    H27 6346   4.179   7.379   8.548
    1STR    H28 6347   4.537   5.549   8.800
    1STR    H29 6348   4.558   5.312   8.825
    1STR    H2A 6349   4.320   5.060   8.716
    1STR    H2B 6350   4.449   5.101   8.827
    1STR    H2C 6351   4.488   5.065   8.659
    1STR   BCK1 6352   4.110   5.076  12.674
    1STR    O03 6353   4.012   5.078  12.600
    1STR    N04 6354   4.194   5.181  12.691
    1STR    C05 6355   4.207   5.293  12.606
    1STR    C06 6356   4.213   5.428  12.655
    1STR    C07 6357   4.232   5.541  12.568
    1STR    N08 6358   4.242   5.675  12.615
    1STR    C09 6359   4.240   5.793  12.547
    1STR    O0A 6360   4.223   5.801  12.425
    1STR    O0B 6361   4.261   5.905  12.624
    1STR    C0C 6362   4.245   6.037  12.564
    1STR    C0D 6363   4.096   6.072  12.564
    1STR    C0E 6364   4.328   6.152  12.630
    1STR    O0F 6365   4.308   6.275  12.557
    1STR    C0G 6366   4.376   6.394  12.603
    1STR    C0H 6367   4.522   6.389  12.557
    1STR    C0I 6368   4.303   6.519  12.544
    1STR    O0J 6369   4.349   6.647  12.595
    1STR    C0K 6370   4.283   6.764  12.542
    1STR    C0M 6371   4.136   6.766  12.587
    1STR    C0N 6372   4.350   6.899  12.583
    1STR    O0O 6373   4.292   7.008  12.509
    1STR    C0P 6374   4.297   7.136  12.554
    1STR    O0Q 6375   4.338   7.172  12.664
    1STR    N0R 6376   4.255   7.220  12.458
    1STR    C0S 6377   4.259   7.361  12.450
    1STR    C0T 6378   4.332   7.416  12.344
    1STR    C0U 6379   4.339   7.556  12.327
    1STR    C0V 6380   4.271   7.643  12.414
    1STR    C0W 6381   4.299   7.791  12.397
    1STR    C0X 6382   4.188   7.591  12.518
    1STR    N0Y 6383   4.119   7.671  12.611
    1STR   BCK2 6384   4.049   7.787  12.613
    1STR    O10 6385   4.009   7.827  12.721
    1STR    C13 6386   4.187   7.449  12.536
    1STR    C14 6387   4.245   5.512  12.430
    1STR    C15 6388   4.242   5.381  12.381
    1STR    C16 6389   4.227   5.272  12.467
    1STR    C17 6390   4.238   5.133  12.406
    1STR    H1B 6391   4.250   5.176  12.774
    1STR    H1C 6392   4.201   5.445  12.761
    1STR    H1D 6393   4.246   5.689  12.715
    1STR    H1E 6394   4.279   6.032  12.461
    1STR    H1F 6395   4.056   6.079  12.666
    1STR    H1G 6396   4.078   6.167  12.514
    1STR    H1H 6397   4.037   5.997  12.511
    1STR    H1I 6398   4.434   6.124  12.630
    1STR    H1J 6399   4.299   6.164  12.734
    1STR    H1K 6400   4.371   6.400  12.712
    1STR    H1M 6401   4.529   6.378  12.449
    1STR    H1N 6402   4.576   6.306  12.602
    1STR    H1O 6403   4.575   6.481  12.584
    1STR    H1P 6404   4.311   6.518  12.436
    1STR    H1Q 6405   4.197   6.507  12.568
    1STR    H1R 6406   4.287   6.759  12.433
    1STR    H1S 6407   4.088   6.860  12.559
    1STR    H1T 6408   4.128   6.757  12.695
    1STR    H1U 6409   4.077   6.687  12.542
    1STR    H1V 6410   4.457   6.896  12.563
    1STR    H1W 6411   4.340   6.915  12.691
    1STR    H1X 6412   4.231   7.171  12.374
    1STR    H1Y 6413   4.386   7.353  12.276
    1STR    H1Z 6414   4.400   7.596  12.248
    1STR    H20 6415   4.232   7.834  12.323
    1STR    H21 6416   4.289   7.845  12.491
    1STR    H22 6417   4.401   7.808  12.362
    1STR    H23 6418   4.118   7.633  12.704
    1STR    H27 6419   4.130   7.405  12.616
    1STR    H28 6420   4.259   5.589  12.356
    1STR    H29 6421   4.253   5.365  12.275
    1STR    H2A 6422   4.291   5.065  12.472
    1STR    H2B 6423   4.291   5.135  12.311
    1STR    H2C 6424   4.138   5.092  12.387
    1STR   BCK1 6425   4.077   9.441  17.180
    1STR    O03 6426   4.166   9.396  17.252
    1STR    N04 6427   4.022   9.564  17.194
    1STR    C05 6428   4.034   9.658  17.300
    1STR    C06 6429   4.045   9.798  17.272
    1STR    C07 6430   4.045   9.898  17.375
    1STR    N08 6431   4.052  10.037  17.344
    1STR    C09 6432   4.020  10.144  17.422
    1STR    O0A 6433   3.976  10.135   0.096
    1STR    O0B 6434   4.043  10.266  17.361
    1STR    C0C 6435   4.015  10.389  17.433
    1STR    C0D 6436   4.124  10.415   0.098
    1STR    C0E 6437   3.999  10.512  17.338
    1STR    O0F 6438   3.975  10.636  17.408
    1STR    C0G 6439   3.946  10.753  17.328
    1STR    C0H 6440   3.803  10.742  17.272
    1STR    C0I 6441   3.960  10.884  17.412
    1STR    O0J 6442   3.953  11.003  17.329
    1STR    C0K 6443   3.946  11.131  17.395
    1STR    C0M 6444   4.077  11.158   0.032
    1STR    C0N 6445   3.919  11.246  17.293
    1STR    O0O 6446   3.904  11.374  17.356
    1STR    C0P 6447   3.926  11.490  17.287
    1STR    O0Q 6448   3.967  11.498  17.172
    1STR    N0R 6449   3.901  11.595  17.367
    1STR    C0S 6450   3.918  11.735  17.353
    1STR    C0T 6451   3.915  11.809   0.032
    1STR    C0U 6452   3.942  11.947   0.031
    1STR    C0V 6453   3.970  12.016  17.351
    1STR    C0W 6454   4.019  12.159  17.364
    1STR    C0X 6455   3.960  11.947  17.227
    1STR    N0Y 6456   3.987  12.007  17.102
    1STR   BCK2 6457   3.960  12.124  17.040
    1STR    O10 6458   4.004  12.142  16.927
    1STR    C13 6459   3.938  11.805  17.230
    1STR    C14 6460   4.038   9.852   0.068
    1STR    C15 6461   4.024   9.716   0.098
    1STR    C16 6462   4.019   9.619  17.436
    1STR    C17 6463   3.989   9.476   0.038
    1STR    H1B 6464   3.957   9.588  17.122
    1STR    H1C 6465   4.052   9.830  17.169
    1STR    H1D 6466   4.079  10.064  17.252
    1STR    H1E 6467   3.920  10.376   0.046
    1STR    H1F 6468   4.222  10.427   0.053
    1STR    H1G 6469   4.102  10.505   0.155
    1STR    H1H 6470   4.130  10.334   0.171
    1STR    H1I 6471   3.916  10.490  17.271
    1STR    H1J 6472   4.088  10.521  17.276
    1STR    H1K 6473   4.018  10.758  17.246
    1STR    H1M 6474   3.731  10.726  17.353
    1STR    H1N 6475   3.792  10.660  17.202
    1STR    H1O 6476   3.774  10.833  17.220
    1STR    H1P 6477   3.882  10.887   0.048
    1STR    H1Q 6478   4.055  10.882   0.025
    1STR    H1R 6479   3.862  11.129   0.026
    1STR    H1S 6480   4.076  11.258   0.076
    1STR    H1T 6481   4.163  11.151  17.406
    1STR    H1U 6482   4.091  11.088   0.114
    1STR    H1V 6483   3.828  11.225  17.237
    1STR    H1W 6484   4.000  11.249  17.219
    1STR    H1X 6485   3.867  11.562   0.016
    1STR    H1Y 6486   3.898  11.761   0.127
    1STR    H1Z 6487   3.945  12.000   0.125
    1STR    H20 6488   4.082  12.187  17.280
    1STR    H21 6489   3.935  12.227  17.371
    1STR    H22 6490   4.079  12.171   0.014
    1STR    H23 6491   4.031  11.945  17.037
    1STR    H27 6492   3.936  11.749  17.139
    1STR    H28 6493   4.039   9.920   0.152
    1STR    H29 6494   4.013   9.686   0.201
    1STR    H2A 6495   3.927   9.425  17.404
    1STR    H2B 6496   3.933   9.474   0.132
    1STR    H2C 6497   4.081   9.420   0.052
    1STR   BCK1 6498   4.259   9.467   3.986
    1STR    O03 6499   4.351   9.419   3.920
    1STR    N04 6500   4.267   9.584   4.054
    1STR    C05 6501   4.376   9.673   4.075
    1STR    C06 6502   4.354   9.815   4.079
    1STR    C07 6503   4.459   9.909   4.103
    1STR    N08 6504   4.434  10.049   4.114
    1STR    C09 6505   4.521  10.154   4.112
    1STR    O0A 6506   4.641  10.143   4.091
    1STR    O0B 6507   4.460  10.276   4.136
    1STR    C0C 6508   4.536  10.399   4.122
    1STR    C0D 6509   4.544  10.434   3.972
    1STR    C0E 6510   4.479  10.520   4.203
    1STR    O0F 6511   4.552  10.642   4.177
    1STR    C0G 6512   4.512  10.761   4.249
    1STR    C0H 6513   4.577  10.757   4.388
    1STR    C0I 6514   4.555  10.889   4.171
    1STR    O0J 6515   4.497  11.012   4.222
    1STR    C0K 6516   4.538  11.136   4.160
    1STR    C0M 6517   4.505  11.134   4.010
    1STR    C0N 6518   4.471  11.261   4.225
    1STR    O0O 6519   4.518  11.384   4.166
    1STR    C0P 6520   4.444  11.499   4.168
    1STR    O0Q 6521   4.332  11.510   4.217
    1STR    N0R 6522   4.514  11.599   4.113
    1STR    C0S 6523   4.488  11.736   4.092
    1STR    C0T 6524   4.601  11.819   4.076
    1STR    C0U 6525   4.587  11.957   4.056
    1STR    C0V 6526   4.460  12.018   4.049
    1STR    C0W 6527   4.459  12.169   4.041
    1STR    C0X 6528   4.343  11.939   4.058
    1STR    N0Y 6529   4.212  11.991   4.061
    1STR   BCK2 6530   4.138  12.093   4.011
    1STR    O10 6531   4.024  12.106   4.054
    1STR    C13 6532   4.359  11.798   4.082
    1STR    C14 6533   4.589   9.857   4.121
    1STR    C15 6534   4.613   9.719   4.120
    1STR    C16 6535   4.508   9.626   4.102
    1STR    C17 6536   4.545   9.480   4.120
    1STR    H1B 6537   4.178   9.613   4.091
    1STR    H1C 6538   4.254   9.852   4.063
    1STR    H1D 6539   4.339  10.079   4.123
    1STR    H1E 6540   4.638  10.382   4.158
    1STR    H1F 6541   4.445  10.453   3.931
    1STR    H1G 6542   4.605  10.523   3.956
    1STR    H1H 6543   4.590  10.353   3.915
    1STR    H1I 6544   4.485  10.495   4.310
    1STR    H1J 6545   4.374  10.534   4.179
    1STR    H1K 6546   4.404  10.763   4.259
    1STR    H1M 6547   4.686  10.749   4.381
    1STR    H1N 6548   4.542  10.673   4.448
    1STR    H1O 6549   4.555  10.848   4.444
    1STR    H1P 6550   4.664  10.897   4.170
    1STR    H1Q 6551   4.525  10.875   4.068
    1STR    H1R 6552   4.646  11.146   4.172
    1STR    H1S 6553   4.526  11.231   3.964
    1STR    H1T 6554   4.399  11.113   3.993
    1STR    H1U 6555   4.564  11.061   3.954
    1STR    H1V 6556   4.493  11.265   4.332
    1STR    H1W 6557   4.362  11.255   4.216
    1STR    H1X 6558   4.604  11.566   4.085
    1STR    H1Y 6559   4.700  11.778   4.083
    1STR    H1Z 6560   4.676  12.017   4.049
    1STR    H20 6561   4.454  12.201   3.937
    1STR    H21 6562   4.375  12.210   4.097
    1STR    H22 6563   4.549  12.212   4.084
    1STR    H23 6564   4.149  11.935   4.117
    1STR    H27 6565   4.272  11.735   4.093
    1STR    H28 6566   4.675   9.920   4.140
    1STR    H29 6567   4.713   9.684   4.138
    1STR    H2A 6568   4.462   9.423   4.161
    1STR    H2B 6569   4.629   9.468   4.188
    1STR    H2C 6570   4.574   9.437   4.024
    1STR   BCK1 6571   4.100   9.433   8.350
    1STR    O03 6572   4.038   9.417   8.454
    1STR    N04 6573   4.118   9.553   8.291
    1STR    C05 6574   4.036   9.667   8.305
    1STR    C06 6575   4.090   9.798   8.324
    1STR    C07 6576   4.007   9.914   8.323
    1STR    N08 6577   4.059  10.045   8.337
    1STR    C09 6578   4.009  10.159   8.282
    1STR    O0A 6579   3.920  10.159   8.198
    1STR    O0B 6580   4.069  10.273   8.328
    1STR    C0C 6581   4.006  10.402   8.305
    1STR    C0D 6582   3.911  10.430   8.423
    1STR    C0E 6583   4.107  10.519   8.286
    1STR    O0F 6584   4.038  10.642   8.257
    1STR    C0G 6585   4.118  10.758   8.225
    1STR    C0H 6586   4.168  10.745   8.081
    1STR    C0I 6587   4.034  10.888   8.242
    1STR    O0J 6588   4.110  11.009   8.220
    1STR    C0K 6589   4.036  11.133   8.220
    1STR    C0M 6590   3.979  11.161   8.360
    1STR    C0N 6591   4.123  11.254   8.175
    1STR    O0O 6592   4.040  11.366   8.143
    1STR    C0P 6593   4.072  11.494   8.178
    1STR    O0Q 6594   4.175  11.529   8.234
    1STR    N0R 6595   3.970  11.575   8.146
    1STR    C0S 6596   3.940  11.707   8.180
    1STR    C0T 6597   3.804  11.733   8.205
    1STR    C0U 6598   3.761  11.859   8.250
    1STR    C0V 6599   3.852  11.964   8.267
    1STR    C0W 6600   3.801  12.090   8.336
    1STR    C0X 6601   3.988  11.947   8.230
    1STR    N0Y 6602   4.082  12.050   8.248
    1STR   BCK2 6603   4.086  12.182   8.221
    1STR    O10 6604   4.176  12.250   8.269
    1STR    C13 6605   4.032  11.816   8.192
    1STR    C14 6606   3.868   9.895   8.309
    1STR    C15 6607   3.814   9.768   8.289
    1STR    C16 6608   3.896   9.654   8.283
    1STR    C17 6609   3.830   9.522   8.247
    1STR    H1B 6610   4.185   9.555   8.216
    1STR    H1C 6611   4.196   9.809   8.338
    1STR    H1D 6612   4.137  10.061   8.399
    1STR    H1E 6613   3.946  10.398   8.213
    1STR    H1F 6614   3.964  10.436   8.517
    1STR    H1G 6615   3.857  10.524   8.408
    1STR    H1H 6616   3.836  10.351   8.432
    1STR    H1I 6617   4.174  10.493   8.205
    1STR    H1J 6618   4.168  10.531   8.376
    1STR    H1K 6619   4.203  10.764   8.294
    1STR    H1M 6620   4.084  10.733   8.012
    1STR    H1N 6621   4.235  10.661   8.067
    1STR    H1O 6622   4.222  10.835   8.051
    1STR    H1P 6623   3.948  10.885   8.175
    1STR    H1Q 6624   3.994  10.889   8.344
    1STR    H1R 6625   3.954  11.123   8.149
    1STR    H1S 6626   3.932  11.259   8.364
    1STR    H1T 6627   4.057  11.159   8.436
    1STR    H1U 6628   3.902  11.089   8.389
    1STR    H1V 6629   4.180  11.228   8.085
    1STR    H1W 6630   4.197  11.279   8.252
    1STR    H1X 6631   3.898  11.522   8.100
    1STR    H1Y 6632   3.730  11.654   8.197
    1STR    H1Z 6633   3.657  11.873   8.276
    1STR    H20 6634   3.880  12.141   8.391
    1STR    H21 6635   3.757  12.158   8.264
    1STR    H22 6636   3.724  12.064   8.409
    1STR    H23 6637   4.167  12.022   8.295
    1STR    H27 6638   4.136  11.797   8.171
    1STR    H28 6639   3.800   9.979   8.311
    1STR    H29 6640   3.707   9.758   8.275
    1STR    H2A 6641   3.893   9.464   8.179
    1STR    H2B 6642   3.734   9.537   8.198
    1STR    H2C 6643   3.813   9.463   8.337
    1STR   BCK1 6644   4.175   9.453  12.862
    1STR    O03 6645   4.282   9.398  12.886
    1STR    N04 6646   4.139   9.575  12.908
    1STR    C05 6647   4.202   9.663  13.000
    1STR    C06 6648   4.194   9.805  12.981
    1STR    C07 6649   4.248   9.900  13.074
    1STR    N08 6650   4.235  10.041  13.055
    1STR    C09 6651   4.253  10.143  13.142
    1STR    O0A 6652   4.282  10.129  13.260
    1STR    O0B 6653   4.235  10.268  13.085
    1STR    C0C 6654   4.267  10.389  13.158
    1STR    C0D 6655   4.419  10.413  13.150
    1STR    C0E 6656   4.188  10.514  13.109
    1STR    O0F 6657   4.223  10.636  13.178
    1STR    C0G 6658   4.143  10.753  13.149
    1STR    C0H 6659   4.014  10.745  13.233
    1STR    C0I 6660   4.218  10.886  13.180
    1STR    O0J 6661   4.148  11.002  13.130
    1STR    C0K 6662   4.196  11.134  13.167
    1STR    C0M 6663   4.343  11.151  13.124
    1STR    C0N 6664   4.108  11.246  13.103
    1STR    O0O 6665   4.148  11.378  13.146
    1STR    C0P 6666   4.115  11.490  13.075
    1STR    O0Q 6667   4.054  11.492  12.969
    1STR    N0R 6668   4.162  11.598  13.138
    1STR    C0S 6669   4.167  11.736  13.110
    1STR    C0T 6670   4.234  11.814  13.206
    1STR    C0U 6671   4.256  11.951  13.186
    1STR    C0V 6672   4.211  12.015  13.070
    1STR    C0W 6673   4.256  12.159  13.049
    1STR    C0X 6674   4.134  11.944  12.974
    1STR    N0Y 6675   4.089  12.008  12.857
    1STR   BCK2 6676   4.030  12.129  12.841
    1STR    O10 6677   3.987  12.197  12.933
    1STR    C13 6678   4.116  11.803  12.994
    1STR    C14 6679   4.317   9.848  13.185
    1STR    C15 6680   4.323   9.709  13.208
    1STR    C16 6681   4.264   9.617  13.120
    1STR    C17 6682   4.264   9.472  13.164
    1STR    H1B 6683   4.054   9.609  12.866
    1STR    H1C 6684   4.144   9.843  12.893
    1STR    H1D 6685   4.208  10.073  12.963
    1STR    H1E 6686   4.240  10.374  13.263
    1STR    H1F 6687   4.451  10.428  13.047
    1STR    H1G 6688   4.447  10.501  13.207
    1STR    H1H 6689   4.475  10.329  13.190
    1STR    H1I 6690   4.081  10.493  13.121
    1STR    H1J 6691   4.205  10.528  13.002
    1STR    H1K 6692   4.118  10.753  13.043
    1STR    H1M 6693   4.037  10.737  13.340
    1STR    H1N 6694   3.953  10.659  13.207
    1STR    H1O 6695   3.953  10.834  13.219
    1STR    H1P 6696   4.236  10.895  13.287
    1STR    H1Q 6697   4.316  10.881  13.132
    1STR    H1R 6698   4.189  11.143  13.276
    1STR    H1S 6699   4.377  11.253  13.143
    1STR    H1T 6700   4.355  11.133  13.017
    1STR    H1U 6701   4.410  11.085  13.178
    1STR    H1V 6702   4.004  11.232  13.129
    1STR    H1W 6703   4.113  11.240  12.994
    1STR    H1X 6704   4.205  11.568  13.224
    1STR    H1Y 6705   4.272  11.769  13.296
    1STR    H1Z 6706   4.311  12.006  13.260
    1STR    H20 6707   4.273  12.180  12.944
    1STR    H21 6708   4.181  12.228  13.087
    1STR    H22 6709   4.350  12.180  13.101
    1STR    H23 6710   4.099  11.957  12.770
    1STR    H27 6711   4.062  11.745  12.920
    1STR    H28 6712   4.365   9.912  13.258
    1STR    H29 6713   4.374   9.674  13.297
    1STR    H2A 6714   4.175   9.420  13.130
    1STR    H2B 6715   4.267   9.464  13.272
    1STR    H2C 6716   4.353   9.421  13.125
    1STR   BCK1 6717   4.171  13.811  17.031
    1STR    O03 6718   4.109  13.821  16.926
    1STR    N04 6719   4.250  13.908  17.082
    1STR    C05 6720   4.309  14.016  17.012
    1STR    C06 6721   4.297  14.153  17.053
    1STR    C07 6722   4.367  14.260  16.987
    1STR    N08 6723   4.358  14.396  17.028
    1STR    C09 6724   4.391  14.509  16.961
    1STR    O0A 6725   4.426  14.509  16.843
    1STR    O0B 6726   4.381  14.625  17.035
    1STR    C0C 6727   4.406  14.754  16.971
    1STR    C0D 6728   4.282  14.792  16.888
    1STR    C0E 6729   4.443  14.871  17.068
    1STR    O0F 6730   4.461  14.995  16.995
    1STR    C0G 6731   4.493  15.114  17.069
    1STR    C0H 6732   4.642  15.111  17.109
    1STR    C0I 6733   4.461  15.240  16.982
    1STR    O0J 6734   4.469  15.367  17.052
    1STR    C0K 6735   4.442  15.486  16.974
    1STR    C0M 6736   4.295  15.486  16.927
    1STR    C0N 6737   4.468  15.618  17.053
    1STR    O0O 6738   4.460  15.732  16.964
    1STR    C0P 6739   4.416  15.854  17.007
    1STR    O0Q 6740   4.368  15.877  17.117
    1STR    N0R 6741   4.438  15.946  16.912
    1STR    C0S 6742   4.419  16.085  16.910
    1STR    C0T 6743   4.517  16.161  16.845
    1STR    C0U 6744   4.508  16.302  16.839
    1STR    C0V 6745   4.398  16.370  16.895
    1STR    C0W 6746   4.406  16.522  16.898
    1STR    C0X 6747   4.292  16.296  16.954
    1STR    N0Y 6748   4.182  16.357  17.017
    1STR   BCK2 6749   4.099  16.462  16.996
    1STR    O10 6750   4.019  16.490  17.084
    1STR    C13 6751   4.306  16.154  16.964
    1STR    C14 6752   4.451  14.223  16.880
    1STR    C15 6753   4.466  14.089  16.839
    1STR    C16 6754   4.397  13.986  16.905
    1STR    C17 6755   4.426  13.843  16.863
    1STR    H1B 6756   4.280  13.893  17.176
    1STR    H1C 6757   4.233  14.176  17.137
    1STR    H1D 6758   4.322  14.415  17.120
    1STR    H1E 6759   4.490  14.742  16.903
    1STR    H1F 6760   4.194  14.806  16.951
    1STR    H1G 6761   4.299  14.885  16.833
    1STR    H1H 6762   4.259  14.715  16.814
    1STR    H1I 6763   4.534  14.845  17.123
    1STR    H1J 6764   4.364  14.884  17.143
    1STR    H1K 6765   4.431  15.119  17.159
    1STR    H1M 6766   4.706  15.100  17.021
    1STR    H1N 6767   4.664  15.029  17.177
    1STR    H1O 6768   4.670  15.204  17.159
    1STR    H1P 6769   4.528  15.242  16.896
    1STR    H1Q 6770   4.360  15.227  16.943
    1STR    H1R 6771   4.508  15.485  16.888
    1STR    H1S 6772   4.270  15.580  16.879
    1STR    H1T 6773   4.227  15.474  17.012
    1STR    H1U 6774   4.274  15.408  16.855
    1STR    H1V 6775   4.568  15.617  17.097
    1STR    H1W 6776   4.398  15.628  17.136
    1STR    H1X 6777   4.484  15.905  16.833
    1STR    H1Y 6778   4.605  16.114  16.803
    1STR    H1Z 6779   4.588  16.358  16.794
    1STR    H20 6780   4.366  16.563  16.805
    1STR    H21 6781   4.352  16.563  16.983
    1STR    H22 6782   4.510  16.555  16.907
    1STR    H23 6783   4.152  16.311  17.102
    1STR    H27 6784   4.230  16.096  17.013
    1STR    H28 6785   4.510  14.295  16.826
    1STR    H29 6786   4.533  14.066  16.758
    1STR    H2A 6787   4.443  13.779  16.950
    1STR    H2B 6788   4.514  13.836  16.799
    1STR    H2C 6789   4.341  13.802  16.807
    1STR   BCK1 6790   4.122  13.791   4.043
    1STR    O03 6791   4.234  13.744   4.038
    1STR    N04 6792   4.111  13.917   4.091
    1STR    C05 6793   4.012  14.008   4.133
    1STR    C06 6794   4.034  14.148   4.113
    1STR    C07 6795   3.949  14.249   4.167
    1STR    N08 6796   3.979  14.387   4.149
    1STR    C09 6797   3.913  14.498   4.190
    1STR    O0A 6798   3.806  14.497   4.250
    1STR    O0B 6799   3.977  14.615   4.157
    1STR    C0C 6800   3.926  14.743   4.203
    1STR    C0D 6801   3.971  14.766   4.349
    1STR    C0E 6802   3.970  14.862   4.113
    1STR    O0F 6803   3.911  14.988   4.155
    1STR    C0G 6804   3.935  15.103   4.072
    1STR    C0H 6805   3.849  15.094   3.946
    1STR    C0I 6806   3.902  15.235   4.149
    1STR    O0J 6807   3.934  15.354   4.073
    1STR    C0K 6808   3.894  15.480   4.130
    1STR    C0M 6809   3.972  15.507   4.260
    1STR    C0N 6810   3.916  15.598   4.030
    1STR    O0O 6811   3.865  15.720   4.086
    1STR    C0P 6812   3.900  15.842   4.038
    1STR    O0Q 6813   3.969  15.864   3.938
    1STR    N0R 6814   3.851  15.936   4.120
    1STR    C0S 6815   3.862  16.075   4.131
    1STR    C0T 6816   3.837  16.125   4.260
    1STR    C0U 6817   3.838  16.263   4.285
    1STR    C0V 6818   3.862  16.356   4.182
    1STR    C0W 6819   3.848  16.502   4.220
    1STR    C0X 6820   3.890  16.310   4.050
    1STR    N0Y 6821   3.902  16.400   3.941
    1STR   BCK2 6822   3.957  16.522   3.930
    1STR    O10 6823   4.032  16.574   4.013
    1STR    C13 6824   3.890  16.169   4.026
    1STR    C14 6825   3.839  14.205   4.244
    1STR    C15 6826   3.817  14.068   4.267
    1STR    C16 6827   3.904  13.969   4.215
    1STR    C17 6828   3.882  13.826   4.261
    1STR    H1B 6829   4.205  13.950   4.106
    1STR    H1C 6830   4.120  14.178   4.055
    1STR    H1D 6831   4.064  14.410   4.101
    1STR    H1E 6832   3.817  14.739   4.201
    1STR    H1F 6833   4.080  14.770   4.358
    1STR    H1G 6834   3.931  14.860   4.387
    1STR    H1H 6835   3.935  14.687   4.414
    1STR    H1I 6836   3.940  14.839   4.010
    1STR    H1J 6837   4.078  14.871   4.112
    1STR    H1K 6838   4.041  15.107   4.045
    1STR    H1M 6839   3.743  15.082   3.971
    1STR    H1N 6840   3.877  15.010   3.882
    1STR    H1O 6841   3.858  15.184   3.886
    1STR    H1P 6842   3.796  15.235   4.177
    1STR    H1Q 6843   3.958  15.234   4.243
    1STR    H1R 6844   3.787  15.476   4.153
    1STR    H1S 6845   3.950  15.606   4.300
    1STR    H1T 6846   4.080  15.502   4.243
    1STR    H1U 6847   3.947  15.436   4.339
    1STR    H1V 6848   3.865  15.579   3.936
    1STR    H1W 6849   4.022  15.610   4.007
    1STR    H1X 6850   3.800  15.890   4.193
    1STR    H1Y 6851   3.816  16.059   4.342
    1STR    H1Z 6852   3.818  16.298   4.385
    1STR    H20 6853   3.946  16.544   4.242
    1STR    H21 6854   3.801  16.560   4.141
    1STR    H22 6855   3.787  16.515   4.310
    1STR    H23 6856   3.860  16.369   3.855
    1STR    H27 6857   3.910  16.130   3.927
    1STR    H28 6858   3.769  14.273   4.290
    1STR    H29 6859   3.734  14.039   4.329
    1STR    H2A 6860   3.821  13.772   4.189
    1STR    H2B 6861   3.831  13.823   4.357
    1STR    H2C 6862   3.977  13.774   4.275
    1STR   BCK1 6863   4.265  13.825   8.422
    1STR    O03 6864   4.372  13.774   8.391
    1STR    N04 6865   4.252  13.943   8.488
    1STR    C05 6866   4.350  14.029   8.543
    1STR    C06 6867   4.332  14.172   8.538
    1STR    C07 6868   4.425  14.265   8.595
    1STR    N08 6869   4.402  14.406   8.592
    1STR    C09 6870   4.473  14.509   8.646
    1STR    O0A 6871   4.575  14.495   8.711
    1STR    O0B 6872   4.418  14.633   8.620
    1STR    C0C 6873   4.492  14.754   8.649
    1STR    C0D 6874   4.582  14.784   8.528
    1STR    C0E 6875   4.402  14.877   8.683
    1STR    O0F 6876   4.478  15.000   8.699
    1STR    C0G 6877   4.406  15.117   8.742
    1STR    C0H 6878   4.392  15.112   8.895
    1STR    C0I 6879   4.479  15.249   8.698
    1STR    O0J 6880   4.397  15.367   8.713
    1STR    C0K 6881   4.459  15.496   8.689
    1STR    C0M 6882   4.521  15.501   8.548
    1STR    C0N 6883   4.357  15.613   8.705
    1STR    O0O 6884   4.419  15.742   8.689
    1STR    C0P 6885   4.347  15.854   8.658
    1STR    O0Q 6886   4.226  15.857   8.636
    1STR    N0R 6887   4.428  15.961   8.657
    1STR    C0S 6888   4.411  16.098   8.632
    1STR    C0T 6889   4.511  16.181   8.686
    1STR    C0U 6890   4.516  16.318   8.657
    1STR    C0V 6891   4.421  16.377   8.572
    1STR    C0W 6892   4.445  16.522   8.532
    1STR    C0X 6893   4.314  16.300   8.520
    1STR    N0Y 6894   4.224  16.357   8.427
    1STR   BCK2 6895   4.158  16.475   8.432
    1STR    O10 6896   4.144  16.543   8.533
    1STR    C13 6897   4.311  16.159   8.550
    1STR    C14 6898   4.541  14.210   8.655
    1STR    C15 6899   4.559  14.071   8.665
    1STR    C16 6900   4.464  13.981   8.614
    1STR    C17 6901   4.488  13.834   8.645
    1STR    H1B 6902   4.156  13.973   8.492
    1STR    H1C 6903   4.245  14.210   8.488
    1STR    H1D 6904   4.322  14.438   8.542
    1STR    H1E 6905   4.556  14.737   8.736
    1STR    H1F 6906   4.524  14.802   8.438
    1STR    H1G 6907   4.645  14.872   8.546
    1STR    H1H 6908   4.650  14.700   8.508
    1STR    H1I 6909   4.346  14.856   8.774
    1STR    H1J 6910   4.329  14.892   8.603
    1STR    H1K 6911   4.307  15.118   8.695
    1STR    H1M 6912   4.490  15.106   8.942
    1STR    H1N 6913   4.334  15.027   8.928
    1STR    H1O 6914   4.344  15.202   8.932
    1STR    H1P 6915   4.573  15.259   8.753
    1STR    H1Q 6916   4.506  15.237   8.593
    1STR    H1R 6917   4.539  15.510   8.763
    1STR    H1S 6918   4.560  15.601   8.526
    1STR    H1T 6919   4.447  15.478   8.472
    1STR    H1U 6920   4.605  15.433   8.537
    1STR    H1V 6921   4.312  15.610   8.804
    1STR    H1W 6922   4.276  15.602   8.633
    1STR    H1X 6923   4.521  15.932   8.682
    1STR    H1Y 6924   4.589  16.140   8.750
    1STR    H1Z 6925   4.597  16.378   8.698
    1STR    H20 6926   4.421  16.539   8.427
    1STR    H21 6927   4.385  16.589   8.593
    1STR    H22 6928   4.550  16.550   8.545
    1STR    H23 6929   4.214  16.307   8.340
    1STR    H27 6930   4.234  16.097   8.507
    1STR    H28 6931   4.619  14.271   8.696
    1STR    H29 6932   4.648  14.034   8.714
    1STR    H2A 6933   4.394  13.779   8.656
    1STR    H2B 6934   4.542  13.822   8.739
    1STR    H2C 6935   4.547  13.788   8.567
    1STR   BCK1 6936   4.101  13.800  12.717
    1STR    O03 6937   3.981  13.814  12.739
    1STR    N04 6938   4.182  13.902  12.683
    1STR    C05 6939   4.141  14.017  12.613
    1STR    C06 6940   4.168  14.151  12.657
    1STR    C07 6941   4.132  14.266  12.579
    1STR    N08 6942   4.162  14.399  12.621
    1STR    C09 6943   4.132  14.518  12.562
    1STR    O0A 6944   4.067  14.529  12.459
    1STR    O0B 6945   4.182  14.628  12.628
    1STR    C0C 6946   4.145  14.761  12.581
    1STR    C0D 6947   4.005  14.796  12.636
    1STR    C0E 6948   4.247  14.874  12.616
    1STR    O0F 6949   4.203  14.999  12.560
    1STR    C0G 6950   4.287  15.115  12.578
    1STR    C0H 6951   4.405  15.107  12.481
    1STR    C0I 6952   4.202  15.244  12.552
    1STR    O0J 6953   4.271  15.367  12.585
    1STR    C0K 6954   4.201  15.489  12.550
    1STR    C0M 6955   4.070  15.501  12.628
    1STR    C0N 6956   4.287  15.617  12.575
    1STR    O0O 6957   4.232  15.727  12.501
    1STR    C0P 6958   4.236  15.856  12.546
    1STR    O0Q 6959   4.278  15.894  12.654
    1STR    N0R 6960   4.188  15.934  12.449
    1STR    C0S 6961   4.159  16.071  12.433
    1STR    C0T 6962   4.143  16.112  12.299
    1STR    C0U 6963   4.091  16.238  12.268
    1STR    C0V 6964   4.054  16.328  12.370
    1STR    C0W 6965   3.970  16.446  12.325
    1STR    C0X 6966   4.082  16.298  12.506
    1STR    N0Y 6967   4.045  16.381  12.614
    1STR   BCK2 6968   4.032  16.513  12.640
    1STR    O10 6969   3.980  16.547  12.745
    1STR    C13 6970   4.133  16.167  12.535
    1STR    C14 6971   4.068  14.240  12.455
    1STR    C15 6972   4.043  14.110  12.409
    1STR    C16 6973   4.081  13.999  12.486
    1STR    C17 6974   4.060  13.861  12.425
    1STR    H1B 6975   4.280  13.880  12.682
    1STR    H1C 6976   4.216  14.164  12.753
    1STR    H1D 6977   4.212  14.410  12.707
    1STR    H1E 6978   4.139  14.759  12.472
    1STR    H1F 6979   4.004  14.801  12.745
    1STR    H1G 6980   3.971  14.892  12.597
    1STR    H1H 6981   3.931  14.721  12.605
    1STR    H1I 6982   4.344  14.846  12.575
    1STR    H1J 6983   4.258  14.883  12.724
    1STR    H1K 6984   4.322  15.118  12.681
    1STR    H1M 6985   4.370  15.097  12.378
    1STR    H1N 6986   4.470  15.023  12.502
    1STR    H1O 6987   4.466  15.198  12.486
    1STR    H1P 6988   4.170  15.245  12.448
    1STR    H1Q 6989   4.112  15.236  12.613
    1STR    H1R 6990   4.179  15.485  12.443
    1STR    H1S 6991   4.023  15.599  12.611
    1STR    H1T 6992   4.086  15.492  12.735
    1STR    H1U 6993   3.996  15.427  12.598
    1STR    H1V 6994   4.389  15.602  12.540
    1STR    H1W 6995   4.294  15.640  12.681
    1STR    H1X 6996   4.165  15.877  12.370
    1STR    H1Y 6997   4.165  16.045  12.218
    1STR    H1Z 6998   4.073  16.264  12.165
    1STR    H20 6999   3.901  16.478  12.403
    1STR    H21 7000   4.034  16.529  12.294
    1STR    H22 7001   3.909  16.420  12.239
    1STR    H23 7002   4.018  16.331  12.697
    1STR    H27 7003   4.148  16.136  12.638
    1STR    H28 7004   4.036  14.318  12.388
    1STR    H29 7005   3.996  14.097  12.314
    1STR    H2A 7006   4.148  13.798  12.439
    1STR    H2B 7007   4.042  13.866  12.318
    1STR    H2C 7008   3.974  13.812  12.471
    1STR   BCK1 7009   8.466   0.734  17.211
    1STR    O03 7010   8.564   0.684  17.263
    1STR    N04 7011   8.416   0.856  17.241
    1STR    C05 7012   8.450   0.946  17.345
    1STR    C06 7013   8.454   1.087  17.319
    1STR    C07 7014   8.476   1.184  17.422
    1STR    N08 7015   8.476   1.323  17.395
    1STR    C09 7016   8.453   1.426   0.039
    1STR    O0A 7017   8.421   1.413   0.157
    1STR    O0B 7018   8.468   1.549  17.419
    1STR    C0C 7019   8.461   1.670   0.058
    1STR    C0D 7020   8.597   1.694   0.126
    1STR    C0E 7021   8.419   1.794  17.412
    1STR    O0F 7022   8.413   1.915   0.050
    1STR    C0G 7023   8.361   2.032  17.423
    1STR    C0H 7024   8.208   2.023  17.420
    1STR    C0I 7025   8.405   2.164   0.053
    1STR    O0J 7026   8.370   2.280  17.415
    1STR    C0K 7027   8.389   2.410   0.036
    1STR    C0M 7028   8.538   2.433   0.067
    1STR    C0N 7029   8.337   2.522  17.381
    1STR    O0O 7030   8.348   2.652   0.001
    1STR    C0P 7031   8.343   2.765  17.367
    1STR    O0Q 7032   8.330   2.769  17.245
    1STR    N0R 7033   8.355   2.872   0.007
    1STR    C0S 7034   8.364   3.011  17.426
    1STR    C0T 7035   8.384   3.087   0.103
    1STR    C0U 7036   8.403   3.226   0.096
    1STR    C0V 7037   8.401   3.293  17.413
    1STR    C0W 7038   8.436   3.441  17.412
    1STR    C0X 7039   8.373   3.221  17.293
    1STR    N0Y 7040   8.374   3.289  17.170
    1STR   BCK2 7041   8.305   3.400  17.136
    1STR    O10 7042   8.212   3.446  17.201
    1STR    C13 7043   8.358   3.079  17.301
    1STR    C14 7044   8.501   1.135   0.112
    1STR    C15 7045   8.496   0.997   0.140
    1STR    C16 7046   8.468   0.903   0.039
    1STR    C17 7047   8.451   0.759   0.084
    1STR    H1B 7048   8.343   0.885  17.179
    1STR    H1C 7049   8.437   1.121  17.218
    1STR    H1D 7050   8.495   1.353  17.301
    1STR    H1E 7051   8.386   1.658   0.136
    1STR    H1F 7052   8.677   1.707   0.053
    1STR    H1G 7053   8.594   1.783   0.189
    1STR    H1H 7054   8.624   1.610   0.191
    1STR    H1I 7055   8.322   1.772  17.368
    1STR    H1J 7056   8.490   1.807  17.330
    1STR    H1K 7057   8.400   2.035  17.321
    1STR    H1M 7058   8.168   2.012   0.081
    1STR    H1N 7059   8.172   1.938  17.361
    1STR    H1O 7060   8.164   2.113  17.377
    1STR    H1P 7061   8.360   2.169   0.153
    1STR    H1Q 7062   8.513   2.160   0.068
    1STR    H1R 7063   8.331   2.414   0.128
    1STR    H1S 7064   8.554   2.534   0.105
    1STR    H1T 7065   8.600   2.421  17.418
    1STR    H1U 7066   8.575   2.365   0.144
    1STR    H1V 7067   8.232   2.505  17.356
    1STR    H1W 7068   8.391   2.521  17.287
    1STR    H1X 7069   8.363   2.840   0.102
    1STR    H1Y 7070   8.389   3.040   0.200
    1STR    H1Z 7071   8.422   3.281   0.187
    1STR    H20 7072   8.502   3.465  17.328
    1STR    H21 7073   8.347   3.502  17.404
    1STR    H22 7074   8.488   3.471   0.063
    1STR    H23 7075   8.436   3.255  17.099
    1STR    H27 7076   8.341   3.022  17.211
    1STR    H28 7077   8.523   1.202   0.194
    1STR    H29 7078   8.512   0.965   0.242
    1STR    H2A 7079   8.376   0.707   0.024
    1STR    H2B 7080   8.419   0.753   0.188
    1STR    H2C 7081   8.546   0.705   0.076
    1STR   BCK1 7082   8.582   0.739   3.988
    1STR    O03 7083   8.558   0.756   3.869
    1STR    N04 7084   8.646   0.830   4.066
    1STR    C05 7085   8.732   0.935   4.025
    1STR    C06 7086   8.710   1.074   4.053
    1STR    C07 7087   8.806   1.176   4.022
    1STR    N08 7088   8.785   1.314   4.051
    1STR    C09 7089   8.860   1.424   4.021
    1STR    O0A 7090   8.964   1.420   3.956
    1STR    O0B 7091   8.809   1.544   4.067
    1STR    C0C 7092   8.870   1.671   4.027
    1STR    C0D 7093   8.820   1.704   3.885
    1STR    C0E 7094   8.845   1.792   4.122
    1STR    O0F 7095   8.903   1.915   4.070
    1STR    C0G 7096   8.891   2.036   4.149
    1STR    C0H 7097   8.998   2.034   4.259
    1STR    C0I 7098   8.906   2.163   4.059
    1STR    O0J 7099   8.872   2.288   4.124
    1STR    C0K 7100   8.890   2.410   4.048
    1STR    C0M 7101   8.802   2.407   3.921
    1STR    C0N 7102   8.855   2.540   4.129
    1STR    O0O 7103   8.886   2.659   4.053
    1STR    C0P 7104   8.819   2.777   4.073
    1STR    O0Q 7105   8.724   2.793   4.148
    1STR    N0R 7106   8.875   2.875   4.000
    1STR    C0S 7107   8.849   3.013   3.986
    1STR    C0T 7108   8.960   3.094   3.955
    1STR    C0U 7109   8.947   3.233   3.941
    1STR    C0V 7110   8.822   3.296   3.955
    1STR    C0W 7111   8.822   3.448   3.952
    1STR    C0X 7112   8.705   3.219   3.979
    1STR    N0Y 7113   8.577   3.274   4.002
    1STR   BCK2 7114   8.500   3.378   3.963
    1STR    O10 7115   8.394   3.396   4.022
    1STR    C13 7116   8.722   3.077   3.998
    1STR    C14 7117   8.927   1.131   3.962
    1STR    C15 7118   8.951   0.995   3.936
    1STR    C16 7119   8.856   0.897   3.967
    1STR    C17 7120   8.892   0.751   3.944
    1STR    H1B 7121   8.645   0.808   4.164
    1STR    H1C 7122   8.616   1.102   4.099
    1STR    H1D 7123   8.701   1.339   4.099
    1STR    H1E 7124   8.978   1.657   4.023
    1STR    H1F 7125   8.713   1.721   3.883
    1STR    H1G 7126   8.868   1.795   3.847
    1STR    H1H 7127   8.843   1.624   3.815
    1STR    H1I 7128   8.887   1.770   4.220
    1STR    H1J 7129   8.738   1.807   4.137
    1STR    H1K 7130   8.791   2.039   4.195
    1STR    H1M 7131   9.098   2.025   4.216
    1STR    H1N 7132   8.985   1.951   4.328
    1STR    H1O 7133   8.996   2.126   4.317
    1STR    H1P 7134   9.007   2.168   4.019
    1STR    H1Q 7135   8.840   2.149   3.974
    1STR    H1R 7136   8.995   2.417   4.018
    1STR    H1S 7137   8.805   2.503   3.869
    1STR    H1T 7138   8.697   2.389   3.947
    1STR    H1U 7139   8.834   2.332   3.850
    1STR    H1V 7140   8.913   2.543   4.221
    1STR    H1W 7141   8.750   2.540   4.158
    1STR    H1X 7142   8.955   2.839   3.951
    1STR    H1Y 7143   9.059   3.051   3.946
    1STR    H1Z 7144   9.035   3.292   3.921
    1STR    H20 7145   8.805   3.484   3.851
    1STR    H21 7146   8.746   3.489   4.019
    1STR    H22 7147   8.918   3.488   3.986
    1STR    H23 7148   8.523   3.221   4.069
    1STR    H27 7149   8.637   3.015   4.022
    1STR    H28 7150   9.007   1.198   3.936
    1STR    H29 7151   9.046   0.967   3.892
    1STR    H2A 7152   8.875   0.692   4.033
    1STR    H2B 7153   8.997   0.740   3.916
    1STR    H2C 7154   8.831   0.711   3.863
    1STR   BCK1 7155   8.485   0.706   8.387
    1STR    O03 7156   8.581   0.651   8.441
    1STR    N04 7157   8.464   0.835   8.418
    1STR    C05 7158   8.366   0.934   8.398
    1STR    C06 7159   8.407   1.071   8.386
    1STR    C07 7160   8.314   1.179   8.379
    1STR    N08 7161   8.358   1.315   8.373
    1STR    C09 7162   8.289   1.430   8.387
    1STR    O0A 7163   8.168   1.435   8.409
    1STR    O0B 7164   8.366   1.544   8.376
    1STR    C0C 7165   8.305   1.674   8.390
    1STR    C0D 7166   8.274   1.703   8.539
    1STR    C0E 7167   8.390   1.790   8.329
    1STR    O0F 7168   8.323   1.917   8.340
    1STR    C0G 7169   8.386   2.033   8.280
    1STR    C0H 7170   8.383   2.021   8.127
    1STR    C0I 7171   8.312   2.163   8.325
    1STR    O0J 7172   8.380   2.284   8.284
    1STR    C0K 7173   8.310   2.408   8.306
    1STR    C0M 7174   8.304   2.438   8.457
    1STR    C0N 7175   8.376   2.528   8.231
    1STR    O0O 7176   8.291   2.644   8.236
    1STR    C0P 7177   8.340   2.770   8.246
    1STR    O0Q 7178   8.459   2.800   8.255
    1STR    N0R 7179   8.239   2.857   8.253
    1STR    C0S 7180   8.230   2.994   8.284
    1STR    C0T 7181   8.116   3.032   8.357
    1STR    C0U 7182   8.101   3.164   8.402
    1STR    C0V 7183   8.196   3.263   8.372
    1STR    C0W 7184   8.182   3.396   8.443
    1STR    C0X 7185   8.306   3.232   8.287
    1STR    N0Y 7186   8.403   3.328   8.255
    1STR   BCK2 7187   8.399   3.456   8.214
    1STR    O10 7188   8.503   3.522   8.216
    1STR    C13 7189   8.324   3.095   8.248
    1STR    C14 7190   8.177   1.145   8.379
    1STR    C15 7191   8.135   1.012   8.394
    1STR    C16 7192   8.227   0.907   8.408
    1STR    C17 7193   8.171   0.771   8.444
    1STR    H1B 7194   8.542   0.865   8.474
    1STR    H1C 7195   8.512   1.093   8.384
    1STR    H1D 7196   8.456   1.330   8.358
    1STR    H1E 7197   8.210   1.672   8.336
    1STR    H1F 7198   8.365   1.705   8.599
    1STR    H1G 7199   8.224   1.799   8.550
    1STR    H1H 7200   8.207   1.628   8.581
    1STR    H1I 7201   8.408   1.765   8.224
    1STR    H1J 7202   8.487   1.794   8.377
    1STR    H1K 7203   8.489   2.038   8.315
    1STR    H1M 7204   8.281   2.004   8.092
    1STR    H1N 7205   8.444   1.939   8.090
    1STR    H1O 7206   8.419   2.112   8.080
    1STR    H1P 7207   8.211   2.161   8.286
    1STR    H1Q 7208   8.303   2.161   8.434
    1STR    H1R 7209   8.208   2.398   8.267
    1STR    H1S 7210   8.258   2.536   8.475
    1STR    H1T 7211   8.404   2.440   8.500
    1STR    H1U 7212   8.244   2.365   8.511
    1STR    H1V 7213   8.391   2.503   8.126
    1STR    H1W 7214   8.474   2.550   8.272
    1STR    H1X 7215   8.151   2.809   8.242
    1STR    H1Y 7216   8.041   2.960   8.384
    1STR    H1Z 7217   8.015   3.189   8.463
    1STR    H20 7218   8.279   3.445   8.457
    1STR    H21 7219   8.116   3.463   8.388
    1STR    H22 7220   8.140   3.383   8.542
    1STR    H23 7221   8.499   3.298   8.266
    1STR    H27 7222   8.411   3.067   8.190
    1STR    H28 7223   8.099   1.219   8.370
    1STR    H29 7224   8.029   0.992   8.398
    1STR    H2A 7225   8.148   0.714   8.353
    1STR    H2B 7226   8.079   0.780   8.501
    1STR    H2C 7227   8.240   0.714   8.505
    1STR   BCK1 7228   8.580   0.737  12.840
    1STR    O03 7229   8.690   0.683  12.843
    1STR    N04 7230   8.552   0.858  12.895
    1STR    C05 7231   8.630   0.944  12.977
    1STR    C06 7232   8.618   1.087  12.963
    1STR    C07 7233   8.687   1.180  13.047
    1STR    N08 7234   8.669   1.321  13.034
    1STR    C09 7235   8.719   1.425  13.106
    1STR    O0A 7236   8.797   1.412  13.200
    1STR    O0B 7237   8.676   1.549  13.064
    1STR    C0C 7238   8.729   1.670  13.125
    1STR    C0D 7239   8.868   1.699  13.066
    1STR    C0E 7240   8.634   1.794  13.109
    1STR    O0F 7241   8.692   1.917  13.158
    1STR    C0G 7242   8.607   2.034  13.160
    1STR    C0H 7243   8.517   2.026  13.284
    1STR    C0I 7244   8.690   2.167  13.162
    1STR    O0J 7245   8.608   2.283  13.134
    1STR    C0K 7246   8.668   2.414  13.151
    1STR    C0M 7247   8.794   2.428  13.064
    1STR    C0N 7248   8.566   2.527  13.116
    1STR    O0O 7249   8.621   2.659  13.136
    1STR    C0P 7250   8.567   2.769  13.077
    1STR    O0Q 7251   8.473   2.770  12.998
    1STR    N0R 7252   8.634   2.878  13.117
    1STR    C0S 7253   8.629   3.016  13.088
    1STR    C0T 7254   8.709   3.097  13.170
    1STR    C0U 7255   8.723   3.235  13.145
    1STR    C0V 7256   8.657   3.296  13.036
    1STR    C0W 7257   8.692   3.441  13.007
    1STR    C0X 7258   8.569   3.219  12.955
    1STR    N0Y 7259   8.509   3.279  12.842
    1STR   BCK2 7260   8.441   3.395  12.833
    1STR    O10 7261   8.399   3.459  12.929
    1STR    C13 7262   8.558   3.079  12.980
    1STR    C14 7263   8.774   1.125  13.144
    1STR    C15 7264   8.785   0.987  13.162
    1STR    C16 7265   8.712   0.896  13.083
    1STR    C17 7266   8.722   0.750  13.122
    1STR    H1B 7267   8.461   0.890  12.871
    1STR    H1C 7268   8.553   1.125  12.886
    1STR    H1D 7269   8.609   1.353  12.960
    1STR    H1E 7270   8.740   1.652  13.232
    1STR    H1F 7271   8.863   1.717  12.958
    1STR    H1G 7272   8.912   1.787  13.113
    1STR    H1H 7273   8.936   1.616  13.083
    1STR    H1I 7274   8.541   1.772  13.161
    1STR    H1J 7275   8.609   1.806  13.003
    1STR    H1K 7276   8.546   2.035  13.070
    1STR    H1M 7277   8.576   2.017  13.375
    1STR    H1N 7278   8.449   1.941  13.281
    1STR    H1O 7279   8.456   2.116  13.294
    1STR    H1P 7280   8.739   2.177  13.259
    1STR    H1Q 7281   8.769   2.158  13.088
    1STR    H1R 7282   8.696   2.425  13.256
    1STR    H1S 7283   8.835   2.529  13.071
    1STR    H1T 7284   8.773   2.409  12.960
    1STR    H1U 7285   8.874   2.361  13.096
    1STR    H1V 7286   8.477   2.518  13.178
    1STR    H1W 7287   8.533   2.517  13.013
    1STR    H1X 7288   8.703   2.850  13.184
    1STR    H1Y 7289   8.764   3.056  13.253
    1STR    H1Z 7290   8.789   3.293  13.208
    1STR    H20 7291   8.697   3.459  12.899
    1STR    H21 7292   8.618   3.507  13.050
    1STR    H22 7293   8.789   3.468  13.048
    1STR    H23 7294   8.525   3.232  12.755
    1STR    H27 7295   8.496   3.017  12.917
    1STR    H28 7296   8.833   1.186  13.211
    1STR    H29 7297   8.850   0.950  13.240
    1STR    H2A 7298   8.628   0.697  13.104
    1STR    H2B 7299   8.744   0.739  13.229
    1STR    H2C 7300   8.802   0.701  13.067
    1STR   BCK1 7301   8.490   5.088  17.035
    1STR    O03 7302   8.398   5.100  16.955
    1STR    N04 7303   8.579   5.186  17.061
    1STR    C05 7304   8.609   5.297  16.980
    1STR    C06 7305   8.608   5.432  17.027
    1STR    C07 7306   8.648   5.543  16.944
    1STR    N08 7307   8.651   5.677  16.991
    1STR    C09 7308   8.652   5.792  16.919
    1STR    O0A 7309   8.638   5.796  16.797
    1STR    O0B 7310   8.670   5.907  16.994
    1STR    C0C 7311   8.668   6.037  16.929
    1STR    C0D 7312   8.522   6.075  16.899
    1STR    C0E 7313   8.739   6.152  17.007
    1STR    O0F 7314   8.731   6.276  16.933
    1STR    C0G 7315   8.787   6.395  16.992
    1STR    C0H 7316   8.940   6.391  16.979
    1STR    C0I 7317   8.729   6.521  16.919
    1STR    O0J 7318   8.761   6.648  16.981
    1STR    C0K 7319   8.707   6.766  16.915
    1STR    C0M 7320   8.554   6.767  16.927
    1STR    C0N 7321   8.763   6.900  16.973
    1STR    O0O 7322   8.721   7.011  16.890
    1STR    C0P 7323   8.711   7.138  16.939
    1STR    O0Q 7324   8.724   7.169  17.056
    1STR    N0R 7325   8.690   7.224  16.839
    1STR    C0S 7326   8.687   7.365  16.838
    1STR    C0T 7327   8.777   7.430  16.752
    1STR    C0U 7328   8.779   7.571  16.743
    1STR    C0V 7329   8.690   7.650  16.818
    1STR    C0W 7330   8.712   7.800  16.814
    1STR    C0X 7331   8.591   7.588  16.899
    1STR    N0Y 7332   8.500   7.660  16.980
    1STR   BCK2 7333   8.425   7.772  16.973
    1STR    O10 7334   8.365   7.806  17.074
    1STR    C13 7335   8.594   7.445  16.911
    1STR    C14 7336   8.692   5.511  16.813
    1STR    C15 7337   8.695   5.379  16.766
    1STR    C16 7338   8.656   5.272  16.848
    1STR    C17 7339   8.673   5.131  16.794
    1STR    H1B 7340   8.639   5.169  17.140
    1STR    H1C 7341   8.576   5.451  17.128
    1STR    H1D 7342   8.652   5.693  17.090
    1STR    H1E 7343   8.721   6.027  16.834
    1STR    H1F 7344   8.464   6.086  16.990
    1STR    H1G 7345   8.517   6.170  16.844
    1STR    H1H 7346   8.473   6.000  16.837
    1STR    H1I 7347   8.843   6.125  17.025
    1STR    H1J 7348   8.692   6.164  17.105
    1STR    H1K 7349   8.759   6.401  17.097
    1STR    H1M 7350   8.971   6.379  16.875
    1STR    H1N 7351   8.984   6.309  17.037
    1STR    H1O 7352   8.985   6.483  17.016
    1STR    H1P 7353   8.762   6.521  16.815
    1STR    H1Q 7354   8.621   6.508  16.918
    1STR    H1R 7355   8.736   6.762  16.810
    1STR    H1S 7356   8.513   6.861  16.890
    1STR    H1T 7357   8.523   6.757  17.032
    1STR    H1U 7358   8.506   6.688  16.870
    1STR    H1V 7359   8.872   6.899  16.976
    1STR    H1W 7360   8.729   6.915  17.076
    1STR    H1X 7361   8.689   7.179  16.749
    1STR    H1Y 7362   8.848   7.374  16.694
    1STR    H1Z 7363   8.853   7.618  16.680
    1STR    H20 7364   8.658   7.844  16.730
    1STR    H21 7365   8.680   7.848  16.907
    1STR    H22 7366   8.818   7.824  16.802
    1STR    H23 7367   8.483   7.617  17.070
    1STR    H27 7368   8.524   7.395  16.976
    1STR    H28 7369   8.726   5.588  16.746
    1STR    H29 7370   8.730   5.361  16.666
    1STR    H2A 7371   8.719   5.066  16.868
    1STR    H2B 7372   8.736   5.129  16.705
    1STR    H2C 7373   8.576   5.089  16.767
    1STR   BCK1 7374   8.418   5.078   4.082
    1STR    O03 7375   8.492   5.032   4.168
    1STR    N04 7376   8.367   5.203   4.085
    1STR    C05 7377   8.364   5.299   4.189
    1STR    C06 7378   8.383   5.439   4.160
    1STR    C07 7379   8.368   5.541   4.259
    1STR    N08 7380   8.383   5.679   4.229
    1STR    C09 7381   8.331   5.786   4.293
    1STR    O0A 7382   8.254   5.778   4.388
    1STR    O0B 7383   8.372   5.907   4.241
    1STR    C0C 7384   8.332   6.031   4.304
    1STR    C0D 7385   8.418   6.055   4.429
    1STR    C0E 7386   8.341   6.153   4.207
    1STR    O0F 7387   8.297   6.276   4.269
    1STR    C0G 7388   8.289   6.393   4.185
    1STR    C0H 7389   8.164   6.383   4.097
    1STR    C0I 7390   8.284   6.525   4.269
    1STR    O0J 7391   8.290   6.643   4.187
    1STR    C0K 7392   8.271   6.771   4.252
    1STR    C0M 7393   8.387   6.797   4.351
    1STR    C0N 7394   8.262   6.887   4.149
    1STR    O0O 7395   8.232   7.013   4.212
    1STR    C0P 7396   8.258   7.131   4.150
    1STR    O0Q 7397   8.310   7.143   4.039
    1STR    N0R 7398   8.223   7.234   4.229
    1STR    C0S 7399   8.240   7.373   4.221
    1STR    C0T 7400   8.224   7.444   4.341
    1STR    C0U 7401   8.249   7.582   4.347
    1STR    C0V 7402   8.290   7.654   4.233
    1STR    C0W 7403   8.336   7.797   4.255
    1STR    C0X 7404   8.295   7.589   4.107
    1STR    N0Y 7405   8.335   7.654   3.989
    1STR   BCK2 7406   8.309   7.772   3.927
    1STR    O10 7407   8.365   7.795   3.821
    1STR    C13 7408   8.274   7.448   4.104
    1STR    C14 7409   8.339   5.499   4.391
    1STR    C15 7410   8.318   5.363   4.421
    1STR    C16 7411   8.327   5.264   4.321
    1STR    C17 7412   8.288   5.123   4.362
    1STR    H1B 7413   8.322   5.229   3.999
    1STR    H1C 7414   8.408   5.467   4.059
    1STR    H1D 7415   8.438   5.704   4.149
    1STR    H1E 7416   8.228   6.022   4.334
    1STR    H1F 7417   8.524   6.065   4.405
    1STR    H1G 7418   8.387   6.147   4.480
    1STR    H1H 7419   8.407   5.974   4.501
    1STR    H1I 7420   8.279   6.131   4.120
    1STR    H1J 7421   8.443   6.165   4.171
    1STR    H1K 7422   8.378   6.398   4.122
    1STR    H1M 7423   8.074   6.370   4.158
    1STR    H1N 7424   8.169   6.300   4.026
    1STR    H1O 7425   8.150   6.474   4.038
    1STR    H1P 7426   8.193   6.525   4.330
    1STR    H1Q 7427   8.368   6.524   4.339
    1STR    H1R 7428   8.177   6.769   4.307
    1STR    H1S 7429   8.379   6.897   4.394
    1STR    H1T 7430   8.483   6.791   4.300
    1STR    H1U 7431   8.387   6.728   4.434
    1STR    H1V 7432   8.185   6.867   4.074
    1STR    H1W 7433   8.356   6.896   4.093
    1STR    H1X 7434   8.182   7.199   4.313
    1STR    H1Y 7435   8.196   7.394   4.432
    1STR    H1Z 7436   8.242   7.633   4.443
    1STR    H20 7437   8.407   7.828   4.179
    1STR    H21 7438   8.251   7.866   4.255
    1STR    H22 7439   8.387   7.807   4.351
    1STR    H23 7440   8.394   7.599   3.929
    1STR    H27 7441   8.284   7.395   4.010
    1STR    H28 7442   8.330   5.569   4.472
    1STR    H29 7443   8.292   5.336   4.522
    1STR    H2A 7444   8.238   5.070   4.280
    1STR    H2B 7445   8.219   5.124   4.446
    1STR    H2C 7446   8.376   5.066   4.392
    1STR   BCK1 7447   8.626   5.106   8.375
    1STR    O03 7448   8.723   5.060   8.317
    1STR    N04 7449   8.626   5.222   8.445
    1STR    C05 7450   8.733   5.310   8.478
    1STR    C06 7451   8.712   5.452   8.479
    1STR    C07 7452   8.814   5.546   8.515
    1STR    N08 7453   8.789   5.686   8.521
    1STR    C09 7454   8.874   5.790   8.541
    1STR    O0A 7455   8.996   5.779   8.553
    1STR    O0B 7456   8.811   5.913   8.546
    1STR    C0C 7457   8.890   6.036   8.548
    1STR    C0D 7458   8.932   6.069   8.404
    1STR    C0E 7459   8.817   6.157   8.614
    1STR    O0F 7460   8.893   6.280   8.603
    1STR    C0G 7461   8.839   6.398   8.666
    1STR    C0H 7462   8.876   6.394   8.816
    1STR    C0I 7463   8.895   6.528   8.600
    1STR    O0J 7464   8.823   6.648   8.637
    1STR    C0K 7465   8.875   6.775   8.590
    1STR    C0M 7466   8.884   6.777   8.437
    1STR    C0N 7467   8.788   6.895   8.638
    1STR    O0O 7468   8.845   7.022   8.601
    1STR    C0P 7469   8.768   7.134   8.581
    1STR    O0Q 7470   8.645   7.137   8.581
    1STR    N0R 7471   8.847   7.240   8.564
    1STR    C0S 7472   8.827   7.378   8.542
    1STR    C0T 7473   8.933   7.461   8.582
    1STR    C0U 7474   8.933   7.598   8.553
    1STR    C0V 7475   8.827   7.657   8.483
    1STR    C0W 7476   8.844   7.803   8.441
    1STR    C0X 7477   8.713   7.580   8.447
    1STR    N0Y 7478   8.610   7.637   8.369
    1STR   BCK2 7479   8.546   7.755   8.384
    1STR    O10 7480   8.547   7.822   8.487
    1STR    C13 7481   8.715   7.439   8.476
    1STR    C14 7482   8.940   5.492   8.549
    1STR    C15 7483   8.962   5.353   8.552
    1STR    C16 7484   8.860   5.262   8.521
    1STR    C17 7485   8.892   5.115   8.543
    1STR    H1B 7486   8.534   5.249   8.476
    1STR    H1C 7487   8.615   5.490   8.450
    1STR    H1D 7488   8.695   5.717   8.507
    1STR    H1E 7489   8.980   6.018   8.607
    1STR    H1F 7490   8.845   6.088   8.341
    1STR    H1G 7491   8.996   6.157   8.401
    1STR    H1H 7492   8.988   5.987   8.360
    1STR    H1I 7493   8.798   6.134   8.719
    1STR    H1J 7494   8.719   6.171   8.567
    1STR    H1K 7495   8.731   6.399   8.654
    1STR    H1M 7496   8.984   6.387   8.829
    1STR    H1N 7497   8.830   6.310   8.867
    1STR    H1O 7498   8.842   6.485   8.866
    1STR    H1P 7499   9.001   6.539   8.622
    1STR    H1Q 7500   8.888   6.515   8.492
    1STR    H1R 7501   8.976   6.788   8.632
    1STR    H1S 7502   8.914   6.875   8.401
    1STR    H1T 7503   8.788   6.754   8.392
    1STR    H1U 7504   8.958   6.707   8.398
    1STR    H1V 7505   8.778   6.894   8.747
    1STR    H1W 7506   8.686   6.886   8.599
    1STR    H1X 7507   8.943   7.212   8.573
    1STR    H1Y 7508   9.019   7.420   8.633
    1STR    H1Z 7509   9.018   7.658   8.583
    1STR    H20 7510   8.804   7.820   8.342
    1STR    H21 7511   8.794   7.869   8.512
    1STR    H22 7512   8.949   7.831   8.438
    1STR    H23 7513   8.586   7.588   8.285
    1STR    H27 7514   8.633   7.376   8.446
    1STR    H28 7515   9.024   5.553   8.577
    1STR    H29 7516   9.060   5.317   8.581
    1STR    H2A 7517   8.803   5.059   8.574
    1STR    H2B 7518   8.966   5.103   8.621
    1STR    H2C 7519   8.932   5.071   8.452
    1STR   BCK1 7520   8.461   5.073  12.715
    1STR    O03 7521   8.364   5.064  12.789
    1STR    N04 7522   8.505   5.189  12.662
    1STR    C05 7523   8.429   5.305  12.639
    1STR    C06 7524   8.476   5.437  12.670
    1STR    C07 7525   8.401   5.554  12.636
    1STR    N08 7526   8.449   5.685  12.661
    1STR    C09 7527   8.412   5.801  12.600
    1STR    O0A 7528   8.335   5.806  12.505
    1STR    O0B 7529   8.467   5.914  12.656
    1STR    C0C 7530   8.414   6.045  12.622
    1STR    C0D 7531   8.297   6.075  12.717
    1STR    C0E 7532   8.519   6.160  12.624
    1STR    O0F 7533   8.457   6.284  12.582
    1STR    C0G 7534   8.542   6.400  12.568
    1STR    C0H 7535   8.622   6.387  12.437
    1STR    C0I 7536   8.456   6.530  12.566
    1STR    O0J 7537   8.536   6.651  12.561
    1STR    C0K 7538   8.466   6.776  12.544
    1STR    C0M 7539   8.378   6.805  12.667
    1STR    C0N 7540   8.565   6.894  12.521
    1STR    O0O 7541   8.501   7.009  12.463
    1STR    C0P 7542   8.491   7.128  12.529
    1STR    O0Q 7543   8.530   7.149  12.644
    1STR    N0R 7544   8.428   7.218  12.454
    1STR    C0S 7545   8.373   7.342  12.490
    1STR    C0T 7546   8.233   7.353  12.480
    1STR    C0U 7547   8.168   7.472  12.517
    1STR    C0V 7548   8.240   7.584  12.561
    1STR    C0W 7549   8.161   7.701  12.617
    1STR    C0X 7550   8.383   7.581  12.561
    1STR    N0Y 7551   8.459   7.690  12.606
    1STR   BCK2 7552   8.458   7.823  12.587
    1STR    O10 7553   8.530   7.893  12.658
    1STR    C13 7554   8.447   7.457  12.529
    1STR    C14 7555   8.274   5.534  12.577
    1STR    C15 7556   8.229   5.406  12.542
    1STR    C16 7557   8.306   5.292  12.568
    1STR    C17 7558   8.257   5.160  12.512
    1STR    H1B 7559   8.599   5.187  12.624
    1STR    H1C 7560   8.572   5.447  12.719
    1STR    H1D 7561   8.519   5.699  12.731
    1STR    H1E 7562   8.375   6.042  12.520
    1STR    H1F 7563   8.331   6.081  12.820
    1STR    H1G 7564   8.251   6.171  12.692
    1STR    H1H 7565   8.220   5.999  12.710
    1STR    H1I 7566   8.601   6.134  12.557
    1STR    H1J 7567   8.561   6.172  12.723
    1STR    H1K 7568   8.610   6.406  12.652
    1STR    H1M 7569   8.555   6.374  12.351
    1STR    H1N 7570   8.691   6.303  12.439
    1STR    H1O 7571   8.681   6.477  12.419
    1STR    H1P 7572   8.387   6.528  12.481
    1STR    H1Q 7573   8.394   6.532  12.656
    1STR    H1R 7574   8.403   6.768  12.455
    1STR    H1S 7575   8.333   6.905  12.659
    1STR    H1T 7576   8.437   6.804  12.759
    1STR    H1U 7577   8.296   6.735  12.678
    1STR    H1V 7578   8.642   6.862  12.451
    1STR    H1W 7579   8.618   6.919  12.613
    1STR    H1X 7580   8.404   7.182  12.363
    1STR    H1Y 7581   8.173   7.269  12.450
    1STR    H1Z 7582   8.060   7.475  12.516
    1STR    H20 7583   8.218   7.757  12.691
    1STR    H21 7584   8.072   7.665  12.669
    1STR    H22 7585   8.129   7.768  12.538
    1STR    H23 7586   8.533   7.666  12.671
    1STR    H27 7587   8.555   7.450  12.534
    1STR    H28 7588   8.209   5.617  12.554
    1STR    H29 7589   8.134   5.397  12.491
    1STR    H2A 7590   8.341   5.101  12.474
    1STR    H2B 7591   8.188   5.174  12.430
    1STR    H2C 7592   8.207   5.102  12.590
    1STR   BCK1 7593   8.506   9.452  17.220
    1STR    O03 7594   8.611   9.400  17.254
    1STR    N04 7595   8.464   9.574  17.262
    1STR    C05 7596   8.516   9.663  17.359
    1STR    C06 7597   8.511   9.805  17.337
    1STR    C07 7598   8.554   9.901  17.435
    1STR    N08 7599   8.545  10.041  17.413
    1STR    C09 7600   8.548  10.144   0.062
    1STR    O0A 7601   8.554  10.129   0.183
    1STR    O0B 7602   8.543  10.268   0.002
    1STR    C0C 7603   8.561  10.389   0.081
    1STR    C0D 7604   8.711  10.412   0.103
    1STR    C0E 7605   8.494  10.515   0.016
    1STR    O0F 7606   8.516  10.637   0.092
    1STR    C0G 7607   8.444  10.755   0.047
    1STR    C0H 7608   8.300  10.746   0.100
    1STR    C0I 7609   8.511  10.888   0.096
    1STR    O0J 7610   8.452  11.005   0.034
    1STR    C0K 7611   8.491  11.135   0.082
    1STR    C0M 7612   8.643  11.156   0.066
    1STR    C0N 7613   8.414  11.248   0.006
    1STR    O0O 7614   8.445  11.381   0.055
    1STR    C0P 7615   8.417  11.492  17.420
    1STR    O0Q 7616   8.368  11.491  17.308
    1STR    N0R 7617   8.454  11.602   0.047
    1STR    C0S 7618   8.457  11.740   0.015
    1STR    C0T 7619   8.507  11.824   0.117
    1STR    C0U 7620   8.529  11.961   0.093
    1STR    C0V 7621   8.500  12.019  17.407
    1STR    C0W 7622   8.550  12.161  17.387
    1STR    C0X 7623   8.440  11.940  17.305
    1STR    N0Y 7624   8.411  11.988  17.175
    1STR   BCK2 7625   8.368  12.101  17.114
    1STR    O10 7626   8.359  12.100  16.991
    1STR    C13 7627   8.421  11.800  17.331
    1STR    C14 7628   8.609   9.850   0.115
    1STR    C15 7629   8.613   9.711   0.139
    1STR    C16 7630   8.564   9.618   0.045
    1STR    C17 7631   8.559   9.473   0.090
    1STR    H1B 7632   8.382   9.606  17.214
    1STR    H1C 7633   8.472   9.841  17.244
    1STR    H1D 7634   8.535  10.073  17.318
    1STR    H1E 7635   8.514  10.375   0.178
    1STR    H1F 7636   8.764  10.427   0.008
    1STR    H1G 7637   8.729  10.500   0.164
    1STR    H1H 7638   8.757  10.327   0.154
    1STR    H1I 7639   8.387  10.495   0.007
    1STR    H1J 7640   8.533  10.529  17.355
    1STR    H1K 7641   8.444  10.757  17.378
    1STR    H1M 7642   8.298  10.737   0.208
    1STR    H1N 7643   8.245  10.662   0.058
    1STR    H1O 7644   8.244  10.836   0.073
    1STR    H1P 7645   8.504  10.895   0.205
    1STR    H1Q 7646   8.617  10.883   0.071
    1STR    H1R 7647   8.465  11.142   0.188
    1STR    H1S 7648   8.672  11.257   0.094
    1STR    H1T 7649   8.674  11.140  17.402
    1STR    H1U 7650   8.701  11.088   0.129
    1STR    H1V 7651   8.306  11.233   0.016
    1STR    H1W 7652   8.436  11.243  17.339
    1STR    H1X 7653   8.489  11.576   0.137
    1STR    H1Y 7654   8.534  11.785   0.213
    1STR    H1Z 7655   8.573  12.021   0.171
    1STR    H20 7656   8.577  12.178  17.283
    1STR    H21 7657   8.473  12.232  17.417
    1STR    H22 7658   8.639  12.180   0.006
    1STR    H23 7659   8.422  11.916  17.105
    1STR    H27 7660   8.382  11.737  17.254
    1STR    H28 7661   8.648   9.914   0.191
    1STR    H29 7662   8.652   9.677   0.234
    1STR    H2A 7663   8.474   9.421   0.047
    1STR    H2B 7664   8.549   9.466   0.198
    1STR    H2C 7665   8.651   9.422   0.062
    1STR   BCK1 7666   8.552   9.456   3.962
    1STR    O03 7667   8.505   9.470   3.850
    1STR    N04 7668   8.627   9.551   4.024
    1STR    C05 7669   8.699   9.657   3.964
    1STR    C06 7670   8.682   9.795   4.001
    1STR    C07 7671   8.765   9.899   3.947
    1STR    N08 7672   8.751  10.036   3.985
    1STR    C09 7673   8.801  10.148   3.926
    1STR    O0A 7674   8.862  10.147   3.819
    1STR    O0B 7675   8.776  10.266   3.994
    1STR    C0C 7676   8.815  10.394   3.936
    1STR    C0D 7677   8.715  10.431   3.825
    1STR    C0E 7678   8.829  10.513   4.037
    1STR    O0F 7679   8.862  10.637   3.969
    1STR    C0G 7680   8.878  10.757   4.048
    1STR    C0H 7681   9.015  10.754   4.116
    1STR    C0I 7682   8.864  10.883   3.957
    1STR    O0J 7683   8.854  11.010   4.027
    1STR    C0K 7684   8.845  11.130   3.946
    1STR    C0M 7685   8.716  11.128   3.863
    1STR    C0N 7686   8.848  11.262   4.031
    1STR    O0O 7687   8.860  11.378   3.946
    1STR    C0P 7688   8.796  11.496   3.973
    1STR    O0Q 7689   8.711  11.512   4.060
    1STR    N0R 7690   8.843  11.593   3.894
    1STR    C0S 7691   8.818  11.732   3.885
    1STR    C0T 7692   8.925  11.811   3.838
    1STR    C0U 7693   8.913  11.950   3.828
    1STR    C0V 7694   8.793  12.016   3.863
    1STR    C0W 7695   8.798  12.168   3.865
    1STR    C0X 7696   8.680  11.941   3.903
    1STR    N0Y 7697   8.559  11.999   3.946
    1STR   BCK2 7698   8.479  12.105   3.918
    1STR    O10 7699   8.384  12.126   3.992
    1STR    C13 7700   8.696  11.799   3.917
    1STR    C14 7701   8.866   9.859   3.856
    1STR    C15 7702   8.884   9.725   3.820
    1STR    C16 7703   8.803   9.624   3.874
    1STR    C17 7704   8.834   9.479   3.838
    1STR    H1B 7705   8.646   9.533   4.121
    1STR    H1C 7706   8.605   9.820   4.072
    1STR    H1D 7707   8.697  10.057   4.067
    1STR    H1E 7708   8.914  10.381   3.890
    1STR    H1F 7709   8.615  10.446   3.866
    1STR    H1G 7710   8.745  10.523   3.775
    1STR    H1H 7711   8.709  10.353   3.749
    1STR    H1I 7712   8.907  10.488   4.110
    1STR    H1J 7713   8.736  10.525   4.093
    1STR    H1K 7714   8.799  10.761   4.123
    1STR    H1M 7715   9.096  10.743   4.044
    1STR    H1N 7716   9.024  10.672   4.188
    1STR    H1O 7717   9.033  10.846   4.172
    1STR    H1P 7718   8.948  10.886   3.887
    1STR    H1Q 7719   8.774  10.869   3.897
    1STR    H1R 7720   8.931  11.132   3.880
    1STR    H1S 7721   8.701  11.223   3.812
    1STR    H1T 7722   8.629  11.113   3.928
    1STR    H1U 7723   8.715  11.050   3.787
    1STR    H1V 7724   8.933  11.261   4.099
    1STR    H1W 7725   8.759  11.269   4.094
    1STR    H1X 7726   8.917  11.557   3.837
    1STR    H1Y 7727   9.020  11.766   3.812
    1STR    H1Z 7728   8.999  12.008   3.797
    1STR    H20 7729   8.770  12.208   3.768
    1STR    H21 7730   8.733  12.208   3.942
    1STR    H22 7731   8.898  12.204   3.888
    1STR    H23 7732   8.516  11.949   4.023
    1STR    H27 7733   8.614  11.739   3.954
    1STR    H28 7734   8.934   9.930   3.812
    1STR    H29 7735   8.963   9.700   3.751
    1STR    H2A 7736   8.838   9.417   3.928
    1STR    H2B 7737   8.931   9.471   3.788
    1STR    H2C 7738   8.758   9.440   3.771
    1STR   BCK1 7739   8.484   9.427   8.395
    1STR    O03 7740   8.594   9.376   8.412
    1STR    N04 7741   8.468   9.554   8.439
    1STR    C05 7742   8.365   9.647   8.458
    1STR    C06 7743   8.394   9.786   8.439
    1STR    C07 7744   8.301   9.890   8.471
    1STR    N08 7745   8.337  10.027   8.456
    1STR    C09 7746   8.271  10.140   8.494
    1STR    O0A 7747   8.164  10.140   8.553
    1STR    O0B 7748   8.338  10.255   8.462
    1STR    C0C 7749   8.282  10.385   8.497
    1STR    C0D 7750   8.300  10.412   8.647
    1STR    C0E 7751   8.341  10.502   8.413
    1STR    O0F 7752   8.278  10.628   8.444
    1STR    C0G 7753   8.318  10.743   8.368
    1STR    C0H 7754   8.262  10.733   8.226
    1STR    C0I 7755   8.267  10.874   8.437
    1STR    O0J 7756   8.317  10.993   8.372
    1STR    C0K 7757   8.263  11.119   8.417
    1STR    C0M 7758   8.311  11.148   8.561
    1STR    C0N 7759   8.304  11.237   8.324
    1STR    O0O 7760   8.235  11.356   8.363
    1STR    C0P 7761   8.286  11.480   8.341
    1STR    O0Q 7762   8.392  11.505   8.285
    1STR    N0R 7763   8.206  11.570   8.398
    1STR    C0S 7764   8.216  11.708   8.422
    1STR    C0T 7765   8.166  11.750   8.546
    1STR    C0U 7766   8.161  11.886   8.579
    1STR    C0V 7767   8.202  11.985   8.487
    1STR    C0W 7768   8.178  12.129   8.529
    1STR    C0X 7769   8.254  11.946   8.360
    1STR    N0Y 7770   8.281  12.040   8.258
    1STR   BCK2 7771   8.330  12.166   8.260
    1STR    O10 7772   8.387  12.219   8.354
    1STR    C13 7773   8.261  11.806   8.330
    1STR    C14 7774   8.175   9.850   8.521
    1STR    C15 7775   8.146   9.714   8.543
    1STR    C16 7776   8.240   9.613   8.516
    1STR    C17 7777   8.206   9.472   8.561
    1STR    H1B 7778   8.558   9.586   8.470
    1STR    H1C 7779   8.491   9.814   8.401
    1STR    H1D 7780   8.424  10.049   8.412
    1STR    H1E 7781   8.174  10.381   8.476
    1STR    H1F 7782   8.405  10.416   8.676
    1STR    H1G 7783   8.254  10.507   8.675
    1STR    H1H 7784   8.252  10.335   8.708
    1STR    H1I 7785   8.327  10.478   8.307
    1STR    H1J 7786   8.448  10.509   8.430
    1STR    H1K 7787   8.427  10.748   8.365
    1STR    H1M 7788   8.153  10.720   8.228
    1STR    H1N 7789   8.305  10.651   8.169
    1STR    H1O 7790   8.282  10.825   8.170
    1STR    H1P 7791   8.158  10.874   8.437
    1STR    H1Q 7792   8.299  10.873   8.541
    1STR    H1R 7793   8.154  11.112   8.416
    1STR    H1S 7794   8.278  11.246   8.593
    1STR    H1T 7795   8.420  11.146   8.567
    1STR    H1U 7796   8.271  11.076   8.633
    1STR    H1V 7797   8.278  11.215   8.220
    1STR    H1W 7798   8.412  11.252   8.326
    1STR    H1X 7799   8.125  11.524   8.438
    1STR    H1Y 7800   8.130  11.679   8.619
    1STR    H1Z 7801   8.121  11.916   8.675
    1STR    H20 7802   8.271  12.172   8.567
    1STR    H21 7803   8.142  12.189   8.446
    1STR    H22 7804   8.104  12.137   8.608
    1STR    H23 7805   8.255  12.012   8.165
    1STR    H27 7806   8.298  11.774   8.234
    1STR    H28 7807   8.097   9.920   8.546
    1STR    H29 7808   8.050   9.689   8.585
    1STR    H2A 7809   8.156   9.418   8.481
    1STR    H2B 7810   8.138   9.475   8.646
    1STR    H2C 7811   8.295   9.418   8.593
    1STR   BCK1 7812   8.611   9.465  12.803
    1STR    O03 7813   8.721   9.416  12.780
    1STR    N04 7814   8.591   9.582  12.869
    1STR    C05 7815   8.683   9.668  12.935
    1STR    C06 7816   8.667   9.811  12.927
    1STR    C07 7817   8.753   9.903  12.995
    1STR    N08 7818   8.731  10.044  12.990
    1STR    C09 7819   8.798  10.147  13.048
    1STR    O0A 7820   8.897  10.133  13.119
    1STR    O0B 7821   8.744  10.271  13.020
    1STR    C0C 7822   8.813  10.392  13.062
    1STR    C0D 7823   8.925  10.422  12.961
    1STR    C0E 7824   8.718  10.515  13.077
    1STR    O0F 7825   8.789  10.638  13.106
    1STR    C0G 7826   8.710  10.756  13.135
    1STR    C0H 7827   8.666  10.750  13.282
    1STR    C0I 7828   8.789  10.888  13.108
    1STR    O0J 7829   8.705  11.005  13.106
    1STR    C0K 7830   8.769  11.135  13.098
    1STR    C0M 7831   8.860  11.144  12.974
    1STR    C0N 7832   8.664  11.251  13.094
    1STR    O0O 7833   8.725  11.381  13.093
    1STR    C0P 7834   8.659  11.492  13.049
    1STR    O0Q 7835   8.545  11.494  13.003
    1STR    N0R 7836   8.736  11.600  13.066
    1STR    C0S 7837   8.725  11.737  13.038
    1STR    C0T 7838   8.819  11.819  13.102
    1STR    C0U 7839   8.828  11.956  13.074
    1STR    C0V 7840   8.743  12.016  12.980
    1STR    C0W 7841   8.773  12.161  12.943
    1STR    C0X 7842   8.640  11.940  12.917
    1STR    N0Y 7843   8.559  11.998  12.818
    1STR   BCK2 7844   8.495  12.117  12.815
    1STR    O10 7845   8.477  12.189  12.913
    1STR    C13 7846   8.634  11.800  12.947
    1STR    C14 7847   8.859   9.847  13.070
    1STR    C15 7848   8.875   9.708  13.081
    1STR    C16 7849   8.787   9.618  13.018
    1STR    C17 7850   8.806   9.471  13.051
    1STR    H1B 7851   8.495   9.610  12.872
    1STR    H1C 7852   8.587   9.850  12.867
    1STR    H1D 7853   8.655  10.076  12.934
    1STR    H1E 7854   8.859  10.374  13.159
    1STR    H1F 7855   8.886  10.441  12.861
    1STR    H1G 7856   8.983  10.510  12.991
    1STR    H1H 7857   8.996  10.339  12.954
    1STR    H1I 7858   8.647  10.494  13.157
    1STR    H1J 7859   8.661  10.529  12.986
    1STR    H1K 7860   8.623  10.756  13.069
    1STR    H1M 7861   8.752  10.743  13.348
    1STR    H1N 7862   8.601  10.664  13.302
    1STR    H1O 7863   8.611  10.840  13.310
    1STR    H1P 7864   8.869  10.899  13.182
    1STR    H1Q 7865   8.839  10.878  13.011
    1STR    H1R 7866   8.830  11.148  13.187
    1STR    H1S 7867   8.901  11.244  12.963
    1STR    H1T 7868   8.804  11.122  12.883
    1STR    H1U 7869   8.945  11.076  12.980
    1STR    H1V 7870   8.598  11.245  13.181
    1STR    H1W 7871   8.599  11.240  13.007
    1STR    H1X 7872   8.823  11.571  13.109
    1STR    H1Y 7873   8.890  11.778  13.173
    1STR    H1Z 7874   8.905  12.014  13.122
    1STR    H20 7875   8.757  12.178  12.836
    1STR    H21 7876   8.710  12.229  13.000
    1STR    H22 7877   8.877  12.186  12.963
    1STR    H23 7878   8.549  11.945  12.733
    1STR    H27 7879   8.560  11.738  12.897
    1STR    H28 7880   8.931   9.907  13.123
    1STR    H29 7881   8.956   9.670  13.142
    1STR    H2A 7882   8.711   9.418  13.051
    1STR    H2B 7883   8.849   9.458  13.150
    1STR    H2C 7884   8.873   9.425  12.979
    1STR   BCK1 7885   8.458  13.802  17.054
    1STR    O03 7886   8.342  13.815  17.019
    1STR    N04 7887   8.549  13.902  17.050
    1STR    C05 7888   8.542  14.016  16.967
    1STR    C06 7889   8.556  14.150  17.016
    1STR    C07 7890   8.555  14.263  16.928
    1STR    N08 7891   8.573  14.396  16.975
    1STR    C09 7892   8.549  14.514  16.911
    1STR    O0A 7893   8.497  14.522  16.801
    1STR    O0B 7894   8.589  14.625  16.981
    1STR    C0C 7895   8.564  14.757  16.926
    1STR    C0D 7896   8.417  14.795  16.951
    1STR    C0E 7897   8.659  14.869  16.978
    1STR    O0F 7898   8.629  14.993  16.911
    1STR    C0G 7899   8.704  15.110  16.949
    1STR    C0H 7900   8.842  15.105  16.882
    1STR    C0I 7901   8.624  15.236  16.903
    1STR    O0J 7902   8.681  15.362  16.949
    1STR    C0K 7903   8.612  15.481  16.905
    1STR    C0M 7904   8.471  15.487  16.965
    1STR    C0N 7905   8.688  15.612  16.942
    1STR    O0O 7906   8.627  15.722  16.874
    1STR    C0P 7907   8.650  15.850  16.910
    1STR    O0Q 7908   8.716  15.886  17.007
    1STR    N0R 7909   8.592  15.932  16.822
    1STR    C0S 7910   8.596  16.071  16.807
    1STR    C0T 7911   8.658  16.120  16.691
    1STR    C0U 7912   8.645  16.255  16.656
    1STR    C0V 7913   8.568  16.345  16.733
    1STR    C0W 7914   8.548  16.481  16.672
    1STR    C0X 7915   8.509  16.301  16.855
    1STR    N0Y 7916   8.424  16.375  16.941
    1STR   BCK2 7917   8.379  16.500  16.969
    1STR    O10 7918   8.291  16.509  17.054
    1STR    C13 7919   8.526  16.163  16.890
    1STR    C14 7920   8.542  14.236  16.790
    1STR    C15 7921   8.530  14.106  16.740
    1STR    C16 7922   8.532  13.996  16.827
    1STR    C17 7923   8.529  13.857  16.765
    1STR    H1B 7924   8.635  13.884  17.099
    1STR    H1C 7925   8.566  14.165  17.122
    1STR    H1D 7926   8.605  14.409  17.069
    1STR    H1E 7927   8.580  14.752  16.818
    1STR    H1F 7928   8.395  14.802  17.057
    1STR    H1G 7929   8.393  14.891  16.905
    1STR    H1H 7930   8.349  14.721  16.907
    1STR    H1I 7931   8.762  14.840  16.961
    1STR    H1J 7932   8.647  14.881  17.086
    1STR    H1K 7933   8.714  15.114  17.057
    1STR    H1M 7934   8.833  15.095  16.774
    1STR    H1N 7935   8.902  15.021  16.918
    1STR    H1O 7936   8.898  15.196  16.902
    1STR    H1P 7937   8.616  15.237  16.795
    1STR    H1Q 7938   8.523  15.226  16.942
    1STR    H1R 7939   8.605  15.477  16.796
    1STR    H1S 7940   8.423  15.582  16.943
    1STR    H1T 7941   8.474  15.476  17.074
    1STR    H1U 7942   8.405  15.410  16.925
    1STR    H1V 7943   8.793  15.606  16.911
    1STR    H1W 7944   8.688  15.628  17.049
    1STR    H1X 7945   8.545  15.881  16.749
    1STR    H1Y 7946   8.713  16.054  16.626
    1STR    H1Z 7947   8.691  16.289  16.564
    1STR    H20 7948   8.442  16.507  16.673
    1STR    H21 7949   8.607  16.555  16.725
    1STR    H22 7950   8.579  16.485  16.568
    1STR    H23 7951   8.379  16.317  17.010
    1STR    H27 7952   8.479  16.123  16.979
    1STR    H28 7953   8.542  14.315  16.716
    1STR    H29 7954   8.521  14.091  16.634
    1STR    H2A 7955   8.602  13.791  16.813
    1STR    H2B 7956   8.553  13.859  16.659
    1STR    H2C 7957   8.430  13.813  16.776
    1STR   BCK1 7958   8.442  13.804   4.114
    1STR    O03 7959   8.533  13.755   4.181
    1STR    N04 7960   8.391  13.928   4.133
    1STR    C05 7961   8.411  14.021   4.238
    1STR    C06 7962   8.420  14.161   4.209
    1STR    C07 7963   8.426  14.261   4.311
    1STR    N08 7964   8.433  14.400   4.281
    1STR    C09 7965   8.389  14.504   4.355
    1STR    O0A 7966   8.322  14.491   4.457
    1STR    O0B 7967   8.424  14.627   4.304
    1STR    C0C 7968   8.402  14.749   4.380
    1STR    C0D 7969   8.521  14.769   4.476
    1STR    C0E 7970   8.382  14.874   4.289
    1STR    O0F 7971   8.359  14.996   4.364
    1STR    C0G 7972   8.323  15.113   4.288
    1STR    C0H 7973   8.175  15.104   4.250
    1STR    C0I 7974   8.349  15.245   4.368
    1STR    O0J 7975   8.329  15.363   4.286
    1STR    C0K 7976   8.333  15.492   4.351
    1STR    C0M 7977   8.473  15.517   4.410
    1STR    C0N 7978   8.297  15.607   4.251
    1STR    O0O 7979   8.291  15.736   4.314
    1STR    C0P 7980   8.301  15.851   4.241
    1STR    O0Q 7981   8.318  15.857   4.120
    1STR    N0R 7982   8.292  15.958   4.322
    1STR    C0S 7983   8.306  16.097   4.303
    1STR    C0T 7984   8.317  16.174   4.420
    1STR    C0U 7985   8.343  16.312   4.414
    1STR    C0V 7986   8.357  16.378   4.290
    1STR    C0W 7987   8.407  16.521   4.294
    1STR    C0X 7988   8.334  16.307   4.169
    1STR    N0Y 7989   8.347  16.365   4.041
    1STR   BCK2 7990   8.316  16.481   3.979
    1STR    O10 7991   8.348  16.495   3.861
    1STR    C13 7992   8.312  16.166   4.178
    1STR    C14 7993   8.429  14.217   4.445
    1STR    C15 7994   8.420  14.080   4.476
    1STR    C16 7995   8.407  13.983   4.375
    1STR    C17 7996   8.384  13.840   4.421
    1STR    H1B 7997   8.327  13.954   4.061
    1STR    H1C 7998   8.420  14.192   4.106
    1STR    H1D 7999   8.480  14.428   4.197
    1STR    H1E 8000   8.312  14.738   4.440
    1STR    H1F 8001   8.615  14.780   4.422
    1STR    H1G 8002   8.507  14.858   4.537
    1STR    H1H 8003   8.532  14.684   4.544
    1STR    H1I 8004   8.298  14.854   4.223
    1STR    H1J 8005   8.470  14.887   4.225
    1STR    H1K 8006   8.385  15.118   4.198
    1STR    H1M 8007   8.112  15.092   4.339
    1STR    H1N 8008   8.154  15.020   4.184
    1STR    H1O 8009   8.142  15.194   4.198
    1STR    H1P 8010   8.284  15.249   4.455
    1STR    H1Q 8011   8.451  15.244   4.405
    1STR    H1R 8012   8.260  15.493   4.431
    1STR    H1S 8013   8.481  15.618   4.451
    1STR    H1T 8014   8.551  15.508   4.333
    1STR    H1U 8015   8.497  15.449   4.491
    1STR    H1V 8016   8.199  15.588   4.206
    1STR    H1W 8017   8.368  15.609   4.168
    1STR    H1X 8018   8.277  15.927   4.416
    1STR    H1Y 8019   8.311  16.128   4.518
    1STR    H1Z 8020   8.358  16.367   4.506
    1STR    H20 8021   8.462  16.547   4.204
    1STR    H21 8022   8.324  16.591   4.307
    1STR    H22 8023   8.475  16.535   4.378
    1STR    H23 8024   8.387  16.302   3.973
    1STR    H27 8025   8.300  16.108   4.088
    1STR    H28 8026   8.438  14.287   4.527
    1STR    H29 8027   8.420  14.051   4.580
    1STR    H2A 8028   8.318  13.786   4.353
    1STR    H2B 8029   8.338  13.837   4.519
    1STR    H2C 8030   8.479  13.786   4.427
    1STR   BCK1 8031   8.612  13.831   8.328
    1STR    O03 8032   8.699  13.782   8.257
    1STR    N04 8033   8.625  13.948   8.395
    1STR    C05 8034   8.736  14.036   8.409
    1STR    C06 8035   8.714  14.177   8.416
    1STR    C07 8036   8.820  14.272   8.431
    1STR    N08 8037   8.796  14.411   8.444
    1STR    C09 8038   8.881  14.517   8.435
    1STR    O0A 8039   9.000  14.507   8.405
    1STR    O0B 8040   8.822  14.638   8.464
    1STR    C0C 8041   8.894  14.761   8.440
    1STR    C0D 8042   8.880  14.796   8.291
    1STR    C0E 8043   8.846  14.881   8.529
    1STR    O0F 8044   8.917  15.002   8.496
    1STR    C0G 8045   8.886  15.121   8.572
    1STR    C0H 8046   8.967  15.118   8.702
    1STR    C0I 8047   8.918  15.249   8.488
    1STR    O0J 8048   8.871  15.372   8.547
    1STR    C0K 8049   8.902  15.495   8.476
    1STR    C0M 8050   8.844  15.491   8.334
    1STR    C0N 8051   8.846  15.621   8.550
    1STR    O0O 8052   8.888  15.742   8.482
    1STR    C0P 8053   8.820  15.859   8.497
    1STR    O0Q 8054   8.721  15.875   8.567
    1STR    N0R 8055   8.881  15.956   8.428
    1STR    C0S 8056   8.855  16.094   8.412
    1STR    C0T 8057   8.967  16.175   8.387
    1STR    C0U 8058   8.953  16.314   8.370
    1STR    C0V 8059   8.827  16.376   8.375
    1STR    C0W 8060   8.825  16.527   8.369
    1STR    C0X 8061   8.710  16.297   8.392
    1STR    N0Y 8062   8.580  16.350   8.405
    1STR   BCK2 8063   8.504  16.452   8.359
    1STR    O10 8064   8.394  16.468   8.410
    1STR    C13 8065   8.727  16.156   8.413
    1STR    C14 8066   8.952  14.220   8.438
    1STR    C15 8067   8.975  14.082   8.435
    1STR    C16 8068   8.869  13.989   8.425
    1STR    C17 8069   8.907  13.843   8.440
    1STR    H1B 8070   8.538  13.977   8.437
    1STR    H1C 8071   8.613  14.214   8.408
    1STR    H1D 8072   8.701  14.441   8.460
    1STR    H1E 8073   8.999  14.746   8.463
    1STR    H1F 8074   8.776  14.814   8.264
    1STR    H1G 8075   8.937  14.886   8.267
    1STR    H1H 8076   8.919  14.716   8.228
    1STR    H1I 8077   8.862  14.856   8.634
    1STR    H1J 8078   8.739  14.896   8.516
    1STR    H1K 8079   8.779  15.123   8.594
    1STR    H1M 8080   9.074  15.111   8.682
    1STR    H1N 8081   8.939  15.034   8.765
    1STR    H1O 8082   8.950  15.209   8.760
    1STR    H1P 8083   9.026  15.254   8.470
    1STR    H1Q 8084   8.871  15.235   8.391
    1STR    H1R 8085   9.010  15.504   8.471
    1STR    H1S 8086   8.857  15.588   8.284
    1STR    H1T 8087   8.738  15.469   8.335
    1STR    H1U 8088   8.894  15.418   8.270
    1STR    H1V 8089   8.882  15.625   8.653
    1STR    H1W 8090   8.737  15.618   8.555
    1STR    H1X 8091   8.963  15.920   8.382
    1STR    H1Y 8092   9.067  16.133   8.385
    1STR    H1Z 8093   9.041  16.374   8.355
    1STR    H20 8094   8.815  16.561   8.266
    1STR    H21 8095   8.744  16.568   8.429
    1STR    H22 8096   8.917  16.570   8.408
    1STR    H23 8097   8.520  16.296   8.466
    1STR    H27 8098   8.641  16.093   8.431
    1STR    H28 8099   9.038  14.283   8.449
    1STR    H29 8100   9.077  14.046   8.443
    1STR    H2A 8101   8.827  13.786   8.487
    1STR    H2B 8102   8.996  13.831   8.501
    1STR    H2C 8103   8.929  13.800   8.342
    1STR   BCK1 8104   8.455  13.791  12.713
    1STR    O03 8105   8.414  13.768  12.827
    1STR    N04 8106   8.457  13.913  12.657
    1STR    C05 8107   8.377  14.024  12.689
    1STR    C06 8108   8.430  14.157  12.697
    1STR    C07 8109   8.346  14.271  12.714
    1STR    N08 8110   8.397  14.403  12.716
    1STR    C09 8111   8.333  14.518  12.682
    1STR    O0A 8112   8.219  14.520  12.635
    1STR    O0B 8113   8.405  14.632  12.707
    1STR    C0C 8114   8.341  14.761  12.695
    1STR    C0D 8115   8.265  14.790  12.826
    1STR    C0E 8116   8.438  14.877  12.661
    1STR    O0F 8117   8.367  15.002  12.646
    1STR    C0G 8118   8.441  15.117  12.602
    1STR    C0H 8119   8.470  15.104  12.452
    1STR    C0I 8120   8.359  15.247  12.630
    1STR    O0J 8121   8.433  15.368  12.600
    1STR    C0K 8122   8.359  15.492  12.608
    1STR    C0M 8123   8.322  15.521  12.754
    1STR    C0N 8124   8.441  15.611  12.550
    1STR    O0O 8125   8.356  15.725  12.530
    1STR    C0P 8126   8.393  15.852  12.564
    1STR    O0Q 8127   8.499  15.883  12.617
    1STR    N0R 8128   8.292  15.936  12.539
    1STR    C0S 8129   8.268  16.069  12.576
    1STR    C0T 8130   8.137  16.098  12.617
    1STR    C0U 8131   8.103  16.226  12.664
    1STR    C0V 8132   8.199  16.330  12.667
    1STR    C0W 8133   8.159  16.458  12.739
    1STR    C0X 8134   8.328  16.308  12.613
    1STR    N0Y 8135   8.426  16.409  12.615
    1STR   BCK2 8136   8.428  16.540  12.583
    1STR    O10 8137   8.525  16.607  12.618
    1STR    C13 8138   8.363  16.175  12.573
    1STR    C14 8139   8.208  14.248  12.731
    1STR    C15 8140   8.154  14.119  12.722
    1STR    C16 8141   8.236  14.008  12.698
    1STR    C17 8142   8.168  13.874  12.675
    1STR    H1B 8143   8.512  13.919  12.573
    1STR    H1C 8144   8.537  14.170  12.686
    1STR    H1D 8145   8.492  14.418  12.746
    1STR    H1E 8146   8.268  14.757  12.614
    1STR    H1F 8147   8.333  14.795  12.911
    1STR    H1G 8148   8.211  14.885  12.820
    1STR    H1H 8149   8.191  14.712  12.847
    1STR    H1I 8150   8.490  14.852  12.568
    1STR    H1J 8151   8.514  14.887  12.738
    1STR    H1K 8152   8.534  15.124  12.658
    1STR    H1M 8153   8.378  15.089  12.395
    1STR    H1N 8154   8.537  15.021  12.429
    1STR    H1O 8155   8.518  15.194  12.414
    1STR    H1P 8156   8.267  15.244  12.572
    1STR    H1Q 8157   8.330  15.247  12.735
    1STR    H1R 8158   8.269  15.482  12.548
    1STR    H1S 8159   8.275  15.619  12.763
    1STR    H1T 8160   8.410  15.521  12.818
    1STR    H1U 8161   8.250  15.449  12.794
    1STR    H1V 8162   8.482  15.584  12.453
    1STR    H1W 8163   8.525  15.635  12.614
    1STR    H1X 8164   8.216  15.887  12.494
    1STR    H1Y 8165   8.061  16.021  12.618
    1STR    H1Z 8166   8.003  16.243  12.701
    1STR    H20 8167   8.246  16.510  12.779
    1STR    H21 8168   8.107  16.525  12.671
    1STR    H22 8169   8.093  16.436  12.823
    1STR    H23 8170   8.518  16.380  12.645
    1STR    H27 8171   8.463  16.154  12.538
    1STR    H28 8172   8.139  14.329  12.749
    1STR    H29 8173   8.047  14.106  12.731
    1STR    H2A 8174   8.216  13.818  12.595
    1STR    H2B 8175   8.064  13.886  12.646
    1STR    H2C 8176   8.170  13.814  12.766
    1STR   BCK1 8177  12.914   0.738  17.214
    1STR    O03 8178  13.024   0.686  17.226
    1STR    N04 8179  12.878   0.857  17.266
    1STR    C05 8180  12.948   0.945  17.354
    1STR    C06 8181  12.937   1.087  17.337
    1STR    C07 8182  12.998   1.182  17.426
    1STR    N08 8183  12.984   1.322  17.408
    1STR    C09 8184  13.008   1.424   0.055
    1STR    O0A 8185  13.043   1.408   0.171
    1STR    O0B 8186  12.987   1.549  17.440
    1STR    C0C 8187  13.027   1.669   0.071
    1STR    C0D 8188  13.177   1.694   0.044
    1STR    C0E 8189  12.942   1.794   0.032
    1STR    O0F 8190  12.986   1.916   0.097
    1STR    C0G 8191  12.903   2.033   0.079
    1STR    C0H 8192  12.787   2.025   0.179
    1STR    C0I 8193  12.983   2.166   0.099
    1STR    O0J 8194  12.907   2.283   0.057
    1STR    C0K 8195  12.961   2.414   0.087
    1STR    C0M 8196  13.101   2.430   0.026
    1STR    C0N 8197  12.867   2.526   0.034
    1STR    O0O 8198  12.914   2.658   0.068
    1STR    C0P 8199  12.870   2.769   0.002
    1STR    O0Q 8200  12.790   2.770  17.350
    1STR    N0R 8201  12.929   2.878   0.054
    1STR    C0S 8202  12.929   3.016   0.025
    1STR    C0T 8203  13.002   3.095   0.115
    1STR    C0U 8204  13.020   3.233   0.092
    1STR    C0V 8205  12.965   3.295  17.419
    1STR    C0W 8206  13.005   3.440  17.394
    1STR    C0X 8207  12.883   3.221  17.330
    1STR    N0Y 8208  12.831   3.283  17.214
    1STR   BCK2 8209  12.768   3.401  17.200
    1STR    O10 8210  12.724   3.467  17.293
    1STR    C13 8211  12.868   3.080  17.353
    1STR    C14 8212  13.076   1.128   0.091
    1STR    C15 8213  13.085   0.990   0.112
    1STR    C16 8214  13.020   0.898   0.027
    1STR    C17 8215  13.025   0.752   0.069
    1STR    H1B 8216  12.788   0.888  17.235
    1STR    H1C 8217  12.880   1.125  17.253
    1STR    H1D 8218  12.952   1.355  17.319
    1STR    H1E 8219  13.014   1.653   0.178
    1STR    H1F 8220  13.197   1.710  17.379
    1STR    H1G 8221  13.212   1.781   0.099
    1STR    H1H 8222  13.237   1.609   0.077
    1STR    H1I 8223  12.838   1.774   0.058
    1STR    H1J 8224  12.945   1.808  17.364
    1STR    H1K 8225  12.865   2.034  17.417
    1STR    H1M 8226  12.824   2.018   0.281
    1STR    H1N 8227  12.722   1.940   0.161
    1STR    H1O 8228  12.725   2.115   0.173
    1STR    H1P 8229  13.013   2.176   0.204
    1STR    H1Q 8230  13.075   2.160   0.041
    1STR    H1R 8231  12.968   2.424   0.195
    1STR    H1S 8232  13.139   2.531   0.040
    1STR    H1T 8233  13.100   2.411  17.358
    1STR    H1U 8234  13.175   2.363   0.071
    1STR    H1V 8235  12.767   2.515   0.075
    1STR    H1W 8236  12.856   2.519  17.366
    1STR    H1X 8237  12.987   2.849   0.131
    1STR    H1Y 8238  13.049   3.052   0.202
    1STR    H1Z 8239  13.081   3.290   0.161
    1STR    H20 8240  13.018   3.459  17.287
    1STR    H21 8241  12.930   3.508  17.433
    1STR    H22 8242  13.100   3.464   0.002
    1STR    H23 8243  12.847   3.234  17.127
    1STR    H27 8244  12.810   3.021  17.284
    1STR    H28 8245  13.130   1.192   0.160
    1STR    H29 8246  13.143   0.954   0.195
    1STR    H2A 8247  12.934   0.699   0.041
    1STR    H2B 8248  13.036   0.742   0.177
    1STR    H2C 8249  13.111   0.703   0.022
    1STR   BCK1 8250  12.874   0.725   3.950
    1STR    O03 8251  12.792   0.743   3.860
    1STR    N04 8252  12.961   0.820   3.991
    1STR    C05 8253  13.006   0.932   3.918
    1STR    C06 8254  12.997   1.067   3.965
    1STR    C07 8255  13.054   1.178   3.893
    1STR    N08 8256  13.052   1.312   3.938
    1STR    C09 8257  13.057   1.425   3.864
    1STR    O0A 8258  13.045   1.425   3.741
    1STR    O0B 8259  13.073   1.542   3.937
    1STR    C0C 8260  13.088   1.670   3.868
    1STR    C0D 8261  12.953   1.714   3.810
    1STR    C0E 8262  13.148   1.785   3.957
    1STR    O0F 8263  13.142   1.914   3.889
    1STR    C0G 8264  13.190   2.032   3.957
    1STR    C0H 8265  13.343   2.024   3.973
    1STR    C0I 8266  13.150   2.159   3.875
    1STR    O0J 8267  13.161   2.286   3.945
    1STR    C0K 8268  13.126   2.405   3.868
    1STR    C0M 8269  12.975   2.406   3.840
    1STR    C0N 8270  13.164   2.538   3.940
    1STR    O0O 8271  13.145   2.652   3.853
    1STR    C0P 8272  13.104   2.774   3.898
    1STR    O0Q 8273  13.061   2.799   4.010
    1STR    N0R 8274  13.121   2.866   3.801
    1STR    C0S 8275  13.106   3.006   3.799
    1STR    C0T 8276  13.205   3.077   3.729
    1STR    C0U 8277  13.201   3.218   3.722
    1STR    C0V 8278  13.097   3.291   3.782
    1STR    C0W 8279  13.113   3.442   3.783
    1STR    C0X 8280  12.990   3.223   3.845
    1STR    N0Y 8281  12.884   3.289   3.911
    1STR   BCK2 8282  12.807   3.399   3.897
    1STR    O10 8283  12.729   3.427   3.987
    1STR    C13 8284  12.999   3.080   3.856
    1STR    C14 8285  13.124   1.146   3.773
    1STR    C15 8286  13.135   1.014   3.727
    1STR    C16 8287  13.079   0.907   3.799
    1STR    C17 8288  13.104   0.766   3.748
    1STR    H1B 8289  13.013   0.797   4.074
    1STR    H1C 8290  12.946   1.087   4.058
    1STR    H1D 8291  13.053   1.330   4.037
    1STR    H1E 8292  13.158   1.655   3.786
    1STR    H1F 8293  12.879   1.732   3.888
    1STR    H1G 8294  12.964   1.806   3.753
    1STR    H1H 8295  12.913   1.640   3.741
    1STR    H1I 8296  13.252   1.760   3.980
    1STR    H1J 8297  13.094   1.791   4.051
    1STR    H1K 8298  13.143   2.038   4.055
    1STR    H1M 8299  13.392   2.008   3.877
    1STR    H1N 8300  13.374   1.944   4.039
    1STR    H1O 8301  13.383   2.117   4.015
    1STR    H1P 8302  13.209   2.162   3.783
    1STR    H1Q 8303  13.046   2.144   3.844
    1STR    H1R 8304  13.182   2.401   3.774
    1STR    H1S 8305  12.946   2.499   3.792
    1STR    H1T 8306  12.919   2.396   3.932
    1STR    H1U 8307  12.945   2.325   3.773
    1STR    H1V 8308  13.269   2.535   3.970
    1STR    H1W 8309  13.108   2.550   4.033
    1STR    H1X 8310  13.165   2.822   3.722
    1STR    H1Y 8311  13.289   3.026   3.683
    1STR    H1Z 8312  13.282   3.269   3.672
    1STR    H20 8313  13.071   3.485   3.693
    1STR    H21 8314  13.066   3.486   3.871
    1STR    H22 8315  13.218   3.470   3.787
    1STR    H23 8316  12.854   3.240   3.994
    1STR    H27 8317  12.923   3.025   3.909
    1STR    H28 8318  13.173   1.224   3.716
    1STR    H29 8319  13.191   0.996   3.637
    1STR    H2A 8320  13.137   0.702   3.829
    1STR    H2B 8321  13.181   0.764   3.671
    1STR    H2C 8322  13.012   0.725   3.706
    1STR   BCK1 8323  12.845   0.719   8.412
    1STR    O03 8324  12.957   0.672   8.398
    1STR    N04 8325  12.838   0.844   8.463
    1STR    C05 8326  12.743   0.932   8.517
    1STR    C06 8327  12.759   1.073   8.496
    1STR    C07 8328  12.680   1.172   8.562
    1STR    N08 8329  12.704   1.310   8.541
    1STR    C09 8330  12.647   1.420   8.597
    1STR    O0A 8331  12.557   1.416   8.680
    1STR    O0B 8332  12.702   1.538   8.552
    1STR    C0C 8333  12.657   1.665   8.605
    1STR    C0D 8334  12.721   1.689   8.743
    1STR    C0E 8335  12.686   1.785   8.510
    1STR    O0F 8336  12.633   1.909   8.560
    1STR    C0G 8337  12.646   2.025   8.475
    1STR    C0H 8338  12.543   2.016   8.361
    1STR    C0I 8339  12.623   2.157   8.556
    1STR    O0J 8340  12.647   2.275   8.476
    1STR    C0K 8341  12.616   2.403   8.537
    1STR    C0M 8342  12.710   2.429   8.656
    1STR    C0N 8343  12.627   2.520   8.434
    1STR    O0O 8344  12.586   2.643   8.495
    1STR    C0P 8345  12.616   2.764   8.441
    1STR    O0Q 8346  12.672   2.782   8.333
    1STR    N0R 8347  12.578   2.860   8.526
    1STR    C0S 8348  12.590   2.999   8.532
    1STR    C0T 8349  12.575   3.054   8.661
    1STR    C0U 8350  12.579   3.192   8.682
    1STR    C0V 8351  12.596   3.281   8.575
    1STR    C0W 8352  12.586   3.429   8.610
    1STR    C0X 8353  12.613   3.232   8.442
    1STR    N0Y 8354  12.617   3.318   8.330
    1STR   BCK2 8355  12.672   3.440   8.312
    1STR    O10 8356  12.754   3.493   8.386
    1STR    C13 8357  12.611   3.090   8.423
    1STR    C14 8358  12.581   1.124   8.650
    1STR    C15 8359  12.564   0.987   8.674
    1STR    C16 8360  12.645   0.890   8.611
    1STR    C17 8361  12.631   0.746   8.656
    1STR    H1B 8362  12.932   0.880   8.465
    1STR    H1C 8363  12.837   1.106   8.428
    1STR    H1D 8364  12.777   1.336   8.477
    1STR    H1E 8365  12.548   1.660   8.618
    1STR    H1F 8366  12.829   1.695   8.737
    1STR    H1G 8367  12.685   1.783   8.786
    1STR    H1H 8368  12.695   1.610   8.814
    1STR    H1I 8369  12.643   1.762   8.412
    1STR    H1J 8370  12.794   1.795   8.494
    1STR    H1K 8371  12.747   2.029   8.434
    1STR    H1M 8372  12.442   2.004   8.400
    1STR    H1N 8373  12.563   1.933   8.294
    1STR    H1O 8374  12.545   2.107   8.301
    1STR    H1P 8375  12.522   2.158   8.596
    1STR    H1Q 8376  12.691   2.156   8.642
    1STR    H1R 8377  12.513   2.400   8.572
    1STR    H1S 8378  12.694   2.528   8.697
    1STR    H1T 8379  12.815   2.423   8.625
    1STR    H1U 8380  12.695   2.359   8.738
    1STR    H1V 8381  12.564   2.502   8.347
    1STR    H1W 8382  12.729   2.530   8.397
    1STR    H1X 8383  12.534   2.817   8.606
    1STR    H1Y 8384  12.559   2.990   8.746
    1STR    H1Z 8385  12.566   3.230   8.782
    1STR    H20 8386  12.686   3.471   8.622
    1STR    H21 8387  12.533   3.485   8.533
    1STR    H22 8388  12.533   3.445   8.703
    1STR    H23 8389  12.566   3.286   8.250
    1STR    H27 8390  12.622   3.048   8.324
    1STR    H28 8391  12.516   1.191   8.705
    1STR    H29 8392  12.489   0.956   8.745
    1STR    H2A 8393  12.564   0.693   8.589
    1STR    H2B 8394  12.590   0.741   8.756
    1STR    H2C 8395  12.727   0.696   8.658
    1STR   BCK1 8396  12.985   0.743  12.768
    1STR    O03 8397  13.088   0.694  12.726
    1STR    N04 8398  12.977   0.862  12.833
    1STR    C05 8399  13.080   0.950  12.879
    1STR    C06 8400  13.060   1.092  12.876
    1STR    C07 8401  13.157   1.186  12.926
    1STR    N08 8402  13.133   1.326  12.928
    1STR    C09 8403  13.216   1.430  12.954
    1STR    O0A 8404  13.336   1.417  12.975
    1STR    O0B 8405  13.154   1.553  12.955
    1STR    C0C 8406  13.231   1.675  12.972
    1STR    C0D 8407  13.301   1.708  12.839
    1STR    C0E 8408  13.147   1.797  13.022
    1STR    O0F 8409  13.224   1.920  13.025
    1STR    C0G 8410  13.158   2.038  13.077
    1STR    C0H 8411  13.165   2.033  13.231
    1STR    C0I 8412  13.224   2.169  13.023
    1STR    O0J 8413  13.146   2.288  13.047
    1STR    C0K 8414  13.204   2.416  13.015
    1STR    C0M 8415  13.248   2.420  12.867
    1STR    C0N 8416  13.105   2.534  13.042
    1STR    O0O 8417  13.167   2.663  13.022
    1STR    C0P 8418  13.095   2.774  12.986
    1STR    O0Q 8419  12.976   2.775  12.957
    1STR    N0R 8420  13.174   2.882  12.990
    1STR    C0S 8421  13.157   3.019  12.962
    1STR    C0T 8422  13.260   3.102  13.011
    1STR    C0U 8423  13.263   3.239  12.981
    1STR    C0V 8424  13.165   3.297  12.899
    1STR    C0W 8425  13.188   3.442  12.857
    1STR    C0X 8426  13.054   3.220  12.854
    1STR    N0Y 8427  12.958   3.277  12.768
    1STR   BCK2 8428  12.895   3.396  12.775
    1STR    O10 8429  12.892   3.468  12.875
    1STR    C13 8430  13.053   3.080  12.885
    1STR    C14 8431  13.277   1.131  12.977
    1STR    C15 8432  13.297   0.993  12.984
    1STR    C16 8433  13.200   0.902  12.940
    1STR    C17 8434  13.228   0.755  12.967
    1STR    H1B 8435  12.883   0.895  12.845
    1STR    H1C 8436  12.969   1.131  12.835
    1STR    H1D 8437  13.040   1.359  12.906
    1STR    H1E 8438  13.308   1.656  13.047
    1STR    H1F 8439  13.228   1.728  12.760
    1STR    H1G 8440  13.364   1.797  12.849
    1STR    H1H 8441  13.365   1.627  12.806
    1STR    H1I 8442  13.109   1.774  13.122
    1STR    H1J 8443  13.060   1.811  12.957
    1STR    H1K 8444  13.054   2.038  13.044
    1STR    H1M 8445  13.268   2.026  13.265
    1STR    H1N 8446  13.111   1.949  13.272
    1STR    H1O 8447  13.122   2.124  13.274
    1STR    H1P 8448  13.324   2.180  13.066
    1STR    H1Q 8449  13.238   2.156  12.916
    1STR    H1R 8450  13.292   2.430  13.078
    1STR    H1S 8451  13.283   2.520  12.840
    1STR    H1T 8452  13.164   2.396  12.801
    1STR    H1U 8453  13.330   2.351  12.846
    1STR    H1V 8454  13.069   2.530  13.145
    1STR    H1W 8455  13.017   2.525  12.979
    1STR    H1X 8456  13.265   2.854  13.022
    1STR    H1Y 8457  13.339   3.062  13.072
    1STR    H1Z 8458  13.345   3.299  13.018
    1STR    H20 8459  13.154   3.459  12.755
    1STR    H21 8460  13.134   3.510  12.924
    1STR    H22 8461  13.293   3.468  12.861
    1STR    H23 8462  12.933   3.224  12.686
    1STR    H27 8463  12.973   3.017  12.848
    1STR    H28 8464  13.356   1.193  13.017
    1STR    H29 8465  13.390   0.957  13.027
    1STR    H2A 8466  13.137   0.699  12.987
    1STR    H2B 8467  13.293   0.743  13.054
    1STR    H2C 8468  13.281   0.711  12.882
    1STR   BCK1 8469  12.816   5.078  17.078
    1STR    O03 8470  12.699   5.081  17.114
    1STR    N04 8471  12.885   5.187  17.037
    1STR    C05 8472  12.830   5.302  16.979
    1STR    C06 8473  12.864   5.435  17.021
    1STR    C07 8474  12.814   5.551  16.953
    1STR    N08 8475  12.852   5.684  16.989
    1STR    C09 8476  12.799   5.802  16.951
    1STR    O0A 8477  12.697   5.813  16.884
    1STR    O0B 8478  12.869   5.913  16.995
    1STR    C0C 8479  12.825   6.046  16.956
    1STR    C0D 8480  12.699   6.085  17.036
    1STR    C0E 8481  12.934   6.157  16.970
    1STR    O0F 8482  12.882   6.285  16.926
    1STR    C0G 8483  12.969   6.399  16.931
    1STR    C0H 8484  13.074   6.389  16.819
    1STR    C0I 8485  12.885   6.530  16.915
    1STR    O0J 8486  12.960   6.652  16.939
    1STR    C0K 8487  12.894   6.776  16.908
    1STR    C0M 8488  12.772   6.797  16.999
    1STR    C0N 8489  12.990   6.899  16.920
    1STR    O0O 8490  12.944   7.012  16.844
    1STR    C0P 8491  12.912   7.132  16.900
    1STR    O0Q 8492  12.909   7.157  17.020
    1STR    N0R 8493  12.879   7.218  16.802
    1STR    C0S 8494  12.822   7.346  16.799
    1STR    C0T 8495  12.746   7.374  16.684
    1STR    C0U 8496  12.672   7.492  16.673
    1STR    C0V 8497  12.675   7.589  16.775
    1STR    C0W 8498  12.571   7.699  16.766
    1STR    C0X 8499  12.764   7.574  16.885
    1STR    N0Y 8500  12.774   7.670  16.988
    1STR   BCK2 8501  12.774   7.805  16.996
    1STR    O10 8502  12.768   7.857  17.106
    1STR    C13 8503  12.832   7.448  16.898
    1STR    C14 8504  12.731   5.529  16.841
    1STR    C15 8505  12.698   5.399  16.798
    1STR    C16 8506  12.748   5.287  16.864
    1STR    C17 8507  12.719   5.150  16.803
    1STR    H1B 8508  12.984   5.174  17.029
    1STR    H1C 8509  12.929   5.447  17.106
    1STR    H1D 8510  12.931   5.694  17.051
    1STR    H1E 8511  12.799   6.041  16.850
    1STR    H1F 8512  12.720   6.090  17.142
    1STR    H1G 8513  12.662   6.182  17.004
    1STR    H1H 8514  12.618   6.013  17.020
    1STR    H1I 8515  13.021   6.129  16.911
    1STR    H1J 8516  12.967   6.164  17.074
    1STR    H1K 8517  13.019   6.403  17.028
    1STR    H1M 8518  13.026   6.377  16.722
    1STR    H1N 8519  13.142   6.305  16.834
    1STR    H1O 8520  13.135   6.479  16.815
    1STR    H1P 8521  12.841   6.532  16.815
    1STR    H1Q 8522  12.802   6.525  16.986
    1STR    H1R 8523  12.861   6.772  16.803
    1STR    H1S 8524  12.729   6.896  16.984
    1STR    H1T 8525  12.802   6.791  17.104
    1STR    H1U 8526  12.694   6.724  16.981
    1STR    H1V 8527  13.088   6.872  16.879
    1STR    H1W 8528  13.009   6.925  17.024
    1STR    H1X 8529  12.893   7.173  16.713
    1STR    H1Y 8530  12.738   7.302  16.604
    1STR    H1Z 8531  12.609   7.507  16.587
    1STR    H20 8532  12.549   7.743  16.863
    1STR    H21 8533  12.604   7.778  16.698
    1STR    H22 8534  12.477   7.660  16.727
    1STR    H23 8535  12.787   7.632  17.080
    1STR    H27 8536  12.894   7.429  16.985
    1STR    H28 8537  12.691   5.609  16.781
    1STR    H29 8538  12.636   5.388  16.710
    1STR    H2A 8539  12.809   5.089  16.801
    1STR    H2B 8540  12.684   5.158  16.701
    1STR    H2C 8541  12.643   5.098  16.861
    1STR   BCK1 8542  12.839   5.085   4.137
    1STR    O03 8543  12.938   5.032   4.186
    1STR    N04 8544  12.794   5.208   4.170
    1STR    C05 8545  12.834   5.299   4.271
    1STR    C06 8546  12.834   5.440   4.246
    1STR    C07 8547  12.864   5.538   4.347
    1STR    N08 8548  12.860   5.677   4.321
    1STR    C09 8549  12.846   5.781   4.408
    1STR    O0A 8550  12.827   5.766   4.529
    1STR    O0B 8551  12.855   5.904   4.348
    1STR    C0C 8552  12.857   6.026   4.428
    1STR    C0D 8553  13.000   6.048   4.480
    1STR    C0E 8554  12.806   6.151   4.351
    1STR    O0F 8555  12.811   6.272   4.429
    1STR    C0G 8556  12.750   6.390   4.370
    1STR    C0H 8557  12.598   6.381   4.389
    1STR    C0I 8558  12.804   6.522   4.433
    1STR    O0J 8559  12.760   6.638   4.360
    1STR    C0K 8560  12.787   6.769   4.416
    1STR    C0M 8561  12.938   6.791   4.431
    1STR    C0N 8562  12.725   6.881   4.327
    1STR    O0O 8563  12.743   7.012   4.383
    1STR    C0P 8564  12.732   7.124   4.307
    1STR    O0Q 8565  12.710   7.126   4.186
    1STR    N0R 8566  12.751   7.232   4.384
    1STR    C0S 8567  12.757   7.371   4.360
    1STR    C0T 8568  12.783   7.450   4.474
    1STR    C0U 8569  12.800   7.589   4.464
    1STR    C0V 8570  12.792   7.654   4.340
    1STR    C0W 8571  12.826   7.802   4.335
    1STR    C0X 8572  12.759   7.580   4.223
    1STR    N0Y 8573  12.753   7.646   4.099
    1STR   BCK2 8574  12.681   7.756   4.067
    1STR    O10 8575  12.589   7.800   4.135
    1STR    C13 8576  12.744   7.438   4.234
    1STR    C14 8577  12.901   5.489   4.474
    1STR    C15 8578  12.900   5.351   4.502
    1STR    C16 8579  12.863   5.257   4.404
    1STR    C17 8580  12.852   5.113   4.451
    1STR    H1B 8581  12.722   5.241   4.109
    1STR    H1C 8582  12.809   5.475   4.147
    1STR    H1D 8583  12.869   5.709   4.226
    1STR    H1E 8584  12.792   6.012   4.515
    1STR    H1F 8585  13.071   6.062   4.398
    1STR    H1G 8586  13.005   6.137   4.543
    1STR    H1H 8587  13.035   5.964   4.540
    1STR    H1I 8588  12.704   6.131   4.318
    1STR    H1J 8589  12.865   6.164   4.260
    1STR    H1K 8590  12.774   6.392   4.264
    1STR    H1M 8591  12.573   6.371   4.495
    1STR    H1N 8592  12.554   6.297   4.336
    1STR    H1O 8593  12.549   6.471   4.352
    1STR    H1P 8594  12.774   6.529   4.538
    1STR    H1Q 8595  12.913   6.518   4.433
    1STR    H1R 8596  12.740   6.774   4.515
    1STR    H1S 8597  12.959   6.892   4.465
    1STR    H1T 8598  12.989   6.778   4.336
    1STR    H1U 8599  12.983   6.724   4.504
    1STR    H1V 8600  12.618   6.865   4.314
    1STR    H1W 8601  12.768   6.878   4.227
    1STR    H1X 8602  12.764   7.204   4.479
    1STR    H1Y 8603  12.792   7.405   4.572
    1STR    H1Z 8604  12.823   7.646   4.553
    1STR    H20 8605  12.888   7.824   4.248
    1STR    H21 8606  12.736   7.862   4.330
    1STR    H22 8607  12.882   7.833   4.423
    1STR    H23 8608  12.815   7.612   4.027
    1STR    H27 8609  12.724   7.379   4.146
    1STR    H28 8610  12.930   5.555   4.554
    1STR    H29 8611  12.926   5.319   4.602
    1STR    H2A 8612  12.773   5.060   4.398
    1STR    H2B 8613  12.828   5.108   4.557
    1STR    H2C 8614  12.946   5.061   4.436
    1STR   BCK1 8615  12.931   5.103   8.334
    1STR    O03 8616  12.899   5.119   8.217
    1STR    N04 8617  13.000   5.194   8.407
    1STR    C05 8618  13.082   5.299   8.359
    1STR    C06 8619  13.062   5.437   8.391
    1STR    C07 8620  13.154   5.540   8.352
    1STR    N08 8621  13.136   5.677   8.385
    1STR    C09 8622  13.199   5.788   8.337
    1STR    O0A 8623  13.280   5.785   8.245
    1STR    O0B 8624  13.161   5.907   8.398
    1STR    C0C 8625  13.214   6.034   8.348
    1STR    C0D 8626  13.142   6.071   8.218
    1STR    C0E 8627  13.206   6.154   8.449
    1STR    O0F 8628  13.253   6.277   8.390
    1STR    C0G 8629  13.251   6.397   8.470
    1STR    C0H 8630  13.372   6.395   8.565
    1STR    C0I 8631  13.256   6.524   8.378
    1STR    O0J 8632  13.229   6.650   8.446
    1STR    C0K 8633  13.237   6.771   8.367
    1STR    C0M 8634  13.132   6.769   8.255
    1STR    C0N 8635  13.217   6.901   8.451
    1STR    O0O 8636  13.242   7.020   8.372
    1STR    C0P 8637  13.174   7.137   8.392
    1STR    O0Q 8638  13.079   7.151   8.468
    1STR    N0R 8639  13.228   7.235   8.318
    1STR    C0S 8640  13.202   7.373   8.305
    1STR    C0T 8641  13.311   7.453   8.267
    1STR    C0U 8642  13.297   7.592   8.254
    1STR    C0V 8643  13.174   7.656   8.277
    1STR    C0W 8644  13.175   7.808   8.277
    1STR    C0X 8645  13.059   7.579   8.309
    1STR    N0Y 8646  12.933   7.635   8.340
    1STR   BCK2 8647  12.854   7.739   8.304
    1STR    O10 8648  12.752   7.757   8.369
    1STR    C13 8649  13.076   7.437   8.326
    1STR    C14 8650  13.269   5.497   8.281
    1STR    C15 8651  13.291   5.362   8.250
    1STR    C16 8652  13.200   5.263   8.289
    1STR    C17 8653  13.234   5.118   8.261
    1STR    H1B 8654  13.007   5.173   8.505
    1STR    H1C 8655  12.974   5.464   8.447
    1STR    H1D 8656  13.067   5.700   8.455
    1STR    H1E 8657  13.320   6.019   8.326
    1STR    H1F 8658  13.035   6.087   8.234
    1STR    H1G 8659  13.183   6.162   8.175
    1STR    H1H 8660  13.153   5.992   8.143
    1STR    H1I 8661  13.265   6.130   8.538
    1STR    H1J 8662  13.103   6.167   8.483
    1STR    H1K 8663  13.158   6.401   8.527
    1STR    H1M 8664  13.465   6.385   8.511
    1STR    H1N 8665  13.366   6.313   8.637
    1STR    H1O 8666  13.377   6.487   8.623
    1STR    H1P 8667  13.353   6.529   8.328
    1STR    H1Q 8668  13.181   6.510   8.300
    1STR    H1R 8669  13.337   6.776   8.322
    1STR    H1S 8670  13.129   6.864   8.202
    1STR    H1T 8671  13.032   6.752   8.296
    1STR    H1U 8672  13.152   6.692   8.180
    1STR    H1V 8673  13.286   6.903   8.535
    1STR    H1W 8674  13.117   6.904   8.494
    1STR    H1X 8675  13.308   7.199   8.268
    1STR    H1Y 8676  13.408   7.410   8.251
    1STR    H1Z 8677  13.384   7.651   8.230
    1STR    H20 8678  13.154   7.845   8.177
    1STR    H21 8679  13.103   7.848   8.348
    1STR    H22 8680  13.273   7.847   8.307
    1STR    H23 8681  12.884   7.584   8.411
    1STR    H27 8682  12.992   7.376   8.355
    1STR    H28 8683  13.346   5.566   8.250
    1STR    H29 8684  13.381   5.335   8.197
    1STR    H2A 8685  13.225   5.058   8.351
    1STR    H2B 8686  13.336   5.106   8.224
    1STR    H2C 8687  13.167   5.077   8.185
    1STR   BCK1 8688  12.843   5.066  12.749
    1STR    O03 8689  12.946   5.013  12.788
    1STR    N04 8690  12.824   5.195  12.783
    1STR    C05 8691  12.722   5.292  12.780
    1STR    C06 8692  12.758   5.430  12.764
    1STR    C07 8693  12.663   5.537  12.774
    1STR    N08 8694  12.704   5.673  12.763
    1STR    C09 8695  12.636   5.787  12.787
    1STR    O0A 8696  12.519   5.791  12.826
    1STR    O0B 8697  12.710   5.902  12.766
    1STR    C0C 8698  12.651   6.032  12.789
    1STR    C0D 8699  12.641   6.060  12.941
    1STR    C0E 8700  12.726   6.148  12.718
    1STR    O0F 8701  12.658   6.275  12.736
    1STR    C0G 8702  12.714   6.391  12.671
    1STR    C0H 8703  12.691   6.381  12.519
    1STR    C0I 8704  12.649   6.521  12.726
    1STR    O0J 8705  12.706   6.642  12.672
    1STR    C0K 8706  12.642   6.766  12.708
    1STR    C0M 8707  12.661   6.795  12.858
    1STR    C0N 8708  12.696   6.887  12.625
    1STR    O0O 8709  12.614   7.003  12.646
    1STR    C0P 8710  12.664   7.129  12.642
    1STR    O0Q 8711  12.781   7.158  12.621
    1STR    N0R 8712  12.568   7.217  12.672
    1STR    C0S 8713  12.573   7.354  12.700
    1STR    C0T 8714  12.491   7.398  12.806
    1STR    C0U 8715  12.495   7.532  12.849
    1STR    C0V 8716  12.576   7.627  12.784
    1STR    C0W 8717  12.589   7.763  12.849
    1STR    C0X 8718  12.649   7.589  12.668
    1STR    N0Y 8719  12.729   7.680  12.595
    1STR   BCK2 8720  12.711   7.803  12.544
    1STR    O10 8721  12.803   7.854  12.480
    1STR    C13 8722  12.651   7.451  12.631
    1STR    C14 8723  12.529   5.500  12.795
    1STR    C15 8724  12.492   5.366  12.815
    1STR    C16 8725  12.587   5.262  12.812
    1STR    C17 8726  12.540   5.124  12.854
    1STR    H1B 8727  12.909   5.227  12.825
    1STR    H1C 8728  12.861   5.454  12.746
    1STR    H1D 8729  12.799   5.691  12.735
    1STR    H1E 8730  12.550   6.030  12.748
    1STR    H1F 8731  12.739   6.062  12.987
    1STR    H1G 8732  12.593   6.156  12.959
    1STR    H1H 8733  12.581   5.985  12.991
    1STR    H1I 8734  12.734   6.124  12.612
    1STR    H1J 8735  12.828   6.156  12.756
    1STR    H1K 8736  12.821   6.396  12.692
    1STR    H1M 8737  12.586   6.367  12.496
    1STR    H1N 8738  12.747   6.299  12.474
    1STR    H1O 8739  12.724   6.472  12.469
    1STR    H1P 8740  12.541   6.519  12.706
    1STR    H1Q 8741  12.660   6.520  12.835
    1STR    H1R 8742  12.535   6.757  12.685
    1STR    H1S 8743  12.621   6.893  12.884
    1STR    H1T 8744  12.766   6.794  12.885
    1STR    H1U 8745  12.609   6.722  12.921
    1STR    H1V 8746  12.696   6.864  12.518
    1STR    H1W 8747  12.800   6.908  12.651
    1STR    H1X 8748  12.479   7.170  12.683
    1STR    H1Y 8749  12.429   7.329  12.860
    1STR    H1Z 8750  12.437   7.562  12.935
    1STR    H20 8751  12.681   7.814  12.819
    1STR    H21 8752  12.505   7.827  12.824
    1STR    H22 8753  12.593   7.754  12.958
    1STR    H23 8754  12.818   7.644  12.566
    1STR    H27 8755  12.711   7.418  12.548
    1STR    H28 8756  12.450   5.573  12.800
    1STR    H29 8757  12.388   5.344  12.836
    1STR    H2A 8758  12.505   5.069  12.767
    1STR    H2B 8759  12.457   5.131  12.924
    1STR    H2C 8760  12.619   5.069  12.904
    1STR   BCK1 8761  12.953   9.467  17.186
    1STR    O03 8762  13.065   9.418  17.174
    1STR    N04 8763  12.927   9.583  17.249
    1STR    C05 8764  13.011   9.669  17.324
    1STR    C06 8765  12.997   9.812  17.314
    1STR    C07 8766  13.074   9.904  17.392
    1STR    N08 8767  13.053  10.045  17.383
    1STR    C09 8768  13.116  10.148   0.005
    1STR    O0A 8769  13.211  10.135   0.082
    1STR    O0B 8770  13.064  10.272  17.413
    1STR    C0C 8771  13.124  10.393   0.026
    1STR    C0D 8772  13.253  10.424  17.388
    1STR    C0E 8773  13.028  10.516   0.023
    1STR    O0F 8774  13.092  10.640   0.063
    1STR    C0G 8775  13.007  10.757   0.076
    1STR    C0H 8776  12.933  10.750   0.210
    1STR    C0I 8777  13.090  10.889   0.067
    1STR    O0J 8778  13.006  11.006   0.046
    1STR    C0K 8779  13.068  11.137   0.056
    1STR    C0M 8780  13.184  11.150  17.395
    1STR    C0N 8781  12.963  11.250   0.031
    1STR    O0O 8782  13.019  11.382   0.049
    1STR    C0P 8783  12.971  11.491  17.421
    1STR    O0Q 8784  12.889  11.488  17.331
    1STR    N0R 8785  13.030  11.602   0.028
    1STR    C0S 8786  13.027  11.739  17.434
    1STR    C0T 8787  13.111  11.821   0.072
    1STR    C0U 8788  13.125  11.957   0.044
    1STR    C0V 8789  13.055  12.018  17.378
    1STR    C0W 8790  13.090  12.162  17.346
    1STR    C0X 8791  12.961  11.942  17.303
    1STR    N0Y 8792  12.892  12.001  17.195
    1STR   BCK2 8793  12.828  12.121  17.189
    1STR    O10 8794  12.801  12.191  17.286
    1STR    C13 8795  12.951  11.801  17.330
    1STR    C14 8796  13.170   9.848   0.039
    1STR    C15 8797  13.184   9.709   0.053
    1STR    C16 8798  13.104   9.620  17.420
    1STR    C17 8799  13.118   9.472   0.015
    1STR    H1B 8800  12.830   9.611  17.242
    1STR    H1C 8801  12.924   9.851  17.245
    1STR    H1D 8802  12.979  10.077  17.324
    1STR    H1E 8803  13.151  10.375   0.130
    1STR    H1F 8804  13.232  10.442  17.282
    1STR    H1G 8805  13.303  10.512  17.428
    1STR    H1H 8806  13.324  10.341  17.394
    1STR    H1I 8807  12.943  10.494   0.089
    1STR    H1J 8808  12.986  10.528  17.363
    1STR    H1K 8809  12.936  10.757  17.434
    1STR    H1M 8810  13.003  10.741   0.293
    1STR    H1N 8811  12.865  10.665   0.216
    1STR    H1O 8812  12.874  10.840   0.227
    1STR    H1P 8813  13.150  10.901   0.157
    1STR    H1Q 8814  13.160  10.880  17.424
    1STR    H1R 8815  13.107  11.148   0.157
    1STR    H1S 8816  13.224  11.251  17.397
    1STR    H1T 8817  13.150  11.130  17.294
    1STR    H1U 8818  13.266  11.083  17.418
    1STR    H1V 8819  12.880  11.240   0.100
    1STR    H1W 8820  12.920  11.241  17.371
    1STR    H1X 8821  13.090  11.577   0.105
    1STR    H1Y 8822  13.169  11.780   0.154
    1STR    H1Z 8823  13.193  12.016   0.104
    1STR    H20 8824  13.084  12.182  17.239
    1STR    H21 8825  13.023  12.230  17.398
    1STR    H22 8826  13.192  12.187  17.377
    1STR    H23 8827  12.887  11.948  17.110
    1STR    H27 8828  12.883  11.740  17.272
    1STR    H28 8829  13.234   9.908   0.101
    1STR    H29 8830  13.256   9.671   0.124
    1STR    H2A 8831  13.023   9.420   0.004
    1STR    H2B 8832  13.150   9.459   0.118
    1STR    H2C 8833  13.192   9.425  17.391
    1STR   BCK1 8834  12.836   9.444   3.957
    1STR    O03 8835  12.737   9.453   3.886
    1STR    N04 8836  12.924   9.545   3.975
    1STR    C05 8837  12.943   9.656   3.891
    1STR    C06 8838  12.947   9.792   3.939
    1STR    C07 8839  12.974   9.903   3.852
    1STR    N08 8840  12.981  10.037   3.899
    1STR    C09 8841  12.979  10.153   3.829
    1STR    O0A 8842  12.959  10.160   3.708
    1STR    O0B 8843  13.000  10.267   3.905
    1STR    C0C 8844  12.989  10.398   3.844
    1STR    C0D 8845  12.840  10.435   3.832
    1STR    C0E 8846  13.067  10.512   3.915
    1STR    O0F 8847  13.054  10.635   3.840
    1STR    C0G 8848  13.117  10.755   3.892
    1STR    C0H 8849  13.267  10.751   3.858
    1STR    C0I 8850  13.047  10.879   3.828
    1STR    O0J 8851  13.092  11.007   3.879
    1STR    C0K 8852  13.026  11.124   3.823
    1STR    C0M 8853  12.878  11.125   3.862
    1STR    C0N 8854  13.091  11.259   3.869
    1STR    O0O 8855  13.028  11.369   3.800
    1STR    C0P 8856  13.060  11.498   3.829
    1STR    O0Q 8857  13.146  11.532   3.909
    1STR    N0R 8858  12.988  11.583   3.754
    1STR    C0S 8859  12.999  11.723   3.746
    1STR    C0T 8860  13.087  11.778   3.651
    1STR    C0U 8861  13.097  11.917   3.636
    1STR    C0V 8862  13.019  12.006   3.714
    1STR    C0W 8863  13.048  12.154   3.700
    1STR    C0X 8864  12.923  11.953   3.806
    1STR    N0Y 8865  12.846  12.033   3.893
    1STR   BCK2 8866  12.778  12.149   3.891
    1STR    O10 8867  12.731  12.190   3.996
    1STR    C13 8868  12.917  11.811   3.821
    1STR    C14 8869  12.999   9.873   3.717
    1STR    C15 8870  12.998   9.741   3.668
    1STR    C16 8871  12.973   9.633   3.754
    1STR    C17 8872  12.985   9.493   3.696
    1STR    H1B 8873  12.989   9.532   4.051
    1STR    H1C 8874  12.927   9.809   4.044
    1STR    H1D 8875  12.986  10.052   3.999
    1STR    H1E 8876  13.030  10.391   3.743
    1STR    H1F 8877  12.793  10.443   3.930
    1STR    H1G 8878  12.827  10.530   3.781
    1STR    H1H 8879  12.785  10.360   3.775
    1STR    H1I 8880  13.173  10.485   3.923
    1STR    H1J 8881  13.030  10.526   4.016
    1STR    H1K 8882  13.103  10.760   4.000
    1STR    H1M 8883  13.283  10.741   3.751
    1STR    H1N 8884  13.317  10.668   3.908
    1STR    H1O 8885  13.316  10.843   3.891
    1STR    H1P 8886  13.060  10.876   3.720
    1STR    H1Q 8887  12.941  10.868   3.847
    1STR    H1R 8888  13.035  11.119   3.715
    1STR    H1S 8889  12.829  11.218   3.834
    1STR    H1T 8890  12.865  11.114   3.970
    1STR    H1U 8891  12.821  11.046   3.814
    1STR    H1V 8892  13.198  11.260   3.849
    1STR    H1W 8893  13.080  11.273   3.976
    1STR    H1X 8894  12.920  11.538   3.697
    1STR    H1Y 8895  13.149  11.713   3.591
    1STR    H1Z 8896  13.167  11.957   3.564
    1STR    H20 8897  12.987  12.197   3.622
    1STR    H21 8898  13.029  12.206   3.794
    1STR    H22 8899  13.153  12.171   3.675
    1STR    H23 8900  12.834  11.993   3.984
    1STR    H27 8901  12.849  11.769   3.893
    1STR    H28 8902  13.022   9.949   3.644
    1STR    H29 8903  13.019   9.724   3.564
    1STR    H2A 8904  13.039   9.428   3.765
    1STR    H2B 8905  13.039   9.493   3.602
    1STR    H2C 8906  12.886   9.451   3.679
    1STR   BCK1 8907  12.786   9.442   8.452
    1STR    O03 8908  12.872   9.396   8.528
    1STR    N04 8909  12.733   9.566   8.463
    1STR    C05 8910  12.740   9.660   8.568
    1STR    C06 8911  12.753   9.800   8.541
    1STR    C07 8912  12.748   9.900   8.643
    1STR    N08 8913  12.758  10.039   8.612
    1STR    C09 8914  12.717  10.146   8.685
    1STR    O0A 8915  12.657  10.137   8.792
    1STR    O0B 8916  12.749  10.267   8.628
    1STR    C0C 8917  12.717  10.391   8.696
    1STR    C0D 8918  12.819  10.415   8.809
    1STR    C0E 8919  12.711  10.513   8.599
    1STR    O0F 8920  12.678  10.637   8.666
    1STR    C0G 8921  12.658  10.753   8.584
    1STR    C0H 8922  12.521  10.743   8.515
    1STR    C0I 8923  12.666  10.885   8.668
    1STR    O0J 8924  12.662  11.004   8.585
    1STR    C0K 8925  12.651  11.131   8.652
    1STR    C0M 8926  12.776  11.157   8.737
    1STR    C0N 8927  12.632  11.247   8.548
    1STR    O0O 8928  12.609  11.374   8.612
    1STR    C0P 8929  12.633  11.491   8.548
    1STR    O0Q 8930  12.680  11.502   8.435
    1STR    N0R 8931  12.604  11.594   8.628
    1STR    C0S 8932  12.621  11.734   8.616
    1STR    C0T 8933  12.614  11.807   8.736
    1STR    C0U 8934  12.640  11.945   8.738
    1STR    C0V 8935  12.673  12.015   8.620
    1STR    C0W 8936  12.721  12.158   8.635
    1STR    C0X 8937  12.669  11.947   8.495
    1STR    N0Y 8938  12.701  12.009   8.372
    1STR   BCK2 8939  12.675  12.126   8.310
    1STR    O10 8940  12.725  12.145   8.200
    1STR    C13 8941  12.646  11.806   8.496
    1STR    C14 8942  12.734   9.855   8.776
    1STR    C15 8943  12.719   9.719   8.805
    1STR    C16 8944  12.718   9.622   8.704
    1STR    C17 8945  12.686   9.479   8.745
    1STR    H1B 8946  12.673   9.590   8.386
    1STR    H1C 8947  12.766   9.830   8.438
    1STR    H1D 8948  12.798  10.064   8.524
    1STR    H1E 8949  12.618  10.380   8.740
    1STR    H1F 8950  12.920  10.425   8.770
    1STR    H1G 8951  12.794  10.507   8.864
    1STR    H1H 8952  12.818  10.334   8.881
    1STR    H1I 8953  12.637  10.491   8.522
    1STR    H1J 8954  12.807  10.524   8.548
    1STR    H1K 8955  12.737  10.758   8.508
    1STR    H1M 8956  12.441  10.729   8.588
    1STR    H1N 8957  12.516  10.660   8.445
    1STR    H1O 8958  12.499  10.833   8.458
    1STR    H1P 8959  12.584  10.886   8.740
    1STR    H1Q 8960  12.758  10.883   8.725
    1STR    H1R 8961  12.563  11.129   8.716
    1STR    H1S 8962  12.774  11.257   8.780
    1STR    H1T 8963  12.867  11.149   8.676
    1STR    H1U 8964  12.785  11.087   8.820
    1STR    H1V 8965  12.547  11.226   8.483
    1STR    H1W 8966  12.719  11.253   8.483
    1STR    H1X 8967  12.566  11.559   8.714
    1STR    H1Y 8968  12.593  11.758   8.830
    1STR    H1Z 8969  12.640  11.997   8.832
    1STR    H20 8970  12.787  12.186   8.554
    1STR    H21 8971  12.636  12.227   8.638
    1STR    H22 8972  12.777  12.170   8.727
    1STR    H23 8973  12.752  11.950   8.309
    1STR    H27 8974  12.649  11.751   8.403
    1STR    H28 8975  12.732   9.924   8.859
    1STR    H29 8976  12.704   9.689   8.908
    1STR    H2A 8977  12.628   9.427   8.670
    1STR    H2B 8978  12.627   9.477   8.837
    1STR    H2C 8979  12.778   9.423   8.764
    1STR   BCK1 8980  12.984   9.468  12.718
    1STR    O03 8981  13.079   9.420  12.656
    1STR    N04 8982  12.989   9.584  12.786
    1STR    C05 8983  13.097   9.672  12.812
    1STR    C06 8984  13.076   9.814  12.815
    1STR    C07 8985  13.181   9.909  12.844
    1STR    N08 8986  13.156  10.048  12.852
    1STR    C09 8987  13.241  10.153  12.862
    1STR    O0A 8988  13.364  10.143  12.860
    1STR    O0B 8989  13.178  10.275  12.875
    1STR    C0C 8990  13.255  10.399  12.868
    1STR    C0D 8991  13.276  10.432  12.719
    1STR    C0E 8992  13.190  10.520  12.942
    1STR    O0F 8993  13.265  10.642  12.924
    1STR    C0G 8994  13.218  10.760  12.992
    1STR    C0H 8995  13.273  10.757  13.136
    1STR    C0I 8996  13.264  10.889  12.918
    1STR    O0J 8997  13.200  11.011  12.965
    1STR    C0K 8998  13.245  11.137  12.909
    1STR    C0M 8999  13.232  11.136  12.756
    1STR    C0N 9000  13.164  11.258  12.966
    1STR    O0O 9001  13.220  11.384  12.924
    1STR    C0P 9002  13.143  11.496  12.905
    1STR    O0Q 9003  13.021  11.500  12.907
    1STR    N0R 9004  13.223  11.602  12.887
    1STR    C0S 9005  13.202  11.740  12.865
    1STR    C0T 9006  13.311  11.822  12.898
    1STR    C0U 9007  13.311  11.959  12.869
    1STR    C0V 9008  13.201  12.019  12.805
    1STR    C0W 9009  13.218  12.164  12.762
    1STR    C0X 9010  13.084  11.943  12.777
    1STR    N0Y 9011  12.976  12.001  12.707
    1STR   BCK2 9012  12.916  12.122  12.723
    1STR    O10 9013  12.931  12.194  12.821
    1STR    C13 9014  13.087  11.802  12.806
    1STR    C14 9015  13.309   9.855  12.868
    1STR    C15 9016  13.332   9.717  12.869
    1STR    C16 9017  13.227   9.625  12.846
    1STR    C17 9018  13.262   9.478  12.866
    1STR    H1B 9019  12.898   9.612  12.819
    1STR    H1C 9020  12.977   9.851  12.794
    1STR    H1D 9021  13.060  10.078  12.848
    1STR    H1E 9022  13.353  10.382  12.913
    1STR    H1F 9023  13.181  10.449  12.669
    1STR    H1G 9024  13.338  10.521  12.707
    1STR    H1H 9025  13.327  10.350  12.667
    1STR    H1I 9026  13.184  10.496  13.049
    1STR    H1J 9027  13.088  10.534  12.907
    1STR    H1K 9028  13.109  10.760  12.994
    1STR    H1M 9029  13.382  10.751  13.136
    1STR    H1N 9030  13.235  10.672  13.192
    1STR    H1O 9031  13.245  10.847  13.190
    1STR    H1P 9032  13.373  10.899  12.924
    1STR    H1Q 9033  13.240  10.876  12.812
    1STR    H1R 9034  13.350  11.150  12.937
    1STR    H1S 9035  13.255  11.234  12.714
    1STR    H1T 9036  13.130  11.111  12.726
    1STR    H1U 9037  13.300  11.066  12.709
    1STR    H1V 9038  13.166  11.256  13.075
    1STR    H1W 9039  13.059  11.251  12.938
    1STR    H1X 9040  13.318  11.572  12.896
    1STR    H1Y 9041  13.399  11.780  12.946
    1STR    H1Z 9042  13.397  12.018  12.894
    1STR    H20 9043  13.169  12.182  12.666
    1STR    H21 9044  13.177  12.231  12.836
    1STR    H22 9045  13.323  12.189  12.748
    1STR    H23 9046  12.936  11.946  12.633
    1STR    H27 9047  13.002  11.740  12.782
    1STR    H28 9048  13.394   9.917  12.889
    1STR    H29 9049  13.431   9.680  12.891
    1STR    H2A 9050  13.176   9.422  12.903
    1STR    H2B 9051  13.341   9.466  12.940
    1STR    H2C 9052  13.296   9.435  12.773
    1STR   BCK1 9053  12.818  13.792  17.075
    1STR    O03 9054  12.734  13.775  17.163
    1STR    N04 9055  12.847  13.911  17.020
    1STR    C05 9056  12.765  14.026  17.016
    1STR    C06 9057  12.816  14.158  17.039
    1STR    C07 9058  12.734  14.274  17.024
    1STR    N08 9059  12.784  14.406  17.039
    1STR    C09 9060  12.732  14.522  16.993
    1STR    O0A 9061  12.631  14.529  16.923
    1STR    O0B 9062  12.801  14.635  17.032
    1STR    C0C 9063  12.745  14.766  17.007
    1STR    C0D 9064  12.644  14.797  17.119
    1STR    C0E 9065  12.849  14.881  16.993
    1STR    O0F 9066  12.781  15.006  16.963
    1STR    C0G 9067  12.863  15.121  16.937
    1STR    C0H 9068  12.924  15.108  16.796
    1STR    C0I 9069  12.777  15.251  16.947
    1STR    O0J 9070  12.854  15.372  16.931
    1STR    C0K 9071  12.782  15.497  16.923
    1STR    C0M 9072  12.712  15.527  17.057
    1STR    C0N 9073  12.878  15.613  16.885
    1STR    O0O 9074  12.810  15.730  16.834
    1STR    C0P 9075  12.798  15.844  16.906
    1STR    O0Q 9076  12.830  15.858  17.024
    1STR    N0R 9077  12.741  15.941  16.833
    1STR    C0S 9078  12.693  16.066  16.876
    1STR    C0T 9079  12.554  16.078  16.894
    1STR    C0U 9080  12.498  16.199  16.940
    1STR    C0V 9081  12.579  16.311  16.966
    1STR    C0W 9082  12.514  16.430  17.035
    1STR    C0X 9083  12.718  16.305  16.939
    1STR    N0Y 9084  12.804  16.413  16.970
    1STR   BCK2 9085  12.802  16.546  16.948
    1STR    O10 9086  12.883  16.616  17.008
    1STR    C13 9087  12.774  16.180  16.898
    1STR    C14 9088  12.597  14.252  16.994
    1STR    C15 9089  12.547  14.124  16.967
    1STR    C16 9090  12.631  14.012  16.973
    1STR    C17 9091  12.572  13.879  16.926
    1STR    H1B 9092  12.935  13.916  16.971
    1STR    H1C 9093  12.920  14.170  17.066
    1STR    H1D 9094  12.872  14.419  17.088
    1STR    H1E 9095  12.692  14.763  16.912
    1STR    H1F 9096  12.693  14.802  17.216
    1STR    H1G 9097  12.595  14.893  17.101
    1STR    H1H 9098  12.566  14.721  17.124
    1STR    H1I 9099  12.919  14.856  16.914
    1STR    H1J 9100  12.907  14.891  17.085
    1STR    H1K 9101  12.943  15.128  17.011
    1STR    H1M 9102  12.848  15.094  16.720
    1STR    H1N 9103  12.995  15.026  16.789
    1STR    H1O 9104  12.980  15.199  16.770
    1STR    H1P 9105  12.698  15.247  16.872
    1STR    H1Q 9106  12.728  15.252  17.044
    1STR    H1R 9107  12.708  15.488  16.844
    1STR    H1S 9108  12.667  15.626  17.056
    1STR    H1T 9109  12.785  15.526  17.139
    1STR    H1U 9110  12.634  15.455  17.081
    1STR    H1V 9111  12.945  15.579  16.806
    1STR    H1W 9112  12.944  15.639  16.969
    1STR    H1X 9113  12.725  15.914  16.738
    1STR    H1Y 9114  12.489  15.993  16.877
    1STR    H1Z 9115  12.392  16.204  16.959
    1STR    H20 9116  12.585  16.479  17.102
    1STR    H21 9117  12.479  16.503  16.962
    1STR    H22 9118  12.429  16.399  17.095
    1STR    H23 9119  12.886  16.387  17.023
    1STR    H27 9120  12.881  16.171  16.883
    1STR    H28 9121  12.527  14.334  16.987
    1STR    H29 9122  12.444  14.114  16.938
    1STR    H2A 9123  12.647  13.822  16.870
    1STR    H2B 9124  12.488  13.895  16.858
    1STR    H2C 9125  12.538  13.820  17.010
    1STR   BCK1 9126  12.883  13.815   4.139
    1STR    O03 9127  12.993  13.765   4.162
    1STR    N04 9128  12.843  13.936   4.187
    1STR    C05 9129  12.903  14.024   4.280
    1STR    C06 9130  12.895  14.166   4.261
    1STR    C07 9131  12.946  14.260   4.356
    1STR    N08 9132  12.934  14.401   4.336
    1STR    C09 9133  12.948  14.503   4.424
    1STR    O0A 9134  12.970  14.489   4.544
    1STR    O0B 9135  12.935  14.627   4.366
    1STR    C0C 9136  12.962  14.748   4.442
    1STR    C0D 9137  13.114  14.772   4.445
    1STR    C0E 9138  12.887  14.874   4.386
    1STR    O0F 9139  12.917  14.996   4.458
    1STR    C0G 9140  12.839  15.113   4.423
    1STR    C0H 9141  12.704  15.104   4.496
    1STR    C0I 9142  12.912  15.246   4.460
    1STR    O0J 9143  12.846  15.362   4.405
    1STR    C0K 9144  12.890  15.493   4.446
    1STR    C0M 9145  13.040  15.512   4.414
    1STR    C0N 9146  12.807  15.606   4.377
    1STR    O0O 9147  12.844  15.737   4.422
    1STR    C0P 9148  12.813  15.849   4.350
    1STR    O0Q 9149  12.754  15.850   4.243
    1STR    N0R 9150  12.858  15.958   4.414
    1STR    C0S 9151  12.863  16.096   4.386
    1STR    C0T 9152  12.926  16.174   4.485
    1STR    C0U 9153  12.948  16.311   4.466
    1STR    C0V 9154  12.906  16.375   4.348
    1STR    C0W 9155  12.949  16.520   4.330
    1STR    C0X 9156  12.834  16.303   4.249
    1STR    N0Y 9157  12.793  16.368   4.131
    1STR   BCK2 9158  12.730  16.486   4.115
    1STR    O10 9159  12.676  16.548   4.207
    1STR    C13 9160  12.815  16.162   4.269
    1STR    C14 9161  13.011  14.208   4.470
    1STR    C15 9162  13.017  14.069   4.492
    1STR    C16 9163  12.961  13.977   4.402
    1STR    C17 9164  12.961  13.831   4.444
    1STR    H1B 9165  12.755  13.965   4.149
    1STR    H1C 9166  12.848  14.203   4.172
    1STR    H1D 9167  12.911  14.433   4.244
    1STR    H1E 9168  12.927  14.734   4.545
    1STR    H1F 9169  13.154  14.787   4.345
    1STR    H1G 9170  13.138  14.861   4.504
    1STR    H1H 9171  13.166  14.688   4.490
    1STR    H1I 9172  12.780  14.853   4.390
    1STR    H1J 9173  12.912  14.887   4.281
    1STR    H1K 9174  12.824  15.114   4.315
    1STR    H1M 9175  12.718  15.096   4.604
    1STR    H1N 9176  12.645  15.019   4.463
    1STR    H1O 9177  12.645  15.194   4.477
    1STR    H1P 9178  12.920  15.255   4.569
    1STR    H1Q 9179  13.014  15.241   4.422
    1STR    H1R 9180  12.876  15.502   4.554
    1STR    H1S 9181  13.072  15.614   4.437
    1STR    H1T 9182  13.060  15.495   4.308
    1STR    H1U 9183  13.104  15.446   4.472
    1STR    H1V 9184  12.700  15.592   4.397
    1STR    H1W 9185  12.818  15.600   4.269
    1STR    H1X 9186  12.900  15.929   4.501
    1STR    H1Y 9187  12.962  16.129   4.576
    1STR    H1Z 9188  13.001  16.367   4.542
    1STR    H20 9189  12.972  16.542   4.225
    1STR    H21 9190  12.870  16.588   4.363
    1STR    H22 9191  13.039  16.543   4.387
    1STR    H23 9192  12.816  16.322   4.044
    1STR    H27 9193  12.765  16.104   4.193
    1STR    H28 9194  13.056  14.271   4.544
    1STR    H29 9195  13.064  14.034   4.583
    1STR    H2A 9196  12.873  13.779   4.407
    1STR    H2B 9197  12.960  13.822   4.553
    1STR    H2C 9198  13.050  13.781   4.408
    1STR   BCK1 9199  12.895  13.817   8.320
    1STR    O03 9200  12.827  13.839   8.221
    1STR    N04 9201  12.980  13.908   8.374
    1STR    C05 9202  13.042  14.016   8.307
    1STR    C06 9203  13.028  14.153   8.346
    1STR    C07 9204  13.102  14.259   8.283
    1STR    N08 9205  13.092  14.396   8.323
    1STR    C09 9206  13.132  14.508   8.258
    1STR    O0A 9207  13.177  14.508   8.144
    1STR    O0B 9208  13.115  14.625   8.330
    1STR    C0C 9209  13.146  14.753   8.268
    1STR    C0D 9210  13.031  14.791   8.172
    1STR    C0E 9211  13.174  14.871   8.367
    1STR    O0F 9212  13.198  14.995   8.295
    1STR    C0G 9213  13.224  15.115   8.371
    1STR    C0H 9214  13.369  15.112   8.422
    1STR    C0I 9215  13.200  15.241   8.281
    1STR    O0J 9216  13.200  15.368   8.352
    1STR    C0K 9217  13.179  15.487   8.272
    1STR    C0M 9218  13.038  15.486   8.211
    1STR    C0N 9219  13.198  15.619   8.353
    1STR    O0O 9220  13.197  15.734   8.265
    1STR    C0P 9221  13.144  15.854   8.302
    1STR    O0Q 9222  13.081  15.875   8.405
    1STR    N0R 9223  13.176  15.948   8.212
    1STR    C0S 9224  13.155  16.088   8.208
    1STR    C0T 9225  13.257  16.164   8.149
    1STR    C0U 9226  13.248  16.304   8.141
    1STR    C0V 9227  13.134  16.372   8.190
    1STR    C0W 9228  13.142  16.524   8.193
    1STR    C0X 9229  13.024  16.299   8.242
    1STR    N0Y 9230  12.909  16.359   8.297
    1STR   BCK2 9231  12.828  16.464   8.272
    1STR    O10 9232  12.740  16.488   8.353
    1STR    C13 9233  13.039  16.156   8.254
    1STR    C14 9234  13.191  14.221   8.180
    1STR    C15 9235  13.207  14.087   8.141
    1STR    C16 9236  13.134  13.984   8.204
    1STR    C17 9237  13.162  13.841   8.163
    1STR    H1B 9238  13.021  13.880   8.461
    1STR    H1C 9239  12.960  14.177   8.426
    1STR    H1D 9240  13.049  14.415   8.412
    1STR    H1E 9241  13.237  14.741   8.208
    1STR    H1F 9242  12.937  14.806   8.226
    1STR    H1G 9243  13.054  14.883   8.119
    1STR    H1H 9244  13.015  14.714   8.097
    1STR    H1I 9245  13.261  14.846   8.428
    1STR    H1J 9246  13.090  14.884   8.435
    1STR    H1K 9247  13.155  15.121   8.455
    1STR    H1M 9248  13.440  15.100   8.339
    1STR    H1N 9249  13.386  15.030   8.492
    1STR    H1O 9250  13.395  15.204   8.473
    1STR    H1P 9251  13.274  15.244   8.201
    1STR    H1Q 9252  13.103  15.227   8.233
    1STR    H1R 9253  13.254  15.487   8.192
    1STR    H1S 9254  13.018  15.581   8.160
    1STR    H1T 9255  12.963  15.474   8.288
    1STR    H1U 9256  13.025  15.408   8.136
    1STR    H1V 9257  13.293  15.619   8.405
    1STR    H1W 9258  13.121  15.628   8.430
    1STR    H1X 9259  13.233  15.909   8.139
    1STR    H1Y 9260  13.347  16.117   8.112
    1STR    H1Z 9261  13.330  16.360   8.100
    1STR    H20 9262  13.108  16.566   8.099
    1STR    H21 9263  13.083  16.565   8.275
    1STR    H22 9264  13.245  16.557   8.209
    1STR    H23 9265  12.875  16.312   8.379
    1STR    H27 9266  12.960  16.098   8.298
    1STR    H28 9267  13.253  14.292   8.128
    1STR    H29 9268  13.277  14.063   8.063
    1STR    H2A 9269  13.179  13.778   8.250
    1STR    H2B 9270  13.250  13.833   8.099
    1STR    H2C 9271  13.077  13.801   8.107
    1STR   BCK1 9272  12.841  13.789  12.759
    1STR    O03 9273  12.953  13.741  12.762
    1STR    N04 9274  12.828  13.916  12.804
    1STR    C05 9275  12.727  14.008  12.840
    1STR    C06 9276  12.751  14.147  12.819
    1STR    C07 9277  12.664  14.250  12.867
    1STR    N08 9278  12.695  14.387  12.849
    1STR    C09 9279  12.627  14.499  12.885
    1STR    O0A 9280  12.518  14.499  12.940
    1STR    O0B 9281  12.695  14.615  12.855
    1STR    C0C 9282  12.642  14.744  12.897
    1STR    C0D 9283  12.677  14.767  13.045
    1STR    C0E 9284  12.693  14.862  12.809
    1STR    O0F 9285  12.631  14.988  12.847
    1STR    C0G 9286  12.663  15.103  12.766
    1STR    C0H 9287  12.587  15.094  12.633
    1STR    C0I 9288  12.624  15.234  12.841
    1STR    O0J 9289  12.660  15.354  12.768
    1STR    C0K 9290  12.617  15.480  12.822
    1STR    C0M 9291  12.686  15.506  12.957
    1STR    C0N 9292  12.645  15.600  12.725
    1STR    O0O 9293  12.590  15.720  12.782
    1STR    C0P 9294  12.621  15.843  12.733
    1STR    O0Q 9295  12.683  15.867  12.630
    1STR    N0R 9296  12.575  15.933  12.819
    1STR    C0S 9297  12.582  16.073  12.831
    1STR    C0T 9298  12.554  16.122  12.960
    1STR    C0U 9299  12.550  16.259  12.986
    1STR    C0V 9300  12.572  16.353  12.884
    1STR    C0W 9301  12.554  16.499  12.924
    1STR    C0X 9302  12.606  16.310  12.752
    1STR    N0Y 9303  12.621  16.400  12.645
    1STR   BCK2 9304  12.675  16.524  12.638
    1STR    O10 9305  12.742  16.577  12.726
    1STR    C13 9306  12.609  16.168  12.727
    1STR    C14 9307  12.548  14.206  12.936
    1STR    C15 9308  12.524  14.070  12.959
    1STR    C16 9309  12.613  13.970  12.915
    1STR    C17 9310  12.588  13.828  12.961
    1STR    H1B 9311  12.921  13.950  12.822
    1STR    H1C 9312  12.841  14.177  12.767
    1STR    H1D 9313  12.782  14.410  12.805
    1STR    H1E 9314  12.534  14.741  12.887
    1STR    H1F 9315  12.784  14.770  13.062
    1STR    H1G 9316  12.635  14.862  13.080
    1STR    H1H 9317  12.635  14.689  13.108
    1STR    H1I 9318  12.672  14.839  12.705
    1STR    H1J 9319  12.802  14.871  12.818
    1STR    H1K 9320  12.770  15.106  12.748
    1STR    H1M 9321  12.480  15.083  12.649
    1STR    H1N 9322  12.620  15.011  12.572
    1STR    H1O 9323  12.602  15.184  12.574
    1STR    H1P 9324  12.517  15.234  12.862
    1STR    H1Q 9325  12.675  15.234  12.937
    1STR    H1R 9326  12.509  15.475  12.837
    1STR    H1S 9327  12.662  15.605  12.996
    1STR    H1T 9328  12.794  15.500  12.947
    1STR    H1U 9329  12.655  15.435  13.034
    1STR    H1V 9330  12.601  15.582  12.627
    1STR    H1W 9331  12.752  15.612  12.708
    1STR    H1X 9332  12.536  15.884  12.897
    1STR    H1Y 9333  12.536  16.054  13.042
    1STR    H1Z 9334  12.529  16.293  13.086
    1STR    H20 9335  12.650  16.542  12.951
    1STR    H21 9336  12.510  16.557  12.843
    1STR    H22 9337  12.489  16.509  13.010
    1STR    H23 9338  12.590  16.369  12.554
    1STR    H27 9339  12.632  16.132  12.629
    1STR    H28 9340  12.476  14.276  12.976
    1STR    H29 9341  12.437  14.042  13.016
    1STR    H2A 9342  12.531  13.774  12.887
    1STR    H2B 9343  12.531  13.827  13.054
    1STR    H2C 9344  12.681  13.776  12.981
    1STR   BCK1 9345  17.373  17.244   0.702
    1STR    O03 9346  17.437  17.146   0.665
    1STR    N04 9347  17.291  17.248   0.807
    1STR    C05 9348  17.251  17.144   0.891
    1STR    C06 9349  17.255  17.162   1.031
    1STR    C07 9350  17.211  17.062   1.122
    1STR    N08 9351  17.214  17.088   1.260
    1STR    C09 9352  17.177  17.011   1.364
    1STR    O0A 9353  17.133  16.897   1.355
    1STR    O0B 9354  17.195  17.077   1.480
    1STR    C0C 9355  17.172  17.010   1.605
    1STR    C0D 9356  17.299  16.934   1.645
    1STR    C0E 9357  17.129  17.110   1.714
    1STR    O0F 9358  17.098  17.036   1.832
    1STR    C0G 9359  17.059  17.114   1.945
    1STR    C0H 9360  16.909  17.147   1.934
    1STR    C0I 9361  17.090  17.032   2.071
    1STR    O0J 9362  17.059  17.110   2.186
    1STR    C0K 9363  17.074  17.045   2.313
    1STR    C0M 9364  17.222  17.024   2.346
    1STR    C0N 9365  17.005  17.135   2.417
    1STR    O0O 9366  16.989  17.068   2.541
    1STR    C0P 9367  17.064  17.101   2.647
    1STR    O0Q 9368  17.154  17.184   2.648
    1STR    N0R 9369  17.023  17.029   2.752
    1STR    C0S 9370  17.068  17.023   2.884
    1STR    C0T 9371  17.001  16.934   2.971
    1STR    C0U 9372  17.043  16.917   3.104
    1STR    C0V 9373  17.154  16.989   3.154
    1STR    C0W 9374  17.201  16.957   3.295
    1STR    C0X 9375  17.219  17.084   3.071
    1STR    N0Y 9376  17.331  17.156   3.112
    1STR   BCK2 9377  17.351  17.223   3.225
    1STR    O10 9378  17.267  17.246   3.311
    1STR    C13 9379  17.176  17.098   2.936
    1STR    C14 9380  17.163  16.941   1.067
    1STR    C15 9381  17.156  16.922   0.928
    1STR    C16 9382  17.197  17.023   0.839
    1STR    C17 9383  17.177  17.000   0.690
    1STR    H1B 9384  17.257  17.340   0.830
    1STR    H1C 9385  17.294  17.255   1.070
    1STR    H1D 9386  17.249  17.176   1.291
    1STR    H1E 9387  17.090  16.938   1.593
    1STR    H1F 9388  17.384  17.001   1.659
    1STR    H1G 9389  17.285  16.880   1.739
    1STR    H1H 9390  17.327  16.860   1.570
    1STR    H1I 9391  17.043  17.167   1.680
    1STR    H1J 9392  17.209  17.181   1.733
    1STR    H1K 9393  17.118  17.206   1.950
    1STR    H1M 9394  16.850  17.056   1.926
    1STR    H1N 9395  16.888  17.210   1.848
    1STR    H1O 9396  16.875  17.201   2.022
    1STR    H1P 9397  17.033  16.938   2.071
    1STR    H1Q 9398  17.196  17.004   2.071
    1STR    H1R 9399  17.022  16.949   2.310
    1STR    H1S 9400  17.234  16.981   2.446
    1STR    H1T 9401  17.277  17.117   2.343
    1STR    H1U 9402  17.271  16.954   2.277
    1STR    H1V 9403  16.905  17.162   2.381
    1STR    H1W 9404  17.058  17.230   2.427
    1STR    H1X 9405  16.948  16.969   2.725
    1STR    H1Y 9406  16.917  16.876   2.935
    1STR    H1Z 9407  16.992  16.847   3.167
    1STR    H20 9408  17.310  16.964   3.302
    1STR    H21 9409  17.157  17.027   3.366
    1STR    H22 9410  17.173  16.856   3.324
    1STR    H23 9411  17.405  17.165   3.044
    1STR    H27 9412  17.228  17.168   2.873
    1STR    H28 9413  17.128  16.860   1.129
    1STR    H29 9414  17.116  16.829   0.890
    1STR    H2A 9415  17.153  17.092   0.639
    1STR    H2B 9416  17.095  16.930   0.672
    1STR    H2C 9417  17.267  16.958   0.646
    1STR   BCK1 9418  17.436  17.357   5.063
    1STR    O03 9419  17.433   0.039   5.051
    1STR    N04 9420   0.051  17.292   5.166
    1STR    C05 9421   0.131  17.351   5.263
    1STR    C06 9422   0.097  17.337   5.400
    1STR    C07 9423   0.178  17.394   5.501
    1STR    N08 9424   0.142  17.378   5.635
    1STR    C09 9425   0.220  17.382   5.743
    1STR    O0A 9426   0.343  17.393   5.741
    1STR    O0B 9427   0.146  17.373   5.854
    1STR    C0C 9428   0.203  17.405   5.981
    1STR    C0D 9429   0.155   0.105   6.021
    1STR    C0E 9430   0.164  17.298   6.084
    1STR    O0F 9431   0.233  17.328   6.205
    1STR    C0G 9432   0.211  17.240   6.313
    1STR    C0H 9433   0.298  17.114   6.297
    1STR    C0I 9434   0.248  17.319   6.440
    1STR    O0J 9435   0.223  17.238   6.554
    1STR    C0K 9436   0.262  17.297   6.678
    1STR    C0M 9437   0.159  17.404   6.721
    1STR    C0N 9438   0.271  17.182   6.780
    1STR    O0O 9439   0.329  17.228   6.901
    1STR    C0P 9440   0.252  17.250   7.008
    1STR    O0Q 9441   0.132  17.228   7.015
    1STR    N0R 9442   0.328  17.302   7.105
    1STR    C0S 9443   0.293  17.346   7.233
    1STR    C0T 9444   0.385  17.430   7.300
    1STR    C0U 9445   0.356   0.040   7.429
    1STR    C0V 9446   0.235   0.006   7.493
    1STR    C0W 9447   0.204   0.066   7.629
    1STR    C0X 9448   0.144  17.358   7.429
    1STR    N0Y 9449   0.027  17.319   7.491
    1STR   BCK2 9450   0.015  17.235   7.594
    1STR    O10 9451  17.346  17.211   7.644
    1STR    C13 9452   0.173  17.310   7.299
    1STR    C14 9453   0.292   0.028   5.462
    1STR    C15 9454   0.328   0.040   5.327
    1STR    C16 9455   0.249  17.420   5.227
    1STR    C17 9456   0.297  17.430   5.083
    1STR    H1B 9457   0.037  17.192   5.168
    1STR    H1C 9458   0.007  17.283   5.426
    1STR    H1D 9459   0.045  17.363   5.657
    1STR    H1E 9460   0.312  17.406   5.976
    1STR    H1F 9461   0.046   0.109   6.028
    1STR    H1G 9462   0.196   0.135   6.117
    1STR    H1H 9463   0.186   0.179   5.947
    1STR    H1I 9464   0.191  17.200   6.047
    1STR    H1J 9465   0.056  17.298   6.100
    1STR    H1K 9466   0.105  17.213   6.320
    1STR    H1M 9467   0.403  17.141   6.286
    1STR    H1N 9468   0.269  17.056   6.209
    1STR    H1O 9469   0.289  17.049   6.384
    1STR    H1P 9470   0.353  17.349   6.435
    1STR    H1Q 9471   0.189  17.410   6.443
    1STR    H1R 9472   0.361  17.342   6.669
    1STR    H1S 9473   0.184   0.006   6.818
    1STR    H1T 9474   0.059  17.361   6.728
    1STR    H1U 9475   0.155   0.047   6.651
    1STR    H1V 9476   0.335  17.104   6.740
    1STR    H1W 9477   0.173  17.135   6.795
    1STR    H1X 9478   0.423  17.315   7.075
    1STR    H1Y 9479   0.479   0.018   7.255
    1STR    H1Z 9480   0.427   0.105   7.477
    1STR    H20 9481   0.097   0.081   7.642
    1STR    H21 9482   0.239  17.439   7.708
    1STR    H22 9483   0.252   0.162   7.641
    1STR    H23 9484  17.379  17.351   7.453
    1STR    H27 9485   0.103  17.244   7.252
    1STR    H28 9486   0.354   0.077   5.536
    1STR    H29 9487   0.416   0.097   5.301
    1STR    H2A 9488   0.274  17.339   5.027
    1STR    H2B 9489   0.405   0.006   5.078
    1STR    H2C 9490   0.248   0.074   5.033
    1STR   BCK1 9491  17.339  17.365   9.421
    1STR    O03 9492  17.288  17.257   9.389
    1STR    N04 9493  17.301  17.440   9.525
    1STR    C05 9494  17.193  17.420   9.610
    1STR    C06 9495  17.214  17.419   9.751
    1STR    C07 9496  17.106  17.407   9.842
    1STR    N08 9497  17.132  17.410   9.980
    1STR    C09 9498  17.048  17.435  10.082
    1STR    O0A 9499  16.930   0.024  10.070
    1STR    O0B 9500  17.112  17.424  10.201
    1STR    C0C 9501  17.038  17.437  10.323
    1STR    C0D 9502  16.972  17.302  10.357
    1STR    C0E 9503  17.131   0.045  10.437
    1STR    O0F 9504  17.054   0.062  10.556
    1STR    C0G 9505  17.125   0.110  10.670
    1STR    C0H 9506  17.143   0.262  10.658
    1STR    C0I 9507  17.045   0.074  10.796
    1STR    O0J 9508  17.120   0.110  10.913
    1STR    C0K 9509  17.055   0.089  11.038
    1STR    C0M 9510  17.051  17.379  11.072
    1STR    C0N 9511  17.134   0.168  11.144
    1STR    O0O 9512  17.068   0.165  11.271
    1STR    C0P 9513  17.123   0.103  11.376
    1STR    O0Q 9514  17.229   0.040  11.374
    1STR    N0R 9515  17.044   0.119  11.483
    1STR    C0S 9516  17.054   0.073  11.614
    1STR    C0T 9517  16.946   0.102  11.701
    1STR    C0U 9518  16.945   0.054  11.833
    1STR    C0V 9519  17.051  17.416  11.883
    1STR    C0W 9520  17.039  17.359  12.023
    1STR    C0X 9521  17.162  17.389  11.800
    1STR    N0Y 9522  17.265  17.304  11.842
    1STR   BCK2 9523  17.342  17.312  11.951
    1STR    O10 9524  17.346  17.408  12.028
    1STR    C13 9525  17.162  17.436  11.666
    1STR    C14 9526  16.976  17.391   9.790
    1STR    C15 9527  16.954  17.394   9.651
    1STR    C16 9528  17.060  17.410   9.561
    1STR    C17 9529  17.028  17.422   9.413
    1STR    H1B 9530  17.360   0.080   9.542
    1STR    H1C 9531  17.315  17.429   9.788
    1STR    H1D 9532  17.226  17.393  10.011
    1STR    H1E 9533  16.960   0.073  10.311
    1STR    H1F 9534  17.047  17.224  10.370
    1STR    H1G 9535  16.914  17.309  10.449
    1STR    H1H 9536  16.904  17.271  10.277
    1STR    H1I 9537  17.177   0.139  10.407
    1STR    H1J 9538  17.211  17.413  10.453
    1STR    H1K 9539  17.223   0.061  10.676
    1STR    H1M 9540  17.047   0.313  10.645
    1STR    H1N 9541  17.207   0.290  10.573
    1STR    H1O 9542  17.190   0.303  10.747
    1STR    H1P 9543  16.948   0.124  10.795
    1STR    H1Q 9544  17.026  17.406  10.796
    1STR    H1R 9545  16.953   0.129  11.034
    1STR    H1S 9546  17.009  17.363  11.171
    1STR    H1T 9547  17.152  17.337  11.073
    1STR    H1U 9548  16.991  17.322  11.002
    1STR    H1V 9549  17.142   0.273  11.114
    1STR    H1W 9550  17.237   0.132  11.150
    1STR    H1X 9551  16.964   0.174  11.458
    1STR    H1Y 9552  16.862   0.159  11.666
    1STR    H1Z 9553  16.860   0.076  11.896
    1STR    H20 9554  17.083  17.259  12.028
    1STR    H21 9555  17.091  17.422  12.094
    1STR    H22 9556  16.935  17.350  12.054
    1STR    H23 9557  17.287  17.226  11.782
    1STR    H27 9558  17.246  17.413  11.603
    1STR    H28 9559  16.891  17.379   9.854
    1STR    H29 9560  16.853  17.384   9.614
    1STR    H2A 9561  17.095   0.053   9.364
    1STR    H2B 9562  16.926   0.016   9.397
    1STR    H2C 9563  17.039  17.325   9.364
    1STR   BCK1 9564   0.016  17.271  13.784
    1STR    O03 9565   0.136  17.256  13.765
    1STR    N04 9566  17.387  17.217  13.884
    1STR    C05 9567  17.431  17.119  13.973
    1STR    C06 9568  17.415  17.140  14.113
    1STR    C07 9569   0.013  17.040  14.207
    1STR    N08 9570  17.432  17.064  14.343
    1STR    C09 9571   0.037  16.997  14.450
    1STR    O0A 9572   0.113  16.900  14.446
    1STR    O0B 9573  17.428  17.050  14.563
    1STR    C0C 9574   0.025  16.995  14.690
    1STR    C0D 9575   0.160  17.055  14.734
    1STR    C0E 9576  17.355  17.021  14.793
    1STR    O0F 9577  17.391  16.956  14.914
    1STR    C0G 9578  17.302  16.973  15.024
    1STR    C0H 9579  17.185  16.873  15.010
    1STR    C0I 9580  17.383  16.949  15.152
    1STR    O0J 9581  17.303  16.976  15.267
    1STR    C0K 9582  17.365  16.948  15.392
    1STR    C0M 9583   0.035  17.051  15.423
    1STR    C0N 9584  17.257  16.950  15.501
    1STR    O0O 9585  17.310  16.889  15.618
    1STR    C0P 9586  17.325  16.959  15.732
    1STR    O0Q 9587  17.295  17.076  15.748
    1STR    N0R 9588  17.378  16.878  15.823
    1STR    C0S 9589  17.408  16.895  15.958
    1STR    C0T 9590   0.025  16.785  16.024
    1STR    C0U 9591   0.050  16.789  16.163
    1STR    C0V 9592   0.018  16.904  16.238
    1STR    C0W 9593   0.032  16.894  16.389
    1STR    C0X 9594  17.407  17.019  16.172
    1STR    N0Y 9595  17.368  17.133  16.243
    1STR   BCK2 9596  17.433  17.210  16.331
    1STR    O10 9597  17.371  17.295  16.393
    1STR    C13 9598  17.381  17.013  16.033
    1STR    C14 9599   0.065  16.919  14.157
    1STR    C15 9600   0.079  16.897  14.019
    1STR    C16 9601   0.040  16.995  13.927
    1STR    C17 9602   0.048  16.961  13.779
    1STR    H1B 9603  17.292  17.249  13.894
    1STR    H1C 9604  17.375  17.234  14.148
    1STR    H1D 9605  17.377  17.143  14.370
    1STR    H1E 9606   0.036  16.886  14.681
    1STR    H1F 9607   0.153  17.163  14.745
    1STR    H1G 9608   0.191  17.014  14.830
    1STR    H1H 9609   0.238  17.033  14.661
    1STR    H1I 9610  17.259  16.983  14.757
    1STR    H1J 9611  17.342  17.128  14.809
    1STR    H1K 9612  17.264  17.075  15.026
    1STR    H1M 9613  17.222  16.771  15.003
    1STR    H1N 9614  17.124  16.894  14.923
    1STR    H1O 9615  17.120  16.879  15.097
    1STR    H1P 9616  17.420  16.847  15.154
    1STR    H1Q 9617   0.030  17.015  15.150
    1STR    H1R 9618  17.408  16.848  15.389
    1STR    H1S 9619   0.076  17.035  15.523
    1STR    H1T 9620  17.436  17.153  15.420
    1STR    H1U 9621   0.119  17.045  15.353
    1STR    H1V 9622  17.170  16.892  15.469
    1STR    H1W 9623  17.220  17.051  15.518
    1STR    H1X 9624  17.394  16.787  15.783
    1STR    H1Y 9625   0.048  16.694  15.971
    1STR    H1Z 9626   0.090  16.702  16.212
    1STR    H20 9627   0.135  16.914  16.418
    1STR    H21 9628  17.407  16.965  16.440
    1STR    H22 9629   0.004  16.795  16.424
    1STR    H23 9630  17.275  17.167  16.226
    1STR    H27 9631  17.338  17.099  15.985
    1STR    H28 9632   0.094  16.839  14.223
    1STR    H29 9633   0.117  16.802  13.985
    1STR    H2A 9634  17.403  17.003  13.725
    1STR    H2B 9635   0.047  16.854  13.762
    1STR    H2C 9636   0.140  17.002  13.736
    1STR   BCK1 9637  17.433   4.282   0.677
    1STR    O03 9638  17.337   4.338   0.625
    1STR    N04 9639   0.041   4.307   0.799
    1STR    C05 9640   0.008   4.410   0.889
    1STR    C06 9641  17.440   4.378   1.027
    1STR    C07 9642  17.419   4.478   1.126
    1STR    N08 9643  17.419   4.443   1.262
    1STR    C09 9644   0.007   4.521   1.367
    1STR    O0A 9645   0.042   4.638   1.360
    1STR    O0B 9646  17.432   4.453   1.483
    1STR    C0C 9647   0.000   4.523   1.608
    1STR    C0D 9648  17.300   4.575   1.644
    1STR    C0E 9649   0.058   4.431   1.718
    1STR    O0F 9650   0.071   4.508   1.837
    1STR    C0G 9651   0.127   4.441   1.949
    1STR    C0H 9652   0.280   4.434   1.934
    1STR    C0I 9653   0.088   4.520   2.075
    1STR    O0J 9654   0.135   4.453   2.191
    1STR    C0K 9655   0.111   4.518   2.315
    1STR    C0M 9656  17.404   4.500   2.356
    1STR    C0N 9657   0.207   4.454   2.418
    1STR    O0O 9658   0.203   4.521   2.544
    1STR    C0P 9659   0.138   4.467   2.648
    1STR    O0Q 9660   0.072   4.364   2.644
    1STR    N0R 9661   0.157   4.543   2.756
    1STR    C0S 9662   0.110   4.529   2.887
    1STR    C0T 9663   0.125   4.639   2.973
    1STR    C0U 9664   0.076   4.635   3.105
    1STR    C0V 9665   0.011   4.520   3.154
    1STR    C0W 9666  17.390   4.524   3.293
    1STR    C0X 9667  17.440   4.405   3.070
    1STR    N0Y 9668  17.375   4.289   3.112
    1STR   BCK2 9669  17.404   4.205   3.211
    1STR    O10 9670  17.333   4.107   3.230
    1STR    C13 9671   0.048   4.412   2.937
    1STR    C14 9672  17.400   4.611   1.082
    1STR    C15 9673  17.410   4.644   0.946
    1STR    C16 9674  17.437   4.546   0.849
    1STR    C17 9675   0.020   4.593   0.707
    1STR    H1B 9676   0.113   4.244   0.829
    1STR    H1C 9677   0.012   4.276   1.058
    1STR    H1D 9678  17.397   4.349   1.288
    1STR    H1E 9679   0.069   4.608   1.599
    1STR    H1F 9680  17.229   4.493   1.655
    1STR    H1G 9681  17.303   4.630   1.738
    1STR    H1H 9682  17.263   4.642   1.568
    1STR    H1I 9683   0.155   4.393   1.685
    1STR    H1J 9684  17.433   4.345   1.734
    1STR    H1K 9685   0.086   4.340   1.958
    1STR    H1M 9686   0.323   4.533   1.920
    1STR    H1N 9687   0.310   4.372   1.849
    1STR    H1O 9688   0.326   4.390   2.023
    1STR    H1P 9689   0.128   4.621   2.069
    1STR    H1Q 9690  17.419   4.530   2.078
    1STR    H1R 9691   0.135   4.624   2.307
    1STR    H1S 9692  17.384   4.546   2.454
    1STR    H1T 9693  17.378   4.395   2.364
    1STR    H1U 9694  17.335   4.547   2.286
    1STR    H1V 9695   0.309   4.462   2.380
    1STR    H1W 9696   0.187   4.348   2.428
    1STR    H1X 9697   0.214   4.622   2.733
    1STR    H1Y 9698   0.173   4.730   2.939
    1STR    H1Z 9699   0.087   4.721   3.169
    1STR    H20 9700  17.307   4.454   3.302
    1STR    H21 9701   0.025   4.497   3.367
    1STR    H22 9702  17.352   4.623   3.316
    1STR    H23 9703  17.300   4.255   3.053
    1STR    H27 9704   0.037   4.325   2.875
    1STR    H28 9705  17.381   4.691   1.152
    1STR    H29 9706  17.399   4.747   0.917
    1STR    H2A 9707   0.095   4.532   0.657
    1STR    H2B 9708   0.056   4.695   0.705
    1STR    H2C 9709  17.367   4.589   0.650
    1STR   BCK1 9710  17.336   4.199   5.069
    1STR    O03 9711  17.356   4.083   5.033
    1STR    N04 9712  17.259   4.236   5.172
    1STR    C05 9713  17.180   4.155   5.254
    1STR    C06 9714  17.191   4.169   5.394
    1STR    C07 9715  17.110   4.094   5.483
    1STR    N08 9716  17.124   4.114   5.622
    1STR    C09 9717  17.048   4.070   5.724
    1STR    O0A 9718  16.947   4.001   5.712
    1STR    O0B 9719  17.099   4.111   5.842
    1STR    C0C 9720  17.042   4.064   5.965
    1STR    C0D 9721  17.107   3.930   6.001
    1STR    C0E 9722  17.060   4.169   6.076
    1STR    O0F 9723  16.997   4.121   6.195
    1STR    C0G 9724  17.002   4.208   6.308
    1STR    C0H 9725  16.893   4.316   6.294
    1STR    C0I 9726  16.982   4.123   6.434
    1STR    O0J 9727  16.998   4.205   6.550
    1STR    C0K 9728  16.975   4.141   6.676
    1STR    C0M 9729  17.091   4.046   6.710
    1STR    C0N 9730  16.962   4.253   6.781
    1STR    O0O 9731  16.919   4.202   6.907
    1STR    C0P 9732  17.004   4.192   7.010
    1STR    O0Q 9733  17.124   4.217   7.004
    1STR    N0R 9734  16.938   4.151   7.118
    1STR    C0S 9735  16.980   4.124   7.249
    1STR    C0T 9736  16.885   4.069   7.337
    1STR    C0U 9737  16.921   4.034   7.468
    1STR    C0V 9738  17.052   4.055   7.515
    1STR    C0W 9739  17.086   4.004   7.655
    1STR    C0X 9740  17.148   4.116   7.430
    1STR    N0Y 9741  17.281   4.137   7.468
    1STR   BCK2 9742  17.330   4.188   7.581
    1STR    O10 9743  17.264   4.236   7.673
    1STR    C13 9744  17.111   4.149   7.297
    1STR    C14 9745  17.018   4.002   5.427
    1STR    C15 9746  17.005   3.989   5.288
    1STR    C16 9747  17.083   4.067   5.201
    1STR    C17 9748  17.056   4.055   5.052
    1STR    H1B 9749  17.263   4.334   5.192
    1STR    H1C 9750  17.264   4.238   5.434
    1STR    H1D 9751  17.201   4.169   5.654
    1STR    H1E 9752  16.934   4.049   5.952
    1STR    H1F 9753  17.215   3.941   6.016
    1STR    H1G 9754  17.065   3.890   6.094
    1STR    H1H 9755  17.091   3.856   5.923
    1STR    H1I 9756  17.015   4.263   6.045
    1STR    H1J 9757  17.166   4.188   6.094
    1STR    H1K 9758  17.101   4.255   6.315
    1STR    H1M 9759  16.795   4.270   6.282
    1STR    H1N 9760  16.911   4.381   6.209
    1STR    H1O 9761  16.890   4.378   6.383
    1STR    H1P 9762  16.882   4.077   6.433
    1STR    H1Q 9763  17.054   4.042   6.434
    1STR    H1R 9764  16.881   4.085   6.672
    1STR    H1S 9765  17.078   4.002   6.809
    1STR    H1T 9766  17.186   4.099   6.711
    1STR    H1U 9767  17.100   3.963   6.640
    1STR    H1V 9768  16.886   4.324   6.748
    1STR    H1W 9769  17.054   4.310   6.789
    1STR    H1X 9770  16.841   4.137   7.097
    1STR    H1Y 9771  16.784   4.050   7.305
    1STR    H1Z 9772  16.847   3.990   7.534
    1STR    H20 9773  17.189   3.969   7.660
    1STR    H21 9774  17.073   4.083   7.728
    1STR    H22 9775  17.022   3.920   7.684
    1STR    H23 9776  17.351   4.119   7.399
    1STR    H27 9777  17.185   4.193   7.233
    1STR    H28 9778  16.955   3.940   5.489
    1STR    H29 9779  16.932   3.920   5.249
    1STR    H2A 9780  17.071   4.151   5.001
    1STR    H2B 9781  16.953   4.025   5.033
    1STR    H2C 9782  17.122   3.982   5.007
    1STR   BCK1 9783   0.018   4.265   9.428
    1STR    O03 9784   0.098   4.357   9.415
    1STR    N04 9785   0.017   4.178   9.528
    1STR    C05 9786   0.118   4.161   9.622
    1STR    C06 9787   0.088   4.167   9.760
    1STR    C07 9788   0.187   4.145   9.859
    1STR    N08 9789   0.151   4.148   9.994
    1STR    C09 9790   0.228   4.147  10.103
    1STR    O0A 9791   0.350   4.151  10.104
    1STR    O0B 9792   0.151   4.142  10.214
    1STR    C0C 9793   0.214   4.142  10.342
    1STR    C0D 9794   0.243   4.286  10.386
    1STR    C0E 9795   0.124   4.068  10.443
    1STR    O0F 9796   0.197   4.058  10.565
    1STR    C0G 9797   0.130   3.993  10.672
    1STR    C0H 9798   0.136   3.840  10.652
    1STR    C0I 9799   0.201   4.036  10.800
    1STR    O0J 9800   0.130   3.985  10.913
    1STR    C0K 9801   0.193   4.007  11.039
    1STR    C0M 9802   0.176   4.154  11.081
    1STR    C0N 9803   0.127   3.910  11.139
    1STR    O0O 9804   0.199   3.906  11.261
    1STR    C0P 9805   0.159   3.978  11.366
    1STR    O0Q 9806   0.057   4.048  11.370
    1STR    N0R 9807   0.248   3.967  11.463
    1STR    C0S 9808   0.252   4.031  11.587
    1STR    C0T 9809   0.379   4.059  11.643
    1STR    C0U 9810   0.389   4.130  11.763
    1STR    C0V 9811   0.273   4.173  11.831
    1STR    C0W 9812   0.292   4.259  11.955
    1STR    C0X 9813   0.145   4.138  11.781
    1STR    N0Y 9814   0.029   4.175  11.848
    1STR   BCK2 9815  17.429   4.136  11.969
    1STR    O10 9816  17.335   4.191  12.026
    1STR    C13 9817   0.136   4.070  11.658
    1STR    C14 9818   0.319   4.117   9.815
    1STR    C15 9819   0.350   4.110   9.678
    1STR    C16 9820   0.250   4.130   9.581
    1STR    C17 9821   0.288   4.112   9.435
    1STR    H1B 9822  17.379   4.114   9.531
    1STR    H1C 9823  17.426   4.189   9.790
    1STR    H1D 9824   0.053   4.152  10.017
    1STR    H1E 9825   0.308   4.086  10.337
    1STR    H1F 9826   0.152   4.345  10.393
    1STR    H1G 9827   0.292   4.288  10.483
    1STR    H1H 9828   0.310   4.335  10.315
    1STR    H1I 9829   0.100   3.969  10.404
    1STR    H1J 9830   0.030   4.122  10.458
    1STR    H1K 9831   0.026   4.026  10.677
    1STR    H1M 9832   0.239   3.807  10.641
    1STR    H1N 9833   0.081   3.807  10.565
    1STR    H1O 9834   0.094   3.789  10.739
    1STR    H1P 9835   0.304   4.001  10.799
    1STR    H1Q 9836   0.204   4.145  10.804
    1STR    H1R 9837   0.299   3.982  11.033
    1STR    H1S 9838   0.221   4.172  11.179
    1STR    H1T 9839   0.071   4.181  11.089
    1STR    H1U 9840   0.224   4.223  11.012
    1STR    H1V 9841   0.129   3.809  11.098
    1STR    H1W 9842   0.021   3.933  11.154
    1STR    H1X 9843   0.325   3.908  11.438
    1STR    H1Y 9844   0.469   4.029  11.592
    1STR    H1Z 9845   0.487   4.154  11.802
    1STR    H20 9846   0.199   4.308  11.987
    1STR    H21 9847   0.329   4.199  12.038
    1STR    H22 9848   0.364   4.338  11.936
    1STR    H23 9849  17.405   4.236  11.800
    1STR    H27 9850   0.039   4.045  11.618
    1STR    H28 9851   0.399   4.099   9.884
    1STR    H29 9852   0.451   4.087   9.649
    1STR    H2A 9853   0.208   4.064   9.379
    1STR    H2B 9854   0.377   4.051   9.424
    1STR    H2C 9855   0.308   4.209   9.390
    1STR   BCK1 9856  17.389   4.318  13.768
    1STR    O03 9857  17.299   4.243  13.729
    1STR    N04 9858  17.385   4.392  13.880
    1STR    C05 9859  17.278   4.415  13.967
    1STR    C06 9860  17.299   4.403  14.107
    1STR    C07 9861  17.197   4.437  14.200
    1STR    N08 9862  17.223   4.428  14.338
    1STR    C09 9863  17.157   4.480  14.443
    1STR    O0A 9864  17.055   4.548  14.434
    1STR    O0B 9865  17.216   4.446  14.559
    1STR    C0C 9866  17.162   4.493  14.684
    1STR    C0D 9867  17.038   4.410  14.721
    1STR    C0E 9868  17.268   4.489  14.797
    1STR    O0F 9869  17.208   4.537  14.917
    1STR    C0G 9870  17.295   4.542  15.031
    1STR    C0H 9871  17.388   4.663  15.020
    1STR    C0I 9872  17.208   4.551  15.158
    1STR    O0J 9873  17.290   4.541  15.275
    1STR    C0K 9874  17.225   4.560  15.400
    1STR    C0M 9875  17.140   4.437  15.435
    1STR    C0N 9876  17.337   4.582  15.505
    1STR    O0O 9877  17.284   4.623  15.631
    1STR    C0P 9878  17.279   4.537  15.735
    1STR    O0Q 9879  17.306   4.418  15.730
    1STR    N0R 9880  17.239   4.602  15.844
    1STR    C0S 9881  17.220   4.558  15.975
    1STR    C0T 9882  17.141   4.638  16.061
    1STR    C0U 9883  17.117   4.598  16.194
    1STR    C0V 9884  17.172   4.480  16.245
    1STR    C0W 9885  17.137   4.437  16.386
    1STR    C0X 9886  17.257   4.401  16.163
    1STR    N0Y 9887  17.312   4.281  16.208
    1STR   BCK2 9888  17.391   4.261  16.314
    1STR    O10 9889  17.436   4.349  16.387
    1STR    C13 9890  17.278   4.440  16.028
    1STR    C14 9891  17.072   4.479  14.150
    1STR    C15 9892  17.051   4.493  14.011
    1STR    C16 9893  17.154   4.465  13.920
    1STR    C17 9894  17.130   4.496  13.773
    1STR    H1B 9895   0.032   4.436  13.903
    1STR    H1C 9896  17.395   4.370  14.143
    1STR    H1D 9897  17.308   4.383  14.369
    1STR    H1E 9898  17.133   4.598  14.672
    1STR    H1F 9899  17.064   4.305  14.735
    1STR    H1G 9900  16.995   4.445  14.815
    1STR    H1H 9901  16.961   4.417  14.645
    1STR    H1I 9902  17.355   4.549  14.769
    1STR    H1J 9903  17.305   4.387  14.811
    1STR    H1K 9904  17.354   4.450  15.036
    1STR    H1M 9905  17.334   4.757  15.010
    1STR    H1N 9906   0.016   4.654  14.935
    1STR    H1O 9907   0.013   4.670  15.108
    1STR    H1P 9908  17.153   4.645  15.157
    1STR    H1Q 9909  17.135   4.470  15.157
    1STR    H1R 9910  17.164   4.650  15.397
    1STR    H1S 9911  17.095   4.447  15.534
    1STR    H1T 9912  17.201   4.347  15.436
    1STR    H1U 9913  17.058   4.422  15.364
    1STR    H1V 9914  17.403   4.661  15.470
    1STR    H1W 9915  17.400   4.493  15.513
    1STR    H1X 9916  17.222   4.699  15.823
    1STR    H1Y 9917  17.097   4.729  16.025
    1STR    H1Z 9918  17.054   4.660  16.256
    1STR    H20 9919  17.128   4.328  16.393
    1STR    H21 9920  17.215   4.468  16.456
    1STR    H22 9921  17.042   4.479  16.419
    1STR    H23 9922  17.299   4.200  16.151
    1STR    H27 9923  17.341   4.378  15.966
    1STR    H28 9924  16.990   4.504  14.215
    1STR    H29 9925  16.956   4.531  13.977
    1STR    H2A 9926  17.220   4.535  13.726
    1STR    H2B 9927  17.051   4.571  13.761
    1STR    H2C 9928  17.100   4.405  13.720
    1STR   BCK1 9929  17.409   8.521   0.703
    1STR    O03 9930   0.057   8.443   0.670
    1STR    N04 9931  17.327   8.505   0.807
    1STR    C05 9932  17.316   8.395   0.892
    1STR    C06 9933  17.314   8.416   1.032
    1STR    C07 9934  17.298   8.308   1.124
    1STR    N08 9935  17.295   8.335   1.261
    1STR    C09 9936  17.277   8.253   1.366
    1STR    O0A 9937  17.260   8.132   1.359
    1STR    O0B 9938  17.280   8.322   1.482
    1STR    C0C 9939  17.281   8.252   1.607
    1STR    C0D 9940  17.427   8.224   1.647
    1STR    C0E 9941  17.207   8.333   1.715
    1STR    O0F 9942  17.202   8.254   1.834
    1STR    C0G 9943  17.136   8.314   1.945
    1STR    C0H 9944  16.984   8.293   1.931
    1STR    C0I 9945  17.190   8.247   2.073
    1STR    O0J 9946  17.136   8.313   2.187
    1STR    C0K 9947  17.170   8.256   2.314
    1STR    C0M 9948  17.317   8.284   2.348
    1STR    C0N 9949  17.075   8.319   2.418
    1STR    O0O 9950  17.079   8.247   2.541
    1STR    C0P 9951  17.143   8.297   2.648
    1STR    O0Q 9952  17.209   8.400   2.650
    1STR    N0R 9953  17.123   8.215   2.751
    1STR    C0S 9954  17.167   8.219   2.884
    1STR    C0T 9955  17.127   8.112   2.967
    1STR    C0U 9956  17.171   8.105   3.100
    1STR    C0V 9957  17.256   8.203   3.153
    1STR    C0W 9958  17.310   8.182   3.294
    1STR    C0X 9959  17.294   8.314   3.073
    1STR    N0Y 9960  17.382   8.412   3.120
    1STR   BCK2 9961  17.377   8.481   3.234
    1STR    O10 9962  17.284   8.480   3.314
    1STR    C13 9963  17.250   8.320   2.939
    1STR    C14 9964  17.285   8.178   1.070
    1STR    C15 9965  17.284   8.156   0.932
    1STR    C16 9966  17.297   8.264   0.842
    1STR    C17 9967  17.285   8.234   0.693
    1STR    H1B 9968  17.272   8.587   0.827
    1STR    H1C 9969  17.327   8.516   1.070
    1STR    H1D 9970  17.310   8.430   1.291
    1STR    H1E 9971  17.228   8.157   1.597
    1STR    H1F 9972   0.043   8.317   1.659
    1STR    H1G 9973  17.432   8.169   1.741
    1STR    H1H 9974   0.037   8.164   1.571
    1STR    H1I 9975  17.106   8.356   1.680
    1STR    H1J 9976  17.257   8.428   1.733
    1STR    H1K 9977  17.159   8.421   1.951
    1STR    H1M 9978  16.960   8.188   1.922
    1STR    H1N 9979  16.944   8.345   1.844
    1STR    H1O 9980  16.932   8.332   2.019
    1STR    H1P 9981  17.166   8.141   2.073
    1STR    H1Q 9982  17.299   8.255   2.073
    1STR    H1R 9983  17.152   8.148   2.311
    1STR    H1S 9984  17.342   8.247   2.448
    1STR    H1T 9985  17.338   8.391   2.347
    1STR    H1U 9986  17.386   8.236   2.279
    1STR    H1V 9987  16.973   8.313   2.381
    1STR    H1W 9988  17.096   8.425   2.432
    1STR    H1X 9989  17.066   8.138   2.723
    1STR    H1Y 9990  17.063   8.034   2.929
    1STR    H1Z 9991  17.141   8.021   3.161
    1STR    H20 9992  17.414   8.213   3.300
    1STR    H21 9993  17.252   8.240   3.366
    1STR    H22 9994  17.306   8.077   3.324
    1STR    H23 9995   0.017   8.439   3.059
    1STR    H27 9996  17.281   8.403   2.878
    1STR    H28 9997  17.275   8.091   1.133
    1STR    H29 9998  17.272   8.056   0.894
    1STR    H2A 9999  17.238   8.316   0.639
    1STR    H2B10000  17.226   8.144   0.675
    1STR    H2C10001  17.384   8.217   0.651
    1STR   BCK110002  17.435   8.620   5.057
    1STR    O0310003  17.368   8.720   5.034
    1STR    N0410004   0.068   8.599   5.166
    1STR    C0510005   0.103   8.696   5.260
    1STR    C0610006   0.078   8.672   5.397
    1STR    C0710007   0.120   8.764   5.496
    1STR    N0810008   0.097   8.733   5.631
    1STR    C0910009   0.156   8.785   5.740
    1STR    O0A10010   0.244   8.871   5.739
    1STR    O0B10011   0.107   8.729   5.852
    1STR    C0C10012   0.148   8.780   5.979
    1STR    C0D10013   0.055   8.896   6.018
    1STR    C0E10014   0.148   8.668   6.083
    1STR    O0F10015   0.198   8.723   6.205
    1STR    C0G10016   0.211   8.634   6.314
    1STR    C0H10017   0.336   8.547   6.296
    1STR    C0I10018   0.222   8.722   6.440
    1STR    O0J10019   0.223   8.640   6.556
    1STR    C0K10020   0.240   8.709   6.679
    1STR    C0M10021   0.107   8.774   6.721
    1STR    C0N10022   0.289   8.605   6.781
    1STR    O0O10023   0.323   8.666   6.904
    1STR    C0P10024   0.240   8.660   7.009
    1STR    O0Q10025   0.130   8.606   7.009
    1STR    N0R10026   0.296   8.724   7.112
    1STR    C0S10027   0.249   8.746   7.242
    1STR    C0T10028   0.313   8.845   7.318
    1STR    C0U10029   0.270   8.874   7.449
    1STR    C0V10030   0.163   8.803   7.507
    1STR    C0W10031   0.115   8.841   7.646
    1STR    C0X10032   0.101   8.699   7.433
    1STR    N0Y10033  17.435   8.626   7.487
    1STR   BCK210034  17.439   8.538   7.587
    1STR    O1010035  17.336   8.484   7.626
    1STR    C1310036   0.143   8.672   7.301
    1STR    C1410037   0.182   8.884   5.455
    1STR    C1510038   0.208   8.908   5.319
    1STR    C1610039   0.172   8.814   5.221
    1STR    C1710040   0.212   8.841   5.077
    1STR    H1B10041   0.112   8.509   5.174
    1STR    H1C10042   0.029   8.581   5.425
    1STR    H1D10043   0.032   8.661   5.653
    1STR    H1E10044   0.251   8.817   5.973
    1STR    H1F10045  17.392   8.864   6.027
    1STR    H1G10046   0.085   8.939   6.114
    1STR    H1H10047   0.060   8.976   5.944
    1STR    H1I10048   0.212   8.587   6.049
    1STR    H1J10049   0.048   8.627   6.097
    1STR    H1K10050   0.122   8.572   6.323
    1STR    H1M10051   0.425   8.608   6.281
    1STR    H1N10052   0.328   8.479   6.211
    1STR    H1O10053   0.354   8.485   6.385
    1STR    H1P10054   0.313   8.783   6.434
    1STR    H1Q10055   0.138   8.791   6.442
    1STR    H1R10056   0.317   8.785   6.669
    1STR    H1S10057   0.117   8.825   6.817
    1STR    H1T10058   0.028   8.699   6.732
    1STR    H1U10059   0.073   8.849   6.650
    1STR    H1V10060   0.378   8.556   6.742
    1STR    H1W10061   0.215   8.525   6.794
    1STR    H1X10062   0.385   8.763   7.087
    1STR    H1Y10063   0.395   8.902   7.277
    1STR    H1Z10064   0.319   8.952   7.505
    1STR    H2010065   0.008   8.825   7.656
    1STR    H2110066   0.166   8.781   7.721
    1STR    H2210067   0.135   8.946   7.667
    1STR    H2310068  17.345   8.634   7.443
    1STR    H2710069   0.095   8.593   7.246
    1STR    H2810070   0.213   8.960   5.525
    1STR    H2910071   0.260   8.999   5.290
    1STR    H2A10072   0.240   8.749   5.026
    1STR    H2B10073   0.298   8.908   5.072
    1STR    H2C10074   0.130   8.887   5.023
    1STR   BCK110075  17.325   8.616   9.422
    1STR    O0310076  17.298   8.503   9.384
    1STR    N0410077  17.271   8.677   9.528
    1STR    C0510078  17.169   8.631   9.612
    1STR    C0610079  17.188   8.636   9.753
    1STR    C0710080  17.086   8.599   9.844
    1STR    N0810081  17.108   8.608   9.982
    1STR    C0910082  17.020   8.613  10.083
    1STR    O0A10083  16.898   8.614  10.068
    1STR    O0B10084  17.083   8.617  10.202
    1STR    C0C10085  17.007   8.607  10.324
    1STR    C0D10086  16.988   8.458  10.358
    1STR    C0E10087  17.078   8.683  10.438
    1STR    O0F10088  16.999   8.674  10.556
    1STR    C0G10089  17.049   8.744  10.670
    1STR    C0H10090  17.015   8.893  10.657
    1STR    C0I10091  16.986   8.683  10.796
    1STR    O0J10092  17.044   8.742  10.912
    1STR    C0K10093  16.991   8.701  11.038
    1STR    C0M10094  17.038   8.559  11.072
    1STR    C0N10095  17.038   8.803  11.143
    1STR    O0O10096  16.977   8.779  11.270
    1STR    C0P10097  17.047   8.730  11.373
    1STR    O0Q10098  17.165   8.695  11.367
    1STR    N0R10099  16.969   8.725  11.481
    1STR    C0S10100  16.994   8.680  11.611
    1STR    C0T10101  16.885   8.680  11.701
    1STR    C0U10102  16.901   8.632  11.832
    1STR    C0V10103  17.025   8.581  11.877
    1STR    C0W10104  17.031   8.522  12.017
    1STR    C0X10105  17.137   8.585  11.789
    1STR    N0Y10106  17.264   8.537  11.823
    1STR   BCK210107  17.338   8.564  11.930
    1STR    O1010108  17.302   8.636  12.023
    1STR    C1310109  17.119   8.633  11.657
    1STR    C1410110  16.964   8.551   9.790
    1STR    C1510111  16.943   8.546   9.651
    1STR    C1610112  17.044   8.588   9.562
    1STR    C1710113  17.010   8.591   9.414
    1STR    H1B10114  17.313   8.765   9.552
    1STR    H1C10115  17.283   8.671   9.792
    1STR    H1D10116  17.203   8.612  10.015
    1STR    H1E10117  16.909   8.653  10.310
    1STR    H1F10118  17.084   8.408  10.372
    1STR    H1G10119  16.930   8.446  10.449
    1STR    H1H10120  16.935   8.406  10.278
    1STR    H1I10121  17.092   8.787  10.408
    1STR    H1J10122  17.177   8.641  10.455
    1STR    H1K10123  17.157   8.730  10.677
    1STR    H1M10124  16.908   8.908  10.645
    1STR    H1N10125  17.065   8.940  10.573
    1STR    H1O10126  17.045   8.947  10.747
    1STR    H1P10127  16.877   8.698  10.795
    1STR    H1Q10128  17.002   8.575  10.796
    1STR    H1R10129  16.881   8.704  11.035
    1STR    H1S10130  17.003   8.529  11.171
    1STR    H1T10131  17.147   8.553  11.074
    1STR    H1U10132  17.001   8.484  11.002
    1STR    H1V10133  17.009   8.903  11.112
    1STR    H1W10134  17.147   8.804  11.150
    1STR    H1X10135  16.877   8.759  11.460
    1STR    H1Y10136  16.788   8.716  11.671
    1STR    H1Z10137  16.816   8.631  11.899
    1STR    H2010138  17.105   8.442  12.022
    1STR    H2110139  17.057   8.598  12.089
    1STR    H2210140  16.935   8.479  12.046
    1STR    H2310141  17.312   8.483  11.752
    1STR    H2710142  17.204   8.634  11.592
    1STR    H2810143  16.884   8.517   9.854
    1STR    H2910144  16.848   8.512   9.614
    1STR    H2A10145  17.060   8.674   9.364
    1STR    H2B10146  16.903   8.602   9.398
    1STR    H2C10147  17.042   8.498   9.367
    1STR   BCK110148   0.022   8.581  13.786
    1STR    O0310149   0.139   8.614  13.774
    1STR    N0410150  17.414   8.504  13.884
    1STR    C0510151   0.049   8.431  13.975
    1STR    C0610152   0.029   8.449  14.114
    1STR    C0710153   0.098   8.370  14.209
    1STR    N0810154   0.071   8.389  14.345
    1STR    C0910155   0.136   8.344  14.453
    1STR    O0A10156   0.241   8.280  14.451
    1STR    O0B10157   0.071   8.378  14.565
    1STR    C0C10158   0.124   8.340  14.692
    1STR    C0D10159   0.228   8.443  14.737
    1STR    C0E10160   0.009   8.326  14.793
    1STR    O0F10161   0.063   8.281  14.916
    1STR    C0G10162  17.411   8.265  15.022
    1STR    C0H10163  17.337   8.131  15.007
    1STR    C0I10164   0.053   8.270  15.152
    1STR    O0J10165  17.405   8.273  15.264
    1STR    C0K10166   0.030   8.261  15.390
    1STR    C0M10167   0.104   8.390  15.426
    1STR    C0N10168  17.363   8.226  15.495
    1STR    O0O10169  17.430   8.181  15.612
    1STR    C0P10170  17.428   8.252  15.725
    1STR    O0Q10171  17.362   8.352  15.747
    1STR    N0R10172   0.073   8.193  15.810
    1STR    C0S10173   0.108   8.220  15.942
    1STR    C0T10174   0.215   8.146  15.994
    1STR    C0U10175   0.249   8.156  16.130
    1STR    C0V10176   0.176   8.240  16.217
    1STR    C0W10177   0.206   8.228  16.365
    1STR    C0X10178   0.072   8.322  16.165
    1STR    N0Y10179  17.429   8.402  16.244
    1STR   BCK210180   0.010   8.492  16.341
    1STR    O1010181  17.353   8.540  16.399
    1STR    C1310182   0.039   8.310  16.027
    1STR    C1410183   0.189   8.273  14.162
    1STR    C1510184   0.210   8.254  14.025
    1STR    C1610185   0.139   8.331  13.930
    1STR    C1710186   0.160   8.301  13.783
    1STR    H1B10187  17.314   8.493  13.885
    1STR    H1C10188  17.399   8.524  14.147
    1STR    H1D10189  17.432   8.446  14.370
    1STR    H1E10190   0.172   8.242  14.684
    1STR    H1F10191   0.185   8.543  14.747
    1STR    H1G10192   0.272   8.415  14.833
    1STR    H1H10193   0.310   8.449  14.666
    1STR    H1I10194  17.376   8.255  14.755
    1STR    H1J10195  17.398   8.422  14.805
    1STR    H1K10196  17.340   8.348  15.024
    1STR    H1M10197  17.408   8.048  15.000
    1STR    H1N10198  17.274   8.128  14.918
    1STR    H1O10199  17.273   8.112  15.093
    1STR    H1P10200   0.120   8.184  15.156
    1STR    H1Q10201   0.116   8.359  15.151
    1STR    H1R10202   0.101   8.177  15.386
    1STR    H1S10203   0.148   8.384  15.526
    1STR    H1T10204   0.037   8.476  15.426
    1STR    H1U10205   0.186   8.412  15.358
    1STR    H1V10206  17.300   8.145  15.459
    1STR    H1W10207  17.297   8.311  15.514
    1STR    H1X10208   0.117   8.115  15.766
    1STR    H1Y10209   0.271   8.077  15.933
    1STR    H1Z10210   0.329   8.095  16.169
    1STR    H2010211   0.287   8.295  16.392
    1STR    H2110212   0.117   8.250  16.424
    1STR    H2210213   0.237   8.127  16.390
    1STR    H2310214  17.331   8.394  16.225
    1STR    H2710215  17.397   8.368  15.988
    1STR    H2810216   0.244   8.209  14.229
    1STR    H2910217   0.279   8.178  13.992
    1STR    H2A10218   0.066   8.308  13.728
    1STR    H2B10219   0.200   8.201  13.767
    1STR    H2C10220   0.230   8.373  13.740
    1STR   BCK110221  17.406  13.017   0.676
    1STR    O0310222  17.308  13.053   0.612
    1STR    N0410223  17.437  13.055   0.801
    1STR    C0510224  17.377  13.146   0.888
    1STR    C0610225  17.378  13.116   1.027
    1STR    C0710226  17.328  13.207   1.124
    1STR    N0810227  17.338  13.176   1.260
    1STR    C0910228  17.340  13.260   1.365
    1STR    O0A10229  17.338  13.382   1.357
    1STR    O0B10230  17.346  13.192   1.482
    1STR    C0C10231  17.329  13.261   1.606
    1STR    C0D10232  17.180  13.263   1.640
    1STR    C0E10233  17.413  13.195   1.717
    1STR    O0F10234  17.399  13.274   1.835
    1STR    C0G10235   0.034  13.230   1.948
    1STR    C0H10236   0.180  13.276   1.933
    1STR    C0I10237  17.409  13.290   2.074
    1STR    O0J10238   0.039  13.245   2.190
    1STR    C0K10239  17.433  13.297   2.315
    1STR    C0M10240  17.301  13.228   2.356
    1STR    C0N10241   0.105  13.271   2.417
    1STR    O0O10242   0.077  13.330   2.544
    1STR    C0P10243   0.039  13.253   2.647
    1STR    O0Q10244   0.018  13.132   2.641
    1STR    N0R10245   0.029  13.328   2.757
    1STR    C0S10246  17.432  13.295   2.888
    1STR    C0T10247  17.415  13.400   2.980
    1STR    C0U10248  17.372  13.375   3.112
    1STR    C0V10249  17.345  13.243   3.155
    1STR    C0W10250  17.287  13.224   3.294
    1STR    C0X10251  17.366  13.135   3.066
    1STR    N0Y10252  17.337  13.003   3.098
    1STR   BCK210253  17.384  12.922   3.193
    1STR    O1010254  17.345  12.807   3.198
    1STR    C1310255  17.408  13.163   2.933
    1STR    C1410256  17.269  13.327   1.079
    1STR    C1510257  17.269  13.359   0.942
    1STR    C1610258  17.325  13.273   0.847
    1STR    C1710259  17.334  13.324   0.704
    1STR    H1B10260   0.075  13.003   0.838
    1STR    H1C10261  17.420  13.023   1.060
    1STR    H1D10262  17.345  13.079   1.287
    1STR    H1E10263  17.365  13.364   1.596
    1STR    H1F10264  17.140  13.162   1.651
    1STR    H1G10265  17.162  13.316   1.734
    1STR    H1H10266  17.122  13.313   1.562
    1STR    H1I10267   0.077  13.191   1.685
    1STR    H1J10268  17.380  13.093   1.734
    1STR    H1K10269   0.030  13.121   1.957
    1STR    H1M10270   0.186  13.384   1.920
    1STR    H1N10271   0.230  13.229   1.849
    1STR    H1O10272   0.238  13.250   2.022
    1STR    H1P10273  17.411  13.399   2.068
    1STR    H1Q10274  17.305  13.260   2.077
    1STR    H1R10275  17.417  13.405   2.307
    1STR    H1S10276  17.268  13.263   2.454
    1STR    H1T10277  17.314  13.120   2.362
    1STR    H1U10278  17.220  13.248   2.286
    1STR    H1V10279   0.198  13.315   2.380
    1STR    H1W10280   0.125  13.164   2.425
    1STR    H1X10281   0.050  13.424   2.737
    1STR    H1Y10282  17.433  13.503   2.951
    1STR    H1Z10283  17.358  13.458   3.180
    1STR    H2010284  17.229  13.132   3.300
    1STR    H2110285  17.367  13.219   3.368
    1STR    H2210286  17.221  13.306   3.321
    1STR    H2310287  17.276  12.954   3.035
    1STR    H2710288  17.421  13.079   2.866
    1STR    H2810289  17.225  13.397   1.148
    1STR    H2910290  17.226  13.453   0.911
    1STR    H2A10291  17.423  13.287   0.654
    1STR    H2B10292  17.338  13.433   0.702
    1STR    H2C10293  17.245  13.293   0.648
    1STR   BCK110294  17.358  12.896   5.068
    1STR    O0310295  17.406  12.788   5.033
    1STR    N0410296  17.274  12.913   5.171
    1STR    C0510297  17.218  12.815   5.253
    1STR    C0610298  17.224  12.832   5.394
    1STR    C0710299  17.164  12.740   5.483
    1STR    N0810300  17.171  12.764   5.622
    1STR    C0910301  17.124  12.693   5.725
    1STR    O0A10302  17.063  12.586   5.716
    1STR    O0B10303  17.150  12.755   5.842
    1STR    C0C10304  17.113  12.692   5.965
    1STR    C0D10305  17.222  12.591   6.005
    1STR    C0E10306  17.092  12.798   6.075
    1STR    O0F10307  17.052  12.733   6.195
    1STR    C0G10308  17.026  12.818   6.307
    1STR    C0H10309  16.886  12.880   6.292
    1STR    C0I10310  17.036  12.731   6.434
    1STR    O0J10311  17.026  12.814   6.549
    1STR    C0K10312  17.024  12.746   6.675
    1STR    C0M10313  17.164  12.694   6.710
    1STR    C0N10314  16.974  12.848   6.779
    1STR    O0O10315  16.951  12.785   6.905
    1STR    C0P10316  17.030  12.808   7.010
    1STR    O0Q10317  17.129  12.881   7.011
    1STR    N0R10318  16.982  12.742   7.115
    1STR    C0S10319  17.027  12.730   7.247
    1STR    C0T10320  16.946  12.655   7.336
    1STR    C0U10321  16.987  12.634   7.469
    1STR    C0V10322  17.108  12.686   7.517
    1STR    C0W10323  17.151  12.649   7.658
    1STR    C0X10324  17.189  12.765   7.431
    1STR    N0Y10325  17.314  12.814   7.471
    1STR   BCK210326  17.345  12.883   7.580
    1STR    O1010327  17.265  12.930   7.661
    1STR    C1310328  17.148  12.785   7.297
    1STR    C1410329  17.097  12.628   5.428
    1STR    C1510330  17.088  12.612   5.288
    1STR    C1610331  17.145  12.705   5.200
    1STR    C1710332  17.123  12.686   5.051
    1STR    H1B10333  17.253  13.009   5.191
    1STR    H1C10334  17.278  12.917   5.433
    1STR    H1D10335  17.221  12.845   5.652
    1STR    H1E10336  17.019  12.639   5.952
    1STR    H1F10337  17.319  12.639   6.019
    1STR    H1G10338  17.196  12.540   6.098
    1STR    H1H10339  17.234  12.514   5.928
    1STR    H1I10340  17.014  12.868   6.041
    1STR    H1J10341  17.183  12.856   6.090
    1STR    H1K10342  17.102  12.896   6.313
    1STR    H1M10343  16.810  12.803   6.279
    1STR    H1N10344  16.880  12.948   6.207
    1STR    H1O10345  16.860  12.938   6.381
    1STR    H1P10346  16.958  12.655   6.433
    1STR    H1Q10347  17.131  12.679   6.433
    1STR    H1R10348  16.953  12.663   6.670
    1STR    H1S10349  17.165  12.648   6.808
    1STR    H1T10350  17.237  12.775   6.711
    1STR    H1U10351  17.199  12.618   6.639
    1STR    H1V10352  16.880  12.890   6.746
    1STR    H1W10353  17.043  12.932   6.787
    1STR    H1X10354  16.900  12.691   7.089
    1STR    H1Y10355  16.853  12.612   7.302
    1STR    H1Z10356  16.924  12.574   7.533
    1STR    H2010357  17.259  12.632   7.662
    1STR    H2110358  17.126  12.728   7.727
    1STR    H2210359  17.103  12.557   7.692
    1STR    H2310360  17.389  12.796   7.407
    1STR    H2710361  17.211  12.843   7.231
    1STR    H2810362  17.049  12.553   5.489
    1STR    H2910363  17.034  12.526   5.249
    1STR    H2A10364  17.115  12.782   5.000
    1STR    H2B10365  17.031  12.630   5.032
    1STR    H2C10366  17.206  12.630   5.008
    1STR   BCK110367  17.437  12.996   9.430
    1STR    O0310368   0.017  13.117   9.423
    1STR    N0410369   0.037  12.916   9.528
    1STR    C0510370   0.131  12.950   9.625
    1STR    C0610371   0.097  12.944   9.762
    1STR    C0710372   0.192  12.971   9.863
    1STR    N0810373   0.155  12.957   9.997
    1STR    C0910374   0.214  13.007  10.106
    1STR    O0A10375   0.305  13.089  10.105
    1STR    O0B10376   0.157  12.957  10.217
    1STR    C0C10377   0.218  12.980  10.344
    1STR    C0D10378   0.191  13.123  10.393
    1STR    C0E10379   0.167  12.875  10.443
    1STR    O0F10380   0.233  12.896  10.568
    1STR    C0G10381   0.193  12.811  10.675
    1STR    C0H10382   0.252  12.670  10.656
    1STR    C0I10383   0.247  12.877  10.803
    1STR    O0J10384   0.197  12.808  10.917
    1STR    C0K10385   0.249  12.852  11.042
    1STR    C0M10386   0.178  12.982  11.084
    1STR    C0N10387   0.226  12.738  11.142
    1STR    O0O10388   0.289  12.767  11.267
    1STR    C0P10389   0.219  12.809  11.372
    1STR    O0Q10390   0.097  12.823  11.376
    1STR    N0R10391   0.303  12.835  11.472
    1STR    C0S10392   0.281  12.885  11.600
    1STR    C0T10393   0.391  12.944  11.665
    1STR    C0U10394   0.376  13.002  11.791
    1STR    C0V10395   0.252  13.001  11.857
    1STR    C0W10396   0.240  13.078  11.988
    1STR    C0X10397   0.141  12.936  11.797
    1STR    N0Y10398   0.016  12.939  11.859
    1STR   BCK210399  17.411  12.869  11.964
    1STR    O1010400  17.306  12.902  12.017
    1STR    C1310401   0.156  12.880  11.668
    1STR    C1410402   0.324  13.003   9.824
    1STR    C1510403   0.360  13.009   9.688
    1STR    C1610404   0.264  12.981   9.588
    1STR    C1710405   0.309  12.981   9.443
    1STR    H1B10406   0.013  12.819   9.520
    1STR    H1C10407  17.435  12.918   9.788
    1STR    H1D10408   0.077  12.898  10.018
    1STR    H1E10409   0.326  12.966  10.333
    1STR    H1F10410   0.084  13.143  10.403
    1STR    H1G10411   0.237  13.140  10.491
    1STR    H1H10412   0.233  13.197  10.325
    1STR    H1I10413   0.188  12.775  10.405
    1STR    H1J10414   0.059  12.883  10.455
    1STR    H1K10415   0.085  12.807  10.681
    1STR    H1M10416   0.360  12.674  10.642
    1STR    H1N10417   0.209  12.619  10.570
    1STR    H1O10418   0.233  12.608  10.743
    1STR    H1P10419   0.356  12.878  10.801
    1STR    H1Q10420   0.215  12.981  10.805
    1STR    H1R10421   0.357  12.869  11.034
    1STR    H1S10422   0.215  13.016  11.181
    1STR    H1T10423   0.071  12.967  11.093
    1STR    H1U10424   0.196  13.064  11.014
    1STR    H1V10425   0.271  12.647  11.104
    1STR    H1W10426   0.120  12.717  11.154
    1STR    H1X10427   0.398  12.819  11.443
    1STR    H1Y10428   0.488  12.949  11.617
    1STR    H1Z10429   0.461  13.051  11.837
    1STR    H2010430   0.137  13.102  12.013
    1STR    H2110431   0.285  13.020  12.068
    1STR    H2210432   0.295  13.172  11.981
    1STR    H2310433  17.390  13.004  11.821
    1STR    H2710434   0.071  12.834  11.620
    1STR    H2810435   0.402  13.022   9.896
    1STR    H2910436   0.462  13.031   9.661
    1STR    H2A10437   0.265  12.898   9.388
    1STR    H2B10438   0.418  12.971   9.435
    1STR    H2C10439   0.280  13.074   9.394
    1STR   BCK110440  17.351  13.021  13.769
    1STR    O0310441  17.280  12.927  13.734
    1STR    N0410442  17.330  13.096  13.878
    1STR    C0510443  17.221  13.094  13.966
    1STR    C0610444  17.244  13.089  14.106
    1STR    C0710445  17.138  13.095  14.199
    1STR    N0810446  17.164  13.092  14.337
    1STR    C0910447  17.090  13.137  14.439
    1STR    O0A10448  16.982  13.195  14.427
    1STR    O0B10449  17.148  13.110  14.559
    1STR    C0C10450  17.078  13.138  14.681
    1STR    C0D10451  16.983  13.021  14.713
    1STR    C0E10452  17.177  13.163  14.796
    1STR    O0F10453  17.105  13.197  14.914
    1STR    C0G10454  17.184  13.229  15.029
    1STR    C0H10455  17.236  13.373  15.017
    1STR    C0I10456  17.098  13.211  15.156
    1STR    O0J10457  17.179  13.231  15.272
    1STR    C0K10458  17.112  13.224  15.398
    1STR    C0M10459  17.076  13.078  15.431
    1STR    C0N10460  17.207  13.284  15.504
    1STR    O0O10461  17.142  13.298  15.630
    1STR    C0P10462  17.171  13.215  15.732
    1STR    O0Q10463  17.243  13.116  15.723
    1STR    N0R10464  17.108  13.256  15.842
    1STR    C0S10465  17.106  13.205  15.972
    1STR    C0T10466  17.011  13.258  16.062
    1STR    C0U10467  17.002  13.211  16.194
    1STR    C0V10468  17.089  13.110  16.241
    1STR    C0W10469  17.071  13.059  16.383
    1STR    C0X10470  17.189  13.059  16.154
    1STR    N0Y10471  17.279  12.962  16.197
    1STR   BCK210472  17.365  12.974  16.299
    1STR    O1010473  17.380  13.075  16.366
    1STR    C1310474  17.195  13.105  16.021
    1STR    C1410475  17.006  13.103  14.149
    1STR    C1510476  16.982  13.111  14.011
    1STR    C1610477  17.088  13.109  13.919
    1STR    C1710478  17.055  13.128  13.772
    1STR    H1B10479  17.407  13.158  13.899
    1STR    H1C10480  17.346  13.079  14.141
    1STR    H1D10481  17.251  13.052  14.368
    1STR    H1E10482  17.019  13.229  14.669
    1STR    H1F10483  17.039  12.928  14.725
    1STR    H1G10484  16.928  13.039  14.804
    1STR    H1H10485  16.911  13.006  14.633
    1STR    H1I10486  17.245  13.243  14.768
    1STR    H1J10487  17.238  13.074  14.813
    1STR    H1K10488  17.269  13.160  15.036
    1STR    H1M10489  17.153  13.444  15.005
    1STR    H1N10490  17.304  13.386  14.933
    1STR    H1O10491  17.291  13.402  15.107
    1STR    H1P10492  17.014  13.280  15.154
    1STR    H1Q10493  17.057  13.110  15.156
    1STR    H1R10494  17.021  13.285  15.395
    1STR    H1S10495  17.031  13.071  15.530
    1STR    H1T10496  17.166  13.016  15.433
    1STR    H1U10497  17.006  13.035  15.361
    1STR    H1V10498  17.238  13.384  15.473
    1STR    H1W10499  17.299  13.226  15.512
    1STR    H1X10500  17.054  13.339  15.826
    1STR    H1Y10501  16.942  13.335  16.031
    1STR    H1Z10502  16.928  13.252  16.261
    1STR    H2010503  17.096  12.953  16.390
    1STR    H2110504  17.137  13.113  16.451
    1STR    H2210505  16.969  13.071  16.418
    1STR    H2310506  17.285  12.876  16.147
    1STR    H2710507  17.272  13.065  15.956
    1STR    H2810508  16.921  13.105  14.216
    1STR    H2910509  16.880  13.119  13.976
    1STR    H2A10510  17.133  13.186  13.721
    1STR    H2B10511  16.961  13.181  13.758
    1STR    H2C10512  17.047  13.031  13.723
    1STR   BCK110513   4.369  17.259   0.710
    1STR    O0310514   4.483  17.218   0.692
    1STR    N0410515   4.288  17.218   0.808
    1STR    C0510516   4.309  17.111   0.895
    1STR    C0610517   4.298  17.133   1.035
    1STR    C0710518   4.313  17.026   1.127
    1STR    N0810519   4.298  17.051   1.264
    1STR    C0910520   4.329  16.975   1.370
    1STR    O0A10521   4.384  16.865   1.364
    1STR    O0B10522   4.291  17.036   1.484
    1STR    C0C10523   4.316  16.973   1.609
    1STR    C0D10524   4.461  17.002   1.653
    1STR    C0E10525   4.214  17.022   1.714
    1STR    O0F10526   4.238  16.950   1.835
    1STR    C0G10527   4.154  16.985   1.944
    1STR    C0H10528   4.019  16.913   1.931
    1STR    C0I10529   4.228  16.943   2.072
    1STR    O0J10530   4.156  16.987   2.187
    1STR    C0K10531   4.212  16.946   2.311
    1STR    C0M10532   4.340  17.024   2.343
    1STR    C0N10533   4.105  16.969   2.420
    1STR    O0O10534   4.146  16.901   2.538
    1STR    C0P10535   4.175  16.968   2.650
    1STR    O0Q10536   4.168  17.089   2.665
    1STR    N0R10537   4.212  16.880   2.743
    1STR    C0S10538   4.245  16.895   2.878
    1STR    C0T10539   4.280  16.777   2.947
    1STR    C0U10540   4.306  16.780   3.085
    1STR    C0V10541   4.297  16.901   3.157
    1STR    C0W10542   4.310  16.893   3.308
    1STR    C0X10543   4.270  17.022   3.089
    1STR    N0Y10544   4.254  17.143   3.155
    1STR   BCK210545   4.334  17.210   3.239
    1STR    O1010546   4.291  17.310   3.295
    1STR    C1310547   4.242  17.017   2.950
    1STR    C1410548   4.339  16.897   1.076
    1STR    C1510549   4.348  16.874   0.937
    1STR    C1610550   4.331  16.980   0.846
    1STR    C1710551   4.333  16.948   0.698
    1STR    H1B10552   4.202  17.269   0.816
    1STR    H1C10553   4.279  17.232   1.071
    1STR    H1D10554   4.260  17.140   1.291
    1STR    H1E10555   4.303  16.865   1.599
    1STR    H1F10556   4.478  17.109   1.665
    1STR    H1G10557   4.483  16.954   1.748
    1STR    H1H10558   4.532  16.964   1.580
    1STR    H1I10559   4.113  17.004   1.677
    1STR    H1J10560   4.225  17.129   1.729
    1STR    H1K10561   4.139  17.093   1.948
    1STR    H1M10562   4.032  16.805   1.922
    1STR    H1N10563   3.963  16.947   1.843
    1STR    H1O10564   3.956  16.932   2.018
    1STR    H1P10565   4.242  16.835   2.073
    1STR    H1Q10566   4.328  16.988   2.070
    1STR    H1R10567   4.233  16.839   2.308
    1STR    H1S10568   4.377  16.999   2.443
    1STR    H1T10569   4.321  17.132   2.342
    1STR    H1U10570   4.421  17.003   2.273
    1STR    H1V10571   4.010  16.926   2.389
    1STR    H1W10572   4.087  17.075   2.436
    1STR    H1X10573   4.210  16.787   2.705
    1STR    H1Y10574   4.284  16.682   2.897
    1STR    H1Z10575   4.328  16.688   3.137
    1STR    H2010576   4.415  16.895   3.337
    1STR    H2110577   4.259  16.977   3.357
    1STR    H2210578   4.266  16.802   3.347
    1STR    H2310579   4.168  17.194   3.138
    1STR    H2710580   4.217  17.109   2.899
    1STR    H2810581   4.350  16.811   1.140
    1STR    H2910582   4.365  16.774   0.901
    1STR    H2A10583   4.259  17.008   0.644
    1STR    H2B10584   4.309  16.844   0.679
    1STR    H2C10585   4.431  16.969   0.656
    1STR   BCK110586   4.356  17.350   5.044
    1STR    O0310587   4.269  17.425   5.001
    1STR    N0410588   4.416  17.363   5.163
    1STR    C0510589   4.408   0.028   5.254
    1STR    C0610590   4.395  17.439   5.392
    1STR    C0710591   4.397   0.101   5.491
    1STR    N0810592   4.389   0.066   5.626
    1STR    C0910593   4.427   0.137   5.733
    1STR    O0A10594   4.479   0.249   5.729
    1STR    O0B10595   4.402   0.070   5.847
    1STR    C0C10596   4.424   0.134   5.973
    1STR    C0D10597   4.297   0.212   6.011
    1STR    C0E10598   4.462   0.031   6.081
    1STR    O0F10599   4.490   0.102   6.201
    1STR    C0G10600   4.532   0.024   6.312
    1STR    C0H10601   4.680  17.424   6.296
    1STR    C0I10602   4.511   0.110   6.438
    1STR    O0J10603   4.541   0.033   6.554
    1STR    C0K10604   4.531   0.102   6.678
    1STR    C0M10605   4.384   0.118   6.719
    1STR    C0N10606   4.611   0.020   6.780
    1STR    O0O10607   4.623   0.087   6.905
    1STR    C0P10608   4.545   0.053   7.009
    1STR    O0Q10609   4.454  17.410   7.005
    1STR    N0R10610   4.581   0.123   7.116
    1STR    C0S10611   4.531   0.123   7.247
    1STR    C0T10612   4.565   0.231   7.330
    1STR    C0U10613   4.516   0.239   7.462
    1STR    C0V10614   4.432   0.138   7.513
    1STR    C0W10615   4.375   0.155   7.653
    1STR    C0X10616   4.401   0.026   7.433
    1STR    N0Y10617   4.319  17.363   7.480
    1STR   BCK210618   4.342  17.276   7.578
    1STR    O1010619   4.257  17.192   7.607
    1STR    C1310620   4.449   0.020   7.300
    1STR    C1410621   4.406   0.235   5.447
    1STR    C1510622   4.422   0.265   5.311
    1STR    C1610623   4.426   0.164   5.214
    1STR    C1710624   4.457   0.204   5.071
    1STR    H1B10625   4.477  17.287   5.186
    1STR    H1C10626   4.385  17.336   5.422
    1STR    H1D10627   4.355  17.415   5.651
    1STR    H1E10628   4.508   0.204   5.965
    1STR    H1F10629   4.211   0.147   6.021
    1STR    H1G10630   4.311   0.265   6.106
    1STR    H1H10631   4.274   0.288   5.936
    1STR    H1I10632   4.550  17.416   6.047
    1STR    H1J10633   4.382  17.399   6.096
    1STR    H1K10634   4.470  17.375   6.321
    1STR    H1M10635   4.742   0.072   6.281
    1STR    H1N10636   4.695  17.358   6.211
    1STR    H1O10637   4.716  17.372   6.385
    1STR    H1P10638   4.574   0.199   6.433
    1STR    H1Q10639   4.407   0.144   6.440
    1STR    H1R10640   4.579   0.201   6.670
    1STR    H1S10641   4.375   0.168   6.815
    1STR    H1T10642   4.336   0.020   6.728
    1STR    H1U10643   4.327   0.177   6.647
    1STR    H1V10644   4.712   0.004   6.743
    1STR    H1W10645   4.568  17.360   6.792
    1STR    H1X10646   4.657   0.186   7.095
    1STR    H1Y10647   4.629   0.310   7.294
    1STR    H1Z10648   4.543   0.324   7.523
    1STR    H2010649   4.279   0.104   7.663
    1STR    H2110650   4.444   0.114   7.727
    1STR    H2210651   4.359   0.260   7.676
    1STR    H2310652   4.235  17.344   7.428
    1STR    H2710653   4.424  17.374   7.240
    1STR    H2810654   4.404   0.317   5.517
    1STR    H2910655   4.433   0.369   5.282
    1STR    H2A10656   4.517   0.128   5.021
    1STR    H2B10657   4.514   0.297   5.068
    1STR    H2C10658   4.365   0.220   5.015
    1STR   BCK110659   4.246  17.297   9.421
    1STR    O0310660   4.246  17.180   9.385
    1STR    N0410661   4.178  17.346   9.526
    1STR    C0510662   4.089  17.279   9.610
    1STR    C0610663   4.104  17.291   9.750
    1STR    C0710664   4.012  17.230   9.841
    1STR    N0810665   4.031  17.246   9.979
    1STR    C0910666   3.946  17.225  10.080
    1STR    O0A10667   3.829  17.189  10.068
    1STR    O0B10668   4.005  17.248  10.200
    1STR    C0C10669   3.938  17.213  10.321
    1STR    C0D10670   3.971  17.067  10.356
    1STR    C0E10671   3.979  17.309  10.435
    1STR    O0F10672   3.906  17.275  10.553
    1STR    C0G10673   3.930  17.358  10.667
    1STR    C0H10674   3.846   0.047  10.653
    1STR    C0I10675   3.890  17.279  10.793
    1STR    O0J10676   3.924  17.355  10.909
    1STR    C0K10677   3.888  17.298  11.035
    1STR    C0M10678   3.981  17.181  11.069
    1STR    C0N10679   3.897  17.410  11.140
    1STR    O0O10680   3.847  17.368  11.267
    1STR    C0P10681   3.929  17.344  11.370
    1STR    O0Q10682   4.052  17.346  11.364
    1STR    N0R10683   3.857  17.316  11.478
    1STR    C0S10684   3.894  17.282  11.609
    1STR    C0T10685   3.792  17.240  11.697
    1STR    C0U10686   3.822  17.200  11.828
    1STR    C0V10687   3.955  17.202  11.876
    1STR    C0W10688   3.980  17.146  12.015
    1STR    C0X10689   4.059  17.250  11.791
    1STR    N0Y10690   4.193  17.252  11.830
    1STR   BCK210691   4.249  17.294  11.943
    1STR    O1010692   4.191  17.348  12.037
    1STR    C1310693   4.027  17.288  11.659
    1STR    C1410694   3.906  17.154   9.787
    1STR    C1510695   3.889  17.143   9.648
    1STR    C1610696   3.977  17.207   9.559
    1STR    C1710697   3.946  17.200   9.410
    1STR    H1B10698   4.201   0.001   9.546
    1STR    H1C10699   4.187  17.347   9.789
    1STR    H1D10700   4.121  17.278  10.010
    1STR    H1E10701   3.830  17.223  10.308
    1STR    H1F10702   4.078  17.053  10.370
    1STR    H1G10703   3.920  17.036  10.447
    1STR    H1H10704   3.938  17.000  10.276
    1STR    H1I10705   3.957  17.411  10.405
    1STR    H1J10706   4.086  17.303  10.453
    1STR    H1K10707   4.036  17.383  10.674
    1STR    H1M10708   3.740   0.024  10.641
    1STR    H1N10709   3.877   0.108  10.569
    1STR    H1O10710   3.856   0.108  10.743
    1STR    H1P10711   3.784  17.256  10.792
    1STR    H1Q10712   3.944  17.184  10.793
    1STR    H1R10713   3.784  17.264  11.031
    1STR    H1S10714   3.958  17.140  11.168
    1STR    H1T10715   4.085  17.213  11.071
    1STR    H1U10716   3.972  17.098  10.999
    1STR    H1V10717   3.837   0.055  11.108
    1STR    H1W10718   4.000   0.008  11.148
    1STR    H1X10719   3.759  17.318  11.458
    1STR    H1Y10720   3.689  17.236  11.664
    1STR    H1Z10721   3.743  17.166  11.892
    1STR    H2010722   4.078  17.097  12.021
    1STR    H2110723   3.978  17.225  12.089
    1STR    H2210724   3.905  17.072  12.043
    1STR    H2310725   4.260  17.224  11.760
    1STR    H2710726   4.107  17.322  11.595
    1STR    H2810727   3.836  17.102   9.850
    1STR    H2910728   3.806  17.086   9.609
    1STR    H2A10729   3.976  17.292   9.359
    1STR    H2B10730   3.840  17.186   9.392
    1STR    H2C10731   4.000  17.116   9.365
    1STR   BCK110732   4.386  17.328  13.788
    1STR    O0310733   4.487  17.397  13.774
    1STR    N0410734   4.365  17.245  13.891
    1STR    C0510735   4.459  17.203  13.984
    1STR    C0610736   4.431  17.214  14.122
    1STR    C0710737   4.522  17.166  14.220
    1STR    N0810738   4.488  17.176  14.356
    1STR    C0910739   4.563  17.156  14.465
    1STR    O0A10740   4.683  17.131  14.465
    1STR    O0B10741   4.489  17.168  14.576
    1STR    C0C10742   4.550  17.154  14.705
    1STR    C0D10743   4.611  17.288  14.747
    1STR    C0E10744   4.447  17.104  14.807
    1STR    O0F10745   4.516  17.076  14.929
    1STR    C0G10746   4.436  17.028  15.036
    1STR    C0H10747   4.411  16.877  15.017
    1STR    C0I10748   4.513  17.056  15.166
    1STR    O0J10749   4.435  17.014  15.279
    1STR    C0K10750   4.499  17.024  15.406
    1STR    C0M10751   4.517  17.172  15.446
    1STR    C0N10752   4.411  16.947  15.506
    1STR    O0O10753   4.480  16.921  15.629
    1STR    C0P10754   4.460  17.000  15.736
    1STR    O0Q10755   4.383  17.094  15.740
    1STR    N0R10756   4.542  16.962  15.835
    1STR    C0S10757   4.568  17.026  15.956
    1STR    C0T10758   4.694  17.005  16.016
    1STR    C0U10759   4.733  17.081  16.128
    1STR    C0V10760   4.647  17.178  16.184
    1STR    C0W10761   4.707  17.274  16.284
    1STR    C0X10762   4.514  17.191  16.134
    1STR    N0Y10763   4.420  17.285  16.176
    1STR   BCK210764   4.378  17.345  16.288
    1STR    O1010765   4.294  17.433  16.278
    1STR    C1310766   4.478  17.115  16.020
    1STR    C1410767   4.642  17.106  14.175
    1STR    C1510768   4.670  17.093  14.038
    1STR    C1610769   4.579  17.139  13.942
    1STR    C1710770   4.610  17.114  13.795
    1STR    H1B10771   4.272  17.206  13.895
    1STR    H1C10772   4.339  17.261  14.153
    1STR    H1D10773   4.395  17.203  14.379
    1STR    H1E10774   4.629  17.079  14.699
    1STR    H1F10775   4.536  17.366  14.754
    1STR    H1G10776   4.660  17.280  14.844
    1STR    H1H10777   4.687  17.321  14.675
    1STR    H1I10778   4.399  17.014  14.769
    1STR    H1J10779   4.369  17.178  14.823
    1STR    H1K10780   4.341  17.082  15.040
    1STR    H1M10781   4.505  16.822  15.008
    1STR    H1N10782   4.351  16.857  14.928
    1STR    H1O10783   4.357  16.836  15.102
    1STR    H1P10784   4.609  17.005  15.165
    1STR    H1Q10785   4.533  17.163  15.172
    1STR    H1R10786   4.596  16.975  15.401
    1STR    H1S10787   4.559  17.181  15.546
    1STR    H1T10788   4.421  17.224  15.447
    1STR    H1U10789   4.583  17.226  15.380
    1STR    H1V10790   4.383  16.851  15.464
    1STR    H1W10791   4.316  17.000  15.523
    1STR    H1X10792   4.597  16.883  15.809
    1STR    H1Y10793   4.765  16.937  15.973
    1STR    H1Z10794   4.832  17.069  16.167
    1STR    H2010795   4.657  17.371  16.280
    1STR    H2110796   4.701  17.235  16.386
    1STR    H2210797   4.812  17.292  16.262
    1STR    H2310798   4.361  17.321  16.101
    1STR    H2710799   4.380  17.129  15.977
    1STR    H2810800   4.715  17.067  14.244
    1STR    H2910801   4.762  17.045  14.008
    1STR    H2A10802   4.519  17.088  13.740
    1STR    H2B10803   4.680  17.032  13.783
    1STR    H2C10804   4.654  17.203  13.750
    1STR   BCK110805   4.330   4.321   0.682
    1STR    O0310806   4.231   4.255   0.652
    1STR    N0410807   4.342   4.396   0.792
    1STR    C0510808   4.242   4.433   0.883
    1STR    C0610809   4.262   4.414   1.022
    1STR    C0710810   4.169   4.461   1.118
    1STR    N0810811   4.193   4.443   1.255
    1STR    C0910812   4.146   4.514   1.359
    1STR    O0A10813   4.073   4.613   1.349
    1STR    O0B10814   4.189   4.464   1.477
    1STR    C0C10815   4.144   4.523   1.600
    1STR    C0D10816   4.004   4.471   1.635
    1STR    C0E10817   4.244   4.493   1.714
    1STR    O0F10818   4.200   4.557   1.834
    1STR    C0G10819   4.285   4.541   1.948
    1STR    C0H10820   4.406   4.635   1.936
    1STR    C0I10821   4.203   4.572   2.074
    1STR    O0J10822   4.282   4.546   2.190
    1STR    C0K10823   4.221   4.578   2.315
    1STR    C0M10824   4.116   4.473   2.353
    1STR    C0N10825   4.334   4.584   2.420
    1STR    O0O10826   4.286   4.630   2.546
    1STR    C0P10827   4.279   4.548   2.652
    1STR    O0Q10828   4.308   4.429   2.651
    1STR    N0R10829   4.236   4.617   2.758
    1STR    C0S10830   4.212   4.577   2.890
    1STR    C0T10831   4.146   4.669   2.974
    1STR    C0U10832   4.116   4.636   3.107
    1STR    C0V10833   4.153   4.511   3.160
    1STR    C0W10834   4.113   4.476   3.303
    1STR    C0X10835   4.223   4.419   3.079
    1STR    N0Y10836   4.259   4.293   3.126
    1STR   BCK210837   4.341   4.265   3.227
    1STR    O1010838   4.407   4.348   3.289
    1STR    C1310839   4.251   4.452   2.944
    1STR    C1410840   4.052   4.525   1.071
    1STR    C1510841   4.032   4.546   0.933
    1STR    C1610842   4.127   4.503   0.839
    1STR    C1710843   4.105   4.539   0.693
    1STR    H1B10844   4.434   4.434   0.808
    1STR    H1C10845   4.351   4.363   1.055
    1STR    H1D10846   4.257   4.371   1.284
    1STR    H1E10847   4.140   4.631   1.589
    1STR    H1F10848   4.003   4.363   1.648
    1STR    H1G10849   3.967   4.516   1.727
    1STR    H1H10850   3.932   4.496   1.557
    1STR    H1I10851   4.343   4.530   1.685
    1STR    H1J10852   4.253   4.385   1.729
    1STR    H1K10853   4.319   4.437   1.955
    1STR    H1M10854   4.373   4.739   1.923
    1STR    H1N10855   4.471   4.610   1.852
    1STR    H1O10856   4.467   4.631   2.026
    1STR    H1P10857   4.169   4.676   2.072
    1STR    H1Q10858   4.113   4.510   2.074
    1STR    H1R10859   4.175   4.677   2.310
    1STR    H1S10860   4.074   4.494   2.451
    1STR    H1T10861   4.159   4.373   2.357
    1STR    H1U10862   4.032   4.471   2.283
    1STR    H1V10863   4.411   4.654   2.387
    1STR    H1W10864   4.384   4.487   2.428
    1STR    H1X10865   4.217   4.712   2.733
    1STR    H1Y10866   4.115   4.765   2.937
    1STR    H1Z10867   4.063   4.707   3.169
    1STR    H2010868   4.085   4.371   3.310
    1STR    H2110869   4.197   4.493   3.370
    1STR    H2210870   4.029   4.536   3.337
    1STR    H2310871   4.222   4.213   3.076
    1STR    H2710872   4.304   4.381   2.883
    1STR    H2810873   3.976   4.561   1.139
    1STR    H2910874   3.943   4.599   0.901
    1STR    H2A10875   4.199   4.566   0.645
    1STR    H2B10876   4.037   4.624   0.683
    1STR    H2C10877   4.061   4.454   0.640
    1STR   BCK110878   4.311   4.162   5.067
    1STR    O0310879   4.392   4.073   5.041
    1STR    N0410880   4.222   4.157   5.166
    1STR    C0510881   4.194   4.050   5.251
    1STR    C0610882   4.195   4.071   5.391
    1STR    C0710883   4.161   3.967   5.482
    1STR    N0810884   4.159   3.993   5.620
    1STR    C0910885   4.145   3.911   5.724
    1STR    O0A10886   4.135   3.789   5.717
    1STR    O0B10887   4.144   3.980   5.840
    1STR    C0C10888   4.131   3.910   5.965
    1STR    C0D10889   4.269   3.856   6.007
    1STR    C0E10890   4.072   4.003   6.072
    1STR    O0F10891   4.057   3.929   6.193
    1STR    C0G10892   4.004   4.001   6.304
    1STR    C0H10893   3.851   4.013   6.290
    1STR    C0I10894   4.042   3.924   6.431
    1STR    O0J10895   4.006   4.000   6.546
    1STR    C0K10896   4.026   3.936   6.672
    1STR    C0M10897   4.175   3.931   6.707
    1STR    C0N10898   3.946   4.017   6.776
    1STR    O0O10899   3.936   3.949   6.901
    1STR    C0P10900   4.013   3.983   7.005
    1STR    O0Q10901   4.104   4.066   7.002
    1STR    N0R10902   3.975   3.913   7.112
    1STR    C0S10903   4.022   3.910   7.243
    1STR    C0T10904   3.961   3.818   7.330
    1STR    C0U10905   4.004   3.805   7.464
    1STR    C0V10906   4.109   3.885   7.513
    1STR    C0W10907   4.158   3.858   7.655
    1STR    C0X10908   4.169   3.983   7.429
    1STR    N0Y10909   4.276   4.062   7.470
    1STR   BCK210910   4.288   4.134   7.582
    1STR    O1010911   4.198   4.155   7.663
    1STR    C1310912   4.125   3.993   7.294
    1STR    C1410913   4.125   3.841   5.428
    1STR    C1510914   4.122   3.820   5.289
    1STR    C1610915   4.154   3.924   5.200
    1STR    C1710916   4.140   3.899   5.051
    1STR    H1B10917   4.169   4.242   5.178
    1STR    H1C10918   4.223   4.167   5.429
    1STR    H1D10919   4.171   4.089   5.648
    1STR    H1E10920   4.062   3.827   5.952
    1STR    H1F10921   4.341   3.936   6.020
    1STR    H1G10922   4.262   3.801   6.100
    1STR    H1H10923   4.308   3.788   5.931
    1STR    H1I10924   3.975   4.041   6.038
    1STR    H1J10925   4.136   4.090   6.087
    1STR    H1K10926   4.049   4.101   6.309
    1STR    H1M10927   3.805   3.915   6.278
    1STR    H1N10928   3.822   4.074   6.204
    1STR    H1O10929   3.808   4.060   6.378
    1STR    H1P10930   3.993   3.827   6.432
    1STR    H1Q10931   4.150   3.906   6.431
    1STR    H1R10932   3.984   3.835   6.669
    1STR    H1S10933   4.191   3.887   6.806
    1STR    H1T10934   4.218   4.031   6.710
    1STR    H1U10935   4.233   3.872   6.636
    1STR    H1V10936   3.844   4.031   6.740
    1STR    H1W10937   3.987   4.118   6.788
    1STR    H1X10938   3.897   3.854   7.088
    1STR    H1Y10939   3.881   3.754   7.297
    1STR    H1Z10940   3.957   3.732   7.528
    1STR    H2010941   4.266   3.871   7.662
    1STR    H2110942   4.111   3.927   7.724
    1STR    H2210943   4.135   3.757   7.687
    1STR    H2310944   4.353   4.071   7.406
    1STR    H2710945   4.171   4.066   7.230
    1STR    H2810946   4.097   3.758   5.490
    1STR    H2910947   4.092   3.724   5.251
    1STR    H2A10948   4.103   3.987   4.999
    1STR    H2B10949   4.069   3.818   5.031
    1STR    H2C10950   4.236   3.871   5.008
    1STR   BCK110951   4.347   4.276   9.429
    1STR    O0310952   4.324   4.395   9.414
    1STR    N0410953   4.413   4.224   9.531
    1STR    C0510954   4.483   4.298   9.626
    1STR    C0610955   4.454   4.281   9.763
    1STR    C0710956   4.525   4.353   9.862
    1STR    N0810957   4.494   4.331   9.997
    1STR    C0910958   4.562   4.365  10.107
    1STR    O0A10959   4.669   4.426  10.108
    1STR    O0B10960   4.498   4.324  10.217
    1STR    C0C10961   4.546   4.363  10.345
    1STR    C0D10962   4.478   4.496  10.385
    1STR    C0E10963   4.520   4.252  10.448
    1STR    O0F10964   4.584   4.293  10.568
    1STR    C0G10965   4.576   4.201  10.676
    1STR    C0H10966   4.680   4.090  10.658
    1STR    C0I10967   4.604   4.285  10.802
    1STR    O0J10968   4.592   4.203  10.918
    1STR    C0K10969   4.622   4.268  11.041
    1STR    C0M10970   4.505   4.358  11.082
    1STR    C0N10971   4.648   4.156  11.143
    1STR    O0O10972   4.699   4.210  11.265
    1STR    C0P10973   4.619   4.225  11.370
    1STR    O0Q10974   4.500   4.195  11.373
    1STR    N0R10975   4.687   4.279  11.471
    1STR    C0S10976   4.645   4.314  11.599
    1STR    C0T10977   4.723   4.407  11.671
    1STR    C0U10978   4.685   4.448  11.800
    1STR    C0V10979   4.569   4.396  11.861
    1STR    C0W10980   4.527   4.446  11.998
    1STR    C0X10981   4.493   4.299  11.792
    1STR    N0Y10982   4.379   4.245  11.849
    1STR   BCK210983   4.370   4.157  11.949
    1STR    O1010984   4.261   4.123  11.992
    1STR    C1310985   4.530   4.260  11.661
    1STR    C1410986   4.622   4.446   9.821
    1STR    C1510987   4.654   4.462   9.685
    1STR    C1610988   4.587   4.386   9.587
    1STR    C1710989   4.631   4.400   9.442
    1STR    H1B10990   4.415   4.123   9.537
    1STR    H1C10991   4.377   4.211   9.792
    1STR    H1D10992   4.411   4.279  10.018
    1STR    H1E10993   4.654   4.378  10.342
    1STR    H1F10994   4.370   4.485  10.390
    1STR    H1G10995   4.514   4.530  10.482
    1STR    H1H10996   4.501   4.573  10.311
    1STR    H1I10997   4.563   4.158  10.411
    1STR    H1J10998   4.413   4.236  10.462
    1STR    H1K10999   4.475   4.159  10.684
    1STR    H1M11000   4.780   4.131  10.645
    1STR    H1N11001   4.658   4.027  10.572
    1STR    H1O11002   4.682   4.024  10.745
    1STR    H1P11003   4.703   4.329  10.795
    1STR    H1Q11004   4.532   4.367  10.806
    1STR    H1R11005   4.713   4.327  11.031
    1STR    H1S11006   4.523   4.405  11.179
    1STR    H1T11007   4.412   4.301  11.091
    1STR    H1U11008   4.487   4.439  11.012
    1STR    H1V11009   4.723   4.087  11.103
    1STR    H1W11010   4.558   4.096  11.158
    1STR    H1X11011   4.782   4.298  11.444
    1STR    H1Y11012   4.812   4.449  11.628
    1STR    H1Z11013   4.744   4.521  11.853
    1STR    H2011014   4.418   4.453  12.005
    1STR    H2111015   4.560   4.377  12.075
    1STR    H2211016   4.568   4.544  12.019
    1STR    H2311017   4.288   4.271  11.813
    1STR    H2711018   4.469   4.187  11.611
    1STR    H2811019   4.676   4.508   9.891
    1STR    H2911020   4.731   4.532   9.656
    1STR    H2A11021   4.624   4.306   9.389
    1STR    H2B11022   4.735   4.433   9.435
    1STR    H2C11023   4.569   4.474   9.391
    1STR   BCK111024   4.260   4.277  13.790
    1STR    O0311025   4.233   4.159  13.768
    1STR    N0411026   4.207   4.351  13.887
    1STR    C0511027   4.102   4.317  13.972
    1STR    C0611028   4.123   4.319  14.112
    1STR    C0711029   4.017   4.294  14.203
    1STR    N0811030   4.042   4.299  14.341
    1STR    C0911031   3.955   4.316  14.442
    1STR    O0A11032   3.835   4.334  14.428
    1STR    O0B11033   4.018   4.312  14.562
    1STR    C0C11034   3.941   4.317  14.683
    1STR    C0D11035   3.892   4.175  14.717
    1STR    C0E11036   4.026   4.377  14.797
    1STR    O0F11037   3.949   4.382  14.916
    1STR    C0G11038   4.013   4.440  15.030
    1STR    C0H11039   4.010   4.594  15.017
    1STR    C0I11040   3.937   4.394  15.156
    1STR    O0J11041   4.007   4.439  15.272
    1STR    C0K11042   3.945   4.410  15.397
    1STR    C0M11043   3.962   4.261  15.432
    1STR    C0N11044   4.012   4.499  15.503
    1STR    O0O11045   3.948   4.486  15.630
    1STR    C0P11046   4.012   4.433  15.735
    1STR    O0Q11047   4.127   4.390  15.734
    1STR    N0R11048   3.931   4.435  15.841
    1STR    C0S11049   3.948   4.390  15.973
    1STR    C0T11050   3.839   4.407  16.061
    1STR    C0U11051   3.845   4.359  16.193
    1STR    C0V11052   3.960   4.294  16.241
    1STR    C0W11053   3.957   4.235  16.381
    1STR    C0X11054   4.072   4.279  16.156
    1STR    N0Y11055   4.187   4.211  16.196
    1STR   BCK211056   4.264   4.235  16.303
    1STR    O1011057   4.248   4.328  16.380
    1STR    C1311058   4.064   4.326  16.022
    1STR    C1411059   3.890   4.263  14.150
    1STR    C1511060   3.868   4.261  14.011
    1STR    C1611061   3.973   4.290  13.922
    1STR    C1711062   3.942   4.296  13.773
    1STR    H1B11063   4.239   4.447  13.892
    1STR    H1C11064   4.221   4.343  14.150
    1STR    H1D11065   4.136   4.293  14.374
    1STR    H1E11066   3.855   4.382  14.669
    1STR    H1F11067   3.974   4.106  14.732
    1STR    H1G11068   3.831   4.176  14.808
    1STR    H1H11069   3.828   4.136  14.637
    1STR    H1I11070   4.059   4.476  14.767
    1STR    H1J11071   4.116   4.316  14.813
    1STR    H1K11072   4.115   4.405  15.037
    1STR    H1M11073   3.908   4.630  15.004
    1STR    H1N11074   4.070   4.629  14.933
    1STR    H1O11075   4.050   4.641  15.107
    1STR    H1P11076   3.835   4.432  15.155
    1STR    H1Q11077   3.930   4.285  15.155
    1STR    H1R11078   3.839   4.435  15.393
    1STR    H1S11079   3.920   4.239  15.531
    1STR    H1T11080   4.067   4.232  15.434
    1STR    H1U11081   3.910   4.196  15.362
    1STR    H1V11082   4.003   4.604  15.474
    1STR    H1W11083   4.119   4.479  15.509
    1STR    H1X11084   3.842   4.475  15.817
    1STR    H1Y11085   3.748   4.456  16.029
    1STR    H1Z11086   3.759   4.372  16.258
    1STR    H2011087   4.013   4.142  16.386
    1STR    H2111088   4.001   4.305  16.452
    1STR    H2211089   3.855   4.213  16.413
    1STR    H2311090   4.217   4.135  16.138
    1STR    H2711091   4.149   4.312  15.958
    1STR    H2811092   3.806   4.240  14.214
    1STR    H2911093   3.769   4.240  13.974
    1STR    H2A11094   3.996   4.378  13.725
    1STR    H2B11095   3.836   4.312  13.755
    1STR    H2C11096   3.971   4.202  13.725
    1STR   BCK111097   4.383   8.563   0.708
    1STR    O0311098   4.505   8.565   0.692
    1STR    N0411099   4.319   8.500   0.807
    1STR    C0511100   4.375   8.410   0.896
    1STR    C0611101   4.357   8.429   1.035
    1STR    C0711102   4.406   8.336   1.130
    1STR    N0811103   4.383   8.358   1.266
    1STR    C0911104   4.440   8.301   1.373
    1STR    O0A11105   4.533   8.221   1.369
    1STR    O0B11106   4.381   8.345   1.486
    1STR    C0C11107   4.425   8.295   1.612
    1STR    C0D11108   4.550   8.373   1.657
    1STR    C0E11109   4.311   8.305   1.714
    1STR    O0F11110   4.357   8.248   1.836
    1STR    C0G11111   4.264   8.252   1.944
    1STR    C0H11112   4.162   8.139   1.930
    1STR    C0I11113   4.347   8.238   2.073
    1STR    O0J11114   4.265   8.260   2.187
    1STR    C0K11115   4.329   8.237   2.312
    1STR    C0M11116   4.426   8.351   2.345
    1STR    C0N11117   4.219   8.225   2.419
    1STR    O0O11118   4.277   8.169   2.537
    1STR    C0P11119   4.293   8.242   2.648
    1STR    O0Q11120   4.261   8.360   2.662
    1STR    N0R11121   4.350   8.164   2.740
    1STR    C0S11122   4.381   8.185   2.874
    1STR    C0T11123   4.451   8.081   2.939
    1STR    C0U11124   4.475   8.087   3.077
    1STR    C0V11125   4.429   8.196   3.154
    1STR    C0W11126   4.442   8.185   3.305
    1STR    C0X11127   4.365   8.305   3.090
    1STR    N0Y11128   4.312   8.413   3.160
    1STR   BCK211129   4.365   8.498   3.249
    1STR    O1011130   4.293   8.580   3.304
    1STR    C1311131   4.340   8.297   2.950
    1STR    C1411132   4.473   8.221   1.082
    1STR    C1511133   4.490   8.200   0.944
    1STR    C1611134   4.440   8.292   0.851
    1STR    C1711135   4.453   8.259   0.703
    1STR    H1B11136   4.221   8.519   0.813
    1STR    H1C11137   4.306   8.518   1.069
    1STR    H1D11138   4.314   8.427   1.292
    1STR    H1E11139   4.451   8.189   1.602
    1STR    H1F11140   4.528   8.479   1.668
    1STR    H1G11141   4.586   8.336   1.753
    1STR    H1H11142   4.631   8.362   1.585
    1STR    H1I11143   4.224   8.251   1.677
    1STR    H1J11144   4.282   8.409   1.728
    1STR    H1K11145   4.213   8.349   1.947
    1STR    H1M11146   4.212   8.042   1.922
    1STR    H1N11147   4.099   8.151   1.842
    1STR    H1O11148   4.097   8.134   2.017
    1STR    H1P11149   4.394   8.139   2.076
    1STR    H1Q11150   4.428   8.312   2.071
    1STR    H1R11151   4.382   8.142   2.309
    1STR    H1S11152   4.469   8.338   2.444
    1STR    H1T11153   4.375   8.448   2.344
    1STR    H1U11154   4.509   8.356   2.275
    1STR    H1V11155   4.141   8.157   2.386
    1STR    H1W11156   4.170   8.321   2.437
    1STR    H1X11157   4.368   8.074   2.701
    1STR    H1Y11158   4.484   7.995   2.884
    1STR    H1Z11159   4.525   8.004   3.125
    1STR    H2011160   4.542   8.213   3.335
    1STR    H2111161   4.369   8.248   3.356
    1STR    H2211162   4.424   8.083   3.338
    1STR    H2311163   4.216   8.436   3.141
    1STR    H2711164   4.287   8.378   2.902
    1STR    H2811165   4.511   8.146   1.149
    1STR    H2911166   4.540   8.110   0.911
    1STR    H2A11167   4.363   8.290   0.648
    1STR    H2B11168   4.467   8.153   0.687
    1STR    H2C11169   4.539   8.312   0.660
    1STR   BCK111170   4.339   8.642   5.045
    1STR    O0311171   4.233   8.682   4.997
    1STR    N0411172   4.389   8.679   5.164
    1STR    C0511173   4.344   8.779   5.251
    1STR    C0611174   4.342   8.750   5.390
    1STR    C0711175   4.307   8.849   5.486
    1STR    N0811176   4.312   8.817   5.623
    1STR    C0911177   4.316   8.898   5.729
    1STR    O0A11178   4.314   9.021   5.724
    1STR    O0B11179   4.322   8.827   5.844
    1STR    C0C11180   4.318   8.896   5.970
    1STR    C0D11181   4.172   8.926   6.007
    1STR    C0E11182   4.390   8.814   6.078
    1STR    O0F11183   4.390   8.891   6.199
    1STR    C0G11184   4.456   8.832   6.310
    1STR    C0H11185   4.608   8.846   6.295
    1STR    C0I11186   4.406   8.905   6.436
    1STR    O0J11187   4.461   8.843   6.552
    1STR    C0K11188   4.429   8.905   6.677
    1STR    C0M11189   4.286   8.868   6.718
    1STR    C0N11190   4.534   8.855   6.778
    1STR    O0O11191   4.520   8.920   6.905
    1STR    C0P11192   4.463   8.856   7.008
    1STR    O0Q11193   4.410   8.745   7.002
    1STR    N0R11194   4.472   8.932   7.117
    1STR    C0S11195   4.426   8.910   7.248
    1STR    C0T11196   4.426   9.020   7.337
    1STR    C0U11197   4.377   9.006   7.468
    1STR    C0V11198   4.328   8.882   7.514
    1STR    C0W11199   4.266   8.876   7.653
    1STR    C0X11200   4.333   8.769   7.429
    1STR    N0Y11201   4.282   8.645   7.466
    1STR   BCK211202   4.319   8.561   7.563
    1STR    O1011203   4.263   8.453   7.573
    1STR    C1311204   4.380   8.785   7.296
    1STR    C1411205   4.269   8.976   5.439
    1STR    C1511206   4.273   9.007   5.302
    1STR    C1611207   4.313   8.910   5.208
    1STR    C1711208   4.329   8.955   5.064
    1STR    H1B11209   4.473   8.631   5.189
    1STR    H1C11210   4.369   8.651   5.423
    1STR    H1D11211   4.319   8.720   5.649
    1STR    H1E11212   4.373   8.991   5.960
    1STR    H1F11213   4.114   8.834   6.017
    1STR    H1G11214   4.167   8.980   6.102
    1STR    H1H11215   4.124   8.988   5.931
    1STR    H1I11216   4.492   8.793   6.046
    1STR    H1J11217   4.340   8.718   6.094
    1STR    H1K11218   4.428   8.726   6.319
    1STR    H1M11219   4.637   8.950   6.280
    1STR    H1N11220   4.646   8.788   6.211
    1STR    H1O11221   4.660   8.810   6.384
    1STR    H1P11222   4.434   9.010   6.432
    1STR    H1Q11223   4.297   8.901   6.439
    1STR    H1R11224   4.439   9.014   6.669
    1STR    H1S11225   4.261   8.911   6.816
    1STR    H1T11226   4.275   8.760   6.727
    1STR    H1U11227   4.211   8.904   6.648
    1STR    H1V11228   4.634   8.878   6.741
    1STR    H1W11229   4.530   8.747   6.788
    1STR    H1X11230   4.519   9.018   7.098
    1STR    H1Y11231   4.462   9.116   7.305
    1STR    H1Z11232   4.375   9.092   7.533
    1STR    H2011233   4.193   8.796   7.660
    1STR    H2111234   4.343   8.859   7.728
    1STR    H2211235   4.215   8.969   7.677
    1STR    H2311236   4.212   8.605   7.406
    1STR    H2711237   4.381   8.698   7.232
    1STR    H2811238   4.238   9.055   5.506
    1STR    H2911239   4.247   9.106   5.270
    1STR    H2A11240   4.411   8.903   5.014
    1STR    H2B11241   4.351   9.062   5.058
    1STR    H2C11242   4.237   8.937   5.008
    1STR   BCK111243   4.266   8.549   9.428
    1STR    O0311244   4.297   8.437   9.390
    1STR    N0411245   4.186   8.577   9.531
    1STR    C0511246   4.114   8.490   9.612
    1STR    C0611247   4.123   8.505   9.753
    1STR    C0711248   4.047   8.424   9.842
    1STR    N0811249   4.056   8.447   9.980
    1STR    C0911250   4.008   8.376  10.083
    1STR    O0A11251   3.951   8.268  10.074
    1STR    O0B11252   4.034   8.439  10.200
    1STR    C0C11253   3.986   8.384  10.324
    1STR    C0D11254   4.074   8.265  10.367
    1STR    C0E11255   3.982   8.493  10.432
    1STR    O0F11256   3.934   8.436  10.554
    1STR    C0G11257   3.926   8.525  10.666
    1STR    C0H11258   3.804   8.616  10.652
    1STR    C0I11259   3.917   8.438  10.793
    1STR    O0J11260   3.927   8.521  10.909
    1STR    C0K11261   3.909   8.455  11.034
    1STR    C0M11262   4.035   8.374  11.070
    1STR    C0N11263   3.881   8.565  11.138
    1STR    O0O11264   3.844   8.509  11.264
    1STR    C0P11265   3.928   8.512  11.369
    1STR    O0Q11266   4.043   8.555  11.366
    1STR    N0R11267   3.867   8.460  11.475
    1STR    C0S11268   3.910   8.439  11.607
    1STR    C0T11269   3.820   8.374  11.694
    1STR    C0U11270   3.858   8.343  11.826
    1STR    C0V11271   3.985   8.377  11.874
    1STR    C0W11272   4.023   8.329  12.014
    1STR    C0X11273   4.075   8.448  11.791
    1STR    N0Y11274   4.204   8.483  11.830
    1STR   BCK211275   4.247   8.539  11.943
    1STR    O1011276   4.175   8.582  12.033
    1STR    C1311277   4.037   8.477  11.657
    1STR    C1411278   3.961   8.327   9.786
    1STR    C1511279   3.951   8.312   9.647
    1STR    C1611280   4.024   8.394   9.559
    1STR    C1711281   3.999   8.380   9.410
    1STR    H1B11282   4.178   8.675   9.552
    1STR    H1C11283   4.189   8.580   9.793
    1STR    H1D11284   4.104   8.530  10.011
    1STR    H1E11285   3.883   8.349  10.308
    1STR    H1F11286   4.177   8.296  10.382
    1STR    H1G11287   4.037   8.222  10.459
    1STR    H1H11288   4.073   8.186  10.292
    1STR    H1I11289   3.917   8.575  10.399
    1STR    H1J11290   4.082   8.536  10.447
    1STR    H1K11291   4.017   8.585  10.672
    1STR    H1M11292   3.712   8.558  10.638
    1STR    H1N11293   3.812   8.685  10.568
    1STR    H1O11294   3.790   8.677  10.741
    1STR    H1P11295   3.823   8.382  10.792
    1STR    H1Q11296   3.998   8.365  10.792
    1STR    H1R11297   3.822   8.389  11.029
    1STR    H1S11298   4.025   8.328  11.168
    1STR    H1T11299   4.123   8.439  11.073
    1STR    H1U11300   4.055   8.294  10.999
    1STR    H1V11301   3.797   8.626  11.104
    1STR    H1W11302   3.965   8.633  11.147
    1STR    H1X11303   3.774   8.432  11.451
    1STR    H1Y11304   3.722   8.344  11.660
    1STR    H1Z11305   3.788   8.290  11.889
    1STR    H2011306   4.129   8.304  12.019
    1STR    H2111307   4.003   8.407  12.087
    1STR    H2211308   3.968   8.240  12.042
    1STR    H2311309   4.277   8.470  11.762
    1STR    H2711310   4.107   8.528  11.593
    1STR    H2811311   3.899   8.264   9.847
    1STR    H2911312   3.882   8.238   9.607
    1STR    H2A11313   4.005   8.477   9.360
    1STR    H2B11314   3.900   8.339   9.390
    1STR    H2C11315   4.073   8.313   9.365
    1STR   BCK111316   4.371   8.628  13.788
    1STR    O0311317   4.434   8.733  13.776
    1STR    N0411318   4.385   8.543  13.889
    1STR    C0511319   4.487   8.545  13.983
    1STR    C0611320   4.456   8.547  14.121
    1STR    C0711321   4.557   8.544  14.220
    1STR    N0811322   4.520   8.542  14.355
    1STR    C0911323   4.595   8.552  14.465
    1STR    O0A11324   4.717   8.572  14.467
    1STR    O0B11325   4.520   8.537  14.575
    1STR    C0C11326   4.580   8.545  14.704
    1STR    C0D11327   4.589   8.693  14.747
    1STR    C0E11328   4.501   8.461  14.804
    1STR    O0F11329   4.575   8.460  14.926
    1STR    C0G11330   4.517   8.387  15.032
    1STR    C0H11331   4.545   8.237  15.014
    1STR    C0I11332   4.582   8.441  15.160
    1STR    O0J11333   4.523   8.378  15.273
    1STR    C0K11334   4.582   8.411  15.399
    1STR    C0M11335   4.541   8.554  15.441
    1STR    C0N11336   4.533   8.305  15.498
    1STR    O0O11337   4.606   8.312  15.620
    1STR    C0P11338   4.555   8.378  15.725
    1STR    O0Q11339   4.446   8.433  15.728
    1STR    N0R11340   4.646   8.380  15.822
    1STR    C0S11341   4.638   8.445  15.945
    1STR    C0T11342   4.758   8.491  16.003
    1STR    C0U11343   4.757   8.563  16.124
    1STR    C0V11344   4.636   8.587  16.191
    1STR    C0W11345   4.639   8.672  16.317
    1STR    C0X11346   4.515   8.533  16.139
    1STR    N0Y11347   4.395   8.546  16.208
    1STR   BCK211348   4.367   8.496  16.328
    1STR    O1011349   4.270   8.535  16.391
    1STR    C1311350   4.517   8.465  16.015
    1STR    C1411351   4.692   8.539  14.177
    1STR    C1511352   4.724   8.535  14.040
    1STR    C1611353   4.623   8.536  13.943
    1STR    C1711354   4.663   8.524  13.797
    1STR    H1B11355   4.320   8.466  13.891
    1STR    H1C11356   4.352   8.552  14.150
    1STR    H1D11357   4.423   8.533  14.376
    1STR    H1E11358   4.681   8.503  14.699
    1STR    H1F11359   4.490   8.739  14.752
    1STR    H1G11360   4.636   8.702  14.844
    1STR    H1H11361   4.649   8.750  14.676
    1STR    H1I11362   4.490   8.359  14.765
    1STR    H1J11363   4.401   8.502  14.819
    1STR    H1K11364   4.410   8.405  15.038
    1STR    H1M11365   4.652   8.218  15.003
    1STR    H1N11366   4.494   8.197  14.926
    1STR    H1O11367   4.510   8.180  15.100
    1STR    H1P11368   4.690   8.424  15.157
    1STR    H1Q11369   4.567   8.549  15.164
    1STR    H1R11370   4.690   8.403  15.392
    1STR    H1S11371   4.582   8.579  15.539
    1STR    H1T11372   4.433   8.563  15.448
    1STR    H1U11373   4.577   8.630  15.372
    1STR    H1V11374   4.549   8.205  15.456
    1STR    H1W11375   4.425   8.312  15.514
    1STR    H1X11376   4.729   8.331  15.798
    1STR    H1Y11377   4.853   8.475  15.953
    1STR    H1Z11378   4.849   8.600  16.165
    1STR    H2011379   4.539   8.706  16.347
    1STR    H2111380   4.681   8.614  16.400
    1STR    H2211381   4.699   8.761  16.302
    1STR    H2311382   4.319   8.598  16.167
    1STR    H2711383   4.424   8.427  15.975
    1STR    H2811384   4.774   8.535  14.246
    1STR    H2911385   4.828   8.530  14.011
    1STR    H2A11386   4.593   8.462  13.741
    1STR    H2B11387   4.762   8.478  13.786
    1STR    H2C11388   4.667   8.622  13.750
    1STR   BCK111389   4.295  13.035   0.690
    1STR    O0311390   4.214  12.949   0.658
    1STR    N0411391   4.285  13.114   0.798
    1STR    C0511392   4.177  13.125   0.886
    1STR    C0611393   4.200  13.113   1.026
    1STR    C0711394   4.096  13.135   1.120
    1STR    N0811395   4.122  13.123   1.258
    1STR    C0911396   4.061  13.187   1.359
    1STR    O0A11397   3.976  13.274   1.345
    1STR    O0B11398   4.108  13.144   1.479
    1STR    C0C11399   4.045  13.187   1.600
    1STR    C0D11400   3.927  13.093   1.631
    1STR    C0E11401   4.147  13.189   1.716
    1STR    O0F11402   4.085  13.241   1.834
    1STR    C0G11403   4.170  13.253   1.948
    1STR    C0H11404   4.251  13.383   1.937
    1STR    C0I11405   4.081  13.253   2.074
    1STR    O0J11406   4.164  13.259   2.190
    1STR    C0K11407   4.096  13.265   2.316
    1STR    C0M11408   4.034  13.128   2.350
    1STR    C0N11409   4.200  13.305   2.423
    1STR    O0O11410   4.136  13.328   2.548
    1STR    C0P11411   4.171  13.257   2.657
    1STR    O0Q11412   4.257  13.170   2.660
    1STR    N0R11413   4.098  13.298   2.761
    1STR    C0S11414   4.094  13.254   2.895
    1STR    C0T11415   4.007  13.323   2.982
    1STR    C0U11416   3.992  13.282   3.116
    1STR    C0V11417   4.064  13.172   3.166
    1STR    C0W11418   4.038  13.125   3.308
    1STR    C0X11419   4.154  13.104   3.081
    1STR    N0Y11420   4.220  12.990   3.125
    1STR   BCK211421   4.310  12.979   3.223
    1STR    O1011422   4.359  13.074   3.284
    1STR    C1311423   4.167  13.144   2.946
    1STR    C1411424   3.967  13.165   1.072
    1STR    C1511425   3.944  13.178   0.934
    1STR    C1611426   4.048  13.161   0.841
    1STR    C1711427   4.018  13.185   0.694
    1STR    H1B11428   4.365  13.172   0.815
    1STR    H1C11429   4.299  13.087   1.061
    1STR    H1D11430   4.193  13.059   1.288
    1STR    H1E11431   4.007  13.289   1.588
    1STR    H1F11432   3.960  12.990   1.644
    1STR    H1G11433   3.876  13.124   1.723
    1STR    H1H11434   3.853  13.095   1.551
    1STR    H1I11435   4.232  13.251   1.687
    1STR    H1J11436   4.185  13.089   1.734
    1STR    H1K11437   4.237  13.167   1.955
    1STR    H1M11438   4.185  13.469   1.926
    1STR    H1N11439   4.319  13.381   1.852
    1STR    H1O11440   4.311  13.398   2.026
    1STR    H1P11441   4.012  13.338   2.072
    1STR    H1Q11442   4.021  13.162   2.075
    1STR    H1R11443   4.019  13.341   2.313
    1STR    H1S11444   3.990  13.129   2.450
    1STR    H1T11445   4.109  13.049   2.349
    1STR    H1U11446   3.955  13.100   2.281
    1STR    H1V11447   4.249  13.398   2.394
    1STR    H1W11448   4.279  13.230   2.429
    1STR    H1X11449   4.035  13.371   2.735
    1STR    H1Y11450   3.948  13.407   2.948
    1STR    H1Z11451   3.923  13.335   3.180
    1STR    H2011452   4.035  13.016   3.313
    1STR    H2111453   4.119  13.159   3.374
    1STR    H2211454   3.944  13.163   3.347
    1STR    H2311455   4.199  12.903   3.079
    1STR    H2711456   4.235  13.089   2.882
    1STR    H2811457   3.885  13.180   1.139
    1STR    H2911458   3.844  13.203   0.900
    1STR    H2A11459   4.102  13.234   0.644
    1STR    H2B11460   3.931  13.250   0.682
    1STR    H2C11461   3.997  13.091   0.644
    1STR   BCK111462   4.344  12.885   5.066
    1STR    O0311463   4.446  12.822   5.042
    1STR    N0411464   4.259  12.859   5.166
    1STR    C0511465   4.262  12.749   5.252
    1STR    C0611466   4.256  12.771   5.392
    1STR    C0711467   4.253  12.663   5.484
    1STR    N0811468   4.243  12.690   5.621
    1STR    C0911469   4.254  12.608   5.727
    1STR    O0A11470   4.281  12.488   5.721
    1STR    O0B11471   4.232  12.675   5.841
    1STR    C0C11472   4.243  12.608   5.967
    1STR    C0D11473   4.391  12.604   6.010
    1STR    C0E11474   4.155  12.677   6.072
    1STR    O0F11475   4.164  12.601   6.193
    1STR    C0G11476   4.090  12.653   6.303
    1STR    C0H11477   3.942  12.611   6.290
    1STR    C0I11478   4.154  12.595   6.430
    1STR    O0J11479   4.094  12.652   6.546
    1STR    C0K11480   4.140  12.600   6.671
    1STR    C0M11481   4.281  12.650   6.702
    1STR    C0N11482   4.041  12.644   6.780
    1STR    O0O11483   4.069  12.572   6.899
    1STR    C0P11484   4.109  12.635   7.010
    1STR    O0Q11485   4.124  12.756   7.023
    1STR    N0R11486   4.130  12.544   7.105
    1STR    C0S11487   4.165  12.554   7.239
    1STR    C0T11488   4.176  12.434   7.311
    1STR    C0U11489   4.202  12.435   7.449
    1STR    C0V11490   4.217  12.556   7.519
    1STR    C0W11491   4.229  12.550   7.670
    1STR    C0X11492   4.214  12.679   7.448
    1STR    N0Y11493   4.222  12.801   7.513
    1STR   BCK211494   4.316  12.853   7.593
    1STR    O1011495   4.295  12.958   7.652
    1STR    C1311496   4.186  12.677   7.309
    1STR    C1411497   4.256  12.532   5.432
    1STR    C1511498   4.260  12.509   5.293
    1STR    C1611499   4.261  12.617   5.203
    1STR    C1711500   4.255  12.585   5.054
    1STR    H1B11501   4.186  12.927   5.179
    1STR    H1C11502   4.254  12.872   5.429
    1STR    H1D11503   4.225  12.785   5.649
    1STR    H1E11504   4.207  12.505   5.956
    1STR    H1F11505   4.432  12.704   6.022
    1STR    H1G11506   4.403  12.551   6.104
    1STR    H1H11507   4.452  12.552   5.936
    1STR    H1I11508   4.052  12.682   6.037
    1STR    H1J11509   4.189  12.779   6.089
    1STR    H1K11510   4.098  12.761   6.308
    1STR    H1M11511   3.932  12.503   6.281
    1STR    H1N11512   3.895  12.657   6.204
    1STR    H1O11513   3.886  12.642   6.378
    1STR    H1P11514   4.144  12.486   6.431
    1STR    H1Q11515   4.261  12.617   6.429
    1STR    H1R11516   4.139  12.491   6.667
    1STR    H1S11517   4.314  12.618   6.801
    1STR    H1T11518   4.285  12.759   6.701
    1STR    H1U11519   4.356  12.614   6.631
    1STR    H1V11520   3.939  12.620   6.750
    1STR    H1W11521   4.043  12.752   6.793
    1STR    H1X11522   4.112  12.452   7.069
    1STR    H1Y11523   4.162  12.339   7.263
    1STR    H1Z11524   4.206  12.341   7.503
    1STR    H2011525   4.332  12.539   7.700
    1STR    H2111526   4.188  12.641   7.716
    1STR    H2211527   4.172  12.466   7.711
    1STR    H2311528   4.145  12.865   7.499
    1STR    H2711529   4.180  12.770   7.256
    1STR    H2811530   4.253  12.445   5.496
    1STR    H2911531   4.260  12.407   5.257
    1STR    H2A11532   4.195  12.659   5.001
    1STR    H2B11533   4.211  12.487   5.036
    1STR    H2C11534   4.356  12.585   5.012
    1STR   BCK111535   4.356  12.993   9.405
    1STR    O0311536   4.297  13.093   9.364
    1STR    N0411537   4.416  12.984   9.524
    1STR    C0511538   4.441  13.085   9.617
    1STR    C0611539   4.419  13.058   9.755
    1STR    C0711540   4.450  13.154   9.854
    1STR    N0811541   4.434  13.121   9.990
    1STR    C0911542   4.483  13.181  10.099
    1STR    O0A11543   4.553  13.282  10.098
    1STR    O0B11544   4.445  13.116  10.210
    1STR    C0C11545   4.478  13.171  10.338
    1STR    C0D11546   4.370  13.273  10.378
    1STR    C0E11547   4.493  13.060  10.443
    1STR    O0F11548   4.538  13.123  10.563
    1STR    C0G11549   4.561  13.036  10.674
    1STR    C0H11550   4.697  12.966  10.657
    1STR    C0I11551   4.558  13.125  10.799
    1STR    O0J11552   4.574  13.045  10.915
    1STR    C0K11553   4.579  13.115  11.039
    1STR    C0M11554   4.438  13.163  11.078
    1STR    C0N11555   4.637  13.017  11.142
    1STR    O0O11556   4.668  13.081  11.265
    1STR    C0P11557   4.585  13.072  11.369
    1STR    O0Q11558   4.475  13.017  11.368
    1STR    N0R11559   4.638  13.133  11.475
    1STR    C0S11560   4.589  13.148  11.605
    1STR    C0T11561   4.643  13.250  11.685
    1STR    C0U11562   4.596  13.272  11.816
    1STR    C0V11563   4.495  13.190  11.870
    1STR    C0W11564   4.441  13.220  12.009
    1STR    C0X11565   4.444  13.082  11.793
    1STR    N0Y11566   4.345  12.998  11.844
    1STR   BCK211567   4.355  12.911  11.944
    1STR    O1011568   4.256  12.849  11.982
    1STR    C1311569   4.490  13.063  11.661
    1STR    C1411570   4.498  13.280   9.813
    1STR    C1511571   4.523  13.307   9.677
    1STR    C1611572   4.498  13.209   9.579
    1STR    C1711573   4.543  13.239   9.437
    1STR    H1B11574   4.446  12.890   9.547
    1STR    H1C11575   4.380  12.962   9.784
    1STR    H1D11576   4.382  13.038  10.013
    1STR    H1E11577   4.575  13.221  10.332
    1STR    H1F11578   4.272  13.226  10.385
    1STR    H1G11579   4.393  13.318  10.474
    1STR    H1H11580   4.363  13.353  10.304
    1STR    H1I11581   4.565  12.986  10.409
    1STR    H1J11582   4.398  13.008  10.460
    1STR    H1K11583   4.481  12.962  10.682
    1STR    H1M11584   4.778  13.037  10.644
    1STR    H1N11585   4.698  12.898  10.572
    1STR    H1O11586   4.719  12.905  10.745
    1STR    H1P11587   4.636  13.201  10.792
    1STR    H1Q11588   4.462  13.177  10.801
    1STR    H1R11589   4.647  13.200  11.031
    1STR    H1S11590   4.438  13.212  11.175
    1STR    H1T11591   4.369  13.078  11.085
    1STR    H1U11592   4.396  13.234  11.007
    1STR    H1V11593   4.730  12.975  11.103
    1STR    H1W11594   4.570  12.931  11.156
    1STR    H1X11595   4.727  13.174  11.452
    1STR    H1Y11596   4.720  13.315  11.646
    1STR    H1Z11597   4.637  13.352  11.874
    1STR    H2011598   4.336  13.193  12.017
    1STR    H2111599   4.497  13.164  12.084
    1STR    H2211600   4.449  13.326  12.032
    1STR    H2311601   4.257  12.993  11.796
    1STR    H2711602   4.449  12.982  11.603
    1STR    H2811603   4.519  13.359   9.883
    1STR    H2911604   4.565  13.402   9.649
    1STR    H2A11605   4.577  13.149   9.387
    1STR    H2B11606   4.626  13.310   9.436
    1STR    H2C11607   4.460  13.282   9.380
    1STR   BCK111608   4.247  12.961  13.784
    1STR    O0311609   4.236  12.842  13.755
    1STR    N0411610   4.183  13.020  13.885
    1STR    C0511611   4.087  12.965  13.970
    1STR    C0611612   4.106  12.974  14.110
    1STR    C0711613   4.008  12.927  14.201
    1STR    N0811614   4.031  12.936  14.339
    1STR    C0911615   3.941  12.941  14.439
    1STR    O0A11616   3.820  12.945  14.423
    1STR    O0B11617   4.003  12.941  14.560
    1STR    C0C11618   3.927  12.922  14.679
    1STR    C0D11619   3.926  12.772  14.713
    1STR    C0E11620   3.987  13.006  14.794
    1STR    O0F11621   3.909  12.988  14.912
    1STR    C0G11622   3.950  13.064  15.026
    1STR    C0H11623   3.896  13.208  15.013
    1STR    C0I11624   3.894  12.995  15.152
    1STR    O0J11625   3.944  13.062  15.268
    1STR    C0K11626   3.895  13.013  15.393
    1STR    C0M11627   3.964  12.880  15.429
    1STR    C0N11628   3.926  13.122  15.498
    1STR    O0O11629   3.871  13.089  15.625
    1STR    C0P11630   3.950  13.056  15.728
    1STR    O0Q11631   4.072  13.046  15.723
    1STR    N0R11632   3.874  13.036  15.836
    1STR    C0S11633   3.906  12.998  15.967
    1STR    C0T11634   3.799  12.972  16.055
    1STR    C0U11635   3.824  12.928  16.187
    1STR    C0V11636   3.955  12.910  16.234
    1STR    C0W11637   3.973  12.851  16.373
    1STR    C0X11638   4.065  12.942  16.149
    1STR    N0Y11639   4.198  12.922  16.185
    1STR   BCK211640   4.262  12.953  16.298
    1STR    O1011641   4.216  13.017  16.392
    1STR    C1311642   4.038  12.984  16.016
    1STR    C1411643   3.891  12.867  14.149
    1STR    C1511644   3.871  12.860  14.010
    1STR    C1611645   3.967  12.910  13.920
    1STR    C1711646   3.935  12.906  13.771
    1STR    H1B11647   4.209  13.116  13.899
    1STR    H1C11648   4.197  13.017  14.148
    1STR    H1D11649   4.126  12.938  14.372
    1STR    H1E11650   3.824  12.956  14.665
    1STR    H1F11651   4.026  12.734  14.728
    1STR    H1G11652   3.868  12.753  14.803
    1STR    H1H11653   3.880  12.715  14.632
    1STR    H1I11654   3.988  13.111  14.764
    1STR    H1J11655   4.090  12.976  14.812
    1STR    H1K11656   4.059  13.065  15.033
    1STR    H1M11657   3.788  13.207  15.001
    1STR    H1N11658   3.939  13.260  14.928
    1STR    H1O11659   3.919  13.265  15.103
    1STR    H1P11660   3.785  12.995  15.150
    1STR    H1Q11661   3.925  12.890  15.152
    1STR    H1R11662   3.787  13.000  15.388
    1STR    H1S11663   3.932  12.846  15.527
    1STR    H1T11664   4.072  12.891  15.432
    1STR    H1U11665   3.939  12.801  15.359
    1STR    H1V11666   3.880  13.216  15.467
    1STR    H1W11667   4.033  13.141  15.503
    1STR    H1X11668   3.777  13.048  15.815
    1STR    H1Y11669   3.697  12.982  16.023
    1STR    H1Z11670   3.740  12.906  16.251
    1STR    H2011671   4.060  12.786  16.377
    1STR    H2111672   3.985  12.930  16.447
    1STR    H2211673   3.887  12.791  16.402
    1STR    H2311674   4.256  12.879  16.116
    1STR    H2711675   4.122  13.006  15.952
    1STR    H2811676   3.815  12.827  14.213
    1STR    H2911677   3.780  12.815  13.972
    1STR    H2A11678   3.975  12.994  13.720
    1STR    H2B11679   3.828  12.903  13.754
    1STR    H2C11680   3.979  12.817  13.726
    1STR   BCK111681   8.750  17.311   0.703
    1STR    O0311682   8.864  17.354   0.688
    1STR    N0411683   8.710  17.234   0.804
    1STR    C0511684   8.792  17.170   0.896
    1STR    C0611685   8.768  17.186   1.034
    1STR    C0711686   8.846  17.117   1.131
    1STR    N0811687   8.815  17.133   1.267
    1STR    C0911688   8.887  17.099   1.375
    1STR    O0A11689   9.000  17.052   1.373
    1STR    O0B11690   8.816  17.124   1.487
    1STR    C0C11691   8.873  17.094   1.614
    1STR    C0D11692   8.962  17.211   1.659
    1STR    C0E11693   8.761  17.065   1.715
    1STR    O0F11694   8.822  17.026   1.837
    1STR    C0G11695   8.732  16.997   1.944
    1STR    C0H11696   8.677  16.855   1.928
    1STR    C0I11697   8.811  17.012   2.074
    1STR    O0J11698   8.722  17.001   2.184
    1STR    C0K11699   8.784  16.994   2.313
    1STR    C0M11700   8.843  17.131   2.352
    1STR    C0N11701   8.676  16.948   2.412
    1STR    O0O11702   8.738  16.900   2.531
    1STR    C0P11703   8.746  16.978   2.639
    1STR    O0Q11704   8.693  17.087   2.654
    1STR    N0R11705   8.826  16.918   2.727
    1STR    C0S11706   8.872  16.960   2.851
    1STR    C0T11707   8.993  16.906   2.895
    1STR    C0U11708   9.045  16.942   3.020
    1STR    C0V11709   8.976  17.029   3.106
    1STR    C0W11710   9.041  17.053   3.240
    1STR    C0X11711   8.850  17.085   3.065
    1STR    N0Y11712   8.759  17.160   3.142
    1STR   BCK211713   8.749  17.237   3.251
    1STR    O1011714   8.637  17.273   3.286
    1STR    C1311715   8.802  17.049   2.936
    1STR    C1411716   8.948  17.030   1.085
    1STR    C1511717   8.971  17.013   0.948
    1STR    C1611718   8.893  17.080   0.853
    1STR    C1711719   8.918  17.050   0.706
    1STR    H1B11720   8.611  17.218   0.810
    1STR    H1C11721   8.690  17.253   1.066
    1STR    H1D11722   8.729  17.177   1.292
    1STR    H1E11723   8.934  17.004   1.606
    1STR    H1F11724   8.905  17.303   1.668
    1STR    H1G11725   9.008  17.190   1.756
    1STR    H1H11726   9.043  17.229   1.588
    1STR    H1I11727   8.698  16.985   1.677
    1STR    H1J11728   8.699  17.153   1.729
    1STR    H1K11729   8.651  17.070   1.945
    1STR    H1M11730   8.757  16.782   1.921
    1STR    H1N11731   8.615  16.845   1.839
    1STR    H1O11732   8.615  16.828   2.013
    1STR    H1P11733   8.890  16.937   2.079
    1STR    H1Q11734   8.860  17.110   2.076
    1STR    H1R11735   8.862  16.919   2.311
    1STR    H1S11736   8.885  17.128   2.452
    1STR    H1T11737   8.766  17.208   2.351
    1STR    H1U11738   8.923  17.162   2.285
    1STR    H1V11739   8.620  16.864   2.369
    1STR    H1W11740   8.602  17.026   2.432
    1STR    H1X11741   8.859  16.830   2.692
    1STR    H1Y11742   9.049  16.836   2.834
    1STR    H1Z11743   9.139  16.899   3.051
    1STR    H2011744   9.077  17.155   3.246
    1STR    H2111745   8.969  17.030   3.319
    1STR    H2211746   9.127  16.988   3.256
    1STR    H2311747   8.666  17.158   3.104
    1STR    H2711748   8.708  17.089   2.902
    1STR    H2811749   9.009  16.974   1.154
    1STR    H2911750   9.049  16.945   0.917
    1STR    H2A11751   8.824  17.047   0.650
    1STR    H2B11752   8.967  16.954   0.693
    1STR    H2C11753   8.982  17.127   0.662
    1STR   BCK111754   8.681  17.341   5.053
    1STR    O0311755   8.673  17.228   5.006
    1STR    N0411756   8.620  17.366   5.170
    1STR    C0511757   8.602   0.041   5.248
    1STR    C0611758   8.625   0.030   5.387
    1STR    C0711759   8.595   0.135   5.478
    1STR    N0811760   8.612   0.115   5.615
    1STR    C0911761   8.588   0.195   5.721
    1STR    O0A11762   8.551   0.312   5.713
    1STR    O0B11763   8.610   0.129   5.836
    1STR    C0C11764   8.575   0.188   5.962
    1STR    C0D11765   8.426   0.162   5.991
    1STR    C0E11766   8.665   0.133   6.074
    1STR    O0F11767   8.637   0.205   6.195
    1STR    C0G11768   8.715   0.168   6.308
    1STR    C0H11769   8.854   0.233   6.298
    1STR    C0I11770   8.640   0.215   6.435
    1STR    O0J11771   8.714   0.177   6.551
    1STR    C0K11772   8.661   0.220   6.676
    1STR    C0M11773   8.537   0.136   6.713
    1STR    C0N11774   8.772   0.204   6.780
    1STR    O0O11775   8.732   0.260   6.905
    1STR    C0P11776   8.719   0.183   7.014
    1STR    O0Q11777   8.740   0.063   7.018
    1STR    N0R11778   8.680   0.259   7.117
    1STR    C0S11779   8.650   0.226   7.249
    1STR    C0T11780   8.594   0.326   7.331
    1STR    C0U11781   8.559   0.300   7.465
    1STR    C0V11782   8.579   0.172   7.520
    1STR    C0W11783   8.533   0.144   7.662
    1STR    C0X11784   8.637   0.070   7.441
    1STR    N0Y11785   8.655  17.382   7.491
    1STR   BCK211786   8.735  17.344   7.590
    1STR    O1011787   8.814  17.418   7.648
    1STR    C1311788   8.671   0.098   7.306
    1STR    C1411789   8.544   0.255   5.423
    1STR    C1511790   8.520   0.268   5.285
    1STR    C1611791   8.546   0.161   5.197
    1STR    C1711792   8.503   0.178   5.053
    1STR    H1B11793   8.582  17.281   5.208
    1STR    H1C11794   8.664  17.377   5.426
    1STR    H1D11795   8.643   0.024   5.646
    1STR    H1E11796   8.592   0.296   5.957
    1STR    H1F11797   8.405   0.056   5.998
    1STR    H1G11798   8.397   0.208   6.086
    1STR    H1H11799   8.362   0.205   5.914
    1STR    H1I11800   8.769   0.145   6.046
    1STR    H1J11801   8.647   0.026   6.089
    1STR    H1K11802   8.724   0.059   6.314
    1STR    H1M11803   8.846   0.341   6.288
    1STR    H1N11804   8.911   0.195   6.214
    1STR    H1O11805   8.912   0.213   6.388
    1STR    H1P11806   8.627   0.324   6.432
    1STR    H1Q11807   8.541   0.171   6.436
    1STR    H1R11808   8.634   0.326   6.670
    1STR    H1S11809   8.501   0.163   6.813
    1STR    H1T11810   8.561   0.030   6.716
    1STR    H1U11811   8.454   0.151   6.644
    1STR    H1V11812   8.862   0.256   6.748
    1STR    H1W11813   8.801   0.099   6.789
    1STR    H1X11814   8.668   0.354   7.089
    1STR    H1Y11815   8.576   0.425   7.292
    1STR    H1Z11816   8.514   0.378   7.524
    1STR    H2011817   8.488   0.045   7.669
    1STR    H2111818   8.618   0.148   7.730
    1STR    H2211819   8.458   0.216   7.695
    1STR    H2311820   8.604  17.307   7.446
    1STR    H2711821   8.714   0.018   7.248
    1STR    H2811822   8.518   0.339   5.486
    1STR    H2911823   8.477   0.359   5.248
    1STR    H2A11824   8.583   0.225   4.995
    1STR    H2B11825   8.414   0.240   5.045
    1STR    H2C11826   8.479   0.082   5.007
    1STR   BCK111827   8.653  17.248   9.428
    1STR    O0311828   8.719  17.148   9.402
    1STR    N0411829   8.564  17.257   9.527
    1STR    C0511830   8.518  17.156   9.611
    1STR    C0611831   8.523  17.175   9.751
    1STR    C0711832   8.472  17.078   9.842
    1STR    N0811833   8.475  17.104   9.980
    1STR    C0911834   8.446  17.025  10.084
    1STR    O0A11835   8.415  16.906  10.076
    1STR    O0B11836   8.456  17.093  10.200
    1STR    C0C11837   8.429  17.026  10.324
    1STR    C0D11838   8.551  16.942  10.366
    1STR    C0E11839   8.391  17.128  10.432
    1STR    O0F11840   8.361  17.058  10.553
    1STR    C0G11841   8.324  17.139  10.665
    1STR    C0H11842   8.177  17.183  10.650
    1STR    C0I11843   8.345  17.055  10.792
    1STR    O0J11844   8.325  17.136  10.907
    1STR    C0K11845   8.331  17.068  11.033
    1STR    C0M11846   8.477  17.034  11.068
    1STR    C0N11847   8.269  17.163  11.137
    1STR    O0O11848   8.248  17.098  11.262
    1STR    C0P11849   8.330  17.121  11.366
    1STR    O0Q11850   8.431  17.189  11.364
    1STR    N0R11851   8.282  17.056  11.473
    1STR    C0S11852   8.328  17.046  11.604
    1STR    C0T11853   8.256  16.962  11.691
    1STR    C0U11854   8.298  16.942  11.824
    1STR    C0V11855   8.413  17.007  11.873
    1STR    C0W11856   8.459  16.972  12.014
    1STR    C0X11857   8.484  17.097  11.790
    1STR    N0Y11858   8.600  17.163  11.831
    1STR   BCK211859   8.625  17.228  11.944
    1STR    O1011860   8.542  17.254  12.031
    1STR    C1311861   8.441  17.115  11.656
    1STR    C1411862   8.416  16.960   9.787
    1STR    C1511863   8.409  16.941   9.648
    1STR    C1611864   8.458  17.038   9.559
    1STR    C1711865   8.440  17.016   9.410
    1STR    H1B11866   8.524  17.349   9.538
    1STR    H1C11867   8.567  17.266   9.790
    1STR    H1D11868   8.503  17.196  10.008
    1STR    H1E11869   8.343  16.960  10.310
    1STR    H1F11870   8.639  17.005  10.380
    1STR    H1G11871   8.531  16.889  10.459
    1STR    H1H11872   8.575  16.867  10.290
    1STR    H1I11873   8.304  17.185  10.399
    1STR    H1J11874   8.472  17.199  10.448
    1STR    H1K11875   8.389  17.227  10.671
    1STR    H1M11876   8.112  17.097  10.638
    1STR    H1N11877   8.162  17.249  10.565
    1STR    H1O11878   8.144  17.237  10.739
    1STR    H1P11879   8.277  16.970  10.791
    1STR    H1Q11880   8.447  17.015  10.791
    1STR    H1R11881   8.271  16.978  11.029
    1STR    H1S11882   8.483  16.987  11.166
    1STR    H1T11883   8.539  17.123  11.070
    1STR    H1U11884   8.521  16.964  10.997
    1STR    H1V11885   8.172  17.196  11.102
    1STR    H1W11886   8.329  17.254  11.148
    1STR    H1X11887   8.198  17.007  11.448
    1STR    H1Y11888   8.168  16.909  11.657
    1STR    H1Z11889   8.243  16.875  11.887
    1STR    H2011890   8.568  16.974  12.021
    1STR    H2111891   8.419  17.043  12.086
    1STR    H2211892   8.426  16.872  12.043
    1STR    H2311893   8.674  17.169  11.763
    1STR    H2711894   8.496  17.182  11.592
    1STR    H2811895   8.374  16.883   9.849
    1STR    H2911896   8.364  16.851   9.609
    1STR    H2A11897   8.418  17.110   9.359
    1STR    H2B11898   8.357  16.948   9.390
    1STR    H2C11899   8.530  16.973   9.367
    1STR   BCK111900   8.714  17.350  13.787
    1STR    O0311901   8.719   0.032  13.776
    1STR    N0411902   8.765  17.281  13.889
    1STR    C0511903   8.853  17.334  13.984
    1STR    C0611904   8.822  17.324  14.122
    1STR    C0711905   8.911  17.372  14.221
    1STR    N0811906   8.877  17.356  14.356
    1STR    C0911907   8.945  17.389  14.466
    1STR    O0A11908   9.053   0.007  14.469
    1STR    O0B11909   8.878  17.350  14.576
    1STR    C0C11910   8.932  17.378  14.705
    1STR    C0D11911   8.891   0.080  14.747
    1STR    C0E11912   8.886  17.272  14.805
    1STR    O0F11913   8.952  17.300  14.928
    1STR    C0G11914   8.925  17.212  15.035
    1STR    C0H11915   9.003  17.081  15.017
    1STR    C0I11916   8.968  17.286  15.162
    1STR    O0J11917   8.933  17.209  15.276
    1STR    C0K11918   8.977  17.262  15.400
    1STR    C0M11919   8.887  17.379  15.444
    1STR    C0N11920   8.973  17.145  15.500
    1STR    O0O11921   9.036  17.183  15.622
    1STR    C0P11922   8.962  17.215  15.728
    1STR    O0Q11923   8.840  17.208  15.734
    1STR    N0R11924   9.043  17.258  15.824
    1STR    C0S11925   9.014  17.305  15.952
    1STR    C0T11926   9.113  17.380  16.020
    1STR    C0U11927   9.088  17.432  16.148
    1STR    C0V11928   8.964  17.410  16.211
    1STR    C0W11929   8.939   0.031  16.348
    1STR    C0X11930   8.867  17.330  16.146
    1STR    N0Y11931   8.747  17.300  16.205
    1STR   BCK211932   8.727  17.216  16.305
    1STR    O1011933   8.613  17.207  16.350
    1STR    C1311934   8.891  17.280  16.017
    1STR    C1411935   9.031  17.433  14.178
    1STR    C1511936   9.064   0.002  14.042
    1STR    C1611937   8.977  17.390  13.944
    1STR    C1711938   9.021  17.395  13.799
    1STR    H1B11939   8.747  17.183  13.892
    1STR    H1C11940   8.728  17.279  14.151
    1STR    H1D11941   8.790  17.312  14.378
    1STR    H1E11942   9.041  17.372  14.700
    1STR    H1F11943   8.783   0.091  14.753
    1STR    H1G11944   8.934   0.106  14.844
    1STR    H1H11945   8.928   0.154  14.676
    1STR    H1I11946   8.914  17.173  14.768
    1STR    H1J11947   8.778  17.274  14.817
    1STR    H1K11948   8.817  17.192  15.042
    1STR    H1M11949   9.110  17.101  15.004
    1STR    H1N11950   8.969  17.024  14.931
    1STR    H1O11951   8.992  17.017  15.105
    1STR    H1P11952   9.075  17.305  15.159
    1STR    H1Q11953   8.918  17.384  15.165
    1STR    H1R11954   9.081  17.296  15.392
    1STR    H1S11955   8.917  17.418  15.541
    1STR    H1T11956   8.783  17.348  15.451
    1STR    H1U11957   8.892   0.023  15.374
    1STR    H1V11958   9.029  17.061  15.459
    1STR    H1W11959   8.871  17.110  15.514
    1STR    H1X11960   9.139  17.259  15.794
    1STR    H1Y11961   9.208  17.399  15.974
    1STR    H1Z11962   9.164   0.050  16.198
    1STR    H2011963   8.832   0.044  16.368
    1STR    H2111964   8.981  17.408  16.426
    1STR    H2211965   8.985   0.130  16.356
    1STR    H2311966   8.662  17.340  16.168
    1STR    H2711967   8.815  17.221  15.970
    1STR    H2811968   9.103   0.034  14.247
    1STR    H2911969   9.157   0.047  14.013
    1STR    H2A11970   8.988  17.306  13.745
    1STR    H2B11971   9.129  17.401  13.791
    1STR    H2C11972   8.978   0.043  13.750
    1STR   BCK111973   8.625   4.293   0.694
    1STR    O0311974   8.567   4.191   0.658
    1STR    N0411975   8.594   4.366   0.801
    1STR    C0511976   8.485   4.352   0.888
    1STR    C0611977   8.507   4.349   1.028
    1STR    C0711978   8.399   4.344   1.121
    1STR    N0811979   8.425   4.344   1.259
    1STR    C0911980   8.345   4.381   1.360
    1STR    O0A11981   8.233   4.428   1.346
    1STR    O0B11982   8.405   4.361   1.479
    1STR    C0C11983   8.332   4.380   1.601
    1STR    C0D11984   8.253   4.252   1.633
    1STR    C0E11985   8.427   4.419   1.716
    1STR    O0F11986   8.351   4.445   1.834
    1STR    C0G11987   8.426   4.486   1.948
    1STR    C0H11988   8.457   4.636   1.937
    1STR    C0I11989   8.343   4.456   2.075
    1STR    O0J11990   8.420   4.488   2.191
    1STR    C0K11991   8.355   4.471   2.317
    1STR    C0M11992   8.340   4.321   2.350
    1STR    C0N11993   8.439   4.543   2.424
    1STR    O0O11994   8.373   4.543   2.550
    1STR    C0P11995   8.426   4.480   2.656
    1STR    O0Q11996   8.532   4.419   2.657
    1STR    N0R11997   8.346   4.497   2.762
    1STR    C0S11998   8.353   4.450   2.893
    1STR    C0T11999   8.252   4.493   2.982
    1STR    C0U12000   8.248   4.446   3.115
    1STR    C0V12001   8.346   4.357   3.162
    1STR    C0W12002   8.333   4.303   3.304
    1STR    C0X12003   8.451   4.316   3.076
    1STR    N0Y12004   8.549   4.227   3.119
    1STR   BCK212005   8.633   4.243   3.221
    1STR    O1012006   8.640   4.345   3.290
    1STR    C1312007   8.453   4.362   2.942
    1STR    C1412008   8.268   4.338   1.069
    1STR    C1512009   8.244   4.343   0.931
    1STR    C1612010   8.351   4.352   0.839
    1STR    C1712011   8.318   4.367   0.692
    1STR    H1B12012   8.659   4.440   0.821
    1STR    H1C12013   8.608   4.351   1.065
    1STR    H1D12014   8.515   4.312   1.291
    1STR    H1E12015   8.261   4.463   1.588
    1STR    H1F12016   8.319   4.167   1.647
    1STR    H1G12017   8.195   4.264   1.725
    1STR    H1H12018   8.183   4.228   1.554
    1STR    H1I12019   8.484   4.507   1.687
    1STR    H1J12020   8.499   4.338   1.734
    1STR    H1K12021   8.519   4.428   1.955
    1STR    H1M12022   8.366   4.694   1.925
    1STR    H1N12023   8.522   4.658   1.852
    1STR    H1O12024   8.508   4.672   2.026
    1STR    H1P12025   8.250   4.513   2.074
    1STR    H1Q12026   8.316   4.350   2.075
    1STR    H1R12027   8.256   4.518   2.314
    1STR    H1S12028   8.297   4.308   2.450
    1STR    H1T12029   8.437   4.271   2.350
    1STR    H1U12030   8.274   4.269   2.281
    1STR    H1V12031   8.455   4.646   2.395
    1STR    H1W12032   8.539   4.498   2.429
    1STR    H1X12033   8.266   4.553   2.737
    1STR    H1Y12034   8.174   4.560   2.950
    1STR    H1Z12035   8.168   4.478   3.180
    1STR    H2012036   8.365   4.199   3.309
    1STR    H2112037   8.395   4.361   3.372
    1STR    H2212038   8.230   4.307   3.339
    1STR    H2312039   8.561   4.141   3.067
    1STR    H2712040   8.532   4.329   2.878
    1STR    H2812041   8.182   4.331   1.135
    1STR    H2912042   8.143   4.341   0.895
    1STR    H2A12043   8.389   4.434   0.643
    1STR    H2B12044   8.219   4.409   0.678
    1STR    H2C12045   8.322   4.270   0.643
    1STR   BCK112046   8.728   4.187   5.069
    1STR    O0312047   8.848   4.169   5.055
    1STR    N0412048   8.653   4.135   5.166
    1STR    C0512049   8.691   4.035   5.255
    1STR    C0612050   8.678   4.056   5.394
    1STR    C0712051   8.710   3.954   5.487
    1STR    N0812052   8.692   3.979   5.624
    1STR    C0912053   8.729   3.907   5.731
    1STR    O0A12054   8.794   3.803   5.727
    1STR    O0B12055   8.686   3.964   5.844
    1STR    C0C12056   8.719   3.905   5.970
    1STR    C0D12057   8.858   3.953   6.014
    1STR    C0E12058   8.611   3.941   6.074
    1STR    O0F12059   8.644   3.874   6.196
    1STR    C0G12060   8.555   3.897   6.304
    1STR    C0H12061   8.431   3.807   6.290
    1STR    C0I12062   8.634   3.865   6.432
    1STR    O0J12063   8.558   3.900   6.547
    1STR    C0K12064   8.618   3.865   6.671
    1STR    C0M12065   8.736   3.958   6.704
    1STR    C0N12066   8.509   3.874   6.780
    1STR    O0O12067   8.560   3.812   6.898
    1STR    C0P12068   8.574   3.880   7.011
    1STR    O0Q12069   8.544   3.997   7.029
    1STR    N0R12070   8.626   3.798   7.102
    1STR    C0S12071   8.657   3.814   7.237
    1STR    C0T12072   8.705   3.700   7.305
    1STR    C0U12073   8.729   3.704   7.443
    1STR    C0V12074   8.706   3.822   7.517
    1STR    C0W12075   8.719   3.813   7.668
    1STR    C0X12076   8.665   3.940   7.450
    1STR    N0Y12077   8.635   4.058   7.518
    1STR   BCK212078   8.706   4.133   7.602
    1STR    O1012079   8.653   4.228   7.658
    1STR    C1312080   8.639   3.934   7.311
    1STR    C1412081   8.754   3.829   5.437
    1STR    C1512082   8.766   3.807   5.299
    1STR    C1612083   8.733   3.908   5.207
    1STR    C1712084   8.741   3.876   5.059
    1STR    H1B12085   8.558   4.168   5.170
    1STR    H1C12086   8.645   4.152   5.429
    1STR    H1D12087   8.646   4.064   5.651
    1STR    H1E12088   8.720   3.796   5.960
    1STR    H1F12089   8.862   4.061   6.025
    1STR    H1G12090   8.887   3.908   6.109
    1STR    H1H12091   8.934   3.924   5.940
    1STR    H1I12092   8.514   3.908   6.037
    1STR    H1J12093   8.606   4.049   6.088
    1STR    H1K12094   8.525   4.002   6.308
    1STR    H1M12095   8.460   3.702   6.280
    1STR    H1N12096   8.372   3.833   6.202
    1STR    H1O12097   8.367   3.816   6.377
    1STR    H1P12098   8.660   3.759   6.433
    1STR    H1Q12099   8.728   3.921   6.430
    1STR    H1R12100   8.652   3.761   6.667
    1STR    H1S12101   8.776   3.937   6.803
    1STR    H1T12102   8.704   4.062   6.703
    1STR    H1U12103   8.818   3.947   6.633
    1STR    H1V12104   8.421   3.819   6.748
    1STR    H1W12105   8.478   3.977   6.796
    1STR    H1X12106   8.642   3.707   7.061
    1STR    H1Y12107   8.720   3.607   7.253
    1STR    H1Z12108   8.762   3.614   7.494
    1STR    H2012109   8.824   3.823   7.697
    1STR    H2112110   8.662   3.891   7.718
    1STR    H2212111   8.683   3.718   7.705
    1STR    H2312112   8.544   4.098   7.501
    1STR    H2712113   8.604   4.023   7.261
    1STR    H2812114   8.779   3.747   5.502
    1STR    H2912115   8.799   3.710   5.264
    1STR    H2A12116   8.658   3.922   5.004
    1STR    H2B12117   8.735   3.768   5.041
    1STR    H2C12118   8.834   3.912   5.017
    1STR   BCK112119   8.710   4.278   9.402
    1STR    O0312120   8.615   4.341   9.355
    1STR    N0412121   8.766   4.300   9.522
    1STR    C0512122   8.744   4.404   9.611
    1STR    C0612123   8.735   4.375   9.750
    1STR    C0712124   8.723   4.477   9.847
    1STR    N0812125   8.721   4.443   9.983
    1STR    C0912126   8.737   4.520  10.092
    1STR    O0A12127   8.755   4.642  10.090
    1STR    O0B12128   8.732   4.447  10.205
    1STR    C0C12129   8.744   4.514  10.332
    1STR    C0D12130   8.607   4.572  10.371
    1STR    C0E12131   8.798   4.417  10.438
    1STR    O0F12132   8.813   4.490  10.560
    1STR    C0G12133   8.866   4.418  10.671
    1STR    C0H12134   9.018   4.400  10.654
    1STR    C0I12135   8.833   4.500  10.797
    1STR    O0J12136   8.873   4.428  10.913
    1STR    C0K12137   8.856   4.498  11.037
    1STR    C0M12138   8.708   4.493  11.079
    1STR    C0N12139   8.948   4.428  11.139
    1STR    O0O12140   8.947   4.495  11.265
    1STR    C0P12141   8.879   4.444  11.369
    1STR    O0Q12142   8.808   4.344  11.365
    1STR    N0R12143   8.901   4.520  11.476
    1STR    C0S12144   8.853   4.511  11.607
    1STR    C0T12145   8.876   4.620  11.693
    1STR    C0U12146   8.826   4.620  11.824
    1STR    C0V12147   8.753   4.510  11.874
    1STR    C0W12148   8.694   4.520  12.014
    1STR    C0X12149   8.735   4.396  11.792
    1STR    N0Y12150   8.663   4.285  11.835
    1STR   BCK212151   8.689   4.199  11.934
    1STR    O1012152   8.613   4.106  11.955
    1STR    C1312153   8.783   4.399  11.659
    1STR    C1412154   8.716   4.611   9.802
    1STR    C1512155   8.727   4.642   9.666
    1STR    C1612156   8.745   4.540   9.570
    1STR    C1712157   8.772   4.583   9.427
    1STR    H1B12158   8.836   4.232   9.545
    1STR    H1C12159   8.739   4.272   9.781
    1STR    H1D12160   8.711   4.346  10.007
    1STR    H1E12161   8.817   4.595  10.323
    1STR    H1F12162   8.532   4.494  10.381
    1STR    H1G12163   8.614   4.625  10.466
    1STR    H1H12164   8.573   4.644  10.296
    1STR    H1I12165   8.894   4.377  10.405
    1STR    H1J12166   8.730   4.333  10.452
    1STR    H1K12167   8.817   4.321  10.679
    1STR    H1M12168   9.067   4.496  10.638
    1STR    H1N12169   9.043   4.335  10.570
    1STR    H1O12170   9.062   4.354  10.743
    1STR    H1P12171   8.884   4.597  10.791
    1STR    H1Q12172   8.726   4.521  10.799
    1STR    H1R12173   8.888   4.602  11.026
    1STR    H1S12174   8.693   4.542  11.176
    1STR    H1T12175   8.674   4.390  11.090
    1STR    H1U12176   8.643   4.543  11.008
    1STR    H1V12177   9.050   4.431  11.101
    1STR    H1W12178   8.922   4.323  11.148
    1STR    H1X12179   8.963   4.596  11.454
    1STR    H1Y12180   8.930   4.707  11.658
    1STR    H1Z12181   8.843   4.707  11.887
    1STR    H2012182   8.607   4.456  12.024
    1STR    H2112183   8.768   4.490  12.088
    1STR    H2212184   8.663   4.622  12.036
    1STR    H2312185   8.586   4.256  11.777
    1STR    H2712186   8.767   4.312  11.597
    1STR    H2812187   8.704   4.694   9.870
    1STR    H2912188   8.726   4.745   9.635
    1STR    H2A12189   8.841   4.515   9.377
    1STR    H2B12190   8.817   4.682   9.423
    1STR    H2C12191   8.679   4.586   9.370
    1STR   BCK112192   8.612   4.206  13.782
    1STR    O0312193   8.617   4.092  13.738
    1STR    N0412194   8.542   4.245  13.889
    1STR    C0512195   8.458   4.170  13.971
    1STR    C0612196   8.471   4.182  14.112
    1STR    C0712197   8.385   4.114  14.202
    1STR    N0812198   8.401   4.131  14.340
    1STR    C0912199   8.317   4.102  14.441
    1STR    O0A12200   8.204   4.058  14.427
    1STR    O0B12201   8.374   4.131  14.560
    1STR    C0C12202   8.311   4.090  14.682
    1STR    C0D12203   8.363   3.949  14.718
    1STR    C0E12204   8.339   4.191  14.795
    1STR    O0F12205   8.270   4.148  14.913
    1STR    C0G12206   8.283   4.234  15.026
    1STR    C0H12207   8.184   4.350  15.013
    1STR    C0I12208   8.255   4.151  15.153
    1STR    O0J12209   8.278   4.231  15.269
    1STR    C0K12210   8.251   4.170  15.395
    1STR    C0M12211   8.359   4.066  15.429
    1STR    C0N12212   8.246   4.282  15.500
    1STR    O0O12213   8.200   4.234  15.626
    1STR    C0P12214   8.285   4.222  15.730
    1STR    O0Q12215   8.406   4.243  15.726
    1STR    N0R12216   8.217   4.183  15.838
    1STR    C0S12217   8.257   4.155  15.969
    1STR    C0T12218   8.159   4.103  16.056
    1STR    C0U12219   8.192   4.066  16.188
    1STR    C0V12220   8.324   4.080  16.236
    1STR    C0W12221   8.354   4.025  16.374
    1STR    C0X12222   8.423   4.137  16.152
    1STR    N0Y12223   8.556   4.151  16.190
    1STR   BCK212224   8.609   4.195  16.305
    1STR    O1012225   8.547   4.242  16.400
    1STR    C1312226   8.388   4.172  16.019
    1STR    C1412227   8.286   4.029  14.147
    1STR    C1512228   8.270   4.018  14.008
    1STR    C1612229   8.352   4.090  13.919
    1STR    C1712230   8.322   4.081  13.771
    1STR    H1B12231   8.561   4.340  13.917
    1STR    H1C12232   8.550   4.244  14.152
    1STR    H1D12233   8.488   4.168  14.374
    1STR    H1E12234   8.203   4.085  14.669
    1STR    H1F12235   8.470   3.949  14.733
    1STR    H1G12236   8.316   3.913  14.809
    1STR    H1H12237   8.339   3.878  14.639
    1STR    H1I12238   8.305   4.289  14.764
    1STR    H1J12239   8.446   4.198  14.814
    1STR    H1K12240   8.385   4.272  15.034
    1STR    H1M12241   8.082   4.314  15.002
    1STR    H1N12242   8.206   4.414  14.928
    1STR    H1O12243   8.186   4.413  15.103
    1STR    H1P12244   8.153   4.113  15.152
    1STR    H1Q12245   8.321   4.064  15.154
    1STR    H1R12246   8.153   4.122  15.392
    1STR    H1S12247   8.343   4.024  15.528
    1STR    H1T12248   8.458   4.112  15.430
    1STR    H1U12249   8.361   3.983  15.359
    1STR    H1V12250   8.176   4.359  15.468
    1STR    H1W12251   8.343   4.333  15.508
    1STR    H1X12252   8.119   4.172  15.817
    1STR    H1Y12253   8.057   4.089  16.024
    1STR    H1Z12254   8.116   4.025  16.252
    1STR    H2012255   8.455   3.984  16.380
    1STR    H2112256   8.345   4.104  16.449
    1STR    H2212257   8.285   3.945  16.402
    1STR    H2312258   8.625   4.129  16.121
    1STR    H2712259   8.465   4.213  15.955
    1STR    H2812260   8.220   3.972  14.209
    1STR    H2912261   8.191   3.955  13.969
    1STR    H2A12262   8.345   4.175  13.720
    1STR    H2B12263   8.216   4.060  13.754
    1STR    H2C12264   8.380   4.001  13.725
    1STR   BCK112265   8.740   8.618   0.710
    1STR    O0312266   8.829   8.702   0.697
    1STR    N0412267   8.732   8.531   0.810
    1STR    C0512268   8.832   8.504   0.903
    1STR    C0612269   8.803   8.512   1.041
    1STR    C0712270   8.901   8.481   1.139
    1STR    N0812271   8.866   8.488   1.274
    1STR    C0912272   8.942   8.474   1.383
    1STR    O0A12273   9.063   8.455   1.384
    1STR    O0B12274   8.866   8.482   1.494
    1STR    C0C12275   8.927   8.476   1.623
    1STR    C0D12276   8.970   8.618   1.665
    1STR    C0E12277   8.831   8.412   1.723
    1STR    O0F12278   8.903   8.393   1.844
    1STR    C0G12279   8.830   8.334   1.951
    1STR    C0H12280   8.826   8.181   1.931
    1STR    C0I12281   8.904   8.372   2.080
    1STR    O0J12282   8.833   8.321   2.191
    1STR    C0K12283   8.896   8.340   2.318
    1STR    C0M12284   8.887   8.487   2.361
    1STR    C0N12285   8.823   8.246   2.416
    1STR    O0O12286   8.896   8.236   2.538
    1STR    C0P12287   8.859   8.308   2.644
    1STR    O0Q12288   8.758   8.376   2.653
    1STR    N0R12289   8.953   8.297   2.738
    1STR    C0S12290   8.963   8.363   2.860
    1STR    C0T12291   9.092   8.388   2.911
    1STR    C0U12292   9.109   8.462   3.029
    1STR    C0V12293   8.998   8.510   3.101
    1STR    C0W12294   9.023   8.599   3.221
    1STR    C0X12295   8.867   8.477   3.057
    1STR    N0Y12296   8.755   8.519   3.127
    1STR   BCK212297   8.720   8.489   3.253
    1STR    O1012298   8.630   8.550   3.308
    1STR    C1312299   8.851   8.407   2.935
    1STR    C1412300   9.029   8.441   1.094
    1STR    C1512301   9.058   8.432   0.957
    1STR    C1612302   8.960   8.461   0.861
    1STR    C1712303   8.995   8.441   0.714
    1STR    H1B12304   8.647   8.477   0.814
    1STR    H1C12305   8.705   8.545   1.072
    1STR    H1D12306   8.771   8.508   1.297
    1STR    H1E12307   9.016   8.412   1.618
    1STR    H1F12308   8.884   8.685   1.671
    1STR    H1G12309   9.018   8.616   1.762
    1STR    H1H12310   9.040   8.660   1.594
    1STR    H1I12311   8.796   8.316   1.684
    1STR    H1J12312   8.744   8.475   1.739
    1STR    H1K12313   8.729   8.375   1.956
    1STR    H1M12314   8.926   8.140   1.922
    1STR    H1N12315   8.769   8.153   1.843
    1STR    H1O12316   8.778   8.133   2.017
    1STR    H1P12317   9.006   8.333   2.077
    1STR    H1Q12318   8.912   8.481   2.085
    1STR    H1R12319   9.000   8.309   2.311
    1STR    H1S12320   8.931   8.502   2.460
    1STR    H1T12321   8.784   8.521   2.366
    1STR    H1U12322   8.941   8.554   2.294
    1STR    H1V12323   8.817   8.146   2.373
    1STR    H1W12324   8.720   8.278   2.432
    1STR    H1X12325   9.030   8.239   2.709
    1STR    H1Y12326   9.180   8.355   2.857
    1STR    H1Z12327   9.209   8.484   3.064
    1STR    H2012328   8.936   8.658   3.247
    1STR    H2112329   9.051   8.538   3.308
    1STR    H2212330   9.104   8.669   3.201
    1STR    H2312331   8.688   8.578   3.080
    1STR    H2712332   8.751   8.386   2.900
    1STR    H2812333   9.109   8.416   1.162
    1STR    H2912334   9.157   8.400   0.926
    1STR    H2A12335   8.909   8.401   0.658
    1STR    H2B12336   9.077   8.371   0.702
    1STR    H2C12337   9.024   8.536   0.669
    1STR   BCK112338   8.679   8.681   5.050
    1STR    O0312339   8.586   8.608   5.017
    1STR    N0412340   8.681   8.758   5.159
    1STR    C0512341   8.576   8.786   5.247
    1STR    C0612342   8.596   8.770   5.387
    1STR    C0712343   8.497   8.808   5.481
    1STR    N0812344   8.522   8.793   5.618
    1STR    C0912345   8.467   8.858   5.722
    1STR    O0A12346   8.384   8.949   5.711
    1STR    O0B12347   8.514   8.813   5.840
    1STR    C0C12348   8.463   8.865   5.963
    1STR    C0D12349   8.330   8.796   5.996
    1STR    C0E12350   8.566   8.848   6.076
    1STR    O0F12351   8.515   8.907   6.196
    1STR    C0G12352   8.602   8.902   6.308
    1STR    C0H12353   8.708   9.012   6.296
    1STR    C0I12354   8.516   8.921   6.435
    1STR    O0J12355   8.597   8.909   6.551
    1STR    C0K12356   8.532   8.932   6.676
    1STR    C0M12357   8.442   8.813   6.712
    1STR    C0N12358   8.643   8.951   6.782
    1STR    O0O12359   8.585   8.987   6.907
    1STR    C0P12360   8.609   8.915   7.017
    1STR    O0Q12361   8.680   8.815   7.023
    1STR    N0R12362   8.543   8.968   7.120
    1STR    C0S12363   8.530   8.927   7.253
    1STR    C0T12364   8.454   9.010   7.339
    1STR    C0U12365   8.432   8.973   7.473
    1STR    C0V12366   8.484   8.853   7.525
    1STR    C0W12367   8.451   8.812   7.667
    1STR    C0X12368   8.563   8.770   7.441
    1STR    N0Y12369   8.609   8.647   7.486
    1STR   BCK212370   8.700   8.624   7.581
    1STR    O1012371   8.767   8.710   7.636
    1STR    C1312372   8.583   8.807   7.306
    1STR    C1412373   8.375   8.859   5.432
    1STR    C1512374   8.355   8.877   5.294
    1STR    C1612375   8.455   8.843   5.201
    1STR    C1712376   8.431   8.875   5.055
    1STR    H1B12377   8.769   8.803   5.176
    1STR    H1C12378   8.690   8.729   5.421
    1STR    H1D12379   8.592   8.727   5.647
    1STR    H1E12380   8.445   8.973   5.951
    1STR    H1F12381   8.343   8.688   6.008
    1STR    H1G12382   8.287   8.835   6.089
    1STR    H1H12383   8.256   8.812   5.918
    1STR    H1I12384   8.659   8.896   6.046
    1STR    H1J12385   8.587   8.742   6.091
    1STR    H1K12386   8.650   8.804   6.315
    1STR    H1M12387   8.662   9.110   6.284
    1STR    H1N12388   8.775   8.996   6.212
    1STR    H1O12389   8.771   9.016   6.386
    1STR    H1P12390   8.467   9.019   6.432
    1STR    H1Q12391   8.437   8.846   6.435
    1STR    H1R12392   8.474   9.024   6.671
    1STR    H1S12393   8.398   8.826   6.812
    1STR    H1T12394   8.498   8.720   6.713
    1STR    H1U12395   8.359   8.801   6.643
    1STR    H1V12396   8.710   9.031   6.751
    1STR    H1W12397   8.704   8.861   6.788
    1STR    H1X12398   8.494   9.051   7.091
    1STR    H1Y12399   8.411   9.102   7.304
    1STR    H1Z12400   8.372   9.037   7.537
    1STR    H2012401   8.429   8.705   7.672
    1STR    H2112402   8.536   8.832   7.733
    1STR    H2212403   8.365   8.865   7.705
    1STR    H2312404   8.570   8.565   7.443
    1STR    H2712405   8.641   8.741   7.243
    1STR    H2812406   8.295   8.887   5.499
    1STR    H2912407   8.261   8.919   5.260
    1STR    H2A12408   8.522   8.910   5.007
    1STR    H2B12409   8.355   8.952   5.043
    1STR    H2C12410   8.396   8.785   5.002
    1STR   BCK112411   8.683   8.519   9.422
    1STR    O0312412   8.767   8.435   9.390
    1STR    N0412413   8.599   8.508   9.525
    1STR    C0512414   8.580   8.399   9.610
    1STR    C0612415   8.579   8.420   9.750
    1STR    C0712416   8.555   8.314   9.842
    1STR    N0812417   8.552   8.341   9.980
    1STR    C0912418   8.543   8.258  10.085
    1STR    O0A12419   8.541   8.136  10.078
    1STR    O0B12420   8.538   8.328  10.200
    1STR    C0C12421   8.534   8.258  10.325
    1STR    C0D12422   8.678   8.221  10.366
    1STR    C0E12423   8.464   8.343  10.432
    1STR    O0F12424   8.457   8.267  10.553
    1STR    C0G12425   8.395   8.331  10.664
    1STR    C0H12426   8.242   8.323  10.650
    1STR    C0I12427   8.444   8.261  10.791
    1STR    O0J12428   8.396   8.330  10.906
    1STR    C0K12429   8.425   8.269  11.032
    1STR    C0M12430   8.573   8.285  11.067
    1STR    C0N12431   8.334   8.339  11.136
    1STR    O0O12432   8.335   8.268  11.260
    1STR    C0P12433   8.402   8.315  11.366
    1STR    O0Q12434   8.474   8.414  11.367
    1STR    N0R12435   8.378   8.235  11.470
    1STR    C0S12436   8.422   8.238  11.603
    1STR    C0T12437   8.372   8.138  11.689
    1STR    C0U12438   8.415   8.130  11.822
    1STR    C0V12439   8.510   8.221  11.873
    1STR    C0W12440   8.560   8.201  12.015
    1STR    C0X12441   8.558   8.325  11.790
    1STR    N0Y12442   8.656   8.415  11.833
    1STR   BCK212443   8.656   8.490  11.944
    1STR    O1012444   8.560   8.505  12.019
    1STR    C1312445   8.515   8.331  11.655
    1STR    C1412446   8.532   8.185   9.789
    1STR    C1512447   8.531   8.163   9.650
    1STR    C1612448   8.552   8.269   9.560
    1STR    C1712449   8.539   8.240   9.411
    1STR    H1B12450   8.545   8.591   9.543
    1STR    H1C12451   8.598   8.519   9.788
    1STR    H1D12452   8.558   8.437  10.008
    1STR    H1E12453   8.475   8.166  10.313
    1STR    H1F12454   8.739   8.310  10.379
    1STR    H1G12455   8.678   8.166  10.460
    1STR    H1H12456   8.725   8.158  10.291
    1STR    H1I12457   8.364   8.370  10.398
    1STR    H1J12458   8.519   8.436  10.449
    1STR    H1K12459   8.427   8.436  10.669
    1STR    H1M12460   8.209   8.219  10.639
    1STR    H1N12461   8.206   8.378  10.563
    1STR    H1O12462   8.193   8.364  10.738
    1STR    H1P12463   8.410   8.157  10.791
    1STR    H1Q12464   8.553   8.259  10.791
    1STR    H1R12465   8.398   8.164  11.029
    1STR    H1S12466   8.595   8.245  11.166
    1STR    H1T12467   8.602   8.390  11.068
    1STR    H1U12468   8.639   8.233  10.997
    1STR    H1V12469   8.232   8.339  11.100
    1STR    H1W12470   8.362   8.443  11.149
    1STR    H1X12471   8.314   8.162  11.444
    1STR    H1Y12472   8.300   8.066  11.654
    1STR    H1Z12473   8.376   8.052  11.886
    1STR    H2012474   8.666   8.221  12.022
    1STR    H2112475   8.508   8.267  12.084
    1STR    H2212476   8.544   8.098  12.049
    1STR    H2312477   8.736   8.428  11.774
    1STR    H2712478   8.555   8.409  11.592
    1STR    H2812479   8.513   8.100   9.852
    1STR    H2912480   8.511   8.064   9.613
    1STR    H2A12481   8.496   8.325   9.358
    1STR    H2B12482   8.474   8.155   9.393
    1STR    H2C12483   8.636   8.218   9.369
    1STR   BCK112484   8.710   8.628  13.782
    1STR    O0312485   8.664   8.740  13.761
    1STR    N0412486   8.782   8.594  13.889
    1STR    C0512487   8.833   8.683  13.983
    1STR    C0612488   8.806   8.661  14.121
    1STR    C0712489   8.860   8.748  14.220
    1STR    N0812490   8.834   8.721  14.354
    1STR    C0912491   8.899   8.764  14.463
    1STR    O0A12492   8.998   8.837  14.462
    1STR    O0B12493   8.842   8.716  14.574
    1STR    C0C12494   8.886   8.762  14.702
    1STR    C0D12495   8.801   8.884  14.741
    1STR    C0E12496   8.875   8.649  14.806
    1STR    O0F12497   8.933   8.698  14.926
    1STR    C0G12498   8.936   8.608  15.035
    1STR    C0H12499   9.053   8.510  15.018
    1STR    C0I12500   8.953   8.694  15.161
    1STR    O0J12501   8.950   8.611  15.276
    1STR    C0K12502   8.971   8.679  15.400
    1STR    C0M12503   8.843   8.753  15.442
    1STR    C0N12504   9.012   8.571  15.502
    1STR    O0O12505   9.052   8.631  15.625
    1STR    C0P12506   8.970   8.630  15.730
    1STR    O0Q12507   8.858   8.580  15.733
    1STR    N0R12508   9.028   8.694  15.831
    1STR    C0S12509   8.983   8.721  15.961
    1STR    C0T12510   9.051   8.819  16.035
    1STR    C0U12511   9.010   8.852  16.166
    1STR    C0V12512   8.900   8.787  16.224
    1STR    C0W12513   8.855   8.829  16.363
    1STR    C0X12514   8.833   8.685  16.153
    1STR    N0Y12515   8.725   8.617  16.208
    1STR   BCK212516   8.728   8.527  16.307
    1STR    O1012517   8.624   8.476  16.347
    1STR    C1312518   8.874   8.654  16.021
    1STR    C1412519   8.936   8.859  14.178
    1STR    C1512520   8.965   8.879  14.042
    1STR    C1612521   8.917   8.790  13.944
    1STR    C1712522   8.960   8.812  13.800
    1STR    H1B12523   8.803   8.496  13.898
    1STR    H1C12524   8.744   8.578  14.149
    1STR    H1D12525   8.759   8.659  14.377
    1STR    H1E12526   8.991   8.791  14.698
    1STR    H1F12527   8.696   8.859  14.748
    1STR    H1G12528   8.833   8.924  14.838
    1STR    H1H12529   8.812   8.964  14.668
    1STR    H1I12530   8.930   8.562  14.770
    1STR    H1J12531   8.771   8.619  14.821
    1STR    H1K12532   8.842   8.554  15.043
    1STR    H1M12533   9.147   8.562  15.005
    1STR    H1N12534   9.039   8.444  14.932
    1STR    H1O12535   9.063   8.446  15.106
    1STR    H1P12536   9.047   8.749  15.156
    1STR    H1Q12537   8.873   8.768  15.164
    1STR    H1R12538   9.053   8.749  15.391
    1STR    H1S12539   8.855   8.801  15.539
    1STR    H1T12540   8.759   8.684  15.451
    1STR    H1U12541   8.814   8.831  15.372
    1STR    H1V12542   9.097   8.515  15.463
    1STR    H1W12543   8.932   8.498  15.515
    1STR    H1X12544   9.118   8.730  15.805
    1STR    H1Y12545   9.136   8.872  15.993
    1STR    H1Z12546   9.063   8.929  16.220
    1STR    H2012547   8.746   8.820  16.374
    1STR    H2112548   8.901   8.765  16.439
    1STR    H2212549   8.881   8.932  16.384
    1STR    H2312550   8.634   8.630  16.168
    1STR    H2712551   8.821   8.576  15.968
    1STR    H2812552   8.975   8.930  14.248
    1STR    H2912553   9.026   8.963  14.013
    1STR    H2A12554   8.972   8.717  13.748
    1STR    H2B12555   9.055   8.864  13.794
    1STR    H2C12556   8.885   8.871  13.747
    1STR   BCK112557   8.606  12.984   0.697
    1STR    O0312558   8.573  12.872   0.660
    1STR    N0412559   8.557  13.048   0.804
    1STR    C0512560   8.454  13.008   0.889
    1STR    C0612561   8.474  13.012   1.029
    1STR    C0712562   8.371  12.981   1.121
    1STR    N0812563   8.395  12.988   1.259
    1STR    C0912564   8.307  13.002   1.360
    1STR    O0A12565   8.186  13.017   1.345
    1STR    O0B12566   8.369  12.999   1.480
    1STR    C0C12567   8.292  12.995   1.601
    1STR    C0D12568   8.260  12.848   1.634
    1STR    C0E12569   8.369  13.063   1.716
    1STR    O0F12570   8.288  13.061   1.834
    1STR    C0G12571   8.344  13.126   1.948
    1STR    C0H12572   8.322  13.278   1.936
    1STR    C0I12573   8.277  13.070   2.075
    1STR    O0J12574   8.338  13.126   2.191
    1STR    C0K12575   8.282  13.088   2.317
    1STR    C0M12576   8.319  12.942   2.350
    1STR    C0N12577   8.337  13.185   2.423
    1STR    O0O12578   8.274  13.166   2.550
    1STR    C0P12579   8.341  13.113   2.653
    1STR    O0Q12580   8.457  13.071   2.648
    1STR    N0R12581   8.263  13.112   2.761
    1STR    C0S12582   8.285  13.067   2.892
    1STR    C0T12583   8.176  13.073   2.981
    1STR    C0U12584   8.188  13.025   3.113
    1STR    C0V12585   8.310  12.970   3.159
    1STR    C0W12586   8.313  12.911   3.299
    1STR    C0X12587   8.422  12.968   3.073
    1STR    N0Y12588   8.544  12.913   3.111
    1STR   BCK212589   8.619  12.938   3.219
    1STR    O1012590   8.592  13.021   3.304
    1STR    C1312591   8.408  13.015   2.940
    1STR    C1412592   8.246  12.940   1.069
    1STR    C1512593   8.224  12.937   0.930
    1STR    C1612594   8.326  12.973   0.840
    1STR    C1712595   8.291  12.977   0.692
    1STR    H1B12596   8.605  13.133   0.826
    1STR    H1C12597   8.571  13.041   1.067
    1STR    H1D12598   8.489  12.983   1.292
    1STR    H1E12599   8.199  13.049   1.587
    1STR    H1F12600   8.351  12.789   1.648
    1STR    H1G12601   8.201  12.840   1.725
    1STR    H1H12602   8.203  12.801   1.553
    1STR    H1I12603   8.392  13.165   1.687
    1STR    H1J12604   8.464  13.012   1.734
    1STR    H1K12605   8.451  13.104   1.955
    1STR    H1M12606   8.216  13.301   1.925
    1STR    H1N12607   8.376  13.321   1.852
    1STR    H1O12608   8.357  13.329   2.026
    1STR    H1P12609   8.170  13.092   2.073
    1STR    H1Q12610   8.287  12.961   2.075
    1STR    H1R12611   8.173  13.099   2.314
    1STR    H1S12612   8.283  12.915   2.450
    1STR    H1T12613   8.427  12.928   2.351
    1STR    H1U12614   8.276  12.871   2.280
    1STR    H1V12615   8.318  13.287   2.392
    1STR    H1W12616   8.446  13.177   2.430
    1STR    H1X12617   8.173  13.151   2.740
    1STR    H1Y12618   8.081  13.113   2.950
    1STR    H1Z12619   8.103  13.029   3.179
    1STR    H2012620   8.381  12.825   3.304
    1STR    H2112621   8.347  12.985   3.371
    1STR    H2212622   8.215  12.875   3.330
    1STR    H2312623   8.587  12.849   3.046
    1STR    H2712624   8.494  13.010   2.875
    1STR    H2812625   8.165  12.911   1.133
    1STR    H2912626   8.126  12.908   0.893
    1STR    H2A12627   8.345  13.057   0.641
    1STR    H2B12628   8.185  12.994   0.676
    1STR    H2C12629   8.317  12.882   0.645
    1STR   BCK112630   8.744  12.931   5.063
    1STR    O0312631   8.864  12.949   5.045
    1STR    N0412632   8.690  12.863   5.164
    1STR    C0512633   8.758  12.782   5.255
    1STR    C0612634   8.738  12.801   5.394
    1STR    C0712635   8.799  12.716   5.489
    1STR    N0812636   8.773  12.735   5.625
    1STR    C0912637   8.836  12.687   5.732
    1STR    O0A12638   8.938  12.619   5.730
    1STR    O0B12639   8.772  12.724   5.844
    1STR    C0C12640   8.822  12.682   5.972
    1STR    C0D12641   8.934  12.777   6.017
    1STR    C0E12642   8.706  12.678   6.073
    1STR    O0F12643   8.757  12.626   6.195
    1STR    C0G12644   8.664  12.619   6.302
    1STR    C0H12645   8.580  12.492   6.289
    1STR    C0I12646   8.748  12.619   6.431
    1STR    O0J12647   8.662  12.626   6.544
    1STR    C0K12648   8.728  12.613   6.670
    1STR    C0M12649   8.811  12.738   6.702
    1STR    C0N12650   8.620  12.590   6.777
    1STR    O0O12651   8.684  12.539   6.893
    1STR    C0P12652   8.690  12.609   7.007
    1STR    O0Q12653   8.638  12.718   7.027
    1STR    N0R12654   8.764  12.540   7.093
    1STR    C0S12655   8.796  12.562   7.227
    1STR    C0T12656   8.886  12.471   7.285
    1STR    C0U12657   8.913  12.476   7.423
    1STR    C0V12658   8.851  12.571   7.505
    1STR    C0W12659   8.870  12.556   7.655
    1STR    C0X12660   8.768  12.671   7.447
    1STR    N0Y12661   8.698  12.765   7.523
    1STR   BCK212662   8.735  12.852   7.618
    1STR    O1012663   8.650  12.916   7.678
    1STR    C1312664   8.739  12.663   7.309
    1STR    C1412665   8.882  12.611   5.442
    1STR    C1512666   8.901  12.591   5.304
    1STR    C1612667   8.839  12.674   5.210
    1STR    C1712668   8.855  12.642   5.063
    1STR    H1B12669   8.590  12.869   5.173
    1STR    H1C12670   8.674  12.882   5.427
    1STR    H1D12671   8.696  12.795   5.650
    1STR    H1E12672   8.861  12.581   5.963
    1STR    H1F12673   8.898  12.879   6.026
    1STR    H1G12674   8.974  12.746   6.113
    1STR    H1H12675   9.016  12.777   5.945
    1STR    H1I12676   8.626  12.615   6.034
    1STR    H1J12677   8.665  12.778   6.087
    1STR    H1K12678   8.600  12.707   6.303
    1STR    H1M12679   8.643  12.403   6.283
    1STR    H1N12680   8.517  12.494   6.200
    1STR    H1O12681   8.514  12.480   6.374
    1STR    H1P12682   8.811  12.530   6.434
    1STR    H1Q12683   8.814  12.706   6.429
    1STR    H1R12684   8.792  12.525   6.667
    1STR    H1S12685   8.853  12.733   6.802
    1STR    H1T12686   8.750  12.828   6.698
    1STR    H1U12687   8.895  12.751   6.633
    1STR    H1V12688   8.548  12.515   6.743
    1STR    H1W12689   8.562  12.681   6.796
    1STR    H1X12690   8.797  12.456   7.049
    1STR    H1Y12691   8.932  12.393   7.226
    1STR    H1Z12692   8.979  12.402   7.466
    1STR    H2012693   8.963  12.604   7.686
    1STR    H2112694   8.786  12.599   7.710
    1STR    H2212695   8.875  12.451   7.683
    1STR    H2312696   8.601  12.778   7.500
    1STR    H2712697   8.671  12.734   7.265
    1STR    H2812698   8.930  12.542   5.509
    1STR    H2912699   8.963  12.509   5.272
    1STR    H2A12700   8.763  12.659   5.008
    1STR    H2B12701   8.883  12.537   5.048
    1STR    H2C12702   8.934  12.704   5.019
    1STR   BCK112703   8.690  13.012   9.403
    1STR    O0312704   8.587  13.049   9.347
    1STR    N0412705   8.730  13.051   9.525
    1STR    C0512706   8.676  13.146   9.612
    1STR    C0612707   8.676  13.116   9.750
    1STR    C0712708   8.632  13.210   9.847
    1STR    N0812709   8.638  13.178   9.983
    1STR    C0912710   8.647  13.260  10.088
    1STR    O0A12711   8.655  13.383  10.081
    1STR    O0B12712   8.646  13.192  10.205
    1STR    C0C12713   8.635  13.262  10.329
    1STR    C0D12714   8.486  13.275  10.363
    1STR    C0E12715   8.713  13.188  10.439
    1STR    O0F12716   8.708  13.267  10.558
    1STR    C0G12717   8.779  13.216  10.670
    1STR    C0H12718   8.928  13.250  10.655
    1STR    C0I12719   8.719  13.282  10.796
    1STR    O0J12720   8.785  13.231  10.912
    1STR    C0K12721   8.743  13.286  11.036
    1STR    C0M12722   8.605  13.229  11.076
    1STR    C0N12723   8.852  13.248  11.139
    1STR    O0O12724   8.832  13.310  11.266
    1STR    C0P12725   8.781  13.240  11.368
    1STR    O0Q12726   8.737  13.126  11.360
    1STR    N0R12727   8.784  13.314  11.479
    1STR    C0S12728   8.742  13.285  11.609
    1STR    C0T12729   8.734  13.392  11.701
    1STR    C0U12730   8.687  13.372  11.832
    1STR    C0V12731   8.648  13.243  11.875
    1STR    C0W12732   8.588  13.229  12.014
    1STR    C0X12733   8.663  13.133  11.787
    1STR    N0Y12734   8.624  13.004  11.821
    1STR   BCK212735   8.667  12.921  11.918
    1STR    O1012736   8.620  12.808  11.924
    1STR    C1312737   8.708  13.156  11.655
    1STR    C1412738   8.582  13.334   9.802
    1STR    C1512739   8.583  13.366   9.665
    1STR    C1612740   8.633  13.275   9.570
    1STR    C1712741   8.644  13.323   9.426
    1STR    H1B12742   8.811  13.000   9.555
    1STR    H1C12743   8.711  13.019   9.783
    1STR    H1D12744   8.637  13.081  10.009
    1STR    H1E12745   8.678  13.361  10.320
    1STR    H1F12746   8.438  13.177  10.373
    1STR    H1G12747   8.472  13.329  10.457
    1STR    H1H12748   8.433  13.330  10.286
    1STR    H1I12749   8.816  13.174  10.406
    1STR    H1J12750   8.671  13.089  10.456
    1STR    H1K12751   8.765  13.108  10.678
    1STR    H1M12752   8.943  13.357  10.642
    1STR    H1N12753   8.973  13.200  10.569
    1STR    H1O12754   8.984  13.219  10.743
    1STR    H1P12755   8.728  13.390  10.790
    1STR    H1Q12756   8.612  13.259  10.799
    1STR    H1R12757   8.738  13.395  11.030
    1STR    H1S12758   8.574  13.266  11.174
    1STR    H1T12759   8.608  13.120  11.082
    1STR    H1U12760   8.527  13.257  11.006
    1STR    H1V12761   8.949  13.281  11.102
    1STR    H1W12762   8.860  13.140  11.148
    1STR    H1X12763   8.825  13.404  11.462
    1STR    H1Y12764   8.761  13.493  11.671
    1STR    H1Z12765   8.679  13.456  11.899
    1STR    H2012766   8.524  13.141  12.021
    1STR    H2112767   8.667  13.220  12.089
    1STR    H2212768   8.526  13.315  12.038
    1STR    H2312769   8.562  12.956  11.758
    1STR    H2712770   8.716  13.071  11.589
    1STR    H2812771   8.544  13.408   9.870
    1STR    H2912772   8.547  13.462   9.633
    1STR    H2A12773   8.729  13.279   9.375
    1STR    H2B12774   8.656  13.431   9.422
    1STR    H2C12775   8.553  13.297   9.371
    1STR   BCK112776   8.633  12.900  13.789
    1STR    O0312777   8.672  12.789  13.752
    1STR    N0412778   8.551  12.922  13.891
    1STR    C0512779   8.488  12.828  13.973
    1STR    C0612780   8.496  12.843  14.114
    1STR    C0712781   8.429  12.755  14.203
    1STR    N0812782   8.439  12.776  14.342
    1STR    C0912783   8.376  12.717  14.444
    1STR    O0A12784   8.293  12.627  14.434
    1STR    O0B12785   8.416  12.770  14.562
    1STR    C0C12786   8.375  12.711  14.685
    1STR    C0D12787   8.474  12.600  14.722
    1STR    C0E12788   8.365  12.817  14.796
    1STR    O0F12789   8.313  12.756  14.914
    1STR    C0G12790   8.298  12.842  15.027
    1STR    C0H12791   8.164  12.916  15.014
    1STR    C0I12792   8.303  12.754  15.154
    1STR    O0J12793   8.291  12.837  15.270
    1STR    C0K12794   8.288  12.769  15.396
    1STR    C0M12795   8.425  12.707  15.428
    1STR    C0N12796   8.248  12.874  15.501
    1STR    O0O12797   8.217  12.814  15.627
    1STR    C0P12798   8.302  12.826  15.731
    1STR    O0Q12799   8.412  12.878  15.727
    1STR    N0R12800   8.246  12.771  15.839
    1STR    C0S12801   8.292  12.755  15.971
    1STR    C0T12802   8.208  12.686  16.060
    1STR    C0U12803   8.249  12.660  16.192
    1STR    C0V12804   8.375  12.703  16.238
    1STR    C0W12805   8.418  12.661  16.378
    1STR    C0X12806   8.459  12.778  16.152
    1STR    N0Y12807   8.587  12.819  16.191
    1STR   BCK212808   8.623  12.885  16.302
    1STR    O1012809   8.546  12.935  16.383
    1STR    C1312810   8.418  12.801  16.018
    1STR    C1412811   8.356  12.648  14.147
    1STR    C1512812   8.345  12.633  14.008
    1STR    C1612813   8.408  12.723  13.920
    1STR    C1712814   8.384  12.706  13.771
    1STR    H1B12815   8.538  13.019  13.913
    1STR    H1C12816   8.555  12.924  14.154
    1STR    H1D12817   8.504  12.846  14.373
    1STR    H1E12818   8.275  12.668  14.673
    1STR    H1F12819   8.575  12.639  14.735
    1STR    H1G12820   8.446  12.551  14.815
    1STR    H1H12821   8.478  12.523  14.645
    1STR    H1I12822   8.300  12.898  14.763
    1STR    H1J12823   8.464  12.861  14.816
    1STR    H1K12824   8.380  12.913  15.032
    1STR    H1M12825   8.080  12.846  15.005
    1STR    H1N12826   8.162  12.982  14.928
    1STR    H1O12827   8.145  12.978  15.102
    1STR    H1P12828   8.224  12.680  15.151
    1STR    H1Q12829   8.398  12.701  15.155
    1STR    H1R12830   8.211  12.692  15.393
    1STR    H1S12831   8.426  12.664  15.528
    1STR    H1T12832   8.503  12.783  15.425
    1STR    H1U12833   8.453  12.628  15.359
    1STR    H1V12834   8.158  12.927  15.468
    1STR    H1W12835   8.325  12.951  15.510
    1STR    H1X12836   8.153  12.738  15.820
    1STR    H1Y12837   8.111  12.650  16.029
    1STR    H1Z12838   8.185  12.604  16.258
    1STR    H2012839   8.524  12.637  16.381
    1STR    H2112840   8.399  12.741  16.449
    1STR    H2212841   8.364  12.573  16.413
    1STR    H2312842   8.662  12.797  16.128
    1STR    H2712843   8.484  12.856  15.953
    1STR    H2812844   8.305  12.575  14.208
    1STR    H2912845   8.287  12.551  13.968
    1STR    H2A12846   8.383  12.803  13.720
    1STR    H2B12847   8.289  12.658  13.752
    1STR    H2C12848   8.463  12.645  13.727
    1STR   BCK112849  13.082  17.353   0.709
    1STR    O0312850  13.124   0.028   0.698
    1STR    N0412851  13.111  17.271   0.810
    1STR    C0512852  13.211  17.292   0.904
    1STR    C0612853  13.179  17.289   1.042
    1STR    C0712854  13.279  17.305   1.141
    1STR    N0812855  13.242  17.298   1.276
    1STR    C0912856  13.316  17.311   1.387
    1STR    O0A12857  13.437  17.335   1.389
    1STR    O0B12858  13.241  17.293   1.497
    1STR    C0C12859  13.300  17.309   1.625
    1STR    C0D12860  13.293   0.017   1.667
    1STR    C0E12861  13.231  17.217   1.727
    1STR    O0F12862  13.307  17.225   1.847
    1STR    C0G12863  13.260  17.146   1.956
    1STR    C0H12864  13.307  17.000   1.937
    1STR    C0I12865  13.319  17.208   2.083
    1STR    O0J12866  13.271  17.137   2.196
    1STR    C0K12867  13.323  17.180   2.321
    1STR    C0M12868  13.260  17.314   2.363
    1STR    C0N12869  13.293  17.068   2.422
    1STR    O0O12870  13.361  17.092   2.544
    1STR    C0P12871  13.295  17.138   2.651
    1STR    O0Q12872  13.174  17.156   2.656
    1STR    N0R12873  13.383  17.165   2.747
    1STR    C0S12874  13.363  17.222   2.873
    1STR    C0T12875  13.475  17.280   2.937
    1STR    C0U12876  13.462  17.343   3.062
    1STR    C0V12877  13.337  17.348   3.127
    1STR    C0W12878  13.327  17.423   3.258
    1STR    C0X12879  13.225  17.284   3.068
    1STR    N0Y12880  13.102  17.286   3.132
    1STR   BCK212881  13.068  17.219   3.243
    1STR    O1012882  12.965  17.245   3.303
    1STR    C1312883  13.238  17.224   2.941
    1STR    C1412884  13.412  17.325   1.098
    1STR    C1512885  13.445  17.326   0.962
    1STR    C1612886  13.346  17.307   0.864
    1STR    C1712887  13.388  17.301   0.718
    1STR    H1B12888  13.063  17.182   0.810
    1STR    H1C12889  13.076  17.275   1.071
    1STR    H1D12890  13.145  17.282   1.297
    1STR    H1E12891  13.405  17.278   1.622
    1STR    H1F12892  13.190   0.052   1.672
    1STR    H1G12893  13.339   0.032   1.764
    1STR    H1H12894  13.346   0.080   1.595
    1STR    H1I12895  13.229  17.115   1.689
    1STR    H1J12896  13.128  17.248   1.744
    1STR    H1K12897  13.151  17.150   1.963
    1STR    H1M12898  13.415  16.996   1.926
    1STR    H1N12899  13.262  16.954   1.850
    1STR    H1O12900  13.280  16.940   2.024
    1STR    H1P12901  13.428  17.206   2.079
    1STR    H1Q12902  13.289  17.313   2.088
    1STR    H1R12903  13.432  17.192   2.314
    1STR    H1S12904  13.295  17.345   2.462
    1STR    H1T12905  13.151  17.306   2.369
    1STR    H1U12906  13.284  17.395   2.295
    1STR    H1V12907  13.329  16.973   2.383
    1STR    H1W12908  13.185  17.056   2.436
    1STR    H1X12909  13.477  17.147   2.719
    1STR    H1Y12910  13.572  17.279   2.889
    1STR    H1Z12911  13.548  17.389   3.107
    1STR    H2012912  13.226   0.021   3.275
    1STR    H2112913  13.353  17.358   3.341
    1STR    H2212914  13.394   0.069   3.259
    1STR    H2312915  13.029  17.345   3.096
    1STR    H2712916  13.151  17.178   2.896
    1STR    H2812917  13.494  17.339   1.167
    1STR    H2912918  13.548  17.339   0.932
    1STR    H2A12919  13.330  17.226   0.664
    1STR    H2B12920  13.493  17.274   0.708
    1STR    H2C12921  13.373  17.398   0.670
    1STR   BCK112922  13.004  17.386   5.057
    1STR    O0312923  12.934  17.290   5.027
    1STR    N0412924  12.984   0.026   5.162
    1STR    C0512925  12.875   0.028   5.249
    1STR    C0612926  12.897   0.021   5.389
    1STR    C0712927  12.790   0.032   5.482
    1STR    N0812928  12.816   0.027   5.620
    1STR    C0912929  12.742   0.073   5.722
    1STR    O0A12930  12.636   0.133   5.711
    1STR    O0B12931  12.800   0.045   5.841
    1STR    C0C12932  12.733   0.078   5.963
    1STR    C0D12933  12.631  17.408   5.996
    1STR    C0E12934  12.836   0.096   6.077
    1STR    O0F12935  12.767   0.134   6.197
    1STR    C0G12936  12.850   0.159   6.310
    1STR    C0H12937  12.913   0.299   6.298
    1STR    C0I12938  12.763   0.147   6.437
    1STR    O0J12939  12.845   0.161   6.553
    1STR    C0K12940  12.777   0.159   6.679
    1STR    C0M12941  12.729   0.017   6.713
    1STR    C0N12942  12.876   0.211   6.785
    1STR    O0O12943  12.813   0.229   6.911
    1STR    C0P12944  12.841   0.148   7.015
    1STR    O0Q12945  12.914   0.050   7.011
    1STR    N0R12946  12.776   0.192   7.123
    1STR    C0S12947  12.770   0.144   7.254
    1STR    C0T12948  12.678   0.205   7.341
    1STR    C0U12949  12.664   0.161   7.474
    1STR    C0V12950  12.743   0.055   7.524
    1STR    C0W12951  12.718   0.007   7.666
    1STR    C0X12952  12.840  17.436   7.440
    1STR    N0Y12953  12.922  17.332   7.484
    1STR   BCK212954  13.004  17.332   7.590
    1STR    O1012955  13.020  17.429   7.664
    1STR    C1312956  12.851   0.039   7.305
    1STR    C1412957  12.659   0.047   5.431
    1STR    C1512958  12.636   0.056   5.292
    1STR    C1612959  12.743   0.048   5.201
    1STR    C1712960  12.713   0.068   5.053
    1STR    H1B12961  13.057   0.094   5.176
    1STR    H1C12962  12.997   0.008   5.425
    1STR    H1D12963  12.903  17.426   5.649
    1STR    H1E12964  12.681   0.173   5.951
    1STR    H1F12965  12.679  17.311   6.009
    1STR    H1G12966  12.577  17.431   6.088
    1STR    H1H12967  12.557  17.399   5.917
    1STR    H1I12968  12.908   0.172   6.048
    1STR    H1J12969  12.891   0.004   6.093
    1STR    H1K12970  12.929   0.083   6.317
    1STR    H1M12971  12.836   0.375   6.286
    1STR    H1N12972  12.981   0.307   6.214
    1STR    H1O12973  12.970   0.324   6.388
    1STR    H1P12974  12.685   0.223   6.435
    1STR    H1Q12975  12.713   0.050   6.436
    1STR    H1R12976  12.692   0.228   6.675
    1STR    H1S12977  12.683   0.014   6.812
    1STR    H1T12978  12.812  17.387   6.713
    1STR    H1U12979  12.654  17.421   6.642
    1STR    H1V12980  12.916   0.308   6.753
    1STR    H1W12981  12.963   0.145   6.791
    1STR    H1X12982  12.722   0.274   7.101
    1STR    H1Y12983  12.615   0.286   7.308
    1STR    H1Z12984  12.592   0.209   7.538
    1STR    H2012985  12.735  17.340   7.674
    1STR    H2112986  12.785   0.058   7.735
    1STR    H2212987  12.616   0.026   7.697
    1STR    H2312988  12.930  17.250   7.425
    1STR    H2712989  12.925  17.433   7.242
    1STR    H2812990  12.573   0.054   5.496
    1STR    H2912991  12.535   0.070   5.256
    1STR    H2A12992  12.793   0.125   5.005
    1STR    H2B12993  12.620   0.123   5.038
    1STR    H2C12994  12.705  17.411   5.004
    1STR   BCK112995  13.077  17.250   9.423
    1STR    O0312996  13.188  17.202   9.403
    1STR    N0412997  12.995  17.215   9.523
    1STR    C0512998  13.011  17.109   9.611
    1STR    C0612999  13.003  17.131   9.751
    1STR    C0713000  13.011  17.025   9.844
    1STR    N0813001  12.998  17.052   9.981
    1STR    C0913002  13.025  16.975  10.087
    1STR    O0A13003  13.076  16.863  10.082
    1STR    O0B13004  12.990  17.036  10.201
    1STR    C0C13005  13.009  16.970  10.326
    1STR    C0D13006  13.156  16.987  10.371
    1STR    C0E13007  12.911  17.025  10.431
    1STR    O0F13008  12.930  16.954  10.553
    1STR    C0G13009  12.849  16.995  10.662
    1STR    C0H13010  12.709  16.933  10.648
    1STR    C0I13011  12.919  16.945  10.790
    1STR    O0J13012  12.853  16.996  10.905
    1STR    C0K13013  12.904  16.949  11.029
    1STR    C0M13014  13.039  17.016  11.062
    1STR    C0N13015  12.800  16.979  11.138
    1STR    O0O13016  12.839  16.911  11.257
    1STR    C0P13017  12.863  16.977  11.371
    1STR    O0Q13018  12.851  17.098  11.388
    1STR    N0R13019  12.902  16.889  11.462
    1STR    C0S13020  12.935  16.901  11.597
    1STR    C0T13021  12.963  16.782  11.666
    1STR    C0U13022  12.989  16.783  11.804
    1STR    C0V13023  12.987  16.904  11.876
    1STR    C0W13024  13.001  16.896  12.027
    1STR    C0X13025  12.966  17.026  11.808
    1STR    N0Y13026  12.956  17.148  11.875
    1STR   BCK213027  13.041  17.211  11.957
    1STR    O1013028  13.004  17.312  12.017
    1STR    C1313029  12.938  17.023  11.669
    1STR    C1413030  13.027  16.894   9.794
    1STR    C1513031  13.034  16.870   9.656
    1STR    C1613032  13.024  16.976   9.564
    1STR    C1713033  13.023  16.942   9.415
    1STR    H1B13034  12.913  17.272   9.532
    1STR    H1C13035  12.991  17.233   9.786
    1STR    H1D13036  12.964  17.142  10.008
    1STR    H1E13037  12.988  16.863  10.314
    1STR    H1F13038  13.182  17.092  10.384
    1STR    H1G13039  13.174  16.936  10.466
    1STR    H1H13040  13.224  16.944  10.298
    1STR    H1I13041  12.809  17.013  10.395
    1STR    H1J13042  12.928  17.132  10.446
    1STR    H1K13043  12.843  17.103  10.666
    1STR    H1M13044  12.714  16.825  10.638
    1STR    H1N13045  12.655  16.972  10.561
    1STR    H1O13046  12.648  16.956  10.736
    1STR    H1P13047  12.922  16.836  10.791
    1STR    H1Q13048  13.023  16.980  10.788
    1STR    H1R13049  12.917  16.841  11.025
    1STR    H1S13050  13.074  16.987  11.161
    1STR    H1T13051  13.029  17.125  11.062
    1STR    H1U13052  13.117  16.990  10.991
    1STR    H1V13053  12.702  16.942  11.108
    1STR    H1W13054  12.789  17.087  11.152
    1STR    H1X13055  12.904  16.797  11.422
    1STR    H1Y13056  12.963  16.687  11.615
    1STR    H1Z13057  13.007  16.690  11.855
    1STR    H2013058  13.107  16.892  12.055
    1STR    H2113059  12.955  16.981  12.076
    1STR    H2213060  12.953  16.807  12.066
    1STR    H2313061  12.873  17.202  11.859
    1STR    H2713062  12.918  17.116  11.618
    1STR    H2813063  13.032  16.808   9.859
    1STR    H2913064  13.045  16.768   9.621
    1STR    H2A13065  12.953  17.007   9.362
    1STR    H2B13066  12.992  16.839   9.398
    1STR    H2C13067  13.122  16.956   9.373
    1STR   BCK113068  13.077  17.350  13.761
    1STR    O0313069  12.999  17.433  13.715
    1STR    N0413070  13.133  17.356  13.882
    1STR    C0513071  13.136   0.021  13.974
    1STR    C0613072  13.119  17.432  14.112
    1STR    C0713073  13.132   0.093  14.211
    1STR    N0813074  13.122   0.059  14.346
    1STR    C0913075  13.161   0.127  14.455
    1STR    O0A13076  13.212   0.239  14.453
    1STR    O0B13077  13.136   0.057  14.567
    1STR    C0C13078  13.162   0.117  14.695
    1STR    C0D13079  13.042   0.205  14.734
    1STR    C0E13080  13.189   0.010  14.802
    1STR    O0F13081  13.227   0.079  14.921
    1STR    C0G13082  13.263  17.437  15.032
    1STR    C0H13083  13.406  17.384  15.014
    1STR    C0I13084  13.252   0.086  15.157
    1STR    O0J13085  13.269   0.006  15.274
    1STR    C0K13086  13.271   0.078  15.396
    1STR    C0M13087  13.126   0.109  15.439
    1STR    C0N13088  13.344  17.430  15.499
    1STR    O0O13089  13.360   0.056  15.624
    1STR    C0P13090  13.279   0.031  15.727
    1STR    O0Q13091  13.179  17.399  15.723
    1STR    N0R13092  13.323   0.097  15.834
    1STR    C0S13093  13.274   0.103  15.964
    1STR    C0T13094  13.317   0.209  16.046
    1STR    C0U13095  13.269   0.222  16.178
    1STR    C0V13096  13.178   0.128  16.231
    1STR    C0W13097  13.124   0.150  16.371
    1STR    C0X13098  13.138   0.018  16.152
    1STR    N0Y13099  13.050  17.361  16.200
    1STR   BCK213100  13.069  17.273  16.298
    1STR    O1013101  12.979  17.195  16.328
    1STR    C1313102  13.185   0.007  16.019
    1STR    C1413103  13.157   0.225  14.168
    1STR    C1513104  13.177   0.255  14.032
    1STR    C1613105  13.170   0.153  13.935
    1STR    C1713106  13.209   0.190  13.792
    1STR    H1B13107  13.185  17.273  13.908
    1STR    H1C13108  13.098  17.331  14.142
    1STR    H1D13109  13.085  17.409  14.373
    1STR    H1E13110  13.251   0.179  14.688
    1STR    H1F13111  12.951   0.146  14.742
    1STR    H1G13112  13.059   0.253  14.830
    1STR    H1H13113  13.025   0.283  14.660
    1STR    H1I13114  13.270  17.384  14.768
    1STR    H1J13115  13.101  17.388  14.819
    1STR    H1K13116  13.192  17.355  15.042
    1STR    H1M13117  13.477   0.026  15.000
    1STR    H1N13118  13.415  17.317  14.929
    1STR    H1O13119  13.438  17.330  15.103
    1STR    H1P13120  13.328   0.165  15.153
    1STR    H1Q13121  13.155   0.135  15.158
    1STR    H1R13122  13.328   0.171  15.385
    1STR    H1S13123  13.124   0.163  15.534
    1STR    H1T13124  13.069   0.017  15.452
    1STR    H1U13125  13.074   0.171  15.366
    1STR    H1V13126  13.444  17.408  15.461
    1STR    H1W13127  13.295  17.333  15.511
    1STR    H1X13128  13.406   0.150  15.811
    1STR    H1Y13129  13.387   0.282  16.009
    1STR    H1Z13130  13.303   0.304  16.238
    1STR    H2013131  13.025   0.106  16.383
    1STR    H2113132  13.190   0.104  16.444
    1STR    H2213133  13.116   0.256  16.394
    1STR    H2313134  12.964  17.347  16.150
    1STR    H2713135  13.154  17.363  15.959
    1STR    H2813136  13.165   0.307  14.237
    1STR    H2913137  13.201   0.356  14.004
    1STR    H2A13138  13.262   0.108  13.744
    1STR    H2B13139  13.275   0.276  13.791
    1STR    H2C13140  13.120   0.215  13.734
    1STR   BCK113141  12.965   4.226   0.700
    1STR    O0313142  12.963   4.108   0.668
    1STR    N0413143  12.898   4.279   0.804
    1STR    C0513144  12.806   4.216   0.888
    1STR    C0613145  12.822   4.227   1.029
    1STR    C0713146  12.728   4.171   1.119
    1STR    N0813147  12.748   4.186   1.258
    1STR    C0913148  12.662   4.168   1.359
    1STR    O0A13149  12.544   4.137   1.346
    1STR    O0B13150  12.722   4.189   1.478
    1STR    C0C13151  12.652   4.159   1.600
    1STR    C0D13152  12.674   4.011   1.635
    1STR    C0E13153  12.700   4.252   1.714
    1STR    O0F13154  12.625   4.223   1.832
    1STR    C0G13155  12.656   4.304   1.946
    1STR    C0H13156  12.582   4.439   1.933
    1STR    C0I13157  12.611   4.228   2.072
    1STR    O0J13158  12.649   4.302   2.188
    1STR    C0K13159  12.609   4.247   2.314
    1STR    C0M13160  12.694   4.124   2.348
    1STR    C0N13161  12.627   4.358   2.420
    1STR    O0O13162  12.573   4.319   2.546
    1STR    C0P13163  12.655   4.294   2.650
    1STR    O0Q13164  12.777   4.297   2.646
    1STR    N0R13165  12.581   4.265   2.757
    1STR    C0S13166  12.617   4.230   2.888
    1STR    C0T13167  12.513   4.191   2.975
    1STR    C0U13168  12.541   4.149   3.106
    1STR    C0V13169  12.673   4.144   3.154
    1STR    C0W13170  12.697   4.085   3.292
    1STR    C0X13171  12.779   4.188   3.070
    1STR    N0Y13172  12.913   4.185   3.109
    1STR   BCK213173  12.972   4.223   3.222
    1STR    O1013174  12.916   4.276   3.317
    1STR    C1313175  12.749   4.229   2.938
    1STR    C1413176  12.619   4.100   1.065
    1STR    C1513177  12.601   4.090   0.926
    1STR    C1613178  12.692   4.149   0.837
    1STR    C1713179  12.661   4.143   0.688
    1STR    H1B13180  12.920   4.376   0.821
    1STR    H1C13181  12.908   4.280   1.067
    1STR    H1D13182  12.838   4.215   1.289
    1STR    H1E13183  12.545   4.177   1.587
    1STR    H1F13184  12.779   3.988   1.649
    1STR    H1G13185  12.621   3.984   1.726
    1STR    H1H13186  12.636   3.947   1.555
    1STR    H1I13187  12.685   4.356   1.683
    1STR    H1J13188  12.806   4.238   1.731
    1STR    H1K13189  12.763   4.321   1.953
    1STR    H1M13190  12.475   4.424   1.922
    1STR    H1N13191  12.617   4.497   1.848
    1STR    H1O13192  12.598   4.499   2.022
    1STR    H1P13193  12.504   4.211   2.070
    1STR    H1Q13194  12.659   4.130   2.073
    1STR    H1R13195  12.503   4.220   2.311
    1STR    H1S13196  12.669   4.086   2.448
    1STR    H1T13197  12.800   4.148   2.349
    1STR    H1U13198  12.678   4.042   2.279
    1STR    H1V13199  12.574   4.448   2.388
    1STR    H1W13200  12.732   4.388   2.426
    1STR    H1X13201  12.483   4.268   2.736
    1STR    H1Y13202  12.410   4.191   2.943
    1STR    H1Z13203  12.460   4.117   3.170
    1STR    H2013204  12.792   4.032   3.297
    1STR    H2113205  12.697   4.164   3.368
    1STR    H2213206  12.619   4.013   3.319
    1STR    H2313207  12.979   4.154   3.039
    1STR    H2713208  12.831   4.260   2.875
    1STR    H2813209  12.546   4.051   1.128
    1STR    H2913210  12.515   4.036   0.888
    1STR    H2A13211  12.694   4.234   0.638
    1STR    H2B13212  12.554   4.133   0.671
    1STR    H2C13213  12.712   4.058   0.643
    1STR   BCK113214  13.103   4.241   5.072
    1STR    O0313215  13.207   4.305   5.059
    1STR    N0413216  13.077   4.157   5.172
    1STR    C0513217  13.168   4.109   5.265
    1STR    C0613218  13.142   4.121   5.403
    1STR    C0713219  13.229   4.066   5.500
    1STR    N0813220  13.196   4.077   5.636
    1STR    C0913221  13.271   4.054   5.745
    1STR    O0A13222  13.390   4.024   5.744
    1STR    O0B13223  13.197   4.069   5.856
    1STR    C0C13224  13.258   4.049   5.984
    1STR    C0D13225  13.329   4.179   6.027
    1STR    C0E13226  13.152   4.005   6.086
    1STR    O0F13227  13.218   3.977   6.210
    1STR    C0G13228  13.134   3.933   6.316
    1STR    C0H13229  13.097   3.785   6.296
    1STR    C0I13230  13.212   3.954   6.447
    1STR    O0J13231  13.129   3.924   6.559
    1STR    C0K13232  13.194   3.926   6.686
    1STR    C0M13233  13.228   4.070   6.727
    1STR    C0N13234  13.099   3.857   6.786
    1STR    O0O13235  13.164   3.825   6.909
    1STR    C0P13236  13.154   3.906   7.015
    1STR    O0Q13237  13.090   4.010   7.018
    1STR    N0R13238  13.229   3.859   7.115
    1STR    C0S13239  13.262   3.919   7.237
    1STR    C0T13240  13.384   3.882   7.298
    1STR    C0U13241  13.430   3.953   7.411
    1STR    C0V13242  13.356   4.060   7.465
    1STR    C0W13243  13.427   4.147   7.567
    1STR    C0X13244  13.227   4.088   7.415
    1STR    N0Y13245  13.143   4.192   7.456
    1STR   BCK213246  13.108   4.257   7.567
    1STR    O1013247  13.033   4.353   7.555
    1STR    C1313248  13.183   4.018   7.300
    1STR    C1413249  13.344   3.997   5.455
    1STR    C1513250  13.371   3.983   5.318
    1STR    C1613251  13.283   4.037   5.222
    1STR    C1713252  13.312   4.011   5.075
    1STR    H1B13253  12.984   4.119   5.173
    1STR    H1C13254  13.054   4.174   5.434
    1STR    H1D13255  13.104   4.108   5.659
    1STR    H1E13256  13.331   3.969   5.977
    1STR    H1F13257  13.259   4.262   6.034
    1STR    H1G13258  13.377   4.167   6.124
    1STR    H1H13259  13.406   4.206   5.955
    1STR    H1I13260  13.100   3.917   6.049
    1STR    H1J13261  13.077   4.084   6.100
    1STR    H1K13262  13.043   3.994   6.320
    1STR    H1M13263  13.186   3.724   6.286
    1STR    H1N13264  13.035   3.770   6.208
    1STR    H1O13265  13.041   3.748   6.382
    1STR    H1P13266  13.302   3.892   6.447
    1STR    H1Q13267  13.245   4.058   6.451
    1STR    H1R13268  13.285   3.866   6.681
    1STR    H1S13269  13.273   4.073   6.826
    1STR    H1T13270  13.138   4.132   6.731
    1STR    H1U13271  13.298   4.118   6.660
    1STR    H1V13272  13.063   3.763   6.744
    1STR    H1W13273  13.009   3.918   6.803
    1STR    H1X13274  13.273   3.772   7.091
    1STR    H1Y13275  13.446   3.805   7.256
    1STR    H1Z13276  13.528   3.928   7.451
    1STR    H2013277  13.390   4.250   7.562
    1STR    H2113278  13.416   4.109   7.668
    1STR    H2213279  13.534   4.153   7.545
    1STR    H2313280  13.089   4.233   7.381
    1STR    H2713281  13.087   4.043   7.257
    1STR    H2813282  13.414   3.952   5.523
    1STR    H2913283  13.459   3.929   5.286
    1STR    H2A13284  13.221   3.991   5.019
    1STR    H2B13285  13.378   3.925   5.062
    1STR    H2C13286  13.361   4.098   5.031
    1STR   BCK113287  13.064   4.321   9.407
    1STR    O0313288  12.960   4.264   9.374
    1STR    N0413289  13.079   4.394   9.518
    1STR    C0513290  12.981   4.438   9.607
    1STR    C0613291  12.998   4.415   9.746
    1STR    C0713292  12.908   4.469   9.842
    1STR    N0813293  12.930   4.448   9.979
    1STR    C0913294  12.893   4.525  10.082
    1STR    O0A13295  12.836   4.633  10.072
    1STR    O0B13296  12.927   4.469  10.200
    1STR    C0C13297  12.888   4.531  10.323
    1STR    C0D13298  12.743   4.492  10.357
    1STR    C0E13299  12.985   4.491  10.436
    1STR    O0F13300  12.949   4.560  10.556
    1STR    C0G13301  13.032   4.536  10.669
    1STR    C0H13302  13.161   4.620  10.657
    1STR    C0I13303  12.953   4.574  10.795
    1STR    O0J13304  13.030   4.544  10.911
    1STR    C0K13305  12.972   4.581  11.036
    1STR    C0M13306  12.858   4.484  11.074
    1STR    C0N13307  13.085   4.578  11.141
    1STR    O0O13308  13.040   4.629  11.266
    1STR    C0P13309  13.027   4.548  11.372
    1STR    O0Q13310  13.046   4.427  11.372
    1STR    N0R13311  12.989   4.620  11.478
    1STR    C0S13312  12.962   4.583  11.610
    1STR    C0T13313  12.901   4.679  11.694
    1STR    C0U13314  12.869   4.648  11.827
    1STR    C0V13315  12.899   4.521  11.881
    1STR    C0W13316  12.856   4.489  12.023
    1STR    C0X13317  12.964   4.425  11.800
    1STR    N0Y13318  12.992   4.298  11.848
    1STR   BCK213319  13.073   4.266  11.949
    1STR    O1013320  13.142   4.346  12.011
    1STR    C1313321  12.993   4.456  11.665
    1STR    C1413322  12.797   4.543   9.795
    1STR    C1513323  12.779   4.566   9.658
    1STR    C1613324  12.871   4.516   9.563
    1STR    C1713325  12.851   4.552   9.417
    1STR    H1B13326  13.173   4.423   9.536
    1STR    H1C13327  13.083   4.357   9.780
    1STR    H1D13328  12.981   4.366  10.007
    1STR    H1E13329  12.894   4.640  10.312
    1STR    H1F13330  12.733   4.384  10.368
    1STR    H1G13331  12.711   4.539  10.449
    1STR    H1H13332  12.675   4.524  10.278
    1STR    H1I13333  13.087   4.516  10.406
    1STR    H1J13334  12.983   4.383  10.452
    1STR    H1K13335  13.057   4.430  10.676
    1STR    H1M13336  13.137   4.726  10.644
    1STR    H1N13337  13.222   4.589  10.572
    1STR    H1O13338  13.222   4.610  10.746
    1STR    H1P13339  12.927   4.680  10.792
    1STR    H1Q13340  12.859   4.518  10.796
    1STR    H1R13341  12.933   4.683  11.031
    1STR    H1S13342  12.818   4.507  11.172
    1STR    H1T13343  12.894   4.381  11.076
    1STR    H1U13344  12.775   4.489  11.004
    1STR    H1V13345  13.167   4.641  11.107
    1STR    H1W13346  13.126   4.477  11.149
    1STR    H1X13347  12.978   4.717  11.453
    1STR    H1Y13348  12.877   4.777  11.656
    1STR    H1Z13349  12.821   4.723  11.889
    1STR    H2013350  12.822   4.386  12.031
    1STR    H2113351  12.941   4.502  12.091
    1STR    H2213352  12.775   4.554  12.057
    1STR    H2313353  12.953   4.219  11.798
    1STR    H2713354  13.042   4.381  11.605
    1STR    H2813355  12.724   4.584   9.863
    1STR    H2913356  12.694   4.624   9.625
    1STR    H2A13357  12.947   4.572   9.369
    1STR    H2B13358  12.790   4.642   9.407
    1STR    H2C13359  12.802   4.471   9.365
    1STR   BCK113360  13.023   4.163  13.785
    1STR    O0313361  13.093   4.068  13.753
    1STR    N0413362  12.937   4.165  13.887
    1STR    C0513363  12.901   4.059  13.971
    1STR    C0613364  12.903   4.079  14.111
    1STR    C0713365  12.862   3.977  14.202
    1STR    N0813366  12.863   4.004  14.340
    1STR    C0913367  12.837   3.924  14.444
    1STR    O0A13368  12.810   3.804  14.436
    1STR    O0B13369  12.846   3.992  14.560
    1STR    C0C13370  12.827   3.923  14.685
    1STR    C0D13371  12.959   3.855  14.725
    1STR    C0E13372  12.778   4.020  14.793
    1STR    O0F13373  12.754   3.947  14.913
    1STR    C0G13374  12.708   4.022  15.025
    1STR    C0H13375  12.556   4.046  15.011
    1STR    C0I13376  12.740   3.942  15.152
    1STR    O0J13377  12.707   4.019  15.267
    1STR    C0K13378  12.724   3.954  15.393
    1STR    C0M13379  12.873   3.941  15.428
    1STR    C0N13380  12.650   4.040  15.499
    1STR    O0O13381  12.639   3.970  15.623
    1STR    C0P13382  12.711   4.008  15.729
    1STR    O0Q13383  12.793   4.098  15.731
    1STR    N0R13384  12.677   3.931  15.833
    1STR    C0S13385  12.722   3.927  15.966
    1STR    C0T13386  12.661   3.832  16.050
    1STR    C0U13387  12.703   3.815  16.183
    1STR    C0V13388  12.808   3.894  16.235
    1STR    C0W13389  12.857   3.863  16.375
    1STR    C0X13390  12.866   3.995  16.154
    1STR    N0Y13391  12.971   4.075  16.201
    1STR   BCK213392  12.977   4.145  16.315
    1STR    O1013393  12.885   4.161  16.394
    1STR    C1313394  12.824   4.009  16.020
    1STR    C1413395  12.818   3.855  14.147
    1STR    C1513396  12.813   3.835  14.008
    1STR    C1613397  12.852   3.937  13.919
    1STR    C1713398  12.834   3.912  13.770
    1STR    H1B13399  12.895   4.254  13.904
    1STR    H1C13400  12.939   4.173  14.150
    1STR    H1D13401  12.888   4.096  14.370
    1STR    H1E13402  12.750   3.847  14.672
    1STR    H1F13403  13.039   3.928  14.739
    1STR    H1G13404  12.947   3.800  14.819
    1STR    H1H13405  12.991   3.784  14.649
    1STR    H1I13406  12.686   4.069  14.760
    1STR    H1J13407  12.851   4.099  14.810
    1STR    H1K13408  12.761   4.117  15.031
    1STR    H1M13409  12.503   3.952  15.000
    1STR    H1N13410  12.532   4.108  14.925
    1STR    H1O13411  12.517   4.096  15.099
    1STR    H1P13412  12.686   3.847  15.152
    1STR    H1Q13413  12.846   3.918  15.153
    1STR    H1R13414  12.677   3.856  15.390
    1STR    H1S13415  12.886   3.898  15.527
    1STR    H1T13416  12.922   4.038  15.428
    1STR    H1U13417  12.926   3.876  15.358
    1STR    H1V13418  12.549   4.060  15.464
    1STR    H1W13419  12.697   4.137  15.510
    1STR    H1X13420  12.606   3.865  15.806
    1STR    H1Y13421  12.581   3.768  16.014
    1STR    H1Z13422  12.657   3.740  16.245
    1STR    H2013423  12.966   3.874  16.382
    1STR    H2113424  12.812   3.930  16.448
    1STR    H2213425  12.834   3.761  16.405
    1STR    H2313426  13.051   4.087  16.141
    1STR    H2713427  12.872   4.083  15.958
    1STR    H2813428  12.784   3.773  14.209
    1STR    H2913429  12.776   3.741  13.970
    1STR    H2A13430  12.805   4.003  13.718
    1STR    H2B13431  12.756   3.838  13.751
    1STR    H2C13432  12.927   3.875  13.727
    1STR   BCK113433  13.068   8.635   0.710
    1STR    O0313434  13.055   8.756   0.698
    1STR    N0413435  13.130   8.575   0.812
    1STR    C0513436  13.208   8.641   0.906
    1STR    C0613437  13.178   8.627   1.044
    1STR    C0713438  13.256   8.691   1.142
    1STR    N0813439  13.225   8.671   1.277
    1STR    C0913440  13.292   8.705   1.387
    1STR    O0A13441  13.400   8.764   1.389
    1STR    O0B13442  13.227   8.664   1.497
    1STR    C0C13443  13.278   8.699   1.626
    1STR    C0D13444  13.220   8.836   1.666
    1STR    C0E13445  13.244   8.589   1.727
    1STR    O0F13446  13.308   8.625   1.849
    1STR    C0G13447  13.293   8.535   1.957
    1STR    C0H13448  13.387   8.415   1.938
    1STR    C0I13449  13.329   8.615   2.083
    1STR    O0J13450  13.305   8.535   2.198
    1STR    C0K13451  13.343   8.596   2.321
    1STR    C0M13452  13.236   8.698   2.364
    1STR    C0N13453  13.359   8.482   2.423
    1STR    O0O13454  13.412   8.531   2.546
    1STR    C0P13455  13.332   8.550   2.651
    1STR    O0Q13456  13.212   8.525   2.655
    1STR    N0R13457  13.404   8.603   2.750
    1STR    C0S13458  13.366   8.643   2.878
    1STR    C0T13459  13.453   8.730   2.948
    1STR    C0U13460  13.420   8.776   3.077
    1STR    C0V13461  13.301   8.735   3.139
    1STR    C0W13462  13.266   8.790   3.276
    1STR    C0X13463  13.215   8.643   3.073
    1STR    N0Y13464  13.098   8.598   3.133
    1STR   BCK213465  13.087   8.511   3.234
    1STR    O1013466  12.977   8.481   3.278
    1STR    C1313467  13.248   8.600   2.943
    1STR    C1413468  13.364   8.772   1.100
    1STR    C1513469  13.396   8.785   0.964
    1STR    C1613470  13.320   8.718   0.866
    1STR    C1713471  13.364   8.728   0.721
    1STR    H1B13472  13.126   8.475   0.815
    1STR    H1C13473  13.093   8.567   1.072
    1STR    H1D13474  13.139   8.623   1.299
    1STR    H1E13475  13.387   8.705   1.622
    1STR    H1F13476  13.112   8.834   1.672
    1STR    H1G13477  13.259   8.867   1.764
    1STR    H1H13478  13.249   8.912   1.594
    1STR    H1I13479  13.281   8.493   1.691
    1STR    H1J13480  13.136   8.580   1.741
    1STR    H1K13481  13.190   8.502   1.965
    1STR    H1M13482  13.490   8.447   1.924
    1STR    H1N13483  13.360   8.353   1.852
    1STR    H1O13484  13.385   8.350   2.026
    1STR    H1P13485  13.434   8.646   2.078
    1STR    H1Q13486  13.269   8.705   2.086
    1STR    H1R13487  13.440   8.646   2.311
    1STR    H1S13488  13.261   8.743   2.460
    1STR    H1T13489  13.138   8.650   2.375
    1STR    H1U13490  13.226   8.780   2.293
    1STR    H1V13491  13.430   8.409   2.384
    1STR    H1W13492  13.265   8.428   2.437
    1STR    H1X13493  13.500   8.617   2.723
    1STR    H1Y13494  13.545   8.764   2.903
    1STR    H1Z13495  13.487   8.844   3.127
    1STR    H2013496  13.158   8.803   3.287
    1STR    H2113497  13.300   8.721   3.354
    1STR    H2213498  13.313   8.887   3.293
    1STR    H2313499  13.011   8.630   3.095
    1STR    H2713500  13.182   8.531   2.893
    1STR    H2813501  13.427   8.826   1.169
    1STR    H2913502  13.481   8.845   0.935
    1STR    H2A13503  13.348   8.634   0.669
    1STR    H2B13504  13.470   8.751   0.714
    1STR    H2C13505  13.309   8.807   0.670
    1STR   BCK113506  12.979   8.644   5.059
    1STR    O0313507  12.933   8.536   5.025
    1STR    N0413508  12.937   8.715   5.165
    1STR    C0513509  12.829   8.690   5.249
    1STR    C0613510  12.848   8.691   5.390
    1STR    C0713511  12.741   8.674   5.480
    1STR    N0813512  12.765   8.679   5.619
    1STR    C0913513  12.679   8.692   5.721
    1STR    O0A13514  12.557   8.701   5.710
    1STR    O0B13515  12.745   8.692   5.840
    1STR    C0C13516  12.671   8.702   5.962
    1STR    C0D13517  12.613   8.563   5.998
    1STR    C0E13518  12.760   8.757   6.075
    1STR    O0F13519  12.684   8.766   6.196
    1STR    C0G13520  12.752   8.820   6.309
    1STR    C0H13521  12.762   8.973   6.296
    1STR    C0I13522  12.674   8.780   6.436
    1STR    O0J13523  12.748   8.818   6.552
    1STR    C0K13524  12.683   8.795   6.677
    1STR    C0M13525  12.687   8.646   6.713
    1STR    C0N13526  12.757   8.880   6.782
    1STR    O0O13527  12.692   8.873   6.909
    1STR    C0P13528  12.750   8.812   7.014
    1STR    O0Q13529  12.858   8.753   7.010
    1STR    N0R13530  12.673   8.825   7.121
    1STR    C0S13531  12.685   8.779   7.253
    1STR    C0T13532  12.579   8.806   7.341
    1STR    C0U13533  12.581   8.758   7.474
    1STR    C0V13534  12.691   8.684   7.521
    1STR    C0W13535  12.684   8.627   7.662
    1STR    C0X13536  12.801   8.660   7.436
    1STR    N0Y13537  12.910   8.584   7.477
    1STR   BCK213538  12.991   8.605   7.581
    1STR    O1013539  12.986   8.703   7.654
    1STR    C1313540  12.796   8.706   7.302
    1STR    C1413541  12.612   8.652   5.426
    1STR    C1513542  12.591   8.653   5.288
    1STR    C1613543  12.697   8.674   5.198
    1STR    C1713544  12.666   8.685   5.050
    1STR    H1B13545  12.991   8.798   5.184
    1STR    H1C13546  12.948   8.706   5.428
    1STR    H1D13547  12.860   8.677   5.651
    1STR    H1E13548  12.588   8.772   5.949
    1STR    H1F13549  12.692   8.490   6.013
    1STR    H1G13550  12.555   8.569   6.090
    1STR    H1H13551  12.547   8.527   5.920
    1STR    H1I13552  12.797   8.855   6.045
    1STR    H1J13553  12.847   8.692   6.090
    1STR    H1K13554  12.852   8.776   6.316
    1STR    H1M13555  12.664   9.018   6.282
    1STR    H1N13556  12.825   9.004   6.213
    1STR    H1O13557  12.805   9.016   6.386
    1STR    H1P13558  12.575   8.828   6.435
    1STR    H1Q13559  12.657   8.672   6.435
    1STR    H1R13560  12.580   8.830   6.673
    1STR    H1S13561  12.643   8.628   6.811
    1STR    H1T13562  12.789   8.609   6.716
    1STR    H1U13563  12.630   8.585   6.642
    1STR    H1V13564  12.757   8.984   6.752
    1STR    H1W13565  12.862   8.851   6.788
    1STR    H1X13566  12.590   8.879   7.099
    1STR    H1Y13567  12.492   8.862   7.309
    1STR    H1Z13568  12.497   8.778   7.538
    1STR    H2013569  12.732   8.529   7.667
    1STR    H2113570  12.735   8.693   7.732
    1STR    H2213571  12.581   8.614   7.695
    1STR    H2313572  12.934   8.504   7.420
    1STR    H2713573  12.880   8.685   7.237
    1STR    H2813574  12.526   8.636   5.490
    1STR    H2913575  12.490   8.640   5.250
    1STR    H2A13576  12.730   8.759   5.002
    1STR    H2B13577  12.562   8.716   5.034
    1STR    H2C13578  12.681   8.589   5.001
    1STR   BCK113579  13.097   8.554   9.425
    1STR    O0313580  13.219   8.547   9.408
    1STR    N0413581  13.031   8.497   9.526
    1STR    C0513582  13.080   8.403   9.615
    1STR    C0613583  13.064   8.424   9.754
    1STR    C0713584  13.106   8.327   9.848
    1STR    N0813585  13.084   8.350   9.985
    1STR    C0913586  13.135   8.288  10.092
    1STR    O0A13587  13.220   8.199  10.088
    1STR    O0B13588  13.081   8.336  10.205
    1STR    C0C13589  13.121   8.282  10.331
    1STR    C0D13590  13.252   8.350  10.376
    1STR    C0E13591  13.008   8.302  10.433
    1STR    O0F13592  13.049   8.242  10.555
    1STR    C0G13593  12.957   8.253  10.663
    1STR    C0H13594  12.847   8.148  10.649
    1STR    C0I13595  13.040   8.233  10.791
    1STR    O0J13596  12.959   8.258  10.906
    1STR    C0K13597  13.023   8.231  11.031
    1STR    C0M13598  13.128   8.338  11.063
    1STR    C0N13599  12.914   8.227  11.139
    1STR    O0O13600  12.971   8.170  11.256
    1STR    C0P13601  12.977   8.238  11.371
    1STR    O0Q13602  12.931   8.350  11.391
    1STR    N0R13603  13.040   8.161  11.460
    1STR    C0S13604  13.068   8.179  11.596
    1STR    C0T13605  13.130   8.071  11.662
    1STR    C0U13606  13.153   8.076  11.800
    1STR    C0V13607  13.115   8.188  11.876
    1STR    C0W13608  13.128   8.178  12.027
    1STR    C0X13609  13.060   8.301  11.810
    1STR    N0Y13610  13.015   8.414  11.880
    1STR   BCK213611  13.076   8.495  11.967
    1STR    O1013612  13.011   8.582  12.023
    1STR    C1313613  13.035   8.295  11.671
    1STR    C1413614  13.164   8.207   9.800
    1STR    C1513615  13.178   8.185   9.662
    1STR    C1613616  13.135   8.281   9.569
    1STR    C1713617  13.145   8.247   9.421
    1STR    H1B13618  12.934   8.524   9.533
    1STR    H1C13619  13.019   8.516   9.788
    1STR    H1D13620  13.022   8.425  10.010
    1STR    H1E13621  13.138   8.175  10.320
    1STR    H1F13622  13.239   8.457  10.387
    1STR    H1G13623  13.285   8.309  10.471
    1STR    H1H13624  13.331   8.332  10.304
    1STR    H1I13625  12.917   8.255  10.396
    1STR    H1J13626  12.987   8.408  10.447
    1STR    H1K13627  12.914   8.354  10.666
    1STR    H1M13628  12.889   8.047  10.641
    1STR    H1N13629  12.784   8.165  10.562
    1STR    H1O13630  12.781   8.149  10.736
    1STR    H1P13631  13.080   8.132  10.793
    1STR    H1Q13632  13.125   8.301  10.789
    1STR    H1R13633  13.069   8.132  11.026
    1STR    H1S13634  13.171   8.322  11.162
    1STR    H1T13635  13.085   8.438  11.062
    1STR    H1U13636  13.212   8.336  10.993
    1STR    H1V13637  12.831   8.163  11.107
    1STR    H1W13638  12.871   8.326  11.156
    1STR    H1X13639  13.067   8.075  11.417
    1STR    H1Y13640  13.158   7.982  11.608
    1STR    H1Z13641  13.197   7.990  11.849
    1STR    H2013642  13.231   8.199  12.056
    1STR    H2113643  13.062   8.248  12.078
    1STR    H2213644  13.102   8.078  12.061
    1STR    H2313645  12.922   8.445  11.859
    1STR    H2713646  12.989   8.379  11.622
    1STR    H2813647  13.196   8.129   9.867
    1STR    H2913648  13.221   8.092   9.629
    1STR    H2A13649  13.058   8.284   9.367
    1STR    H2B13650  13.151   8.139   9.405
    1STR    H2C13651  13.235   8.292   9.378
    1STR   BCK113652  13.064   8.644  13.762
    1STR    O0313653  12.967   8.698  13.710
    1STR    N0413654  13.114   8.673  13.883
    1STR    C0513655  13.079   8.775  13.972
    1STR    C0613656  13.074   8.745  14.110
    1STR    C0713657  13.049   8.844  14.208
    1STR    N0813658  13.050   8.811  14.344
    1STR    C0913659  13.070   8.890  14.450
    1STR    O0A13660  13.094   9.011  14.444
    1STR    O0B13661  13.061   8.821  14.565
    1STR    C0C13662  13.064   8.890  14.690
    1STR    C0D13663  12.921   8.932  14.727
    1STR    C0E13664  13.127   8.801  14.799
    1STR    O0F13665  13.137   8.879  14.919
    1STR    C0G13666  13.196   8.813  15.031
    1STR    C0H13667  13.349   8.814  15.015
    1STR    C0I13668  13.152   8.890  15.156
    1STR    O0J13669  13.204   8.826  15.272
    1STR    C0K13670  13.176   8.889  15.397
    1STR    C0M13671  13.030   8.863  15.437
    1STR    C0N13672  13.275   8.831  15.499
    1STR    O0O13673  13.267   8.897  15.625
    1STR    C0P13674  13.205   8.840  15.728
    1STR    O0Q13675  13.143   8.734  15.723
    1STR    N0R13676  13.219   8.915  15.837
    1STR    C0S13677  13.172   8.898  15.968
    1STR    C0T13678  13.182   9.007  16.056
    1STR    C0U13679  13.133   8.998  16.188
    1STR    C0V13680  13.075   8.878  16.235
    1STR    C0W13681  13.017   8.875  16.375
    1STR    C0X13682  13.070   8.766  16.149
    1STR    N0Y13683  13.011   8.646  16.190
    1STR   BCK213684  13.050   8.560  16.284
    1STR    O1013685  12.984   8.459  16.305
    1STR    C1313686  13.117   8.777  16.017
    1STR    C1413687  13.023   8.976  14.163
    1STR    C1513688  13.030   9.008  14.027
    1STR    C1613689  13.062   8.910  13.931
    1STR    C1713690  13.082   8.956  13.788
    1STR    H1B13691  13.187   8.610  13.911
    1STR    H1C13692  13.091   8.643  14.142
    1STR    H1D13693  13.037   8.715  14.369
    1STR    H1E13694  13.127   8.978  14.682
    1STR    H1F13695  12.855   8.846  14.736
    1STR    H1G13696  12.920   8.987  14.821
    1STR    H1H13697  12.880   8.998  14.650
    1STR    H1I13698  13.225   8.768  14.767
    1STR    H1J13699  13.066   8.712  14.816
    1STR    H1K13700  13.160   8.711  15.039
    1STR    H1M13701  13.387   8.916  15.002
    1STR    H1N13702  13.382   8.755  14.930
    1STR    H1O13703  13.397   8.772  15.104
    1STR    H1P13704  13.186   8.994  15.151
    1STR    H1Q13705  13.043   8.892  15.160
    1STR    H1R13706  13.194   8.997  15.389
    1STR    H1S13707  13.008   8.906  15.535
    1STR    H1T13708  13.010   8.756  15.444
    1STR    H1U13709  12.958   8.906  15.367
    1STR    H1V13710  13.377   8.843  15.462
    1STR    H1W13711  13.261   8.723  15.509
    1STR    H1X13712  13.272   8.998  15.817
    1STR    H1Y13713  13.224   9.101  16.024
    1STR    H1Z13714  13.140   9.083  16.253
    1STR    H2013715  12.936   8.803  16.383
    1STR    H2113716  13.094   8.848  16.448
    1STR    H2213717  12.976   8.972  16.403
    1STR    H2313718  12.932   8.612  16.137
    1STR    H2713719  13.110   8.690  15.953
    1STR    H2813720  12.999   9.055  14.232
    1STR    H2913721  13.013   9.110  13.996
    1STR    H2A13722  13.158   8.897  13.737
    1STR    H2B13723  13.115   9.060  13.784
    1STR    H2C13724  12.988   8.949  13.732
    1STR   BCK113725  12.979  12.915   0.705
    1STR    O0313726  13.003  12.801   0.667
    1STR    N0413727  12.902  12.948   0.809
    1STR    C0513728  12.826  12.865   0.891
    1STR    C0613729  12.836  12.879   1.032
    1STR    C0713730  12.757  12.802   1.121
    1STR    N0813731  12.769  12.823   1.260
    1STR    C0913732  12.702  12.769   1.363
    1STR    O0A13733  12.614  12.684   1.353
    1STR    O0B13734  12.745  12.820   1.480
    1STR    C0C13735  12.691  12.770   1.603
    1STR    C0D13736  12.764  12.641   1.642
    1STR    C0E13737  12.702  12.877   1.714
    1STR    O0F13738  12.645  12.824   1.834
    1STR    C0G13739  12.644  12.912   1.947
    1STR    C0H13740  12.529  13.013   1.933
    1STR    C0I13741  12.627  12.826   2.073
    1STR    O0J13742  12.643  12.907   2.189
    1STR    C0K13743  12.620  12.843   2.315
    1STR    C0M13744  12.739  12.752   2.350
    1STR    C0N13745  12.600  12.954   2.419
    1STR    O0O13746  12.561  12.902   2.546
    1STR    C0P13747  12.648  12.896   2.648
    1STR    O0Q13748  12.767  12.924   2.642
    1STR    N0R13749  12.583  12.853   2.757
    1STR    C0S13750  12.626  12.829   2.888
    1STR    C0T13751  12.533  12.774   2.978
    1STR    C0U13752  12.570  12.742   3.109
    1STR    C0V13753  12.701  12.764   3.155
    1STR    C0W13754  12.736  12.716   3.295
    1STR    C0X13755  12.796  12.825   3.068
    1STR    N0Y13756  12.929  12.845   3.104
    1STR   BCK213757  12.981  12.896   3.216
    1STR    O1013758  12.918  12.949   3.306
    1STR    C1313759  12.757  12.855   2.936
    1STR    C1413760  12.668  12.708   1.065
    1STR    C1513761  12.655  12.694   0.926
    1STR    C1613762  12.731  12.773   0.838
    1STR    C1713763  12.704  12.761   0.689
    1STR    H1B13764  12.903  13.046   0.831
    1STR    H1C13765  12.906  12.951   1.072
    1STR    H1D13766  12.837  12.890   1.291
    1STR    H1E13767  12.585  12.749   1.590
    1STR    H1F13768  12.871  12.658   1.657
    1STR    H1G13769  12.723  12.599   1.734
    1STR    H1H13770  12.753  12.565   1.564
    1STR    H1I13771  12.649  12.967   1.683
    1STR    H1J13772  12.806  12.905   1.730
    1STR    H1K13773  12.740  12.964   1.954
    1STR    H1M13774  12.434  12.963   1.919
    1STR    H1N13775  12.544  13.081   1.848
    1STR    H1O13776  12.521  13.075   2.022
    1STR    H1P13777  12.529  12.778   2.072
    1STR    H1Q13778  12.701  12.746   2.072
    1STR    H1R13779  12.528  12.784   2.310
    1STR    H1S13780  12.726  12.707   2.448
    1STR    H1T13781  12.832  12.810   2.353
    1STR    H1U13782  12.752  12.671   2.279
    1STR    H1V13783  12.521  13.021   2.386
    1STR    H1W13784  12.690  13.017   2.427
    1STR    H1X13785  12.486  12.836   2.737
    1STR    H1Y13786  12.431  12.753   2.947
    1STR    H1Z13787  12.496  12.697   3.175
    1STR    H2013788  12.838  12.680   3.300
    1STR    H2113789  12.724  12.797   3.367
    1STR    H2213790  12.671  12.634   3.327
    1STR    H2313791  12.997  12.821   3.033
    1STR    H2713792  12.830  12.900   2.870
    1STR    H2813793  12.605  12.645   1.126
    1STR    H2913794  12.584  12.623   0.887
    1STR    H2A13795  12.716  12.857   0.639
    1STR    H2B13796  12.603  12.727   0.671
    1STR    H2C13797  12.773  12.690   0.645
    1STR   BCK113798  13.095  12.988   5.067
    1STR    O0313799  13.168  13.086   5.055
    1STR    N0413800  13.100  12.901   5.168
    1STR    C0513801  13.201  12.892   5.263
    1STR    C0613802  13.169  12.896   5.400
    1STR    C0713803  13.269  12.881   5.499
    1STR    N0813804  13.232  12.881   5.634
    1STR    C0913805  13.307  12.896   5.743
    1STR    O0A13806  13.427  12.924   5.743
    1STR    O0B13807  13.234  12.877   5.854
    1STR    C0C13808  13.297  12.880   5.982
    1STR    C0D13809  13.317  13.025   6.028
    1STR    C0E13810  13.214  12.799   6.082
    1STR    O0F13811  13.286  12.795   6.205
    1STR    C0G13812  13.222  12.726   6.312
    1STR    C0H13813  13.237  12.574   6.293
    1STR    C0I13814  13.291  12.774   6.440
    1STR    O0J13815  13.224  12.719   6.553
    1STR    C0K13816  13.286  12.745   6.678
    1STR    C0M13817  13.259  12.890   6.721
    1STR    C0N13818  13.227  12.642   6.777
    1STR    O0O13819  13.299  12.645   6.900
    1STR    C0P13820  13.251  12.711   7.005
    1STR    O0Q13821  13.143  12.769   7.011
    1STR    N0R13822  13.343  12.709   7.102
    1STR    C0S13823  13.342  12.772   7.226
    1STR    C0T13824  13.466  12.807   7.283
    1STR    C0U13825  13.472  12.877   7.404
    1STR    C0V13826  13.354  12.912   7.472
    1STR    C0W13827  13.367  12.997   7.598
    1STR    C0X13828  13.228  12.871   7.421
    1STR    N0Y13829  13.110  12.900   7.489
    1STR   BCK213830  13.074  12.858   7.610
    1STR    O1013831  12.980  12.911   7.669
    1STR    C1313832  13.223  12.803   7.297
    1STR    C1413833  13.403  12.861   5.458
    1STR    C1513834  13.435  12.856   5.321
    1STR    C1613835  13.335  12.869   5.223
    1STR    C1713836  13.375  12.853   5.077
    1STR    H1B13837  13.027  12.831   5.169
    1STR    H1C13838  13.066  12.911   5.429
    1STR    H1D13839  13.135  12.866   5.657
    1STR    H1E13840  13.395  12.831   5.974
    1STR    H1F13841  13.222  13.078   6.036
    1STR    H1G13842  13.366  13.028   6.125
    1STR    H1H13843  13.380  13.080   5.958
    1STR    H1I13844  13.198  12.698   6.043
    1STR    H1J13845  13.115  12.844   6.096
    1STR    H1K13846  13.117  12.754   6.317
    1STR    H1M13847  13.342  12.546   6.281
    1STR    H1N13848  13.183  12.538   6.205
    1STR    H1O13849  13.198  12.521   6.379
    1STR    H1P13850  13.396  12.744   6.438
    1STR    H1Q13851  13.289  12.883   6.443
    1STR    H1R13852  13.393  12.727   6.671
    1STR    H1S13853  13.302  12.911   6.819
    1STR    H1T13854  13.152  12.910   6.728
    1STR    H1U13855  13.302  12.962   6.653
    1STR    H1V13856  13.236  12.542   6.736
    1STR    H1W13857  13.120  12.658   6.792
    1STR    H1X13858  13.425  12.659   7.074
    1STR    H1Y13859  13.558  12.783   7.232
    1STR    H1Z13860  13.568  12.906   7.444
    1STR    H2013861  13.272  13.042   7.628
    1STR    H2113862  13.404  12.937   7.680
    1STR    H2213863  13.437  13.079   7.581
    1STR    H2313864  13.041  12.956   7.442
    1STR    H2713865  13.127  12.774   7.257
    1STR    H2813866  13.483  12.847   5.528
    1STR    H2913867  13.538  12.839   5.292
    1STR    H2A13868  13.299  12.799   5.022
    1STR    H2B13869  13.469  12.798   5.067
    1STR    H2C13870  13.388  12.951   5.031
    1STR   BCK113871  13.025  13.039   9.411
    1STR    O0313872  12.939  12.958   9.378
    1STR    N0413873  13.018  13.118   9.520
    1STR    C0513874  12.911  13.137   9.607
    1STR    C0613875  12.931  13.126   9.747
    1STR    C0713876  12.827  13.153   9.840
    1STR    N0813877  12.853  13.144   9.978
    1STR    C0913878  12.785  13.195  10.081
    1STR    O0A13879  12.682  13.263  10.072
    1STR    O0B13880  12.843  13.161  10.199
    1STR    C0C13881  12.785  13.205  10.323
    1STR    C0D13882  12.665  13.115  10.358
    1STR    C0E13883  12.891  13.204  10.435
    1STR    O0F13884  12.831  13.251  10.556
    1STR    C0G13885  12.918  13.259  10.669
    1STR    C0H13886  13.009  13.382  10.657
    1STR    C0I13887  12.831  13.266  10.796
    1STR    O0J13888  12.914  13.261  10.912
    1STR    C0K13889  12.847  13.276  11.038
    1STR    C0M13890  12.771  13.148  11.074
    1STR    C0N13891  12.956  13.309  11.143
    1STR    O0O13892  12.898  13.342  11.269
    1STR    C0P13893  12.909  13.258  11.373
    1STR    O0Q13894  12.961  13.147  11.370
    1STR    N0R13895  12.855  13.315  11.482
    1STR    C0S13896  12.843  13.270  11.613
    1STR    C0T13897  12.762  13.346  11.701
    1STR    C0U13898  12.743  13.306  11.834
    1STR    C0V13899  12.804  13.189  11.884
    1STR    C0W13900  12.775  13.145  12.027
    1STR    C0X13901  12.889  13.114  11.799
    1STR    N0Y13902  12.948  12.996  11.843
    1STR   BCK213903  13.036  12.981  11.942
    1STR    O1013904  13.089  13.073  12.004
    1STR    C1313905  12.906  13.154  11.665
    1STR    C1413906  12.700  13.188   9.788
    1STR    C1513907  12.679  13.201   9.650
    1STR    C1613908  12.784  13.178   9.559
    1STR    C1713909  12.758  13.204   9.412
    1STR    H1B13910  13.104  13.168   9.538
    1STR    H1C13911  13.029  13.097   9.783
    1STR    H1D13912  12.936  13.096  10.007
    1STR    H1E13913  12.751  13.308  10.311
    1STR    H1F13914  12.696  13.011  10.370
    1STR    H1G13915  12.619  13.147  10.452
    1STR    H1H13916  12.589  13.118  10.281
    1STR    H1I13917  12.975  13.267  10.405
    1STR    H1J13918  12.931  13.103  10.449
    1STR    H1K13919  12.979  13.168  10.675
    1STR    H1M13920  12.951  13.474  10.644
    1STR    H1N13921  13.079  13.375  10.574
    1STR    H1O13922  13.070  13.394  10.747
    1STR    H1P13923  12.772  13.358  10.795
    1STR    H1Q13924  12.762  13.182  10.796
    1STR    H1R13925  12.778  13.361  11.033
    1STR    H1S13926  12.726  13.155  11.173
    1STR    H1T13927  12.839  13.062  11.076
    1STR    H1U13928  12.691  13.126  11.004
    1STR    H1V13929  13.013  13.395  11.109
    1STR    H1W13930  13.028  13.227  11.150
    1STR    H1X13931  12.819  13.406  11.459
    1STR    H1Y13932  12.712  13.435  11.667
    1STR    H1Z13933  12.679  13.364  11.899
    1STR    H2013934  12.766  13.036  12.032
    1STR    H2113935  12.856  13.175  12.093
    1STR    H2213936  12.682  13.188  12.064
    1STR    H2313937  12.925  12.911  11.794
    1STR    H2713938  12.970  13.094  11.601
    1STR    H2813939  12.617  13.206   9.854
    1STR    H2913940  12.582  13.230   9.614
    1STR    H2A13941  12.846  13.247   9.363
    1STR    H2B13942  12.676  13.275   9.398
    1STR    H2C13943  12.732  13.112   9.361
    1STR   BCK113944  13.058  12.883  13.784
    1STR    O0313945  13.154  12.812  13.758
    1STR    N0413946  12.973  12.863  13.885
    1STR    C0513947  12.967  12.753  13.971
    1STR    C0613948  12.964  12.776  14.111
    1STR    C0713949  12.952  12.669  14.204
    1STR    N0813950  12.944  12.696  14.341
    1STR    C0913951  12.955  12.614  14.446
    1STR    O0A13952  12.984  12.495  14.440
    1STR    O0B13953  12.932  12.680  14.561
    1STR    C0C13954  12.938  12.610  14.686
    1STR    C0D13955  13.084  12.595  14.730
    1STR    C0E13956  12.854  12.684  14.792
    1STR    O0F13957  12.858  12.608  14.913
    1STR    C0G13958  12.787  12.664  15.023
    1STR    C0H13959  12.637  12.635  15.009
    1STR    C0I13960  12.845  12.600  15.151
    1STR    O0J13961  12.790  12.663  15.267
    1STR    C0K13962  12.832  12.607  15.391
    1STR    C0M13963  12.977  12.647  15.423
    1STR    C0N13964  12.736  12.659  15.500
    1STR    O0O13965  12.759  12.587  15.621
    1STR    C0P13966  12.807  12.647  15.730
    1STR    O0Q13967  12.839  12.765  15.739
    1STR    N0R13968  12.815  12.557  15.828
    1STR    C0S13969  12.851  12.567  15.963
    1STR    C0T13970  12.848  12.448  16.037
    1STR    C0U13971  12.873  12.449  16.176
    1STR    C0V13972  12.902  12.569  16.243
    1STR    C0W13973  12.911  12.564  16.394
    1STR    C0X13974  12.914  12.689  16.169
    1STR    N0Y13975  12.940  12.812  16.231
    1STR   BCK213976  13.039  12.850  16.313
    1STR    O1013977  13.034  12.960  16.366
    1STR    C1313978  12.886  12.687  16.029
    1STR    C1413979  12.943  12.537  14.152
    1STR    C1513980  12.945  12.514  14.013
    1STR    C1613981  12.955  12.621  13.922
    1STR    C1713982  12.947  12.589  13.774
    1STR    H1B13983  12.906  12.937  13.900
    1STR    H1C13984  12.971  12.877  14.148
    1STR    H1D13985  12.928  12.791  14.369
    1STR    H1E13986  12.894  12.511  14.673
    1STR    H1F13987  13.132  12.692  14.744
    1STR    H1G13988  13.091  12.540  14.824
    1STR    H1H13989  13.142  12.539  14.656
    1STR    H1I13990  12.752  12.695  14.757
    1STR    H1J13991  12.894  12.785  14.808
    1STR    H1K13992  12.805  12.772  15.029
    1STR    H1M13993  12.619  12.529  14.998
    1STR    H1N13994  12.594  12.686  14.923
    1STR    H1O13995  12.583  12.670  15.097
    1STR    H1P13996  12.825  12.493  15.151
    1STR    H1Q13997  12.954  12.613  15.149
    1STR    H1R13998  12.823  12.499  15.388
    1STR    H1S13999  13.007  12.612  15.521
    1STR    H1T14000  12.988  12.756  15.423
    1STR    H1U14001  13.048  12.606  15.352
    1STR    H1V14002  12.633  12.641  15.470
    1STR    H1W14003  12.746  12.767  15.513
    1STR    H1X14004  12.784  12.468  15.795
    1STR    H1Y14005  12.823  12.354  15.991
    1STR    H1Z14006  12.866  12.357  16.231
    1STR    H2014007  13.011  12.536  16.426
    1STR    H2114008  12.886  12.660  16.439
    1STR    H2214009  12.842  12.491  16.436
    1STR    H2314010  12.877  12.888  16.211
    1STR    H2714011  12.891  12.780  15.974
    1STR    H2814012  12.932  12.451  14.216
    1STR    H2914013  12.936  12.413  13.977
    1STR    H2A14014  12.892  12.667  13.721
    1STR    H2B14015  12.895  12.495  13.756
    1STR    H2C14016  13.047  12.581  13.732
    1HEX    C0114017   0.199  17.192  16.540
    1HEX    C0214018   0.118  17.287  16.631
    1HEX    C0314019  17.428  17.226  16.683
    1HEX    O0414020  17.406  17.104  16.675
    1HEX    O0514021  17.347  17.317  16.738
    1HEX    C0614022  17.213  17.282  16.769
    1HEX    C0714023  17.185  17.254  16.919
    1HEX    C0814024  17.140  17.385  16.995
    1HEX    O0914025  17.127   0.074  16.932
    1HEX    C0A14026  17.111   0.182  17.017
    1HEX    O0B14027  17.102   0.172  17.139
    1HEX    C0C14028  17.106   0.322  16.951
    1HEX    C0D14029  17.168   0.434  17.041
    1HEX    C0F14030  17.069  17.146  16.919
    1HEX    O0G14031  17.128  17.018  16.892
    1HEX    C0H14032  17.061  16.915  16.838
    1HEX    O0I14033  16.943  16.917  16.804
    1HEX    C0J14034  17.149  16.791  16.820
    1HEX    C0K14035  17.132  16.686  16.932
    1HEX    C0N14036  17.304  17.181  16.992
    1HEX    O0O14037  17.420  17.252  17.037
    1HEX    C0P14038  17.433  17.315  17.165
    1HEX    C0Q14039  17.374  17.255  17.298
    1HEX    C0R14040  17.425  17.109  17.319
    1HEX    O0S14041   0.125  17.092  17.287
    1HEX    C0T14042   0.222  17.093  17.382
    1HEX    O0U14043   0.204  17.114   0.061
    1HEX    C0V14044   0.362  17.059  17.328
    1HEX    C0W14045   0.459  17.180  17.317
    1HEX    C0Y14046  17.431  17.343  17.412
    1HEX    O0Z14047  17.390  17.302   0.102
    1HEX    C1014048   0.008  17.363   0.207
    1HEX    O1114049   0.094   0.011   0.199
    1HEX    C1214050  17.394  17.314   0.342
    1HEX    C1314051   0.045  17.352   0.461
    1HEX    C1514052  17.218  17.273  17.296
    1HEX    O1614053  17.129  17.221  17.396
    1HEX    C1714054  17.022  17.149  17.353
    1HEX    O1814055  17.028  17.062  17.266
    1HEX    C1914056  16.885  17.190  17.412
    1HEX    C1A14057  16.785  17.227  17.298
    1HEX    H1D14058   0.305  17.214  16.551
    1HEX    H1E14059   0.187  17.089  16.573
    1HEX    H1F14060   0.095  17.381  16.581
    1HEX    H1G14061   0.175  17.312  16.720
    1HEX    H1H14062  17.183  17.197  16.707
    1HEX    H1I14063  17.148  17.363  16.733
    1HEX    H1J14064  17.216  17.405  17.068
    1HEX    H1K14065  17.049  17.367  17.053
    1HEX    H1M14066  17.001   0.344  16.933
    1HEX    H1N14067  17.155   0.319  16.854
    1HEX    H1O14068  17.277   0.431  17.034
    1HEX    H1P14069  17.146   0.416  17.146
    1HEX    H1R14070  16.991  17.170  16.847
    1HEX    H1S14071  17.019  17.140  17.016
    1HEX    H1T14072  17.252  16.825  16.814
    1HEX    H1U14073  17.125  16.747  16.723
    1HEX    H1V14074  17.032  16.642  16.928
    1HEX    H1W14075  17.138  16.735  17.030
    1HEX    H1Y14076  17.346  17.110  16.920
    1HEX    H1Z14077  17.271  17.112  17.070
    1HEX    H2014078  17.405  17.420  17.156
    1HEX    H2114079   0.101  17.321  17.178
    1HEX    H2214080  17.369  17.040  17.256
    1HEX    H2314081  17.405  17.076  17.421
    1HEX    H2414082   0.353  17.007  17.233
    1HEX    H2514083   0.403  16.986  17.398
    1HEX    H2614084   0.414  17.267  17.366
    1HEX    H2714085   0.474  17.208  17.213
    1HEX    H2914086  17.402   0.008  17.399
    1HEX    H2A14087   0.100  17.342  17.409
    1HEX    H2B14088  17.378  17.207   0.338
    1HEX    H2C14089  17.296  17.360   0.352
    1HEX    H2D14090   0.102   0.002   0.440
    1HEX    H2E14091   0.118  17.274   0.481
    1HEX    H2G14092  17.180  17.238  17.202
    1HEX    H2H14093  17.197  17.380  17.294
    1HEX    H2I14094  16.898  17.273   0.041
    1HEX    H2J14095  16.847  17.105   0.029
    1HEX    H2K14096  16.787  17.150  17.220
    1HEX    H2M14097  16.816  17.319  17.249
    1STR    S0014098   0.163  17.198  16.360
    1STR    S0E14099  17.112   0.608  17.010
    1STR    S0M14100  17.257  16.551  16.926
    1STR    S0X14101   0.622  17.151  17.398
    1STR    S1414102  17.386  17.389   0.610
    1STR    S1B14103  16.609  17.247  17.349
    1HEX    C0114104   0.133  17.173   3.390
    1HEX    C0214105   0.109  17.233   3.529
    1HEX    C0314106  17.407  17.209   3.579
    1HEX    O0414107  17.357  17.097   3.574
    1HEX    O0514108  17.352  17.320   3.633
    1HEX    C0614109  17.214  17.319   3.667
    1HEX    C0714110  17.188  17.302   3.820
    1HEX    C0814111  17.209  17.438   3.895
    1HEX    O0914112  17.145   0.126   3.876
    1HEX    C0A14113  17.176   0.222   3.974
    1HEX    O0B14114  17.227   0.193   4.082
    1HEX    C0C14115  17.147   0.371   3.941
    1HEX    C0D14116  17.235   0.469   4.028
    1HEX    C0F14117  17.044  17.241   3.834
    1HEX    O0G14118  17.050  17.098   3.813
    1HEX    C0H14119  16.990  17.037   3.709
    1HEX    O0I14120  16.908  17.089   3.635
    1HEX    C0J14121  17.034  16.890   3.689
    1HEX    C0K14122  17.023  16.803   3.817
    1HEX    C0N14123  17.286  17.195   3.885
    1HEX    O0O14124  17.416  17.235   3.931
    1HEX    C0P14125   0.001  17.307   4.055
    1HEX    C0Q14126  17.398  17.249   4.193
    1HEX    C0R14127   0.019  17.106   4.207
    1HEX    O0S14128   0.158  17.100   4.169
    1HEX    C0T14129   0.261  17.108   4.258
    1HEX    O0U14130   0.250  17.123   4.379
    1HEX    C0V14131   0.400  17.088   4.193
    1HEX    C0W14132   0.501  17.205   4.214
    1HEX    C0Y14133   0.018  17.340   4.302
    1HEX    O0Z14134  17.414  17.293   4.427
    1HEX    C1014135   0.010  17.357   4.537
    1HEX    O1114136   0.085   0.015   4.543
    1HEX    C1214137  17.384  17.296   4.660
    1HEX    C1314138  17.435  17.359   4.789
    1HEX    C1514139  17.241  17.261   4.207
    1HEX    O1614140  17.167  17.202   4.315
    1HEX    C1714141  17.049  17.142   4.285
    1HEX    O1814142  17.027  17.075   4.184
    1HEX    C1914143  16.935  17.167   4.385
    1HEX    C1A14144  16.814  17.239   4.317
    1HEX    H1D14145   0.240  17.159   3.374
    1HEX    H1E14146   0.087  17.074   3.381
    1HEX    H1F14147   0.130  17.340   3.530
    1HEX    H1G14148   0.174  17.187   3.603
    1HEX    H1H14149  17.162  17.243   3.608
    1HEX    H1I14150  17.171  17.413   3.633
    1HEX    H1J14151  17.314   0.023   3.876
    1HEX    H1K14152  17.197  17.414   3.999
    1HEX    H1M14153  17.041   0.388   3.959
    1HEX    H1N14154  17.164   0.388   3.835
    1HEX    H1O14155  17.338   0.466   3.993
    1HEX    H1P14156  17.239   0.434   4.131
    1HEX    H1R14157  16.973  17.290   3.767
    1HEX    H1S14158  17.005  17.258   3.935
    1HEX    H1T14159  17.136  16.890   3.651
    1HEX    H1U14160  16.971  16.849   3.610
    1HEX    H1V14161  16.935  16.834   3.874
    1HEX    H1W14162  17.108  16.821   3.882
    1HEX    H1Y14163  17.305  17.121   3.808
    1HEX    H1Z14164  17.238  17.130   3.957
    1HEX    H2014165  17.412  17.412   4.049
    1HEX    H2114166   0.110  17.315   4.055
    1HEX    H2214167  17.405  17.037   4.143
    1HEX    H2314168   0.005  17.068   4.309
    1HEX    H2414169   0.386  17.068   4.087
    1HEX    H2514170   0.441  16.998   4.237
    1HEX    H2614171   0.511  17.230   4.320
    1HEX    H2714172   0.465  17.296   4.164
    1HEX    H2914173  17.427   0.004   4.289
    1HEX    H2A14174   0.127  17.341   4.299
    1HEX    H2B14175  17.406  17.189   4.657
    1HEX    H2C14176  17.277  17.308   4.650
    1HEX    H2D14177  17.402   0.023   4.797
    1HEX    H2E14178   0.105  17.363   4.790
    1HEX    H2G14179  17.191  17.235   4.116
    1HEX    H2H14180  17.218  17.368   4.216
    1HEX    H2I14181  16.972  17.224   4.470
    1HEX    H2J14182  16.904  17.070   4.422
    1HEX    H2K14183  16.807  17.213   4.212
    1HEX    H2M14184  16.828  17.347   4.320
    1STR    S0014185   0.071  17.277   3.254
    1STR    S0E14186  17.181   0.646   4.040
    1STR    S0M14187  17.005  16.622   3.783
    1STR    S0X14188   0.666  17.162   4.145
    1STR    S1414189  17.381  17.262   4.932
    1STR    S1B14190  16.652  17.199   4.394
    1HEX    C0114191   0.098  17.045   7.793
    1HEX    C0214192   0.091  17.120   7.927
    1HEX    C0314193  17.390  17.121   7.984
    1HEX    O0414194  17.323  17.018   7.989
    1HEX    O0514195  17.352  17.243   8.029
    1HEX    C0614196  17.217  17.263   8.067
    1HEX    C0714197  17.188  17.257   8.220
    1HEX    C0814198  17.197  17.401   8.281
    1HEX    O0914199  17.134   0.081   8.232
    1HEX    C0A14200  17.159   0.196   8.307
    1HEX    O0B14201  17.205   0.196   8.421
    1HEX    C0C14202  17.126   0.330   8.238
    1HEX    C0D14203  17.092   0.450   8.333
    1HEX    C0F14204  17.051  17.183   8.235
    1HEX    O0G14205  17.076  17.043   8.209
    1HEX    C0H14206  16.984  16.946   8.223
    1HEX    O0I14207  16.864  16.964   8.242
    1HEX    C0J14208  17.043  16.805   8.210
    1HEX    C0K14209  17.047  16.725   8.344
    1HEX    C0N14210  17.290  17.164   8.298
    1HEX    O0O14211  17.415  17.218   8.345
    1HEX    C0P14212  17.427  17.291   8.468
    1HEX    C0Q14213  17.377  17.232   8.604
    1HEX    C0R14214  17.435  17.088   8.621
    1HEX    O0S14215   0.133  17.073   8.581
    1HEX    C0T14216   0.236  17.077   8.669
    1HEX    O0U14217   0.227  17.107   8.788
    1HEX    C0V14218   0.372  17.033   8.610
    1HEX    C0W14219   0.476  17.147   8.591
    1HEX    C0Y14220  17.437  17.324   8.713
    1HEX    O0Z14221  17.392  17.291   8.843
    1HEX    C1014222  17.432  17.369   8.945
    1HEX    O1114223   0.065   0.028   8.936
    1HEX    C1214224  17.378  17.322   9.080
    1HEX    C1314225   0.049  17.308   9.186
    1HEX    C1514226  17.220  17.245   8.612
    1HEX    O1614227  17.139  17.165   8.700
    1HEX    C1714228  17.031  17.097   8.647
    1HEX    O1814229  17.029  17.048   8.535
    1HEX    C1914230  16.908  17.088   8.739
    1HEX    C1A14231  16.786  17.173   8.692
    1HEX    H1D14232   0.167  16.961   7.800
    1HEX    H1E14233   0.001  17.003   7.764
    1HEX    H1F14234   0.125  17.223   7.917
    1HEX    H1G14235   0.156  17.073   8.001
    1HEX    H1H14236  17.154  17.192   8.012
    1HEX    H1I14237  17.185  17.360   8.027
    1HEX    H1J14238  17.303  17.428   8.272
    1HEX    H1K14239  17.173  17.397   8.387
    1HEX    H1M14240  17.041   0.311   8.173
    1HEX    H1N14241  17.209   0.357   8.172
    1HEX    H1O14242  17.050   0.411   8.426
    1HEX    H1P14243  17.012   0.511   8.289
    1HEX    H1R14244  16.975  17.221   8.166
    1HEX    H1S14245  17.008  17.194   8.335
    1HEX    H1T14246  17.144  16.813   8.168
    1HEX    H1U14247  16.984  16.751   8.136
    1HEX    H1V14248  16.948  16.722   8.389
    1HEX    H1W14249  17.110  16.778   8.416
    1HEX    H1Y14250  17.319  17.083   8.231
    1HEX    H1Z14251  17.244  17.106   8.377
    1HEX    H2014252  17.391  17.393   8.458
    1HEX    H2114253   0.095  17.306   8.476
    1HEX    H2214254  17.377  17.019   8.559
    1HEX    H2314255  17.421  17.054   8.724
    1HEX    H2414256   0.355  16.981   8.516
    1HEX    H2514257   0.411  16.959   8.679
    1HEX    H2614258   0.447  17.235   8.648
    1HEX    H2714259   0.479  17.177   8.487
    1HEX    H2914260  17.411  17.429   8.693
    1HEX    H2A14261   0.106  17.321   8.712
    1HEX    H2B14262  17.327  17.227   9.065
    1HEX    H2C14263  17.302  17.394   9.111
    1HEX    H2D14264   0.147  17.326   9.141
    1HEX    H2E14265   0.052  17.206   9.226
    1HEX    H2G14266  17.176  17.237   8.514
    1HEX    H2H14267  17.197  17.348   8.638
    1HEX    H2I14268  16.941  17.122   8.837
    1HEX    H2J14269  16.880  16.984   8.750
    1HEX    H2K14270  16.817  17.253   8.625
    1HEX    H2M14271  16.744  17.224   8.779
    1STR    S0014272   0.153  17.154   7.659
    1STR    S0E14273  17.230   0.564   8.380
    1STR    S0M14274  17.110  16.553   8.323
    1STR    S0X14275   0.647  17.101   8.644
    1STR    S1414276   0.027  17.425   9.324
    1STR    S1B14277  16.647  17.083   8.611
    1HEX    C0114278   0.125  17.226  12.110
    1HEX    C0214279   0.093  17.183  12.256
    1HEX    C0314280  17.386  17.176  12.293
    1HEX    O0414281  17.323  17.072  12.276
    1HEX    O0514282  17.341  17.288  12.351
    1HEX    C0614283  17.205  17.296  12.390
    1HEX    C0714284  17.180  17.273  12.542
    1HEX    C0814285  17.180  17.411  12.615
    1HEX    O0914286  17.115   0.093  12.577
    1HEX    C0A14287  17.139   0.200  12.663
    1HEX    O0B14288  17.196   0.188  12.772
    1HEX    C0C14289  17.095   0.340  12.617
    1HEX    C0D14290  17.134   0.451  12.722
    1HEX    C0F14291  17.046  17.191  12.553
    1HEX    O0G14292  17.078  17.056  12.513
    1HEX    C0H14293  16.991  16.972  12.454
    1HEX    O0I14294  16.874  16.998  12.430
    1HEX    C0J14295  17.056  16.840  12.411
    1HEX    C0K14296  17.056  16.730  12.522
    1HEX    C0N14297  17.288  17.180  12.612
    1HEX    O0O14298  17.413  17.233  12.660
    1HEX    C0P14299  17.431  17.304  12.785
    1HEX    C0Q14300  17.380  17.250  12.923
    1HEX    C0R14301  17.433  17.105  12.946
    1HEX    O0S14302   0.131  17.086  12.909
    1HEX    C0T14303   0.233  17.093  13.000
    1HEX    O0U14304   0.222  17.131  13.116
    1HEX    C0V14305   0.368  17.043  12.947
    1HEX    C0W14306   0.479  17.150  12.932
    1HEX    C0Y14307   0.001  17.344  13.030
    1HEX    O0Z14308  17.397  17.311  13.160
    1HEX    C1014309   0.003  17.382  13.264
    1HEX    O1114310   0.085   0.033  13.256
    1HEX    C1214311  17.378  17.342  13.395
    1HEX    C1314312   0.029  17.365  13.517
    1HEX    C1514313  17.224  17.269  12.928
    1HEX    O1614314  17.139  17.233  13.037
    1HEX    C1714315  17.015  17.182  13.006
    1HEX    O1814316  16.996  17.100  12.916
    1HEX    C1914317  16.896  17.243  13.083
    1HEX    C1A14318  16.762  17.226  13.004
    1HEX    H1D14319   0.219  17.180  12.082
    1HEX    H1E14320   0.140  17.334  12.104
    1HEX    H1F14321   0.142  17.251  12.326
    1HEX    H1G14322   0.135  17.085  12.276
    1HEX    H1H14323  17.146  17.226  12.330
    1HEX    H1I14324  17.166  17.393  12.360
    1HEX    H1J14325  17.284   0.001  12.613
    1HEX    H1K14326  17.149  17.393  12.717
    1HEX    H1M14327  16.987   0.339  12.601
    1HEX    H1N14328  17.142   0.359  12.521
    1HEX    H1O14329  17.240   0.445  12.745
    1HEX    H1P14330  17.084   0.431  12.817
    1HEX    H1R14331  16.967  17.233  12.490
    1HEX    H1S14332  17.007  17.189  12.654
    1HEX    H1T14333  17.158  16.861  12.380
    1HEX    H1U14334  17.004  16.803  12.323
    1HEX    H1V14335  16.954  16.702  12.547
    1HEX    H1W14336  17.100  16.769  12.613
    1HEX    H1Y14337  17.318  17.106  12.538
    1HEX    H1Z14338  17.246  17.113  12.687
    1HEX    H2014339  17.403  17.408  12.775
    1HEX    H2114340   0.100  17.310  12.792
    1HEX    H2214341  17.374  17.036  12.887
    1HEX    H2314342  17.417  17.075  13.050
    1HEX    H2414343   0.353  16.988  12.853
    1HEX    H2514344   0.401  16.969  13.020
    1HEX    H2614345   0.471  17.226  13.010
    1HEX    H2714346   0.469  17.203  12.837
    1HEX    H2914347  17.414   0.008  13.011
    1HEX    H2A14348   0.110  17.342  13.028
    1HEX    H2B14349  17.349  17.237  13.390
    1HEX    H2C14350  17.287  17.401  13.404
    1HEX    H2D14351   0.079   0.022  13.514
    1HEX    H2E14352   0.107  17.290  13.520
    1HEX    H2G14353  17.182  17.224  12.840
    1HEX    H2H14354  17.206  17.376  12.919
    1HEX    H2I14355  16.918  17.348  13.099
    1HEX    H2J14356  16.889  17.196  13.181
    1HEX    H2K14357  16.721  17.127  13.021
    1HEX    H2M14358  16.781  17.231  12.896
    1STR    S0014359   0.006  17.178  11.981
    1STR    S0E14360  17.094   0.624  12.673
    1STR    S0M14361  17.150  16.580  12.472
    1STR    S0X14362   0.647  17.074  12.941
    1STR    S1414363  17.365  17.357  13.666
    1STR    S1B14364  16.630  17.351  13.034
    1HEX    C0114365   0.126   4.093  16.470
    1HEX    C0214366   0.092   4.140  16.613
    1HEX    C0314367  17.389   4.117  16.660
    1HEX    O0414368  17.334   4.007  16.650
    1HEX    O0514369  17.336   4.228  16.716
    1HEX    C0614370  17.198   4.231  16.752
    1HEX    C0714371  17.172   4.215  16.905
    1HEX    C0814372  17.199   4.351  16.979
    1HEX    O0914373  17.145   4.482  16.948
    1HEX    C0A14374  17.180   4.583  17.037
    1HEX    O0B14375  17.230   4.560  17.148
    1HEX    C0C14376  17.157   4.729  16.994
    1HEX    C0D14377  17.255   4.830  17.066
    1HEX    C0F14378  17.026   4.161  16.921
    1HEX    O0G14379  17.025   4.017  16.905
    1HEX    C0H14380  16.973   3.954  16.797
    1HEX    O0I14381  16.903   4.009  16.712
    1HEX    C0J14382  17.010   3.805  16.787
    1HEX    C0K14383  16.988   3.724  16.917
    1HEX    C0N14384  17.265   4.105  16.970
    1HEX    O0O14385  17.396   4.136  17.021
    1HEX    C0P14386  17.419   4.202  17.148
    1HEX    C0Q14387  17.385   4.133  17.284
    1HEX    C0R14388   0.035   4.007  17.303
    1HEX    O0S14389   0.173   4.028  17.269
    1HEX    C0T14390   0.271   4.032  17.362
    1HEX    O0U14391   0.254   4.040   0.044
    1HEX    C0V14392   0.411   4.020  17.302
    1HEX    C0W14393   0.509   4.131  17.347
    1HEX    C0Y14394  17.418   4.237  17.393
    1HEX    O0Z14395  17.402   4.188   0.085
    1HEX    C1014396  17.437   4.269   0.187
    1HEX    O1114397   0.042   4.383   0.175
    1HEX    C1214398  17.417   4.206   0.324
    1HEX    C1314399   0.093   4.245   0.417
    1HEX    C1514400  17.233   4.096  17.288
    1HEX    O1614401  17.156   4.106  17.409
    1HEX    C1714402  17.023   4.075  17.400
    1HEX    O1814403  16.971   4.023  17.301
    1HEX    C1914404  16.939   4.115   0.081
    1HEX    C1A14405  16.810   4.192   0.040
    1HEX    H1D14406   0.161   3.990  16.474
    1HEX    H1E14407   0.208   4.153  16.431
    1HEX    H1F14408   0.111   4.247  16.621
    1HEX    H1G14409   0.158   4.092  16.685
    1HEX    H1H14410  17.144   4.155  16.695
    1HEX    H1I14411  17.157   4.325  16.717
    1HEX    H1J14412  17.306   4.369  16.967
    1HEX    H1K14413  17.177   4.333  17.084
    1HEX    H1M14414  17.053   4.754  17.017
    1HEX    H1N14415  17.169   4.737  16.886
    1HEX    H1O14416  17.353   4.825  17.019
    1HEX    H1P14417  17.271   4.799  17.169
    1HEX    H1R14418  16.957   4.210  16.852
    1HEX    H1S14419  16.988   4.182  17.021
    1HEX    H1T14420  17.114   3.797  16.754
    1HEX    H1U14421  16.950   3.763  16.706
    1HEX    H1V14422  16.899   3.761  16.967
    1HEX    H1W14423  17.070   3.740  16.987
    1HEX    H1Y14424  17.282   4.028  16.894
    1HEX    H1Z14425  17.211   4.047  17.044
    1HEX    H2014426  17.380   4.303  17.150
    1HEX    H2114427   0.086   4.221  17.146
    1HEX    H2214428   0.001   3.928  17.237
    1HEX    H2314429   0.025   3.968  17.405
    1HEX    H2414430   0.403   4.018  17.193
    1HEX    H2514431   0.451   3.922  17.331
    1HEX    H2614432   0.521   4.128   0.016
    1HEX    H2714433   0.469   4.229  17.323
    1HEX    H2914434  17.357   4.327  17.382
    1HEX    H2A14435   0.082   4.270  17.382
    1HEX    H2B14436  17.411   4.098   0.312
    1HEX    H2C14437  17.322   4.240   0.364
    1HEX    H2D14438   0.096   4.353   0.429
    1HEX    H2E14439   0.188   4.216   0.371
    1HEX    H2G14440  17.219   3.995  17.250
    1HEX    H2H14441  17.180   4.163  17.221
    1HEX    H2I14442  17.000   4.175   0.147
    1HEX    H2J14443  16.914   4.024   0.136
    1HEX    H2K14444  16.811   4.212  17.373
    1HEX    H2M14445  16.806   4.290   0.088
    1STR    S0014446  17.432   4.099  16.346
    1STR    S0E14447  17.202   5.007  17.079
    1STR    S0M14448  16.963   3.542  16.892
    1STR    S0X14449   0.673   4.113  17.267
    1STR    S1414450   0.081   4.169   0.583
    1STR    S1B14451  16.653   4.105   0.078
    1HEX    C0114452   0.127   4.072   3.408
    1HEX    C0214453   0.113   4.098   3.559
    1HEX    C0314454  17.414   4.064   3.611
    1HEX    O0414455  17.374   3.948   3.610
    1HEX    O0514456  17.347   4.170   3.661
    1HEX    C0614457  17.213   4.153   3.705
    1HEX    C0714458  17.197   4.156   3.860
    1HEX    C0814459  17.210   4.304   3.910
    1HEX    O0914460  17.137   4.417   3.861
    1HEX    C0A14461  17.127   4.525   3.947
    1HEX    O0B14462  17.109   4.515   4.068
    1HEX    C0C14463  17.147   4.663   3.882
    1HEX    C0D14464  17.152   4.782   3.984
    1HEX    C0F14465  17.060   4.087   3.892
    1HEX    O0G14466  17.081   3.944   3.903
    1HEX    C0H14467  17.018   3.853   3.826
    1HEX    O0I14468  16.925   3.879   3.750
    1HEX    C0J14469  17.078   3.712   3.833
    1HEX    C0K14470  17.080   3.643   3.973
    1HEX    C0N14471  17.308   4.070   3.933
    1HEX    O0O14472  17.428   4.132   3.982
    1HEX    C0P14473  17.434   4.207   4.105
    1HEX    C0Q14474  17.374   4.153   4.240
    1HEX    C0R14475  17.426   4.009   4.267
    1HEX    O0S14476   0.126   3.992   4.235
    1HEX    C0T14477   0.224   4.004   4.328
    1HEX    O0U14478   0.209   4.038   4.445
    1HEX    C0V14479   0.363   3.965   4.275
    1HEX    C0W14480   0.467   4.080   4.271
    1HEX    C0Y14481  17.427   4.249   4.350
    1HEX    O0Z14482  17.384   4.212   4.480
    1HEX    C1014483  17.426   4.286   4.584
    1HEX    O1114484   0.054   4.388   4.575
    1HEX    C1214485  17.379   4.232   4.718
    1HEX    C1314486   0.044   4.249   4.830
    1HEX    C1514487  17.217   4.169   4.237
    1HEX    O1614488  17.129   4.116   4.336
    1HEX    C1714489  17.028   4.034   4.294
    1HEX    O1814490  17.043   3.944   4.213
    1HEX    C1914491  16.887   4.070   4.346
    1HEX    C1A14492  16.791   4.103   4.228
    1HEX    H1D14493   0.226   4.033   3.385
    1HEX    H1E14494   0.057   3.994   3.375
    1HEX    H1F14495   0.138   4.201   3.585
    1HEX    H1G14496   0.181   4.034   3.614
    1HEX    H1H14497  17.170   4.062   3.664
    1HEX    H1I14498  17.153   4.233   3.661
    1HEX    H1J14499  17.314   4.333   3.891
    1HEX    H1K14500  17.197   4.302   4.017
    1HEX    H1M14501  17.070   4.680   3.807
    1HEX    H1N14502  17.242   4.657   3.829
    1HEX    H1O14503  17.195   4.751   4.080
    1HEX    H1P14504  17.051   4.814   4.008
    1HEX    H1R14505  16.984   4.111   3.817
    1HEX    H1S14506  17.018   4.121   3.986
    1HEX    H1T14507  17.179   3.717   3.793
    1HEX    H1U14508  17.021   3.650   3.764
    1HEX    H1V14509  16.981   3.645   4.019
    1HEX    H1W14510  17.146   3.697   4.041
    1HEX    H1Y14511  17.341   3.993   3.862
    1HEX    H1Z14512  17.270   4.007   4.013
    1HEX    H2014513  17.403   4.310   4.090
    1HEX    H2114514   0.102   4.218   4.120
    1HEX    H2214515  17.370   3.938   4.206
    1HEX    H2314516  17.406   3.980   4.370
    1HEX    H2414517   0.353   3.918   4.177
    1HEX    H2514518   0.398   3.887   4.342
    1HEX    H2614519   0.439   4.161   4.338
    1HEX    H2714520   0.469   4.123   4.171
    1HEX    H2914521  17.395   4.351   4.331
    1HEX    H2A14522   0.096   4.251   4.349
    1HEX    H2B14523  17.351   4.127   4.707
    1HEX    H2C14524  17.287   4.286   4.741
    1HEX    H2D14525   0.126   4.313   4.798
    1HEX    H2E14526   0.089   4.153   4.856
    1HEX    H2G14527  17.179   4.134   4.142
    1HEX    H2H14528  17.194   4.276   4.236
    1HEX    H2I14529  16.893   4.153   4.417
    1HEX    H2J14530  16.850   3.984   4.401
    1HEX    H2K14531  16.801   4.025   4.151
    1HEX    H2M14532  16.822   4.196   4.179
    1STR    S0014533   0.103   4.224   3.311
    1STR    S0E14534  17.250   4.926   3.925
    1STR    S0M14535  17.138   3.468   3.958
    1STR    S0X14536   0.636   4.022   4.316
    1STR    S1414537  17.410   4.325   4.979
    1STR    S1B14538  16.612   4.117   4.269
    1HEX    C0114539   0.096   4.068   7.737
    1HEX    C0214540   0.077   4.130   7.877
    1HEX    C0314541  17.376   4.114   7.931
    1HEX    O0414542  17.316   4.006   7.920
    1HEX    O0514543  17.331   4.224   7.993
    1HEX    C0614544  17.197   4.230   8.038
    1HEX    C0714545  17.180   4.210   8.191
    1HEX    C0814546  17.196   4.347   8.265
    1HEX    O0914547  17.127   4.473   8.244
    1HEX    C0A14548  17.155   4.571   8.340
    1HEX    O0B14549  17.207   4.546   8.449
    1HEX    C0C14550  17.121   4.718   8.306
    1HEX    C0D14551  17.193   4.821   8.402
    1HEX    C0F14552  17.043   4.136   8.211
    1HEX    O0G14553  17.064   3.996   8.179
    1HEX    C0H14554  16.982   3.924   8.100
    1HEX    O0I14555  16.874   3.961   8.056
    1HEX    C0J14556  17.042   3.788   8.060
    1HEX    C0K14557  17.040   3.678   8.170
    1HEX    C0N14558  17.288   4.110   8.253
    1HEX    O0O14559  17.415   4.158   8.299
    1HEX    C0P14560  17.436   4.228   8.424
    1HEX    C0Q14561  17.391   4.168   8.562
    1HEX    C0R14562   0.011   4.026   8.579
    1HEX    O0S14563   0.149   4.015   8.535
    1HEX    C0T14564   0.254   4.024   8.621
    1HEX    O0U14565   0.247   4.052   8.740
    1HEX    C0V14566   0.390   3.990   8.557
    1HEX    C0W14567   0.495   4.104   8.556
    1HEX    C0Y14568   0.011   4.262   8.670
    1HEX    O0Z14569  17.405   4.223   8.797
    1HEX    C1014570  17.434   4.299   8.902
    1HEX    O1114571   0.064   4.400   8.901
    1HEX    C1214572  17.366   4.250   9.028
    1HEX    C1314573  17.434   4.302   9.155
    1HEX    C1514574  17.234   4.180   8.575
    1HEX    O1614575  17.156   4.126   8.683
    1HEX    C1714576  17.036   4.067   8.651
    1HEX    O1814577  17.017   3.999   8.551
    1HEX    C1914578  16.918   4.101   8.744
    1HEX    C1A14579  16.795   4.148   8.661
    1HEX    H1D14580   0.199   4.034   7.726
    1HEX    H1E14581   0.033   3.979   7.725
    1HEX    H1F14582   0.104   4.236   7.877
    1HEX    H1G14583   0.142   4.081   7.949
    1HEX    H1H14584  17.136   4.158   7.982
    1HEX    H1I14585  17.156   4.327   8.008
    1HEX    H1J14586  17.299   4.377   8.246
    1HEX    H1K14587  17.184   4.326   8.369
    1HEX    H1M14588  17.013   4.730   8.312
    1HEX    H1N14589  17.149   4.738   8.203
    1HEX    H1O14590  17.300   4.822   8.382
    1HEX    H1P14591  17.184   4.787   8.506
    1HEX    H1R14592  16.964   4.180   8.150
    1HEX    H1S14593  17.008   4.142   8.314
    1HEX    H1T14594  17.145   3.806   8.027
    1HEX    H1U14595  16.988   3.752   7.972
    1HEX    H1V14596  16.939   3.659   8.204
    1HEX    H1W14597  17.096   3.712   8.258
    1HEX    H1Y14598  17.312   4.038   8.175
    1HEX    H1Z14599  17.247   4.042   8.327
    1HEX    H2014600  17.405   4.332   8.418
    1HEX    H2114601   0.105   4.237   8.427
    1HEX    H2214602  17.393   3.955   8.519
    1HEX    H2314603   0.000   3.992   8.682
    1HEX    H2414604   0.373   3.952   8.456
    1HEX    H2514605   0.429   3.906   8.615
    1HEX    H2614606   0.504   4.150   8.655
    1HEX    H2714607   0.465   4.183   8.487
    1HEX    H2914608  17.422   4.366   8.652
    1HEX    H2A14609   0.120   4.261   8.669
    1HEX    H2B14610  17.368   4.141   9.027
    1HEX    H2C14611  17.262   4.281   9.024
    1HEX    H2D14612  17.435   4.411   9.159
    1HEX    H2E14613   0.099   4.271   9.157
    1HEX    H2G14614  17.187   4.148   8.483
    1HEX    H2H14615  17.211   4.287   8.580
    1HEX    H2I14616  16.949   4.177   8.816
    1HEX    H2J14617  16.894   4.011   8.801
    1HEX    H2K14618  16.769   4.071   8.587
    1HEX    H2M14619  16.822   4.236   8.603
    1STR    S0014620   0.060   4.181   7.599
    1STR    S0E14621  17.131   4.996   8.402
    1STR    S0M14622  17.116   3.520   8.111
    1STR    S0X14623   0.660   4.040   8.505
    1STR    S1414624  17.349   4.235   9.300
    1STR    S1B14625  16.641   4.188   8.753
    1HEX    C0114626   0.118   4.087  12.214
    1HEX    C0214627   0.062   4.009  12.333
    1HEX    C0314628  17.354   4.035  12.354
    1HEX    O0414629  17.271   3.945  12.344
    1HEX    O0514630  17.330   4.162  12.393
    1HEX    C0614631  17.197   4.202  12.426
    1HEX    C0714632  17.167   4.201  12.579
    1HEX    C0814633  17.188   4.345  12.638
    1HEX    O0914634  17.133   4.469  12.588
    1HEX    C0A14635  17.158   4.582  12.666
    1HEX    O0B14636  17.184   4.578  12.786
    1HEX    C0C14637  17.155   4.717  12.593
    1HEX    C0D14638  17.111   4.842  12.678
    1HEX    C0F14639  17.023   4.141  12.596
    1HEX    O0G14640  17.038   3.997  12.597
    1HEX    C0H14641  16.947   3.908  12.554
    1HEX    O0I14642  16.836   3.935  12.509
    1HEX    C0J14643  17.000   3.764  12.567
    1HEX    C0K14644  16.891   3.654  12.579
    1HEX    C0N14645  17.263   4.103  12.658
    1HEX    O0O14646  17.394   4.148  12.696
    1HEX    C0P14647  17.418   4.222  12.817
    1HEX    C0Q14648  17.378   4.163  12.956
    1HEX    C0R14649  17.433   4.018  12.966
    1HEX    O0S14650   0.129   4.010  12.918
    1HEX    C0T14651   0.236   4.005  13.002
    1HEX    O0U14652   0.230   4.000  13.124
    1HEX    C0V14653   0.371   4.005  12.927
    1HEX    C0W14654   0.491   4.053  13.014
    1HEX    C0Y14655   0.009   4.251  13.061
    1HEX    O0Z14656  17.408   4.223  13.194
    1HEX    C1014657   0.018   4.300  13.292
    1HEX    O1114658   0.098   4.392  13.276
    1HEX    C1214659  17.404   4.265  13.430
    1HEX    C1314660   0.075   4.221  13.528
    1HEX    C1514661  17.222   4.180  12.978
    1HEX    O1614662  17.149   4.092  13.064
    1HEX    C1714663  17.026   4.046  13.023
    1HEX    O1814664  16.993   4.026  12.907
    1HEX    C1914665  16.925   4.027  13.136
    1HEX    C1A14666  16.790   4.100  13.109
    1HEX    H1D14667   0.227   4.089  12.219
    1HEX    H1E14668   0.084   4.191  12.216
    1HEX    H1F14669   0.112   4.039  12.425
    1HEX    H1G14670   0.079   3.902  12.321
    1HEX    H1H14671  17.127   4.139  12.371
    1HEX    H1I14672  17.181   4.301  12.384
    1HEX    H1J14673  17.294   4.365  12.627
    1HEX    H1K14674  17.166   4.342  12.744
    1HEX    H1M14675  17.086   4.706  12.509
    1HEX    H1N14676  17.253   4.735  12.548
    1HEX    H1O14677  17.045   4.808  12.757
    1HEX    H1P14678  17.053   4.910  12.617
    1HEX    H1R14679  16.954   4.173  12.518
    1HEX    H1S14680  16.979   4.171  12.691
    1HEX    H1T14681  17.066   3.761  12.654
    1HEX    H1U14682  17.065   3.744  12.482
    1HEX    H1V14683  16.882   3.600  12.484
    1HEX    H1W14684  16.794   3.701  12.596
    1HEX    H1Y14685  17.281   4.016  12.596
    1HEX    H1Z14686  17.216   4.054  12.743
    1HEX    H2014687  17.383   4.325  12.810
    1HEX    H2114688   0.087   4.234  12.816
    1HEX    H2214689  17.373   3.951  12.904
    1HEX    H2314690  17.425   3.980  13.068
    1HEX    H2414691   0.360   4.070  12.841
    1HEX    H2514692   0.391   3.905  12.889
    1HEX    H2614693   0.462   4.138  13.077
    1HEX    H2714694   0.521   3.974  13.083
    1HEX    H2914695  17.429   4.357  13.041
    1HEX    H2A14696   0.117   4.241  13.055
    1HEX    H2B14697  17.330   4.186  13.420
    1HEX    H2C14698  17.352   4.353  13.467
    1HEX    H2D14699   0.172   4.220  13.478
    1HEX    H2E14700   0.057   4.120  13.565
    1HEX    H2G14701  17.170   4.188  12.884
    1HEX    H2H14702  17.206   4.280  13.019
    1HEX    H2I14703  16.971   4.067  13.227
    1HEX    H2J14704  16.910   3.920  13.153
    1HEX    H2K14705  16.802   4.171  13.027
    1HEX    H2M14706  16.762   4.162  13.195
    1STR    S0014707   0.072   4.012  12.056
    1STR    S0E14708  17.243   4.943  12.760
    1STR    S0M14709  16.914   3.530  12.715
    1STR    S0X14710   0.637   4.105  12.915
    1STR    S1414711   0.090   4.334  13.671
    1STR    S1B14712  16.646   3.993  13.068
    1HEX    C0114713   0.189   8.514  16.567
    1HEX    C0214714   0.099   8.594  16.664
    1HEX    C0314715  17.407   8.525  16.697
    1HEX    O0414716  17.392   8.403  16.680
    1HEX    O0514717  17.317   8.610  16.749
    1HEX    C0614718  17.187   8.563  16.781
    1HEX    C0714719  17.165   8.534  16.932
    1HEX    C0814720  17.125   8.665  17.011
    1HEX    O0914721  17.104   8.795  16.950
    1HEX    C0A14722  17.087   8.901  17.037
    1HEX    O0B14723  17.075   8.888  17.159
    1HEX    C0C14724  17.081   9.043  16.974
    1HEX    C0D14725  17.152   9.153  17.060
    1HEX    C0F14726  17.049   8.427  16.938
    1HEX    O0G14727  17.102   8.296  16.913
    1HEX    C0H14728  17.024   8.195  16.869
    1HEX    O0I14729  16.907   8.207  16.836
    1HEX    C0J14730  17.099   8.061  16.855
    1HEX    C0K14731  17.128   7.987  16.989
    1HEX    C0N14732  17.289   8.459  16.998
    1HEX    O0O14733  17.406   8.532  17.035
    1HEX    C0P14734  17.427   8.593  17.164
    1HEX    C0Q14735  17.372   8.534  17.300
    1HEX    C0R14736  17.424   8.388  17.320
    1HEX    O0S14737   0.123   8.371  17.285
    1HEX    C0T14738   0.222   8.372  17.379
    1HEX    O0U14739   0.206   8.400   0.057
    1HEX    C0V14740   0.359   8.328  17.326
    1HEX    C0W14741   0.466   8.441  17.315
    1HEX    C0Y14742  17.433   8.624  17.410
    1HEX    O0Z14743  17.394   8.584   0.101
    1HEX    C1014744   0.007   8.650   0.204
    1HEX    O1114745   0.080   8.748   0.195
    1HEX    C1214746  17.402   8.595   0.340
    1HEX    C1314747   0.048   8.646   0.458
    1HEX    C1514748  17.216   8.553  17.303
    1HEX    O1614749  17.128   8.504  17.405
    1HEX    C1714750  17.018   8.434  17.365
    1HEX    O1814751  17.019   8.348  17.277
    1HEX    C1914752  16.884   8.478  17.427
    1HEX    C1A14753  16.783   8.522  17.317
    1HEX    H1D14754   0.293   8.536  16.590
    1HEX    H1E14755   0.178   8.407  16.584
    1HEX    H1F14756   0.079   8.694  16.626
    1HEX    H1G14757   0.149   8.605  16.760
    1HEX    H1H14758  17.165   8.474  16.722
    1HEX    H1I14759  17.115   8.637  16.746
    1HEX    H1J14760  17.208   8.688  17.075
    1HEX    H1K14761  17.041   8.646  17.077
    1HEX    H1M14762  16.975   9.067  16.964
    1HEX    H1N14763  17.123   9.039  16.874
    1HEX    H1O14764  17.257   9.159  17.030
    1HEX    H1P14765  17.155   9.125  17.165
    1HEX    H1R14766  16.969   8.451  16.868
    1HEX    H1S14767  17.001   8.424  17.036
    1HEX    H1T14768  17.191   8.078  16.800
    1HEX    H1U14769  17.036   7.997  16.792
    1HEX    H1V14770  17.040   7.987  17.054
    1HEX    H1W14771  17.207   8.039  17.044
    1HEX    H1Y14772  17.325   8.389  16.923
    1HEX    H1Z14773  17.260   8.390  17.076
    1HEX    H2014774  17.402   8.699  17.156
    1HEX    H2114775   0.096   8.596  17.172
    1HEX    H2214776  17.367   8.319  17.258
    1HEX    H2314777  17.406   8.356  17.422
    1HEX    H2414778   0.348   8.276  17.231
    1HEX    H2514779   0.394   8.253  17.397
    1HEX    H2614780   0.437   8.526  17.377
    1HEX    H2714781   0.472   8.477  17.213
    1HEX    H2914782  17.404   8.728  17.397
    1HEX    H2A14783   0.102   8.622  17.405
    1HEX    H2B14784  17.402   8.487   0.336
    1HEX    H2C14785  17.299   8.627   0.351
    1HEX    H2D14786   0.090   8.745   0.437
    1HEX    H2E14787   0.134   8.581   0.475
    1HEX    H2G14788  17.175   8.517  17.210
    1HEX    H2H14789  17.196   8.660  17.300
    1HEX    H2I14790  16.902   8.558   0.059
    1HEX    H2J14791  16.845   8.393   0.043
    1HEX    H2K14792  16.780   8.448  17.237
    1HEX    H2M14793  16.817   8.614  17.270
    1STR    S0014794   0.165   8.549  16.389
    1STR    S0E14795  17.079   9.324  17.055
    1STR    S0M14796  17.179   7.813  16.958
    1STR    S0X14797   0.632   8.384  17.371
    1STR    S1414798  17.386   8.662   0.608
    1STR    S1B14799  16.609   8.548  17.373
    1HEX    C0114800   0.157   8.478   3.409
    1HEX    C0214801   0.127   8.535   3.549
    1HEX    C0314802  17.427   8.502   3.597
    1HEX    O0414803  17.383   8.387   3.592
    1HEX    O0514804  17.362   8.610   3.644
    1HEX    C0614805  17.223   8.604   3.670
    1HEX    C0714806  17.186   8.585   3.819
    1HEX    C0814807  17.204   8.720   3.898
    1HEX    O0914808  17.148   8.850   3.870
    1HEX    C0A14809  17.171   8.947   3.967
    1HEX    O0B14810  17.206   8.920   4.083
    1HEX    C0C14811  17.155   9.096   3.927
    1HEX    C0D14812  17.251   9.192   4.007
    1HEX    C0F14813  17.041   8.526   3.822
    1HEX    O0G14814  17.050   8.383   3.800
    1HEX    C0H14815  16.984   8.320   3.701
    1HEX    O0I14816  16.891   8.368   3.637
    1HEX    C0J14817  17.038   8.179   3.670
    1HEX    C0K14818  17.078   8.092   3.792
    1HEX    C0N14819  17.275   8.475   3.889
    1HEX    O0O14820  17.407   8.505   3.939
    1HEX    C0P14821  17.430   8.573   4.063
    1HEX    C0Q14822  17.397   8.505   4.200
    1HEX    C0R14823   0.046   8.378   4.216
    1HEX    O0S14824   0.184   8.400   4.183
    1HEX    C0T14825   0.283   8.387   4.275
    1HEX    O0U14826   0.267   8.375   4.396
    1HEX    C0V14827   0.423   8.378   4.212
    1HEX    C0W14828   0.518   8.496   4.242
    1HEX    C0Y14829  17.435   8.607   4.308
    1HEX    O0Z14830  17.410   8.555   4.437
    1HEX    C1014831  17.436   8.631   4.543
    1HEX    O1114832   0.049   8.742   4.540
    1HEX    C1214833  17.390   8.568   4.672
    1HEX    C1314834   0.048   8.600   4.786
    1HEX    C1514835  17.244   8.471   4.208
    1HEX    O1614836  17.167   8.493   4.327
    1HEX    C1714837  17.037   8.454   4.325
    1HEX    O1814838  16.989   8.374   4.244
    1HEX    C1914839  16.946   8.518   4.431
    1HEX    C1A14840  16.820   8.584   4.368
    1HEX    H1D14841   0.265   8.480   3.391
    1HEX    H1E14842   0.126   8.374   3.402
    1HEX    H1F14843   0.143   8.643   3.552
    1HEX    H1G14844   0.195   8.491   3.623
    1HEX    H1H14845  17.178   8.525   3.607
    1HEX    H1I14846  17.178   8.696   3.632
    1HEX    H1J14847  17.311   8.742   3.889
    1HEX    H1K14848  17.181   8.698   4.002
    1HEX    H1M14849  17.051   9.123   3.945
    1HEX    H1N14850  17.173   9.106   3.820
    1HEX    H1O14851  17.351   9.189   3.963
    1HEX    H1P14852  17.264   9.157   4.109
    1HEX    H1R14853  16.976   8.575   3.749
    1HEX    H1S14854  16.994   8.543   3.919
    1HEX    H1T14855  17.124   8.191   3.603
    1HEX    H1U14856  16.961   8.129   3.611
    1HEX    H1V14857  17.011   8.112   3.876
    1HEX    H1W14858  17.178   8.119   3.825
    1HEX    H1Y14859  17.292   8.397   3.816
    1HEX    H1Z14860  17.219   8.420   3.963
    1HEX    H2014861  17.390   8.674   4.065
    1HEX    H2114862   0.098   8.593   4.061
    1HEX    H2214863   0.011   8.301   4.147
    1HEX    H2314864   0.035   8.337   4.316
    1HEX    H2414865   0.412   8.364   4.104
    1HEX    H2514866   0.468   8.286   4.249
    1HEX    H2614867   0.530   8.512   4.349
    1HEX    H2714868   0.479   8.589   4.200
    1HEX    H2914869  17.379   8.700   4.296
    1HEX    H2A14870   0.101   8.634   4.301
    1HEX    H2B14871  17.383   8.460   4.657
    1HEX    H2C14872  17.291   8.605   4.695
    1HEX    H2D14873   0.045   8.706   4.808
    1HEX    H2E14874   0.151   8.579   4.755
    1HEX    H2G14875  17.228   8.368   4.175
    1HEX    H2H14876  17.191   8.534   4.137
    1HEX    H2I14877  17.004   8.591   4.489
    1HEX    H2J14878  16.917   8.439   4.499
    1HEX    H2K14879  16.806   8.547   4.266
    1HEX    H2M14880  16.832   8.692   4.357
    1STR    S0014881   0.077   8.571   3.275
    1STR    S0E14882  17.200   9.369   4.025
    1STR    S0M14883  17.072   7.911   3.756
    1STR    S0X14884   0.682   8.463   4.167
    1STR    S1414885   0.008   8.502   4.934
    1STR    S1B14886  16.662   8.551   4.457
    1HEX    C0114887   0.112   8.368   7.789
    1HEX    C0214888   0.087   8.432   7.928
    1HEX    C0314889  17.384   8.413   7.976
    1HEX    O0414890  17.331   8.302   7.973
    1HEX    O0514891  17.328   8.526   8.025
    1HEX    C0614892  17.194   8.523   8.073
    1HEX    C0714893  17.181   8.528   8.228
    1HEX    C0814894  17.201   8.674   8.279
    1HEX    O0914895  17.127   8.791   8.239
    1HEX    C0A14896  17.130   8.898   8.327
    1HEX    O0B14897  17.140   8.887   8.449
    1HEX    C0C14898  17.126   9.038   8.263
    1HEX    C0D14899  17.100   9.158   8.361
    1HEX    C0F14900  17.040   8.468   8.264
    1HEX    O0G14901  17.048   8.329   8.303
    1HEX    C0H14902  17.019   8.225   8.222
    1HEX    O0I14903  16.960   8.235   8.115
    1HEX    C0J14904  17.074   8.090   8.273
    1HEX    C0K14905  16.971   8.003   8.350
    1HEX    C0N14906  17.291   8.437   8.298
    1HEX    O0O14907  17.413   8.498   8.341
    1HEX    C0P14908  17.427   8.572   8.465
    1HEX    C0Q14909  17.373   8.517   8.602
    1HEX    C0R14910  17.429   8.373   8.623
    1HEX    O0S14911   0.125   8.361   8.578
    1HEX    C0T14912   0.231   8.377   8.661
    1HEX    O0U14913   0.225   8.393   8.783
    1HEX    C0V14914   0.366   8.371   8.587
    1HEX    C0W14915   0.494   8.370   8.677
    1HEX    C0Y14916  17.431   8.610   8.711
    1HEX    O0Z14917  17.388   8.574   8.842
    1HEX    C1014918  17.427   8.651   8.945
    1HEX    O1114919   0.055   8.753   8.935
    1HEX    C1214920  17.378   8.599   9.079
    1HEX    C1314921   0.047   8.601   9.189
    1HEX    C1514922  17.216   8.532   8.607
    1HEX    O1614923  17.135   8.472   8.710
    1HEX    C1714924  17.041   8.381   8.672
    1HEX    O1814925  17.059   8.294   8.588
    1HEX    C1914926  16.902   8.403   8.734
    1HEX    C1A14927  16.802   8.453   8.626
    1HEX    H1D14928   0.198   8.300   7.795
    1HEX    H1E14929   0.028   8.307   7.756
    1HEX    H1F14930   0.111   8.538   7.928
    1HEX    H1G14931   0.151   8.385   8.003
    1HEX    H1H14932  17.142   8.435   8.033
    1HEX    H1I14933  17.142   8.608   8.029
    1HEX    H1J14934  17.304   8.702   8.255
    1HEX    H1K14935  17.193   8.669   8.386
    1HEX    H1M14936  17.050   9.037   8.185
    1HEX    H1N14937  17.221   9.052   8.212
    1HEX    H1O14938  17.082   9.123   8.463
    1HEX    H1P14939  17.009   9.210   8.333
    1HEX    H1R14940  16.967   8.481   8.184
    1HEX    H1S14941  16.998   8.521   8.350
    1HEX    H1T14942  17.158   8.113   8.338
    1HEX    H1U14943  17.114   8.034   8.189
    1HEX    H1V14944  16.908   7.947   8.280
    1HEX    H1W14945  16.904   8.069   8.405
    1HEX    H1Y14946  17.318   8.359   8.228
    1HEX    H1Z14947  17.255   8.377   8.381
    1HEX    H2014948  17.395   8.675   8.453
    1HEX    H2114949   0.095   8.583   8.474
    1HEX    H2214950  17.369   8.301   8.567
    1HEX    H2314951  17.419   8.342   8.728
    1HEX    H2414952   0.369   8.453   8.515
    1HEX    H2514953   0.363   8.280   8.528
    1HEX    H2614954   0.459   8.465   8.719
    1HEX    H2714955   0.552   8.339   8.591
    1HEX    H2914956  17.401   8.714   8.693
    1HEX    H2A14957   0.100   8.611   8.709
    1HEX    H2B14958  17.340   8.498   9.066
    1HEX    H2C14959  17.292   8.660   9.108
    1HEX    H2D14960   0.141   8.640   9.149
    1HEX    H2E14961   0.067   8.500   9.225
    1HEX    H2G14962  17.170   8.503   8.514
    1HEX    H2H14963  17.193   8.638   8.614
    1HEX    H2I14964  16.907   8.470   8.819
    1HEX    H2J14965  16.868   8.306   8.771
    1HEX    H2K14966  16.820   8.399   8.533
    1HEX    H2M14967  16.822   8.558   8.603
    1STR    S0014968   0.148   8.493   7.662
    1STR    S0E14969  17.237   9.281   8.372
    1STR    S0M14970  17.044   7.885   8.473
    1STR    S0X14971   0.636   8.490   8.686
    1STR    S1414972  17.439   8.706   9.330
    1STR    S1B14973  16.623   8.438   8.668
    1HEX    C0114974   0.112   8.531  12.109
    1HEX    C0214975   0.107   8.466  12.250
    1HEX    C0314976  17.404   8.455  12.305
    1HEX    O0414977  17.339   8.351  12.291
    1HEX    O0514978  17.358   8.570  12.357
    1HEX    C0614979  17.221   8.582  12.391
    1HEX    C0714980  17.190   8.555  12.541
    1HEX    C0814981  17.184   8.691  12.618
    1HEX    O0914982  17.120   8.816  12.582
    1HEX    C0A14983  17.134   8.918  12.677
    1HEX    O0B14984  17.173   8.897  12.792
    1HEX    C0C14985  17.104   9.063  12.633
    1HEX    C0D14986  17.156   9.168  12.738
    1HEX    C0F14987  17.060   8.467  12.546
    1HEX    O0G14988  17.101   8.334  12.510
    1HEX    C0H14989  17.020   8.239  12.461
    1HEX    O0I14990  16.899   8.251  12.443
    1HEX    C0J14991  17.095   8.110  12.424
    1HEX    C0K14992  17.091   7.999  12.533
    1HEX    C0N14993  17.300   8.464  12.612
    1HEX    O0O14994  17.423   8.520  12.660
    1HEX    C0P14995  17.438   8.588  12.786
    1HEX    C0Q14996  17.387   8.529  12.922
    1HEX    C0R14997   0.003   8.385  12.940
    1HEX    O0S14998   0.142   8.370  12.901
    1HEX    C0T14999   0.244   8.376  12.990
    1HEX    O0U15000   0.234   8.407  13.108
    1HEX    C0V15001   0.379   8.330  12.932
    1HEX    C0W15002   0.488   8.440  12.919
    1HEX    C0Y15003   0.005   8.621  13.031
    1HEX    O0Z15004  17.398   8.587  13.159
    1HEX    C1015005  17.440   8.659  13.263
    1HEX    O1115006   0.080   8.752  13.259
    1HEX    C1215007  17.371   8.619  13.392
    1HEX    C1315008   0.014   8.653  13.516
    1HEX    C1515009  17.230   8.542  12.927
    1HEX    O1615010  17.146   8.490  13.031
    1HEX    C1715011  17.025   8.436  12.993
    1HEX    O1815012  17.008   8.369  12.891
    1HEX    C1915013  16.905   8.469  13.083
    1HEX    C1A15014  16.795   8.549  13.005
    1HEX    H1D15015   0.027   8.466  12.098
    1HEX    H1E15016   0.081   8.635  12.123
    1HEX    H1F15017   0.162   8.527  12.321
    1HEX    H1G15018   0.152   8.367  12.252
    1HEX    H1H15019  17.162   8.515  12.326
    1HEX    H1I15020  17.186   8.681  12.362
    1HEX    H1J15021  17.287   8.725  12.620
    1HEX    H1K15022  17.150   8.670  12.718
    1HEX    H1M15023  16.996   9.072  12.619
    1HEX    H1N15024  17.150   9.080  12.536
    1HEX    H1O15025  17.265   9.166  12.743
    1HEX    H1P15026  17.122   9.141  12.838
    1HEX    H1R15027  16.982   8.504  12.478
    1HEX    H1S15028  17.015   8.464  12.645
    1HEX    H1T15029  17.198   8.138  12.402
    1HEX    H1U15030  17.054   8.072  12.330
    1HEX    H1V15031  16.989   7.962  12.545
    1HEX    H1W15032  17.119   8.042  12.629
    1HEX    H1Y15033  17.333   8.391  12.539
    1HEX    H1Z15034  17.259   8.395  12.685
    1HEX    H2015035  17.406   8.692  12.779
    1HEX    H2115036   0.106   8.598  12.794
    1HEX    H2215037  17.386   8.316  12.879
    1HEX    H2315038  17.429   8.351  13.043
    1HEX    H2415039   0.363   8.280  12.837
    1HEX    H2515040   0.415   8.253  13.001
    1HEX    H2615041   0.487   8.507  13.005
    1HEX    H2715042   0.469   8.501  12.831
    1HEX    H2915043  17.418   8.726  13.012
    1HEX    H2A15044   0.114   8.619  13.031
    1HEX    H2B15045  17.350   8.512  13.388
    1HEX    H2C15046  17.275   8.671  13.394
    1HEX    H2D15047   0.049   8.756  13.516
    1HEX    H2E15048   0.104   8.590  13.519
    1HEX    H2G15049  17.190   8.505  12.835
    1HEX    H2H15050  17.207   8.649  12.926
    1HEX    H2I15051  16.937   8.522  13.172
    1HEX    H2J15052  16.864   8.373  13.116
    1HEX    H2K15053  16.797   8.523  12.898
    1HEX    H2M15054  16.817   8.655  13.009
    1STR    S0015055   0.056   8.491  11.941
    1STR    S0E15056  17.104   9.344  12.713
    1STR    S0M15057  17.203   7.857  12.498
    1STR    S0X15058   0.655   8.363  12.904
    1STR    S1415059  17.352   8.621  13.663
    1STR    S1B15060  16.623   8.521  13.062
    1HEX    C0115061   0.120  12.878  16.485
    1HEX    C0215062   0.072  12.805  16.612
    1HEX    C0315063  17.364  12.821  16.642
    1HEX    O0415064  17.283  12.733  16.612
    1HEX    O0515065  17.335  12.934  16.710
    1HEX    C0615066  17.201  12.959  16.752
    1HEX    C0715067  17.179  12.939  16.905
    1HEX    C0815068  17.203  13.074  16.979
    1HEX    O0915069  17.145  13.202  16.947
    1HEX    C0A15070  17.185  13.305  17.031
    1HEX    O0B15071  17.255  13.287  17.132
    1HEX    C0C15072  17.145  13.450  16.994
    1HEX    C0D15073  17.234  13.554  17.068
    1HEX    C0F15074  17.035  12.879  16.925
    1HEX    O0G15075  17.038  12.737  16.900
    1HEX    C0H15076  16.977  12.680  16.795
    1HEX    O0I15077  16.901  12.738  16.717
    1HEX    C0J15078  17.016  12.533  16.772
    1HEX    C0K15079  17.015  12.440  16.897
    1HEX    C0N15080  17.276  12.831  16.968
    1HEX    O0O15081  17.404  12.867  17.024
    1HEX    C0P15082  17.421  12.932  17.153
    1HEX    C0Q15083  17.380  12.865  17.289
    1HEX    C0R15084   0.016  12.731  17.307
    1HEX    O0S15085   0.154  12.737  17.266
    1HEX    C0T15086   0.256  12.748  17.354
    1HEX    O0U15087   0.244  12.761   0.036
    1HEX    C0V15088   0.394  12.740  17.287
    1HEX    C0W15089   0.507  12.808  17.369
    1HEX    C0Y15090  17.425  12.965  17.398
    1HEX    O0Z15091  17.404  12.919   0.091
    1HEX    C1015092   0.011  12.995   0.191
    1HEX    O1115093   0.068  13.103   0.177
    1HEX    C1215094  17.428  12.935   0.330
    1HEX    C1315095   0.094  12.987   0.428
    1HEX    C1515096  17.224  12.847  17.294
    1HEX    O1615097  17.152  12.823  17.415
    1HEX    C1715098  17.018  12.791  17.400
    1HEX    O1815099  16.966  12.760  17.293
    1HEX    C1915100  16.933  12.803   0.087
    1HEX    C1A15101  16.798  12.877   0.062
    1HEX    H1D15102   0.223  12.851  16.465
    1HEX    H1E15103   0.120  12.986  16.501
    1HEX    H1F15104   0.127  12.841  16.700
    1HEX    H1G15105   0.092  12.699  16.605
    1HEX    H1H15106  17.131  12.898  16.694
    1HEX    H1I15107  17.175  13.061  16.724
    1HEX    H1J15108  17.309  13.094  16.968
    1HEX    H1K15109  17.180  13.058  17.084
    1HEX    H1M15110  17.040  13.463  17.020
    1HEX    H1N15111  17.153  13.462  16.886
    1HEX    H1O15112  17.337  13.547  17.033
    1HEX    H1P15113  17.238  13.529  17.174
    1HEX    H1R15114  16.960  12.931  16.865
    1HEX    H1S15115  17.003  12.892  17.029
    1HEX    H1T15116  17.114  12.531  16.725
    1HEX    H1U15117  16.946  12.494  16.697
    1HEX    H1V15118  16.931  12.463  16.961
    1HEX    H1W15119  17.105  12.456  16.957
    1HEX    H1Y15120  17.300  12.759  16.889
    1HEX    H1Z15121  17.225  12.766  17.037
    1HEX    H2015122  17.384  13.034  17.153
    1HEX    H2115123   0.089  12.948  17.157
    1HEX    H2215124  17.409  12.654  17.245
    1HEX    H2315125   0.007  12.695  17.410
    1HEX    H2415126   0.385  12.787  17.190
    1HEX    H2515127   0.417  12.635  17.270
    1HEX    H2615128   0.474  12.904  17.407
    1HEX    H2715129   0.532  12.748   0.017
    1HEX    H2915130  17.375  13.061  17.387
    1HEX    H2A15131   0.092  12.986  17.388
    1HEX    H2B15132  17.432  12.826   0.322
    1HEX    H2C15133  17.327  12.961   0.363
    1HEX    H2D15134   0.088  13.095   0.436
    1HEX    H2E15135   0.193  12.964   0.389
    1HEX    H2G15136  17.198  12.763  17.231
    1HEX    H2H15137  17.177  12.936  17.254
    1HEX    H2I15138  16.992  12.858   0.160
    1HEX    H2J15139  16.916  12.704   0.129
    1HEX    H2K15140  16.807  12.940  17.413
    1HEX    H2M15141  16.775  12.945   0.143
    1STR    S0015142   0.022  12.837  16.336
    1STR    S0E15143  17.183  13.731  17.064
    1STR    S0M15144  17.004  12.263  16.848
    1STR    S0X15145   0.659  12.834  17.269
    1STR    S1415146   0.080  12.918   0.596
    1STR    S1B15147  16.653  12.768   0.039
    1HEX    C0115148   0.122  12.823   3.397
    1HEX    C0215149   0.114  12.844   3.549
    1HEX    C0315150  17.420  12.801   3.604
    1HEX    O0415151  17.386  12.682   3.603
    1HEX    O0515152  17.347  12.903   3.653
    1HEX    C0615153  17.214  12.879   3.697
    1HEX    C0715154  17.196  12.879   3.851
    1HEX    C0815155  17.200  13.027   3.903
    1HEX    O0915156  17.127  13.141   3.853
    1HEX    C0A15157  17.129  13.253   3.934
    1HEX    O0B15158  17.151  13.249   4.055
    1HEX    C0C15159  17.107  13.391   3.867
    1HEX    C0D15160  17.166  13.507   3.954
    1HEX    C0F15161  17.064  12.800   3.880
    1HEX    O0G15162  17.094  12.659   3.886
    1HEX    C0H15163  17.030  12.565   3.813
    1HEX    O0I15164  16.932  12.586   3.743
    1HEX    C0J15165  17.098  12.427   3.816
    1HEX    C0K15166  17.112  12.358   3.955
    1HEX    C0N15167  17.311  12.798   3.925
    1HEX    O0O15168  17.427  12.865   3.974
    1HEX    C0P15169  17.430  12.938   4.099
    1HEX    C0Q15170  17.373  12.880   4.233
    1HEX    C0R15171  17.429  12.737   4.257
    1HEX    O0S15172   0.128  12.723   4.221
    1HEX    C0T15173   0.228  12.735   4.312
    1HEX    O0U15174   0.214  12.766   4.430
    1HEX    C0V15175   0.367  12.701   4.255
    1HEX    C0W15176   0.459  12.824   4.230
    1HEX    C0Y15177  17.425  12.974   4.345
    1HEX    O0Z15178  17.386  12.934   4.475
    1HEX    C1015179  17.432  13.005   4.579
    1HEX    O1115180   0.059  13.108   4.570
    1HEX    C1215181  17.389  12.948   4.714
    1HEX    C1315182   0.048  12.979   4.829
    1HEX    C1515183  17.216  12.893   4.230
    1HEX    O1615184  17.127  12.842   4.329
    1HEX    C1715185  17.020  12.767   4.286
    1HEX    O1815186  17.028  12.679   4.201
    1HEX    C1915187  16.883  12.809   4.341
    1HEX    C1A15188  16.787  12.850   4.224
    1HEX    H1D15189   0.224  12.803   3.365
    1HEX    H1E15190   0.063  12.736   3.368
    1HEX    H1F15191   0.136  12.946   3.578
    1HEX    H1G15192   0.188  12.780   3.598
    1HEX    H1H15193  17.175  12.786   3.654
    1HEX    H1I15194  17.150  12.956   3.653
    1HEX    H1J15195  17.303  13.060   3.891
    1HEX    H1K15196  17.179  13.022   4.009
    1HEX    H1M15197  17.001  13.405   3.850
    1HEX    H1N15198  17.155  13.390   3.769
    1HEX    H1O15199  17.274  13.499   3.959
    1HEX    H1P15200  17.132  13.498   4.057
    1HEX    H1R15201  16.986  12.822   3.806
    1HEX    H1S15202  17.020  12.828   3.975
    1HEX    H1T15203  17.196  12.437   3.769
    1HEX    H1U15204  17.040  12.362   3.750
    1HEX    H1V15205  17.019  12.360   4.010
    1HEX    H1W15206  17.186  12.411   4.016
    1HEX    H1Y15207  17.347  12.723   3.855
    1HEX    H1Z15208  17.275  12.734   4.005
    1HEX    H2015209  17.393  13.040   4.085
    1HEX    H2115210   0.097  12.954   4.113
    1HEX    H2215211  17.373  12.665   4.197
    1HEX    H2315212  17.413  12.706   4.360
    1HEX    H2415213   0.354  12.643   4.164
    1HEX    H2515214   0.414  12.633   4.327
    1HEX    H2615215   0.406  12.915   4.259
    1HEX    H2715216   0.480  12.834   4.123
    1HEX    H2915217  17.391  13.077   4.329
    1HEX    H2A15218   0.094  12.979   4.343
    1HEX    H2B15219  17.375  12.840   4.704
    1HEX    H2C15220  17.291  12.990   4.734
    1HEX    H2D15221   0.117  13.058   4.801
    1HEX    H2E15222   0.110  12.892   4.852
    1HEX    H2G15223  17.180  12.856   4.135
    1HEX    H2H15224  17.192  13.000   4.227
    1HEX    H2I15225  16.894  12.889   4.414
    1HEX    H2J15226  16.842  12.723   4.394
    1HEX    H2K15227  16.795  12.778   4.143
    1HEX    H2M15228  16.819  12.946   4.182
    1STR    S0015229   0.065  12.971   3.307
    1STR    S0E15230  17.123  13.680   3.904
    1STR    S0M15231  17.166  12.182   3.935
    1STR    S0X15232   0.617  12.818   4.324
    1STR    S1415233  17.399  13.035   4.978
    1STR    S1B15234  16.608  12.865   4.266
    1HEX    C0115235   0.110  12.793   7.750
    1HEX    C0215236   0.086  12.854   7.889
    1HEX    C0315237  17.382  12.840   7.936
    1HEX    O0415238  17.323  12.732   7.927
    1HEX    O0515239  17.334  12.953   7.993
    1HEX    C0615240  17.200  12.956   8.040
    1HEX    C0715241  17.188  12.943   8.195
    1HEX    C0815242  17.214  13.082   8.263
    1HEX    O0915243  17.144  13.207   8.245
    1HEX    C0A15244  17.162  13.302   8.345
    1HEX    O0B15245  17.196  13.274   8.460
    1HEX    C0C15246  17.139  13.451   8.308
    1HEX    C0D15247  17.223  13.549   8.398
    1HEX    C0F15248  17.047  12.882   8.226
    1HEX    O0G15249  17.055  12.739   8.216
    1HEX    C0H15250  16.997  12.667   8.118
    1HEX    O0I15251  16.906  12.708   8.046
    1HEX    C0J15252  17.059  12.528   8.098
    1HEX    C0K15253  17.054  12.432   8.220
    1HEX    C0N15254  17.293  12.840   8.254
    1HEX    O0O15255  17.423  12.886   8.295
    1HEX    C0P15256   0.007  12.951   8.422
    1HEX    C0Q15257  17.399  12.890   8.558
    1HEX    C0R15258   0.018  12.747   8.572
    1HEX    O0S15259   0.157  12.737   8.532
    1HEX    C0T15260   0.260  12.745   8.621
    1HEX    O0U15261   0.248  12.768   8.741
    1HEX    C0V15262   0.399  12.717   8.560
    1HEX    C0W15263   0.501  12.834   8.570
    1HEX    C0Y15264   0.020  12.980   8.668
    1HEX    O0Z15265  17.415  12.934   8.794
    1HEX    C1015266  17.433  13.011   8.901
    1HEX    O1115267   0.043  13.123   8.903
    1HEX    C1215268  17.379  12.944   9.026
    1HEX    C1315269  17.435  13.006   9.154
    1HEX    C1515270  17.242  12.904   8.573
    1HEX    O1615271  17.164  12.840   8.676
    1HEX    C1715272  17.047  12.779   8.639
    1HEX    O1815273  17.029  12.720   8.533
    1HEX    C1915274  16.929  12.797   8.736
    1HEX    C1A15275  16.808  12.864   8.664
    1HEX    H1D15276   0.215  12.763   7.741
    1HEX    H1E15277   0.052  12.702   7.737
    1HEX    H1F15278   0.116  12.959   7.894
    1HEX    H1G15279   0.145  12.801   7.964
    1HEX    H1H15280  17.141  12.880   7.990
    1HEX    H1I15281  17.155  13.050   8.007
    1HEX    H1J15282  17.317  13.108   8.239
    1HEX    H1K15283  17.210  13.062   8.369
    1HEX    H1M15284  17.033  13.470   8.319
    1HEX    H1N15285  17.164  13.465   8.203
    1HEX    H1O15286  17.328  13.548   8.368
    1HEX    H1P15287  17.224  13.515   8.502
    1HEX    H1R15288  16.969  12.923   8.160
    1HEX    H1S15289  17.015  12.906   8.327
    1HEX    H1T15290  17.163  12.546   8.069
    1HEX    H1U15291  17.011  12.481   8.012
    1HEX    H1V15292  16.952  12.396   8.235
    1HEX    H1W15293  17.083  12.483   8.312
    1HEX    H1Y15294  17.313  12.766   8.176
    1HEX    H1Z15295  17.255  12.772   8.330
    1HEX    H2015296  17.421  13.056   8.418
    1HEX    H2115297   0.116  12.956   8.425
    1HEX    H2215298  17.403  12.678   8.508
    1HEX    H2315299   0.005  12.709   8.674
    1HEX    H2415300   0.386  12.686   8.457
    1HEX    H2515301   0.439  12.631   8.613
    1HEX    H2615302   0.512  12.868   8.673
    1HEX    H2715303   0.465  12.921   8.514
    1HEX    H2915304  17.430  13.084   8.655
    1HEX    H2A15305   0.129  12.980   8.667
    1HEX    H2B15306  17.404  12.838   9.021
    1HEX    H2C15307  17.270  12.952   9.023
    1HEX    H2D15308  17.414  13.113   9.160
    1HEX    H2E15309   0.104  12.996   9.158
    1HEX    H2G15310  17.193  12.884   8.480
    1HEX    H2H15311  17.221  13.010   8.588
    1HEX    H2I15312  16.961  12.855   8.823
    1HEX    H2J15313  16.902  12.698   8.772
    1HEX    H2K15314  16.789  12.814   8.569
    1HEX    H2M15315  16.832  12.967   8.640
    1STR    S0015316   0.072  12.906   7.612
    1STR    S0E15317  17.165  13.725   8.406
    1STR    S0M15318  17.166  12.289   8.191
    1STR    S0X15319   0.666  12.786   8.504
    1STR    S1415320  17.363  12.920   9.297
    1STR    S1B15321  16.649  12.864   8.758
    1HEX    C0115322   0.140  12.795  12.178
    1HEX    C0215323   0.087  12.751  12.315
    1HEX    C0315324  17.378  12.769  12.335
    1HEX    O0415325  17.300  12.675  12.319
    1HEX    O0515326  17.345  12.891  12.383
    1HEX    C0615327  17.209  12.918  12.417
    1HEX    C0715328  17.180  12.911  12.570
    1HEX    C0815329  17.194  13.054  12.634
    1HEX    O0915330  17.134  13.176  12.586
    1HEX    C0A15331  17.160  13.290  12.662
    1HEX    O0B15332  17.201  13.287  12.778
    1HEX    C0C15333  17.137  13.425  12.592
    1HEX    C0D15334  17.098  13.545  12.686
    1HEX    C0F15335  17.039  12.843  12.585
    1HEX    O0G15336  17.058  12.701  12.574
    1HEX    C0H15337  16.957  12.611  12.572
    1HEX    O0I15338  16.838  12.638  12.557
    1HEX    C0J15339  17.008  12.466  12.587
    1HEX    C0K15340  16.903  12.365  12.643
    1HEX    C0N15341  17.280  12.815  12.647
    1HEX    O0O15342  17.406  12.865  12.691
    1HEX    C0P15343  17.424  12.937  12.815
    1HEX    C0Q15344  17.380  12.875  12.952
    1HEX    C0R15345   0.000  12.732  12.962
    1HEX    O0S15346   0.139  12.726  12.921
    1HEX    C0T15347   0.242  12.728  13.009
    1HEX    O0U15348   0.229  12.739  13.131
    1HEX    C0V15349   0.381  12.719  12.945
    1HEX    C0W15350   0.464  12.846  12.969
    1HEX    C0Y15351   0.003  12.965  13.061
    1HEX    O0Z15352  17.399  12.932  13.192
    1HEX    C1015353   0.001  13.008  13.295
    1HEX    O1115354   0.073  13.107  13.286
    1HEX    C1215355  17.386  12.961  13.429
    1HEX    C1315356   0.056  12.941  13.536
    1HEX    C1515357  17.223  12.887  12.966
    1HEX    O1615358  17.146  12.800  13.051
    1HEX    C1715359  17.027  12.749  13.003
    1HEX    O1815360  17.003  12.727  12.885
    1HEX    C1915361  16.918  12.726  13.108
    1HEX    C1A15362  16.787  12.806  13.081
    1HEX    H1D15363   0.244  12.763  12.168
    1HEX    H1E15364   0.138  12.903  12.173
    1HEX    H1F15365   0.137  12.810  12.393
    1HEX    H1G15366   0.111  12.647  12.336
    1HEX    H1H15367  17.144  12.850  12.362
    1HEX    H1I15368  17.183  13.017  12.378
    1HEX    H1J15369  17.300  13.078  12.623
    1HEX    H1K15370  17.170  13.048  12.739
    1HEX    H1M15371  17.058  13.409  12.520
    1HEX    H1N15372  17.226  13.450  12.534
    1HEX    H1O15373  17.047  13.506  12.774
    1HEX    H1P15374  17.025  13.608  12.636
    1HEX    H1R15375  16.967  12.878  12.510
    1HEX    H1S15376  16.993  12.866  12.682
    1HEX    H1T15377  17.095  12.469  12.653
    1HEX    H1U15378  17.046  12.431  12.491
    1HEX    H1V15379  16.862  12.305  12.562
    1HEX    H1W15380  16.819  12.421  12.684
    1HEX    H1Y15381  17.304  12.733  12.580
    1HEX    H1Z15382  17.233  12.758  12.727
    1HEX    H2015383  17.387  13.039  12.809
    1HEX    H2115384   0.092  12.951  12.819
    1HEX    H2215385  17.385  12.664  12.897
    1HEX    H2315386  17.428  12.692  13.063
    1HEX    H2415387   0.370  12.699  12.838
    1HEX    H2515388   0.433  12.633  12.987
    1HEX    H2615389   0.479  12.861  13.077
    1HEX    H2715390   0.408  12.932  12.934
    1HEX    H2915391  17.418  13.070  13.043
    1HEX    H2A15392   0.112  12.961  13.058
    1HEX    H2B15393  17.333  12.868  13.413
    1HEX    H2C15394  17.312  13.034  13.462
    1HEX    H2D15395   0.155  12.949  13.489
    1HEX    H2E15396   0.050  12.840  13.578
    1HEX    H2G15397  17.176  12.888  12.869
    1HEX    H2H15398  17.200  12.988  13.001
    1HEX    H2I15399  16.960  12.757  13.204
    1HEX    H2J15400  16.898  12.619  13.116
    1HEX    H2K15401  16.808  12.892  13.016
    1HEX    H2M15402  16.749  12.848  13.174
    1STR    S0015403   0.055  12.734  12.029
    1STR    S0E15404  17.235  13.653  12.747
    1STR    S0M15405  16.958  12.251  12.777
    1STR    S0X15406   0.629  12.852  12.887
    1STR    S1415407   0.046  13.062  13.672
    1STR    S1B15408  16.648  12.713  13.003
    1HEX    C0115409   4.436  17.141  16.484
    1HEX    C0215410   4.436  17.124  16.637
    1HEX    C0315411   4.294  17.131  16.691
    1HEX    O0415412   4.217  17.038  16.673
    1HEX    O0515413   4.266  17.248  16.752
    1HEX    C0615414   4.131  17.283  16.782
    1HEX    C0715415   4.084  17.251  16.928
    1HEX    C0815416   4.053  17.383  17.009
    1HEX    O0915417   4.033   0.073  16.950
    1HEX    C0A15418   4.043   0.182  17.036
    1HEX    O0B15419   4.068   0.171  17.156
    1HEX    C0C15420   4.025   0.322  16.974
    1HEX    C0D15421   4.057   0.437  17.076
    1HEX    C0F15422   3.955  17.163  16.915
    1HEX    O0G15423   3.994  17.030  16.875
    1HEX    C0H15424   3.909  16.942  16.820
    1HEX    O0I15425   3.790  16.962  16.798
    1HEX    C0J15426   3.978  16.810  16.781
    1HEX    C0K15427   3.987  16.708  16.897
    1HEX    C0N15428   4.187  17.160  17.007
    1HEX    O0O15429   4.318  17.208  17.041
    1HEX    C0P15430   4.349  17.285  17.159
    1HEX    C0Q15431   4.305  17.236  17.301
    1HEX    C0R15432   4.355  17.090  17.324
    1HEX    O0S15433   4.493  17.070  17.286
    1HEX    C0T15434   4.595  17.074  17.375
    1HEX    O0U15435   4.585  17.104   0.054
    1HEX    C0V15436   4.731  17.031  17.318
    1HEX    C0W15437   4.838  17.143  17.307
    1HEX    C0Y15438   4.375  17.329  17.403
    1HEX    O0Z15439   4.332  17.302   0.095
    1HEX    C1015440   4.386  17.371   0.196
    1HEX    O1115441   4.478   0.012   0.186
    1HEX    C1215442   4.317  17.342   0.328
    1HEX    C1315443   4.407  17.369   0.450
    1HEX    C1515444   4.150  17.257  17.320
    1HEX    O1615445   4.074  17.176  17.412
    1HEX    C1715446   3.951  17.130  17.372
    1HEX    O1815447   3.919  17.108  17.255
    1HEX    C1915448   3.850  17.110   0.045
    1HEX    C1A15449   3.715  17.186   0.021
    1HEX    H1D15450   4.522  17.094  16.437
    1HEX    H1E15451   4.347  17.097  16.440
    1HEX    H1F15452   4.498  17.198  16.687
    1HEX    H1G15453   4.475  17.026  16.665
    1HEX    H1H15454   4.066  17.233  16.709
    1HEX    H1I15455   4.119  17.388  16.759
    1HEX    H1J15456   4.141  17.399  17.069
    1HEX    H1K15457   3.972  17.366  17.080
    1HEX    H1M15458   3.922   0.330  16.940
    1HEX    H1N15459   4.088   0.330  16.886
    1HEX    H1O15460   4.161   0.432  17.108
    1HEX    H1P15461   3.999   0.424  17.167
    1HEX    H1R15462   3.883  17.205  16.845
    1HEX    H1S15463   3.901  17.154  17.010
    1HEX    H1T15464   4.077  16.835  16.744
    1HEX    H1U15465   3.923  16.768  16.697
    1HEX    H1V15466   3.888  16.674  16.926
    1HEX    H1W15467   4.029  16.756  16.985
    1HEX    H1Y15468   4.212  17.076  16.942
    1HEX    H1Z15469   4.140  17.107  17.090
    1HEX    H2015470   4.327  17.390  17.145
    1HEX    H2115471   4.458  17.285  17.158
    1HEX    H2215472   4.295  17.022  17.265
    1HEX    H2315473   4.339  17.061  17.428
    1HEX    H2415474   4.716  16.982  17.222
    1HEX    H2515475   4.766  16.954  17.386
    1HEX    H2615476   4.820  17.221  17.381
    1HEX    H2715477   4.833  17.191  17.209
    1HEX    H2915478   4.353  17.434  17.381
    1HEX    H2A15479   4.484  17.321  17.397
    1HEX    H2B15480   4.283  17.239   0.328
    1HEX    H2C15481   4.228  17.405   0.331
    1HEX    H2D15482   4.458   0.025   0.441
    1HEX    H2E15483   4.485  17.292   0.457
    1HEX    H2G15484   4.101  17.255  17.225
    1HEX    H2H15485   4.132  17.360  17.351
    1HEX    H2I15486   3.896  17.147   0.137
    1HEX    H2J15487   3.832  17.004   0.060
    1HEX    H2K15488   3.728  17.262  17.384
    1HEX    H2M15489   3.686  17.241   0.111
    1STR    S0015490   4.436  17.318  16.448
    1STR    S0E15491   4.024   0.609  17.016
    1STR    S0M15492   4.092  16.563  16.854
    1STR    S0X15493   5.007  17.075  17.335
    1STR    S1415494   4.303  17.371   0.599
    1STR    S1B15495   3.572  17.081  17.413
    1HEX    C0115496   4.532  17.159   3.449
    1HEX    C0215497   4.465  17.268   3.537
    1HEX    C0315498   4.325  17.231   3.584
    1HEX    O0415499   4.281  17.116   3.574
    1HEX    O0515500   4.260  17.335   3.639
    1HEX    C0615501   4.123  17.322   3.676
    1HEX    C0715502   4.102  17.305   3.829
    1HEX    C0815503   4.122   0.002   3.900
    1HEX    O0915504   4.062   0.130   3.873
    1HEX    C0A15505   4.094   0.230   3.965
    1HEX    O0B15506   4.143   0.206   4.076
    1HEX    C0C15507   4.069   0.377   3.925
    1HEX    C0D15508   4.169   0.475   3.997
    1HEX    C0F15509   3.959  17.241   3.847
    1HEX    O0G15510   3.968  17.099   3.825
    1HEX    C0H15511   3.893  17.034   3.733
    1HEX    O0I15512   3.804  17.085   3.666
    1HEX    C0J15513   3.935  16.888   3.711
    1HEX    C0K15514   3.931  16.797   3.837
    1HEX    C0N15515   4.203  17.201   3.893
    1HEX    O0O15516   4.330  17.246   3.945
    1HEX    C0P15517   4.347  17.315   4.071
    1HEX    C0Q15518   4.297  17.254   4.207
    1HEX    C0R15519   4.360  17.113   4.223
    1HEX    O0S15520   4.500  17.108   4.186
    1HEX    C0T15521   4.602  17.121   4.276
    1HEX    O0U15522   4.589  17.139   4.397
    1HEX    C0V15523   4.743  17.107   4.213
    1HEX    C0W15524   4.847  17.213   4.260
    1HEX    C0Y15525   4.352  17.346   4.319
    1HEX    O0Z15526   4.316  17.299   4.447
    1HEX    C1015527   4.359  17.367   4.554
    1HEX    O1115528   4.424   0.032   4.549
    1HEX    C1215529   4.325  17.300   4.686
    1HEX    C1315530   4.444  17.313   4.783
    1HEX    C1515531   4.140  17.267   4.212
    1HEX    O1615532   4.055  17.208   4.312
    1HEX    C1715533   3.941  17.146   4.268
    1HEX    O1815534   3.939  17.066   4.174
    1HEX    C1915535   3.810  17.191   4.335
    1HEX    C1A15536   3.707  17.240   4.228
    1HEX    H1D15537   4.640  17.164   3.461
    1HEX    H1E15538   4.503  17.060   3.485
    1HEX    H1F15539   4.462  17.364   3.486
    1HEX    H1G15540   4.523  17.283   3.628
    1HEX    H1H15541   4.077  17.239   3.621
    1HEX    H1I15542   4.071  17.410   3.641
    1HEX    H1J15543   4.228   0.025   3.885
    1HEX    H1K15544   4.104  17.424   4.005
    1HEX    H1M15545   3.966   0.401   3.951
    1HEX    H1N15546   4.078   0.387   3.817
    1HEX    H1O15547   4.268   0.466   3.951
    1HEX    H1P15548   4.183   0.445   4.101
    1HEX    H1R15549   3.886  17.289   3.782
    1HEX    H1S15550   3.922  17.256   3.949
    1HEX    H1T15551   4.034  16.886   3.666
    1HEX    H1U15552   3.866  16.848   3.636
    1HEX    H1V15553   3.846  16.822   3.900
    1HEX    H1W15554   4.020  16.813   3.898
    1HEX    H1Y15555   4.229  17.130   3.815
    1HEX    H1Z15556   4.158  17.132   3.963
    1HEX    H2015557   4.317  17.419   4.066
    1HEX    H2115558   4.456  17.324   4.078
    1HEX    H2215559   4.307  17.042   4.159
    1HEX    H2315560   4.346  17.076   4.325
    1HEX    H2415561   4.732  17.110   4.105
    1HEX    H2515562   4.779  17.007   4.238
    1HEX    H2615563   4.861  17.207   4.368
    1HEX    H2715564   4.810  17.314   4.240
    1HEX    H2915565   4.315   0.009   4.307
    1HEX    H2A15566   4.460  17.354   4.313
    1HEX    H2B15567   4.302  17.195   4.667
    1HEX    H2C15568   4.236  17.347   4.727
    1HEX    H2D15569   4.464  17.418   4.803
    1HEX    H2E15570   4.534  17.272   4.736
    1HEX    H2G15571   4.097  17.241   4.117
    1HEX    H2H15572   4.116  17.373   4.220
    1HEX    H2I15573   3.831  17.269   4.408
    1HEX    H2J15574   3.770  17.106   4.389
    1HEX    H2K15575   3.704  17.170   4.144
    1HEX    H2M15576   3.739  17.335   4.186
    1STR    S0015577   4.498  17.166   3.269
    1STR    S0E15578   4.122   0.653   4.007
    1STR    S0M15579   3.918  16.619   3.791
    1STR    S0X15580   5.011  17.193   4.178
    1STR    S1415581   4.415  17.228   4.941
    1STR    S1B15582   3.533  17.260   4.285
    1HEX    C0115583   4.496  17.125   7.769
    1HEX    C0215584   4.476  17.161   7.918
    1HEX    C0315585   4.332  17.140   7.964
    1HEX    O0415586   4.281  17.028   7.958
    1HEX    O0515587   4.276  17.250   8.017
    1HEX    C0615588   4.141  17.244   8.063
    1HEX    C0715589   4.128  17.239   8.218
    1HEX    C0815590   4.135  17.384   8.276
    1HEX    O0915591   4.061   0.059   8.233
    1HEX    C0A15592   4.060   0.166   8.320
    1HEX    O0B15593   4.063   0.156   8.442
    1HEX    C0C15594   4.064   0.306   8.253
    1HEX    C0D15595   4.054   0.428   8.352
    1HEX    C0F15596   3.996  17.160   8.248
    1HEX    O0G15597   4.026  17.019   8.247
    1HEX    C0H15598   3.954  16.926   8.181
    1HEX    O0I15599   3.846  16.947   8.127
    1HEX    C0J15600   4.024  16.789   8.174
    1HEX    C0K15601   4.044  16.716   8.310
    1HEX    C0N15602   4.244  17.154   8.287
    1HEX    O0O15603   4.363  17.219   8.332
    1HEX    C0P15604   4.374  17.290   8.458
    1HEX    C0Q15605   4.321  17.230   8.594
    1HEX    C0R15606   4.370  17.084   8.610
    1HEX    O0S15607   4.503  17.065   8.561
    1HEX    C0T15608   4.611  17.068   8.642
    1HEX    O0U15609   4.608  17.085   8.764
    1HEX    C0V15610   4.743  17.046   8.568
    1HEX    C0W15611   4.848  17.155   8.600
    1HEX    C0Y15612   4.381  17.319   8.706
    1HEX    O0Z15613   4.335  17.282   8.835
    1HEX    C1015614   4.363  17.362   8.939
    1HEX    O1115615   4.424   0.029   8.932
    1HEX    C1215616   4.309  17.310   9.072
    1HEX    C1315617   4.410  17.322   9.188
    1HEX    C1515618   4.166  17.247   8.598
    1HEX    O1615619   4.089  17.202   8.710
    1HEX    C1715620   3.963  17.158   8.686
    1HEX    O1815621   3.927  17.094   8.587
    1HEX    C1915622   3.861  17.203   8.790
    1HEX    C1A15623   3.743  17.282   8.727
    1HEX    H1D15624   4.594  17.079   7.756
    1HEX    H1E15625   4.423  17.052   7.735
    1HEX    H1F15626   4.507  17.263   7.940
    1HEX    H1G15627   4.537  17.096   7.980
    1HEX    H1H15628   4.090  17.160   8.017
    1HEX    H1I15629   4.089  17.331   8.025
    1HEX    H1J15630   4.238  17.417   8.261
    1HEX    H1K15631   4.120  17.375   8.382
    1HEX    H1M15632   3.986   0.311   8.177
    1HEX    H1N15633   4.159   0.310   8.200
    1HEX    H1O15634   4.066   0.398   8.456
    1HEX    H1P15635   3.953   0.470   8.346
    1HEX    H1R15636   3.916  17.185   8.178
    1HEX    H1S15637   3.955  17.185   8.347
    1HEX    H1T15638   4.120  16.803   8.124
    1HEX    H1U15639   3.964  16.727   8.107
    1HEX    H1V15640   3.953  16.718   8.369
    1HEX    H1W15641   4.121  16.766   8.368
    1HEX    H1Y15642   4.276  17.079   8.215
    1HEX    H1Z15643   4.209  17.090   8.367
    1HEX    H2015644   4.339  17.392   8.447
    1HEX    H2115645   4.482  17.303   8.468
    1HEX    H2215646   4.306  17.016   8.555
    1HEX    H2315647   4.361  17.052   8.715
    1HEX    H2415648   4.725  17.040   8.461
    1HEX    H2515649   4.781  16.948   8.600
    1HEX    H2615650   4.825  17.249   8.550
    1HEX    H2715651   4.850  17.176   8.707
    1HEX    H2915652   4.356  17.424   8.688
    1HEX    H2A15653   4.490  17.314   8.706
    1HEX    H2B15654   4.278  17.206   9.059
    1HEX    H2C15655   4.219  17.367   9.092
    1HEX    H2D15656   4.498  17.378   9.156
    1HEX    H2E15657   4.446  17.224   9.219
    1HEX    H2G15658   4.122  17.203   8.510
    1HEX    H2H15659   4.143  17.353   8.593
    1HEX    H2I15660   3.911  17.262   8.867
    1HEX    H2J15661   3.825  17.112   8.838
    1HEX    H2K15662   3.744  17.277   8.618
    1HEX    H2M15663   3.747  17.388   8.753
    1STR    S0015664   4.491  17.273   7.664
    1STR    S0E15665   4.177   0.562   8.320
    1STR    S0M15666   4.094  16.540   8.284
    1STR    S0X15667   5.018  17.103   8.553
    1STR    S1415668   4.339  17.410   9.331
    1STR    S1B15669   3.584  17.216   8.786
    1HEX    C0115670   4.440  17.144  12.092
    1HEX    C0215671   4.427  17.204  12.234
    1HEX    C0315672   4.286  17.192  12.290
    1HEX    O0415673   4.222  17.087  12.280
    1HEX    O0515674   4.245  17.304  12.354
    1HEX    C0615675   4.111  17.312  12.402
    1HEX    C0715676   4.098  17.298  12.556
    1HEX    C0815677   4.124  17.437  12.624
    1HEX    O0915678   4.050   0.120  12.604
    1HEX    C0A15679   4.074   0.219  12.699
    1HEX    O0B15680   4.126   0.198  12.809
    1HEX    C0C15681   4.035   0.364  12.663
    1HEX    C0D15682   4.098   0.468  12.762
    1HEX    C0F15683   3.957  17.237  12.586
    1HEX    O0G15684   3.963  17.094  12.575
    1HEX    C0H15685   3.912  17.027  12.470
    1HEX    O0I15686   3.834  17.074  12.388
    1HEX    C0J15687   3.970  16.885  12.452
    1HEX    C0K15688   3.982  16.796  12.579
    1HEX    C0N15689   4.202  17.194  12.616
    1HEX    O0O15690   4.332  17.238  12.659
    1HEX    C0P15691   4.355  17.305  12.785
    1HEX    C0Q15692   4.307  17.246  12.922
    1HEX    C0R15693   4.364  17.102  12.938
    1HEX    O0S15694   4.502  17.088  12.894
    1HEX    C0T15695   4.608  17.096  12.979
    1HEX    O0U15696   4.602  17.126  13.098
    1HEX    C0V15697   4.742  17.059  12.914
    1HEX    C0W15698   4.849  17.172  12.910
    1HEX    C0Y15699   4.369  17.337  13.031
    1HEX    O0Z15700   4.320  17.303  13.159
    1HEX    C1015701   4.355  17.378  13.263
    1HEX    O1115702   4.433   0.034  13.260
    1HEX    C1215703   4.284  17.337  13.391
    1HEX    C1315704   4.361  17.380  13.516
    1HEX    C1515705   4.150  17.260  12.936
    1HEX    O1615706   4.071  17.187  13.031
    1HEX    C1715707   3.970  17.108  12.982
    1HEX    O1815708   3.978  17.043  12.879
    1HEX    C1915709   3.837  17.116  13.059
    1HEX    C1A15710   3.727  17.183  12.971
    1HEX    H1D15711   4.539  17.101  12.080
    1HEX    H1E15712   4.369  17.063  12.076
    1HEX    H1F15713   4.459  17.308  12.236
    1HEX    H1G15714   4.490  17.149  12.303
    1HEX    H1H15715   4.048  17.239  12.350
    1HEX    H1I15716   4.070  17.408  12.369
    1HEX    H1J15717   4.226   0.024  12.599
    1HEX    H1K15718   4.119  17.419  12.730
    1HEX    H1M15719   3.926   0.371  12.663
    1HEX    H1N15720   4.068   0.384  12.561
    1HEX    H1O15721   4.207   0.467  12.752
    1HEX    H1P15722   4.079   0.438  12.865
    1HEX    H1R15723   3.880  17.280  12.522
    1HEX    H1S15724   3.925  17.260  12.688
    1HEX    H1T15725   4.068  16.898  12.407
    1HEX    H1U15726   3.909  16.834  12.378
    1HEX    H1V15727   3.883  16.765  12.613
    1HEX    H1W15728   4.028  16.849  12.662
    1HEX    H1Y15729   4.222  17.120  12.538
    1HEX    H1Z15730   4.162  17.128  12.692
    1HEX    H2015731   4.329  17.410  12.780
    1HEX    H2115732   4.464  17.310  12.789
    1HEX    H2215733   4.305  17.033  12.878
    1HEX    H2315734   4.353  17.067  13.041
    1HEX    H2415735   4.724  17.019  12.814
    1HEX    H2515736   4.781  16.976  12.973
    1HEX    H2615737   4.853  17.226  13.004
    1HEX    H2715738   4.824  17.245  12.833
    1HEX    H2915739   4.344   0.002  13.012
    1HEX    H2A15740   4.478  17.333  13.030
    1HEX    H2B15741   4.273  17.228  13.389
    1HEX    H2C15742   4.184  17.380  13.389
    1HEX    H2D15743   4.377   0.048  13.519
    1HEX    H2E15744   4.460  17.334  13.517
    1HEX    H2G15745   4.102  17.247  12.841
    1HEX    H2H15746   4.129  17.365  12.959
    1HEX    H2I15747   3.850  17.167  13.154
    1HEX    H2J15748   3.807  17.013  13.081
    1HEX    H2K15749   3.736  17.147  12.869
    1HEX    H2M15750   3.745  17.290  12.966
    1STR    S0015751   4.417  17.266  11.958
    1STR    S0E15752   4.040   0.642  12.749
    1STR    S0M15753   4.081  16.645  12.537
    1STR    S0X15754   5.016  17.103  12.874
    1STR    S1415755   4.270  17.327  13.663
    1STR    S1B15756   3.553  17.158  13.024
    1HEX    C0115757   4.486   4.150  16.484
    1HEX    C0215758   4.448   4.118  16.632
    1HEX    C0315759   4.299   4.109  16.659
    1HEX    O0415760   4.235   4.010  16.622
    1HEX    O0515761   4.252   4.213  16.730
    1HEX    C0615762   4.116   4.216  16.771
    1HEX    C0715763   4.099   4.210  16.925
    1HEX    C0815764   4.122   4.353  16.986
    1HEX    O0915765   4.067   4.478  16.941
    1HEX    C0A15766   4.101   4.591  17.016
    1HEX    O0B15767   4.147   4.585  17.130
    1HEX    C0C15768   4.087   4.728  16.946
    1HEX    C0D15769   4.043   4.849  17.036
    1HEX    C0F15770   3.956   4.149  16.952
    1HEX    O0G15771   3.963   4.005  16.961
    1HEX    C0H15772   3.902   3.919  16.877
    1HEX    O0I15773   3.826   3.951  16.785
    1HEX    C0J15774   3.940   3.772  16.903
    1HEX    C0K15775   3.820   3.673  16.913
    1HEX    C0N15776   4.203   4.110  16.991
    1HEX    O0O15777   4.330   4.159  17.039
    1HEX    C0P15778   4.347   4.230  17.164
    1HEX    C0Q15779   4.297   4.174  17.302
    1HEX    C0R15780   4.352   4.029  17.320
    1HEX    O0S15781   4.490   4.018  17.278
    1HEX    C0T15782   4.595   4.023  17.365
    1HEX    O0U15783   4.586   4.033   0.047
    1HEX    C0V15784   4.732   4.014  17.295
    1HEX    C0W15785   4.852   4.065  17.380
    1HEX    C0Y15786   4.359   4.265  17.411
    1HEX    O0Z15787   4.318   4.232   0.103
    1HEX    C1015788   4.373   4.300   0.205
    1HEX    O1115789   4.460   4.387   0.194
    1HEX    C1215790   4.317   4.261   0.341
    1HEX    C1315791   4.424   4.205   0.437
    1HEX    C1515792   4.140   4.192  17.308
    1HEX    O1615793   4.056   4.134  17.409
    1HEX    C1715794   3.940   4.074  17.367
    1HEX    O1815795   3.930   4.006  17.265
    1HEX    C1915796   3.816   4.103   0.012
    1HEX    C1A15797   3.711   4.186  17.372
    1HEX    H1D15798   4.453   4.046  16.470
    1HEX    H1E15799   4.433   4.244  16.489
    1HEX    H1F15800   4.489   4.195  16.698
    1HEX    H1G15801   4.493   4.024  16.666
    1HEX    H1H15802   4.059   4.135  16.723
    1HEX    H1I15803   4.070   4.307  16.731
    1HEX    H1J15804   4.228   4.372  16.972
    1HEX    H1K15805   4.102   4.348  17.092
    1HEX    H1M15806   4.012   4.713  16.869
    1HEX    H1N15807   4.180   4.751  16.895
    1HEX    H1O15808   3.974   4.811  17.112
    1HEX    H1P15809   3.986   4.920  16.977
    1HEX    H1R15810   3.882   4.181  16.877
    1HEX    H1S15811   3.916   4.184  17.047
    1HEX    H1T15812   3.997   3.769  16.996
    1HEX    H1U15813   4.008   3.739  16.824
    1HEX    H1V15814   3.801   3.627  16.816
    1HEX    H1W15815   3.730   3.729  16.937
    1HEX    H1Y15816   4.227   4.036  16.916
    1HEX    H1Z15817   4.161   4.046  17.069
    1HEX    H2015818   4.317   4.334  17.156
    1HEX    H2115819   4.456   4.239  17.171
    1HEX    H2215820   4.294   3.960  17.259
    1HEX    H2315821   4.339   3.996  17.423
    1HEX    H2415822   4.724   4.071  17.203
    1HEX    H2515823   4.748   3.910  17.265
    1HEX    H2615824   4.822   4.152  17.438
    1HEX    H2715825   4.881   3.990   0.013
    1HEX    H2915826   4.333   4.370  17.393
    1HEX    H2A15827   4.468   4.261  17.406
    1HEX    H2B15828   4.239   4.187   0.325
    1HEX    H2C15829   4.267   4.348   0.384
    1HEX    H2D15830   4.516   4.184   0.382
    1HEX    H2E15831   4.391   4.110   0.480
    1HEX    H2G15832   4.096   4.169  17.212
    1HEX    H2H15833   4.120   4.299  17.317
    1HEX    H2I15834   3.844   4.152   0.106
    1HEX    H2J15835   3.773   4.006   0.040
    1HEX    H2K15836   3.717   4.164  17.266
    1HEX    H2M15837   3.732   4.293  17.382
    1STR    S0015838   4.394   4.123  16.327
    1STR    S0E15839   4.172   4.946  17.127
    1STR    S0M15840   3.837   3.540  17.039
    1STR    S0X15841   4.998   4.113  17.278
    1STR    S1415842   4.464   4.318   0.574
    1STR    S1B15843   3.535   4.160  17.421
    1HEX    C0115844   4.489   4.086   3.395
    1HEX    C0215845   4.455   4.150   3.531
    1HEX    C0315846   4.329   4.095   3.595
    1HEX    O0415847   4.306   3.974   3.599
    1HEX    O0515848   4.251   4.192   3.647
    1HEX    C0615849   4.121   4.161   3.695
    1HEX    C0715850   4.110   4.159   3.850
    1HEX    C0815851   4.115   4.306   3.906
    1HEX    O0915852   4.037   4.421   3.866
    1HEX    C0A15853   4.055   4.534   3.947
    1HEX    O0B15854   4.109   4.529   4.057
    1HEX    C0C15855   4.008   4.671   3.892
    1HEX    C0D15856   4.076   4.790   3.969
    1HEX    C0F15857   3.980   4.077   3.882
    1HEX    O0G15858   4.013   3.936   3.881
    1HEX    C0H15859   3.948   3.844   3.809
    1HEX    O0I15860   3.843   3.864   3.749
    1HEX    C0J15861   4.022   3.710   3.798
    1HEX    C0K15862   4.047   3.635   3.932
    1HEX    C0N15863   4.228   4.078   3.917
    1HEX    O0O15864   4.347   4.144   3.962
    1HEX    C0P15865   4.356   4.216   4.086
    1HEX    C0Q15866   4.307   4.156   4.223
    1HEX    C0R15867   4.366   4.013   4.242
    1HEX    O0S15868   4.505   4.004   4.208
    1HEX    C0T15869   4.602   4.004   4.302
    1HEX    O0U15870   4.585   4.020   4.423
    1HEX    C0V15871   4.742   3.975   4.246
    1HEX    C0W15872   4.835   4.099   4.239
    1HEX    C0Y15873   4.365   4.249   4.332
    1HEX    O0Z15874   4.326   4.210   4.463
    1HEX    C1015875   4.379   4.277   4.567
    1HEX    O1115876   4.460   4.368   4.559
    1HEX    C1215877   4.322   4.231   4.701
    1HEX    C1315878   4.411   4.270   4.821
    1HEX    C1515879   4.151   4.163   4.231
    1HEX    O1615880   4.079   4.111   4.344
    1HEX    C1715881   3.956   4.055   4.323
    1HEX    O1815882   3.922   3.998   4.219
    1HEX    C1915883   3.857   4.072   4.438
    1HEX    C1A15884   3.728   4.148   4.394
    1HEX    H1D15885   4.509   3.980   3.409
    1HEX    H1E15886   4.578   4.131   3.353
    1HEX    H1F15887   4.444   4.258   3.521
    1HEX    H1G15888   4.537   4.135   3.602
    1HEX    H1H15889   4.086   4.067   3.652
    1HEX    H1I15890   4.053   4.237   3.655
    1HEX    H1J15891   4.216   4.340   3.888
    1HEX    H1K15892   4.101   4.296   4.013
    1HEX    H1M15893   3.899   4.676   3.900
    1HEX    H1N15894   4.032   4.676   3.786
    1HEX    H1O15895   4.183   4.790   3.947
    1HEX    H1P15896   4.070   4.772   4.077
    1HEX    H1R15897   3.899   4.101   3.812
    1HEX    H1S15898   3.940   4.102   3.980
    1HEX    H1T15899   4.116   3.728   3.746
    1HEX    H1U15900   3.963   3.647   3.732
    1HEX    H1V15901   3.958   3.635   3.995
    1HEX    H1W15902   4.125   3.686   3.990
    1HEX    H1Y15903   4.262   4.004   3.844
    1HEX    H1Z15904   4.196   4.012   3.997
    1HEX    H2015905   4.316   4.317   4.075
    1HEX    H2115906   4.463   4.234   4.094
    1HEX    H2215907   4.313   3.943   4.178
    1HEX    H2315908   4.347   3.978   4.344
    1HEX    H2415909   4.733   3.928   4.148
    1HEX    H2515910   4.785   3.900   4.311
    1HEX    H2615911   4.790   4.182   4.292
    1HEX    H2715912   4.847   4.132   4.135
    1HEX    H2915913   4.333   4.352   4.316
    1HEX    H2A15914   4.474   4.251   4.327
    1HEX    H2B15915   4.306   4.123   4.697
    1HEX    H2C15916   4.224   4.277   4.708
    1HEX    H2D15917   4.466   4.361   4.800
    1HEX    H2E15918   4.486   4.193   4.840
    1HEX    H2G15919   4.107   4.121   4.142
    1HEX    H2H15920   4.122   4.269   4.228
    1HEX    H2I15921   3.906   4.125   4.520
    1HEX    H2J15922   3.832   3.973   4.475
    1HEX    H2K15923   3.733   4.175   4.288
    1HEX    H2M15924   3.717   4.242   4.448
    1STR    S0015925   4.356   4.100   3.271
    1STR    S0E15926   4.011   4.962   3.947
    1STR    S0M15927   4.100   3.460   3.901
    1STR    S0X15928   5.000   4.066   4.314
    1STR    S1415929   4.308   4.302   4.968
    1STR    S1B15930   3.572   4.053   4.415
    1HEX    C0115931   4.503   4.099   7.759
    1HEX    C0215932   4.471   4.164   7.895
    1HEX    C0315933   4.329   4.137   7.942
    1HEX    O0415934   4.281   4.023   7.936
    1HEX    O0515935   4.269   4.246   7.993
    1HEX    C0615936   4.132   4.240   8.030
    1HEX    C0715937   4.109   4.224   8.183
    1HEX    C0815938   4.130   4.363   8.255
    1HEX    O0915939   4.067   4.491   8.234
    1HEX    C0A15940   4.100   4.588   8.329
    1HEX    O0B15941   4.155   4.561   8.436
    1HEX    C0C15942   4.069   4.736   8.296
    1HEX    C0D15943   4.159   4.835   8.381
    1HEX    C0F15944   3.968   4.159   8.202
    1HEX    O0G15945   3.978   4.016   8.181
    1HEX    C0H15946   3.929   3.956   8.071
    1HEX    O0I15947   3.855   4.010   7.990
    1HEX    C0J15948   3.977   3.811   8.046
    1HEX    C0K15949   4.010   3.724   8.170
    1HEX    C0N15950   4.211   4.121   8.249
    1HEX    O0O15951   4.338   4.167   8.298
    1HEX    C0P15952   4.356   4.235   8.424
    1HEX    C0Q15953   4.305   4.173   8.558
    1HEX    C0R15954   4.366   4.031   8.573
    1HEX    O0S15955   4.506   4.024   8.534
    1HEX    C0T15956   4.610   4.036   8.622
    1HEX    O0U15957   4.599   4.057   8.742
    1HEX    C0V15958   4.748   4.017   8.558
    1HEX    C0W15959   4.851   4.131   8.584
    1HEX    C0Y15960   4.361   4.263   8.671
    1HEX    O0Z15961   4.315   4.214   8.795
    1HEX    C1015962   4.351   4.276   8.906
    1HEX    O1115963   4.421   4.377   8.912
    1HEX    C1215964   4.293   4.210   9.029
    1HEX    C1315965   4.360   4.262   9.156
    1HEX    C1515966   4.147   4.187   8.566
    1HEX    O1615967   4.063   4.122   8.662
    1HEX    C1715968   3.958   4.049   8.614
    1HEX    O1815969   3.966   3.972   8.518
    1HEX    C1915970   3.820   4.080   8.677
    1HEX    C1A15971   3.721   4.131   8.568
    1HEX    H1D15972   4.610   4.088   7.749
    1HEX    H1E15973   4.460   3.999   7.753
    1HEX    H1F15974   4.488   4.272   7.893
    1HEX    H1G15975   4.535   4.123   7.973
    1HEX    H1H15976   4.082   4.161   7.974
    1HEX    H1I15977   4.084   4.332   7.995
    1HEX    H1J15978   4.235   4.387   8.238
    1HEX    H1K15979   4.114   4.343   8.360
    1HEX    H1M15980   3.964   4.754   8.317
    1HEX    H1N15981   4.085   4.753   8.190
    1HEX    H1O15982   4.263   4.829   8.346
    1HEX    H1P15983   4.163   4.801   8.485
    1HEX    H1R15984   3.893   4.205   8.138
    1HEX    H1S15985   3.931   4.174   8.304
    1HEX    H1T15986   4.065   3.819   7.982
    1HEX    H1U15987   3.900   3.763   7.987
    1HEX    H1V15988   3.927   3.724   8.241
    1HEX    H1W15989   4.097   3.762   8.224
    1HEX    H1Y15990   4.234   4.047   8.173
    1HEX    H1Z15991   4.166   4.054   8.322
    1HEX    H2015992   4.326   4.340   8.419
    1HEX    H2115993   4.464   4.244   8.431
    1HEX    H2215994   4.311   3.962   8.508
    1HEX    H2315995   4.353   3.993   8.674
    1HEX    H2415996   4.735   4.002   8.450
    1HEX    H2515997   4.787   3.923   8.597
    1HEX    H2615998   4.862   4.148   8.691
    1HEX    H2715999   4.815   4.225   8.542
    1HEX    H2916000   4.328   4.367   8.659
    1HEX    H2A16001   4.470   4.266   8.670
    1HEX    H2B16002   4.307   4.102   9.018
    1HEX    H2C16003   4.185   4.229   9.031
    1HEX    H2D16004   4.339   4.368   9.167
    1HEX    H2E16005   4.468   4.253   9.148
    1HEX    H2G16006   4.102   4.168   8.470
    1HEX    H2H16007   4.125   4.293   8.581
    1HEX    H2I16008   3.831   4.151   8.758
    1HEX    H2J16009   3.783   3.987   8.720
    1HEX    H2K16010   3.730   4.069   8.479
    1HEX    H2M16011   3.747   4.232   8.537
    1STR    S0016012   4.444   4.195   7.617
    1STR    S0E16013   4.109   5.012   8.391
    1STR    S0M16014   4.042   3.549   8.117
    1STR    S0X16015   5.017   4.093   8.512
    1STR    S1416016   4.304   4.170   9.302
    1STR    S1B16017   3.542   4.132   8.612
    1HEX    C0116018   4.453   3.983  12.158
    1HEX    C0216019   4.433   4.067  12.286
    1HEX    C0316020   4.294   4.052  12.345
    1HEX    O0416021   4.241   3.940  12.353
    1HEX    O0516022   4.242   4.168  12.388
    1HEX    C0616023   4.108   4.173  12.436
    1HEX    C0716024   4.095   4.178  12.591
    1HEX    C0816025   4.118   4.325  12.642
    1HEX    O0916026   4.048   4.445  12.602
    1HEX    C0A16027   4.088   4.562  12.667
    1HEX    O0B16028   4.174   4.564  12.756
    1HEX    C0C16029   4.024   4.694  12.618
    1HEX    C0D16030   4.004   4.805  12.727
    1HEX    C0F16031   3.954   4.116  12.626
    1HEX    O0G16032   3.966   3.972  12.636
    1HEX    C0H16033   3.919   3.886  12.544
    1HEX    O0I16034   3.842   3.915  12.453
    1HEX    C0J16035   3.982   3.746  12.553
    1HEX    C0K16036   3.923   3.649  12.658
    1HEX    C0N16037   4.201   4.084  12.663
    1HEX    O0O16038   4.330   4.136  12.700
    1HEX    C0P16039   4.350   4.214  12.820
    1HEX    C0Q16040   4.302   4.162  12.960
    1HEX    C0R16041   4.352   4.016  12.981
    1HEX    O0S16042   4.489   3.994  12.938
    1HEX    C0T16043   4.594   3.994  13.023
    1HEX    O0U16044   4.590   4.021  13.143
    1HEX    C0V16045   4.727   3.952  12.959
    1HEX    C0W16046   4.835   4.064  12.953
    1HEX    C0Y16047   4.369   4.254  13.065
    1HEX    O0Z16048   4.324   4.225  13.196
    1HEX    C1016049   4.383   4.288  13.299
    1HEX    O1116050   4.486   4.356  13.291
    1HEX    C1216051   4.311   4.266  13.431
    1HEX    C1316052   4.408   4.240  13.548
    1HEX    C1516053   4.146   4.184  12.974
    1HEX    O1616054   4.069   4.121  13.077
    1HEX    C1716055   3.961   4.046  13.040
    1HEX    O1816056   3.962   3.970  12.944
    1HEX    C1916057   3.833   4.068  13.123
    1HEX    C1A16058   3.720   4.132  13.038
    1HEX    H1D16059   4.524   3.904  12.176
    1HEX    H1E16060   4.360   3.935  12.127
    1HEX    H1F16061   4.448   4.174  12.267
    1HEX    H1G16062   4.504   4.039  12.364
    1HEX    H1H16063   4.051   4.090  12.395
    1HEX    H1I16064   4.060   4.262  12.394
    1HEX    H1J16065   4.221   4.349  12.618
    1HEX    H1K16066   4.107   4.325  12.750
    1HEX    H1M16067   3.926   4.668  12.579
    1HEX    H1N16068   4.081   4.733  12.535
    1HEX    H1O16069   3.983   4.759  12.823
    1HEX    H1P16070   3.915   4.865  12.705
    1HEX    H1R16071   3.877   4.146  12.554
    1HEX    H1S16072   3.918   4.153  12.722
    1HEX    H1T16073   4.089   3.761  12.571
    1HEX    H1U16074   3.974   3.702  12.454
    1HEX    H1V16075   3.817   3.631  12.640
    1HEX    H1W16076   3.930   3.691  12.758
    1HEX    H1Y16077   4.220   4.001  12.596
    1HEX    H1Z16078   4.160   4.030  12.748
    1HEX    H2016079   4.318   4.317  12.807
    1HEX    H2116080   4.458   4.224  12.824
    1HEX    H2216081   4.288   3.948  12.925
    1HEX    H2316082   4.339   3.987  13.086
    1HEX    H2416083   4.707   3.911  12.860
    1HEX    H2516084   4.763   3.870  13.020
    1HEX    H2616085   4.813   4.141  13.026
    1HEX    H2716086   4.831   4.114  12.856
    1HEX    H2916087   4.348   4.359  13.045
    1HEX    H2A16088   4.478   4.245  13.061
    1HEX    H2B16089   4.240   4.184  13.421
    1HEX    H2C16090   4.250   4.356  13.448
    1HEX    H2D16091   4.510   4.257  13.517
    1HEX    H2E16092   4.402   4.137  13.582
    1HEX    H2G16093   4.094   4.165  12.882
    1HEX    H2H16094   4.129   4.291  12.988
    1HEX    H2I16095   3.855   4.129  13.210
    1HEX    H2J16096   3.800   3.971  13.159
    1HEX    H2K16097   3.707   4.080  12.943
    1HEX    H2M16098   3.744   4.236  13.013
    1STR    S0016099   4.511   4.087  12.020
    1STR    S0E16100   4.144   4.925  12.754
    1STR    S0M16101   4.013   3.487  12.653
    1STR    S0X16102   5.008   4.004  12.984
    1STR    S1416103   4.376   4.353  13.688
    1STR    S1B16104   3.556   4.135  13.121
    1HEX    C0116105   4.508   8.452  16.569
    1HEX    C0216106   4.438   8.374  16.680
    1HEX    C0316107   4.291   8.410  16.686
    1HEX    O0416108   4.204   8.333  16.646
    1HEX    O0516109   4.273   8.531  16.744
    1HEX    C0616110   4.143   8.580  16.773
    1HEX    C0716111   4.092   8.541  16.915
    1HEX    C0816112   4.050   8.668  16.999
    1HEX    O0916113   4.039   8.804  16.948
    1HEX    C0A16114   4.049   8.907  17.041
    1HEX    O0B16115   4.073   8.890  17.161
    1HEX    C0C16116   4.028   9.052  16.989
    1HEX    C0D16117   4.066   9.161  17.096
    1HEX    C0F16118   3.969   8.444  16.896
    1HEX    O0G16119   4.017   8.315  16.854
    1HEX    C0H16120   3.938   8.208  16.838
    1HEX    O0I16121   3.816   8.207  16.853
    1HEX    C0J16122   4.015   8.081  16.798
    1HEX    C0K16123   4.017   7.972  16.909
    1HEX    C0N16124   4.197   8.454  16.997
    1HEX    O0O16125   4.325   8.507  17.031
    1HEX    C0P16126   4.351   8.581  17.152
    1HEX    C0Q16127   4.308   8.524  17.291
    1HEX    C0R16128   4.362   8.379  17.308
    1HEX    O0S16129   4.501   8.362  17.269
    1HEX    C0T16130   4.603   8.364  17.359
    1HEX    O0U16131   4.592   8.392   0.038
    1HEX    C0V16132   4.738   8.318  17.302
    1HEX    C0W16133   4.846   8.429  17.290
    1HEX    C0Y16134   4.375   8.615  17.396
    1HEX    O0Z16135   4.329   8.586   0.086
    1HEX    C1016136   4.375   8.659   0.188
    1HEX    O1116137   4.465   8.743   0.181
    1HEX    C1216138   4.301   8.630   0.317
    1HEX    C1316139   4.389   8.653   0.441
    1HEX    C1516140   4.152   8.540  17.311
    1HEX    O1616141   4.076   8.452  17.396
    1HEX    C1716142   3.955   8.405  17.349
    1HEX    O1816143   3.929   8.386  17.230
    1HEX    C1916144   3.848   8.379   0.016
    1HEX    C1A16145   3.714   8.455  17.431
    1HEX    H1D16146   4.616   8.449  16.584
    1HEX    H1E16147   4.478   8.556  16.570
    1HEX    H1F16148   4.480   8.399  16.777
    1HEX    H1G16149   4.448   8.266  16.667
    1HEX    H1H16150   4.075   8.546  16.695
    1HEX    H1I16151   4.146   8.688  16.761
    1HEX    H1J16152   4.131   8.680  17.069
    1HEX    H1K16153   3.963   8.648  17.061
    1HEX    H1M16154   3.923   9.061  16.962
    1HEX    H1N16155   4.086   9.065  16.898
    1HEX    H1O16156   4.173   9.159  17.116
    1HEX    H1P16157   4.018   9.139  17.191
    1HEX    H1R16158   3.897   8.481  16.824
    1HEX    H1S16159   3.913   8.430  16.989
    1HEX    H1T16160   4.116   8.112  16.772
    1HEX    H1U16161   3.971   8.042  16.707
    1HEX    H1V16162   3.918   7.928  16.919
    1HEX    H1W16163   4.039   8.018  17.005
    1HEX    H1Y16164   4.226   8.370  16.934
    1HEX    H1Z16165   4.151   8.400  17.079
    1HEX    H2016166   4.321   8.685  17.141
    1HEX    H2116167   4.460   8.588  17.153
    1HEX    H2216168   4.303   8.311  17.247
    1HEX    H2316169   4.347   8.346  17.411
    1HEX    H2416170   4.722   8.268  17.207
    1HEX    H2516171   4.773   8.242  17.371
    1HEX    H2616172   4.840   8.500  17.372
    1HEX    H2716173   4.831   8.486  17.198
    1HEX    H2916174   4.353   8.721  17.376
    1HEX    H2A16175   4.484   8.607  17.393
    1HEX    H2B16176   4.266   8.527   0.315
    1HEX    H2C16177   4.213   8.694   0.319
    1HEX    H2D16178   4.436   8.751   0.441
    1HEX    H2E16179   4.470   8.580   0.443
    1HEX    H2G16180   4.103   8.543  17.216
    1HEX    H2H16181   4.132   8.641  17.348
    1HEX    H2I16182   3.890   8.412   0.111
    1HEX    H2J16183   3.831   8.272   0.026
    1HEX    H2K16184   3.730   8.541  17.367
    1HEX    H2M16185   3.676   8.495   0.085
    1STR    S0016186   4.474   8.383  16.404
    1STR    S0E16187   4.019   9.335  17.054
    1STR    S0M16188   4.141   7.839  16.879
    1STR    S0X16189   5.015   8.354  17.288
    1STR    S1416190   4.284   8.634   0.588
    1STR    S1B16191   3.576   8.356  17.358
    1HEX    C0116192   4.553   8.485   3.470
    1HEX    C0216193   4.470   8.583   3.557
    1HEX    C0316194   4.333   8.529   3.596
    1HEX    O0416195   4.304   8.409   3.586
    1HEX    O0516196   4.253   8.625   3.647
    1HEX    C0616197   4.117   8.596   3.678
    1HEX    C0716198   4.092   8.580   3.830
    1HEX    C0816199   4.111   8.718   3.901
    1HEX    O0916200   4.052   8.846   3.871
    1HEX    C0A16201   4.083   8.947   3.960
    1HEX    O0B16202   4.133   8.926   4.072
    1HEX    C0C16203   4.059   9.093   3.916
    1HEX    C0D16204   4.160   9.193   3.983
    1HEX    C0F16205   3.947   8.519   3.847
    1HEX    O0G16206   3.951   8.375   3.853
    1HEX    C0H16207   3.913   8.295   3.751
    1HEX    O0I16208   3.854   8.332   3.650
    1HEX    C0J16209   3.956   8.148   3.771
    1HEX    C0K16210   3.848   8.042   3.738
    1HEX    C0N16211   4.194   8.477   3.896
    1HEX    O0O16212   4.320   8.523   3.949
    1HEX    C0P16213   4.337   8.593   4.074
    1HEX    C0Q16214   4.290   8.532   4.211
    1HEX    C0R16215   4.354   8.391   4.226
    1HEX    O0S16216   4.495   8.389   4.190
    1HEX    C0T16217   4.596   8.396   4.281
    1HEX    O0U16218   4.582   8.406   4.402
    1HEX    C0V16219   4.737   8.384   4.217
    1HEX    C0W16220   4.840   8.488   4.269
    1HEX    C0Y16221   4.345   8.625   4.321
    1HEX    O0Z16222   4.317   8.577   4.452
    1HEX    C1016223   4.363   8.647   4.556
    1HEX    O1116224   4.423   8.755   4.548
    1HEX    C1216225   4.337   8.582   4.691
    1HEX    C1316226   4.450   8.617   4.789
    1HEX    C1516227   4.132   8.542   4.217
    1HEX    O1616228   4.053   8.496   4.327
    1HEX    C1716229   3.937   8.429   4.296
    1HEX    O1816230   3.931   8.336   4.216
    1HEX    C1916231   3.809   8.482   4.362
    1HEX    C1A16232   3.706   8.532   4.257
    1HEX    H1D16233   4.658   8.498   3.492
    1HEX    H1E16234   4.530   8.382   3.498
    1HEX    H1F16235   4.457   8.678   3.506
    1HEX    H1G16236   4.521   8.603   3.650
    1HEX    H1H16237   4.083   8.507   3.623
    1HEX    H1I16238   4.057   8.677   3.639
    1HEX    H1J16239   4.217   8.741   3.888
    1HEX    H1K16240   4.091   8.700   4.006
    1HEX    H1M16241   3.956   9.119   3.942
    1HEX    H1N16242   4.066   9.099   3.807
    1HEX    H1O16243   4.258   9.184   3.934
    1HEX    H1P16244   4.178   9.165   4.087
    1HEX    H1R16245   3.879   8.554   3.769
    1HEX    H1S16246   3.903   8.553   3.941
    1HEX    H1T16247   3.990   8.137   3.873
    1HEX    H1U16248   4.043   8.131   3.707
    1HEX    H1V16249   3.860   8.005   3.636
    1HEX    H1W16250   3.749   8.089   3.741
    1HEX    H1Y16251   4.220   8.406   3.817
    1HEX    H1Z16252   4.149   8.408   3.966
    1HEX    H2016253   4.304   8.696   4.069
    1HEX    H2116254   4.445   8.604   4.079
    1HEX    H2216255   4.303   8.321   4.160
    1HEX    H2316256   4.339   8.352   4.327
    1HEX    H2416257   4.726   8.391   4.109
    1HEX    H2516258   4.773   8.284   4.239
    1HEX    H2616259   4.852   8.479   4.377
    1HEX    H2716260   4.804   8.590   4.251
    1HEX    H2916261   4.306   8.726   4.311
    1HEX    H2A16262   4.454   8.634   4.312
    1HEX    H2B16263   4.331   8.474   4.676
    1HEX    H2C16264   4.240   8.616   4.728
    1HEX    H2D16265   4.454   8.725   4.804
    1HEX    H2E16266   4.546   8.589   4.744
    1HEX    H2G16267   4.087   8.503   4.127
    1HEX    H2H16268   4.107   8.648   4.213
    1HEX    H2I16269   3.834   8.561   4.433
    1HEX    H2J16270   3.766   8.400   4.419
    1HEX    H2K16271   3.702   8.465   4.171
    1HEX    H2M16272   3.738   8.629   4.217
    1STR    S0016273   4.533   8.501   3.289
    1STR    S0E16274   4.113   9.372   3.991
    1STR    S0M16275   3.843   7.897   3.852
    1STR    S0X16276   5.006   8.472   4.188
    1STR    S1416277   4.435   8.537   4.951
    1STR    S1B16278   3.534   8.550   4.319
    1HEX    C0116279   4.485   8.444   7.768
    1HEX    C0216280   4.471   8.469   7.919
    1HEX    C0316281   4.334   8.430   7.972
    1HEX    O0416282   4.297   8.313   7.968
    1HEX    O0516283   4.265   8.533   8.025
    1HEX    C0616284   4.132   8.512   8.071
    1HEX    C0716285   4.119   8.511   8.226
    1HEX    C0816286   4.131   8.657   8.280
    1HEX    O0916287   4.062   8.774   8.235
    1HEX    C0A16288   4.083   8.887   8.312
    1HEX    O0B16289   4.127   8.884   8.427
    1HEX    C0C16290   4.057   9.023   8.243
    1HEX    C0D16291   4.065   9.147   8.339
    1HEX    C0F16292   3.984   8.438   8.261
    1HEX    O0G16293   4.005   8.295   8.268
    1HEX    C0H16294   3.951   8.208   8.181
    1HEX    O0I16295   3.868   8.238   8.096
    1HEX    C0J16296   4.010   8.066   8.188
    1HEX    C0K16297   4.014   7.997   8.328
    1HEX    C0N16298   4.233   8.425   8.296
    1HEX    O0O16299   4.354   8.487   8.341
    1HEX    C0P16300   4.365   8.563   8.464
    1HEX    C0Q16301   4.312   8.511   8.602
    1HEX    C0R16302   4.364   8.367   8.628
    1HEX    O0S16303   4.503   8.351   8.596
    1HEX    C0T16304   4.600   8.357   8.690
    1HEX    O0U16305   4.583   8.387   8.808
    1HEX    C0V16306   4.739   8.320   8.639
    1HEX    C0W16307   4.840   8.437   8.636
    1HEX    C0Y16308   4.369   8.607   8.709
    1HEX    O0Z16309   4.328   8.573   8.840
    1HEX    C1016310   4.376   8.644   8.942
    1HEX    O1116311   4.458   8.736   8.932
    1HEX    C1216312   4.317   8.603   9.076
    1HEX    C1316313   4.415   8.619   9.194
    1HEX    C1516314   4.155   8.525   8.607
    1HEX    O1616315   4.079   8.483   8.721
    1HEX    C1716316   3.956   8.429   8.699
    1HEX    O1816317   3.928   8.359   8.601
    1HEX    C1916318   3.849   8.465   8.802
    1HEX    C1A16319   3.730   8.539   8.735
    1HEX    H1D16320   4.586   8.413   7.743
    1HEX    H1E16321   4.419   8.363   7.737
    1HEX    H1F16322   4.493   8.573   7.946
    1HEX    H1G16323   4.542   8.407   7.973
    1HEX    H1H16324   4.090   8.421   8.029
    1HEX    H1I16325   4.070   8.592   8.030
    1HEX    H1J16326   4.234   8.686   8.264
    1HEX    H1K16327   4.112   8.651   8.386
    1HEX    H1M16328   3.960   9.019   8.193
    1HEX    H1N16329   4.133   9.031   8.166
    1HEX    H1O16330   4.112   9.125   8.434
    1HEX    H1P16331   3.964   9.180   8.365
    1HEX    H1R16332   3.905   8.464   8.190
    1HEX    H1S16333   3.946   8.470   8.358
    1HEX    H1T16334   4.110   8.070   8.146
    1HEX    H1U16335   3.951   8.004   8.120
    1HEX    H1V16336   3.916   7.998   8.376
    1HEX    H1W16337   4.082   8.051   8.395
    1HEX    H1Y16338   4.263   8.349   8.225
    1HEX    H1Z16339   4.197   8.363   8.378
    1HEX    H2016340   4.330   8.666   8.450
    1HEX    H2116341   4.473   8.576   8.474
    1HEX    H2216342   4.308   8.296   8.567
    1HEX    H2316343   4.344   8.338   8.731
    1HEX    H2416344   4.731   8.271   8.542
    1HEX    H2516345   4.775   8.243   8.708
    1HEX    H2616346   4.816   8.512   8.712
    1HEX    H2716347   4.833   8.488   8.540
    1HEX    H2916348   4.339   8.710   8.689
    1HEX    H2A16349   4.479   8.607   8.706
    1HEX    H2B16350   4.281   8.500   9.071
    1HEX    H2C16351   4.229   8.665   9.090
    1HEX    H2D16352   4.493   8.691   9.170
    1HEX    H2E16353   4.465   8.525   9.217
    1HEX    H2G16354   4.112   8.480   8.519
    1HEX    H2H16355   4.131   8.631   8.599
    1HEX    H2I16356   3.891   8.523   8.883
    1HEX    H2J16357   3.814   8.371   8.845
    1HEX    H2K16358   3.719   8.507   8.631
    1HEX    H2M16359   3.746   8.647   8.731
    1STR    S0016360   4.449   8.595   7.672
    1STR    S0E16361   4.155   9.291   8.267
    1STR    S0M16362   4.072   7.822   8.310
    1STR    S0X16363   5.012   8.379   8.663
    1STR    S1416364   4.329   8.683   9.342
    1STR    S1B16365   3.568   8.506   8.813
    1HEX    C0116366   4.458   8.432  12.099
    1HEX    C0216367   4.441   8.492  12.240
    1HEX    C0316368   4.299   8.476  12.293
    1HEX    O0416369   4.240   8.368  12.285
    1HEX    O0516370   4.253   8.588  12.351
    1HEX    C0616371   4.118   8.594  12.395
    1HEX    C0716372   4.100   8.577  12.548
    1HEX    C0816373   4.120   8.716  12.620
    1HEX    O0916374   4.050   8.841  12.600
    1HEX    C0A16375   4.071   8.937  12.700
    1HEX    O0B16376   4.111   8.910  12.813
    1HEX    C0C16377   4.045   9.086  12.664
    1HEX    C0D16378   4.122   9.185  12.759
    1HEX    C0F16379   3.960   8.508  12.568
    1HEX    O0G16380   3.978   8.369  12.536
    1HEX    C0H16381   3.887   8.294  12.471
    1HEX    O0I16382   3.774   8.332  12.441
    1HEX    C0J16383   3.941   8.157  12.428
    1HEX    C0K16384   3.943   8.048  12.539
    1HEX    C0N16385   4.205   8.475  12.611
    1HEX    O0O16386   4.333   8.522  12.656
    1HEX    C0P16387   4.354   8.590  12.782
    1HEX    C0Q16388   4.307   8.529  12.918
    1HEX    C0R16389   4.366   8.386  12.933
    1HEX    O0S16390   4.504   8.376  12.890
    1HEX    C0T16391   4.610   8.385  12.976
    1HEX    O0U16392   4.602   8.408  13.096
    1HEX    C0V16393   4.746   8.355  12.910
    1HEX    C0W16394   4.851   8.470  12.915
    1HEX    C0Y16395   4.366   8.620  13.028
    1HEX    O0Z16396   4.318   8.580  13.155
    1HEX    C1016397   4.351   8.651  13.262
    1HEX    O1116398   4.425   8.749  13.263
    1HEX    C1216399   4.282   8.601  13.387
    1HEX    C1316400   4.345   8.658  13.514
    1HEX    C1516401   4.150   8.542  12.930
    1HEX    O1616402   4.070   8.473  13.027
    1HEX    C1716403   3.967   8.397  12.981
    1HEX    O1816404   3.977   8.320  12.885
    1HEX    C1916405   3.830   8.421  13.047
    1HEX    C1A16406   3.724   8.459  12.940
    1HEX    H1D16407   4.562   8.403  12.085
    1HEX    H1E16408   4.398   8.342  12.086
    1HEX    H1F16409   4.469   8.597  12.242
    1HEX    H1G16410   4.505   8.440  12.311
    1HEX    H1H16411   4.059   8.520  12.340
    1HEX    H1I16412   4.076   8.689  12.362
    1HEX    H1J16413   4.223   8.744  12.599
    1HEX    H1K16414   4.111   8.695  12.725
    1HEX    H1M16415   3.938   9.103  12.670
    1HEX    H1N16416   4.075   9.103  12.560
    1HEX    H1O16417   4.229   9.184  12.736
    1HEX    H1P16418   4.115   9.151  12.863
    1HEX    H1R16419   3.883   8.554  12.506
    1HEX    H1S16420   3.925   8.516  12.671
    1HEX    H1T16421   4.042   8.172  12.389
    1HEX    H1U16422   3.881   8.122  12.344
    1HEX    H1V16423   3.843   8.033  12.580
    1HEX    H1W16424   4.005   8.081  12.622
    1HEX    H1Y16425   4.228   8.402  12.534
    1HEX    H1Z16426   4.162   8.408  12.685
    1HEX    H2016427   4.324   8.695  12.777
    1HEX    H2116428   4.463   8.598  12.786
    1HEX    H2216429   4.309   8.317  12.871
    1HEX    H2316430   4.355   8.350  13.035
    1HEX    H2416431   4.729   8.323  12.807
    1HEX    H2516432   4.786   8.268  12.963
    1HEX    H2616433   4.860   8.510  13.016
    1HEX    H2716434   4.821   8.553  12.852
    1HEX    H2916435   4.339   8.724  13.012
    1HEX    H2A16436   4.475   8.618  13.029
    1HEX    H2B16437   4.289   8.492  13.386
    1HEX    H2C16438   4.176   8.626  13.381
    1HEX    H2D16439   4.335   8.766  13.520
    1HEX    H2E16440   4.452   8.638  13.515
    1HEX    H2G16441   4.103   8.524  12.836
    1HEX    H2H16442   4.127   8.648  12.948
    1HEX    H2I16443   3.839   8.498  13.124
    1HEX    H2J16444   3.802   8.328  13.097
    1HEX    H2K16445   3.733   8.391  12.856
    1HEX    H2M16446   3.745   8.558  12.900
    1STR    S0016447   4.416   8.548  11.965
    1STR    S0E16448   4.065   9.361  12.762
    1STR    S0M16449   4.007   7.887  12.477
    1STR    S0X16450   5.016   8.410  12.859
    1STR    S1416451   4.269   8.580  13.660
    1STR    S1B16452   3.548   8.457  12.995
    1HEX    C0116453   4.414  12.778  16.455
    1HEX    C0216454   4.419  12.848  16.592
    1HEX    C0316455   4.294  12.817  16.674
    1HEX    O0416456   4.252  12.701  16.682
    1HEX    O0516457   4.239  12.925  16.732
    1HEX    C0616458   4.108  12.917  16.786
    1HEX    C0716459   4.100  12.916  16.941
    1HEX    C0816460   4.124  13.062  16.996
    1HEX    O0916461   4.061  13.183  16.951
    1HEX    C0A16462   4.095  13.299  17.022
    1HEX    O0B16463   4.151  13.298  17.132
    1HEX    C0C16464   4.065  13.433  16.952
    1HEX    C0D16465   4.025  13.552  17.046
    1HEX    C0F16466   3.958  12.857  16.977
    1HEX    O0G16467   3.964  12.713  16.996
    1HEX    C0H16468   3.916  12.622  16.908
    1HEX    O0I16469   3.853  12.649  16.806
    1HEX    C0J16470   3.953  12.477  16.944
    1HEX    C0K16471   3.833  12.383  16.972
    1HEX    C0N16472   4.208  12.820  17.006
    1HEX    O0O16473   4.335  12.873  17.049
    1HEX    C0P16474   4.354  12.946  17.172
    1HEX    C0Q16475   4.305  12.892  17.311
    1HEX    C0R16476   4.359  12.747  17.329
    1HEX    O0S16477   4.497  12.733  17.288
    1HEX    C0T16478   4.600  12.736  17.377
    1HEX    O0U16479   4.589  12.751   0.058
    1HEX    C0V16480   4.739  12.721  17.312
    1HEX    C0W16481   4.829  12.845  17.339
    1HEX    C0Y16482   4.369  12.983  17.418
    1HEX    O0Z16483   4.326  12.951   0.109
    1HEX    C1016484   4.377  13.019   0.213
    1HEX    O1116485   4.463  13.106   0.206
    1HEX    C1216486   4.315  12.978   0.347
    1HEX    C1316487   4.420  12.938   0.452
    1HEX    C1516488   4.149  12.911  17.320
    1HEX    O1616489   4.068  12.861  17.427
    1HEX    C1716490   3.950  12.800  17.394
    1HEX    O1816491   3.935  12.726  17.297
    1HEX    C1916492   3.829  12.838   0.042
    1HEX    C1A16493   3.696  12.842  17.400
    1HEX    H1D16494   4.495  12.706  16.447
    1HEX    H1E16495   4.322  12.720  16.443
    1HEX    H1F16496   4.426  12.957  16.582
    1HEX    H1G16497   4.505  12.815  16.650
    1HEX    H1H16498   4.056  12.829  16.745
    1HEX    H1I16499   4.052  13.001  16.747
    1HEX    H1J16500   4.229  13.083  16.975
    1HEX    H1K16501   4.110  13.059  17.103
    1HEX    H1M16502   3.983  13.413  16.883
    1HEX    H1N16503   4.151  13.461  16.891
    1HEX    H1O16504   3.969  13.512  17.131
    1HEX    H1P16505   3.955  13.618  16.994
    1HEX    H1R16506   3.882  12.884  16.904
    1HEX    H1S16507   3.922  12.898  17.071
    1HEX    H1T16508   4.018  12.481  17.032
    1HEX    H1U16509   4.014  12.436  16.864
    1HEX    H1V16510   3.801  12.333  16.880
    1HEX    H1W16511   3.748  12.442  17.005
    1HEX    H1Y16512   4.231  12.744  16.932
    1HEX    H1Z16513   4.170  12.757  17.086
    1HEX    H2016514   4.324  13.050  17.162
    1HEX    H2116515   4.463  12.955  17.177
    1HEX    H2216516   4.300  12.678  17.268
    1HEX    H2316517   4.345  12.713  17.432
    1HEX    H2416518   4.726  12.704  17.205
    1HEX    H2516519   4.786  12.632  17.354
    1HEX    H2616520   4.845  12.856   0.007
    1HEX    H2716521   4.775  12.934  17.308
    1HEX    H2916522   4.345  13.088  17.400
    1HEX    H2A16523   4.478  12.978  17.415
    1HEX    H2B16524   4.248  12.894   0.328
    1HEX    H2C16525   4.252  13.060   0.382
    1HEX    H2D16526   4.518  12.928   0.406
    1HEX    H2E16527   4.396  12.840   0.495
    1HEX    H2G16528   4.102  12.882  17.228
    1HEX    H2H16529   4.130  13.019  17.323
    1HEX    H2I16530   3.850  12.936   0.085
    1HEX    H2J16531   3.821  12.768   0.125
    1HEX    H2K16532   3.658  12.741  17.384
    1HEX    H2M16533   3.715  12.882  17.300
    1STR    S0016534   4.421  12.892  16.313
    1STR    S0E16535   4.158  13.659  17.117
    1STR    S0M16536   3.863  12.254  17.102
    1STR    S0X16537   4.992  12.844  17.253
    1STR    S1416538   4.432  13.059   0.589
    1STR    S1B16539   3.562  12.945   0.034
    1HEX    C0116540   4.491  12.823   3.387
    1HEX    C0216541   4.452  12.883   3.524
    1HEX    C0316542   4.323  12.828   3.582
    1HEX    O0416543   4.297  12.708   3.580
    1HEX    O0516544   4.247  12.926   3.637
    1HEX    C0616545   4.117  12.896   3.685
    1HEX    C0716546   4.107  12.887   3.839
    1HEX    C0816547   4.109  13.031   3.902
    1HEX    O0916548   4.030  13.148   3.870
    1HEX    C0A16549   4.053  13.258   3.953
    1HEX    O0B16550   4.121  13.251   4.056
    1HEX    C0C16551   3.994  13.396   3.913
    1HEX    C0D16552   4.063  13.513   3.994
    1HEX    C0F16553   3.979  12.800   3.869
    1HEX    O0G16554   4.013  12.660   3.874
    1HEX    C0H16555   3.984  12.572   3.775
    1HEX    O0I16556   3.900  12.591   3.688
    1HEX    C0J16557   4.075  12.447   3.774
    1HEX    C0K16558   4.049  12.341   3.885
    1HEX    C0N16559   4.227  12.805   3.903
    1HEX    O0O16560   4.345  12.872   3.950
    1HEX    C0P16561   4.353  12.939   4.078
    1HEX    C0Q16562   4.304  12.875   4.213
    1HEX    C0R16563   4.365  12.733   4.230
    1HEX    O0S16564   4.504  12.723   4.197
    1HEX    C0T16565   4.601  12.726   4.293
    1HEX    O0U16566   4.583  12.754   4.411
    1HEX    C0V16567   4.739  12.684   4.242
    1HEX    C0W16568   4.842  12.799   4.230
    1HEX    C0Y16569   4.359  12.969   4.323
    1HEX    O0Z16570   4.320  12.931   4.454
    1HEX    C1016571   4.370  13.001   4.557
    1HEX    O1116572   4.450  13.095   4.547
    1HEX    C1216573   4.315  12.957   4.691
    1HEX    C1316574   4.403  12.999   4.810
    1HEX    C1516575   4.147  12.879   4.220
    1HEX    O1616576   4.075  12.819   4.329
    1HEX    C1716577   3.947  12.772   4.304
    1HEX    O1816578   3.905  12.737   4.194
    1HEX    C1916579   3.853  12.771   4.425
    1HEX    C1A16580   3.719  12.846   4.396
    1HEX    H1D16581   4.524  12.720   3.401
    1HEX    H1E16582   4.575  12.879   3.345
    1HEX    H1F16583   4.443  12.991   3.517
    1HEX    H1G16584   4.531  12.863   3.597
    1HEX    H1H16585   4.080  12.805   3.637
    1HEX    H1I16586   4.050  12.974   3.649
    1HEX    H1J16587   4.210  13.068   3.884
    1HEX    H1K16588   4.096  13.017   4.008
    1HEX    H1M16589   3.887  13.394   3.931
    1HEX    H1N16590   4.010  13.411   3.806
    1HEX    H1O16591   4.168  13.515   3.968
    1HEX    H1P16592   4.061  13.488   4.101
    1HEX    H1R16593   3.898  12.820   3.798
    1HEX    H1S16594   3.936  12.827   3.966
    1HEX    H1T16595   4.178  12.483   3.778
    1HEX    H1U16596   4.064  12.400   3.676
    1HEX    H1V16597   3.953  12.292   3.869
    1HEX    H1W16598   4.044  12.388   3.983
    1HEX    H1Y16599   4.262  12.735   3.828
    1HEX    H1Z16600   4.198  12.737   3.982
    1HEX    H2016601   4.313  13.040   4.070
    1HEX    H2116602   4.460  12.957   4.087
    1HEX    H2216603   4.312  12.663   4.166
    1HEX    H2316604   4.346  12.697   4.332
    1HEX    H2416605   4.729  12.629   4.148
    1HEX    H2516606   4.774  12.611   4.316
    1HEX    H2616607   4.814  12.883   4.294
    1HEX    H2716608   4.845  12.836   4.128
    1HEX    H2916609   4.327  13.072   4.307
    1HEX    H2A16610   4.469  12.972   4.319
    1HEX    H2B16611   4.301  12.849   4.690
    1HEX    H2C16612   4.216  13.002   4.699
    1HEX    H2D16613   4.449  13.097   4.793
    1HEX    H2E16614   4.486  12.929   4.824
    1HEX    H2G16615   4.106  12.839   4.129
    1HEX    H2H16616   4.116  12.983   4.222
    1HEX    H2I16617   3.905  12.819   4.507
    1HEX    H2J16618   3.834  12.668   4.455
    1HEX    H2K16619   3.730  12.911   4.309
    1HEX    H2M16620   3.694  12.913   4.479
    1STR    S0016621   4.358  12.820   3.262
    1STR    S0E16622   3.995  13.685   3.984
    1STR    S0M16623   4.181  12.211   3.890
    1STR    S0X16624   5.010  12.742   4.281
    1STR    S1416625   4.301  13.013   4.961
    1STR    S1B16626   3.573  12.739   4.365
    1HEX    C0116627   4.519  12.769   7.791
    1HEX    C0216628   4.469  12.882   7.884
    1HEX    C0316629   4.328  12.858   7.937
    1HEX    O0416630   4.275  12.747   7.931
    1HEX    O0516631   4.273  12.968   7.993
    1HEX    C0616632   4.136  12.966   8.029
    1HEX    C0716633   4.109  12.946   8.181
    1HEX    C0816634   4.127  13.083   8.255
    1HEX    O0916635   4.068  13.212   8.229
    1HEX    C0A16636   4.097  13.310   8.324
    1HEX    O0B16637   4.144  13.284   8.436
    1HEX    C0C16638   4.073  13.458   8.287
    1HEX    C0D16639   4.171  13.555   8.364
    1HEX    C0F16640   3.967  12.882   8.195
    1HEX    O0G16641   3.973  12.740   8.169
    1HEX    C0H16642   3.921  12.684   8.056
    1HEX    O0I16643   3.855  12.746   7.973
    1HEX    C0J16644   3.955  12.536   8.033
    1HEX    C0K16645   3.981  12.448   8.159
    1HEX    C0N16646   4.208  12.842   8.247
    1HEX    O0O16647   4.334  12.886   8.302
    1HEX    C0P16648   4.351  12.955   8.428
    1HEX    C0Q16649   4.299  12.895   8.563
    1HEX    C0R16650   4.363  12.754   8.580
    1HEX    O0S16651   4.503  12.749   8.543
    1HEX    C0T16652   4.605  12.764   8.632
    1HEX    O0U16653   4.593  12.789   8.752
    1HEX    C0V16654   4.745  12.746   8.569
    1HEX    C0W16655   4.849  12.856   8.608
    1HEX    C0Y16656   4.352  12.988   8.675
    1HEX    O0Z16657   4.312  12.939   8.802
    1HEX    C1016658   4.347  13.007   8.911
    1HEX    O1116659   4.407  13.115   8.912
    1HEX    C1216660   4.306  12.937   9.040
    1HEX    C1316661   4.422  12.941   9.140
    1HEX    C1516662   4.142  12.907   8.567
    1HEX    O1616663   4.057  12.850   8.666
    1HEX    C1716664   3.946  12.782   8.622
    1HEX    O1816665   3.948  12.701   8.529
    1HEX    C1916666   3.812  12.822   8.686
    1HEX    C1A16667   3.710  12.863   8.576
    1HEX    H1D16668   4.628  12.766   7.793
    1HEX    H1E16669   4.486  12.673   7.828
    1HEX    H1F16670   4.474  12.979   7.835
    1HEX    H1G16671   4.533  12.888   7.972
    1HEX    H1H16672   4.083  12.891   7.969
    1HEX    H1I16673   4.092  13.061   7.996
    1HEX    H1J16674   4.233  13.106   8.242
    1HEX    H1K16675   4.107  13.062   8.359
    1HEX    H1M16676   3.970  13.481   8.310
    1HEX    H1N16677   4.086  13.469   8.179
    1HEX    H1O16678   4.271  13.548   8.321
    1HEX    H1P16679   4.182  13.522   8.467
    1HEX    H1R16680   3.894  12.932   8.131
    1HEX    H1S16681   3.928  12.894   8.296
    1HEX    H1T16682   4.042  12.532   7.967
    1HEX    H1U16683   3.872  12.494   7.976
    1HEX    H1V16684   3.907  12.470   8.236
    1HEX    H1W16685   4.078  12.473   8.201
    1HEX    H1Y16686   4.234  12.770   8.170
    1HEX    H1Z16687   4.160  12.773   8.317
    1HEX    H2016688   4.321  13.060   8.423
    1HEX    H2116689   4.459  12.964   8.435
    1HEX    H2216690   4.310  12.683   8.516
    1HEX    H2316691   4.348  12.717   8.682
    1HEX    H2416692   4.734  12.741   8.461
    1HEX    H2516693   4.782  12.649   8.601
    1HEX    H2616694   4.862  12.860   8.716
    1HEX    H2716695   4.813  12.954   8.578
    1HEX    H2916696   4.316  13.090   8.663
    1HEX    H2A16697   4.461  12.995   8.673
    1HEX    H2B16698   4.279  12.834   9.016
    1HEX    H2C16699   4.218  12.986   9.080
    1HEX    H2D16700   4.452  13.044   9.159
    1HEX    H2E16701   4.510  12.891   9.098
    1HEX    H2G16702   4.100  12.880   8.471
    1HEX    H2H16703   4.118  13.013   8.574
    1HEX    H2I16704   3.828  12.902   8.759
    1HEX    H2J16705   3.775  12.736   8.742
    1HEX    H2K16706   3.707  12.788   8.498
    1HEX    H2M16707   3.743  12.955   8.528
    1STR    S0016708   4.471  12.779   7.614
    1STR    S0E16709   4.123  13.733   8.378
    1STR    S0M16710   3.973  12.268   8.120
    1STR    S0X16711   5.014  12.829   8.530
    1STR    S1416712   4.378  12.863   9.298
    1STR    S1B16713   3.536  12.890   8.630
    1HEX    C0116714   4.478  12.742  12.140
    1HEX    C0216715   4.458  12.795  12.284
    1HEX    C0316716   4.316  12.776  12.333
    1HEX    O0416717   4.264  12.664  12.334
    1HEX    O0516718   4.260  12.889  12.382
    1HEX    C0616719   4.126  12.886  12.430
    1HEX    C0716720   4.114  12.887  12.585
    1HEX    C0816721   4.132  13.033  12.639
    1HEX    O0916722   4.059  13.151  12.600
    1HEX    C0A16723   4.083  13.265  12.675
    1HEX    O0B16724   4.138  13.265  12.786
    1HEX    C0C16725   4.040  13.397  12.611
    1HEX    C0D16726   4.023  13.519  12.709
    1HEX    C0F16727   3.976  12.819  12.618
    1HEX    O0G16728   3.996  12.676  12.620
    1HEX    C0H16729   3.916  12.589  12.556
    1HEX    O0I16730   3.814  12.619  12.495
    1HEX    C0J16731   3.970  12.445  12.557
    1HEX    C0K16732   3.956  12.370  12.693
    1HEX    C0N16733   4.224  12.797  12.654
    1HEX    O0O16734   4.349  12.855  12.696
    1HEX    C0P16735   4.365  12.929  12.818
    1HEX    C0Q16736   4.313  12.874  12.956
    1HEX    C0R16737   4.362  12.727  12.974
    1HEX    O0S16738   4.496  12.708  12.927
    1HEX    C0T16739   4.604  12.710  13.009
    1HEX    O0U16740   4.602  12.732  13.130
    1HEX    C0V16741   4.737  12.683  12.936
    1HEX    C0W16742   4.842  12.795  12.957
    1HEX    C0Y16743   4.377  12.963  13.065
    1HEX    O0Z16744   4.330  12.930  13.195
    1HEX    C1016745   4.366  13.005  13.299
    1HEX    O1116746   4.440  13.104  13.294
    1HEX    C1216747   4.304  12.959  13.430
    1HEX    C1316748   4.406  12.957  13.547
    1HEX    C1516749   4.157  12.895  12.964
    1HEX    O1616750   4.077  12.839  13.069
    1HEX    C1716751   3.967  12.767  13.033
    1HEX    O1816752   3.961  12.694  12.935
    1HEX    C1916753   3.843  12.789  13.121
    1HEX    C1A16754   3.731  12.867  13.045
    1HEX    H1D16755   4.565  12.676  12.137
    1HEX    H1E16756   4.394  12.680  12.107
    1HEX    H1F16757   4.485  12.900  12.292
    1HEX    H1G16758   4.521  12.739  12.353
    1HEX    H1H16759   4.073  12.800  12.388
    1HEX    H1I16760   4.073  12.972  12.388
    1HEX    H1J16761   4.235  13.061  12.616
    1HEX    H1K16762   4.121  13.029  12.746
    1HEX    H1M16763   3.945  13.378  12.561
    1HEX    H1N16764   4.112  13.422  12.532
    1HEX    H1O16765   4.002  13.485  12.810
    1HEX    H1P16766   3.934  13.575  12.678
    1HEX    H1R16767   3.898  12.849  12.547
    1HEX    H1S16768   3.939  12.849  12.716
    1HEX    H1T16769   4.075  12.448  12.526
    1HEX    H1U16770   3.918  12.389  12.479
    1HEX    H1V16771   3.851  12.366  12.724
    1HEX    H1W16772   4.010  12.423  12.771
    1HEX    H1Y16773   4.250  12.718  12.584
    1HEX    H1Z16774   4.186  12.736  12.736
    1HEX    H2016775   4.333  13.032  12.806
    1HEX    H2116776   4.473  12.939  12.826
    1HEX    H2216777   4.298  12.660  12.917
    1HEX    H2316778   4.351  12.695  13.078
    1HEX    H2416779   4.718  12.666  12.830
    1HEX    H2516780   4.774  12.588  12.976
    1HEX    H2616781   4.824  12.878  12.889
    1HEX    H2716782   4.833  12.836  13.058
    1HEX    H2916783   4.354  13.069  13.046
    1HEX    H2A16784   4.485  12.956  13.064
    1HEX    H2B16785   4.262  12.859  13.415
    1HEX    H2C16786   4.221  13.025  13.451
    1HEX    H2D16787   4.502  12.996  13.514
    1HEX    H2E16788   4.424  12.854  13.580
    1HEX    H2G16789   4.111  12.866  12.871
    1HEX    H2H16790   4.138  13.002  12.969
    1HEX    H2I16791   3.870  12.838  13.214
    1HEX    H2J16792   3.806  12.689  13.146
    1HEX    H2K16793   3.731  12.843  12.938
    1HEX    H2M16794   3.748  12.974  13.053
    1STR    S0016795   4.505  12.878  12.023
    1STR    S0E16796   4.164  13.638  12.715
    1STR    S0M16797   4.020  12.197  12.682
    1STR    S0X16798   5.015  12.736  12.938
    1STR    S1416799   4.349  13.059  13.687
    1STR    S1B16800   3.564  12.829  13.109
    1HEX    C0116801   8.836  17.188  16.556
    1HEX    C0216802   8.803  17.117  16.688
    1HEX    C0316803   8.653  17.131  16.714
    1HEX    O0416804   8.577  17.036  16.695
    1HEX    O0516805   8.616  17.258  16.741
    1HEX    C0616806   8.480  17.289  16.768
    1HEX    C0716807   8.450  17.286  16.921
    1HEX    C0816808   8.476  17.428  16.982
    1HEX    O0916809   8.406   0.111  16.958
    1HEX    C0A16810   8.435   0.214  17.047
    1HEX    O0B16811   8.499   0.198  17.151
    1HEX    C0C16812   8.388   0.357  17.011
    1HEX    C0D16813   8.443   0.463  17.113
    1HEX    C0F16814   8.305  17.231  16.940
    1HEX    O0G16815   8.314  17.089  16.924
    1HEX    C0H16816   8.234  17.017  16.845
    1HEX    O0I16817   8.129  17.057  16.794
    1HEX    C0J16818   8.291  16.878  16.814
    1HEX    C0K16819   8.299  16.780  16.934
    1HEX    C0N16820   8.544  17.182  16.996
    1HEX    O0O16821   8.678  17.220  17.028
    1HEX    C0P16822   8.710  17.296  17.146
    1HEX    C0Q16823   8.667  17.244  17.286
    1HEX    C0R16824   8.722  17.099  17.304
    1HEX    O0S16825   8.859  17.082  17.261
    1HEX    C0T16826   8.965  17.088  17.347
    1HEX    O0U16827   8.957  17.117   0.026
    1HEX    C0V16828   9.099  17.047  17.285
    1HEX    C0W16829   9.207  17.160  17.276
    1HEX    C0Y16830   8.736  17.336  17.389
    1HEX    O0Z16831   8.689  17.306   0.079
    1HEX    C1016832   8.726  17.383   0.180
    1HEX    O1116833   8.805   0.037   0.174
    1HEX    C1216834   8.654  17.346   0.308
    1HEX    C1316835   8.736  17.380   0.433
    1HEX    C1516836   8.512  17.264  17.309
    1HEX    O1616837   8.435  17.185  17.402
    1HEX    C1716838   8.321  17.124  17.356
    1HEX    O1816839   8.309  17.073  17.245
    1HEX    C1916840   8.201  17.131   0.012
    1HEX    C1A16841   8.074  17.192  17.384
    1HEX    H1D16842   8.742  17.151  16.522
    1HEX    H1E16843   8.821  17.296  16.561
    1HEX    H1F16844   8.853  17.165  16.772
    1HEX    H1G16845   8.831  17.011  16.690
    1HEX    H1H16846   8.415  17.220  16.714
    1HEX    H1I16847   8.456  17.387  16.727
    1HEX    H1J16848   8.580   0.013  16.958
    1HEX    H1K16849   8.470  17.415  17.089
    1HEX    H1M16850   8.279   0.357  17.009
    1HEX    H1N16851   8.422   0.380  16.910
    1HEX    H1O16852   8.552   0.463  17.111
    1HEX    H1P16853   8.417   0.433  17.215
    1HEX    H1R16854   8.234  17.277  16.871
    1HEX    H1S16855   8.268  17.252  17.040
    1HEX    H1T16856   8.392  16.896  16.776
    1HEX    H1U16857   8.236  16.834  16.732
    1HEX    H1V16858   8.202  16.733  16.950
    1HEX    H1W16859   8.326  16.832  17.026
    1HEX    H1Y16860   8.554  17.094  16.934
    1HEX    H1Z16861   8.497  17.131  17.079
    1HEX    H2016862   8.683  17.401  17.136
    1HEX    H2116863   8.819  17.300  17.144
    1HEX    H2216864   8.661  17.030  17.244
    1HEX    H2316865   8.710  17.066  17.407
    1HEX    H2416866   9.082  17.002  17.188
    1HEX    H2516867   9.137  16.968  17.350
    1HEX    H2616868   9.208  17.220  17.367
    1HEX    H2716869   9.184  17.227  17.194
    1HEX    H2916870   8.714   0.001  17.368
    1HEX    H2A16871   8.845  17.329  17.386
    1HEX    H2B16872   8.632  17.240   0.305
    1HEX    H2C16873   8.559  17.399   0.309
    1HEX    H2D16874   8.766   0.045   0.436
    1HEX    H2E16875   8.828  17.322   0.434
    1HEX    H2G16876   8.456  17.263  17.217
    1HEX    H2H16877   8.495  17.367  17.340
    1HEX    H2I16878   8.229  17.188   0.100
    1HEX    H2J16879   8.181  17.030   0.046
    1HEX    H2K16880   8.091  17.206  17.277
    1HEX    H2M16881   8.053  17.292  17.423
    1STR    S0016882   8.859  17.132  16.386
    1STR    S0E16883   8.384   0.636  17.092
    1STR    S0M16884   8.425  16.651  16.898
    1STR    S0X16885   9.374  17.087  17.250
    1STR    S1416886   8.636  17.340   0.579
    1STR    S1B16887   7.924  17.089  17.401
    1HEX    C0116888   8.871  17.193   3.499
    1HEX    C0216889   8.800  17.261   3.617
    1HEX    C0316890   8.653  17.223   3.627
    1HEX    O0416891   8.614  17.109   3.604
    1HEX    O0516892   8.579  17.324   3.677
    1HEX    C0616893   8.445  17.299   3.717
    1HEX    C0716894   8.433  17.291   3.871
    1HEX    C0816895   8.455  17.435   3.931
    1HEX    O0916896   8.404   0.121   3.882
    1HEX    C0A16897   8.442   0.235   3.954
    1HEX    O0B16898   8.480   0.231   4.071
    1HEX    C0C16899   8.443   0.368   3.877
    1HEX    C0D16900   8.405   0.499   3.957
    1HEX    C0F16901   8.293  17.225   3.903
    1HEX    O0G16902   8.304  17.083   3.929
    1HEX    C0H16903   8.255  16.985   3.849
    1HEX    O0I16904   8.182  17.003   3.752
    1HEX    C0J16905   8.303  16.844   3.889
    1HEX    C0K16906   8.190  16.741   3.917
    1HEX    C0N16907   8.543  17.193   3.932
    1HEX    O0O16908   8.673  17.244   3.968
    1HEX    C0P16909   8.700  17.317   4.091
    1HEX    C0Q16910   8.656  17.264   4.232
    1HEX    C0R16911   8.712  17.119   4.251
    1HEX    O0S16912   8.849  17.108   4.205
    1HEX    C0T16913   8.956  17.111   4.290
    1HEX    O0U16914   8.949  17.120   4.412
    1HEX    C0V16915   9.092  17.103   4.217
    1HEX    C0W16916   9.211  17.162   4.299
    1HEX    C0Y16917   8.726  17.357   4.335
    1HEX    O0Z16918   8.696  17.325   4.470
    1HEX    C1016919   8.752  17.401   4.566
    1HEX    O1116920   8.826   0.057   4.546
    1HEX    C1216921   8.712  17.359   4.708
    1HEX    C1316922   8.827  17.372   4.810
    1HEX    C1516923   8.500  17.286   4.246
    1HEX    O1616924   8.419  17.239   4.354
    1HEX    C1716925   8.299  17.181   4.322
    1HEX    O1816926   8.287  17.093   4.237
    1HEX    C1916927   8.175  17.241   4.391
    1HEX    C1A16928   8.046  17.227   4.304
    1HEX    H1D16929   8.974  17.170   3.528
    1HEX    H1E16930   8.824  17.098   3.474
    1HEX    H1F16931   8.810  17.369   3.615
    1HEX    H1G16932   8.843  17.227   3.711
    1HEX    H1H16933   8.405  17.209   3.669
    1HEX    H1I16934   8.383  17.381   3.678
    1HEX    H1J16935   8.561   0.014   3.915
    1HEX    H1K16936   8.435  17.433   4.037
    1HEX    H1M16937   8.371   0.356   3.796
    1HEX    H1N16938   8.540   0.381   3.830
    1HEX    H1O16939   8.323   0.474   4.025
    1HEX    H1P16940   8.364   0.573   3.888
    1HEX    H1R16941   8.219  17.245   3.825
    1HEX    H1S16942   8.251  17.269   3.993
    1HEX    H1T16943   8.366  16.854   3.977
    1HEX    H1U16944   8.368  16.806   3.810
    1HEX    H1V16945   8.161  16.690   3.825
    1HEX    H1W16946   8.101  16.796   3.950
    1HEX    H1Y16947   8.561  17.117   3.857
    1HEX    H1Z16948   8.509  17.130   4.014
    1HEX    H2016949   8.671  17.421   4.083
    1HEX    H2116950   8.809  17.323   4.090
    1HEX    H2216951   8.652  17.049   4.192
    1HEX    H2316952   8.702  17.087   4.354
    1HEX    H2416953   9.081  17.156   4.123
    1HEX    H2516954   9.111  16.999   4.192
    1HEX    H2616955   9.182  17.256   4.345
    1HEX    H2716956   9.236  17.095   4.381
    1HEX    H2916957   8.698   0.021   4.317
    1HEX    H2A16958   8.834  17.353   4.323
    1HEX    H2B16959   8.674  17.257   4.706
    1HEX    H2C16960   8.627  17.423   4.735
    1HEX    H2D16961   8.909  17.430   4.769
    1HEX    H2E16962   8.867  17.274   4.834
    1HEX    H2G16963   8.450  17.256   4.156
    1HEX    H2H16964   8.484  17.393   4.248
    1HEX    H2I16965   8.196  17.347   4.409
    1HEX    H2J16966   8.162  17.194   4.488
    1HEX    H2K16967   8.006  17.126   4.314
    1HEX    H2M16968   8.070  17.238   4.199
    1STR    S0016969   8.877  17.295   3.349
    1STR    S0E16970   8.533   0.587   4.059
    1STR    S0M16971   8.227  16.615   4.047
    1STR    S0X16972   9.362  17.192   4.197
    1STR    S1416973   8.773   0.016   4.964
    1STR    S1B16974   7.910  17.347   4.339
    1HEX    C0116975   8.857  17.148   7.760
    1HEX    C0216976   8.828  17.216   7.896
    1HEX    C0316977   8.699  17.168   7.959
    1HEX    O0416978   8.671  17.048   7.965
    1HEX    O0516979   8.625  17.270   8.008
    1HEX    C0616980   8.492  17.245   8.051
    1HEX    C0716981   8.475  17.238   8.205
    1HEX    C0816982   8.474  17.383   8.265
    1HEX    O0916983   8.403   0.060   8.218
    1HEX    C0A16984   8.423   0.174   8.295
    1HEX    O0B16985   8.477   0.172   8.406
    1HEX    C0C16986   8.381   0.311   8.236
    1HEX    C0D16987   8.440   0.429   8.321
    1HEX    C0F16988   8.346  17.152   8.231
    1HEX    O0G16989   8.381  17.012   8.227
    1HEX    C0H16990   8.345  16.929   8.127
    1HEX    O0I16991   8.258  16.953   8.044
    1HEX    C0J16992   8.431  16.801   8.118
    1HEX    C0K16993   8.409  16.695   8.230
    1HEX    C0N16994   8.591  17.158   8.278
    1HEX    O0O16995   8.710  17.224   8.324
    1HEX    C0P16996   8.717  17.298   8.448
    1HEX    C0Q16997   8.668  17.239   8.585
    1HEX    C0R16998   8.726  17.096   8.605
    1HEX    O0S16999   8.866  17.086   8.571
    1HEX    C0T17000   8.963  17.088   8.665
    1HEX    O0U17001   8.946  17.108   8.785
    1HEX    C0V17002   9.103  17.060   8.609
    1HEX    C0W17003   9.191  17.186   8.591
    1HEX    C0Y17004   8.725  17.332   8.695
    1HEX    O0Z17005   8.686  17.292   8.825
    1HEX    C1017006   8.735  17.359   8.930
    1HEX    O1117007   8.813   0.014   8.923
    1HEX    C1217008   8.679  17.309   9.063
    1HEX    C1317009   8.771  17.339   9.183
    1HEX    C1517010   8.512  17.247   8.591
    1HEX    O1617011   8.438  17.198   8.705
    1HEX    C1717012   8.314  17.145   8.682
    1HEX    O1817013   8.280  17.091   8.577
    1HEX    C1917014   8.214  17.161   8.796
    1HEX    C1A17015   8.088  17.240   8.750
    1HEX    H1D17016   8.864  17.040   7.773
    1HEX    H1E17017   8.952  17.183   7.719
    1HEX    H1F17018   8.824  17.324   7.885
    1HEX    H1G17019   8.909  17.194   7.966
    1HEX    H1H17020   8.454  17.155   8.003
    1HEX    H1I17021   8.429  17.325   8.011
    1HEX    H1J17022   8.577  17.417   8.255
    1HEX    H1K17023   8.450  17.374   8.370
    1HEX    H1M17024   8.272   0.315   8.234
    1HEX    H1N17025   8.415   0.317   8.133
    1HEX    H1O17026   8.549   0.423   8.320
    1HEX    H1P17027   8.412   0.416   8.426
    1HEX    H1R17028   8.266  17.176   8.160
    1HEX    H1S17029   8.304  17.173   8.329
    1HEX    H1T17030   8.535  16.833   8.116
    1HEX    H1U17031   8.412  16.755   8.021
    1HEX    H1V17032   8.312  16.647   8.218
    1HEX    H1W17033   8.407  16.743   8.328
    1HEX    H1Y17034   8.627  17.083   8.207
    1HEX    H1Z17035   8.556  17.093   8.357
    1HEX    H2017036   8.676  17.398   8.437
    1HEX    H2117037   8.824  17.317   8.457
    1HEX    H2217038   8.673  17.025   8.540
    1HEX    H2317039   8.707  17.060   8.706
    1HEX    H2417040   9.092  17.006   8.514
    1HEX    H2517041   9.150  16.990   8.678
    1HEX    H2617042   9.138  17.273   8.630
    1HEX    H2717043   9.208  17.206   8.485
    1HEX    H2917044   8.692  17.435   8.680
    1HEX    H2A17045   8.834  17.335   8.691
    1HEX    H2B17046   8.658  17.203   9.055
    1HEX    H2C17047   8.582  17.359   9.074
    1HEX    H2D17048   8.837  17.423   9.162
    1HEX    H2E17049   8.836  17.254   9.205
    1HEX    H2G17050   8.470  17.203   8.503
    1HEX    H2H17051   8.483  17.352   8.585
    1HEX    H2I17052   8.261  17.208   8.882
    1HEX    H2J17053   8.185  17.060   8.826
    1HEX    H2K17054   8.083  17.242   8.641
    1HEX    H2M17055   8.092  17.345   8.780
    1STR    S0017056   8.727  17.180   7.635
    1STR    S0E17057   8.393   0.603   8.279
    1STR    S0M17058   8.540  16.565   8.231
    1STR    S0X17059   9.352  17.174   8.679
    1STR    S1417060   8.673  17.387   9.330
    1STR    S1B17061   7.928  17.169   8.805
    1HEX    C0117062   8.847  17.168  12.108
    1HEX    C0217063   8.823  17.229  12.247
    1HEX    C0317064   8.681  17.207  12.297
    1HEX    O0417065   8.628  17.096  12.291
    1HEX    O0517066   8.627  17.319  12.351
    1HEX    C0617067   8.489  17.321  12.385
    1HEX    C0717068   8.463  17.304  12.538
    1HEX    C0817069   8.485   0.001  12.612
    1HEX    O0917070   8.420   0.129  12.592
    1HEX    C0A17071   8.442   0.223  12.693
    1HEX    O0B17072   8.478   0.193  12.806
    1HEX    C0C17073   8.422   0.373  12.657
    1HEX    C0D17074   8.509   0.469  12.747
    1HEX    C0F17075   8.319  17.244  12.553
    1HEX    O0G17076   8.324  17.101  12.533
    1HEX    C0H17077   8.269  17.041  12.424
    1HEX    O0I17078   8.193  17.096  12.345
    1HEX    C0J17079   8.312  16.894  12.403
    1HEX    C0K17080   8.318  16.807  12.531
    1HEX    C0N17081   8.560  17.198  12.604
    1HEX    O0O17082   8.689  17.239  12.653
    1HEX    C0P17083   8.711  17.310  12.777
    1HEX    C0Q17084   8.663  17.250  12.914
    1HEX    C0R17085   8.725  17.107  12.928
    1HEX    O0S17086   8.864  17.101  12.888
    1HEX    C0T17087   8.968  17.111  12.976
    1HEX    O0U17088   8.957  17.128  13.097
    1HEX    C0V17089   9.106  17.090  12.911
    1HEX    C0W17090   9.209  17.206  12.931
    1HEX    C0Y17091   8.720  17.340  13.025
    1HEX    O0Z17092   8.674  17.294  13.150
    1HEX    C1017093   8.713  17.357  13.260
    1HEX    O1117094   8.787   0.015  13.265
    1HEX    C1217095   8.651  17.296  13.384
    1HEX    C1317096   8.705  17.358  13.513
    1HEX    C1517097   8.506  17.263  12.924
    1HEX    O1617098   8.426  17.200  13.024
    1HEX    C1717099   8.319  17.127  12.983
    1HEX    O1817100   8.325  17.038  12.898
    1HEX    C1917101   8.183  17.169  13.042
    1HEX    C1A17102   8.079  17.197  12.929
    1HEX    H1D17103   8.953  17.152  12.093
    1HEX    H1E17104   8.798  17.071  12.099
    1HEX    H1F17105   8.846  17.336  12.248
    1HEX    H1G17106   8.888  17.182  12.321
    1HEX    H1H17107   8.436  17.246  12.326
    1HEX    H1I17108   8.448  17.416  12.350
    1HEX    H1J17109   8.589   0.027  12.594
    1HEX    H1K17110   8.472  17.418  12.716
    1HEX    H1M17111   8.316   0.396  12.670
    1HEX    H1N17112   8.446   0.388  12.552
    1HEX    H1O17113   8.613   0.467  12.714
    1HEX    H1P17114   8.512   0.433  12.850
    1HEX    H1R17115   8.249  17.293  12.485
    1HEX    H1S17116   8.280  17.262  12.653
    1HEX    H1T17117   8.409  16.895  12.353
    1HEX    H1U17118   8.241  16.851  12.332
    1HEX    H1V17119   8.237  16.836  12.599
    1HEX    H1W17120   8.411  16.828  12.585
    1HEX    H1Y17121   8.582  17.124  12.528
    1HEX    H1Z17122   8.513  17.132  12.676
    1HEX    H2017123   8.683  17.415  12.772
    1HEX    H2117124   8.820  17.318  12.782
    1HEX    H2217125   8.670  17.038  12.865
    1HEX    H2317126   8.712  17.070  13.030
    1HEX    H2417127   9.092  17.070  12.805
    1HEX    H2517128   9.147  16.999  12.955
    1HEX    H2617129   9.220  17.232  13.037
    1HEX    H2717130   9.175  17.297  12.881
    1HEX    H2917131   8.690   0.004  13.012
    1HEX    H2A17132   8.830  17.341  13.024
    1HEX    H2B17133   8.672  17.189  13.381
    1HEX    H2C17134   8.543  17.308  13.378
    1HEX    H2D17135   8.674   0.022  13.523
    1HEX    H2E17136   8.814  17.360  13.512
    1HEX    H2G17137   8.458  17.241  12.830
    1HEX    H2H17138   8.483  17.369  12.936
    1HEX    H2I17139   8.196  17.256  13.106
    1HEX    H2J17140   8.148  17.087  13.105
    1HEX    H2K17141   8.087  17.121  12.851
    1HEX    H2M17142   8.103  17.291  12.879
    1STR    S0017143   8.788  17.273  11.971
    1STR    S0E17144   8.454   0.645  12.760
    1STR    S0M17145   8.303  16.626  12.498
    1STR    S0X17146   9.375  17.159  12.863
    1STR    S1417147   8.650  17.261  13.657
    1STR    S1B17148   7.902  17.205  12.980
    1HEX    C0117149   8.803   4.060  16.462
    1HEX    C0217150   8.789   4.126  16.601
    1HEX    C0317151   8.655   4.096  16.667
    1HEX    O0417152   8.606   3.982  16.663
    1HEX    O0517153   8.604   4.201  16.733
    1HEX    C0617154   8.472   4.193  16.787
    1HEX    C0717155   8.466   4.189  16.942
    1HEX    C0817156   8.485   4.334  17.000
    1HEX    O0917157   8.415   4.452  16.959
    1HEX    C0A17158   8.443   4.567  17.032
    1HEX    O0B17159   8.495   4.566  17.144
    1HEX    C0C17160   8.407   4.701  16.965
    1HEX    C0D17161   8.372   4.818  17.063
    1HEX    C0F17162   8.329   4.122  16.978
    1HEX    O0G17163   8.345   3.978  16.978
    1HEX    C0H17164   8.276   3.894  16.898
    1HEX    O0I17165   8.181   3.925  16.827
    1HEX    C0J17166   8.334   3.752  16.898
    1HEX    C0K17167   8.269   3.653  16.999
    1HEX    C0N17168   8.580   4.096  17.005
    1HEX    O0O17169   8.703   4.153  17.052
    1HEX    C0P17170   8.719   4.226  17.176
    1HEX    C0Q17171   8.671   4.169  17.314
    1HEX    C0R17172   8.736   4.029  17.335
    1HEX    O0S17173   8.877   4.023  17.304
    1HEX    C0T17174   8.974   4.034  17.400
    1HEX    O0U17175   8.952   4.063   0.077
    1HEX    C0V17176   9.116   3.996  17.354
    1HEX    C0W17177   9.184   4.088  17.249
    1HEX    C0Y17178   8.725   4.267  17.423
    1HEX    O0Z17179   8.682   4.229   0.113
    1HEX    C1017180   8.722   4.303   0.217
    1HEX    O1117181   8.795   4.401   0.212
    1HEX    C1217182   8.666   4.252   0.350
    1HEX    C1317183   8.775   4.232   0.458
    1HEX    C1517184   8.514   4.177  17.320
    1HEX    O1617185   8.434   4.123  17.427
    1HEX    C1717186   8.318   4.058  17.393
    1HEX    O1817187   8.306   3.984  17.296
    1HEX    C1917188   8.196   4.090   0.041
    1HEX    C1A17189   8.077   4.140  17.393
    1HEX    H1D17190   8.903   4.018  16.452
    1HEX    H1E17191   8.733   3.978  16.449
    1HEX    H1F17192   8.803   4.234  16.596
    1HEX    H1G17193   8.865   4.087  16.668
    1HEX    H1H17194   8.419   4.108  16.744
    1HEX    H1I17195   8.417   4.280  16.750
    1HEX    H1J17196   8.588   4.360  16.979
    1HEX    H1K17197   8.472   4.327  17.107
    1HEX    H1M17198   8.321   4.681  16.901
    1HEX    H1N17199   8.489   4.729  16.899
    1HEX    H1O17200   8.332   4.777  17.155
    1HEX    H1P17201   8.293   4.880  17.021
    1HEX    H1R17202   8.249   4.154  16.910
    1HEX    H1S17203   8.295   4.150  17.077
    1HEX    H1T17204   8.441   3.760  16.918
    1HEX    H1U17205   8.325   3.712  16.797
    1HEX    H1V17206   8.163   3.637  16.975
    1HEX    H1W17207   8.272   3.695  17.099
    1HEX    H1Y17208   8.608   4.025  16.927
    1HEX    H1Z17209   8.544   4.027  17.081
    1HEX    H2017210   8.685   4.329  17.166
    1HEX    H2117211   8.827   4.239  17.182
    1HEX    H2217212   8.686   3.957  17.271
    1HEX    H2317213   8.718   3.994  17.437
    1HEX    H2417214   9.107   3.896  17.312
    1HEX    H2517215   9.180   3.985   0.001
    1HEX    H2617216   9.108   4.148  17.200
    1HEX    H2717217   9.230   4.027  17.172
    1HEX    H2917218   8.692   4.369  17.404
    1HEX    H2A17219   8.834   4.271  17.421
    1HEX    H2B17220   8.615   4.158   0.332
    1HEX    H2C17221   8.590   4.323   0.383
    1HEX    H2D17222   8.874   4.247   0.415
    1HEX    H2E17223   8.772   4.130   0.497
    1HEX    H2G17224   8.471   4.142  17.228
    1HEX    H2H17225   8.487   4.283  17.321
    1HEX    H2I17226   8.223   4.164   0.116
    1HEX    H2J17227   8.168   3.999   0.094
    1HEX    H2K17228   8.055   4.068  17.314
    1HEX    H2M17229   8.105   4.232  17.342
    1STR    S0017230   8.778   4.175  16.322
    1STR    S0E17231   8.510   4.932  17.111
    1STR    S0M17232   8.356   3.491  16.998
    1STR    S0X17233   9.315   4.202  17.312
    1STR    S1417234   8.756   4.349   0.598
    1STR    S1B17235   7.919   4.174   0.042
    1HEX    C0117236   8.847   4.167   3.395
    1HEX    C0217237   8.821   4.093   3.528
    1HEX    C0317238   8.674   4.084   3.568
    1HEX    O0417239   8.610   3.980   3.550
    1HEX    O0517240   8.629   4.195   3.629
    1HEX    C0617241   8.494   4.200   3.673
    1HEX    C0717242   8.474   4.177   3.826
    1HEX    C0817243   8.471   4.317   3.899
    1HEX    O0917244   8.402   4.437   3.860
    1HEX    C0A17245   8.420   4.545   3.947
    1HEX    O0B17246   8.468   4.534   4.060
    1HEX    C0C17247   8.381   4.686   3.896
    1HEX    C0D17248   8.419   4.798   3.999
    1HEX    C0F17249   8.345   4.089   3.842
    1HEX    O0G17250   8.384   3.950   3.832
    1HEX    C0H17251   8.328   3.859   3.750
    1HEX    O0I17252   8.223   3.876   3.688
    1HEX    C0J17253   8.414   3.732   3.733
    1HEX    C0K17254   8.401   3.625   3.845
    1HEX    C0N17255   8.590   4.091   3.892
    1HEX    O0O17256   8.709   4.152   3.942
    1HEX    C0P17257   8.717   4.217   4.071
    1HEX    C0Q17258   8.666   4.152   4.205
    1HEX    C0R17259   8.726   4.010   4.222
    1HEX    O0S17260   8.866   3.999   4.189
    1HEX    C0T17261   8.963   4.004   4.285
    1HEX    O0U17262   8.945   4.035   4.402
    1HEX    C0V17263   9.101   3.958   4.235
    1HEX    C0W17264   9.207   4.070   4.220
    1HEX    C0Y17265   8.721   4.246   4.315
    1HEX    O0Z17266   8.678   4.211   4.445
    1HEX    C1017267   8.720   4.286   4.547
    1HEX    O1117268   8.797   4.383   4.539
    1HEX    C1217269   8.658   4.246   4.680
    1HEX    C1317270   8.749   4.275   4.800
    1HEX    C1517271   8.509   4.157   4.211
    1HEX    O1617272   8.433   4.090   4.313
    1HEX    C1717273   8.306   4.045   4.281
    1HEX    O1817274   8.267   4.022   4.167
    1HEX    C1917275   8.209   4.031   4.399
    1HEX    C1A17276   8.074   4.105   4.375
    1HEX    H1D17277   8.950   4.149   3.365
    1HEX    H1E17278   8.838   4.274   3.410
    1HEX    H1F17279   8.874   4.141   3.610
    1HEX    H1G17280   8.858   3.991   3.522
    1HEX    H1H17281   8.434   4.129   3.615
    1HEX    H1I17282   8.453   4.297   3.644
    1HEX    H1J17283   8.574   4.352   3.893
    1HEX    H1K17284   8.446   4.300   4.002
    1HEX    H1M17285   8.275   4.687   3.875
    1HEX    H1N17286   8.433   4.702   3.802
    1HEX    H1O17287   8.526   4.796   4.020
    1HEX    H1P17288   8.371   4.778   4.095
    1HEX    H1R17289   8.267   4.114   3.770
    1HEX    H1S17290   8.298   4.104   3.939
    1HEX    H1T17291   8.517   3.765   3.724
    1HEX    H1U17292   8.389   3.688   3.636
    1HEX    H1V17293   8.302   3.579   3.842
    1HEX    H1W17294   8.409   3.672   3.943
    1HEX    H1Y17295   8.624   4.020   3.817
    1HEX    H1Z17296   8.555   4.021   3.968
    1HEX    H2017297   8.680   4.319   4.066
    1HEX    H2117298   8.825   4.232   4.082
    1HEX    H2217299   8.673   3.940   4.157
    1HEX    H2317300   8.708   3.974   4.324
    1HEX    H2417301   9.090   3.901   4.143
    1HEX    H2517302   9.135   3.887   4.311
    1HEX    H2617303   9.193   4.148   4.295
    1HEX    H2717304   9.198   4.118   4.123
    1HEX    H2917305   8.691   4.349   4.297
    1HEX    H2A17306   8.830   4.247   4.314
    1HEX    H2B17307   8.633   4.140   4.675
    1HEX    H2C17308   8.565   4.301   4.687
    1HEX    H2D17309   8.800   4.370   4.792
    1HEX    H2E17310   8.827   4.198   4.808
    1HEX    H2G17311   8.470   4.123   4.117
    1HEX    H2H17312   8.478   4.261   4.217
    1HEX    H2I17313   8.259   4.072   4.486
    1HEX    H2J17314   8.193   3.925   4.419
    1HEX    H2K17315   8.087   4.185   4.302
    1HEX    H2M17316   8.041   4.154   4.467
    1STR    S0017317   8.741   4.113   3.257
    1STR    S0E17318   8.374   4.971   3.951
    1STR    S0M17319   8.529   3.492   3.833
    1STR    S0X17320   9.376   4.000   4.239
    1STR    S1417321   8.644   4.276   4.949
    1STR    S1B17322   7.934   4.002   4.316
    1HEX    C0117323   8.905   4.095   7.814
    1HEX    C0217324   8.834   4.200   7.902
    1HEX    C0317325   8.694   4.158   7.946
    1HEX    O0417326   8.654   4.042   7.934
    1HEX    O0517327   8.625   4.260   8.000
    1HEX    C0617328   8.487   4.242   8.032
    1HEX    C0717329   8.461   4.222   8.184
    1HEX    C0817330   8.479   4.359   8.258
    1HEX    O0917331   8.420   4.487   8.228
    1HEX    C0A17332   8.445   4.587   8.322
    1HEX    O0B17333   8.482   4.563   8.437
    1HEX    C0C17334   8.429   4.734   8.277
    1HEX    C0D17335   8.531   4.831   8.348
    1HEX    C0F17336   8.318   4.159   8.198
    1HEX    O0G17337   8.323   4.016   8.179
    1HEX    C0H17338   8.271   3.954   8.071
    1HEX    O0I17339   8.204   4.010   7.984
    1HEX    C0J17340   8.305   3.804   8.060
    1HEX    C0K17341   8.278   3.722   8.188
    1HEX    C0N17342   8.561   4.118   8.249
    1HEX    O0O17343   8.687   4.162   8.305
    1HEX    C0P17344   8.703   4.231   8.432
    1HEX    C0Q17345   8.653   4.170   8.567
    1HEX    C0R17346   8.720   4.029   8.584
    1HEX    O0S17347   8.860   4.028   8.548
    1HEX    C0T17348   8.962   4.042   8.638
    1HEX    O0U17349   8.947   4.062   8.759
    1HEX    C0V17350   9.103   4.027   8.577
    1HEX    C0W17351   9.208   4.131   8.627
    1HEX    C0Y17352   8.705   4.263   8.679
    1HEX    O0Z17353   8.673   4.214   8.808
    1HEX    C1017354   8.711   4.286   8.914
    1HEX    O1117355   8.763   4.398   8.909
    1HEX    C1217356   8.687   4.217   9.047
    1HEX    C1317357   8.806   4.239   9.141
    1HEX    C1517358   8.496   4.178   8.570
    1HEX    O1617359   8.412   4.128   8.674
    1HEX    C1717360   8.296   4.066   8.636
    1HEX    O1817361   8.288   3.983   8.546
    1HEX    C1917362   8.168   4.117   8.706
    1HEX    C1A17363   8.064   4.168   8.600
    1HEX    H1D17364   9.013   4.103   7.828
    1HEX    H1E17365   8.879   3.995   7.847
    1HEX    H1F17366   8.829   4.297   7.852
    1HEX    H1G17367   8.890   4.215   7.995
    1HEX    H1H17368   8.445   4.159   7.974
    1HEX    H1I17369   8.433   4.330   7.997
    1HEX    H1J17370   8.585   4.382   8.246
    1HEX    H1K17371   8.458   4.339   8.362
    1HEX    H1M17372   8.327   4.763   8.300
    1HEX    H1N17373   8.440   4.740   8.169
    1HEX    H1O17374   8.628   4.826   8.297
    1HEX    H1P17375   8.551   4.798   8.450
    1HEX    H1R17376   8.246   4.207   8.131
    1HEX    H1S17377   8.279   4.176   8.298
    1HEX    H1T17378   8.409   3.794   8.029
    1HEX    H1U17379   8.245   3.764   7.978
    1HEX    H1V17380   8.186   3.758   8.234
    1HEX    H1W17381   8.357   3.738   8.262
    1HEX    H1Y17382   8.589   4.048   8.170
    1HEX    H1Z17383   8.514   4.046   8.316
    1HEX    H2017384   8.671   4.335   8.427
    1HEX    H2117385   8.811   4.241   8.438
    1HEX    H2217386   8.669   3.958   8.519
    1HEX    H2317387   8.706   3.992   8.686
    1HEX    H2417388   9.094   4.032   8.468
    1HEX    H2517389   9.138   3.927   8.600
    1HEX    H2617390   9.222   4.122   8.735
    1HEX    H2717391   9.172   4.233   8.610
    1HEX    H2917392   8.665   4.364   8.668
    1HEX    H2A17393   8.814   4.274   8.673
    1HEX    H2B17394   8.672   4.110   9.028
    1HEX    H2C17395   8.595   4.256   9.090
    1HEX    H2D17396   8.821   4.346   9.157
    1HEX    H2E17397   8.897   4.202   9.095
    1HEX    H2G17398   8.455   4.143   8.477
    1HEX    H2H17399   8.470   4.284   8.569
    1HEX    H2I17400   8.192   4.194   8.778
    1HEX    H2J17401   8.126   4.033   8.761
    1HEX    H2K17402   8.060   4.099   8.515
    1HEX    H2M17403   8.097   4.263   8.559
    1STR    S0017404   8.874   4.106   7.634
    1STR    S0E17405   8.481   5.008   8.365
    1STR    S0M17406   8.257   3.541   8.160
    1STR    S0X17407   9.372   4.114   8.544
    1STR    S1417408   8.784   4.160   9.304
    1STR    S1B17409   7.891   4.189   8.659
    1HEX    C0117410   8.848   4.061  12.132
    1HEX    C0217411   8.829   4.090  12.282
    1HEX    C0317412   8.687   4.063  12.329
    1HEX    O0417413   8.639   3.950  12.321
    1HEX    O0517414   8.627   4.170  12.384
    1HEX    C0617415   8.494   4.159  12.432
    1HEX    C0717416   8.482   4.160  12.587
    1HEX    C0817417   8.494   4.306  12.639
    1HEX    O0917418   8.419   4.419  12.592
    1HEX    C0A17419   8.409   4.526  12.678
    1HEX    O0B17420   8.394   4.515  12.800
    1HEX    C0C17421   8.428   4.665  12.614
    1HEX    C0D17422   8.429   4.784  12.716
    1HEX    C0F17423   8.346   4.088  12.621
    1HEX    O0G17424   8.371   3.946  12.623
    1HEX    C0H17425   8.295   3.854  12.561
    1HEX    O0I17426   8.188   3.876  12.505
    1HEX    C0J17427   8.360   3.714  12.560
    1HEX    C0K17428   8.359   3.639  12.696
    1HEX    C0N17429   8.595   4.074  12.656
    1HEX    O0O17430   8.716   4.136  12.701
    1HEX    C0P17431   8.728   4.211  12.824
    1HEX    C0Q17432   8.673   4.159  12.962
    1HEX    C0R17433   8.725   4.014  12.987
    1HEX    O0S17434   8.864   3.997  12.956
    1HEX    C0T17435   8.960   4.005  13.052
    1HEX    O0U17436   8.940   4.033  13.169
    1HEX    C0V17437   9.100   3.969  13.001
    1HEX    C0W17438   9.196   4.090  12.989
    1HEX    C0Y17439   8.730   4.253  13.070
    1HEX    O0Z17440   8.687   4.215  13.200
    1HEX    C1017441   8.720   4.292  13.304
    1HEX    O1117442   8.779   4.399  13.298
    1HEX    C1217443   8.671   4.234  13.437
    1HEX    C1317444   8.774   4.250  13.551
    1HEX    C1517445   8.517   4.174  12.965
    1HEX    O1617446   8.440   4.133  13.078
    1HEX    C1717447   8.318   4.077  13.055
    1HEX    O1817448   8.292   4.001  12.961
    1HEX    C1917449   8.207   4.121  13.150
    1HEX    C1A17450   8.088   4.182  13.071
    1HEX    H1D17451   8.948   4.022  12.114
    1HEX    H1E17452   8.779   3.984  12.097
    1HEX    H1F17453   8.859   4.192  12.308
    1HEX    H1G17454   8.893   4.024  12.340
    1HEX    H1H17455   8.445   4.071  12.390
    1HEX    H1I17456   8.437   4.243  12.390
    1HEX    H1J17457   8.597   4.337  12.618
    1HEX    H1K17458   8.483   4.302  12.746
    1HEX    H1M17459   8.353   4.680  12.537
    1HEX    H1N17460   8.525   4.661  12.563
    1HEX    H1O17461   8.463   4.753  12.814
    1HEX    H1P17462   8.327   4.820  12.731
    1HEX    H1R17463   8.267   4.114  12.550
    1HEX    H1S17464   8.308   4.117  12.718
    1HEX    H1T17465   8.462   3.725  12.524
    1HEX    H1U17466   8.308   3.655  12.485
    1HEX    H1V17467   8.260   3.640  12.741
    1HEX    H1W17468   8.425   3.689  12.767
    1HEX    H1Y17469   8.626   3.998  12.585
    1HEX    H1Z17470   8.560   4.011  12.738
    1HEX    H2017471   8.697   4.314  12.809
    1HEX    H2117472   8.836   4.221  12.834
    1HEX    H2217473   8.670   3.944  12.925
    1HEX    H2317474   8.704   3.983  13.090
    1HEX    H2417475   9.093   3.915  12.907
    1HEX    H2517476   9.140   3.898  13.074
    1HEX    H2617477   9.162   4.174  13.049
    1HEX    H2717478   9.198   4.124  12.885
    1HEX    H2917479   8.700   4.356  13.052
    1HEX    H2A17480   8.839   4.254  13.069
    1HEX    H2B17481   8.647   4.129  13.423
    1HEX    H2C17482   8.578   4.285  13.460
    1HEX    H2D17483   8.858   4.312  13.520
    1HEX    H2E17484   8.816   4.153  13.579
    1HEX    H2G17485   8.474   4.129  12.877
    1HEX    H2H17486   8.494   4.280  12.957
    1HEX    H2I17487   8.246   4.192  13.224
    1HEX    H2J17488   8.175   4.032  13.205
    1HEX    H2K17489   8.070   4.122  12.981
    1HEX    H2M17490   8.110   4.282  13.036
    1STR    S0017491   8.831   4.212  12.031
    1STR    S0E17492   8.536   4.925  12.664
    1STR    S0M17493   8.415   3.465  12.676
    1STR    S0X17494   9.366   4.046  13.043
    1STR    S1417495   8.698   4.329  13.698
    1STR    S1B17496   7.929   4.184  13.163
    1HEX    C0117497   8.840   8.358  16.510
    1HEX    C0217498   8.808   8.428  16.644
    1HEX    C0317499   8.659   8.443  16.669
    1HEX    O0417500   8.583   8.347  16.652
    1HEX    O0517501   8.625   8.563  16.719
    1HEX    C0617502   8.490   8.589  16.756
    1HEX    C0717503   8.460   8.569  16.908
    1HEX    C0817504   8.471   8.707  16.983
    1HEX    O0917505   8.406   8.834  16.957
    1HEX    C0A17506   8.434   8.933  17.052
    1HEX    O0B17507   8.488   8.909  17.160
    1HEX    C0C17508   8.397   9.080  17.019
    1HEX    C0D17509   8.464   9.182  17.118
    1HEX    C0F17510   8.322   8.494  16.916
    1HEX    O0G17511   8.348   8.359  16.874
    1HEX    C0H17512   8.253   8.274  16.831
    1HEX    O0I17513   8.134   8.301  16.822
    1HEX    C0J17514   8.311   8.139  16.784
    1HEX    C0K17515   8.316   8.029  16.894
    1HEX    C0N17516   8.561   8.469  16.979
    1HEX    O0O17517   8.689   8.516  17.024
    1HEX    C0P17518   8.710   8.586  17.149
    1HEX    C0Q17519   8.665   8.525  17.286
    1HEX    C0R17520   8.725   8.382  17.300
    1HEX    O0S17521   8.863   8.371  17.255
    1HEX    C0T17522   8.969   8.379  17.341
    1HEX    O0U17523   8.962   8.403   0.021
    1HEX    C0V17524   9.104   8.345  17.275
    1HEX    C0W17525   9.210   8.459  17.274
    1HEX    C0Y17526   8.727   8.617  17.394
    1HEX    O0Z17527   8.678   8.581   0.082
    1HEX    C1017528   8.712   8.657   0.186
    1HEX    O1117529   8.789   8.753   0.183
    1HEX    C1217530   8.640   8.615   0.313
    1HEX    C1317531   8.713   8.665   0.438
    1HEX    C1517532   8.509   8.538  17.300
    1HEX    O1617533   8.429   8.463  17.393
    1HEX    C1717534   8.325   8.390  17.343
    1HEX    O1817535   8.330   8.326  17.238
    1HEX    C1917536   8.191   8.403  17.418
    1HEX    C1A17537   8.083   8.467  17.327
    1HEX    H1D17538   8.928   8.295  16.523
    1HEX    H1E17539   8.759   8.293  16.478
    1HEX    H1F17540   8.856   8.526  16.650
    1HEX    H1G17541   8.846   8.370  16.727
    1HEX    H1H17542   8.425   8.527  16.694
    1HEX    H1I17543   8.466   8.691  16.727
    1HEX    H1J17544   8.575   8.735  16.971
    1HEX    H1K17545   8.452   8.687  17.087
    1HEX    H1M17546   8.288   9.089  17.022
    1HEX    H1N17547   8.428   9.101  16.916
    1HEX    H1O17548   8.572   9.181  17.105
    1HEX    H1P17549   8.449   9.149  17.221
    1HEX    H1R17550   8.246   8.541  16.854
    1HEX    H1S17551   8.282   8.492  17.018
    1HEX    H1T17552   8.411   8.158  16.745
    1HEX    H1U17553   8.251   8.105  16.700
    1HEX    H1V17554   8.216   8.003  16.927
    1HEX    H1W17555   8.368   8.067  16.982
    1HEX    H1Y17556   8.586   8.391  16.907
    1HEX    H1Z17557   8.515   8.407  17.055
    1HEX    H2017558   8.676   8.689  17.144
    1HEX    H2117559   8.818   8.597  17.152
    1HEX    H2217560   8.666   8.313  17.239
    1HEX    H2317561   8.715   8.347  17.403
    1HEX    H2417562   9.086   8.308  17.174
    1HEX    H2517563   9.144   8.261  17.332
    1HEX    H2617564   9.217   8.507  17.372
    1HEX    H2717565   9.182   8.537  17.203
    1HEX    H2917566   8.702   8.721  17.375
    1HEX    H2A17567   8.836   8.613  17.394
    1HEX    H2B17568   8.635   8.506   0.312
    1HEX    H2C17569   8.539   8.653   0.308
    1HEX    H2D17570   8.718   8.773   0.442
    1HEX    H2E17571   8.816   8.629   0.439
    1HEX    H2G17572   8.461   8.525  17.205
    1HEX    H2H17573   8.486   8.643  17.323
    1HEX    H2I17574   8.205   8.459   0.071
    1HEX    H2J17575   8.161   8.302   0.006
    1HEX    H2K17576   8.094   8.429  17.225
    1HEX    H2M17577   8.099   8.575  17.319
    1STR    S0017578   8.877   8.477  16.379
    1STR    S0E17579   8.405   9.357  17.113
    1STR    S0M17580   8.403   7.876  16.836
    1STR    S0X17581   9.376   8.393  17.228
    1STR    S1417582   8.626   8.600   0.584
    1STR    S1B17583   7.907   8.440  17.376
    1HEX    C0117584   8.840   8.452   3.504
    1HEX    C0217585   8.780   8.374   3.621
    1HEX    C0317586   8.631   8.398   3.634
    1HEX    O0417587   8.550   8.306   3.620
    1HEX    O0517588   8.602   8.524   3.674
    1HEX    C0617589   8.469   8.560   3.706
    1HEX    C0717590   8.442   8.563   3.860
    1HEX    C0817591   8.467   8.709   3.915
    1HEX    O0917592   8.414   8.833   3.866
    1HEX    C0A17593   8.446   8.947   3.941
    1HEX    O0B17594   8.486   8.943   4.057
    1HEX    C0C17595   8.434   9.082   3.869
    1HEX    C0D17596   8.392   9.206   3.956
    1HEX    C0F17597   8.296   8.508   3.882
    1HEX    O0G17598   8.300   8.365   3.900
    1HEX    C0H17599   8.247   8.274   3.815
    1HEX    O0I17600   8.172   8.301   3.721
    1HEX    C0J17601   8.293   8.130   3.845
    1HEX    C0K17602   8.178   8.025   3.852
    1HEX    C0N17603   8.538   8.465   3.939
    1HEX    O0O17604   8.669   8.509   3.976
    1HEX    C0P17605   8.695   8.587   4.095
    1HEX    C0Q17606   8.652   8.536   4.236
    1HEX    C0R17607   8.704   8.390   4.253
    1HEX    O0S17608   8.840   8.377   4.206
    1HEX    C0T17609   8.948   8.376   4.290
    1HEX    O0U17610   8.942   8.377   4.412
    1HEX    C0V17611   9.083   8.374   4.215
    1HEX    C0W17612   9.204   8.419   4.301
    1HEX    C0Y17613   8.724   8.626   4.340
    1HEX    O0Z17614   8.683   8.596   4.473
    1HEX    C1017615   8.740   8.665   4.573
    1HEX    O1117616   8.829   8.749   4.561
    1HEX    C1217617   8.682   8.629   4.709
    1HEX    C1317618   8.789   8.575   4.807
    1HEX    C1517619   8.497   8.561   4.253
    1HEX    O1617620   8.415   8.493   4.349
    1HEX    C1717621   8.303   8.429   4.302
    1HEX    O1817622   8.301   8.361   4.200
    1HEX    C1917623   8.174   8.453   4.382
    1HEX    C1A17624   8.069   8.533   4.299
    1HEX    H1D17625   8.948   8.460   3.516
    1HEX    H1E17626   8.802   8.554   3.502
    1HEX    H1F17627   8.824   8.407   3.715
    1HEX    H1G17628   8.798   8.267   3.612
    1HEX    H1H17629   8.399   8.492   3.655
    1HEX    H1I17630   8.448   8.657   3.662
    1HEX    H1J17631   8.574   8.726   3.900
    1HEX    H1K17632   8.447   8.708   4.021
    1HEX    H1M17633   8.360   9.068   3.790
    1HEX    H1N17634   8.529   9.103   3.818
    1HEX    H1O17635   8.323   9.171   4.033
    1HEX    H1P17636   8.335   9.276   3.895
    1HEX    H1R17637   8.227   8.537   3.802
    1HEX    H1S17638   8.254   8.550   3.973
    1HEX    H1T17639   8.347   8.132   3.939
    1HEX    H1U17640   8.365   8.101   3.768
    1HEX    H1V17641   8.164   7.977   3.755
    1HEX    H1W17642   8.085   8.077   3.874
    1HEX    H1Y17643   8.552   8.377   3.877
    1HEX    H1Z17644   8.491   8.416   4.024
    1HEX    H2017645   8.664   8.691   4.084
    1HEX    H2117646   8.804   8.596   4.095
    1HEX    H2217647   8.642   8.322   4.194
    1HEX    H2317648   8.694   8.357   4.357
    1HEX    H2417649   9.072   8.440   4.129
    1HEX    H2517650   9.099   8.274   4.176
    1HEX    H2617651   9.178   8.505   4.363
    1HEX    H2717652   9.232   8.340   4.371
    1HEX    H2917653   8.704   8.731   4.320
    1HEX    H2A17654   8.832   8.615   4.333
    1HEX    H2B17655   8.604   8.554   4.695
    1HEX    H2C17656   8.633   8.718   4.749
    1HEX    H2D17657   8.884   8.562   4.755
    1HEX    H2E17658   8.760   8.478   4.846
    1HEX    H2G17659   8.445   8.556   4.159
    1HEX    H2H17660   8.484   8.667   4.277
    1HEX    H2I17661   8.197   8.503   4.476
    1HEX    H2J17662   8.134   8.355   4.407
    1HEX    H2K17663   8.076   8.507   4.193
    1HEX    H2M17664   8.091   8.640   4.304
    1STR    S0017665   8.807   8.372   3.345
    1STR    S0E17666   8.522   9.304   4.043
    1STR    S0M17667   8.198   7.894   3.981
    1STR    S0X17668   9.352   8.467   4.201
    1STR    S1417669   8.817   8.688   4.948
    1STR    S1B17670   7.895   8.507   4.350
    1HEX    C0117671   8.848   8.449   7.755
    1HEX    C0217672   8.809   8.515   7.889
    1HEX    C0317673   8.681   8.460   7.950
    1HEX    O0417674   8.657   8.339   7.949
    1HEX    O0517675   8.605   8.557   8.003
    1HEX    C0617676   8.475   8.526   8.052
    1HEX    C0717677   8.466   8.521   8.207
    1HEX    C0817678   8.471   8.666   8.265
    1HEX    O0917679   8.392   8.782   8.229
    1HEX    C0A17680   8.416   8.895   8.308
    1HEX    O0B17681   8.482   8.891   8.412
    1HEX    C0C17682   8.360   9.032   8.261
    1HEX    C0D17683   8.428   9.150   8.341
    1HEX    C0F17684   8.337   8.438   8.240
    1HEX    O0G17685   8.370   8.297   8.238
    1HEX    C0H17686   8.311   8.207   8.157
    1HEX    O0I17687   8.211   8.229   8.089
    1HEX    C0J17688   8.384   8.072   8.148
    1HEX    C0K17689   8.412   7.997   8.281
    1HEX    C0N17690   8.585   8.439   8.272
    1HEX    O0O17691   8.704   8.505   8.317
    1HEX    C0P17692   8.713   8.575   8.443
    1HEX    C0Q17693   8.665   8.513   8.579
    1HEX    C0R17694   8.724   8.371   8.597
    1HEX    O0S17695   8.864   8.362   8.564
    1HEX    C0T17696   8.960   8.363   8.660
    1HEX    O0U17697   8.941   8.384   8.780
    1HEX    C0V17698   9.100   8.329   8.608
    1HEX    C0W17699   9.197   8.450   8.599
    1HEX    C0Y17700   8.722   8.607   8.689
    1HEX    O0Z17701   8.684   8.569   8.820
    1HEX    C1017702   8.737   8.636   8.922
    1HEX    O1117703   8.819   8.728   8.912
    1HEX    C1217704   8.683   8.592   9.058
    1HEX    C1317705   8.771   8.638   9.177
    1HEX    C1517706   8.508   8.519   8.587
    1HEX    O1617707   8.437   8.463   8.699
    1HEX    C1717708   8.311   8.413   8.677
    1HEX    O1817709   8.272   8.366   8.571
    1HEX    C1917710   8.216   8.425   8.797
    1HEX    C1A17711   8.085   8.501   8.761
    1HEX    H1D17712   8.868   8.343   7.772
    1HEX    H1E17713   8.940   8.493   7.716
    1HEX    H1F17714   8.798   8.623   7.876
    1HEX    H1G17715   8.888   8.501   7.963
    1HEX    H1H17716   8.439   8.433   8.008
    1HEX    H1I17717   8.407   8.602   8.014
    1HEX    H1J17718   8.572   8.701   8.247
    1HEX    H1K17719   8.457   8.656   8.372
    1HEX    H1M17720   8.252   9.032   8.276
    1HEX    H1N17721   8.379   9.043   8.154
    1HEX    H1O17722   8.535   9.149   8.320
    1HEX    H1P17723   8.419   9.131   8.448
    1HEX    H1R17724   8.255   8.462   8.172
    1HEX    H1S17725   8.298   8.462   8.339
    1HEX    H1T17726   8.478   8.089   8.094
    1HEX    H1U17727   8.324   8.009   8.083
    1HEX    H1V17728   8.325   7.998   8.347
    1HEX    H1W17729   8.493   8.046   8.336
    1HEX    H1Y17730   8.619   8.367   8.197
    1HEX    H1Z17731   8.555   8.372   8.351
    1HEX    H2017732   8.674   8.676   8.434
    1HEX    H2117733   8.820   8.593   8.451
    1HEX    H2217734   8.672   8.300   8.533
    1HEX    H2317735   8.706   8.335   8.699
    1HEX    H2417736   9.093   8.277   8.512
    1HEX    H2517737   9.140   8.256   8.678
    1HEX    H2617738   9.158   8.533   8.658
    1HEX    H2717739   9.204   8.485   8.496
    1HEX    H2917740   8.689   8.710   8.673
    1HEX    H2A17741   8.831   8.609   8.683
    1HEX    H2B17742   8.672   8.483   9.058
    1HEX    H2C17743   8.583   8.634   9.065
    1HEX    H2D17744   8.817   8.734   9.156
    1HEX    H2E17745   8.853   8.568   9.195
    1HEX    H2G17746   8.465   8.478   8.498
    1HEX    H2H17747   8.478   8.624   8.586
    1HEX    H2I17748   8.268   8.477   8.876
    1HEX    H2J17749   8.194   8.325   8.833
    1HEX    H2K17750   8.094   8.547   8.662
    1HEX    H2M17751   8.067   8.584   8.830
    1STR    S0017752   8.720   8.460   7.627
    1STR    S0E17753   8.366   9.323   8.317
    1STR    S0M17754   8.461   7.822   8.248
    1STR    S0X17755   9.364   8.409   8.664
    1STR    S1417756   8.668   8.660   9.326
    1STR    S1B17757   7.933   8.398   8.757
    1HEX    C0117758   8.871   8.472  12.124
    1HEX    C0217759   8.836   8.532  12.262
    1HEX    C0317760   8.693   8.502  12.304
    1HEX    O0417761   8.647   8.388  12.295
    1HEX    O0517762   8.630   8.610  12.354
    1HEX    C0617763   8.493   8.602  12.389
    1HEX    C0717764   8.468   8.584  12.541
    1HEX    C0817765   8.488   8.722  12.614
    1HEX    O0917766   8.427   8.851  12.592
    1HEX    C0A17767   8.459   8.948  12.688
    1HEX    O0B17768   8.512   8.920  12.796
    1HEX    C0C17769   8.432   9.096  12.654
    1HEX    C0D17770   8.524   9.194  12.738
    1HEX    C0F17771   8.326   8.520  12.557
    1HEX    O0G17772   8.334   8.378  12.530
    1HEX    C0H17773   8.279   8.322  12.420
    1HEX    O0I17774   8.205   8.381  12.342
    1HEX    C0J17775   8.320   8.176  12.392
    1HEX    C0K17776   8.361   8.088  12.514
    1HEX    C0N17777   8.567   8.480  12.607
    1HEX    O0O17778   8.695   8.525  12.658
    1HEX    C0P17779   8.713   8.594  12.784
    1HEX    C0Q17780   8.662   8.533  12.919
    1HEX    C0R17781   8.725   8.391  12.935
    1HEX    O0S17782   8.865   8.385  12.897
    1HEX    C0T17783   8.967   8.398  12.986
    1HEX    O0U17784   8.955   8.420  13.107
    1HEX    C0V17785   9.107   8.379  12.924
    1HEX    C0W17786   9.210   8.492  12.955
    1HEX    C0Y17787   8.718   8.624  13.031
    1HEX    O0Z17788   8.673   8.576  13.156
    1HEX    C1017789   8.710   8.640  13.266
    1HEX    O1117790   8.777   8.743  13.270
    1HEX    C1217791   8.658   8.573  13.391
    1HEX    C1317792   8.749   8.602  13.510
    1HEX    C1517793   8.505   8.547  12.925
    1HEX    O1617794   8.421   8.484  13.023
    1HEX    C1717795   8.312   8.415  12.976
    1HEX    O1817796   8.317   8.336  12.881
    1HEX    C1917797   8.176   8.452  13.039
    1HEX    C1A17798   8.074   8.492  12.928
    1HEX    H1D17799   8.979   8.468  12.113
    1HEX    H1E17800   8.835   8.369  12.117
    1HEX    H1F17801   8.853   8.640  12.264
    1HEX    H1G17802   8.899   8.488  12.339
    1HEX    H1H17803   8.446   8.522  12.331
    1HEX    H1I17804   8.444   8.692  12.353
    1HEX    H1J17805   8.593   8.745  12.599
    1HEX    H1K17806   8.470   8.701  12.719
    1HEX    H1M17807   8.327   9.115  12.676
    1HEX    H1N17808   8.446   9.112  12.548
    1HEX    H1O17809   8.626   9.188  12.701
    1HEX    H1P17810   8.529   9.161  12.841
    1HEX    H1R17811   8.252   8.570  12.494
    1HEX    H1S17812   8.289   8.531  12.659
    1HEX    H1T17813   8.402   8.179  12.320
    1HEX    H1U17814   8.236   8.130  12.340
    1HEX    H1V17815   8.291   8.102  12.597
    1HEX    H1W17816   8.459   8.119  12.550
    1HEX    H1Y17817   8.591   8.406  12.531
    1HEX    H1Z17818   8.521   8.413  12.679
    1HEX    H2017819   8.684   8.698  12.779
    1HEX    H2117820   8.822   8.602  12.790
    1HEX    H2217821   8.671   8.321  12.871
    1HEX    H2317822   8.711   8.354  13.037
    1HEX    H2417823   9.096   8.367  12.816
    1HEX    H2517824   9.145   8.285  12.962
    1HEX    H2617825   9.223   8.504  13.063
    1HEX    H2717826   9.174   8.588  12.919
    1HEX    H2917827   8.684   8.728  13.019
    1HEX    H2A17828   8.827   8.628  13.030
    1HEX    H2B17829   8.653   8.465  13.373
    1HEX    H2C17830   8.557   8.608  13.410
    1HEX    H2D17831   8.749   8.710  13.530
    1HEX    H2E17832   8.853   8.576  13.487
    1HEX    H2G17833   8.461   8.526  12.830
    1HEX    H2H17834   8.483   8.653  12.938
    1HEX    H2I17835   8.190   8.533  13.111
    1HEX    H2J17836   8.140   8.365  13.094
    1HEX    H2K17837   8.076   8.417  12.848
    1HEX    H2M17838   8.104   8.585  12.881
    1STR    S0017839   8.803   8.567  11.984
    1STR    S0E17840   8.473   9.372  12.748
    1STR    S0M17841   8.364   7.909  12.468
    1STR    S0X17842   9.375   8.460  12.878
    1STR    S1417843   8.696   8.512  13.658
    1STR    S1B17844   7.898   8.510  12.978
    1HEX    C0117845   8.824  12.784  16.472
    1HEX    C0217846   8.798  12.846  16.611
    1HEX    C0317847   8.661  12.810  16.668
    1HEX    O0417848   8.615  12.697  16.654
    1HEX    O0517849   8.603  12.911  16.736
    1HEX    C0617850   8.472  12.895  16.789
    1HEX    C0717851   8.466  12.895  16.944
    1HEX    C0817852   8.485  13.040  16.998
    1HEX    O0917853   8.412  13.158  16.961
    1HEX    C0A17854   8.438  13.271  17.037
    1HEX    O0B17855   8.494  13.269  17.147
    1HEX    C0C17856   8.396  13.406  16.976
    1HEX    C0D17857   8.371  13.522  17.078
    1HEX    C0F17858   8.328  12.830  16.983
    1HEX    O0G17859   8.340  12.690  17.017
    1HEX    C0H17860   8.308  12.588  16.936
    1HEX    O0I17861   8.249  12.599  16.829
    1HEX    C0J17862   8.358  12.451  16.988
    1HEX    C0K17863   8.251  12.367  17.063
    1HEX    C0N17864   8.581  12.805  17.007
    1HEX    O0O17865   8.703  12.866  17.052
    1HEX    C0P17866   8.715  12.937  17.178
    1HEX    C0Q17867   8.663  12.880  17.314
    1HEX    C0R17868   8.720  12.736  17.335
    1HEX    O0S17869   8.858  12.726  17.292
    1HEX    C0T17870   8.962  12.738  17.378
    1HEX    O0U17871   8.953  12.760   0.059
    1HEX    C0V17872   9.099  12.722  17.309
    1HEX    C0W17873   9.223  12.736  17.402
    1HEX    C0Y17874   8.719  12.974  17.424
    1HEX    O0Z17875   8.676  12.937   0.115
    1HEX    C1017876   8.713  13.013   0.219
    1HEX    O1117877   8.780  13.116   0.211
    1HEX    C1217878   8.661  12.961   0.352
    1HEX    C1317879   8.768  12.959   0.463
    1HEX    C1517880   8.506  12.891  17.320
    1HEX    O1617881   8.428  12.837  17.427
    1HEX    C1717882   8.318  12.763  17.396
    1HEX    O1817883   8.310  12.687  17.299
    1HEX    C1917884   8.194  12.787   0.043
    1HEX    C1A17885   8.081  12.857  17.403
    1HEX    H1D17886   8.928  12.753  16.466
    1HEX    H1E17887   8.765  12.694  16.457
    1HEX    H1F17888   8.810  12.954  16.611
    1HEX    H1G17889   8.869  12.806  16.683
    1HEX    H1H17890   8.425  12.804  16.749
    1HEX    H1I17891   8.411  12.976  16.749
    1HEX    H1J17892   8.588  13.068  16.975
    1HEX    H1K17893   8.475  13.034  17.105
    1HEX    H1M17894   8.305  13.387  16.920
    1HEX    H1N17895   8.472  13.435  16.903
    1HEX    H1O17896   8.348  13.481  17.176
    1HEX    H1P17897   8.282  13.578  17.049
    1HEX    H1R17898   8.251  12.844  16.907
    1HEX    H1S17899   8.287  12.879  17.072
    1HEX    H1T17900   8.443  12.470  17.053
    1HEX    H1U17901   8.396  12.393  16.903
    1HEX    H1V17902   8.188  12.312  16.993
    1HEX    H1W17903   8.185  12.436  17.117
    1HEX    H1Y17904   8.610  12.732  16.931
    1HEX    H1Z17905   8.549  12.738  17.086
    1HEX    H2017906   8.683  13.041  17.168
    1HEX    H2117907   8.824  12.949  17.187
    1HEX    H2217908   8.663  12.665  17.277
    1HEX    H2317909   8.709  12.705  17.439
    1HEX    H2417910   9.104  12.792  17.224
    1HEX    H2517911   9.097  12.622  17.265
    1HEX    H2617912   9.185  12.835  17.427
    1HEX    H2717913   9.285  12.694  17.323
    1HEX    H2917914   8.689  13.077  17.406
    1HEX    H2A17915   8.829  12.975  17.424
    1HEX    H2B17916   8.622  12.860   0.337
    1HEX    H2C17917   8.576  13.023   0.380
    1HEX    H2D17918   8.864  12.991   0.424
    1HEX    H2E17919   8.783  12.857   0.500
    1HEX    H2G17920   8.463  12.856  17.228
    1HEX    H2H17921   8.481  12.997  17.321
    1HEX    H2I17922   8.222  12.843   0.133
    1HEX    H2J17923   8.160  12.689   0.077
    1HEX    H2K17924   8.075  12.816  17.302
    1HEX    H2M17925   8.105  12.963  17.391
    1STR    S0017926   8.791  12.897  16.333
    1STR    S0E17927   8.510  13.642  17.100
    1STR    S0M17928   8.317  12.249  17.189
    1STR    S0X17929   9.362  12.860  17.401
    1STR    S1417930   8.724  13.067   0.603
    1STR    S1B17931   7.915  12.845   0.038
    1HEX    C0117932   8.856  12.875   3.387
    1HEX    C0217933   8.826  12.839   3.535
    1HEX    C0317934   8.678  12.826   3.566
    1HEX    O0417935   8.615  12.725   3.537
    1HEX    O0517936   8.630  12.934   3.631
    1HEX    C0617937   8.493  12.939   3.668
    1HEX    C0717938   8.469  12.912   3.819
    1HEX    C0817939   8.468  13.049   3.897
    1HEX    O0917940   8.401  13.173   3.864
    1HEX    C0A17941   8.425  13.277   3.955
    1HEX    O0B17942   8.482  13.260   4.063
    1HEX    C0C17943   8.383  13.420   3.915
    1HEX    C0D17944   8.430  13.528   4.019
    1HEX    C0F17945   8.338  12.825   3.826
    1HEX    O0G17946   8.378  12.690   3.797
    1HEX    C0H17947   8.301  12.596   3.739
    1HEX    O0I17948   8.184  12.611   3.705
    1HEX    C0J17949   8.380  12.467   3.707
    1HEX    C0K17950   8.376  12.358   3.818
    1HEX    C0N17951   8.580  12.820   3.885
    1HEX    O0O17952   8.702  12.875   3.936
    1HEX    C0P17953   8.713  12.939   4.065
    1HEX    C0Q17954   8.663  12.873   4.199
    1HEX    C0R17955   8.725  12.731   4.215
    1HEX    O0S17956   8.864  12.721   4.177
    1HEX    C0T17957   8.965  12.728   4.269
    1HEX    O0U17958   8.952  12.760   4.386
    1HEX    C0V17959   9.101  12.683   4.215
    1HEX    C0W17960   9.209  12.794   4.203
    1HEX    C0Y17961   8.719  12.967   4.309
    1HEX    O0Z17962   8.673  12.934   4.439
    1HEX    C1017963   8.713  13.011   4.540
    1HEX    O1117964   8.793  13.105   4.531
    1HEX    C1217965   8.646  12.976   4.672
    1HEX    C1317966   8.735  13.006   4.793
    1HEX    C1517967   8.506  12.879   4.206
    1HEX    O1617968   8.428  12.803   4.301
    1HEX    C1717969   8.304  12.756   4.262
    1HEX    O1817970   8.272  12.732   4.145
    1HEX    C1917971   8.201  12.736   4.373
    1HEX    C1A17972   8.067  12.813   4.350
    1HEX    H1D17973   8.825  12.771   3.373
    1HEX    H1E17974   8.801  12.968   3.394
    1HEX    H1F17975   8.868  12.914   3.601
    1HEX    H1G17976   8.873  12.745   3.565
    1HEX    H1H17977   8.436  12.870   3.606
    1HEX    H1I17978   8.454  13.037   3.640
    1HEX    H1J17979   8.571  13.082   3.891
    1HEX    H1K17980   8.443  13.029   4.000
    1HEX    H1M17981   8.274  13.421   3.904
    1HEX    H1N17982   8.425  13.441   3.817
    1HEX    H1O17983   8.539  13.527   4.027
    1HEX    H1P17984   8.395  13.500   4.119
    1HEX    H1R17985   8.260  12.860   3.757
    1HEX    H1S17986   8.292  12.829   3.925
    1HEX    H1T17987   8.483  12.497   3.687
    1HEX    H1U17988   8.342  12.426   3.614
    1HEX    H1V17989   8.275  12.318   3.829
    1HEX    H1W17990   8.402  12.401   3.915
    1HEX    H1Y17991   8.613  12.750   3.809
    1HEX    H1Z17992   8.541  12.749   3.958
    1HEX    H2017993   8.677  13.041   4.062
    1HEX    H2117994   8.821  12.953   4.075
    1HEX    H2217995   8.670  12.661   4.153
    1HEX    H2317996   8.711  12.696   4.318
    1HEX    H2417997   9.088  12.631   4.120
    1HEX    H2517998   9.136  12.608   4.286
    1HEX    H2617999   9.206  12.862   4.288
    1HEX    H2718000   9.191  12.855   4.114
    1HEX    H2918001   8.690  13.071   4.290
    1HEX    H2A18002   8.828  12.967   4.310
    1HEX    H2B18003   8.620  12.870   4.670
    1HEX    H2C18004   8.553  13.032   4.677
    1HEX    H2D18005   8.776  13.108   4.791
    1HEX    H2E18006   8.821  12.938   4.795
    1HEX    H2G18007   8.466  12.855   4.109
    1HEX    H2H18008   8.476  12.982   4.222
    1HEX    H2I18009   8.247  12.772   4.466
    1HEX    H2J18010   8.183  12.630   4.388
    1HEX    H2K18011   8.086  12.907   4.297
    1HEX    H2M18012   8.024  12.842   4.446
    1STR    S0018013   8.764  12.845   3.231
    1STR    S0E18014   8.374  13.701   3.990
    1STR    S0M18015   8.493  12.218   3.785
    1STR    S0X18016   9.377  12.719   4.193
    1STR    S1418017   8.635  12.985   4.943
    1STR    S1B18018   7.934  12.724   4.258
    1HEX    C0118019   8.917  12.853   7.843
    1HEX    C0218020   8.836  12.949   7.933
    1HEX    C0318021   8.699  12.896   7.971
    1HEX    O0418022   8.671  12.776   7.966
    1HEX    O0518023   8.618  12.994   8.016
    1HEX    C0618024   8.480  12.967   8.038
    1HEX    C0718025   8.445  12.948   8.188
    1HEX    C0818026   8.458  13.084   8.264
    1HEX    O0918027   8.404  13.212   8.227
    1HEX    C0A18028   8.432  13.315   8.316
    1HEX    O0B18029   8.478  13.296   8.429
    1HEX    C0C18030   8.410  13.460   8.268
    1HEX    C0D18031   8.511  13.560   8.336
    1HEX    C0F18032   8.302  12.885   8.192
    1HEX    O0G18033   8.316  12.744   8.166
    1HEX    C0H18034   8.236  12.676   8.083
    1HEX    O0I18035   8.133  12.721   8.032
    1HEX    C0J18036   8.287  12.535   8.050
    1HEX    C0K18037   8.292  12.439   8.172
    1HEX    C0N18038   8.539  12.842   8.258
    1HEX    O0O18039   8.666  12.880   8.313
    1HEX    C0P18040   8.681  12.949   8.439
    1HEX    C0Q18041   8.645  12.878   8.574
    1HEX    C0R18042   8.732  12.750   8.590
    1HEX    O0S18043   8.870  12.769   8.552
    1HEX    C0T18044   8.971  12.762   8.640
    1HEX    O0U18045   8.961  12.759   8.763
    1HEX    C0V18046   9.108  12.756   8.571
    1HEX    C0W18047   9.222  12.823   8.651
    1HEX    C0Y18048   8.682  12.980   8.684
    1HEX    O0Z18049   8.669  12.928   8.816
    1HEX    C1018050   8.718  13.000   8.917
    1HEX    O1118051   8.776  13.108   8.905
    1HEX    C1218052   8.698  12.936   9.053
    1HEX    C1318053   8.809  12.982   9.150
    1HEX    C1518054   8.492  12.844   8.576
    1HEX    O1618055   8.404  12.886   8.682
    1HEX    C1718056   8.282  12.825   8.687
    1HEX    O1818057   8.259  12.711   8.647
    1HEX    C1918058   8.165  12.913   8.737
    1HEX    C1A18059   8.041  12.893   8.645
    1HEX    H1D18060   9.023  12.863   7.866
    1HEX    H1E18061   8.891  12.750   7.864
    1HEX    H1F18062   8.824  13.046   7.885
    1HEX    H1G18063   8.888  12.966   8.027
    1HEX    H1H18064   8.449  12.880   7.979
    1HEX    H1I18065   8.423  13.050   7.997
    1HEX    H1J18066   8.565  13.107   8.258
    1HEX    H1K18067   8.431  13.067   8.367
    1HEX    H1M18068   8.307  13.487   8.291
    1HEX    H1N18069   8.420  13.464   8.159
    1HEX    H1O18070   8.609  13.549   8.291
    1HEX    H1P18071   8.524  13.533   8.441
    1HEX    H1R18072   8.235  12.933   8.120
    1HEX    H1S18073   8.254  12.898   8.289
    1HEX    H1T18074   8.385  12.543   8.004
    1HEX    H1U18075   8.220  12.495   7.974
    1HEX    H1V18076   8.200  12.449   8.231
    1HEX    H1W18077   8.375  12.464   8.238
    1HEX    H1Y18078   8.562  12.767   8.183
    1HEX    H1Z18079   8.485  12.780   8.330
    1HEX    H2018080   8.637  13.048   8.440
    1HEX    H2118081   8.788  12.971   8.441
    1HEX    H2218082   8.694  12.672   8.525
    1HEX    H2318083   8.724  12.711   8.692
    1HEX    H2418084   9.097  12.804   8.474
    1HEX    H2518085   9.131  12.652   8.552
    1HEX    H2618086   9.192  12.923   8.684
    1HEX    H2718087   9.243  12.767   8.742
    1HEX    H2918088   8.622  13.070   8.676
    1HEX    H2A18089   8.786  13.011   8.671
    1HEX    H2B18090   8.700  12.828   9.041
    1HEX    H2C18091   8.599  12.964   9.090
    1HEX    H2D18092   8.807  13.091   9.159
    1HEX    H2E18093   8.906  12.957   9.107
    1HEX    H2G18094   8.479  12.738   8.555
    1HEX    H2H18095   8.443  12.896   8.495
    1HEX    H2I18096   8.197  13.017   8.738
    1HEX    H2J18097   8.142  12.883   8.839
    1HEX    H2K18098   8.008  12.789   8.651
    1HEX    H2M18099   8.069  12.908   8.541
    1STR    S0018100   8.900  12.880   7.663
    1STR    S0E18101   8.465  13.739   8.342
    1STR    S0M18102   8.306  12.263   8.119
    1STR    S0X18103   9.376  12.838   8.552
    1STR    S1418104   8.797  12.911   9.317
    1STR    S1B18105   7.896  13.001   8.677
    1HEX    C0118106   8.840  12.814  12.121
    1HEX    C0218107   8.833  12.835  12.274
    1HEX    C0318108   8.698  12.794  12.330
    1HEX    O0418109   8.662  12.676  12.327
    1HEX    O0518110   8.628  12.896  12.383
    1HEX    C0618111   8.496  12.874  12.430
    1HEX    C0718112   8.483  12.871  12.584
    1HEX    C0818113   8.491  13.017  12.639
    1HEX    O0918114   8.421  13.133  12.590
    1HEX    C0A18115   8.426  13.244  12.671
    1HEX    O0B18116   8.439  13.240  12.793
    1HEX    C0C18117   8.422  13.381  12.599
    1HEX    C0D18118   8.438  13.502  12.696
    1HEX    C0F18119   8.349  12.796  12.616
    1HEX    O0G18120   8.373  12.654  12.621
    1HEX    C0H18121   8.312  12.565  12.540
    1HEX    O0I18122   8.218  12.592  12.465
    1HEX    C0J18123   8.374  12.424  12.543
    1HEX    C0K18124   8.386  12.355  12.682
    1HEX    C0N18125   8.597  12.787  12.654
    1HEX    O0O18126   8.717  12.850  12.700
    1HEX    C0P18127   8.726  12.925  12.824
    1HEX    C0Q18128   8.672  12.871  12.961
    1HEX    C0R18129   8.725  12.727  12.986
    1HEX    O0S18130   8.865  12.710  12.954
    1HEX    C0T18131   8.961  12.716  13.050
    1HEX    O0U18132   8.944  12.751  13.166
    1HEX    C0V18133   9.099  12.672  13.000
    1HEX    C0W18134   9.202  12.787  12.991
    1HEX    C0Y18135   8.729  12.966  13.069
    1HEX    O0Z18136   8.688  12.929  13.199
    1HEX    C1018137   8.728  13.004  13.303
    1HEX    O1118138   8.794  13.107  13.294
    1HEX    C1218139   8.677  12.951  13.436
    1HEX    C1318140   8.775  12.976  13.553
    1HEX    C1518141   8.516  12.884  12.965
    1HEX    O1618142   8.439  12.840  13.078
    1HEX    C1718143   8.316  12.786  13.054
    1HEX    O1818144   8.286  12.723  12.953
    1HEX    C1918145   8.210  12.814  13.161
    1HEX    C1A18146   8.089  12.890  13.100
    1HEX    H1D18147   8.941  12.789  12.090
    1HEX    H1E18148   8.777  12.729  12.092
    1HEX    H1F18149   8.857  12.937  12.303
    1HEX    H1G18150   8.906  12.770  12.323
    1HEX    H1H18151   8.455  12.782  12.386
    1HEX    H1I18152   8.433  12.953  12.389
    1HEX    H1J18153   8.594  13.048  12.624
    1HEX    H1K18154   8.472  13.011  12.745
    1HEX    H1M18155   8.330  13.388  12.541
    1HEX    H1N18156   8.505  13.379  12.528
    1HEX    H1O18157   8.506  13.480  12.779
    1HEX    H1P18158   8.342  13.524  12.744
    1HEX    H1R18159   8.270  12.822  12.545
    1HEX    H1S18160   8.309  12.825  12.713
    1HEX    H1T18161   8.472  12.431  12.496
    1HEX    H1U18162   8.314  12.362  12.476
    1HEX    H1V18163   8.291  12.356  12.735
    1HEX    H1W18164   8.458  12.408  12.744
    1HEX    H1Y18165   8.629  12.711  12.582
    1HEX    H1Z18166   8.561  12.723  12.735
    1HEX    H2018167   8.692  13.027  12.810
    1HEX    H2118168   8.834  12.937  12.834
    1HEX    H2218169   8.670  12.656  12.924
    1HEX    H2318170   8.705  12.696  13.088
    1HEX    H2418171   9.090  12.619  12.905
    1HEX    H2518172   9.133  12.598  13.073
    1HEX    H2618173   9.184  12.863  13.067
    1HEX    H2718174   9.193  12.836  12.894
    1HEX    H2918175   8.698  13.069  13.050
    1HEX    H2A18176   8.838  12.968  13.067
    1HEX    H2B18177   8.656  12.845  13.427
    1HEX    H2C18178   8.582  13.001  13.454
    1HEX    H2D18179   8.849  13.052  13.527
    1HEX    H2E18180   8.831  12.886  13.577
    1HEX    H2G18181   8.474  12.839  12.876
    1HEX    H2H18182   8.491  12.990  12.957
    1HEX    H2I18183   8.254  12.868  13.245
    1HEX    H2J18184   8.178  12.717  13.198
    1HEX    H2K18185   8.079  12.866  12.994
    1HEX    H2M18186   8.104  12.998  13.104
    1STR    S0018187   8.789  12.965  12.032
    1STR    S0E18188   8.501  13.655  12.615
    1STR    S0M18189   8.441  12.180  12.663
    1STR    S0X18190   9.374  12.724  13.011
    1STR    S1418191   8.686  13.037  13.701
    1STR    S1B18192   7.928  12.849  13.176
    1HEX    C0118193  13.212  17.121  16.497
    1HEX    C0218194  13.176  17.168  16.639
    1HEX    C0318195  13.027  17.181  16.661
    1HEX    O0418196  12.951  17.085  16.641
    1HEX    O0518197  12.990  17.300  16.713
    1HEX    C0618198  12.855  17.322  16.750
    1HEX    C0718199  12.827  17.304  16.902
    1HEX    C0818200  12.847   0.001  16.977
    1HEX    O0918201  12.781   0.128  16.955
    1HEX    C0A18202  12.796   0.222  17.057
    1HEX    O0B18203  12.825   0.193  17.173
    1HEX    C0C18204  12.776   0.371  17.021
    1HEX    C0D18205  12.856   0.469  17.115
    1HEX    C0F18206  12.684  17.242  16.916
    1HEX    O0G18207  12.690  17.100  16.888
    1HEX    C0H18208  12.624  17.044  16.784
    1HEX    O0I18209  12.541  17.102  16.715
    1HEX    C0J18210  12.664  16.898  16.755
    1HEX    C0K18211  12.708  16.811  16.876
    1HEX    C0N18212  12.923  17.197  16.969
    1HEX    O0O18213  13.052  17.239  17.017
    1HEX    C0P18214  13.075  17.307  17.142
    1HEX    C0Q18215  13.026  17.247  17.278
    1HEX    C0R18216  13.086  17.104  17.293
    1HEX    O0S18217  13.225  17.095  17.252
    1HEX    C0T18218  13.330  17.106  17.339
    1HEX    O0U18219  13.320  17.133   0.019
    1HEX    C0V18220  13.468  17.077  17.276
    1HEX    C0W18221  13.571  17.194  17.284
    1HEX    C0Y18222  13.085  17.338  17.388
    1HEX    O0Z18223  13.038  17.295   0.075
    1HEX    C1018224  13.062  17.370   0.182
    1HEX    O1118225  13.120   0.038   0.183
    1HEX    C1218226  13.004  17.308   0.307
    1HEX    C1318227  13.064  17.369   0.434
    1HEX    C1518228  12.869  17.262  17.289
    1HEX    O1618229  12.787  17.192  17.384
    1HEX    C1718230  12.683  17.119  17.333
    1HEX    O1818231  12.691  17.048  17.233
    1HEX    C1918232  12.547  17.141  17.402
    1HEX    C1A18233  12.441  17.183  17.295
    1HEX    H1D18234  13.310  17.073  16.497
    1HEX    H1E18235  13.141  17.046  16.460
    1HEX    H1F18236  13.226  17.262  16.663
    1HEX    H1G18237  13.211  17.094  16.712
    1HEX    H1H18238  12.790  17.258  16.690
    1HEX    H1I18239  12.828  17.423  16.719
    1HEX    H1J18240  12.952   0.027  16.960
    1HEX    H1K18241  12.834  17.419  17.081
    1HEX    H1M18242  12.669   0.392  17.027
    1HEX    H1N18243  12.806   0.387  16.917
    1HEX    H1O18244  12.962   0.468  17.089
    1HEX    H1P18245  12.852   0.433  17.219
    1HEX    H1R18246  12.611  17.294  16.853
    1HEX    H1S18247  12.647  17.252  17.018
    1HEX    H1T18248  12.744  16.900  16.681
    1HEX    H1U18249  12.579  16.851  16.705
    1HEX    H1V18250  12.647  16.833  16.964
    1HEX    H1W18251  12.811  16.836  16.903
    1HEX    H1Y18252  12.944  17.121  16.895
    1HEX    H1Z18253  12.875  17.133  17.043
    1HEX    H2018254  13.047  17.412  17.137
    1HEX    H2118255  13.184  17.313  17.146
    1HEX    H2218256  13.030  17.035  17.231
    1HEX    H2318257  13.074  17.068  17.395
    1HEX    H2418258  13.453  17.045  17.173
    1HEX    H2518259  13.508  16.991  17.329
    1HEX    H2618260  13.581  17.230  17.386
    1HEX    H2718261  13.538  17.278  17.224
    1HEX    H2918262  13.056   0.003  17.373
    1HEX    H2A18263  13.194  17.339  17.388
    1HEX    H2B18264  13.024  17.201   0.303
    1HEX    H2C18265  12.896  17.321   0.304
    1HEX    H2D18266  13.046   0.037   0.440
    1HEX    H2E18267  13.172  17.356   0.435
    1HEX    H2G18268  12.822  17.249  17.194
    1HEX    H2H18269  12.848  17.367  17.310
    1HEX    H2I18270  12.556  17.215   0.041
    1HEX    H2J18271  12.518  17.047   0.008
    1HEX    H2K18272  12.450  17.117  17.209
    1HEX    H2M18273  12.463  17.283  17.258
    1STR    S0018274  13.220  17.260  16.380
    1STR    S0E18275  12.797   0.644  17.123
    1STR    S0M18276  12.695  16.630  16.840
    1STR    S0X18277  13.737  17.140  17.224
    1STR    S1418278  12.993  17.287   0.580
    1STR    S1B18279  12.263  17.181  17.346
    1HEX    C0118280  13.232  17.152   3.473
    1HEX    C0218281  13.180  17.129   3.617
    1HEX    C0318282  13.029  17.127   3.631
    1HEX    O0418283  12.966  17.023   3.615
    1HEX    O0518284  12.980  17.246   3.673
    1HEX    C0618285  12.844  17.257   3.710
    1HEX    C0718286  12.824  17.259   3.865
    1HEX    C0818287  12.839  17.405   3.919
    1HEX    O0918288  12.776   0.085   3.870
    1HEX    C0A18289  12.802   0.202   3.943
    1HEX    O0B18290  12.845   0.202   4.058
    1HEX    C0C18291  12.779   0.335   3.868
    1HEX    C0D18292  12.742   0.459   3.957
    1HEX    C0F18293  12.686  17.188   3.891
    1HEX    O0G18294  12.710  17.046   3.889
    1HEX    C0H18295  12.623  16.955   3.843
    1HEX    O0I18296  12.509  16.978   3.802
    1HEX    C0J18297  12.682  16.813   3.840
    1HEX    C0K18298  12.664  16.733   3.973
    1HEX    C0N18299  12.931  17.168   3.939
    1HEX    O0O18300  13.057  17.224   3.979
    1HEX    C0P18301  13.073  17.302   4.100
    1HEX    C0Q18302  13.025  17.247   4.239
    1HEX    C0R18303  13.079  17.102   4.256
    1HEX    O0S18304  13.217  17.090   4.213
    1HEX    C0T18305  13.321  17.091   4.300
    1HEX    O0U18306  13.311  17.099   4.422
    1HEX    C0V18307  13.459  17.081   4.233
    1HEX    C0W18308  13.546  17.207   4.258
    1HEX    C0Y18309  13.089  17.338   4.346
    1HEX    O0Z18310  13.045  17.306   4.477
    1HEX    C1018311  13.094  17.377   4.580
    1HEX    O1118312  13.178   0.026   4.572
    1HEX    C1218313  13.033  17.336   4.713
    1HEX    C1318314  13.140  17.303   4.819
    1HEX    C1518315  12.868  17.267   4.249
    1HEX    O1618316  12.788  17.213   4.355
    1HEX    C1718317  12.672  17.148   4.320
    1HEX    O1818318  12.663  17.070   4.226
    1HEX    C1918319  12.548  17.186   4.403
    1HEX    C1A18320  12.429  17.225   4.310
    1HEX    H1D18321  13.216  17.045   3.466
    1HEX    H1E18322  13.164  17.236   3.459
    1HEX    H1F18323  13.216  17.210   3.682
    1HEX    H1G18324  13.218  17.038   3.663
    1HEX    H1H18325  12.786  17.178   3.663
    1HEX    H1I18326  12.803  17.349   3.666
    1HEX    H1J18327  12.943  17.430   3.903
    1HEX    H1K18328  12.820  17.404   4.026
    1HEX    H1M18329  12.698   0.316   3.798
    1HEX    H1N18330  12.867   0.357   3.808
    1HEX    H1O18331  12.686   0.425   4.044
    1HEX    H1P18332  12.674   0.524   3.902
    1HEX    H1R18333  12.610  17.217   3.818
    1HEX    H1S18334  12.644  17.215   3.989
    1HEX    H1T18335  12.787  16.821   3.813
    1HEX    H1U18336  12.634  16.759   3.758
    1HEX    H1V18337  12.559  16.729   4.002
    1HEX    H1W18338  12.717  16.784   4.054
    1HEX    H1Y18339  12.956  17.086   3.873
    1HEX    H1Z18340  12.890  17.111   4.022
    1HEX    H2018341  13.039  17.404   4.088
    1HEX    H2118342  13.181  17.314   4.105
    1HEX    H2218343  13.021  17.033   4.196
    1HEX    H2318344  13.067  17.069   4.360
    1HEX    H2418345  13.445  17.065   4.126
    1HEX    H2518346  13.510  16.993   4.272
    1HEX    H2618347  13.562  17.221   4.365
    1HEX    H2718348  13.491  17.295   4.225
    1HEX    H2918349  13.066   0.003   4.327
    1HEX    H2A18350  13.198  17.332   4.343
    1HEX    H2B18351  12.969  17.249   4.697
    1HEX    H2C18352  12.968  17.417   4.746
    1HEX    H2D18353  13.240  17.305   4.774
    1HEX    H2E18354  13.126  17.203   4.859
    1HEX    H2G18355  12.820  17.239   4.156
    1HEX    H2H18356  12.850  17.374   4.253
    1HEX    H2I18357  12.573  17.268   4.470
    1HEX    H2J18358  12.521  17.100   4.465
    1HEX    H2K18359  12.404  17.142   4.244
    1HEX    H2M18360  12.459  17.306   4.244
    1STR    S0018361  13.172  17.098   3.309
    1STR    S0E18362  12.880   0.566   4.021
    1STR    S0M18363  12.729  16.561   3.958
    1STR    S0X18364  13.709  17.208   4.173
    1STR    S1418365  13.139  17.422   4.958
    1STR    S1B18366  12.274  17.279   4.395
    1HEX    C0118367  13.212  17.232   7.754
    1HEX    C0218368  13.176  17.178   7.895
    1HEX    C0318369  13.028  17.173   7.929
    1HEX    O0418370  12.962  17.071   7.908
    1HEX    O0518371  12.984  17.285   7.991
    1HEX    C0618372  12.848  17.293   8.031
    1HEX    C0718373  12.823  17.268   8.183
    1HEX    C0818374  12.821  17.405   8.259
    1HEX    O0918375  12.746   0.084   8.228
    1HEX    C0A18376  12.762   0.188   8.320
    1HEX    O0B18377  12.817   0.172   8.429
    1HEX    C0C18378  12.712   0.329   8.280
    1HEX    C0D18379  12.783   0.441   8.365
    1HEX    C0F18380  12.692  17.181   8.192
    1HEX    O0G18381  12.731  17.048   8.155
    1HEX    C0H18382  12.650  16.954   8.104
    1HEX    O0I18383  12.529  16.967   8.085
    1HEX    C0J18384  12.726  16.826   8.065
    1HEX    C0K18385  12.725  16.716   8.175
    1HEX    C0N18386  12.934  17.176   8.250
    1HEX    O0O18387  13.056  17.232   8.302
    1HEX    C0P18388  13.067  17.299   8.429
    1HEX    C0Q18389  13.020  17.234   8.564
    1HEX    C0R18390  13.080  17.092   8.580
    1HEX    O0S18391  13.220  17.082   8.548
    1HEX    C0T18392  13.316  17.083   8.644
    1HEX    O0U18393  13.297  17.108   8.763
    1HEX    C0V18394  13.454  17.041   8.594
    1HEX    C0W18395  13.560  17.154   8.587
    1HEX    C0Y18396  13.077  17.327   8.674
    1HEX    O0Z18397  13.036  17.291   8.805
    1HEX    C1018398  13.087  17.360   8.908
    1HEX    O1118399  13.170   0.011   8.898
    1HEX    C1218400  13.028  17.320   9.041
    1HEX    C1318401  13.118  17.356   9.161
    1HEX    C1518402  12.863  17.240   8.573
    1HEX    O1618403  12.790  17.173   8.677
    1HEX    C1718404  12.662  17.131   8.649
    1HEX    O1818405  12.618  17.107   8.537
    1HEX    C1918406  12.569  17.121   8.771
    1HEX    C1A18407  12.434  17.196   8.751
    1HEX    H1D18408  13.309  17.190   7.725
    1HEX    H1E18409  13.227  17.340   7.757
    1HEX    H1F18410  13.226  17.238   7.971
    1HEX    H1G18411  13.214  17.077   7.906
    1HEX    H1H18412  12.788  17.226   7.969
    1HEX    H1I18413  12.811  17.392   8.003
    1HEX    H1J18414  12.923   0.002   8.250
    1HEX    H1K18415  12.801  17.383   8.363
    1HEX    H1M18416  12.604   0.332   8.295
    1HEX    H1N18417  12.731   0.345   8.174
    1HEX    H1O18418  12.888   0.445   8.336
    1HEX    H1P18419  12.785   0.413   8.470
    1HEX    H1R18420  12.613  17.219   8.128
    1HEX    H1S18421  12.651  17.180   8.293
    1HEX    H1T18422  12.828  16.855   8.040
    1HEX    H1U18423  12.682  16.788   7.973
    1HEX    H1V18424  12.624  16.681   8.194
    1HEX    H1W18425  12.760  16.759   8.269
    1HEX    H1Y18426  12.968  17.106   8.174
    1HEX    H1Z18427  12.894  17.106   8.323
    1HEX    H2018428  13.029  17.401   8.423
    1HEX    H2118429  13.175  17.314   8.437
    1HEX    H2218430  13.027  17.023   8.513
    1HEX    H2318431  13.060  17.055   8.681
    1HEX    H2418432  13.446  16.989   8.499
    1HEX    H2518433  13.488  16.966   8.666
    1HEX    H2618434  13.537  17.234   8.658
    1HEX    H2718435  13.559  17.200   8.488
    1HEX    H2918436  13.047  17.431   8.658
    1HEX    H2A18437  13.186  17.328   8.670
    1HEX    H2B18438  13.006  17.213   9.040
    1HEX    H2C18439  12.933  17.372   9.049
    1HEX    H2D18440  13.167   0.012   9.147
    1HEX    H2E18441  13.198  17.282   9.171
    1HEX    H2G18442  12.821  17.206   8.479
    1HEX    H2H18443  12.833  17.344   8.580
    1HEX    H2I18444  12.622  17.165   8.855
    1HEX    H2J18445  12.553  17.016   8.796
    1HEX    H2K18446  12.445  17.272   8.673
    1HEX    H2M18447  12.406  17.250   8.841
    1STR    S0018448  13.095  17.190   7.621
    1STR    S0E18449  12.714   0.613   8.363
    1STR    S0M18450  12.832  16.571   8.134
    1STR    S0X18451  13.728  17.089   8.624
    1STR    S1418452  13.016  17.365   9.312
    1STR    S1B18453  12.291  17.091   8.703
    1HEX    C0118454  13.245  17.148  12.161
    1HEX    C0218455  13.187  17.258  12.252
    1HEX    C0318456  13.046  17.228  12.302
    1HEX    O0418457  12.997  17.115  12.293
    1HEX    O0518458  12.987  17.335  12.358
    1HEX    C0618459  12.850  17.327  12.396
    1HEX    C0718460  12.826  17.309  12.548
    1HEX    C0818461  12.845   0.006  12.621
    1HEX    O0918462  12.783   0.133  12.591
    1HEX    C0A18463  12.795   0.232  12.688
    1HEX    O0B18464  12.814   0.208  12.808
    1HEX    C0C18465  12.789   0.378  12.641
    1HEX    C0D18466  12.893   0.472  12.713
    1HEX    C0F18467  12.684  17.245  12.564
    1HEX    O0G18468  12.695  17.103  12.537
    1HEX    C0H18469  12.614  17.038  12.451
    1HEX    O0I18470  12.516  17.087  12.396
    1HEX    C0J18471  12.658  16.893  12.423
    1HEX    C0K18472  12.658  16.799  12.546
    1HEX    C0N18473  12.928  17.205  12.612
    1HEX    O0O18474  13.053  17.249  12.666
    1HEX    C0P18475  13.070  17.317  12.793
    1HEX    C0Q18476  13.019  17.255  12.927
    1HEX    C0R18477  13.081  17.113  12.942
    1HEX    O0S18478  13.222  17.108  12.905
    1HEX    C0T18479  13.324  17.122  12.995
    1HEX    O0U18480  13.310  17.142  13.115
    1HEX    C0V18481  13.464  17.105  12.933
    1HEX    C0W18482  13.569  17.212  12.976
    1HEX    C0Y18483  13.072  17.345  13.040
    1HEX    O0Z18484  13.035  17.295  13.168
    1HEX    C1018485  13.062  17.369  13.275
    1HEX    O1118486  13.103   0.045  13.274
    1HEX    C1218487  13.037  17.296  13.406
    1HEX    C1318488  13.159  17.306  13.498
    1HEX    C1518489  12.861  17.267  12.930
    1HEX    O1618490  12.775  17.209  13.029
    1HEX    C1718491  12.662  17.146  12.984
    1HEX    O1818492  12.660  17.068  12.889
    1HEX    C1918493  12.530  17.189  13.052
    1HEX    C1A18494  12.426  17.233  12.944
    1HEX    H1D18495  13.354  17.148  12.168
    1HEX    H1E18496  13.214  17.050  12.196
    1HEX    H1F18497  13.188  17.355  12.202
    1HEX    H1G18498  13.248  17.268  12.342
    1HEX    H1H18499  12.800  17.247  12.339
    1HEX    H1I18500  12.801  17.418  12.361
    1HEX    H1J18501  12.950   0.031  12.607
    1HEX    H1K18502  12.828  17.427  12.726
    1HEX    H1M18503  12.687   0.413  12.660
    1HEX    H1N18504  12.803   0.382  12.533
    1HEX    H1O18505  12.987   0.472  12.657
    1HEX    H1P18506  12.919   0.432  12.811
    1HEX    H1R18507  12.611  17.294  12.499
    1HEX    H1S18508  12.646  17.256  12.665
    1HEX    H1T18509  12.756  16.896  12.376
    1HEX    H1U18510  12.590  16.855  12.347
    1HEX    H1V18511  12.575  16.824  12.613
    1HEX    H1W18512  12.749  16.813  12.605
    1HEX    H1Y18513  12.954  17.134  12.534
    1HEX    H1Z18514  12.882  17.134  12.682
    1HEX    H2018515  13.041  17.421  12.788
    1HEX    H2118516  13.179  17.325  12.800
    1HEX    H2218517  13.029  17.043  12.877
    1HEX    H2318518  13.067  17.074  13.044
    1HEX    H2418519  13.454  17.104  12.824
    1HEX    H2518520  13.500  17.006  12.961
    1HEX    H2618521  13.583  17.210  13.085
    1HEX    H2718522  13.532  17.313  12.953
    1HEX    H2918523  13.035   0.008  13.029
    1HEX    H2A18524  13.181  17.353  13.037
    1HEX    H2B18525  13.014  17.191  13.384
    1HEX    H2C18526  12.949  17.339  13.454
    1HEX    H2D18527  13.184  17.410  13.516
    1HEX    H2E18528  13.246  17.261  13.450
    1HEX    H2G18529  12.819  17.242  12.835
    1HEX    H2H18530  12.838  17.373  12.939
    1HEX    H2I18531  12.550  17.268  13.124
    1HEX    H2J18532  12.493  17.103  13.107
    1HEX    H2K18533  12.421  17.160  12.864
    1HEX    H2M18534  12.459  17.326  12.897
    1STR    S0018535  13.204  17.159  11.982
    1STR    S0E18536  12.841   0.647  12.743
    1STR    S0M18537  12.641  16.622  12.499
    1STR    S0X18538  13.732  17.190  12.894
    1STR    S1418539  13.130  17.225  13.658
    1STR    S1B18540  12.253  17.259  13.002
    1HEX    C0118541  13.209   4.106  16.471
    1HEX    C0218542  13.185   4.147  16.618
    1HEX    C0318543  13.052   4.098  16.673
    1HEX    O0418544  13.020   3.979  16.664
    1HEX    O0518545  12.982   4.195  16.735
    1HEX    C0618546  12.851   4.168  16.782
    1HEX    C0718547  12.841   4.166  16.937
    1HEX    C0818548  12.855   4.311  16.993
    1HEX    O0918549  12.777   4.425  16.954
    1HEX    C0A18550  12.775   4.530  17.043
    1HEX    O0B18551  12.774   4.517  17.166
    1HEX    C0C18552  12.780   4.671  16.980
    1HEX    C0D18553  12.763   4.791  17.079
    1HEX    C0F18554  12.706   4.094  16.971
    1HEX    O0G18555  12.729   3.952  16.974
    1HEX    C0H18556  12.647   3.861  16.918
    1HEX    O0I18557  12.539   3.885  16.865
    1HEX    C0J18558  12.707   3.719  16.920
    1HEX    C0K18559  12.696   3.645  17.056
    1HEX    C0N18560  12.956   4.078  17.002
    1HEX    O0O18561  13.077   4.139  17.047
    1HEX    C0P18562  13.091   4.209  17.173
    1HEX    C0Q18563  13.038   4.151  17.309
    1HEX    C0R18564  13.087   4.005  17.326
    1HEX    O0S18565  13.221   3.986  17.279
    1HEX    C0T18566  13.328   3.988  17.361
    1HEX    O0U18567  13.323   4.005   0.043
    1HEX    C0V18568  13.461   3.964  17.289
    1HEX    C0W18569  13.566   4.075  17.317
    1HEX    C0Y18570  13.098   4.240  17.421
    1HEX    O0Z18571  13.051   4.204   0.110
    1HEX    C1018572  13.084   4.282   0.214
    1HEX    O1118573  13.153   4.384   0.208
    1HEX    C1218574  13.026   4.234   0.347
    1HEX    C1318575  13.127   4.241   0.464
    1HEX    C1518576  12.882   4.168  17.314
    1HEX    O1618577  12.804   4.119  17.423
    1HEX    C1718578  12.683   4.065  17.394
    1HEX    O1818579  12.657   3.997  17.295
    1HEX    C1918580  12.573   4.101   0.053
    1HEX    C1A18581  12.457   4.181  17.426
    1HEX    H1D18582  13.316   4.108  16.450
    1HEX    H1E18583  13.175   4.003  16.453
    1HEX    H1F18584  13.192   4.255  16.629
    1HEX    H1G18585  13.262   4.104  16.681
    1HEX    H1H18586  12.812   4.075  16.740
    1HEX    H1I18587  12.785   4.245  16.742
    1HEX    H1J18588  12.957   4.343  16.969
    1HEX    H1K18589  12.848   4.304  17.100
    1HEX    H1M18590  12.706   4.676  16.900
    1HEX    H1N18591  12.878   4.677  16.931
    1HEX    H1O18592  12.765   4.759  17.183
    1HEX    H1P18593  12.665   4.836  17.064
    1HEX    H1R18594  12.627   4.121  16.900
    1HEX    H1S18595  12.667   4.124  17.068
    1HEX    H1T18596  12.811   3.725  16.889
    1HEX    H1U18597  12.656   3.661  16.843
    1HEX    H1V18598  12.593   3.645  17.093
    1HEX    H1W18599  12.756   3.696  17.131
    1HEX    H1Y18600  12.987   4.005  16.926
    1HEX    H1Z18601  12.922   4.011  17.081
    1HEX    H2018602  13.059   4.313  17.162
    1HEX    H2118603  13.199   4.220  17.182
    1HEX    H2218604  13.023   3.937  17.269
    1HEX    H2318605  13.076   3.972  17.430
    1HEX    H2418606  13.444   3.954  17.182
    1HEX    H2518607  13.498   3.868  17.324
    1HEX    H2618608  13.545   4.165  17.259
    1HEX    H2718609  13.561   4.105  17.422
    1HEX    H2918610  13.075   4.345  17.403
    1HEX    H2A18611  13.207   4.234  17.421
    1HEX    H2B18612  12.989   4.132   0.335
    1HEX    H2C18613  12.939   4.297   0.366
    1HEX    H2D18614  13.218   4.292   0.432
    1HEX    H2E18615  13.157   4.141   0.496
    1HEX    H2G18616  12.839   4.130  17.223
    1HEX    H2H18617  12.860   4.275  17.313
    1HEX    H2I18618  12.615   4.157   0.137
    1HEX    H2J18619  12.536   4.007   0.094
    1HEX    H2K18620  12.466   4.180  17.317
    1HEX    H2M18621  12.460   4.286   0.016
    1STR    S0018622  13.127   4.216  16.352
    1STR    S0E18623  12.892   4.922  17.063
    1STR    S0M18624  12.753   3.470  17.042
    1STR    S0X18625  13.737   4.019  17.284
    1STR    S1418626  13.059   4.334   0.606
    1STR    S1B18627  12.294   4.113   0.030
    1HEX    C0118628  13.164   4.064   3.362
    1HEX    C0218629  13.155   4.118   3.506
    1HEX    C0318630  13.015   4.107   3.564
    1HEX    O0418631  12.948   4.004   3.551
    1HEX    O0518632  12.977   4.217   3.631
    1HEX    C0618633  12.843   4.228   3.677
    1HEX    C0718634  12.824   4.204   3.830
    1HEX    C0818635  12.831   4.342   3.905
    1HEX    O0918636  12.761   4.465   3.876
    1HEX    C0A18637  12.767   4.564   3.974
    1HEX    O0B18638  12.787   4.539   4.094
    1HEX    C0C18639  12.751   4.711   3.930
    1HEX    C0D18640  12.814   4.814   4.031
    1HEX    C0F18641  12.690   4.123   3.844
    1HEX    O0G18642  12.721   3.986   3.809
    1HEX    C0H18643  12.638   3.903   3.744
    1HEX    O0I18644  12.522   3.929   3.713
    1HEX    C0J18645  12.706   3.770   3.704
    1HEX    C0K18646  12.703   3.658   3.812
    1HEX    C0N18647  12.934   4.108   3.892
    1HEX    O0O18648  13.058   4.161   3.941
    1HEX    C0P18649  13.075   4.226   4.069
    1HEX    C0Q18650  13.027   4.162   4.204
    1HEX    C0R18651  13.087   4.019   4.219
    1HEX    O0S18652  13.225   4.009   4.177
    1HEX    C0T18653  13.329   4.016   4.265
    1HEX    O0U18654  13.319   4.046   4.384
    1HEX    C0V18655  13.464   3.974   4.205
    1HEX    C0W18656  13.571   4.087   4.196
    1HEX    C0Y18657  13.085   4.254   4.314
    1HEX    O0Z18658  13.037   4.219   4.443
    1HEX    C1018659  13.067   4.299   4.546
    1HEX    O1118660  13.133   4.402   4.540
    1HEX    C1218661  13.004   4.251   4.675
    1HEX    C1318662  13.084   4.294   4.799
    1HEX    C1518663  12.870   4.172   4.214
    1HEX    O1618664  12.790   4.102   4.311
    1HEX    C1718665  12.683   4.029   4.265
    1HEX    O1818666  12.681   3.968   4.158
    1HEX    C1918667  12.554   4.039   4.349
    1HEX    C1A18668  12.446   4.118   4.270
    1HEX    H1D18669  13.262   4.020   3.346
    1HEX    H1E18670  13.092   3.984   3.345
    1HEX    H1F18671  13.190   4.221   3.513
    1HEX    H1G18672  13.219   4.059   3.572
    1HEX    H1H18673  12.779   4.161   3.619
    1HEX    H1I18674  12.806   4.327   3.649
    1HEX    H1J18675  12.935   4.375   3.892
    1HEX    H1K18676  12.816   4.322   4.009
    1HEX    H1M18677  12.644   4.729   3.918
    1HEX    H1N18678  12.796   4.723   3.831
    1HEX    H1O18679  12.923   4.815   4.021
    1HEX    H1P18680  12.796   4.783   4.134
    1HEX    H1R18681  12.610   4.163   3.782
    1HEX    H1S18682  12.653   4.123   3.947
    1HEX    H1T18683  12.809   3.793   3.677
    1HEX    H1U18684  12.658   3.734   3.613
    1HEX    H1V18685  12.601   3.626   3.833
    1HEX    H1W18686  12.744   3.695   3.906
    1HEX    H1Y18687  12.964   4.038   3.815
    1HEX    H1Z18688  12.895   4.038   3.966
    1HEX    H2018689  13.041   4.329   4.065
    1HEX    H2118690  13.183   4.237   4.075
    1HEX    H2218691  13.030   3.950   4.157
    1HEX    H2318692  13.075   3.983   4.321
    1HEX    H2418693  13.448   3.928   4.108
    1HEX    H2518694  13.503   3.896   4.270
    1HEX    H2618695  13.575   4.146   4.288
    1HEX    H2718696  13.546   4.157   4.116
    1HEX    H2918697  13.058   4.359   4.296
    1HEX    H2A18698  13.194   4.253   4.315
    1HEX    H2B18699  12.996   4.143   4.671
    1HEX    H2C18700  12.903   4.292   4.678
    1HEX    H2D18701  13.104   4.402   4.800
    1HEX    H2E18702  13.181   4.244   4.801
    1HEX    H2G18703  12.827   4.150   4.118
    1HEX    H2H18704  12.845   4.277   4.229
    1HEX    H2I18705  12.575   4.083   4.446
    1HEX    H2J18706  12.520   3.937   4.366
    1HEX    H2K18707  12.454   4.093   4.164
    1HEX    H2M18708  12.468   4.224   4.276
    1STR    S0018709  13.140   4.191   3.234
    1STR    S0E18710  12.751   4.988   4.021
    1STR    S0M18711  12.802   3.510   3.762
    1STR    S0X18712  13.738   4.016   4.162
    1STR    S1418713  12.988   4.248   4.946
    1STR    S1B18714  12.270   4.093   4.319
    1HEX    C0118715  13.143   4.052   7.768
    1HEX    C0218716  13.138   4.038   7.922
    1HEX    C0318717  12.997   4.059   7.973
    1HEX    O0418718  12.913   3.970   7.961
    1HEX    O0518719  12.976   4.182   8.025
    1HEX    C0618720  12.843   4.223   8.056
    1HEX    C0718721  12.804   4.218   8.207
    1HEX    C0818722  12.822   4.360   8.271
    1HEX    O0918723  12.778   4.487   8.219
    1HEX    C0A18724  12.809   4.598   8.297
    1HEX    O0B18725  12.843   4.592   8.415
    1HEX    C0C18726  12.806   4.735   8.225
    1HEX    C0D18727  12.761   4.858   8.312
    1HEX    C0F18728  12.659   4.160   8.213
    1HEX    O0G18729  12.665   4.016   8.198
    1HEX    C0H18730  12.598   3.949   8.102
    1HEX    O0I18731  12.516   4.000   8.025
    1HEX    C0J18732  12.637   3.801   8.088
    1HEX    C0K18733  12.635   3.714   8.217
    1HEX    C0N18734  12.892   4.115   8.289
    1HEX    O0O18735  13.023   4.153   8.336
    1HEX    C0P18736  13.048   4.230   8.455
    1HEX    C0Q18737  13.002   4.178   8.596
    1HEX    C0R18738  13.057   4.033   8.615
    1HEX    O0S18739  13.195   4.022   8.571
    1HEX    C0T18740  13.302   4.025   8.655
    1HEX    O0U18741  13.296   4.030   8.778
    1HEX    C0V18742  13.438   4.022   8.582
    1HEX    C0W18743  13.559   4.075   8.665
    1HEX    C0Y18744  13.073   4.270   8.699
    1HEX    O0Z18745  13.036   4.241   8.833
    1HEX    C1018746  13.099   4.307   8.932
    1HEX    O1118747  13.190   4.389   8.917
    1HEX    C1218748  13.046   4.273   9.070
    1HEX    C1318749  13.152   4.205   9.160
    1HEX    C1518750  12.846   4.205   8.608
    1HEX    O1618751  12.754   4.134   8.692
    1HEX    C1718752  12.631   4.100   8.638
    1HEX    O1818753  12.614   4.066   8.522
    1HEX    C1918754  12.510   4.108   8.733
    1HEX    C1A18755  12.430   4.241   8.728
    1HEX    H1D18756  13.224   3.995   7.725
    1HEX    H1E18757  13.050   4.016   7.723
    1HEX    H1F18758  13.206   4.108   7.972
    1HEX    H1G18759  13.168   3.938   7.952
    1HEX    H1H18760  12.772   4.165   7.996
    1HEX    H1I18761  12.830   4.324   8.018
    1HEX    H1J18762  12.930   4.376   8.269
    1HEX    H1K18763  12.789   4.357   8.374
    1HEX    H1M18764  12.736   4.723   8.143
    1HEX    H1N18765  12.903   4.754   8.181
    1HEX    H1O18766  12.687   4.824   8.384
    1HEX    H1P18767  12.711   4.932   8.249
    1HEX    H1R18768  12.593   4.207   8.139
    1HEX    H1S18769  12.612   4.183   8.309
    1HEX    H1T18770  12.736   3.797   8.042
    1HEX    H1U18771  12.569   3.758   8.014
    1HEX    H1V18772  12.551   3.742   8.280
    1HEX    H1W18773  12.725   3.731   8.276
    1HEX    H1Y18774  12.910   4.029   8.224
    1HEX    H1Z18775  12.837   4.065   8.369
    1HEX    H2018776  13.017   4.334   8.446
    1HEX    H2118777  13.156   4.237   8.456
    1HEX    H2218778  12.997   3.964   8.556
    1HEX    H2318779  13.046   4.001   8.719
    1HEX    H2418780  13.427   4.081   8.492
    1HEX    H2518781  13.457   3.919   8.550
    1HEX    H2618782  13.531   4.166   8.718
    1HEX    H2718783  13.585   4.003   8.743
    1HEX    H2918784  13.051   4.375   8.680
    1HEX    H2A18785  13.181   4.262   8.690
    1HEX    H2B18786  12.959   4.207   9.059
    1HEX    H2C18787  13.008   4.364   9.115
    1HEX    H2D18788  13.242   4.184   9.102
    1HEX    H2E18789  13.114   4.110   9.198
    1HEX    H2G18790  12.804   4.205   8.509
    1HEX    H2H18791  12.833   4.309   8.637
    1HEX    H2I18792  12.548   4.092   8.834
    1HEX    H2J18793  12.443   4.024   8.713
    1HEX    H2K18794  12.500   4.324   8.721
    1HEX    H2M18795  12.378   4.255   8.823
    1STR    S0018796  13.162   4.227   7.728
    1STR    S0E18797  12.889   4.951   8.409
    1STR    S0M18798  12.620   3.535   8.176
    1STR    S0X18799  13.709   4.110   8.564
    1STR    S1418800  13.199   4.309   9.302
    1STR    S1B18801  12.301   4.266   8.598
    1HEX    C0118802  13.209   4.079  12.118
    1HEX    C0218803  13.176   4.144  12.254
    1HEX    C0318804  13.048   4.091  12.317
    1HEX    O0418805  13.024   3.970  12.319
    1HEX    O0518806  12.971   4.188  12.368
    1HEX    C0618807  12.841   4.158  12.417
    1HEX    C0718808  12.831   4.157  12.571
    1HEX    C0818809  12.836   4.303  12.627
    1HEX    O0918810  12.760   4.419  12.585
    1HEX    C0A18811  12.778   4.532  12.664
    1HEX    O0B18812  12.831   4.529  12.775
    1HEX    C0C18813  12.733   4.669  12.606
    1HEX    C0D18814  12.799   4.788  12.686
    1HEX    C0F18815  12.701   4.075  12.605
    1HEX    O0G18816  12.732   3.934  12.606
    1HEX    C0H18817  12.670   3.843  12.529
    1HEX    O0I18818  12.570   3.866  12.462
    1HEX    C0J18819  12.740   3.706  12.524
    1HEX    C0K18820  12.764   3.634  12.660
    1HEX    C0N18821  12.949   4.075  12.639
    1HEX    O0O18822  13.068   4.142  12.684
    1HEX    C0P18823  13.076   4.215  12.808
    1HEX    C0Q18824  13.027   4.155  12.945
    1HEX    C0R18825  13.086   4.012  12.965
    1HEX    O0S18826  13.225   4.003  12.931
    1HEX    C0T18827  13.323   4.005  13.025
    1HEX    O0U18828  13.306   4.026  13.144
    1HEX    C0V18829  13.462   3.976  12.968
    1HEX    C0W18830  13.553   4.101  12.956
    1HEX    C0Y18831  13.084   4.249  13.054
    1HEX    O0Z18832  13.046   4.210  13.185
    1HEX    C1018833  13.097   4.278  13.289
    1HEX    O1118834  13.175   4.372  13.280
    1HEX    C1218835  13.043   4.230  13.423
    1HEX    C1318836  13.133   4.269  13.543
    1HEX    C1518837  12.871   4.162  12.952
    1HEX    O1618838  12.798   4.111  13.065
    1HEX    C1718839  12.673   4.059  13.043
    1HEX    O1818840  12.636   4.008  12.938
    1HEX    C1918841  12.575   4.075  13.160
    1HEX    C1A18842  12.448   4.155  13.118
    1HEX    H1D18843  13.225   3.972  12.132
    1HEX    H1E18844  13.301   4.121  12.078
    1HEX    H1F18845  13.166   4.252  12.244
    1HEX    H1G18846  13.256   4.127  12.325
    1HEX    H1H18847  12.806   4.064  12.374
    1HEX    H1I18848  12.773   4.233  12.376
    1HEX    H1J18849  12.938   4.337  12.609
    1HEX    H1K18850  12.820   4.295  12.733
    1HEX    H1M18851  12.625   4.675  12.611
    1HEX    H1N18852  12.761   4.674  12.501
    1HEX    H1O18853  12.907   4.787  12.670
    1HEX    H1P18854  12.786   4.772  12.793
    1HEX    H1R18855  12.620   4.099  12.536
    1HEX    H1S18856  12.662   4.102  12.703
    1HEX    H1T18857  12.834   3.719  12.471
    1HEX    H1U18858  12.679   3.642  12.460
    1HEX    H1V18859  12.674   3.634  12.721
    1HEX    H1W18860  12.841   3.686  12.717
    1HEX    H1Y18861  12.983   4.002  12.566
    1HEX    H1Z18862  12.917   4.009  12.719
    1HEX    H2018863  13.037   4.315  12.797
    1HEX    H2118864  13.184   4.232  12.817
    1HEX    H2218865  13.033   3.941  12.902
    1HEX    H2318866  13.068   3.978  13.067
    1HEX    H2418867  13.453   3.925  12.873
    1HEX    H2518868  13.507   3.904  13.037
    1HEX    H2618869  13.505   4.186  13.004
    1HEX    H2718870  13.567   4.129  12.852
    1HEX    H2918871  13.052   4.352  13.038
    1HEX    H2A18872  13.193   4.251  13.050
    1HEX    H2B18873  13.028   4.122  13.419
    1HEX    H2C18874  12.944   4.275  13.433
    1HEX    H2D18875  13.190   4.359  13.521
    1HEX    H2E18876  13.206   4.190  13.564
    1HEX    H2G18877  12.829   4.119  12.863
    1HEX    H2H18878  12.842   4.267  12.948
    1HEX    H2I18879  12.625   4.122  13.244
    1HEX    H2J18880  12.547   3.974  13.192
    1HEX    H2K18881  12.450   4.176  13.010
    1HEX    H2M18882  12.445   4.252  13.166
    1STR    S0018883  13.079   4.100  11.992
    1STR    S0E18884  12.738   4.961  12.656
    1STR    S0M18885  12.817   3.459  12.633
    1STR    S0X18886  13.717   4.077  13.037
    1STR    S1418887  13.032   4.306  13.690
    1STR    S1B18888  12.289   4.069  13.149
    1HEX    C0118889  13.214   8.442  16.488
    1HEX    C0218890  13.180   8.481  16.633
    1HEX    C0318891  13.030   8.478  16.660
    1HEX    O0418892  12.965   8.376  16.642
    1HEX    O0518893  12.984   8.594  16.713
    1HEX    C0618894  12.848   8.603  16.755
    1HEX    C0718895  12.829   8.587  16.909
    1HEX    C0818896  12.853   8.726  16.979
    1HEX    O0918897  12.788   8.853  16.959
    1HEX    C0A18898  12.816   8.950  17.056
    1HEX    O0B18899  12.865   8.922  17.166
    1HEX    C0C18900  12.787   9.098  17.023
    1HEX    C0D18901  12.875   9.196  17.110
    1HEX    C0F18902  12.688   8.524  16.933
    1HEX    O0G18903  12.697   8.380  16.918
    1HEX    C0H18904  12.645   8.315  16.812
    1HEX    O0I18905  12.566   8.364  16.732
    1HEX    C0J18906  12.701   8.173  16.790
    1HEX    C0K18907  12.722   8.083  16.915
    1HEX    C0N18908  12.932   8.483  16.971
    1HEX    O0O18909  13.060   8.529  17.017
    1HEX    C0P18910  13.080   8.595  17.145
    1HEX    C0Q18911  13.028   8.533  17.279
    1HEX    C0R18912  13.088   8.389  17.292
    1HEX    O0S18913  13.227   8.381  17.253
    1HEX    C0T18914  13.331   8.392  17.341
    1HEX    O0U18915  13.319   8.412   0.021
    1HEX    C0V18916  13.470   8.371  17.278
    1HEX    C0W18917  13.572   8.486  17.301
    1HEX    C0Y18918  13.085   8.621  17.392
    1HEX    O0Z18919  13.038   8.572   0.075
    1HEX    C1018920  13.070   8.638   0.186
    1HEX    O1118921  13.136   8.742   0.192
    1HEX    C1218922  13.012   8.571   0.309
    1HEX    C1318923  13.072   8.629   0.437
    1HEX    C1518924  12.870   8.548  17.288
    1HEX    O1618925  12.786   8.478  17.382
    1HEX    C1718926  12.681   8.407  17.331
    1HEX    O1818927  12.690   8.332  17.234
    1HEX    C1918928  12.543   8.436  17.394
    1HEX    C1A18929  12.441   8.481  17.284
    1HEX    H1D18930  13.318   8.409  16.483
    1HEX    H1E18931  13.153   8.358  16.455
    1HEX    H1F18932  13.221   8.578  16.659
    1HEX    H1G18933  13.223   8.408  16.702
    1HEX    H1H18934  12.788   8.530  16.700
    1HEX    H1I18935  12.809   8.699  16.722
    1HEX    H1J18936  12.958   8.751  16.959
    1HEX    H1K18937  12.842   8.706  17.084
    1HEX    H1M18938  12.681   9.115  17.041
    1HEX    H1N18939  12.804   9.115  16.917
    1HEX    H1O18940  12.979   9.192  17.077
    1HEX    H1P18941  12.876   9.163  17.214
    1HEX    H1R18942  12.612   8.568  16.868
    1HEX    H1S18943  12.653   8.543  17.034
    1HEX    H1T18944  12.795   8.184  16.736
    1HEX    H1U18945  12.632   8.123  16.721
    1HEX    H1V18946  12.628   8.072  16.971
    1HEX    H1W18947  12.793   8.127  16.985
    1HEX    H1Y18948  12.953   8.409  16.895
    1HEX    H1Z18949  12.890   8.417  17.046
    1HEX    H2018950  13.052   8.700  17.141
    1HEX    H2118951  13.188   8.602  17.152
    1HEX    H2218952  13.032   8.321  17.228
    1HEX    H2318953  13.075   8.351  17.394
    1HEX    H2418954  13.457   8.352  17.171
    1HEX    H2518955  13.509   8.279  17.321
    1HEX    H2618956  13.584   8.507  17.407
    1HEX    H2718957  13.536   8.579  17.255
    1HEX    H2918958  13.054   8.725  17.380
    1HEX    H2A18959  13.194   8.622  17.392
    1HEX    H2B18960  13.032   8.464   0.302
    1HEX    H2C18961  12.904   8.584   0.308
    1HEX    H2D18962  13.045   8.734   0.447
    1HEX    H2E18963  13.181   8.626   0.433
    1HEX    H2G18964  12.824   8.533  17.193
    1HEX    H2H18965  12.849   8.653  17.308
    1HEX    H2I18966  12.553   8.511   0.032
    1HEX    H2J18967  12.509   8.345   0.001
    1HEX    H2K18968  12.450   8.414  17.198
    1HEX    H2M18969  12.467   8.580  17.248
    1STR    S0018970  13.195   8.583  16.375
    1STR    S0E18971  12.822   9.373  17.118
    1STR    S0M18972  12.780   7.916  16.861
    1STR    S0X18973  13.737   8.446  17.229
    1STR    S1418974  13.016   8.535   0.582
    1STR    S1B18975  12.263   8.484  17.332
    1HEX    C0118976  13.172   8.330   3.439
    1HEX    C0218977  13.151   8.409   3.570
    1HEX    C0318978  13.007   8.406   3.619
    1HEX    O0418979  12.942   8.302   3.618
    1HEX    O0518980  12.965   8.525   3.667
    1HEX    C0618981  12.832   8.540   3.714
    1HEX    C0718982  12.818   8.541   3.869
    1HEX    C0818983  12.840   8.687   3.923
    1HEX    O0918984  12.771   8.806   3.881
    1HEX    C0A18985  12.800   8.921   3.955
    1HEX    O0B18986  12.857   8.919   4.064
    1HEX    C0C18987  12.760   9.055   3.891
    1HEX    C0D18988  12.729   9.172   3.992
    1HEX    C0F18989  12.677   8.479   3.902
    1HEX    O0G18990  12.689   8.335   3.911
    1HEX    C0H18991  12.635   8.248   3.824
    1HEX    O0I18992  12.550   8.275   3.740
    1HEX    C0J18993  12.701   8.109   3.831
    1HEX    C0K18994  12.639   8.010   3.933
    1HEX    C0N18995  12.924   8.446   3.940
    1HEX    O0O18996  13.051   8.498   3.979
    1HEX    C0P18997  13.072   8.573   4.101
    1HEX    C0Q18998  13.023   8.520   4.240
    1HEX    C0R18999  13.075   8.375   4.261
    1HEX    O0S19000  13.212   8.354   4.220
    1HEX    C0T19001  13.316   8.357   4.309
    1HEX    O0U19002  13.307   8.387   4.427
    1HEX    C0V19003  13.451   8.313   4.249
    1HEX    C0W19004  13.556   8.426   4.235
    1HEX    C0Y19005  13.088   8.612   4.347
    1HEX    O0Z19006  13.043   8.582   4.478
    1HEX    C1019007  13.087   8.656   4.580
    1HEX    O1119008  13.168   8.749   4.570
    1HEX    C1219009  13.027   8.616   4.714
    1HEX    C1319010  13.134   8.599   4.824
    1HEX    C1519011  12.867   8.541   4.252
    1HEX    O1619012  12.787   8.480   4.355
    1HEX    C1719013  12.676   8.411   4.317
    1HEX    O1819014  12.669   8.339   4.217
    1HEX    C1919015  12.551   8.435   4.404
    1HEX    C1A19016  12.435   8.495   4.318
    1HEX    H1D19017  13.248   8.253   3.454
    1HEX    H1E19018  13.081   8.278   3.408
    1HEX    H1F19019  13.182   8.513   3.559
    1HEX    H1G19020  13.213   8.368   3.650
    1HEX    H1H19021  12.769   8.462   3.670
    1HEX    H1I19022  12.792   8.633   3.673
    1HEX    H1J19023  12.944   8.711   3.902
    1HEX    H1K19024  12.828   8.684   4.031
    1HEX    H1M19025  12.671   9.036   3.832
    1HEX    H1N19026  12.838   9.086   3.822
    1HEX    H1O19027  12.697   9.129   4.087
    1HEX    H1P19028  12.645   9.231   3.957
    1HEX    H1R19029  12.600   8.509   3.830
    1HEX    H1S19030  12.641   8.514   3.998
    1HEX    H1T19031  12.806   8.124   3.853
    1HEX    H1U19032  12.697   8.067   3.731
    1HEX    H1V19033  12.532   7.995   3.914
    1HEX    H1W19034  12.646   8.050   4.034
    1HEX    H1Y19035  12.945   8.365   3.871
    1HEX    H1Z19036  12.884   8.389   4.023
    1HEX    H2019037  13.042   8.677   4.089
    1HEX    H2119038  13.181   8.581   4.106
    1HEX    H2219039  13.013   8.306   4.203
    1HEX    H2319040  13.060   8.344   4.365
    1HEX    H2419041  13.435   8.262   4.154
    1HEX    H2519042  13.489   8.237   4.318
    1HEX    H2619043  13.531   8.511   4.299
    1HEX    H2719044  13.556   8.465   4.133
    1HEX    H2919045  13.065   8.717   4.326
    1HEX    H2A19046  13.197   8.606   4.344
    1HEX    H2B19047  12.971   8.523   4.701
    1HEX    H2C19048  12.955   8.692   4.741
    1HEX    H2D19049  13.233   8.620   4.785
    1HEX    H2E19050  13.136   8.496   4.861
    1HEX    H2G19051  12.818   8.520   4.159
    1HEX    H2H19052  12.849   8.648   4.264
    1HEX    H2I19053  12.576   8.500   4.488
    1HEX    H2J19054  12.520   8.339   4.445
    1HEX    H2K19055  12.420   8.435   4.228
    1HEX    H2M19056  12.463   8.594   4.284
    1STR    S0019057  13.227   8.437   3.304
    1STR    S0E19058  12.867   9.289   4.030
    1STR    S0M19059  12.725   7.847   3.927
    1STR    S0X19060  13.729   8.375   4.277
    1STR    S1419061  13.105   8.711   4.965
    1STR    S1B19062  12.273   8.509   4.404
    1HEX    C0119063  13.219   8.510   7.754
    1HEX    C0219064  13.191   8.473   7.902
    1HEX    C0319065  13.044   8.456   7.935
    1HEX    O0419066  12.986   8.350   7.912
    1HEX    O0519067  12.991   8.566   7.993
    1HEX    C0619068  12.855   8.566   8.031
    1HEX    C0719069  12.832   8.542   8.183
    1HEX    C0819070  12.829   8.681   8.257
    1HEX    O0919071  12.761   8.803   8.221
    1HEX    C0A19072  12.787   8.911   8.307
    1HEX    O0B19073  12.851   8.900   8.411
    1HEX    C0C19074  12.737   9.051   8.264
    1HEX    C0D19075  12.777   9.162   8.369
    1HEX    C0F19076  12.702   8.453   8.195
    1HEX    O0G19077  12.744   8.316   8.177
    1HEX    C0H19078  12.678   8.223   8.105
    1HEX    O0I19079  12.566   8.238   8.057
    1HEX    C0J19080  12.762   8.096   8.082
    1HEX    C0K19081  12.753   7.988   8.193
    1HEX    C0N19082  12.945   8.454   8.251
    1HEX    O0O19083  13.066   8.513   8.300
    1HEX    C0P19084  13.075   8.578   8.429
    1HEX    C0Q19085  13.025   8.513   8.563
    1HEX    C0R19086  13.085   8.371   8.580
    1HEX    O0S19087  13.224   8.359   8.544
    1HEX    C0T19088  13.323   8.364   8.637
    1HEX    O0U19089  13.309   8.396   8.755
    1HEX    C0V19090  13.460   8.318   8.585
    1HEX    C0W19091  13.568   8.430   8.572
    1HEX    C0Y19092  13.081   8.607   8.673
    1HEX    O0Z19093  13.036   8.575   8.803
    1HEX    C1019094  13.084   8.648   8.904
    1HEX    O1119095  13.171   8.734   8.896
    1HEX    C1219096  13.014   8.617   9.036
    1HEX    C1319097  13.105   8.642   9.157
    1HEX    C1519098  12.868   8.519   8.570
    1HEX    O1619099  12.792   8.448   8.669
    1HEX    C1719100  12.667   8.400   8.634
    1HEX    O1819101  12.631   8.374   8.520
    1HEX    C1919102  12.567   8.386   8.750
    1HEX    C1A19103  12.431   8.460   8.725
    1HEX    H1D19104  13.205   8.404   7.733
    1HEX    H1E19105  13.156   8.598   7.765
    1HEX    H1F19106  13.231   8.550   7.968
    1HEX    H1G19107  13.242   8.381   7.931
    1HEX    H1H19108  12.800   8.492   7.972
    1HEX    H1I19109  12.811   8.661   8.001
    1HEX    H1J19110  12.932   8.714   8.251
    1HEX    H1K19111  12.804   8.664   8.361
    1HEX    H1M19112  12.629   9.048   8.252
    1HEX    H1N19113  12.780   9.074   8.167
    1HEX    H1O19114  12.885   9.161   8.387
    1HEX    H1P19115  12.732   9.140   8.465
    1HEX    H1R19116  12.625   8.482   8.123
    1HEX    H1S19117  12.655   8.463   8.293
    1HEX    H1T19118  12.865   8.129   8.068
    1HEX    H1U19119  12.732   8.053   7.986
    1HEX    H1V19120  12.653   7.945   8.196
    1HEX    H1W19121  12.769   8.034   8.291
    1HEX    H1Y19122  12.979   8.382   8.176
    1HEX    H1Z19123  12.909   8.385   8.327
    1HEX    H2019124  13.038   8.680   8.424
    1HEX    H2119125  13.183   8.593   8.439
    1HEX    H2219126  13.030   8.301   8.517
    1HEX    H2319127  13.069   8.336   8.682
    1HEX    H2419128  13.448   8.264   8.491
    1HEX    H2519129  13.494   8.245   8.658
    1HEX    H2619130  13.558   8.504   8.651
    1HEX    H2719131  13.555   8.483   8.477
    1HEX    H2919132  13.053   8.711   8.653
    1HEX    H2A19133  13.190   8.607   8.672
    1HEX    H2B19134  12.981   8.514   9.034
    1HEX    H2C19135  12.925   8.680   9.040
    1HEX    H2D19136  13.153   8.740   9.154
    1HEX    H2E19137  13.185   8.568   9.160
    1HEX    H2G19138  12.827   8.491   8.475
    1HEX    H2H19139  12.838   8.623   8.581
    1HEX    H2I19140  12.615   8.427   8.838
    1HEX    H2J19141  12.550   8.280   8.770
    1HEX    H2K19142  12.447   8.546   8.659
    1HEX    H2M19143  12.394   8.502   8.818
    1STR    S0019144  13.109   8.481   7.609
    1STR    S0E19145  12.730   9.336   8.325
    1STR    S0M19146  12.876   7.852   8.172
    1STR    S0X19147  13.736   8.356   8.579
    1STR    S1419148  13.002   8.632   9.307
    1STR    S1B19149  12.294   8.360   8.653
    1HEX    C0119150  13.270   8.473  12.184
    1HEX    C0219151  13.192   8.574  12.271
    1HEX    C0319152  13.054   8.525  12.312
    1HEX    O0419153  13.020   8.407  12.301
    1HEX    O0519154  12.979   8.624  12.365
    1HEX    C0619155  12.842   8.599  12.397
    1HEX    C0719156  12.817   8.582  12.549
    1HEX    C0819157  12.835   8.720  12.621
    1HEX    O0919158  12.776   8.847  12.590
    1HEX    C0A19159  12.804   8.949  12.681
    1HEX    O0B19160  12.849   8.927  12.794
    1HEX    C0C19161  12.783   9.095  12.636
    1HEX    C0D19162  12.886   9.194  12.703
    1HEX    C0F19163  12.673   8.520  12.565
    1HEX    O0G19164  12.681   8.376  12.565
    1HEX    C0H19165  12.629   8.297  12.468
    1HEX    O0I19166  12.555   8.334  12.378
    1HEX    C0J19167  12.679   8.151  12.477
    1HEX    C0K19168  12.573   8.043  12.442
    1HEX    C0N19169  12.919   8.480  12.614
    1HEX    O0O19170  13.045   8.526  12.668
    1HEX    C0P19171  13.061   8.595  12.795
    1HEX    C0Q19172  13.011   8.533  12.930
    1HEX    C0R19173  13.076   8.392  12.946
    1HEX    O0S19174  13.217   8.389  12.910
    1HEX    C0T19175  13.318   8.401  13.000
    1HEX    O0U19176  13.304   8.418  13.121
    1HEX    C0V19177  13.459   8.386  12.939
    1HEX    C0W19178  13.564   8.489  12.991
    1HEX    C0Y19179  13.065   8.626  13.042
    1HEX    O0Z19180  13.035   8.577  13.171
    1HEX    C1019181  13.078   8.647  13.277
    1HEX    O1119182  13.134   8.756  13.271
    1HEX    C1219183  13.053   8.577  13.410
    1HEX    C1319184  13.171   8.605  13.505
    1HEX    C1519185  12.854   8.542  12.934
    1HEX    O1619186  12.772   8.495  13.041
    1HEX    C1719187  12.656   8.431  13.007
    1HEX    O1819188  12.648   8.343  12.921
    1HEX    C1919189  12.528   8.483  13.075
    1HEX    C1A19190  12.424   8.533  12.970
    1HEX    H1D19191  13.377   8.485  12.201
    1HEX    H1E19192  13.246   8.371  12.214
    1HEX    H1F19193  13.182   8.670  12.220
    1HEX    H1G19194  13.246   8.592  12.364
    1HEX    H1H19195  12.804   8.513  12.341
    1HEX    H1I19196  12.784   8.683  12.359
    1HEX    H1J19197  12.941   8.743  12.608
    1HEX    H1K19198  12.815   8.701  12.725
    1HEX    H1M19199  12.681   9.122  12.662
    1HEX    H1N19200  12.791   9.100  12.527
    1HEX    H1O19201  12.982   9.185  12.653
    1HEX    H1P19202  12.904   9.164  12.806
    1HEX    H1R19203  12.604   8.557  12.489
    1HEX    H1S19204  12.629   8.549  12.661
    1HEX    H1T19205  12.717   8.136  12.578
    1HEX    H1U19206  12.765   8.141  12.411
    1HEX    H1V19207  12.591   8.006  12.341
    1HEX    H1W19208  12.474   8.088  12.441
    1HEX    H1Y19209  12.946   8.410  12.536
    1HEX    H1Z19210  12.875   8.409  12.684
    1HEX    H2019211  13.028   8.698  12.790
    1HEX    H2119212  13.169   8.606  12.801
    1HEX    H2219213  13.025   8.322  12.880
    1HEX    H2319214  13.062   8.354  13.047
    1HEX    H2419215  13.450   8.393  12.830
    1HEX    H2519216  13.493   8.285  12.960
    1HEX    H2619217  13.576   8.478  13.099
    1HEX    H2719218  13.528   8.590  12.975
    1HEX    H2919219  13.025   8.727  13.032
    1HEX    H2A19220  13.174   8.636  13.034
    1HEX    H2B19221  13.042   8.471  13.392
    1HEX    H2C19222  12.959   8.614  13.451
    1HEX    H2D19223  13.183   8.713  13.519
    1HEX    H2E19224  13.263   8.569  13.460
    1HEX    H2G19225  12.811   8.506  12.843
    1HEX    H2H19226  12.829   8.649  12.933
    1HEX    H2I19227  12.553   8.561  13.147
    1HEX    H2J19228  12.486   8.400  13.132
    1HEX    H2K19229  12.420   8.464  12.885
    1HEX    H2M19230  12.456   8.629  12.929
    1STR    S0019231  13.244   8.487  12.003
    1STR    S0E19232  12.838   9.372  12.716
    1STR    S0M19233  12.566   7.898  12.557
    1STR    S0X19234  13.729   8.473  12.911
    1STR    S1419235  13.151   8.529  13.670
    1STR    S1B19236  12.252   8.552  13.031
    1HEX    C0119237  13.250  12.775  16.511
    1HEX    C0219238  13.179  12.867  16.614
    1HEX    C0319239  13.052  12.810  16.675
    1HEX    O0419240  13.026  12.690  16.672
    1HEX    O0519241  12.979  12.905  16.736
    1HEX    C0619242  12.850  12.874  16.788
    1HEX    C0719243  12.842  12.875  16.943
    1HEX    C0819244  12.854  13.022  16.995
    1HEX    O0919245  12.780  13.136  16.948
    1HEX    C0A19246  12.775  13.244  17.033
    1HEX    O0B19247  12.767  13.234  17.156
    1HEX    C0C19248  12.788  13.383  16.967
    1HEX    C0D19249  12.794  13.502  17.069
    1HEX    C0F19250  12.707  12.804  16.981
    1HEX    O0G19251  12.727  12.661  16.990
    1HEX    C0H19252  12.672  12.573  16.903
    1HEX    O0I19253  12.589  12.601  16.818
    1HEX    C0J19254  12.731  12.431  16.912
    1HEX    C0K19255  12.732  12.361  17.051
    1HEX    C0N19256  12.957  12.790  17.010
    1HEX    O0O19257  13.077  12.853  17.057
    1HEX    C0P19258  13.087  12.928  17.180
    1HEX    C0Q19259  13.032  12.874  17.318
    1HEX    C0R19260  13.084  12.730  17.342
    1HEX    O0S19261  13.224  12.714  17.312
    1HEX    C0T19262  13.319  12.719  17.409
    1HEX    O0U19263  13.298  12.741   0.088
    1HEX    C0V19264  13.459  12.685  17.359
    1HEX    C0W19265  13.558  12.804  17.359
    1HEX    C0Y19266  13.089  12.968  17.426
    1HEX    O0Z19267  13.046  12.932   0.117
    1HEX    C1019268  13.092  13.004   0.220
    1HEX    O1119269  13.170  13.098   0.211
    1HEX    C1219270  13.034  12.959   0.354
    1HEX    C1319271  13.133  12.976   0.472
    1HEX    C1519272  12.876  12.888  17.321
    1HEX    O1619273  12.800  12.846  17.435
    1HEX    C1719274  12.676  12.793  17.413
    1HEX    O1819275  12.646  12.724  17.315
    1HEX    C1919276  12.569  12.831   0.076
    1HEX    C1A19277  12.451  12.906   0.008
    1HEX    H1D19278  13.351  12.811  16.495
    1HEX    H1E19279  13.259  12.676  16.556
    1HEX    H1F19280  13.159  12.966  16.573
    1HEX    H1G19281  13.246  12.885  16.698
    1HEX    H1H19282  12.813  12.780  16.747
    1HEX    H1I19283  12.781  12.949  16.748
    1HEX    H1J19284  12.957  13.053  16.975
    1HEX    H1K19285  12.841  13.018  17.102
    1HEX    H1M19286  12.708  13.398  16.896
    1HEX    H1N19287  12.881  13.380  16.910
    1HEX    H1O19288  12.841  13.473  17.163
    1HEX    H1P19289  12.693  13.533  17.095
    1HEX    H1R19290  12.627  12.830  16.911
    1HEX    H1S19291  12.670  12.838  17.077
    1HEX    H1T19292  12.832  12.436  16.872
    1HEX    H1U19293  12.674  12.369  16.842
    1HEX    H1V19294  12.633  12.363  17.097
    1HEX    H1W19295  12.799  12.414  17.119
    1HEX    H1Y19296  12.989  12.717  16.936
    1HEX    H1Z19297  12.922  12.726  17.090
    1HEX    H2019298  13.053  13.030  17.167
    1HEX    H2119299  13.195  12.940  17.191
    1HEX    H2219300  13.030  12.659  17.280
    1HEX    H2319301  13.062  12.699   0.005
    1HEX    H2419302  13.454  12.639  17.260
    1HEX    H2519303  13.496  12.608  17.427
    1HEX    H2619304  13.532  12.878  17.435
    1HEX    H2719305  13.554  12.856  17.263
    1HEX    H2919306  13.059  13.072  17.408
    1HEX    H2A19307  13.198  12.968  17.425
    1HEX    H2B19308  13.001  12.856   0.347
    1HEX    H2C19309  12.945  13.020   0.370
    1HEX    H2D19310  13.213  13.046   0.446
    1HEX    H2E19311  13.182  12.882   0.497
    1HEX    H2G19312  12.834  12.842  17.233
    1HEX    H2H19313  12.851  12.993  17.313
    1HEX    H2I19314  12.613  12.890   0.156
    1HEX    H2J19315  12.534  12.738   0.120
    1HEX    H2K19316  12.438  12.870  17.346
    1HEX    H2M19317  12.471  13.013  17.439
    1STR    S0019318  13.174  12.747  16.346
    1STR    S0E19319  12.887  13.648  17.005
    1STR    S0M19320  12.788  12.186  17.033
    1STR    S0X19321  13.730  12.747  17.391
    1STR    S1419322  13.049  13.045   0.619
    1STR    S1B19323  12.290  12.882   0.092
    1HEX    C0119324  13.174  12.776   3.385
    1HEX    C0219325  13.151  12.850   3.519
    1HEX    C0319326  13.010  12.834   3.572
    1HEX    O0419327  12.951  12.726   3.563
    1HEX    O0519328  12.964  12.945   3.631
    1HEX    C0619329  12.829  12.950   3.678
    1HEX    C0719330  12.814  12.932   3.831
    1HEX    C0819331  12.835  13.071   3.902
    1HEX    O0919332  12.767  13.197   3.883
    1HEX    C0A19333  12.804  13.297   3.974
    1HEX    O0B19334  12.872  13.275   4.074
    1HEX    C0C19335  12.760  13.443   3.946
    1HEX    C0D19336  12.832  13.545   4.043
    1HEX    C0F19337  12.676  12.862   3.855
    1HEX    O0G19338  12.692  12.721   3.826
    1HEX    C0H19339  12.616  12.655   3.736
    1HEX    O0I19340  12.518  12.702   3.678
    1HEX    C0J19341  12.670  12.515   3.700
    1HEX    C0K19342  12.671  12.408   3.813
    1HEX    C0N19343  12.921  12.831   3.892
    1HEX    O0O19344  13.049  12.879   3.936
    1HEX    C0P19345  13.072  12.947   4.062
    1HEX    C0Q19346  13.025  12.886   4.199
    1HEX    C0R19347  13.086  12.744   4.215
    1HEX    O0S19348  13.224  12.733   4.172
    1HEX    C0T19349  13.329  12.744   4.259
    1HEX    O0U19350  13.321  12.773   4.377
    1HEX    C0V19351  13.465  12.710   4.196
    1HEX    C0W19352  13.570  12.825   4.198
    1HEX    C0Y19353  13.085  12.979   4.308
    1HEX    O0Z19354  13.038  12.940   4.436
    1HEX    C1019355  13.068  13.015   4.541
    1HEX    O1119356  13.138  13.116   4.539
    1HEX    C1219357  13.001  12.965   4.667
    1HEX    C1319358  13.069  13.020   4.794
    1HEX    C1519359  12.869  12.899   4.213
    1HEX    O1619360  12.790  12.827   4.309
    1HEX    C1719361  12.689  12.749   4.262
    1HEX    O1819362  12.699  12.677   4.162
    1HEX    C1919363  12.552  12.766   4.331
    1HEX    C1A19364  12.446  12.814   4.228
    1HEX    H1D19365  13.275  12.737   3.383
    1HEX    H1E19366  13.107  12.690   3.376
    1HEX    H1F19367  13.175  12.956   3.511
    1HEX    H1G19368  13.215  12.809   3.596
    1HEX    H1H19369  12.770  12.875   3.624
    1HEX    H1I19370  12.786  13.045   3.647
    1HEX    H1J19371  12.938  13.098   3.881
    1HEX    H1K19372  12.824  13.052   4.008
    1HEX    H1M19373  12.652  13.449   3.957
    1HEX    H1N19374  12.784  13.466   3.842
    1HEX    H1O19375  12.940  13.543   4.025
    1HEX    H1P19376  12.820  13.511   4.146
    1HEX    H1R19377  12.597  12.908   3.795
    1HEX    H1S19378  12.643  12.870   3.958
    1HEX    H1T19379  12.771  12.529   3.662
    1HEX    H1U19380  12.611  12.477   3.616
    1HEX    H1V19381  12.570  12.387   3.849
    1HEX    H1W19382  12.726  12.445   3.900
    1HEX    H1Y19383  12.943  12.757   3.815
    1HEX    H1Z19384  12.880  12.764   3.968
    1HEX    H2019385  13.041  13.051   4.057
    1HEX    H2119386  13.180  12.955   4.066
    1HEX    H2219387  13.028  12.674   4.155
    1HEX    H2319388  13.075  12.709   4.318
    1HEX    H2419389  13.449  12.674   4.094
    1HEX    H2519390  13.504  12.626   4.253
    1HEX    H2619391  13.579  12.868   4.297
    1HEX    H2719392  13.539  12.906   4.132
    1HEX    H2919393  13.056  13.083   4.291
    1HEX    H2A19394  13.194  12.979   4.308
    1HEX    H2B19395  13.005  12.856   4.666
    1HEX    H2C19396  12.896  12.994   4.664
    1HEX    H2D19397  13.066  13.129   4.798
    1HEX    H2E19398  13.174  12.991   4.795
    1HEX    H2G19399  12.821  12.882   4.118
    1HEX    H2H19400  12.845  13.004   4.232
    1HEX    H2I19401  12.560  12.835   4.415
    1HEX    H2J19402  12.523  12.669   4.371
    1HEX    H2K19403  12.458  12.755   4.136
    1HEX    H2M19404  12.464  12.917   4.199
    1STR    S0019405  13.150  12.879   3.236
    1STR    S0E19406  12.775  13.720   4.040
    1STR    S0M19407  12.748  12.252   3.753
    1STR    S0X19408  13.736  12.764   4.144
    1STR    S1419409  12.988  12.950   4.940
    1STR    S1B19410  12.269  12.801   4.277
    1HEX    C0119411  13.205  12.810   7.854
    1HEX    C0219412  13.147  12.730   7.970
    1HEX    C0319413  12.998  12.754   7.989
    1HEX    O0419414  12.917  12.663   7.978
    1HEX    O0519415  12.972  12.880   8.032
    1HEX    C0619416  12.838  12.915   8.068
    1HEX    C0719417  12.815  12.916   8.222
    1HEX    C0819418  12.837  13.061   8.279
    1HEX    O0919419  12.778  13.183   8.231
    1HEX    C0A19420  12.805  13.298   8.305
    1HEX    O0B19421  12.842  13.297   8.422
    1HEX    C0C19422  12.793  13.432   8.229
    1HEX    C0D19423  12.751  13.557   8.315
    1HEX    C0F19424  12.671  12.856   8.247
    1HEX    O0G19425  12.682  12.713   8.258
    1HEX    C0H19426  12.606  12.624   8.191
    1HEX    O0I19427  12.509  12.653   8.121
    1HEX    C0J19428  12.654  12.479   8.208
    1HEX    C0K19429  12.541  12.374   8.230
    1HEX    C0N19430  12.915  12.819   8.298
    1HEX    O0O19431  13.045  12.867   8.337
    1HEX    C0P19432  13.068  12.946   8.457
    1HEX    C0Q19433  13.021  12.895   8.597
    1HEX    C0R19434  13.074  12.749   8.616
    1HEX    O0S19435  13.212  12.735   8.574
    1HEX    C0T19436  13.316  12.736   8.661
    1HEX    O0U19437  13.306  12.750   8.783
    1HEX    C0V19438  13.454  12.719   8.595
    1HEX    C0W19439  13.547  12.841   8.617
    1HEX    C0Y19440  13.089  12.987   8.702
    1HEX    O0Z19441  13.047  12.956   8.834
    1HEX    C1019442  13.097  13.027   8.936
    1HEX    O1119443  13.178  13.118   8.927
    1HEX    C1219444  13.038  12.984   9.070
    1HEX    C1319445  13.146  12.940   9.171
    1HEX    C1519446  12.866  12.919   8.609
    1HEX    O1619447  12.784  12.870   8.717
    1HEX    C1719448  12.667  12.808   8.684
    1HEX    O1819449  12.654  12.730   8.590
    1HEX    C1919450  12.544  12.849   8.768
    1HEX    C1A19451  12.414  12.853   8.682
    1HEX    H1D19452  13.314  12.812   7.861
    1HEX    H1E19453  13.170  12.913   7.856
    1HEX    H1F19454  13.195  12.759   8.064
    1HEX    H1G19455  13.164  12.623   7.957
    1HEX    H1H19456  12.768  12.848   8.018
    1HEX    H1I19457  12.816  13.013   8.025
    1HEX    H1J19458  12.942  13.081   8.262
    1HEX    H1K19459  12.819  13.059   8.385
    1HEX    H1M19460  12.718  13.415   8.152
    1HEX    H1N19461  12.886  13.451   8.177
    1HEX    H1O19462  12.685  13.523   8.395
    1HEX    H1P19463  12.690  13.624   8.254
    1HEX    H1R19464  12.600  12.885   8.170
    1HEX    H1S19465  12.629  12.892   8.341
    1HEX    H1T19466  12.724  12.476   8.291
    1HEX    H1U19467  12.712  12.452   8.120
    1HEX    H1V19468  12.523  12.318   8.138
    1HEX    H1W19469  12.448  12.426   8.252
    1HEX    H1Y19470  12.934  12.734   8.233
    1HEX    H1Z19471  12.872  12.764   8.381
    1HEX    H2019472  13.038  13.049   8.444
    1HEX    H2119473  13.177  12.953   8.458
    1HEX    H2219474  13.015  12.681   8.555
    1HEX    H2319475  13.060  12.716   8.719
    1HEX    H2419476  13.440  12.699   8.488
    1HEX    H2519477  13.500  12.630   8.637
    1HEX    H2619478  13.560  12.860   8.724
    1HEX    H2719479  13.499  12.930   8.576
    1HEX    H2919480  13.067  13.092   8.682
    1HEX    H2A19481  13.198  12.979   8.696
    1HEX    H2B19482  12.969  12.902   9.052
    1HEX    H2C19483  12.979  13.067   9.108
    1HEX    H2D19484  13.243  12.932   9.121
    1HEX    H2E19485  13.124  12.841   9.211
    1HEX    H2G19486  12.815  12.894   8.518
    1HEX    H2H19487  12.850  13.027   8.613
    1HEX    H2I19488  12.565  12.948   8.809
    1HEX    H2J19489  12.534  12.780   8.852
    1HEX    H2K19490  12.379  12.752   8.661
    1HEX    H2M19491  12.436  12.896   8.584
    1STR    S0019492  13.163  12.737   7.693
    1STR    S0E19493  12.884  13.659   8.393
    1STR    S0M19494  12.570  12.253   8.366
    1STR    S0X19495  13.713  12.827   8.539
    1STR    S1419496  13.163  13.056   9.311
    1STR    S1B19497  12.274  12.950   8.753
    1HEX    C0119498  13.207  12.818  12.109
    1HEX    C0219499  13.168  12.881  12.245
    1HEX    C0319500  13.040  12.825  12.304
    1HEX    O0419501  13.016  12.705  12.302
    1HEX    O0519502  12.963  12.921  12.359
    1HEX    C0619503  12.834  12.890  12.408
    1HEX    C0719504  12.825  12.883  12.562
    1HEX    C0819505  12.829  13.028  12.623
    1HEX    O0919506  12.750  13.145  12.590
    1HEX    C0A19507  12.773  13.255  12.672
    1HEX    O0B19508  12.839  13.249  12.776
    1HEX    C0C19509  12.717  13.393  12.628
    1HEX    C0D19510  12.786  13.511  12.707
    1HEX    C0F19511  12.695  12.800  12.594
    1HEX    O0G19512  12.726  12.658  12.591
    1HEX    C0H19513  12.670  12.572  12.504
    1HEX    O0I19514  12.576  12.601  12.429
    1HEX    C0J19515  12.739  12.434  12.495
    1HEX    C0K19516  12.771  12.360  12.628
    1HEX    C0N19517  12.944  12.800  12.626
    1HEX    O0O19518  13.063  12.865  12.672
    1HEX    C0P19519  13.072  12.934  12.799
    1HEX    C0Q19520  13.023  12.872  12.935
    1HEX    C0R19521  13.083  12.730  12.954
    1HEX    O0S19522  13.223  12.721  12.920
    1HEX    C0T19523  13.320  12.725  13.015
    1HEX    O0U19524  13.303  12.754  13.133
    1HEX    C0V19525  13.458  12.685  12.963
    1HEX    C0W19526  13.560  12.802  12.953
    1HEX    C0Y19527  13.079  12.967  13.044
    1HEX    O0Z19528  13.041  12.929  13.175
    1HEX    C1019529  13.093  12.998  13.278
    1HEX    O1119530  13.173  13.091  13.267
    1HEX    C1219531  13.039  12.953  13.413
    1HEX    C1319532  13.127  12.998  13.532
    1HEX    C1519533  12.866  12.877  12.943
    1HEX    O1619534  12.794  12.819  13.053
    1HEX    C1719535  12.666  12.773  13.030
    1HEX    O1819536  12.623  12.738  12.920
    1HEX    C1919537  12.573  12.774  13.151
    1HEX    C1A19538  12.441  12.852  13.123
    1HEX    H1D19539  13.235  12.714  12.125
    1HEX    H1E19540  13.294  12.869  12.068
    1HEX    H1F19541  13.156  12.989  12.234
    1HEX    H1G19542  13.247  12.865  12.318
    1HEX    H1H19543  12.798  12.797  12.362
    1HEX    H1I19544  12.766  12.966  12.371
    1HEX    H1J19545  12.931  13.063  12.604
    1HEX    H1K19546  12.817  13.015  12.730
    1HEX    H1M19547  12.609  13.393  12.645
    1HEX    H1N19548  12.733  13.405  12.521
    1HEX    H1O19549  12.891  13.514  12.679
    1HEX    H1P19550  12.786  13.488  12.814
    1HEX    H1R19551  12.613  12.826  12.527
    1HEX    H1S19552  12.657  12.824  12.693
    1HEX    H1T19553  12.831  12.447  12.438
    1HEX    H1U19554  12.674  12.372  12.434
    1HEX    H1V19555  12.685  12.361  12.696
    1HEX    H1W19556  12.852  12.409  12.681
    1HEX    H1Y19557  12.977  12.729  12.551
    1HEX    H1Z19558  12.913  12.731  12.705
    1HEX    H2019559  13.033  13.035  12.790
    1HEX    H2119560  13.179  12.951  12.808
    1HEX    H2219561  13.031  12.659  12.891
    1HEX    H2319562  13.066  12.695  13.056
    1HEX    H2419563  13.449  12.632  12.869
    1HEX    H2519564  13.495  12.612  13.035
    1HEX    H2619565  13.528  12.886  13.014
    1HEX    H2719566  13.564  12.838  12.850
    1HEX    H2919567  13.046  13.069  13.028
    1HEX    H2A19568  13.188  12.970  13.039
    1HEX    H2B19569  13.027  12.845  13.413
    1HEX    H2C19570  12.939  12.996  13.421
    1HEX    H2D19571  13.172  13.096  13.512
    1HEX    H2E19572  13.210  12.929  13.547
    1HEX    H2G19573  12.825  12.835  12.853
    1HEX    H2H19574  12.835  12.981  12.943
    1HEX    H2I19575  12.627  12.821  13.233
    1HEX    H2J19576  12.552  12.672  13.181
    1HEX    H2K19577  12.451  12.912  13.032
    1HEX    H2M19578  12.419  12.922  13.203
    1STR    S0019579  13.076  12.819  11.983
    1STR    S0E19580  12.717  13.682  12.695
    1STR    S0M19581  12.818  12.184  12.594
    1STR    S0X19582  13.727  12.750  13.009
    1STR    S1419583  13.025  13.016  13.682
    1STR    S1B19584  12.292  12.747  13.099
    2ACC    C0019585  15.968  13.180  10.700
    2ACC    C0119586  15.826  13.155  10.651
    2ACC    O0219587  15.774  13.225  10.564
    2ACC    O0319588  15.767  13.050  10.711
    2ACC    C0419589  15.633  13.018  10.680
    2ACC    C0519590  15.626  12.943  10.545
    2ACC    N0619591  15.488  12.916  10.492
    2ACC    C0719592  15.408  12.835  10.588
    2ACC    C0819593  15.416  13.044  10.462
    2ACC    C0919594  15.502  12.840  10.365
    2ACC    H0A19595  16.012  13.265  10.648
    2ACC    H0B19596  16.031  13.093  10.682
    2ACC    H0C19597  15.968  13.202  10.806
    2ACC    H0D19598  15.575  13.111  10.681
    2ACC    H0E19599  15.595  12.957  10.762
    2ACC    H0F19600  15.682  12.850  10.555
    2ACC    H0G19601  15.682  13.001  10.470
    2ACC    H0H19602  15.386  12.888  10.681
    2ACC    H0I19603  15.459  12.742  10.615
    2ACC    H0J19604  15.311  12.806  10.546
    2ACC    H0K19605  15.393  13.102  10.551
    2ACC    H0M19606  15.321  13.027  10.411
    2ACC    H0N19607  15.475  13.110  10.397
    2ACC    H0O19608  15.554  12.744  10.379
    2ACC    H0P19609  15.559  12.895  10.290
    2ACC    H0Q19610  15.406  12.816  10.319
    3ACC    C0019611  14.821  11.801   0.558
    3ACC    C0119612  14.930  11.839   0.656
    3ACC    O0219613  15.030  11.769   0.672
    3ACC    O0319614  14.904  11.953   0.721
    3ACC    C0419615  14.996  12.001   0.819
    3ACC    C0519616  15.115  12.072   0.751
    3ACC    N0619617  15.225  12.117   0.843
    3ACC    C0719618  15.175  12.211   0.947
    3ACC    C0819619  15.293  12.001   0.908
    3ACC    C0919620  15.327  12.190   0.761
    3ACC    H0A19621  14.848  11.710   0.504
    3ACC    H0B19622  14.806  11.881   0.486
    3ACC    H0C19623  14.727  11.783   0.611
    3ACC    H0D19624  15.026  11.917   0.882
    3ACC    H0E19625  14.940  12.070   0.884
    3ACC    H0F19626  15.076  12.157   0.694
    3ACC    H0G19627  15.157  12.005   0.676
    3ACC    H0H19628  15.106  12.163   1.017
    3ACC    H0I19629  15.122  12.296   0.904
    3ACC    H0J19630  15.256  12.252   1.008
    3ACC    H0K19631  15.228  11.947   0.977
    3ACC    H0M19632  15.381  12.031   0.965
    3ACC    H0N19633  15.327  11.927   0.834
    3ACC    H0O19634  15.286  12.278   0.711
    3ACC    H0P19635  15.370  12.126   0.683
    3ACC    H0Q19636  15.411  12.225   0.821
    4ACC    C0019637  14.023   1.694  11.326
    4ACC    C0119638  13.910   1.606  11.276
    4ACC    O0219639  13.794   1.646  11.272
    4ACC    O0319640  13.953   1.483  11.243
    4ACC    C0419641  13.862   1.388  11.190
    4ACC    C0519642  13.841   1.413  11.039
    4ACC    N0619643  13.740   1.326  10.971
    4ACC    C0719644  13.773   1.181  10.985
    4ACC    C0819645  13.603   1.354  11.023
    4ACC    C0919646  13.741   1.361  10.825
    4ACC    H0A19647  13.988   1.795  11.345
    4ACC    H0B19648  14.102   1.698  11.251
    4ACC    H0C19649  14.064   1.653  11.419
    4ACC    H0D19650  13.768   1.393  11.247
    4ACC    H0E19651  13.904   1.289  11.208
    4ACC    H0F19652  13.938   1.408  10.989
    4ACC    H0G19653  13.811   1.518  11.027
    4ACC    H0H19654  13.767   1.147  11.088
    4ACC    H0I19655  13.874   1.160  10.949
    4ACC    H0J19656  13.705   1.118  10.928
    4ACC    H0K19657  13.591   1.323  11.127
    4ACC    H0M19658  13.526   1.301  10.966
    4ACC    H0N19659  13.580   1.460  11.018
    4ACC    H0O19660  13.840   1.349  10.781
    4ACC    H0P19661  13.715   1.465  10.808
    4ACC    H0Q19662  13.672   1.300  10.766
    5ACC    C0019663   1.927  15.514   6.543
    5ACC    C0119664   1.809  15.430   6.497
    5ACC    O0219665   1.699  15.436   6.552
    5ACC    O0319666   1.838  15.352   6.391
    5ACC    C0419667   1.740  15.262   6.341
    5ACC    C0519668   1.636  15.340   6.255
    5ACC    N0619669   1.519  15.260   6.207
    5ACC    C0719670   1.561  15.143   6.125
    5ACC    C0819671   1.435  15.214   6.322
    5ACC    C0919672   1.435  15.350   6.122
    5ACC    H0A19673   1.899  15.576   6.628
    5ACC    H0B19674   1.961  15.579   6.462
    5ACC    H0C19675   2.009  15.449   6.573
    5ACC    H0D19676   1.694  15.211   6.425
    5ACC    H0E19677   1.792  15.187   6.282
    5ACC    H0F19678   1.690  15.384   6.170
    5ACC    H0G19679   1.600  15.426   6.313
    5ACC    H0H19680   1.616  15.069   6.183
    5ACC    H0I19681   1.626  15.173   6.042
    5ACC    H0J19682   1.476  15.091   6.081
    5ACC    H0K19683   1.486  15.139   6.384
    5ACC    H0M19684   1.342  15.167   6.289
    5ACC    H0N19685   1.407  15.296   6.388
    5ACC    H0O19686   1.489  15.388   6.035
    5ACC    H0P19687   1.399  15.437   6.177
    5ACC    H0Q19688   1.346  15.299   6.083
    6ACC    C0019689   5.878   4.412  13.822
    6ACC    C0119690   5.745   4.392  13.894
    6ACC    O0219691   5.699   4.478  13.968
    6ACC    O0319692   5.688   4.274  13.866
    6ACC    C0419693   5.565   4.239  13.930
    6ACC    C0519694   5.446   4.310  13.860
    6ACC    N0619695   5.312   4.291  13.924
    6ACC    C0719696   5.276   4.146  13.934
    6ACC    C0819697   5.308   4.353  14.059
    6ACC    C0919698   5.210   4.359  13.839
    6ACC    H0A19699   5.918   4.511  13.845
    6ACC    H0B19700   5.864   4.404  13.715
    6ACC    H0C19701   5.950   4.337  13.855
    6ACC    H0D19702   5.572   4.265  14.036
    6ACC    H0E19703   5.556   4.131  13.925
    6ACC    H0F19704   5.444   4.276  13.756
    6ACC    H0G19705   5.468   4.417  13.854
    6ACC    H0H19706   5.340   4.091  14.002
    6ACC    H0I19707   5.281   4.096  13.837
    6ACC    H0J19708   5.173   4.133  13.971
    6ACC    H0K19709   5.372   4.303  14.132
    6ACC    H0M19710   5.207   4.351  14.102
    6ACC    H0N19711   5.338   4.458  14.057
    6ACC    H0O19712   5.206   4.318  13.738
    6ACC    H0P19713   5.229   4.466  13.829
    6ACC    H0Q19714   5.109   4.350  13.880
    7ACC    C0019715   5.063  12.602   1.858
    7ACC    C0119716   5.137  12.626   1.728
    7ACC    O0219717   5.259  12.642   1.725
    7ACC    O0319718   5.057  12.627   1.621
    7ACC    C0419719   5.112  12.647   1.492
    7ACC    C0519720   5.174  12.514   1.441
    7ACC    N0619721   5.251  12.523   1.312
    7ACC    C0719722   5.166  12.576   1.202
    7ACC    C0819723   5.373  12.608   1.329
    7ACC    C0919724   5.295  12.385   1.276
    7ACC    H0A19725   5.132  12.595   1.942
    7ACC    H0B19726   5.006  12.509   1.853
    7ACC    H0C19727   4.993  12.684   1.878
    7ACC    H0D19728   5.184  12.728   1.497
    7ACC    H0E19729   5.031  12.680   1.427
    7ACC    H0F19730   5.093  12.441   1.433
    7ACC    H0G19731   5.240  12.474   1.519
    7ACC    H0H19732   5.137  12.680   1.217
    7ACC    H0I19733   5.074  12.518   1.190
    7ACC    H0J19734   5.218  12.573   1.105
    7ACC    H0K19735   5.349  12.713   1.347
    7ACC    H0M19736   5.437  12.605   1.240
    7ACC    H0N19737   5.434  12.574   1.413
    7ACC    H0O19738   5.210  12.317   1.262
    7ACC    H0P19739   5.358  12.340   1.353
    7ACC    H0Q19740   5.352  12.382   1.183
    8ACC    C0019741   3.106  16.628   7.907
    8ACC    C0119742   3.030  16.515   7.974
    8ACC    O0219743   3.012  16.407   7.917
    8ACC    O0319744   2.988  16.545   8.098
    8ACC    C0419745   2.905  16.454   8.168
    8ACC    C0519746   2.989  16.336   8.224
    8ACC    N0619747   2.911  16.226   8.289
    8ACC    C0719748   2.834  16.276   8.407
    8ACC    C0819749   2.818  16.161   8.192
    8ACC    C0919750   3.009  16.123   8.336
    8ACC    H0A19751   3.133  16.602   7.805
    8ACC    H0B19752   3.198  16.650   7.962
    8ACC    H0C19753   3.045  16.718   7.905
    8ACC    H0D19754   2.826  16.422   8.101
    8ACC    H0E19755   2.857  16.510   8.248
    8ACC    H0F19756   3.063  16.378   8.293
    8ACC    H0G19757   3.048  16.294   8.142
    8ACC    H0H19758   2.755  16.345   8.378
    8ACC    H0I19759   2.898  16.328   8.479
    8ACC    H0J19760   2.785  16.195   8.461
    8ACC    H0K19761   2.736  16.227   8.162
    8ACC    H0M19762   2.771  16.072   8.233
    8ACC    H0N19763   2.869  16.131   8.100
    8ACC    H0O19764   3.081  16.164   8.408
    8ACC    H0P19765   3.068  16.082   8.253
    8ACC    H0Q19766   2.960  16.039   8.385
    9ACC    C0019767  12.230  15.600   5.906
    9ACC    C0119768  12.364  15.661   5.946
    9ACC    O0219769  12.372  15.751   6.030
    9ACC    O0319770  12.467  15.606   5.881
    9ACC    C0419771  12.600  15.651   5.907
    9ACC    C0519772  12.650  15.593   6.042
    9ACC    N0619773  12.785  15.639   6.087
    9ACC    C0719774  12.890  15.596   5.990
    9ACC    C0819775  12.788  15.787   6.106
    9ACC    C0919776  12.816  15.575   6.218
    9ACC    H0A19777  12.148  15.649   5.959
    9ACC    H0B19778  12.229  15.494   5.931
    9ACC    H0C19779  12.214  15.611   5.799
    9ACC    H0D19780  12.600  15.760   5.905
    9ACC    H0E19781  12.661  15.616   5.824
    9ACC    H0F19782  12.649  15.484   6.032
    9ACC    H0G19783  12.576  15.614   6.120
    9ACC    H0H19784  12.880  15.643   5.893
    9ACC    H0I19785  12.886  15.487   5.974
    9ACC    H0J19786  12.991  15.618   6.026
    9ACC    H0K19787  12.778  15.842   6.012
    9ACC    H0M19788  12.881  15.820   6.151
    9ACC    H0N19789  12.707  15.820   6.171
    9ACC    H0O19790  12.825  15.466   6.209
    9ACC    H0P19791  12.737  15.592   6.292
    9ACC    H0Q19792  12.910  15.609   6.261
   10ACC    C0019793  11.280  13.204  11.124
   10ACC    C0119794  11.132  13.215  11.156
   10ACC    O0219795  11.048  13.229  11.068
   10ACC    O0319796  11.107  13.204  11.287
   10ACC    C0419797  10.974  13.218  11.335
   10ACC    C0519798  10.894  13.087  11.310
   10ACC    N0619799  10.748  13.092  11.345
   10ACC    C0719800  10.728  13.123  11.489
   10ACC    C0819801  10.676  13.192  11.260
   10ACC    C0919802  10.690  12.957  11.318
   10ACC    H0A19803  11.297  13.215  11.017
   10ACC    H0B19804  11.320  13.108  11.156
   10ACC    H0C19805  11.335  13.283  11.176
   10ACC    H0D19806  10.929  13.305  11.287
   10ACC    H0E19807  10.980  13.241  11.441
   10ACC    H0F19808  10.944  13.007  11.365
   10ACC    H0G19809  10.905  13.059  11.205
   10ACC    H0H19810  10.761  13.224  11.515
   10ACC    H0I19811  10.782  13.054  11.554
   10ACC    H0J19812  10.623  13.117  11.518
   10ACC    H0K19813  10.705  13.295  11.282
   10ACC    H0M19814  10.568  13.187  11.274
   10ACC    H0N19815  10.695  13.176  11.153
   10ACC    H0O19816  10.738  12.879  11.377
   10ACC    H0P19817  10.702  12.927  11.213
   10ACC    H0Q19818  10.584  12.952  11.340
   11ACC    C0019819  14.838   5.434  14.017
   11ACC    C0119820  14.733   5.358  13.938
   11ACC    O0219821  14.636   5.415  13.887
   11ACC    O0319822  14.759   5.227  13.930
   11ACC    C0419823  14.671   5.142  13.858
   11ACC    C0519824  14.698   5.156  13.706
   11ACC    N0619825  14.602   5.084  13.616
   11ACC    C0719826  14.599   4.937  13.645
   11ACC    C0819827  14.465   5.141  13.628
   11ACC    C0919828  14.648   5.103  13.475
   11ACC    H0A19829  14.816   5.541  14.017
   11ACC    H0B19830  14.937   5.420  13.973
   11ACC    H0C19831  14.840   5.399  14.120
   11ACC    H0D19832  14.569   5.167  13.885
   11ACC    H0E19833  14.689   5.040  13.892
   11ACC    H0F19834  14.801   5.123  13.687
   11ACC    H0G19835  14.699   5.262  13.680
   11ACC    H0H19836  14.559   4.915  13.744
   11ACC    H0I19837  14.699   4.893  13.641
   11ACC    H0J19838  14.537   4.882  13.574
   11ACC    H0K19839  14.419   5.122  13.726
   11ACC    H0M19840  14.396   5.099  13.554
   11ACC    H0N19841  14.464   5.249  13.613
   11ACC    H0O19842  14.749   5.063  13.459
   11ACC    H0P19843  14.652   5.208  13.447
   11ACC    H0Q19844  14.583   5.053  13.403
   12ACC    C0019845   6.225   4.435  16.333
   12ACC    C0119846   6.321   4.507  16.427
   12ACC    O0219847   6.367   4.618  16.399
   12ACC    O0319848   6.348   4.438  16.539
   12ACC    C0419849   6.438   4.491  16.635
   12ACC    C0519850   6.366   4.598  16.720
   12ACC    N0619851   6.453   4.674  16.816
   12ACC    C0719852   6.520   4.583  16.913
   12ACC    C0819853   6.555   4.755  16.743
   12ACC    C0919854   6.366   4.768  16.893
   12ACC    H0A19855   6.204   4.496  16.246
   12ACC    H0B19856   6.131   4.414  16.384
   12ACC    H0C19857   6.269   4.340  16.301
   12ACC    H0D19858   6.525   4.529  16.582
   12ACC    H0E19859   6.472   4.407  16.696
   12ACC    H0F19860   6.284   4.549  16.773
   12ACC    H0G19861   6.317   4.669  16.653
   12ACC    H0H19862   6.592   4.516  16.865
   12ACC    H0I19863   6.449   4.519  16.966
   12ACC    H0J19864   6.576   4.637  16.989
   12ACC    H0K19865   6.630   4.693  16.692
   12ACC    H0M19866   6.611   4.821  16.810
   12ACC    H0N19867   6.510   4.818  16.666
   12ACC    H0O19868   6.289   4.715  16.949
   12ACC    H0P19869   6.314   4.838  16.827
   12ACC    H0Q19870   6.422   4.828  16.965
   13ACC    C0019871  15.069  12.555  14.323
   13ACC    C0119872  15.003  12.689  14.355
   13ACC    O0219873  14.969  12.767  14.267
   13ACC    O0319874  14.988  12.709  14.487
   13ACC    C0419875  14.939  12.835  14.534
   13ACC    C0519876  14.786  12.844  14.516
   13ACC    N0619877  14.724  12.977  14.551
   13ACC    C0719878  14.749  13.013  14.694
   13ACC    C0819879  14.776  13.085  14.462
   13ACC    C0919880  14.577  12.966  14.530
   13ACC    H0A19881  15.082  12.545  14.215
   13ACC    H0B19882  15.007  12.473  14.358
   13ACC    H0C19883  15.166  12.549  14.371
   13ACC    H0D19884  14.993  12.914  14.481
   13ACC    H0E19885  14.968  12.843  14.639
   13ACC    H0F19886  14.740  12.765  14.574
   13ACC    H0G19887  14.762  12.821  14.412
   13ACC    H0H19888  14.854  13.032  14.715
   13ACC    H0I19889  14.716  12.935  14.762
   13ACC    H0J19890  14.696  13.104  14.722
   13ACC    H0K19891  14.881  13.108  14.479
   13ACC    H0M19892  14.722  13.180  14.477
   13ACC    H0N19893  14.765  13.060  14.356
   13ACC    H0O19894  14.532  12.889  14.593
   13ACC    H0P19895  14.551  12.941  14.427
   13ACC    H0Q19896  14.525  13.059  14.554
   14ACC    C0019897   9.494  15.717  11.622
   14ACC    C0119898   9.488  15.597  11.715
   14ACC    O0219899   9.503  15.482  11.673
   14ACC    O0319900   9.467  15.631  11.843
   14ACC    C0419901   9.451  15.529  11.941
   14ACC    C0519902   9.588  15.468  11.979
   14ACC    N0619903   9.583  15.350  12.071
   14ACC    C0719904   9.518  15.384  12.200
   14ACC    C0819905   9.513  15.235  12.006
   14ACC    C0919906   9.724  15.308  12.099
   14ACC    H0A19907   9.509  15.684  11.519
   14ACC    H0B19908   9.576  15.783  11.649
   14ACC    H0C19909   9.400  15.773  11.627
   14ACC    H0D19910   9.381  15.455  11.901
   14ACC    H0E19911   9.402  15.575  12.027
   14ACC    H0F19912   9.649  15.548  12.022
   14ACC    H0G19913   9.640  15.440  11.887
   14ACC    H0H19914   9.412  15.407  12.189
   14ACC    H0I19915   9.564  15.470  12.249
   14ACC    H0J19916   9.523  15.301  12.272
   14ACC    H0K19917   9.406  15.253  11.993
   14ACC    H0M19918   9.520  15.144  12.066
   14ACC    H0N19919   9.554  15.212  11.908
   14ACC    H0O19920   9.782  15.388  12.146
   14ACC    H0P19921   9.778  15.281  12.007
   14ACC    H0Q19922   9.729  15.222  12.165
   15ACC    C0019923   5.718   9.113   2.838
   15ACC    C0119924   5.762   9.074   2.698
   15ACC    O0219925   5.812   8.964   2.674
   15ACC    O0319926   5.739   9.170   2.608
   15ACC    C0419927   5.772   9.150   2.472
   15ACC    C0519928   5.665   9.061   2.405
   15ACC    N0619929   5.695   9.018   2.264
   15ACC    C0719930   5.710   9.136   2.174
   15ACC    C0819931   5.817   8.933   2.259
   15ACC    C0919932   5.579   8.937   2.215
   15ACC    H0A19933   5.734   9.031   2.908
   15ACC    H0B19934   5.612   9.138   2.838
   15ACC    H0C19935   5.773   9.200   2.872
   15ACC    H0D19936   5.872   9.108   2.467
   15ACC    H0E19937   5.776   9.249   2.426
   15ACC    H0F19938   5.570   9.115   2.409
   15ACC    H0G19939   5.649   8.972   2.467
   15ACC    H0H19940   5.798   9.196   2.199
   15ACC    H0I19941   5.624   9.203   2.180
   15ACC    H0J19942   5.722   9.107   2.070
   15ACC    H0K19943   5.908   8.988   2.283
   15ACC    H0M19944   5.833   8.890   2.160
   15ACC    H0N19945   5.811   8.849   2.329
   15ACC    H0O19946   5.486   8.994   2.217
   15ACC    H0P19947   5.562   8.848   2.277
   15ACC    H0Q19948   5.593   8.902   2.113
   16ACC    C0019949   1.915  10.444   9.558
   16ACC    C0119950   1.999  10.524   9.460
   16ACC    O0219951   2.023  10.644   9.478
   16ACC    O0319952   2.044  10.452   9.356
   16ACC    C0419953   2.129  10.515   9.261
   16ACC    C0519954   2.273  10.523   9.317
   16ACC    N0619955   2.370  10.606   9.238
   16ACC    C0719956   2.379  10.559   9.096
   16ACC    C0819957   2.333  10.750   9.242
   16ACC    C0919958   2.505  10.591   9.300
   16ACC    H0A19959   1.892  10.504   9.646
   16ACC    H0B19960   1.970  10.355   9.591
   16ACC    H0C19961   1.822  10.413   9.512
   16ACC    H0D19962   2.088  10.614   9.237
   16ACC    H0E19963   2.126  10.456   9.169
   16ACC    H0F19964   2.310  10.421   9.329
   16ACC    H0G19965   2.269  10.563   9.419
   16ACC    H0H19966   2.286  10.576   9.041
   16ACC    H0I19967   2.402  10.453   9.090
   16ACC    H0J19968   2.457  10.612   9.041
   16ACC    H0K19969   2.239  10.772   9.191
   16ACC    H0M19970   2.409  10.814   9.195
   16ACC    H0N19971   2.321  10.787   9.345
   16ACC    H0O19972   2.540  10.487   9.301
   16ACC    H0P19973   2.506  10.624   9.405
   16ACC    H0Q19974   2.582  10.649   9.249
   17ACC    C0019975  15.791  14.761   9.658
   17ACC    C0119976  15.921  14.835   9.683
   17ACC    O0219977  15.986  14.885   9.590
   17ACC    O0319978  15.955  14.841   9.813
   17ACC    C0419979  16.079  14.898   9.851
   17ACC    C0519980  16.072  15.053   9.848
   17ACC    N0619981  16.200  15.125   9.875
   17ACC    C0719982  16.253  15.093  10.011
   17ACC    C0819983  16.303  15.094   9.772
   17ACC    C0919984  16.172  15.272   9.870
   17ACC    H0A19985  15.770  14.755   9.552
   17ACC    H0B19986  15.709  14.811   9.708
   17ACC    H0C19987  15.799  14.659   9.697
   17ACC    H0D19988  16.157  14.858   9.786
   17ACC    H0E19989  16.102  14.862   9.952
   17ACC    H0F19990  15.994  15.084   9.918
   17ACC    H0G19991  16.034  15.083   9.750
   17ACC    H0H19992  16.284  14.988  10.020
   17ACC    H0I19993  16.180  15.111  10.090
   17ACC    H0J19994  16.341  15.152  10.036
   17ACC    H0K19995  16.338  14.991   9.777
   17ACC    H0M19996  16.393  15.156   9.783
   17ACC    H0N19997  16.266  15.110   9.670
   17ACC    H0O19998  16.098  15.302   9.945
   17ACC    H0P19999  16.134  15.303   9.773
   17ACC    H0Q20000  16.262  15.332   9.889
   18ACC    C0020001   4.837   1.592   9.874
   18ACC    C0120002   4.769   1.664   9.989
   18ACC    O0220003   4.768   1.786   9.997
   18ACC    O0320004   4.713   1.579  10.078
   18ACC    C0420005   4.645   1.630  10.191
   18ACC    C0520006   4.499   1.665  10.153
   18ACC    N0620007   4.418   1.728  10.263
   18ACC    C0720008   4.411   1.643  10.385
   18ACC    C0820009   4.472   1.862  10.298
   18ACC    C0920010   4.278   1.744  10.211
   18ACC    H0A20011   4.872   1.665   9.800
   18ACC    H0B20012   4.768   1.524   9.825
   18ACC    H0C20013   4.923   1.536   9.910
   18ACC    H0D20014   4.699   1.717  10.230
   18ACC    H0E20015   4.649   1.553  10.268
   18ACC    H0F20016   4.450   1.575  10.116
   18ACC    H0G20017   4.501   1.734  10.068
   18ACC    H0H20018   4.508   1.634  10.435
   18ACC    H0I20019   4.377   1.542  10.363
   18ACC    H0J20020   4.343   1.685  10.459
   18ACC    H0K20021   4.565   1.858  10.355
   18ACC    H0M20022   4.402   1.923  10.354
   18ACC    H0N20023   4.496   1.921  10.208
   18ACC    H0O20024   4.227   1.649  10.197
   18ACC    H0P20025   4.276   1.793  10.114
   18ACC    H0Q20026   4.216   1.805  10.276
   19ACC    C0020027   0.295  14.646  13.651
   19ACC    C0120028   0.392  14.570  13.740
   19ACC    O0220029   0.357  14.521  13.847
   19ACC    O0320030   0.516  14.564  13.688
   19ACC    C0420031   0.622  14.508  13.764
   19ACC    C0520032   0.614  14.353  13.763
   19ACC    N0620033   0.715  14.282  13.849
   19ACC    C0720034   0.854  14.312  13.806
   19ACC    C0820035   0.698  14.318  13.993
   19ACC    C0920036   0.692  14.135  13.835
   19ACC    H0A20037   0.198  14.655  13.699
   19ACC    H0B20038   0.282  14.594  13.556
   19ACC    H0C20039   0.333  14.746  13.630
   19ACC    H0D20040   0.618  14.550  13.865
   19ACC    H0E20041   0.715  14.543  13.719
   19ACC    H0F20042   0.622  14.320  13.659
   19ACC    H0G20043   0.513  14.323  13.794
   19ACC    H0H20044   0.881  14.417  13.820
   19ACC    H0I20045   0.870  14.291  13.700
   19ACC    H0J20046   0.928  14.254  13.861
   19ACC    H0K20047   0.724  14.422  14.014
   19ACC    H0M20048   0.761  14.257  14.059
   19ACC    H0N20049   0.595  14.305  14.027
   19ACC    H0O20050   0.704  14.101  13.732
   19ACC    H0P20051   0.592  14.106  13.866
   19ACC    H0Q20052   0.762  14.076  13.895
   20ACC    C0020053  14.398   6.529  10.791
   20ACC    C0120054  14.424   6.448  10.665
   20ACC    O0220055  14.462   6.500  10.560
   20ACC    O0320056  14.402   6.316  10.682
   20ACC    C0420057  14.417   6.228  10.571
   20ACC    C0520058  14.567   6.200  10.545
   20ACC    N0620059  14.598   6.119  10.422
   20ACC    C0720060  14.531   5.986  10.426
   20ACC    C0820061  14.557   6.193  10.299
   20ACC    C0920062  14.745   6.098  10.417
   20ACC    H0A20063  14.417   6.635  10.772
   20ACC    H0B20064  14.463   6.496  10.872
   20ACC    H0C20065  14.294   6.518  10.822
   20ACC    H0D20066  14.366   6.272  10.486
   20ACC    H0E20067  14.363   6.136  10.596
   20ACC    H0F20068  14.608   6.151  10.634
   20ACC    H0G20069  14.620   6.296  10.539
   20ACC    H0H20070  14.422   5.993  10.422
   20ACC    H0I20071  14.555   5.931  10.518
   20ACC    H0J20072  14.561   5.923  10.342
   20ACC    H0K20073  14.449   6.204  10.289
   20ACC    H0M20074  14.590   6.142  10.208
   20ACC    H0N20075  14.598   6.294  10.295
   20ACC    H0O20076  14.783   6.045  10.504
   20ACC    H0P20077  14.800   6.193  10.412
   20ACC    H0Q20078  14.776   6.041  10.329
   21ACC    C0020079  16.283  12.447  15.654
   21ACC    C0120080  16.305  12.318  15.576
   21ACC    O0220081  16.211  12.256  15.527
   21ACC    O0320082  16.434  12.284  15.568
   21ACC    C0420083  16.471  12.161  15.508
   21ACC    C0520084  16.466  12.173  15.353
   21ACC    N0620085  16.487  12.046  15.277
   21ACC    C0720086  16.621  11.987  15.307
   21ACC    C0820087  16.379  11.947  15.307
   21ACC    C0920088  16.481  12.078  15.131
   21ACC    H0A20089  16.177  12.471  15.660
   21ACC    H0B20090  16.335  12.530  15.605
   21ACC    H0C20091  16.323  12.438  15.755
   21ACC    H0D20092  16.405  12.083  15.547
   21ACC    H0E20093  16.572  12.137  15.542
   21ACC    H0F20094  16.539  12.249  15.324
   21ACC    H0G20095  16.369  12.216  15.325
   21ACC    H0H20096  16.630  11.954  15.410
   21ACC    H0I20097  16.702  12.058  15.289
   21ACC    H0J20098  16.642  11.900  15.244
   21ACC    H0K20099  16.384  11.909  15.409
   21ACC    H0M20100  16.385  11.859  15.242
   21ACC    H0N20101  16.280  11.990  15.294
   21ACC    H0O20102  16.558  12.150  15.102
   21ACC    H0P20103  16.385  12.122  15.103
   21ACC    H0Q20104  16.496  11.990  15.068
   22ACC    C0020105   7.784  11.183  12.607
   22ACC    C0120106   7.776  11.035  12.638
   22ACC    O0220107   7.807  10.949  12.555
   22ACC    O0320108   7.735  11.010  12.764
   22ACC    C0420109   7.708  10.876  12.804
   22ACC    C0520110   7.841  10.801  12.832
   22ACC    N0620111   7.827  10.655  12.863
   22ACC    C0720112   7.745  10.633  12.986
   22ACC    C0820113   7.767  10.581  12.749
   22ACC    C0920114   7.964  10.600  12.888
   22ACC    H0A20115   7.811  11.198  12.502
   22ACC    H0B20116   7.858  11.231  12.669
   22ACC    H0C20117   7.687  11.230  12.624
   22ACC    H0D20118   7.648  10.829  12.726
   22ACC    H0E20119   7.645  10.882  12.893
   22ACC    H0F20120   7.892  10.853  12.913
   22ACC    H0G20121   7.906  10.812  12.745
   22ACC    H0H20122   7.641  10.663  12.973
   22ACC    H0I20123   7.783  10.689  13.072
   22ACC    H0J20124   7.742  10.528  13.016
   22ACC    H0K20125   7.662  10.606  12.732
   22ACC    H0M20126   7.769  10.473  12.764
   22ACC    H0N20127   7.819  10.601  12.655
   22ACC    H0O20128   8.014  10.650  12.971
   22ACC    H0P20129   8.028  10.612  12.800
   22ACC    H0Q20130   7.962  10.494  12.911
   23ACC    C0020131  11.527  11.238   2.099
   23ACC    C0120132  11.527  11.225   2.250
   23ACC    O0220133  11.631  11.232   2.316
   23ACC    O0320134  11.404  11.205   2.301
   23ACC    C0420135  11.387  11.183   2.440
   23ACC    C0520136  11.393  11.317   2.518
   23ACC    N0620137  11.386  11.305   2.667
   23ACC    C0720138  11.260  11.241   2.714
   23ACC    C0820139  11.503  11.228   2.720
   23ACC    C0920140  11.391  11.443   2.723
   23ACC    H0A20141  11.629  11.253   2.062
   23ACC    H0B20142  11.467  11.324   2.069
   23ACC    H0C20143  11.486  11.148   2.053
   23ACC    H0D20144  11.463  11.112   2.473
   23ACC    H0E20145  11.290  11.134   2.454
   23ACC    H0F20146  11.313  11.381   2.481
   23ACC    H0G20147  11.486  11.368   2.491
   23ACC    H0H20148  11.252  11.136   2.685
   23ACC    H0I20149  11.171  11.292   2.677
   23ACC    H0J20150  11.253  11.242   2.823
   23ACC    H0K20151  11.501  11.123   2.693
   23ACC    H0M20152  11.506  11.229   2.829
   23ACC    H0N20153  11.599  11.269   2.687
   23ACC    H0O20154  11.308  11.505   2.689
   23ACC    H0P20155  11.484  11.495   2.699
   23ACC    H0Q20156  11.384  11.444   2.832
   24ACC    C0020157   4.066   5.063   6.066
   24ACC    C0120158   4.185   5.134   6.127
   24ACC    O0220159   4.275   5.072   6.182
   24ACC    O0320160   4.179   5.268   6.114
   24ACC    C0420161   4.276   5.349   6.180
   24ACC    C0520162   4.410   5.349   6.102
   24ACC    N0620163   4.523   5.423   6.166
   24ACC    C0720164   4.493   5.567   6.187
   24ACC    C0820165   4.563   5.362   6.297
   24ACC    C0920166   4.640   5.413   6.074
   24ACC    H0A20167   4.073   4.955   6.083
   24ACC    H0B20168   4.061   5.080   5.958
   24ACC    H0C20169   3.973   5.097   6.111
   24ACC    H0D20170   4.288   5.312   6.283
   24ACC    H0E20171   4.234   5.449   6.189
   24ACC    H0F20172   4.391   5.388   6.002
   24ACC    H0G20173   4.440   5.245   6.087
   24ACC    H0H20174   4.414   5.583   6.261
   24ACC    H0I20175   4.463   5.618   6.095
   24ACC    H0J20176   4.580   5.621   6.226
   24ACC    H0K20177   4.486   5.374   6.374
   24ACC    H0M20178   4.653   5.409   6.337
   24ACC    H0N20179   4.584   5.256   6.288
   24ACC    H0O20180   4.621   5.458   5.976
   24ACC    H0P20181   4.672   5.310   6.057
   24ACC    H0Q20182   4.727   5.465   6.113
   25ACC    C0020183  11.976  15.185   6.685
   25ACC    C0120184  12.045  15.081   6.598
   25ACC    O0220185  11.986  14.981   6.559
   25ACC    O0320186  12.174  15.111   6.575
   25ACC    C0420187  12.252  15.026   6.491
   25ACC    C0520188  12.237  15.072   6.344
   25ACC    N0620189  12.317  14.994   6.244
   25ACC    C0720190  12.462  14.990   6.280
   25ACC    C0820191  12.265  14.854   6.233
   25ACC    C0920192  12.304  15.062   6.112
   25ACC    H0A20193  11.868  15.170   6.680
   25ACC    H0B20194  11.999  15.285   6.650
   25ACC    H0C20195  12.008  15.173   6.788
   25ACC    H0D20196  12.222  14.922   6.503
   25ACC    H0E20197  12.355  15.034   6.525
   25ACC    H0F20198  12.265  15.178   6.338
   25ACC    H0G20199  12.131  15.069   6.316
   25ACC    H0H20200  12.484  14.924   6.363
   25ACC    H0I20201  12.498  15.089   6.307
   25ACC    H0J20202  12.524  14.958   6.196
   25ACC    H0K20203  12.286  14.793   6.321
   25ACC    H0M20204  12.306  14.802   6.146
   25ACC    H0N20205  12.157  14.852   6.220
   25ACC    H0O20206  12.347  15.162   6.113
   25ACC    H0P20207  12.200  15.073   6.082
   25ACC    H0Q20208  12.354  15.008   6.032
   26ACC    C0020209  10.634  13.850  12.026
   26ACC    C0120210  10.583  13.711  12.057
   26ACC    O0220211  10.573  13.624  11.970
   26ACC    O0320212  10.552  13.695  12.187
   26ACC    C0420213  10.497  13.572  12.232
   26ACC    C0520214  10.608  13.466  12.250
   26ACC    N0620215  10.562  13.328  12.287
   26ACC    C0720216  10.487  13.328  12.416
   26ACC    C0820217  10.477  13.269  12.179
   26ACC    C0920218  10.683  13.242  12.304
   26ACC    H0A20219  10.659  13.860  11.920
   26ACC    H0B20220  10.724  13.872  12.084
   26ACC    H0C20221  10.559  13.925  12.051
   26ACC    H0D20222  10.419  13.540  12.162
   26ACC    H0E20223  10.446  13.593  12.327
   26ACC    H0F20224  10.678  13.504  12.326
   26ACC    H0G20225  10.667  13.461  12.158
   26ACC    H0H20226  10.393  13.382  12.410
   26ACC    H0I20227  10.545  13.372  12.497
   26ACC    H0J20228  10.462  13.226  12.448
   26ACC    H0K20229  10.381  13.319  12.169
   26ACC    H0M20230  10.454  13.164  12.199
   26ACC    H0N20231  10.526  13.273  12.082
   26ACC    H0O20232  10.749  13.278  12.383
   26ACC    H0P20233  10.743  13.237  12.213
   26ACC    H0Q20234  10.658  13.139  12.330
   27ACC    C0020235  16.302  10.858  15.292
   27ACC    C0120236  16.419  10.932  15.356
   27ACC    O0220237  16.444  10.922  15.476
   27ACC    O0320238  16.488  11.006  15.268
   27ACC    C0420239  16.594  11.090  15.311
   27ACC    C0520240  16.722  11.007  15.342
   27ACC    N0620241  16.838  11.085  15.397
   27ACC    C0720242  16.887  11.187  15.299
   27ACC    C0820243  16.804  11.151  15.526
   27ACC    C0920244  16.950  10.989  15.422
   27ACC    H0A20245  16.244  10.806  15.368
   27ACC    H0B20246  16.339  10.785  15.220
   27ACC    H0C20247  16.237  10.928  15.240
   27ACC    H0D20248  16.559  11.147  15.397
   27ACC    H0E20249  16.613  11.162  15.231
   27ACC    H0F20250  16.751  10.955  15.250
   27ACC    H0G20251  16.695  10.928  15.412
   27ACC    H0H20252  16.814  11.265  15.280
   27ACC    H0I20253  16.913  11.142  15.203
   27ACC    H0J20254  16.978  11.237  15.335
   27ACC    H0K20255  16.732  11.232  15.515
   27ACC    H0M20256  16.892  11.196  15.574
   27ACC    H0N20257  16.762  11.081  15.598
   27ACC    H0O20258  16.982  10.937  15.331
   27ACC    H0P20259  16.923  10.911  15.494
   27ACC    H0Q20260  17.039  11.038  15.462
   28ACC    C0020261  15.380  10.509  12.765
   28ACC    C0120262  15.233  10.546  12.784
   28ACC    O0220263  15.191  10.590  12.891
   28ACC    O0320264  15.160  10.526  12.674
   28ACC    C0420265  15.018  10.540  12.679
   28ACC    C0520266  14.978  10.689  12.680
   28ACC    N0620267  14.832  10.717  12.701
   28ACC    C0720268  14.750  10.658  12.592
   28ACC    C0820269  14.786  10.666  12.833
   28ACC    C0920270  14.814  10.865  12.699
   28ACC    H0A20271  15.435  10.519  12.858
   28ACC    H0B20272  15.426  10.573  12.690
   28ACC    H0C20273  15.388  10.405  12.731
   28ACC    H0D20274  14.983  10.485  12.767
   28ACC    H0E20275  14.978  10.488  12.592
   28ACC    H0F20276  15.014  10.733  12.586
   28ACC    H0G20277  15.036  10.740  12.758
   28ACC    H0H20278  14.753  10.548  12.592
   28ACC    H0I20279  14.784  10.689  12.492
   28ACC    H0J20280  14.645  10.685  12.600
   28ACC    H0K20281  14.785  10.557  12.838
   28ACC    H0M20282  14.684  10.698  12.856
   28ACC    H0N20283  14.850  10.700  12.915
   28ACC    H0O20284  14.846  10.909  12.604
   28ACC    H0P20285  14.871  10.915  12.778
   28ACC    H0Q20286  14.709  10.894  12.713
   29ACC    C0020287   5.555   3.039  12.198
   29ACC    C0120288   5.478   3.131  12.292
   29ACC    O0220289   5.357   3.122  12.306
   29ACC    O0320290   5.558   3.218  12.356
   29ACC    C0420291   5.501   3.320  12.437
   29ACC    C0520292   5.455   3.264  12.574
   29ACC    N0620293   5.384   3.361  12.663
   29ACC    C0720294   5.470   3.478  12.698
   29ACC    C0820295   5.257   3.409  12.601
   29ACC    C0920296   5.348   3.290  12.790
   29ACC    H0A20297   5.486   2.975  12.143
   29ACC    H0B20298   5.624   2.977  12.254
   29ACC    H0C20299   5.611   3.098  12.125
   29ACC    H0D20300   5.419   3.365  12.381
   29ACC    H0E20301   5.577   3.397  12.449
   29ACC    H0F20302   5.542   3.223  12.625
   29ACC    H0G20303   5.389   3.178  12.556
   29ACC    H0H20304   5.493   3.540  12.611
   29ACC    H0I20305   5.565   3.447  12.742
   29ACC    H0J20306   5.422   3.544  12.771
   29ACC    H0K20307   5.273   3.473  12.514
   29ACC    H0M20308   5.197   3.470  12.670
   29ACC    H0N20309   5.192   3.327  12.569
   29ACC    H0O20310   5.437   3.253  12.843
   29ACC    H0P20311   5.283   3.204  12.773
   29ACC    H0Q20312   5.296   3.355  12.861
   30ACC    C0020313   7.187  14.367   2.370
   30ACC    C0120314   7.088  14.438   2.462
   30ACC    O0220315   6.983  14.485   2.419
   30ACC    O0320316   7.129  14.441   2.590
   30ACC    C0420317   7.051  14.510   2.687
   30ACC    C0520318   6.929  14.423   2.728
   30ACC    N0620319   6.832  14.490   2.821
   30ACC    C0720320   6.896  14.531   2.949
   30ACC    C0820321   6.768  14.608   2.755
   30ACC    C0920322   6.724  14.391   2.852
   30ACC    H0A20323   7.151  14.367   2.267
   30ACC    H0B20324   7.200  14.263   2.401
   30ACC    H0C20325   7.283  14.417   2.373
   30ACC    H0D20326   7.023  14.606   2.645
   30ACC    H0E20327   7.117  14.530   2.772
   30ACC    H0F20328   6.968  14.331   2.773
   30ACC    H0G20329   6.877  14.391   2.638
   30ACC    H0H20330   6.971  14.610   2.935
   30ACC    H0I20331   6.947  14.448   2.998
   30ACC    H0J20332   6.824  14.571   3.020
   30ACC    H0K20333   6.838  14.690   2.739
   30ACC    H0M20334   6.687  14.650   2.815
   30ACC    H0N20335   6.726  14.583   2.658
   30ACC    H0O20336   6.764  14.301   2.901
   30ACC    H0P20337   6.672  14.357   2.763
   30ACC    H0Q20338   6.648  14.432   2.919
   31ACC    C0020339  15.123   6.683   5.072
   31ACC    C0120340  14.978   6.650   5.042
   31ACC    O0220341  14.944   6.595   4.938
   31ACC    O0320342  14.894   6.685   5.141
   31ACC    C0420343  14.755   6.663   5.127
   31ACC    C0520344  14.722   6.514   5.154
   31ACC    N0620345  14.580   6.472   5.128
   31ACC    C0720346  14.484   6.552   5.210
   31ACC    C0820347  14.547   6.485   4.983
   31ACC    C0920348  14.567   6.329   5.167
   31ACC    H0A20349  15.187   6.650   4.991
   31ACC    H0B20350  15.155   6.634   5.164
   31ACC    H0C20351  15.135   6.791   5.084
   31ACC    H0D20352  14.725   6.695   5.027
   31ACC    H0E20353  14.704   6.729   5.198
   31ACC    H0F20354  14.750   6.492   5.258
   31ACC    H0G20355  14.789   6.452   5.094
   31ACC    H0H20356  14.482   6.657   5.182
   31ACC    H0I20357  14.508   6.548   5.317
   31ACC    H0J20358  14.382   6.515   5.199
   31ACC    H0K20359  14.544   6.588   4.949
   31ACC    H0M20360  14.449   6.443   4.960
   31ACC    H0N20361  14.619   6.433   4.920
   31ACC    H0O20362  14.590   6.312   5.272
   31ACC    H0P20363  14.635   6.264   5.110
   31ACC    H0Q20364  14.466   6.290   5.150
   32ACC    C0020365   3.585   3.473  11.307
   32ACC    C0120366   3.613   3.456  11.159
   32ACC    O0220367   3.721   3.416  11.117
   32ACC    O0320368   3.508   3.490  11.082
   32ACC    C0420369   3.516   3.480  10.941
   32ACC    C0520370   3.493   3.332  10.898
   32ACC    N0620371   3.511   3.304  10.752
   32ACC    C0720372   3.419   3.386  10.668
   32ACC    C0820373   3.652   3.328  10.710
   32ACC    C0920374   3.479   3.160  10.729
   32ACC    H0A20375   3.671   3.440  11.366
   32ACC    H0B20376   3.498   3.414  11.336
   32ACC    H0C20377   3.565   3.577  11.330
   32ACC    H0D20378   3.612   3.519  10.909
   32ACC    H0E20379   3.439   3.545  10.900
   32ACC    H0F20380   3.393   3.303  10.930
   32ACC    H0G20381   3.560   3.268  10.956
   32ACC    H0H20382   3.440   3.493  10.674
   32ACC    H0I20383   3.314   3.373  10.698
   32ACC    H0J20384   3.424   3.359  10.562
   32ACC    H0K20385   3.681   3.433  10.714
   32ACC    H0M20386   3.670   3.296  10.607
   32ACC    H0N20387   3.723   3.273  10.773
   32ACC    H0O20388   3.377   3.135  10.757
   32ACC    H0P20389   3.543   3.093  10.788
   32ACC    H0Q20390   3.491   3.130  10.625
   33ACC    C0020391   7.154   2.908  12.744
   33ACC    C0120392   7.279   2.871  12.666
   33ACC    O0220393   7.274   2.830  12.550
   33ACC    O0320394   7.392   2.889  12.737
   33ACC    C0420395   7.517   2.849  12.683
   33ACC    C0520396   7.568   2.955  12.581
   33ACC    N0620397   7.696   2.921  12.510
   33ACC    C0720398   7.809   2.904  12.606
   33ACC    C0820399   7.681   2.798  12.428
   33ACC    C0920400   7.729   3.034  12.419
   33ACC    H0A20401   7.065   2.888  12.684
   33ACC    H0B20402   7.156   3.014  12.770
   33ACC    H0C20403   7.148   2.849  12.835
   33ACC    H0D20404   7.507   2.750  12.639
   33ACC    H0E20405   7.586   2.839  12.767
   33ACC    H0F20406   7.578   3.050  12.634
   33ACC    H0G20407   7.489   2.972  12.507
   33ACC    H0H20408   7.796   2.817  12.671
   33ACC    H0I20409   7.821   2.991  12.671
   33ACC    H0J20410   7.904   2.889  12.555
   33ACC    H0K20411   7.668   2.707  12.488
   33ACC    H0M20412   7.768   2.779  12.365
   33ACC    H0N20413   7.594   2.803  12.361
   33ACC    H0O20414   7.743   3.128  12.473
   33ACC    H0P20415   7.650   3.052  12.345
   33ACC    H0Q20416   7.821   3.017  12.363
   34ACC    C0020417   5.195  11.684  16.024
   34ACC    C0120418   5.322  11.764  16.049
   34ACC    O0220419   5.395  11.801  15.957
   34ACC    O0320420   5.344  11.789  16.179
   34ACC    C0420421   5.461  11.859  16.219
   34ACC    C0520422   5.443  12.011  16.193
   34ACC    N0620423   5.565  12.096  16.215
   34ACC    C0720424   5.616  12.084  16.354
   34ACC    C0820425   5.672  12.060  16.117
   34ACC    C0920426   5.526  12.238  16.191
   34ACC    H0A20427   5.180  11.669  15.917
   34ACC    H0B20428   5.109  11.737  16.064
   34ACC    H0C20429   5.202  11.587  16.072
   34ACC    H0D20430   5.546  11.817  16.165
   34ACC    H0E20431   5.477  11.838  16.324
   34ACC    H0F20432   5.360  12.045  16.257
   34ACC    H0G20433   5.406  12.025  16.091
   34ACC    H0H20434   5.654  11.984  16.377
   34ACC    H0I20435   5.539  12.106  16.429
   34ACC    H0J20436   5.699  12.152  16.374
   34ACC    H0K20437   5.714  11.961  16.135
   34ACC    H0M20438   5.756  12.130  16.122
   34ACC    H0N20439   5.635  12.061  16.014
   34ACC    H0O20440   5.448  12.271  16.260
   34ACC    H0P20441   5.488  12.254  16.090
   34ACC    H0Q20442   5.610  12.307  16.204
   35ACC    C0020443   6.973   3.251   1.897
   35ACC    C0120444   6.903   3.292   2.025
   35ACC    O0220445   6.812   3.225   2.074
   35ACC    O0320446   6.951   3.406   2.076
   35ACC    C0420447   6.900   3.457   2.198
   35ACC    C0520448   6.960   3.380   2.318
   35ACC    N0620449   6.902   3.415   2.452
   35ACC    C0720450   6.923   3.559   2.484
   35ACC    C0820451   6.757   3.381   2.460
   35ACC    C0920452   6.975   3.334   2.554
   35ACC    H0A20453   6.932   3.157   1.860
   35ACC    H0B20454   7.080   3.239   1.915
   35ACC    H0C20455   6.959   3.328   1.821
   35ACC    H0D20456   6.791   3.453   2.194
   35ACC    H0E20457   6.927   3.563   2.202
   35ACC    H0F20458   7.068   3.395   2.317
   35ACC    H0G20459   6.947   3.273   2.300
   35ACC    H0H20460   6.866   3.625   2.418
   35ACC    H0I20461   7.028   3.587   2.476
   35ACC    H0J20462   6.891   3.583   2.586
   35ACC    H0K20463   6.695   3.443   2.395
   35ACC    H0M20464   6.717   3.393   2.561
   35ACC    H0N20465   6.738   3.277   2.431
   35ACC    H0O20466   7.083   3.354   2.553
   35ACC    H0P20467   6.964   3.226   2.538
   35ACC    H0Q20468   6.940   3.353   2.656
   36ACC    C0020469  15.659   2.359   4.731
   36ACC    C0120470  15.790   2.378   4.658
   36ACC    O0220471  15.795   2.431   4.547
   36ACC    O0320472  15.896   2.334   4.727
   36ACC    C0420473  16.025   2.334   4.667
   36ACC    C0520474  16.085   2.478   4.665
   36ACC    N0620475  16.218   2.491   4.597
   36ACC    C0720476  16.321   2.406   4.663
   36ACC    C0820477  16.209   2.453   4.452
   36ACC    C0920478  16.262   2.633   4.606
   36ACC    H0A20479  15.576   2.392   4.668
   36ACC    H0B20480  15.658   2.416   4.823
   36ACC    H0C20481  15.644   2.254   4.754
   36ACC    H0D20482  16.016   2.291   4.567
   36ACC    H0E20483  16.088   2.266   4.725
   36ACC    H0F20484  16.092   2.512   4.768
   36ACC    H0G20485  16.013   2.545   4.617
   36ACC    H0H20486  16.299   2.300   4.652
   36ACC    H0I20487  16.331   2.425   4.769
   36ACC    H0J20488  16.420   2.419   4.619
   36ACC    H0K20489  16.191   2.347   4.438
   36ACC    H0M20490  16.303   2.474   4.400
   36ACC    H0N20491  16.130   2.507   4.400
   36ACC    H0O20492  16.272   2.666   4.710
   36ACC    H0P20493  16.192   2.701   4.558
   36ACC    H0Q20494  16.359   2.649   4.559
   37ACC    C0020495   3.220  16.041   2.145
   37ACC    C0120496   3.136  15.917   2.123
   37ACC    O0220497   3.032  15.920   2.058
   37ACC    O0320498   3.189  15.806   2.178
   37ACC    C0420499   3.117  15.684   2.174
   37ACC    C0520500   3.129  15.619   2.033
   37ACC    N0620501   3.047  15.496   2.011
   37ACC    C0720502   3.081  15.389   2.108
   37ACC    C0820503   2.901  15.527   2.019
   37ACC    C0920504   3.075  15.447   1.873
   37ACC    H0A20505   3.172  16.128   2.100
   37ACC    H0B20506   3.319  16.030   2.101
   37ACC    H0C20507   3.231  16.061   2.252
   37ACC    H0D20508   3.014  15.705   2.202
   37ACC    H0E20509   3.158  15.619   2.251
   37ACC    H0F20510   3.235  15.599   2.015
   37ACC    H0G20511   3.103  15.694   1.958
   37ACC    H0H20512   3.055  15.414   2.211
   37ACC    H0I20513   3.188  15.366   2.108
   37ACC    H0J20514   3.029  15.295   2.086
   37ACC    H0K20515   2.869  15.555   2.120
   37ACC    H0M20516   2.839  15.442   1.990
   37ACC    H0N20517   2.872  15.611   1.954
   37ACC    H0O20518   3.180  15.421   1.859
   37ACC    H0P20519   3.050  15.521   1.797
   37ACC    H0Q20520   3.018  15.357   1.849
   38ACC    C0020521  15.826  12.017   9.118
   38ACC    C0120522  15.707  12.007   9.023
   38ACC    O0220523  15.594  11.980   9.064
   38ACC    O0320524  15.740  12.032   8.895
   38ACC    C0420525  15.643  12.015   8.793
   38ACC    C0520526  15.546  12.136   8.790
   38ACC    N0620527  15.431  12.125   8.694
   38ACC    C0720528  15.479  12.111   8.553
   38ACC    C0820529  15.343  12.010   8.729
   38ACC    C0920530  15.351  12.250   8.703
   38ACC    H0A20531  15.796  11.993   9.219
   38ACC    H0B20532  15.867  12.118   9.117
   38ACC    H0C20533  15.905  11.948   9.087
   38ACC    H0D20534  15.592  11.920   8.809
   38ACC    H0E20535  15.698  12.006   8.699
   38ACC    H0F20536  15.605  12.226   8.769
   38ACC    H0G20537  15.507  12.151   8.891
   38ACC    H0H20538  15.532  12.017   8.536
   38ACC    H0I20539  15.547  12.192   8.525
   38ACC    H0J20540  15.397  12.113   8.481
   38ACC    H0K20541  15.391  11.913   8.713
   38ACC    H0M20542  15.252  12.009   8.669
   38ACC    H0N20543  15.312  12.013   8.834
   38ACC    H0O20544  15.410  12.339   8.678
   38ACC    H0P20545  15.312  12.267   8.804
   38ACC    H0Q20546  15.265  12.250   8.636
   39ACC    C0020547   9.749  15.763  10.591
   39ACC    C0120548   9.753  15.891  10.510
   39ACC    O0220549   9.841  15.912  10.426
   39ACC    O0320550   9.652  15.975  10.540
   39ACC    C0420551   9.645  16.103  10.479
   39ACC    C0520552   9.586  16.092  10.336
   39ACC    N0620553   9.580  16.220  10.259
   39ACC    C0720554   9.494  16.323  10.324
   39ACC    C0820555   9.716  16.276  10.237
   39ACC    C0920556   9.519  16.189  10.126
   39ACC    H0A20557   9.833  15.699  10.565
   39ACC    H0B20558   9.657  15.709  10.572
   39ACC    H0C20559   9.756  15.786  10.697
   39ACC    H0D20560   9.745  16.147  10.479
   39ACC    H0E20561   9.582  16.166  10.542
   39ACC    H0F20562   9.487  16.046  10.342
   39ACC    H0G20563   9.647  16.020  10.279
   39ACC    H0H20564   9.535  16.357  10.419
   39ACC    H0I20565   9.393  16.285  10.344
   39ACC    H0J20566   9.483  16.411  10.261
   39ACC    H0K20567   9.762  16.315  10.328
   39ACC    H0M20568   9.716  16.358  10.165
   39ACC    H0N20569   9.785  16.202  10.196
   39ACC    H0O20570   9.415  16.155  10.132
   39ACC    H0P20571   9.574  16.110  10.073
   39ACC    H0Q20572   9.521  16.275  10.058
   40ACC    C0020573   6.189   2.876   6.109
   40ACC    C0120574   6.052   2.935   6.134
   40ACC    O0220575   5.949   2.877   6.100
   40ACC    O0320576   6.057   3.054   6.197
   40ACC    C0420577   5.938   3.128   6.218
   40ACC    C0520578   5.856   3.067   6.335
   40ACC    N0620579   5.721   3.127   6.358
   40ACC    C0720580   5.730   3.273   6.387
   40ACC    C0820581   5.632   3.105   6.240
   40ACC    C0920582   5.660   3.058   6.475
   40ACC    H0A20583   6.180   2.783   6.053
   40ACC    H0B20584   6.240   2.855   6.203
   40ACC    H0C20585   6.250   2.945   6.051
   40ACC    H0D20586   5.882   3.130   6.124
   40ACC    H0E20587   5.966   3.232   6.239
   40ACC    H0F20588   5.917   3.076   6.425
   40ACC    H0G20589   5.846   2.960   6.318
   40ACC    H0H20590   5.766   3.332   6.302
   40ACC    H0I20591   5.798   3.295   6.470
   40ACC    H0J20592   5.634   3.317   6.413
   40ACC    H0K20593   5.663   3.164   6.153
   40ACC    H0M20594   5.529   3.135   6.260
   40ACC    H0N20595   5.630   3.001   6.208
   40ACC    H0O20596   5.720   3.070   6.565
   40ACC    H0P20597   5.649   2.950   6.458
   40ACC    H0Q20598   5.560   3.096   6.498
   41ACC    C0020599   0.776  11.387   3.283
   41ACC    C0120600   0.835  11.418   3.147
   41ACC    O0220601   0.883  11.529   3.121
   41ACC    O0320602   0.830  11.313   3.064
   41ACC    C0420603   0.868  11.328   2.927
   41ACC    C0520604   1.022  11.332   2.914
   41ACC    N0620605   1.073  11.359   2.776
   41ACC    C0720606   1.031  11.255   2.678
   41ACC    C0820607   1.026  11.492   2.729
   41ACC    C0920608   1.222  11.363   2.779
   41ACC    H0A20609   0.769  11.477   3.344
   41ACC    H0B20610   0.838  11.315   3.336
   41ACC    H0C20611   0.676  11.345   3.272
   41ACC    H0D20612   0.819  11.417   2.888
   41ACC    H0E20613   0.826  11.243   2.873
   41ACC    H0F20614   1.062  11.237   2.951
   41ACC    H0G20615   1.061  11.408   2.981
   41ACC    H0H20616   0.923  11.254   2.662
   41ACC    H0I20617   1.060  11.154   2.708
   41ACC    H0J20618   1.073  11.272   2.579
   41ACC    H0K20619   0.919  11.493   2.707
   41ACC    H0M20620   1.074  11.520   2.634
   41ACC    H0N20621   1.045  11.573   2.799
   41ACC    H0O20622   1.265  11.268   2.814
   41ACC    H0P20623   1.259  11.442   2.844
   41ACC    H0Q20624   1.264  11.381   2.680
   42ACC    C0020625   9.631   7.641   2.195
   42ACC    C0120626   9.757   7.639   2.112
   42ACC    O0220627   9.761   7.689   1.999
   42ACC    O0320628   9.861   7.580   2.174
   42ACC    C0420629   9.985   7.567   2.106
   42ACC    C0520630  10.062   7.701   2.110
   42ACC    N0620631  10.189   7.706   2.030
   42ACC    C0720632  10.285   7.601   2.074
   42ACC    C0820633  10.160   7.691   1.884
   42ACC    C0920634  10.251   7.840   2.051
   42ACC    H0A20635   9.551   7.692   2.142
   42ACC    H0B20636   9.648   7.692   2.290
   42ACC    H0C20637   9.598   7.539   2.217
   42ACC    H0D20638   9.965   7.532   2.005
   42ACC    H0E20639  10.041   7.488   2.156
   42ACC    H0F20640  10.082   7.726   2.214
   42ACC    H0G20641   9.995   7.781   2.075
   42ACC    H0H20642  10.250   7.500   2.053
   42ACC    H0I20643  10.305   7.607   2.181
   42ACC    H0J20644  10.382   7.611   2.023
   42ACC    H0K20645  10.123   7.592   1.857
   42ACC    H0M20646  10.249   7.707   1.822
   42ACC    H0N20647  10.085   7.763   1.849
   42ACC    H0O20648  10.276   7.858   2.156
   42ACC    H0P20649  10.186   7.922   2.019
   42ACC    H0Q20650  10.344   7.852   1.995
   43ACC    C0020651   6.621  10.658  16.594
   43ACC    C0120652   6.481  10.699  16.551
   43ACC    O0220653   6.400  10.747  16.630
   43ACC    O0320654   6.457  10.678  16.420
   43ACC    C0420655   6.326  10.698  16.369
   43ACC    C0520656   6.296  10.849  16.353
   43ACC    N0620657   6.154  10.884  16.319
   43ACC    C0720658   6.111  10.821  16.191
   43ACC    C0820659   6.062  10.844  16.430
   43ACC    C0920660   6.147  11.032  16.304
   43ACC    H0A20661   6.633  10.673  16.701
   43ACC    H0B20662   6.697  10.717  16.543
   43ACC    H0C20663   6.638  10.552  16.573
   43ACC    H0D20664   6.257  10.648  16.438
   43ACC    H0E20665   6.318  10.645  16.275
   43ACC    H0F20666   6.365  10.888  16.277
   43ACC    H0G20667   6.324  10.900  16.445
   43ACC    H0H20668   6.106  10.712  16.198
   43ACC    H0I20669   6.178  10.844  16.109
   43ACC    H0J20670   6.011  10.854  16.161
   43ACC    H0K20671   6.052  10.736  16.441
   43ACC    H0M20672   5.960  10.882  16.415
   43ACC    H0N20673   6.095  10.882  16.527
   43ACC    H0O20674   6.212  11.069  16.225
   43ACC    H0P20675   6.176  11.084  16.396
   43ACC    H0Q20676   6.046  11.067  16.280
   44ACC    C0020677  13.648  10.418   2.456
   44ACC    C0120678  13.596  10.531   2.543
   44ACC    O0220679  13.586  10.519   2.665
   44ACC    O0320680  13.564  10.642   2.474
   44ACC    C0420681  13.504  10.751   2.540
   44ACC    C0520682  13.610  10.831   2.620
   44ACC    N0620683  13.558  10.942   2.706
   44ACC    C0720684  13.485  11.044   2.624
   44ACC    C0820685  13.468  10.890   2.813
   44ACC    C0920686  13.674  11.009   2.771
   44ACC    H0A20687  13.670  10.330   2.517
   44ACC    H0B20688  13.739  10.448   2.405
   44ACC    H0C20689  13.574  10.390   2.381
   44ACC    H0D20690  13.424  10.713   2.604
   44ACC    H0E20691  13.456  10.813   2.464
   44ACC    H0F20692  13.684  10.868   2.549
   44ACC    H0G20693  13.665  10.761   2.683
   44ACC    H0H20694  13.392  11.004   2.581
   44ACC    H0I20695  13.545  11.081   2.541
   44ACC    H0J20696  13.455  11.131   2.684
   44ACC    H0K20697  13.375  10.849   2.774
   44ACC    H0M20698  13.439  10.968   2.884
   44ACC    H0N20699  13.516  10.810   2.871
   44ACC    H0O20700  13.745  11.050   2.699
   44ACC    H0P20701  13.731  10.939   2.834
   44ACC    H0Q20702  13.644  11.091   2.836
   45ACC    C0020703  15.321  11.137   4.929
   45ACC    C0120704  15.207  11.232   4.897
   45ACC    O0220705  15.226  11.351   4.873
   45ACC    O0320706  15.086  11.172   4.899
   45ACC    C0420707  14.969  11.250   4.879
   45ACC    C0520708  14.952  11.284   4.729
   45ACC    N0620709  14.841  11.380   4.696
   45ACC    C0720710  14.708  11.327   4.741
   45ACC    C0820711  14.866  11.514   4.757
   45ACC    C0920712  14.837  11.396   4.547
   45ACC    H0A20713  15.416  11.191   4.928
   45ACC    H0B20714  15.325  11.057   4.855
   45ACC    H0C20715  15.308  11.094   5.028
   45ACC    H0D20716  14.977  11.339   4.942
   45ACC    H0E20717  14.885  11.193   4.917
   45ACC    H0F20718  14.939  11.190   4.674
   45ACC    H0G20719  15.046  11.326   4.691
   45ACC    H0H20720  14.700  11.321   4.849
   45ACC    H0I20721  14.688  11.227   4.701
   45ACC    H0J20722  14.626  11.391   4.708
   45ACC    H0K20723  14.859  11.513   4.866
   45ACC    H0M20724  14.793  11.589   4.723
   45ACC    H0N20725  14.965  11.553   4.732
   45ACC    H0O20726  14.819  11.302   4.496
   45ACC    H0P20727  14.932  11.436   4.508
   45ACC    H0Q20728  14.759  11.465   4.515
   46ACC    C0020729   4.200  14.460  13.827
   46ACC    C0120730   4.128  14.482  13.959
   46ACC    O0220731   4.187  14.521  14.060
   46ACC    O0320732   3.997  14.456  13.953
   46ACC    C0420733   3.915  14.471  14.068
   46ACC    C0520734   3.881  14.621  14.088
   46ACC    N0620735   3.809  14.655  14.216
   46ACC    C0720736   3.681  14.579  14.228
   46ACC    C0820737   3.897  14.628  14.334
   46ACC    C0920738   3.778  14.801  14.213
   46ACC    H0A20739   4.305  14.488  13.835
   46ACC    H0B20740   4.154  14.519  13.748
   46ACC    H0C20741   4.194  14.355  13.798
   46ACC    H0D20742   3.968  14.427  14.153
   46ACC    H0E20743   3.826  14.412  14.051
   46ACC    H0F20744   3.822  14.653  14.001
   46ACC    H0G20745   3.973  14.679  14.082
   46ACC    H0H20746   3.696  14.472  14.238
   46ACC    H0I20747   3.616  14.595  14.142
   46ACC    H0J20748   3.624  14.610  14.316
   46ACC    H0K20749   3.916  14.522  14.348
   46ACC    H0M20750   3.852  14.664  14.427
   46ACC    H0N20751   3.994  14.677  14.324
   46ACC    H0O20752   3.713  14.828  14.129
   46ACC    H0P20753   3.868  14.862  14.204
   46ACC    H0Q20754   3.726  14.834  14.304
   47ACC    C0020755  11.552   8.582   5.226
   47ACC    C0120756  11.443   8.689   5.217
   47ACC    O0220757  11.418   8.746   5.111
   47ACC    O0320758  11.381   8.710   5.334
   47ACC    C0420759  11.287   8.815   5.347
   47ACC    C0520760  11.151   8.775   5.284
   47ACC    N0620761  11.045   8.882   5.283
   47ACC    C0720762  11.010   8.925   5.421
   47ACC    C0820763  11.088   9.000   5.203
   47ACC    C0920764  10.923   8.825   5.219
   47ACC    H0A20765  11.604   8.573   5.131
   47ACC    H0B20766  11.508   8.486   5.252
   47ACC    H0C20767  11.624   8.610   5.303
   47ACC    H0D20768  11.329   8.905   5.301
   47ACC    H0E20769  11.276   8.836   5.453
   47ACC    H0F20770  11.115   8.686   5.336
   47ACC    H0G20771  11.169   8.742   5.181
   47ACC    H0H20772  11.092   8.977   5.472
   47ACC    H0I20773  10.980   8.842   5.485
   47ACC    H0J20774  10.926   8.996   5.422
   47ACC    H0K20775  11.170   9.056   5.250
   47ACC    H0M20776  11.007   9.073   5.190
   47ACC    H0N20777  11.122   8.973   5.103
   47ACC    H0O20778  10.885   8.738   5.273
   47ACC    H0P20779  10.942   8.792   5.116
   47ACC    H0Q20780  10.841   8.897   5.215
   48ACC    C0020781  11.283  13.036  10.288
   48ACC    C0120782  11.250  12.898  10.341
   48ACC    O0220783  11.273  12.865  10.457
   48ACC    O0320784  11.193  12.819  10.248
   48ACC    C0420785  11.164  12.683  10.277
   48ACC    C0520786  11.036  12.672  10.363
   48ACC    N0620787  10.999  12.534  10.407
   48ACC    C0720788  10.972  12.445  10.290
   48ACC    C0820789  11.105  12.474  10.493
   48ACC    C0920790  10.874  12.543  10.488
   48ACC    H0A20791  11.335  13.094  10.365
   48ACC    H0B20792  11.192  13.088  10.259
   48ACC    H0C20793  11.348  13.027  10.201
   48ACC    H0D20794  11.252  12.639  10.325
   48ACC    H0E20795  11.152  12.632  10.181
   48ACC    H0F20796  10.954  12.718  10.306
   48ACC    H0G20797  11.048  12.736  10.451
   48ACC    H0H20798  11.061  12.426  10.230
   48ACC    H0I20799  10.897  12.487  10.223
   48ACC    H0J20800  10.935  12.347  10.321
   48ACC    H0K20801  11.197  12.452  10.437
   48ACC    H0M20802  11.074  12.379  10.537
   48ACC    H0N20803  11.134  12.539  10.575
   48ACC    H0O20804  10.791  12.586  10.431
   48ACC    H0P20805  10.887  12.606  10.577
   48ACC    H0Q20806  10.840  12.446  10.524
   49ACC    C0020807   3.022  14.925   7.579
   49ACC    C0120808   3.074  15.061   7.535
   49ACC    O0220809   3.186  15.101   7.568
   49ACC    O0320810   2.987  15.128   7.458
   49ACC    C0420811   3.023  15.257   7.408
   49ACC    C0520812   3.116  15.241   7.285
   49ACC    N0620813   3.174  15.369   7.231
   49ACC    C0720814   3.067  15.466   7.193
   49ACC    C0820815   3.267  15.431   7.330
   49ACC    C0920816   3.253  15.335   7.109
   49ACC    H0A20817   3.098  14.871   7.635
   49ACC    H0B20818   2.994  14.865   7.492
   49ACC    H0C20819   2.934  14.937   7.642
   49ACC    H0D20820   3.068  15.314   7.489
   49ACC    H0E20821   2.930  15.308   7.382
   49ACC    H0F20822   3.060  15.188   7.208
   49ACC    H0G20823   3.198  15.173   7.312
   49ACC    H0H20824   3.011  15.502   7.279
   49ACC    H0I20825   2.995  15.422   7.123
   49ACC    H0J20826   3.109  15.554   7.144
   49ACC    H0K20827   3.216  15.468   7.419
   49ACC    H0M20828   3.320  15.517   7.288
   49ACC    H0N20829   3.343  15.361   7.364
   49ACC    H0O20830   3.191  15.289   7.031
   49ACC    H0P20831   3.334  15.264   7.130
   49ACC    H0Q20832   3.300  15.422   7.064
   50ACC    C0020833   9.966   9.444  14.791
   50ACC    C0120834   9.839   9.412  14.715
   50ACC    O0220835   9.736   9.477  14.731
   50ACC    O0320836   9.852   9.308  14.630
   50ACC    C0420837   9.739   9.261  14.558
   50ACC    C0520838   9.710   9.355  14.438
   50ACC    N0620839   9.583   9.326  14.363
   50ACC    C0720840   9.584   9.188  14.307
   50ACC    C0820841   9.463   9.346  14.450
   50ACC    C0920842   9.575   9.423  14.250
   50ACC    H0A20843   9.951   9.528  14.858
   50ACC    H0B20844  10.047   9.470  14.722
   50ACC    H0C20845   9.998   9.358  14.850
   50ACC    H0D20846   9.656   9.254  14.628
   50ACC    H0E20847   9.762   9.160  14.525
   50ACC    H0F20848   9.796   9.352  14.372
   50ACC    H0G20849   9.707   9.458  14.475
   50ACC    H0H20850   9.581   9.111  14.384
   50ACC    H0I20851   9.672   9.169  14.245
   50ACC    H0J20852   9.497   9.169  14.243
   50ACC    H0K20853   9.456   9.271  14.529
   50ACC    H0M20854   9.370   9.339  14.393
   50ACC    H0N20855   9.464   9.444  14.499
   50ACC    H0O20856   9.660   9.415  14.181
   50ACC    H0P20857   9.573   9.527  14.284
   50ACC    H0Q20858   9.485   9.409  14.189
   51ACC    C0020859  10.798  10.909   6.468
   51ACC    C0120860  10.812  10.830   6.597
   51ACC    O0220861  10.920  10.819   6.654
   51ACC    O0320862  10.696  10.776   6.639
   51ACC    C0420863  10.696  10.685   6.749
   51ACC    C0520864  10.714  10.760   6.883
   51ACC    N0620865  10.725  10.672   7.004
   51ACC    C0720866  10.602  10.589   7.023
   51ACC    C0820867  10.844  10.582   6.997
   51ACC    C0920868  10.741  10.759   7.124
   51ACC    H0A20869  10.896  10.940   6.433
   51ACC    H0B20870  10.736  10.997   6.484
   51ACC    H0C20871  10.752  10.847   6.391
   51ACC    H0D20872  10.775  10.612   6.731
   51ACC    H0E20873  10.601  10.631   6.746
   51ACC    H0F20874  10.630  10.829   6.895
   51ACC    H0G20875  10.803  10.822   6.878
   51ACC    H0H20876  10.587  10.514   6.946
   51ACC    H0I20877  10.510  10.647   7.027
   51ACC    H0J20878  10.605  10.532   7.117
   51ACC    H0K20879  10.834  10.505   6.919
   51ACC    H0M20880  10.860  10.527   7.090
   51ACC    H0N20881  10.936  10.636   6.976
   51ACC    H0O20882  10.656  10.827   7.137
   51ACC    H0P20883  10.831  10.820   7.118
   51ACC    H0Q20884  10.748  10.701   7.216
   52ACC    C0020885   1.202   1.872  14.675
   52ACC    C0120886   1.308   1.978  14.694
   52ACC    O0220887   1.348   2.048  14.600
   52ACC    O0320888   1.353   1.986  14.820
   52ACC    C0420889   1.458   2.077  14.853
   52ACC    C0520890   1.402   2.221  14.868
   52ACC    N0620891   1.505   2.329  14.887
   52ACC    C0720892   1.589   2.303  15.008
   52ACC    C0820893   1.591   2.343  14.766
   52ACC    C0920894   1.432   2.458  14.907
   52ACC    H0A20895   1.165   1.871  14.572
   52ACC    H0B20896   1.117   1.890  14.741
   52ACC    H0C20897   1.242   1.773  14.697
   52ACC    H0D20898   1.535   2.069  14.775
   52ACC    H0E20899   1.503   2.042  14.945
   52ACC    H0F20900   1.331   2.220  14.951
   52ACC    H0G20901   1.342   2.244  14.779
   52ACC    H0H20902   1.652   2.214  14.997
   52ACC    H0I20903   1.529   2.289  15.098
   52ACC    H0J20904   1.657   2.386  15.028
   52ACC    H0K20905   1.655   2.256  14.749
   52ACC    H0M20906   1.658   2.429  14.774
   52ACC    H0N20907   1.532   2.356  14.675
   52ACC    H0O20908   1.367   2.456  14.995
   52ACC    H0P20909   1.368   2.483  14.822
   52ACC    H0Q20910   1.500   2.542  14.921
   53ACC    C0020911   0.291   3.765   0.682
   53ACC    C0120912   0.350   3.678   0.792
   53ACC    O0220913   0.293   3.577   0.832
   53ACC    O0320914   0.468   3.724   0.838
   53ACC    C0420915   0.533   3.657   0.945
   53ACC    C0520916   0.605   3.529   0.893
   53ACC    N0620917   0.668   3.443   0.999
   53ACC    C0720918   0.770   3.518   1.078
   53ACC    C0820919   0.565   3.386   1.090
   53ACC    C0920920   0.737   3.329   0.930
   53ACC    H0A20921   0.196   3.723   0.648
   53ACC    H0B20922   0.359   3.770   0.597
   53ACC    H0C20923   0.273   3.866   0.719
   53ACC    H0D20924   0.459   3.635   1.022
   53ACC    H0E20925   0.604   3.727   0.988
   53ACC    H0F20926   0.680   3.560   0.820
   53ACC    H0G20927   0.533   3.469   0.837
   53ACC    H0H20928   0.726   3.598   1.138
   53ACC    H0I20929   0.845   3.565   1.014
   53ACC    H0J20930   0.824   3.453   1.147
   53ACC    H0K20931   0.517   3.461   1.152
   53ACC    H0M20932   0.608   3.313   1.160
   53ACC    H0N20933   0.486   3.334   1.036
   53ACC    H0O20934   0.815   3.363   0.862
   53ACC    H0P20935   0.668   3.268   0.871
   53ACC    H0Q20936   0.785   3.261   1.001
   54ACC    C0020937   4.143   1.500   1.016
   54ACC    C0120938   4.153   1.648   0.985
   54ACC    O0220939   4.208   1.727   1.062
   54ACC    O0320940   4.099   1.681   0.867
   54ACC    C0420941   4.085   1.818   0.831
   54ACC    C0520942   4.221   1.877   0.786
   54ACC    N0620943   4.221   2.024   0.756
   54ACC    C0720944   4.129   2.057   0.644
   54ACC    C0820945   4.185   2.104   0.877
   54ACC    C0920946   4.360   2.062   0.715
   54ACC    H0A20947   4.179   1.480   1.117
   54ACC    H0B20948   4.201   1.442   0.945
   54ACC    H0C20949   4.039   1.468   1.010
   54ACC    H0D20950   4.042   1.871   0.916
   54ACC    H0E20951   4.011   1.823   0.751
   54ACC    H0F20952   4.255   1.820   0.699
   54ACC    H0G20953   4.295   1.857   0.864
   54ACC    H0H20954   4.024   2.040   0.669
   54ACC    H0I20955   4.149   1.998   0.554
   54ACC    H0J20956   4.135   2.162   0.614
   54ACC    H0K20957   4.080   2.091   0.906
   54ACC    H0M20958   4.198   2.211   0.861
   54ACC    H0N20959   4.245   2.077   0.964
   54ACC    H0O20960   4.393   2.008   0.626
   54ACC    H0P20961   4.433   2.042   0.794
   54ACC    H0Q20962   4.368   2.169   0.691
   55ACC    C0020963  14.710  10.760  14.273
   55ACC    C0120964  14.559  10.747  14.276
   55ACC    O0220965  14.490  10.757  14.175
   55ACC    O0320966  14.510  10.724  14.400
   55ACC    C0420967  14.371  10.708  14.418
   55ACC    C0520968  14.329  10.565  14.375
   55ACC    N0620969  14.181  10.537  14.374
   55ACC    C0720970  14.121  10.562  14.508
   55ACC    C0820971  14.112  10.620  14.271
   55ACC    C0920972  14.162  10.394  14.339
   55ACC    H0A20973  14.745  10.772  14.170
   55ACC    H0B20974  14.757  10.670  14.314
   55ACC    H0C20975  14.743  10.846  14.331
   55ACC    H0D20976  14.319  10.786  14.362
   55ACC    H0E20977  14.350  10.725  14.523
   55ACC    H0F20978  14.381  10.494  14.440
   55ACC    H0G20979  14.369  10.545  14.275
   55ACC    H0H20980  14.124  10.667  14.537
   55ACC    H0I20981  14.172  10.506  14.587
   55ACC    H0J20982  14.016  10.533  14.511
   55ACC    H0K20983  14.114  10.727  14.293
   55ACC    H0M20984  14.007  10.593  14.259
   55ACC    H0N20985  14.158  10.609  14.172
   55ACC    H0O20986  14.210  10.326  14.410
   55ACC    H0P20987  14.205  10.369  14.241
   55ACC    H0Q20988  14.057  10.365  14.334
   56ACC    C0020989   3.464  14.180  14.435
   56ACC    C0120990   3.343  14.222  14.353
   56ACC    O0220991   3.300  14.337  14.358
   56ACC    O0320992   3.293  14.122  14.279
   56ACC    C0420993   3.167  14.135  14.214
   56ACC    C0520994   3.176  14.224  14.087
   56ACC    N0620995   3.046  14.245  14.014
   56ACC    C0720996   2.991  14.117  13.962
   56ACC    C0820997   2.945  14.312  14.101
   56ACC    C0920998   3.072  14.334  13.897
   56ACC    H0A20999   3.492  14.258  14.505
   56ACC    H0B21000   3.548  14.158  14.369
   56ACC    H0C21001   3.440  14.090  14.491
   56ACC    H0D21002   3.096  14.174  14.287
   56ACC    H0E21003   3.134  14.034  14.190
   56ACC    H0F21004   3.249  14.180  14.020
   56ACC    H0G21005   3.217  14.321  14.115
   56ACC    H0H21006   2.960  14.048  14.042
   56ACC    H0I21007   3.063  14.063  13.900
   56ACC    H0J21008   2.902  14.133  13.901
   56ACC    H0K21009   2.910  14.248  14.183
   56ACC    H0M21010   2.855  14.340  14.045
   56ACC    H0N21011   2.984  14.404  14.146
   56ACC    H0O21012   3.145  14.292  13.827
   56ACC    H0P21013   3.111  14.432  13.926
   56ACC    H0Q21014   2.982  14.354  13.838
   57ACC    C0021015   6.022   1.064   4.506
   57ACC    C0121016   6.092   1.163   4.415
   57ACC    O0221017   6.094   1.283   4.439
   57ACC    O0321018   6.149   1.104   4.309
   57ACC    C0421019   6.213   1.184   4.210
   57ACC    C0521020   6.354   1.228   4.257
   57ACC    N0621021   6.431   1.309   4.157
   57ACC    C0721022   6.443   1.234   4.028
   57ACC    C0821023   6.368   1.442   4.134
   57ACC    C0921024   6.568   1.334   4.209
   57ACC    H0A21025   5.980   1.115   4.592
   57ACC    H0B21026   6.093   0.989   4.541
   57ACC    H0C21027   5.942   1.013   4.452
   57ACC    H0D21028   6.149   1.269   4.186
   57ACC    H0E21029   6.217   1.122   4.120
   57ACC    H0F21030   6.410   1.138   4.283
   57ACC    H0G21031   6.344   1.284   4.350
   57ACC    H0H21032   6.350   1.232   3.972
   57ACC    H0I21033   6.476   1.131   4.043
   57ACC    H0J21034   6.516   1.278   3.962
   57ACC    H0K21035   6.270   1.436   4.086
   57ACC    H0M21036   6.429   1.505   4.068
   57ACC    H0N21037   6.355   1.498   4.227
   57ACC    H0O21038   6.625   1.242   4.223
   57ACC    H0P21039   6.568   1.387   4.304
   57ACC    H0Q21040   6.627   1.396   4.140
   58ACC    C0021041   8.480  16.368  13.421
   58ACC    C0121042   8.330  16.379  13.397
   58ACC    O0221043   8.249  16.322  13.469
   58ACC    O0321044   8.300  16.457  13.292
   58ACC    C0421045   8.164  16.473  13.253
   58ACC    C0521046   8.093  16.574  13.348
   58ACC    N0621047   7.946  16.589  13.327
   58ACC    C0721048   7.914  16.636  13.189
   58ACC    C0821049   7.874  16.462  13.356
   58ACC    C0921050   7.897  16.693  13.424
   58ACC    H0A21051   8.500  16.304  13.507
   58ACC    H0B21052   8.523  16.466  13.440
   58ACC    H0C21053   8.529  16.325  13.334
   58ACC    H0D21054   8.117  16.375  13.253
   58ACC    H0E21055   8.164  16.509  13.150
   58ACC    H0F21056   8.144  16.670  13.338
   58ACC    H0G21057   8.112  16.543  13.451
   58ACC    H0H21058   7.939  16.561  13.113
   58ACC    H0I21059   7.968  16.727  13.163
   58ACC    H0J21060   7.808  16.657  13.176
   58ACC    H0K21061   7.895  16.383  13.283
   58ACC    H0M21062   7.765  16.474  13.355
   58ACC    H0N21063   7.899  16.421  13.454
   58ACC    H0O21064   7.945  16.789  13.408
   58ACC    H0P21065   7.916  16.664  13.528
   58ACC    H0Q21066   7.789  16.710  13.415
   59ACC    C0021067   5.127  15.530  15.556
   59ACC    C0121068   5.227  15.590  15.654
   59ACC    O0221069   5.344  15.553  15.657
   59ACC    O0321070   5.173  15.685  15.732
   59ACC    C0421071   5.250  15.743  15.837
   59ACC    C0521072   5.348  15.849  15.780
   59ACC    N0621073   5.438  15.914  15.881
   59ACC    C0721074   5.360  15.986  15.986
   59ACC    C0821075   5.530  15.815  15.945
   59ACC    C0921076   5.522  16.015  15.809
   59ACC    H0A21077   5.174  15.450  15.498
   59ACC    H0B21078   5.091  15.606  15.487
   59ACC    H0C21079   5.042  15.489  15.609
   59ACC    H0D21080   5.301  15.663  15.891
   59ACC    H0E21081   5.178  15.788  15.906
   59ACC    H0F21082   5.288  15.925  15.728
   59ACC    H0G21083   5.408  15.802  15.703
   59ACC    H0H21084   5.303  15.918  16.050
   59ACC    H0I21085   5.290  16.058  15.944
   59ACC    H0J21086   5.426  16.042  16.054
   59ACC    H0K21087   5.477  15.744  16.009
   59ACC    H0M21088   5.604  15.864  16.009
   59ACC    H0N21089   5.585  15.757  15.871
   59ACC    H0O21090   5.462  16.092  15.761
   59ACC    H0P21091   5.583  15.969  15.731
   59ACC    H0Q21092   5.591  16.066  15.877
   60ACC    C0021093   1.645  10.126   9.134
   60ACC    C0121094   1.537  10.214   9.074
   60ACC    O0221095   1.424  10.220   9.122
   60ACC    O0321096   1.578  10.282   8.965
   60ACC    C0421097   1.487  10.366   8.896
   60ACC    C0521098   1.475  10.502   8.970
   60ACC    N0621099   1.369  10.595   8.919
   60ACC    C0721100   1.388  10.626   8.774
   60ACC    C0821101   1.232  10.539   8.942
   60ACC    C0921102   1.379  10.723   8.995
   60ACC    H0A21103   1.611  10.080   9.226
   60ACC    H0B21104   1.734  10.185   9.156
   60ACC    H0C21105   1.673  10.047   9.064
   60ACC    H0D21106   1.391  10.314   8.888
   60ACC    H0E21107   1.525  10.380   8.795
   60ACC    H0F21108   1.573  10.550   8.967
   60ACC    H0G21109   1.457  10.482   9.077
   60ACC    H0H21110   1.374  10.539   8.710
   60ACC    H0I21111   1.488  10.665   8.753
   60ACC    H0J21112   1.317  10.701   8.738
   60ACC    H0K21113   1.213  10.449   8.884
   60ACC    H0M21114   1.154  10.611   8.917
   60ACC    H0N21115   1.217  10.512   9.047
   60ACC    H0O21116   1.477  10.771   8.982
   60ACC    H0P21117   1.366  10.709   9.103
   60ACC    H0Q21118   1.305  10.796   8.965
   61ACC    C0021119   6.801   2.418  12.869
   61ACC    C0121120   6.793   2.345  12.736
   61ACC    O0221121   6.869   2.252  12.709
   61ACC    O0321122   6.696   2.392  12.655
   61ACC    C0421123   6.679   2.335  12.526
   61ACC    C0521124   6.600   2.201  12.537
   61ACC    N0621125   6.584   2.125  12.409
   61ACC    C0721126   6.515   2.206  12.304
   61ACC    C0821127   6.716   2.077  12.357
   61ACC    C0921128   6.500   2.004  12.436
   61ACC    H0A21129   6.877   2.373  12.933
   61ACC    H0B21130   6.706   2.413  12.922
   61ACC    H0C21131   6.826   2.523  12.854
   61ACC    H0D21132   6.777   2.322  12.481
   61ACC    H0E21133   6.626   2.408  12.466
   61ACC    H0F21134   6.503   2.223  12.581
   61ACC    H0G21135   6.650   2.137  12.610
   61ACC    H0H21136   6.575   2.291  12.271
   61ACC    H0I21137   6.419   2.245  12.339
   61ACC    H0J21138   6.494   2.146  12.215
   61ACC    H0K21139   6.781   2.159  12.324
   61ACC    H0M21140   6.704   2.011  12.271
   61ACC    H0N21141   6.771   2.021  12.432
   61ACC    H0O21142   6.400   2.030  12.473
   61ACC    H0P21143   6.545   1.938  12.511
   61ACC    H0Q21144   6.483   1.943  12.347
   62ACC    C0021145   6.492   1.426   2.849
   62ACC    C0121146   6.549   1.461   2.985
   62ACC    O0221147   6.567   1.578   3.018
   62ACC    O0321148   6.573   1.353   3.061
   62ACC    C0421149   6.637   1.368   3.188
   62ACC    C0521150   6.537   1.424   3.292
   62ACC    N0621151   6.592   1.449   3.429
   62ACC    C0721152   6.642   1.324   3.493
   62ACC    C0821153   6.703   1.550   3.428
   62ACC    C0921154   6.481   1.506   3.510
   62ACC    H0A21155   6.485   1.515   2.787
   62ACC    H0B21156   6.393   1.382   2.859
   62ACC    H0C21157   6.558   1.355   2.799
   62ACC    H0D21158   6.724   1.432   3.175
   62ACC    H0E21159   6.674   1.270   3.217
   62ACC    H0F21160   6.452   1.355   3.298
   62ACC    H0G21161   6.496   1.518   3.253
   62ACC    H0H21162   6.729   1.282   3.443
   62ACC    H0I21163   6.565   1.246   3.498
   62ACC    H0J21164   6.673   1.343   3.597
   62ACC    H0K21165   6.793   1.514   3.378
   62ACC    H0M21166   6.735   1.574   3.530
   62ACC    H0N21167   6.674   1.644   3.381
   62ACC    H0O21168   6.400   1.434   3.526
   62ACC    H0P21169   6.438   1.596   3.466
   62ACC    H0Q21170   6.514   1.536   3.609
   63ACC    C0021171  16.468  15.199   8.061
   63ACC    C0121172  16.543  15.109   7.965
   63ACC    O0221173  16.654  15.140   7.920
   63ACC    O0321174  16.477  14.996   7.938
   63ACC    C0421175  16.531  14.902   7.846
   63ACC    C0521176  16.645  14.821   7.913
   63ACC    N0621177  16.722  14.730   7.821
   63ACC    C0721178  16.632  14.628   7.760
   63ACC    C0821179  16.792  14.807   7.713
   63ACC    C0921180  16.825  14.659   7.902
   63ACC    H0A21181  16.525  15.290   8.080
   63ACC    H0B21182  16.452  15.147   8.156
   63ACC    H0C21183  16.371  15.225   8.019
   63ACC    H0D21184  16.563  14.955   7.757
   63ACC    H0E21185  16.450  14.835   7.816
   63ACC    H0F21186  16.601  14.764   7.995
   63ACC    H0G21187  16.715  14.890   7.960
   63ACC    H0H21188  16.559  14.671   7.691
   63ACC    H0I21189  16.574  14.573   7.836
   63ACC    H0J21190  16.687  14.553   7.702
   63ACC    H0K21191  16.723  14.852   7.641
   63ACC    H0M21192  16.858  14.743   7.654
   63ACC    H0N21193  16.852  14.888   7.754
   63ACC    H0O21194  16.780  14.601   7.983
   63ACC    H0P21195  16.895  14.729   7.948
   63ACC    H0Q21196  16.885  14.590   7.842
   64ACC    C0021197   1.999  12.278   3.235
   64ACC    C0121198   1.896  12.181   3.182
   64ACC    O0221199   1.905  12.060   3.199
   64ACC    O0321200   1.795  12.242   3.116
   64ACC    C0421201   1.693  12.164   3.055
   64ACC    C0521202   1.593  12.114   3.162
   64ACC    N0621203   1.488  12.019   3.113
   64ACC    C0721204   1.405  12.078   3.004
   64ACC    C0821205   1.550  11.891   3.067
   64ACC    C0921206   1.398  11.987   3.228
   64ACC    H0A21207   2.078  12.224   3.288
   64ACC    H0B21208   1.953  12.349   3.305
   64ACC    H0C21209   2.044  12.334   3.153
   64ACC    H0D21210   1.741  12.082   3.001
   64ACC    H0E21211   1.645  12.226   2.981
   64ACC    H0F21212   1.546  12.202   3.207
   64ACC    H0G21213   1.649  12.067   3.244
   64ACC    H0H21214   1.463  12.096   2.913
   64ACC    H0I21215   1.361  12.174   3.034
   64ACC    H0J21216   1.322  12.013   2.975
   64ACC    H0K21217   1.609  11.903   2.976
   64ACC    H0M21218   1.474  11.815   3.043
   64ACC    H0N21219   1.616  11.848   3.142
   64ACC    H0O21220   1.348  12.076   3.268
   64ACC    H0P21221   1.452  11.941   3.312
   64ACC    H0Q21222   1.318  11.917   3.201
   65ACC    C0021223  14.308   4.376   1.999
   65ACC    C0121224  14.167   4.349   1.950
   65ACC    O0221225  14.081   4.299   2.022
   65ACC    O0321226  14.147   4.388   1.823
   65ACC    C0421227  14.021   4.364   1.761
   65ACC    C0521228  13.917   4.468   1.811
   65ACC    N0621229  13.776   4.444   1.767
   65ACC    C0721230  13.764   4.443   1.618
   65ACC    C0821231  13.724   4.316   1.823
   65ACC    C0921232  13.692   4.555   1.820
   65ACC    H0A21233  14.320   4.343   2.103
   65ACC    H0B21234  14.332   4.482   1.994
   65ACC    H0C21235  14.380   4.321   1.938
   65ACC    H0D21236  13.993   4.261   1.783
   65ACC    H0E21237  14.037   4.371   1.654
   65ACC    H0F21238  13.951   4.567   1.779
   65ACC    H0G21239  13.920   4.471   1.920
   65ACC    H0H21240  13.817   4.359   1.572
   65ACC    H0I21241  13.806   4.534   1.574
   65ACC    H0J21242  13.661   4.436   1.585
   65ACC    H0K21243  13.773   4.228   1.781
   65ACC    H0M21244  13.617   4.302   1.804
   65ACC    H0N21245  13.737   4.310   1.931
   65ACC    H0O21246  13.725   4.653   1.783
   65ACC    H0P21247  13.695   4.561   1.929
   65ACC    H0Q21248  13.587   4.545   1.792
   66ACC    C0021249  13.673  11.134   1.793
   66ACC    C0121250  13.774  11.183   1.894
   66ACC    O0221251  13.787  11.302   1.923
   66ACC    O0321252  13.845  11.082   1.946
   66ACC    C0421253  13.966  11.108   2.014
   66ACC    C0521254  13.942  11.151   2.160
   66ACC    N0621255  14.065  11.192   2.236
   66ACC    C0721256  14.171  11.086   2.231
   66ACC    C0821257  14.120  11.319   2.181
   66ACC    C0921258  14.025  11.214   2.378
   66ACC    H0A21259  13.615  11.217   1.753
   66ACC    H0B21260  13.605  11.062   1.838
   66ACC    H0C21261  13.725  11.086   1.710
   66ACC    H0D21262  14.026  11.178   1.956
   66ACC    H0E21263  14.020  11.014   2.013
   66ACC    H0F21264  13.894  11.066   2.209
   66ACC    H0G21265  13.868  11.232   2.161
   66ACC    H0H21266  14.212  11.073   2.130
   66ACC    H0I21267  14.134  10.988   2.261
   66ACC    H0J21268  14.256  11.110   2.294
   66ACC    H0K21269  14.164  11.306   2.082
   66ACC    H0M21270  14.200  11.359   2.243
   66ACC    H0N21271  14.044  11.397   2.172
   66ACC    H0O21272  13.987  11.122   2.423
   66ACC    H0P21273  13.947  11.290   2.386
   66ACC    H0Q21274  14.109  11.247   2.439
   67ACC    C0021275  12.203   6.846  17.378
   67ACC    C0121276  12.154   6.731   0.024
   67ACC    O0221277  12.050   6.670  17.439
   67ACC    O0321278  12.237   6.704   0.127
   67ACC    C0421279  12.202   6.605   0.222
   67ACC    C0521280  12.230   6.464   0.164
   67ACC    N0621281  12.185   6.349   0.250
   67ACC    C0721282  12.252   6.351   0.383
   67ACC    C0821283  12.036   6.350   0.267
   67ACC    C0921284  12.223   6.222   0.180
   67ACC    H0A21285  12.132   6.866  17.297
   67ACC    H0B21286  12.300   6.823  17.334
   67ACC    H0C21287  12.213   6.936  17.438
   67ACC    H0D21288  12.098   6.620   0.250
   67ACC    H0E21289  12.262   6.624   0.311
   67ACC    H0F21290  12.337   6.457   0.144
   67ACC    H0G21291  12.182   6.456   0.066
   67ACC    H0H21292  12.223   6.437   0.444
   67ACC    H0I21293  12.361   6.354   0.374
   67ACC    H0J21294  12.228   6.263   0.443
   67ACC    H0K21295  12.001   6.434   0.327
   67ACC    H0M21296  12.000   6.260   0.318
   67ACC    H0N21297  11.984   6.356   0.172
   67ACC    H0O21298  12.330   6.215   0.165
   67ACC    H0P21299  12.176   6.214   0.082
   67ACC    H0Q21300  12.193   6.133   0.236
   68ACC    C0021301  11.341   9.472   2.237
   68ACC    C0121302  11.294   9.429   2.375
   68ACC    O0221303  11.174   9.416   2.402
   68ACC    O0321304  11.395   9.407   2.461
   68ACC    C0421305  11.367   9.378   2.597
   68ACC    C0521306  11.319   9.231   2.612
   68ACC    N0621307  11.273   9.191   2.749
   68ACC    C0721308  11.383   9.206   2.850
   68ACC    C0821309  11.154   9.271   2.791
   68ACC    C0921310  11.234   9.047   2.743
   68ACC    H0A21311  11.255   9.494   2.173
   68ACC    H0B21312  11.399   9.393   2.190
   68ACC    H0C21313  11.402   9.562   2.245
   68ACC    H0D21314  11.293   9.450   2.632
   68ACC    H0E21315  11.458   9.396   2.654
   68ACC    H0F21316  11.400   9.166   2.578
   68ACC    H0G21317  11.238   9.213   2.541
   68ACC    H0H21318  11.411   9.311   2.865
   68ACC    H0I21319  11.473   9.153   2.820
   68ACC    H0J21320  11.353   9.168   2.948
   68ACC    H0K21321  11.177   9.376   2.809
   68ACC    H0M21322  11.111   9.234   2.884
   68ACC    H0N21323  11.075   9.269   2.716
   68ACC    H0O21324  11.316   8.983   2.713
   68ACC    H0P21325  11.152   9.030   2.672
   68ACC    H0Q21326  11.199   9.010   2.840
   69ACC    C0021327  10.033  14.756  15.037
   69ACC    C0121328   9.882  14.744  15.017
   69ACC    O0221329   9.804  14.750  15.112
   69ACC    O0321330   9.847  14.730  14.888
   69ACC    C0421331   9.712  14.700  14.855
   69ACC    C0521332   9.623  14.827  14.866
   69ACC    N0621333   9.476  14.806  14.846
   69ACC    C0721334   9.447  14.752  14.709
   69ACC    C0821335   9.420  14.714  14.949
   69ACC    C0921336   9.408  14.938  14.859
   69ACC    H0A21337  10.057  14.758  15.143
   69ACC    H0B21338  10.071  14.847  14.990
   69ACC    H0C21339  10.083  14.670  14.992
   69ACC    H0D21340   9.678  14.620  14.921
   69ACC    H0E21341   9.712  14.660  14.754
   69ACC    H0F21342   9.661  14.901  14.795
   69ACC    H0G21343   9.639  14.872  14.965
   69ACC    H0H21344   9.487  14.651  14.695
   69ACC    H0I21345   9.489  14.815  14.631
   69ACC    H0J21346   9.340  14.745  14.690
   69ACC    H0K21347   9.455  14.611  14.938
   69ACC    H0M21348   9.311  14.708  14.945
   69ACC    H0N21349   9.446  14.745  15.051
   69ACC    H0O21350   9.444  15.011  14.786
   69ACC    H0P21351   9.424  14.982  14.958
   69ACC    H0Q21352   9.300  14.930  14.846
   70ACC    C0021353  10.069  12.587  10.052
   70ACC    C0121354  10.057  12.660  10.185
   70ACC    O0221355  10.037  12.600  10.290
   70ACC    O0321356  10.073  12.793  10.173
   70ACC    C0421357  10.046  12.877  10.284
   70ACC    C0521358  10.162  12.870  10.387
   70ACC    N0621359  10.138  12.942  10.516
   70ACC    C0721360  10.119  13.089  10.494
   70ACC    C0821361  10.020  12.886  10.588
   70ACC    C0921362  10.259  12.923  10.602
   70ACC    H0A21363  10.046  12.481  10.064
   70ACC    H0B21364  10.170  12.597  10.011
   70ACC    H0C21365   9.999  12.629   9.980
   70ACC    H0D21366   9.950  12.847  10.326
   70ACC    H0E21367  10.034  12.978  10.245
   70ACC    H0F21368  10.252  12.907  10.338
   70ACC    H0G21369  10.183  12.765  10.408
   70ACC    H0H21370  10.028  13.111  10.438
   70ACC    H0I21371  10.202  13.133  10.437
   70ACC    H0J21372  10.112  13.145  10.587
   70ACC    H0K21373   9.926  12.908  10.538
   70ACC    H0M21374  10.010  12.926  10.689
   70ACC    H0N21375  10.026  12.777  10.598
   70ACC    H0O21376  10.349  12.962  10.555
   70ACC    H0P21377  10.276  12.817  10.623
   70ACC    H0Q21378  10.249  12.973  10.699
   71ACC    C0021379   6.551   0.177  14.325
   71ACC    C0121380   6.681   0.254  14.310
   71ACC    O0221381   6.701   0.359  14.370
   71ACC    O0321382   6.768   0.196  14.225
   71ACC    C0421383   6.893   0.257  14.200
   71ACC    C0521384   6.992   0.227  14.316
   71ACC    N0621385   7.124   0.297  14.308
   71ACC    C0721386   7.197   0.264  14.182
   71ACC    C0821387   7.108   0.445  14.321
   71ACC    C0921388   7.207   0.249  14.423
   71ACC    H0A21389   6.487   0.225  14.398
   71ACC    H0B21390   6.571   0.075  14.358
   71ACC    H0C21391   6.498   0.173  14.230
   71ACC    H0D21392   6.877   0.364  14.184
   71ACC    H0E21393   6.930   0.217  14.105
   71ACC    H0F21394   7.005   0.119  14.320
   71ACC    H0G21395   6.943   0.253  14.410
   71ACC    H0H21396   7.146   0.304  14.093
   71ACC    H0I21397   7.207   0.157  14.167
   71ACC    H0J21398   7.298   0.306  14.181
   71ACC    H0K21399   7.057   0.489  14.236
   71ACC    H0M21400   7.205   0.496  14.329
   71ACC    H0N21401   7.051   0.472  14.411
   71ACC    H0O21402   7.224   0.141  14.420
   71ACC    H0P21403   7.161   0.271  14.520
   71ACC    H0Q21404   7.306   0.296  14.425
   72ACC    C0021405  14.651  11.177  16.591
   72ACC    C0121406  14.603  11.045  16.650
   72ACC    O0221407  14.635  11.011  16.763
   72ACC    O0321408  14.523  10.975  16.567
   72ACC    C0421409  14.487  10.842  16.603
   72ACC    C0521410  14.380  10.839  16.716
   72ACC    N0621411  14.341  10.703  16.766
   72ACC    C0721412  14.283  10.618  16.658
   72ACC    C0821413  14.458  10.633  16.827
   72ACC    C0921414  14.238  10.722  16.872
   72ACC    H0A21415  14.723  11.222  16.659
   72ACC    H0B21416  14.568  11.245  16.577
   72ACC    H0C21417  14.702  11.159  16.496
   72ACC    H0D21418  14.577  10.789  16.632
   72ACC    H0E21419  14.450  10.793  16.513
   72ACC    H0F21420  14.292  10.894  16.681
   72ACC    H0G21421  14.417  10.898  16.800
   72ACC    H0H21422  14.356  10.591  16.581
   72ACC    H0I21423  14.199  10.666  16.607
   72ACC    H0J21424  14.246  10.523  16.697
   72ACC    H0K21425  14.534  10.605  16.754
   72ACC    H0M21426  14.429  10.540  16.876
   72ACC    H0N21427  14.509  10.694  16.903
   72ACC    H0O21428  14.149  10.772  16.836
   72ACC    H0P21429  14.276  10.780  16.956
   72ACC    H0Q21430  14.205  10.626  16.914
   73ACC    C0021431  11.346   5.919  16.377
   73ACC    C0121432  11.355   6.070  16.390
   73ACC    O0221433  11.255   6.141  16.402
   73ACC    O0321434  11.481   6.116  16.388
   73ACC    C0421435  11.505   6.256  16.392
   73ACC    C0521436  11.488   6.309  16.537
   73ACC    N0621437  11.494   6.458  16.553
   73ACC    C0721438  11.623   6.513  16.503
   73ACC    C0821439  11.380   6.523  16.482
   73ACC    C0921440  11.482   6.489  16.698
   73ACC    H0A21441  11.242   5.886  16.380
   73ACC    H0B21442  11.400   5.870  16.458
   73ACC    H0C21443  11.389   5.886  16.282
   73ACC    H0D21444  11.438   6.304  16.321
   73ACC    H0E21445  11.606   6.272  16.355
   73ACC    H0F21446  11.565   6.260  16.599
   73ACC    H0G21447  11.393   6.272  16.576
   73ACC    H0H21448  11.635   6.502  16.395
   73ACC    H0I21449  11.709   6.465  16.550
   73ACC    H0J21450  11.632   6.620  16.523
   73ACC    H0K21451  11.386   6.514  16.374
   73ACC    H0M21452  11.374   6.630  16.504
   73ACC    H0N21453  11.284   6.480  16.511
   73ACC    H0O21454  11.563   6.444  16.757
   73ACC    H0P21455  11.389   6.451  16.741
   73ACC    H0Q21456  11.485   6.596  16.718
   74ACC    C0021457   7.060   0.588   0.666
   74ACC    C0121458   6.983   0.640   0.546
   74ACC    O0221459   6.875   0.697   0.558
   74ACC    O0321460   7.046   0.617   0.429
   74ACC    C0421461   6.988   0.664   0.308
   74ACC    C0521462   7.029   0.812   0.287
   74ACC    N0621463   6.969   0.879   0.167
   74ACC    C0721464   6.998   0.807   0.040
   74ACC    C0821465   6.821   0.892   0.185
   74ACC    C0921466   7.029   1.015   0.157
   74ACC    H0A21467   7.017   0.628   0.758
   74ACC    H0B21468   7.164   0.619   0.661
   74ACC    H0C21469   7.055   0.480   0.670
   74ACC    H0D21470   6.880   0.652   0.312
   74ACC    H0E21471   7.025   0.601   0.228
   74ACC    H0F21472   7.138   0.818   0.284
   74ACC    H0G21473   7.001   0.869   0.376
   74ACC    H0H21474   6.950   0.709   0.036
   74ACC    H0I21475   7.106   0.791   0.027
   74ACC    H0J21476   6.963   0.863  17.394
   74ACC    H0K21477   6.767   0.798   0.170
   74ACC    H0M21478   6.777   0.966   0.118
   74ACC    H0N21479   6.795   0.925   0.286
   74ACC    H0O21480   7.136   1.013   0.135
   74ACC    H0P21481   7.021   1.070   0.251
   74ACC    H0Q21482   6.981   1.078   0.083
   75ACC    C0021483  14.035   5.722   1.879
   75ACC    C0121484  14.093   5.609   1.795
   75ACC    O0221485  14.022   5.519   1.751
   75ACC    O0321486  14.225   5.620   1.779
   75ACC    C0421487  14.297   5.521   1.707
   75ACC    C0521488  14.285   5.545   1.555
   75ACC    N0621489  14.343   5.437   1.468
   75ACC    C0721490  14.488   5.415   1.497
   75ACC    C0821491  14.270   5.308   1.483
   75ACC    C0921492  14.328   5.481   1.326
   75ACC    H0A21493  13.927   5.713   1.888
   75ACC    H0B21494  14.058   5.818   1.832
   75ACC    H0C21495  14.079   5.721   1.978
   75ACC    H0D21496  14.261   5.423   1.737
   75ACC    H0E21497  14.401   5.528   1.739
   75ACC    H0F21498  14.333   5.640   1.531
   75ACC    H0G21499  14.180   5.559   1.529
   75ACC    H0H21500  14.510   5.390   1.600
   75ACC    H0I21501  14.550   5.501   1.470
   75ACC    H0J21502  14.528   5.332   1.439
   75ACC    H0K21503  14.285   5.263   1.581
   75ACC    H0M21504  14.306   5.235   1.410
   75ACC    H0N21505  14.163   5.320   1.466
   75ACC    H0O21506  14.394   5.565   1.301
   75ACC    H0P21507  14.226   5.510   1.299
   75ACC    H0Q21508  14.356   5.402   1.256
   76ACC    C0021509   6.223   1.121  14.520
   76ACC    C0121510   6.142   1.031  14.428
   76ACC    O0221511   6.033   0.986  14.461
   76ACC    O0321512   6.202   1.007  14.310
   76ACC    C0421513   6.136   0.923  14.216
   76ACC    C0521514   6.025   1.003  14.143
   76ACC    N0621515   5.936   0.923  14.053
   76ACC    C0721516   6.013   0.845  13.952
   76ACC    C0821517   5.850   0.831  14.133
   76ACC    C0921518   5.845   1.019  13.982
   76ACC    H0A21519   6.164   1.146  14.608
   76ACC    H0B21520   6.250   1.214  14.470
   76ACC    H0C21521   6.313   1.070  14.553
   76ACC    H0D21522   6.096   0.836  14.270
   76ACC    H0E21523   6.211   0.885  14.147
   76ACC    H0F21524   6.074   1.083  14.087
   76ACC    H0G21525   5.964   1.054  14.217
   76ACC    H0H21526   6.073   0.766  13.997
   76ACC    H0I21527   6.082   0.909  13.895
   76ACC    H0J21528   5.948   0.796  13.880
   76ACC    H0K21529   5.906   0.752  14.184
   76ACC    H0M21530   5.775   0.780  14.072
   76ACC    H0N21531   5.794   0.884  14.212
   76ACC    H0O21532   5.900   1.091  13.922
   76ACC    H0P21533   5.784   1.076  14.052
   76ACC    H0Q21534   5.775   0.968  13.915
   77ACC    C0021535  16.962  15.760  17.077
   77ACC    C0121536  16.859  15.697  16.984
   77ACC    O0221537  16.777  15.615  17.024
   77ACC    O0321538  16.870  15.741  16.858
   77ACC    C0421539  16.780  15.695  16.759
   77ACC    C0521540  16.645  15.771  16.770
   77ACC    N0621541  16.532  15.713  16.690
   77ACC    C0721542  16.570  15.699  16.546
   77ACC    C0821543  16.490  15.580  16.743
   77ACC    C0921544  16.416  15.806  16.702
   77ACC    H0A21545  16.946  15.727  17.180
   77ACC    H0B21546  16.954  15.868  17.074
   77ACC    H0C21547  17.063  15.732  17.047
   77ACC    H0D21548  16.769  15.587  16.768
   77ACC    H0E21549  16.826  15.714  16.662
   77ACC    H0F21550  16.663  15.874  16.739
   77ACC    H0G21551  16.616  15.778  16.875
   77ACC    H0H21552  16.639  15.617  16.527
   77ACC    H0I21553  16.620  15.788  16.508
   77ACC    H0J21554  16.483  15.685  16.481
   77ACC    H0K21555  16.567  15.503  16.729
   77ACC    H0M21556  16.400  15.544  16.692
   77ACC    H0N21557  16.468  15.584  16.850
   77ACC    H0O21558  16.442  15.908  16.671
   77ACC    H0P21559  16.381  15.815  16.805
   77ACC    H0Q21560  16.331  15.777  16.640
   78ACC    C0021561  17.225   7.401   1.808
   78ACC    C0121562  17.078   7.368   1.831
   78ACC    O0221563  17.013   7.423   1.919
   78ACC    O0321564  17.033   7.274   1.747
   78ACC    C0421565  16.901   7.224   1.761
   78ACC    C0521566  16.798   7.326   1.704
   78ACC    N0621567  16.654   7.288   1.722
   78ACC    C0721568  16.625   7.159   1.655
   78ACC    C0821569  16.617   7.277   1.866
   78ACC    C0921570  16.569   7.393   1.659
   78ACC    H0A21571  17.259   7.475   1.880
   78ACC    H0B21572  17.238   7.441   1.707
   78ACC    H0C21573  17.286   7.312   1.818
   78ACC    H0D21574  16.883   7.200   1.866
   78ACC    H0E21575  16.896   7.129   1.707
   78ACC    H0F21576  16.820   7.339   1.598
   78ACC    H0G21577  16.816   7.423   1.751
   78ACC    H0H21578  16.679   7.076   1.701
   78ACC    H0I21579  16.650   7.157   1.549
   78ACC    H0J21580  16.519   7.131   1.662
   78ACC    H0K21581  16.665   7.191   1.915
   78ACC    H0M21582  16.510   7.260   1.880
   78ACC    H0N21583  16.644   7.366   1.923
   78ACC    H0O21584  16.588   7.402   1.552
   78ACC    H0P21585  16.584   7.491   1.704
   78ACC    H0Q21586  16.462   7.369   1.669
   79ACC    C0021587   3.232   9.472   8.555
   79ACC    C0121588   3.102   9.399   8.584
   79ACC    O0221589   3.077   9.352   8.695
   79ACC    O0321590   3.022   9.391   8.477
   79ACC    C0421591   2.897   9.324   8.488
   79ACC    C0521592   2.795   9.417   8.559
   79ACC    N0621593   2.665   9.353   8.599
   79ACC    C0721594   2.597   9.292   8.482
   79ACC    C0821595   2.687   9.249   8.704
   79ACC    C0921596   2.578   9.460   8.656
   79ACC    H0A21597   3.290   9.483   8.647
   79ACC    H0B21598   3.211   9.571   8.515
   79ACC    H0C21599   3.291   9.416   8.482
   79ACC    H0D21600   2.912   9.230   8.540
   79ACC    H0E21601   2.863   9.298   8.388
   79ACC    H0F21602   2.777   9.501   8.492
   79ACC    H0G21603   2.842   9.460   8.648
   79ACC    H0H21604   2.651   9.206   8.443
   79ACC    H0I21605   2.587   9.362   8.398
   79ACC    H0J21606   2.496   9.256   8.505
   79ACC    H0K21607   2.742   9.162   8.666
   79ACC    H0M21608   2.593   9.211   8.744
   79ACC    H0N21609   2.745   9.288   8.789
   79ACC    H0O21610   2.558   9.539   8.583
   79ACC    H0P21611   2.623   9.507   8.743
   79ACC    H0Q21612   2.481   9.421   8.688
   80ACC    C0021613  15.603  10.295   0.991
   80ACC    C0121614  15.564  10.436   0.948
   80ACC    O0221615  15.549  10.465   0.829
   80ACC    O0321616  15.547  10.520   1.051
   80ACC    C0421617  15.527  10.658   1.027
   80ACC    C0521618  15.381  10.684   0.980
   80ACC    N0621619  15.351  10.825   0.938
   80ACC    C0721620  15.372  10.921   1.050
   80ACC    C0821621  15.435  10.866   0.821
   80ACC    C0921622  15.207  10.830   0.897
   80ACC    H0A21623  15.623  10.233   0.904
   80ACC    H0B21624  15.523  10.250   1.049
   80ACC    H0C21625  15.693  10.299   1.053
   80ACC    H0D21626  15.601  10.691   0.954
   80ACC    H0E21627  15.549  10.711   1.119
   80ACC    H0F21628  15.314  10.652   1.060
   80ACC    H0G21629  15.360  10.617   0.896
   80ACC    H0H21630  15.477  10.929   1.079
   80ACC    H0I21631  15.316  10.892   1.140
   80ACC    H0J21632  15.341  11.022   1.024
   80ACC    H0K21633  15.540  10.877   0.846
   80ACC    H0M21634  15.404  10.963   0.780
   80ACC    H0N21635  15.430  10.794   0.739
   80ACC    H0O21636  15.140  10.801   0.978
   80ACC    H0P21637  15.187  10.763   0.813
   80ACC    H0Q21638  15.177  10.930   0.865
   81ACC    C0021639   9.460  15.714   3.559
   81ACC    C0121640   9.409  15.573   3.582
   81ACC    O0221641   9.390  15.529   3.695
   81ACC    O0321642   9.385  15.507   3.468
   81ACC    C0421643   9.345  15.370   3.472
   81ACC    C0521644   9.194  15.360   3.508
   81ACC    N0621645   9.142  15.222   3.530
   81ACC    C0721646   9.159  15.137   3.408
   81ACC    C0821647   9.208  15.156   3.647
   81ACC    C0921648   8.996  15.232   3.559
   81ACC    H0A21649   9.479  15.764   3.655
   81ACC    H0B21650   9.387  15.773   3.504
   81ACC    H0C21651   9.553  15.711   3.503
   81ACC    H0D21652   9.409  15.318   3.544
   81ACC    H0E21653   9.365  15.327   3.374
   81ACC    H0F21654   9.138  15.411   3.430
   81ACC    H0G21655   9.176  15.420   3.599
   81ACC    H0H21656   9.264  15.117   3.384
   81ACC    H0I21657   9.115  15.183   3.319
   81ACC    H0J21658   9.112  15.039   3.419
   81ACC    H0K21659   9.313  15.134   3.629
   81ACC    H0M21660   9.161  15.061   3.672
   81ACC    H0N21661   9.203  15.219   3.736
   81ACC    H0O21662   8.940  15.279   3.477
   81ACC    H0P21663   8.976  15.292   3.648
   81ACC    H0Q21664   8.950  15.135   3.577
   82ACC    C0021665  10.527  16.735  13.209
   82ACC    C0121666  10.611  16.808  13.105
   82ACC    O0221667  10.703  16.883  13.138
   82ACC    O0321668  10.575  16.781  12.979
   82ACC    C0421669  10.637  16.850  12.871
   82ACC    C0521670  10.778  16.791  12.844
   82ACC    N0621671  10.860  16.863  12.741
   82ACC    C0721672  10.791  16.866  12.608
   82ACC    C0821673  10.891  17.003  12.785
   82ACC    C0921674  10.989  16.790  12.725
   82ACC    H0A21675  10.559  16.762  13.310
   82ACC    H0B21676  10.538  16.627  13.197
   82ACC    H0C21677  10.422  16.762  13.198
   82ACC    H0D21678  10.640  16.956  12.896
   82ACC    H0E21679  10.572  16.840  12.785
   82ACC    H0F21680  10.765  16.686  12.816
   82ACC    H0G21681  10.834  16.789  12.938
   82ACC    H0H21682  10.699  16.926  12.610
   82ACC    H0I21683  10.763  16.766  12.574
   82ACC    H0J21684  10.854  16.910  12.530
   82ACC    H0K21685  10.803  17.067  12.789
   82ACC    H0M21686  10.961  17.053  12.717
   82ACC    H0N21687  10.936  17.005  12.884
   82ACC    H0O21688  10.974  16.687  12.692
   82ACC    H0P21689  11.045  16.785  12.818
   82ACC    H0Q21690  11.054  16.837  12.651
   83ACC    C0021691   5.566   3.207   0.789
   83ACC    C0121692   5.420   3.169   0.802
   83ACC    O0221693   5.374   3.066   0.752
   83ACC    O0321694   5.352   3.258   0.873
   83ACC    C0421695   5.212   3.271   0.856
   83ACC    C0521696   5.139   3.171   0.949
   83ACC    N0621697   4.991   3.166   0.933
   83ACC    C0721698   4.929   3.300   0.957
   83ACC    C0821699   4.953   3.117   0.797
   83ACC    C0921700   4.939   3.070   1.035
   83ACC    H0A21701   5.620   3.135   0.728
   83ACC    H0B21702   5.611   3.214   0.888
   83ACC    H0C21703   5.572   3.305   0.742
   83ACC    H0D21704   5.189   3.259   0.750
   83ACC    H0E21705   5.187   3.374   0.880
   83ACC    H0F21706   5.167   3.199   1.051
   83ACC    H0G21707   5.183   3.072   0.932
   83ACC    H0H21708   4.956   3.373   0.880
   83ACC    H0I21709   4.960   3.343   1.052
   83ACC    H0J21710   4.820   3.296   0.957
   83ACC    H0K21711   4.977   3.190   0.719
   83ACC    H0M21712   4.846   3.097   0.788
   83ACC    H0N21713   5.006   3.025   0.770
   83ACC    H0O21714   4.963   3.103   1.136
   83ACC    H0P21715   4.982   2.971   1.022
   83ACC    H0Q21716   4.830   3.060   1.030
   84ACC    C0021717   9.093  15.770  15.100
   84ACC    C0121718   9.178  15.673  15.181
   84ACC    O0221719   9.201  15.559  15.143
   84ACC    O0321720   9.223  15.727  15.296
   84ACC    C0421721   9.297  15.648  15.387
   84ACC    C0521722   9.443  15.632  15.338
   84ACC    N0621723   9.529  15.539  15.418
   84ACC    C0721724   9.542  15.586  15.560
   84ACC    C0821725   9.475  15.400  15.415
   84ACC    C0921726   9.665  15.539  15.357
   84ACC    H0A21727   9.056  15.722  15.009
   84ACC    H0B21728   9.152  15.857  15.071
   84ACC    H0C21729   9.008  15.804  15.158
   84ACC    H0D21730   9.245  15.553  15.399
   84ACC    H0E21731   9.293  15.699  15.484
   84ACC    H0F21732   9.487  15.732  15.334
   84ACC    H0G21733   9.441  15.599  15.234
   84ACC    H0H21734   9.447  15.582  15.614
   84ACC    H0I21735   9.578  15.689  15.566
   84ACC    H0J21736   9.612  15.524  15.617
   84ACC    H0K21737   9.381  15.390  15.470
   84ACC    H0M21738   9.544  15.329  15.461
   84ACC    H0N21739   9.456  15.366  15.313
   84ACC    H0O21740   9.711  15.638  15.357
   84ACC    H0P21741   9.663  15.505  15.253
   84ACC    H0Q21742   9.734  15.473  15.410
   85ACC    C0021743  12.574  17.369  15.248
   85ACC    C0121744  12.568   0.081  15.244
   85ACC    O0221745  12.576   0.144  15.139
   85ACC    O0321746  12.551   0.137  15.366
   85ACC    C0421747  12.562   0.278  15.378
   85ACC    C0521748  12.435   0.348  15.324
   85ACC    N0621749  12.444   0.497  15.308
   85ACC    C0721750  12.470   0.564  15.439
   85ACC    C0821751  12.550   0.534  15.210
   85ACC    C0921752  12.313   0.545  15.255
   85ACC    H0A21753  12.597  17.329  15.149
   85ACC    H0B21754  12.480  17.326  15.281
   85ACC    H0C21755  12.654  17.336  15.315
   85ACC    H0D21756  12.653   0.308  15.325
   85ACC    H0E21757  12.579   0.301  15.484
   85ACC    H0F21758  12.351   0.321  15.390
   85ACC    H0G21759  12.409   0.304  15.227
   85ACC    H0H21760  12.568   0.538  15.480
   85ACC    H0I21761  12.396   0.536  15.515
   85ACC    H0J21762  12.468   0.673  15.431
   85ACC    H0K21763  12.651   0.514  15.247
   85ACC    H0M21764  12.548   0.640  15.185
   85ACC    H0N21765  12.540   0.478  15.116
   85ACC    H0O21766  12.230   0.521  15.322
   85ACC    H0P21767  12.290   0.501  15.158
   85ACC    H0Q21768  12.312   0.654  15.241
   86ACC    C0021769  13.086  14.987   5.293
   86ACC    C0121770  12.951  14.918   5.297
   86ACC    O0221771  12.864  14.941   5.213
   86ACC    O0321772  12.940  14.832   5.399
   86ACC    C0421773  12.822  14.754   5.415
   86ACC    C0521774  12.823  14.636   5.314
   86ACC    N0621775  12.698  14.553   5.312
   86ACC    C0721776  12.665  14.498   5.446
   86ACC    C0821777  12.582  14.631   5.259
   86ACC    C0921778  12.723  14.438   5.220
   86ACC    H0A21779  13.093  15.052   5.206
   86ACC    H0B21780  13.165  14.913   5.288
   86ACC    H0C21781  13.100  15.047   5.383
   86ACC    H0D21782  12.735  14.819   5.404
   86ACC    H0E21783  12.823  14.717   5.517
   86ACC    H0F21784  12.909  14.574   5.339
   86ACC    H0G21785  12.843  14.674   5.214
   86ACC    H0H21786  12.638  14.575   5.518
   86ACC    H0I21787  12.750  14.444   5.489
   86ACC    H0J21788  12.582  14.428   5.443
   86ACC    H0K21789  12.553  14.712   5.325
   86ACC    H0M21790  12.494  14.569   5.245
   86ACC    H0N21791  12.605  14.677   5.162
   86ACC    H0O21792  12.807  14.376   5.256
   86ACC    H0P21793  12.750  14.470   5.119
   86ACC    H0Q21794  12.637  14.371   5.212
   87ACC    C0021795  10.686  16.475   2.298
   87ACC    C0121796  10.635  16.448   2.158
   87ACC    O0221797  10.657  16.342   2.100
   87ACC    O0321798  10.565  16.551   2.107
   87ACC    C0421799  10.518  16.544   1.973
   87ACC    C0521800  10.392  16.454   1.965
   87ACC    N0621801  10.341  16.425   1.827
   87ACC    C0721802  10.305  16.551   1.755
   87ACC    C0821803  10.441  16.348   1.748
   87ACC    C0921804  10.218  16.342   1.841
   87ACC    H0A21805  10.742  16.390   2.336
   87ACC    H0B21806  10.603  16.494   2.366
   87ACC    H0C21807  10.752  16.562   2.299
   87ACC    H0D21808  10.599  16.508   1.910
   87ACC    H0E21809  10.496  16.646   1.941
   87ACC    H0F21810  10.314  16.500   2.027
   87ACC    H0G21811  10.414  16.359   2.015
   87ACC    H0H21812  10.392  16.613   1.734
   87ACC    H0I21813  10.235  16.612   1.813
   87ACC    H0J21814  10.258  16.531   1.659
   87ACC    H0K21815  10.530  16.405   1.724
   87ACC    H0M21816  10.400  16.314   1.652
   87ACC    H0N21817  10.475  16.258   1.801
   87ACC    H0O21818  10.139  16.392   1.898
   87ACC    H0P21819  10.238  16.247   1.892
   87ACC    H0Q21820  10.174  16.316   1.744
   88ACC    C0021821   4.064   5.454   9.144
   88ACC    C0121822   3.946   5.510   9.221
   88ACC    O0221823   3.961   5.580   9.321
   88ACC    O0321824   3.827   5.474   9.168
   88ACC    C0421825   3.706   5.511   9.234
   88ACC    C0521826   3.672   5.660   9.206
   88ACC    N0621827   3.553   5.714   9.279
   88ACC    C0721828   3.429   5.638   9.245
   88ACC    C0821829   3.574   5.712   9.426
   88ACC    C0921830   3.534   5.856   9.236
   88ACC    H0A21831   4.158   5.484   9.191
   88ACC    H0B21832   4.064   5.492   9.041
   88ACC    H0C21833   4.059   5.346   9.141
   88ACC    H0D21834   3.718   5.490   9.340
   88ACC    H0E21835   3.628   5.445   9.197
   88ACC    H0F21836   3.660   5.671   9.098
   88ACC    H0G21837   3.760   5.720   9.230
   88ACC    H0H21838   3.431   5.535   9.280
   88ACC    H0I21839   3.411   5.635   9.137
   88ACC    H0J21840   3.340   5.684   9.289
   88ACC    H0K21841   3.578   5.611   9.467
   88ACC    H0M21842   3.494   5.764   9.480
   88ACC    H0N21843   3.668   5.761   9.455
   88ACC    H0O21844   3.516   5.865   9.129
   88ACC    H0P21845   3.621   5.918   9.259
   88ACC    H0Q21846   3.448   5.903   9.285
   89ACC    C0021847   0.085   5.690   7.188
   89ACC    C0121848   0.087   5.829   7.125
   89ACC    O0221849  17.438   5.868   7.050
   89ACC    O0321850   0.194   5.901   7.163
   89ACC    C0421851   0.215   6.030   7.106
   89ACC    C0521852   0.122   6.133   7.174
   89ACC    N0621853   0.123   6.271   7.114
   89ACC    C0721854   0.260   6.331   7.120
   89ACC    C0821855   0.075   6.268   6.973
   89ACC    C0921856   0.030   6.356   7.194
   89ACC    H0A21857  17.439   5.634   7.154
   89ACC    H0B21858   0.082   5.697   7.296
   89ACC    H0C21859   0.175   5.635   7.160
   89ACC    H0D21860   0.201   6.022   6.999
   89ACC    H0E21861   0.320   6.054   7.122
   89ACC    H0F21862   0.147   6.137   7.280
   89ACC    H0G21863   0.020   6.094   7.171
   89ACC    H0H21864   0.332   6.278   7.057
   89ACC    H0I21865   0.300   6.330   7.221
   89ACC    H0J21866   0.260   6.435   7.086
   89ACC    H0K21867   0.143   6.217   6.905
   89ACC    H0M21868   0.062   6.369   6.932
   89ACC    H0N21869  17.418   6.218   6.964
   89ACC    H0O21870   0.060   6.362   7.299
   89ACC    H0P21871  17.368   6.318   7.193
   89ACC    H0Q21872   0.026   6.459   7.156
   90ACC    C0021873  13.983  11.273  16.279
   90ACC    C0121874  14.086  11.343  16.366
   90ACC    O0221875  14.205  11.348  16.335
   90ACC    O0321876  14.033  11.397  16.477
   90ACC    C0421877  14.116  11.462  16.572
   90ACC    C0521878  14.148  11.606  16.525
   90ACC    N0621879  14.243  11.684  16.612
   90ACC    C0721880  14.190  11.698  16.751
   90ACC    C0821881  14.378  11.620  16.616
   90ACC    C0921882  14.257  11.821  16.554
   90ACC    H0A21883  14.030  11.233  16.190
   90ACC    H0B21884  13.905  11.343  16.250
   90ACC    H0C21885  13.937  11.192  16.334
   90ACC    H0D21886  14.205  11.402  16.588
   90ACC    H0E21887  14.061  11.463  16.667
   90ACC    H0F21888  14.053  11.660  16.515
   90ACC    H0G21889  14.189  11.601  16.423
   90ACC    H0H21890  14.185  11.603  16.805
   90ACC    H0I21891  14.090  11.742  16.753
   90ACC    H0J21892  14.253  11.763  16.812
   90ACC    H0K21893  14.378  11.524  16.667
   90ACC    H0M21894  14.451  11.683  16.668
   90ACC    H0N21895  14.418  11.603  16.516
   90ACC    H0O21896  14.162  11.874  16.550
   90ACC    H0P21897  14.296  11.818  16.452
   90ACC    H0Q21898  14.325  11.883  16.612
   91ACC    C0021899   0.449   7.158   4.291
   91ACC    C0121900   0.335   7.248   4.332
   91ACC    O0221901   0.264   7.224   4.429
   91ACC    O0321902   0.322   7.355   4.251
   91ACC    C0421903   0.217   7.448   4.273
   91ACC    C0521904   0.254   7.543   4.391
   91ACC    N0621905   0.146   7.637   4.435
   91ACC    C0721906   0.102   7.726   4.323
   91ACC    C0821907   0.028   7.561   4.489
   91ACC    C0921908   0.201   7.722   4.544
   91ACC    H0A21909   0.458   7.073   4.359
   91ACC    H0B21910   0.544   7.213   4.293
   91ACC    H0C21911   0.434   7.120   4.190
   91ACC    H0D21912   0.125   7.392   4.291
   91ACC    H0E21913   0.203   7.503   4.180
   91ACC    H0F21914   0.343   7.598   4.361
   91ACC    H0G21915   0.286   7.482   4.475
   91ACC    H0H21916   0.053   7.672   4.242
   91ACC    H0I21917   0.186   7.780   4.279
   91ACC    H0J21918   0.030   7.802   4.357
   91ACC    H0K21919  17.415   7.505   4.412
   91ACC    H0M21920  17.394   7.628   4.534
   91ACC    H0N21921   0.058   7.490   4.566
   91ACC    H0O21922   0.287   7.780   4.511
   91ACC    H0P21923   0.235   7.662   4.630
   91ACC    H0Q21924   0.128   7.793   4.583
   92ACC    C0021925   8.174   4.784  14.474
   92ACC    C0121926   8.265   4.780  14.353
   92ACC    O0221927   8.236   4.717  14.252
   92ACC    O0321928   8.377   4.852  14.370
   92ACC    C0421929   8.477   4.852  14.268
   92ACC    C0521930   8.434   4.946  14.153
   92ACC    N0621931   8.524   4.945  14.032
   92ACC    C0721932   8.663   4.984  14.067
   92ACC    C0821933   8.523   4.811  13.967
   92ACC    C0921934   8.470   5.044  13.934
   92ACC    H0A21935   8.084   4.724  14.457
   92ACC    H0B21936   8.143   4.887  14.495
   92ACC    H0C21937   8.225   4.745  14.562
   92ACC    H0D21938   8.492   4.749  14.236
   92ACC    H0E21939   8.570   4.885  14.315
   92ACC    H0F21940   8.427   5.047  14.193
   92ACC    H0G21941   8.333   4.921  14.122
   92ACC    H0H21942   8.713   4.912  14.132
   92ACC    H0I21943   8.667   5.081  14.118
   92ACC    H0J21944   8.727   4.993  13.978
   92ACC    H0K21945   8.571   4.734  14.027
   92ACC    H0M21946   8.576   4.811  13.871
   92ACC    H0N21947   8.422   4.775  13.946
   92ACC    H0O21948   8.468   5.146  13.975
   92ACC    H0P21949   8.367   5.021  13.904
   92ACC    H0Q21950   8.529   5.049  13.843
   93ACC    C0021951   1.069   1.369   7.080
   93ACC    C0121952   1.074   1.521   7.074
   93ACC    O0221953   1.130   1.588   7.160
   93ACC    O0321954   1.014   1.568   6.965
   93ACC    C0421955   1.009   1.707   6.937
   93ACC    C0521956   1.148   1.757   6.888
   93ACC    N0621957   1.157   1.903   6.855
   93ACC    C0721958   1.061   1.945   6.749
   93ACC    C0821959   1.135   1.986   6.977
   93ACC    C0921960   1.295   1.928   6.803
   93ACC    H0A21961   1.114   1.332   7.172
   93ACC    H0B21962   1.123   1.327   6.995
   93ACC    H0C21963   0.966   1.336   7.074
   93ACC    H0D21964   0.974   1.760   7.025
   93ACC    H0E21965   0.935   1.719   6.858
   93ACC    H0F21966   1.174   1.697   6.800
   93ACC    H0G21967   1.223   1.731   6.963
   93ACC    H0H21968   0.957   1.922   6.772
   93ACC    H0I21969   1.082   1.895   6.654
   93ACC    H0J21970   1.066   2.052   6.726
   93ACC    H0K21971   1.032   1.980   7.012
   93ACC    H0M21972   1.155   2.092   6.959
   93ACC    H0N21973   1.199   1.955   7.060
   93ACC    H0O21974   1.313   1.867   6.713
   93ACC    H0P21975   1.372   1.901   6.876
   93ACC    H0Q21976   1.311   2.032   6.775
   94ACC    C0021977   3.742  10.004  11.699
   94ACC    C0121978   3.670   9.871  11.692
   94ACC    O0221979   3.630   9.824  11.585
   94ACC    O0321980   3.656   9.811  11.811
   94ACC    C0421981   3.587   9.687  11.820
   94ACC    C0521982   3.679   9.572  11.773
   94ACC    N0621983   3.614   9.437  11.761
   94ACC    C0721984   3.555   9.394  11.891
   94ACC    C0821985   3.510   9.437  11.654
   94ACC    C0921986   3.720   9.339  11.723
   94ACC    H0A21987   3.754  10.046  11.599
   94ACC    H0B21988   3.842   9.991  11.742
   94ACC    H0C21989   3.686  10.075  11.760
   94ACC    H0D21990   3.495   9.695  11.761
   94ACC    H0E21991   3.556   9.674  11.924
   94ACC    H0F21992   3.765   9.568  11.841
   94ACC    H0G21993   3.722   9.599  11.676
   94ACC    H0H21994   3.470   9.456  11.921
   94ACC    H0I21995   3.627   9.397  11.972
   94ACC    H0J21996   3.517   9.291  11.886
   94ACC    H0K21997   3.424   9.499  11.679
   94ACC    H0M21998   3.471   9.337  11.635
   94ACC    H0N21999   3.549   9.474  11.559
   94ACC    H0O22000   3.801   9.333  11.797
   94ACC    H0P22001   3.767   9.365  11.627
   94ACC    H0Q22002   3.681   9.238  11.712
   95ACC    C0022003   1.449   3.119  16.364
   95ACC    C0122004   1.474   3.269  16.359
   95ACC    O0222005   1.503   3.326  16.254
   95ACC    O0322006   1.459   3.328  16.478
   95ACC    C0422007   1.486   3.467  16.492
   95ACC    C0522008   1.365   3.550  16.442
   95ACC    N0622009   1.383   3.698  16.441
   95ACC    C0722010   1.417   3.750  16.577
   95ACC    C0822011   1.489   3.738  16.343
   95ACC    C0922012   1.255   3.761  16.398
   95ACC    H0A22013   1.458   3.075  16.265
   95ACC    H0B22014   1.349   3.098  16.402
   95ACC    H0C22015   1.521   3.071  16.431
   95ACC    H0D22016   1.578   3.490  16.439
   95ACC    H0E22017   1.505   3.484  16.598
   95ACC    H0F22018   1.278   3.522  16.504
   95ACC    H0G22019   1.339   3.516  16.341
   95ACC    H0H22020   1.515   3.716  16.612
   95ACC    H0I22021   1.344   3.719  16.652
   95ACC    H0J22022   1.421   3.859  16.579
   95ACC    H0K22023   1.589   3.705  16.373
   95ACC    H0M22024   1.496   3.847  16.332
   95ACC    H0N22025   1.470   3.698  16.244
   95ACC    H0O22026   1.172   3.737  16.465
   95ACC    H0P22027   1.225   3.728  16.298
   95ACC    H0Q22028   1.261   3.870  16.393
   96ACC    C0022029  16.581   2.161   5.668
   96ACC    C0122030  16.686   2.139   5.561
   96ACC    O0222031  16.659   2.145   5.441
   96ACC    O0322032  16.806   2.110   5.614
   96ACC    C0422033  16.920   2.093   5.530
   96ACC    C0522034  16.988   2.229   5.506
   96ACC    N0622035  17.100   2.228   5.406
   96ACC    C0722036  17.207   2.134   5.447
   96ACC    C0822037  17.049   2.195   5.269
   96ACC    C0922038  17.160   2.365   5.400
   96ACC    H0A22039  16.489   2.201   5.625
   96ACC    H0B22040  16.618   2.231   5.743
   96ACC    H0C22041  16.558   2.067   5.718
   96ACC    H0D22042  16.890   2.042   5.439
   96ACC    H0E22043  16.987   2.025   5.583
   96ACC    H0F22044  17.024   2.267   5.602
   96ACC    H0G22045  16.913   2.303   5.477
   96ACC    H0H22046  17.175   2.030   5.444
   96ACC    H0I22047  17.241   2.155   5.548
   96ACC    H0J22048  17.295   2.141   5.382
   96ACC    H0K22049  17.012   2.093   5.262
   96ACC    H0M22050  17.126   2.207   5.193
   96ACC    H0N22051  16.967   2.262   5.241
   96ACC    H0O22052  17.206   2.393   5.495
   96ACC    H0P22053  17.084   2.442   5.382
   96ACC    H0Q22054  17.236   2.376   5.324
   97ACC    C0022055  13.975  13.911  11.274
   97ACC    C0122056  13.981  13.797  11.374
   97ACC    O0222057  14.050  13.698  11.356
   97ACC    O0322058  13.904  13.818  11.482
   97ACC    C0422059  13.891  13.717  11.581
   97ACC    C0522060  14.018  13.714  11.671
   97ACC    N0622061  14.024  13.601  11.770
   97ACC    C0722062  13.908  13.604  11.863
   97ACC    C0822063  14.031  13.469  11.700
   97ACC    C0922064  14.149  13.617  11.849
   97ACC    H0A22065  14.038  13.889  11.188
   97ACC    H0B22066  14.010  14.004  11.320
   97ACC    H0C22067  13.873  13.926  11.239
   97ACC    H0D22068  13.873  13.622  11.530
   97ACC    H0E22069  13.802  13.739  11.639
   97ACC    H0F22070  14.025  13.810  11.722
   97ACC    H0G22071  14.106  13.710  11.607
   97ACC    H0H22072  13.813  13.584  11.813
   97ACC    H0I22073  13.898  13.700  11.913
   97ACC    H0J22074  13.917  13.528  11.942
   97ACC    H0K22075  13.939  13.444  11.647
   97ACC    H0M22076  14.049  13.387  11.769
   97ACC    H0N22077  14.111  13.466  11.625
   97ACC    H0O22078  14.152  13.712  11.904
   97ACC    H0P22079  14.239  13.615  11.787
   97ACC    H0Q22080  14.162  13.539  11.924
   98ACC    C0022081  13.200   2.627  11.100
   98ACC    C0122082  13.312   2.666  11.196
   98ACC    O0222083  13.294   2.750  11.284
   98ACC    O0322084  13.427   2.600  11.175
   98ACC    C0422085  13.542   2.638  11.250
   98ACC    C0522086  13.534   2.585  11.395
   98ACC    N0622087  13.638   2.638  11.490
   98ACC    C0722088  13.776   2.605  11.442
   98ACC    C0822089  13.624   2.785  11.508
   98ACC    C0922090  13.617   2.572  11.622
   98ACC    H0A22091  13.111   2.687  11.122
   98ACC    H0B22092  13.174   2.522  11.111
   98ACC    H0C22093  13.230   2.648  10.997
   98ACC    H0D22094  13.549   2.747  11.246
   98ACC    H0E22095  13.630   2.600  11.198
   98ACC    H0F22096  13.536   2.476  11.392
   98ACC    H0G22097  13.435   2.609  11.436
   98ACC    H0H22098  13.802   2.657  11.350
   98ACC    H0I22099  13.789   2.498  11.424
   98ACC    H0J22100  13.852   2.634  11.516
   98ACC    H0K22101  13.649   2.843  11.419
   98ACC    H0M22102  13.690   2.823  11.587
   98ACC    H0N22103  13.522   2.814  11.536
   98ACC    H0O22104  13.625   2.464  11.617
   98ACC    H0P22105  13.518   2.595  11.663
   98ACC    H0Q22106  13.689   2.606  11.697
   99ACC    C0022107  10.154  12.917  11.633
   99ACC    C0122108  10.083  13.032  11.702
   99ACC    O0222109  10.134  13.092  11.797
   99ACC    O0322110   9.965  13.060  11.645
   99ACC    C0422111   9.872  13.147  11.709
   99ACC    C0522112   9.915  13.295  11.698
   99ACC    N0622113   9.823  13.394  11.763
   99ACC    C0722114   9.691  13.394  11.694
   99ACC    C0822115   9.802  13.364  11.908
   99ACC    C0922116   9.880  13.531  11.750
   99ACC    H0A22117  10.241  12.886  11.691
   99ACC    H0B22118  10.184  12.945  11.533
   99ACC    H0C22119  10.086  12.831  11.627
   99ACC    H0D22120   9.861  13.114  11.813
   99ACC    H0E22121   9.775  13.130  11.662
   99ACC    H0F22122   9.926  13.319  11.592
   99ACC    H0G22123  10.015  13.307  11.740
   99ACC    H0H22124   9.633  13.303  11.712
   99ACC    H0I22125   9.696  13.408  11.586
   99ACC    H0J22126   9.629  13.476  11.732
   99ACC    H0K22127   9.745  13.272  11.924
   99ACC    H0M22128   9.742  13.442  11.957
   99ACC    H0N22129   9.896  13.355  11.963
   99ACC    H0O22130   9.890  13.560  11.645
   99ACC    H0P22131   9.978  13.540  11.797
   99ACC    H0Q22132   9.815  13.605  11.797
  100ACC    C0022133  15.950  10.697  15.707
  100ACC    C0122134  16.083  10.626  15.685
  100ACC    O0222135  16.133  10.616  15.573
  100ACC    O0322136  16.135  10.578  15.799
  100ACC    C0422137  16.251  10.495  15.796
  100ACC    C0522138  16.379  10.579  15.771
  100ACC    N0622139  16.506  10.500  15.759
  100ACC    C0722140  16.538  10.427  15.885
  100ACC    C0822141  16.500  10.403  15.645
  100ACC    C0922142  16.617  10.596  15.732
  100ACC    H0A22143  15.904  10.723  15.612
  100ACC    H0B22144  15.966  10.789  15.764
  100ACC    H0C22145  15.882  10.633  15.762
  100ACC    H0D22146  16.235  10.419  15.720
  100ACC    H0E22147  16.255  10.444  15.892
  100ACC    H0F22148  16.387  10.652  15.851
  100ACC    H0G22149  16.364  10.638  15.680
  100ACC    H0H22150  16.466  10.349  15.908
  100ACC    H0I22151  16.541  10.494  15.972
  100ACC    H0J22152  16.635  10.377  15.880
  100ACC    H0K22153  16.430  10.321  15.663
  100ACC    H0M22154  16.597  10.355  15.626
  100ACC    H0N22155  16.469  10.451  15.552
  100ACC    H0O22156  16.629  10.669  15.812
  100ACC    H0P22157  16.600  10.653  15.640
  100ACC    H0Q22158  16.713  10.546  15.721
  101ACC    C0022159   3.044   9.915   0.378
  101ACC    C0122160   2.930   9.844   0.449
  101ACC    O0222161   2.816   9.890   0.451
  101ACC    O0322162   2.968   9.727   0.504
  101ACC    C0422163   2.880   9.660   0.593
  101ACC    C0522164   2.770   9.586   0.514
  101ACC    N0622165   2.665   9.518   0.598
  101ACC    C0722166   2.725   9.410   0.682
  101ACC    C0822167   2.594   9.616   0.685
  101ACC    C0922168   2.565   9.457   0.504
  101ACC    H0A22169   3.022  10.020   0.365
  101ACC    H0B22170   3.064   9.870   0.281
  101ACC    H0C22171   3.135   9.908   0.437
  101ACC    H0D22172   2.841   9.733   0.664
  101ACC    H0E22173   2.942   9.591   0.652
  101ACC    H0F22174   2.818   9.514   0.447
  101ACC    H0G22175   2.721   9.658   0.448
  101ACC    H0H22176   2.792   9.450   0.758
  101ACC    H0I22177   2.782   9.339   0.623
  101ACC    H0J22178   2.648   9.354   0.736
  101ACC    H0K22179   2.658   9.655   0.765
  101ACC    H0M22180   2.508   9.573   0.735
  101ACC    H0N22181   2.558   9.703   0.629
  101ACC    H0O22182   2.611   9.384   0.437
  101ACC    H0P22183   2.517   9.532   0.441
  101ACC    H0Q22184   2.485   9.405   0.558
  102ACC    C0022185   5.429  12.463  11.370
  102ACC    C0122186   5.560  12.386  11.373
  102ACC    O0222187   5.602  12.325  11.274
  102ACC    O0322188   5.624  12.392  11.491
  102ACC    C0422189   5.744  12.319  11.509
  102ACC    C0522190   5.862  12.391  11.438
  102ACC    N0622191   5.991  12.316  11.433
  102ACC    C0722192   6.040  12.283  11.570
  102ACC    C0822193   5.977  12.191  11.352
  102ACC    C0922194   6.092  12.403  11.365
  102ACC    H0A22195   5.381  12.454  11.273
  102ACC    H0B22196   5.446  12.569  11.390
  102ACC    H0C22197   5.360  12.424  11.445
  102ACC    H0D22198   5.728  12.218  11.471
  102ACC    H0E22199   5.762  12.311  11.616
  102ACC    H0F22200   5.875  12.488  11.486
  102ACC    H0G22201   5.831  12.416  11.336
  102ACC    H0H22202   5.976  12.212  11.622
  102ACC    H0I22203   6.048  12.372  11.633
  102ACC    H0J22204   6.140  12.237  11.568
  102ACC    H0K22205   5.912  12.116  11.399
  102ACC    H0M22206   6.073  12.141  11.335
  102ACC    H0N22207   5.933  12.210  11.253
  102ACC    H0O22208   6.107  12.497  11.419
  102ACC    H0P22209   6.061  12.429  11.264
  102ACC    H0Q22210   6.189  12.354  11.357
  103ACC    C0022211  16.077   2.992  13.188
  103ACC    C0122212  16.108   2.961  13.334
  103ACC    O0222213  16.168   3.041  13.405
  103ACC    O0322214  16.060   2.841  13.372
  103ACC    C0422215  16.102   2.781  13.494
  103ACC    C0522216  16.036   2.847  13.618
  103ACC    N0622217  16.076   2.790  13.751
  103ACC    C0722218  16.031   2.649  13.766
  103ACC    C0822219  16.224   2.798  13.772
  103ACC    C0922220  16.010   2.871  13.858
  103ACC    H0A22221  16.137   3.076  13.153
  103ACC    H0B22222  15.972   3.015  13.174
  103ACC    H0C22223  16.102   2.906  13.125
  103ACC    H0D22224  16.211   2.786  13.497
  103ACC    H0E22225  16.076   2.676  13.487
  103ACC    H0F22226  15.928   2.841  13.605
  103ACC    H0G22227  16.060   2.954  13.616
  103ACC    H0H22228  16.082   2.581  13.696
  103ACC    H0I22229  15.924   2.637  13.749
  103ACC    H0J22230  16.052   2.609  13.866
  103ACC    H0K22231  16.280   2.731  13.707
  103ACC    H0M22232  16.253   2.770  13.874
  103ACC    H0N22233  16.263   2.899  13.755
  103ACC    H0O22234  15.901   2.868  13.850
  103ACC    H0P22235  16.041   2.975  13.856
  103ACC    H0Q22236  16.035   2.834  13.958
  104ACC    C0022237  10.868  14.671  16.862
  104ACC    C0122238  10.918  14.813  16.841
  104ACC    O0222239  10.976  14.875  16.930
  104ACC    O0322240  10.891  14.862  16.719
  104ACC    C0422241  10.929  14.995  16.686
  104ACC    C0522242  11.081  15.000  16.654
  104ACC    N0622243  11.138  15.137  16.632
  104ACC    C0722244  11.068  15.209  16.522
  104ACC    C0822245  11.133  15.217  16.757
  104ACC    C0922246  11.281  15.121  16.593
  104ACC    H0A22247  10.897  14.635  16.960
  104ACC    H0B22248  10.912  14.605  16.787
  104ACC    H0C22249  10.760  14.667  16.854
  104ACC    H0D22250  10.902  15.060  16.770
  104ACC    H0E22251  10.869  15.026  16.601
  104ACC    H0F22252  11.098  14.936  16.566
  104ACC    H0G22253  11.136  14.951  16.735
  104ACC    H0H22254  10.964  15.232  16.547
  104ACC    H0I22255  11.066  15.151  16.429
  104ACC    H0J22256  11.116  15.304  16.499
  104ACC    H0K22257  11.031  15.242  16.788
  104ACC    H0M22258  11.185  15.313  16.747
  104ACC    H0N22259  11.179  15.165  16.841
  104ACC    H0O22260  11.294  15.063  16.501
  104ACC    H0P22261  11.340  15.069  16.670
  104ACC    H0Q22262  11.331  15.216  16.576
  105ACC    C0022263  11.212   6.881  13.596
  105ACC    C0122264  11.328   6.811  13.664
  105ACC    O0222265  11.314   6.701  13.717
  105ACC    O0322266  11.442   6.882  13.658
  105ACC    C0422267  11.557   6.839  13.731
  105ACC    C0522268  11.628   6.721  13.660
  105ACC    N0622269  11.748   6.665  13.731
  105ACC    C0722270  11.855   6.768  13.745
  105ACC    C0822271  11.711   6.612  13.866
  105ACC    C0922272  11.801   6.553  13.649
  105ACC    H0A22273  11.119   6.828  13.614
  105ACC    H0B22274  11.229   6.887  13.488
  105ACC    H0C22275  11.202   6.983  13.635
  105ACC    H0D22276  11.525   6.815  13.832
  105ACC    H0E22277  11.622   6.926  13.738
  105ACC    H0F22278  11.655   6.754  13.559
  105ACC    H0G22279  11.555   6.641  13.644
  105ACC    H0H22280  11.827   6.850  13.811
  105ACC    H0I22281  11.883   6.812  13.649
  105ACC    H0J22282  11.947   6.726  13.788
  105ACC    H0K22283  11.682   6.690  13.936
  105ACC    H0M22284  11.794   6.559  13.913
  105ACC    H0N22285  11.627   6.542  13.860
  105ACC    H0O22286  11.831   6.584  13.549
  105ACC    H0P22287  11.728   6.473  13.636
  105ACC    H0Q22288  11.889   6.506  13.695
  106ACC    C0022289  15.266   1.820   1.588
  106ACC    C0122290  15.170   1.716   1.531
  106ACC    O0222291  15.051   1.741   1.512
  106ACC    O0322292  15.230   1.599   1.504
  106ACC    C0422293  15.153   1.489   1.460
  106ACC    C0522294  15.116   1.505   1.311
  106ACC    N0622295  15.020   1.403   1.256
  106ACC    C0722296  15.076   1.265   1.267
  106ACC    C0822297  14.888   1.411   1.325
  106ACC    C0922298  14.999   1.434   1.111
  106ACC    H0A22299  15.213   1.912   1.613
  106ACC    H0B22300  15.345   1.842   1.517
  106ACC    H0C22301  15.312   1.782   1.680
  106ACC    H0D22302  15.065   1.481   1.526
  106ACC    H0E22303  15.212   1.399   1.478
  106ACC    H0F22304  15.209   1.505   1.254
  106ACC    H0G22305  15.074   1.605   1.296
  106ACC    H0H22306  15.087   1.233   1.371
  106ACC    H0I22307  15.174   1.257   1.221
  106ACC    H0J22308  15.012   1.191   1.219
  106ACC    H0K22309  14.893   1.378   1.429
  106ACC    H0M22310  14.813   1.348   1.278
  106ACC    H0N22311  14.849   1.513   1.327
  106ACC    H0O22312  15.092   1.430   1.054
  106ACC    H0P22313  14.958   1.534   1.096
  106ACC    H0Q22314  14.930   1.364   1.063
  107ACC    C0022315   7.558  15.635   0.681
  107ACC    C0122316   7.628  15.769   0.689
  107ACC    O0222317   7.659  15.832   0.588
  107ACC    O0322318   7.649  15.809   0.816
  107ACC    C0422319   7.722  15.929   0.842
  107ACC    C0522320   7.631  16.052   0.817
  107ACC    N0622321   7.699  16.185   0.827
  107ACC    C0722322   7.758  16.206   0.962
  107ACC    C0822323   7.805  16.199   0.723
  107ACC    C0922324   7.595  16.291   0.804
  107ACC    H0A22325   7.546  15.604   0.577
  107ACC    H0B22326   7.459  15.641   0.727
  107ACC    H0C22327   7.616  15.559   0.734
  107ACC    H0D22328   7.811  15.929   0.780
  107ACC    H0E22329   7.757  15.925   0.945
  107ACC    H0F22330   7.548  16.046   0.888
  107ACC    H0G22331   7.585  16.042   0.718
  107ACC    H0H22332   7.841  16.137   0.983
  107ACC    H0I22333   7.686  16.191   1.043
  107ACC    H0J22334   7.801  16.306   0.975
  107ACC    H0K22335   7.890  16.134   0.743
  107ACC    H0M22336   7.845  16.301   0.720
  107ACC    H0N22337   7.768  16.175   0.623
  107ACC    H0O22338   7.515  16.286   0.878
  107ACC    H0P22339   7.549  16.281   0.705
  107ACC    H0Q22340   7.637  16.391   0.809
  108ACC    C0022341   6.587  11.755  14.667
  108ACC    C0122342   6.532  11.780  14.806
  108ACC    O0222343   6.495  11.689  14.880
  108ACC    O0322344   6.530  11.911  14.839
  108ACC    C0422345   6.471  11.951  14.962
  108ACC    C0522346   6.567  11.921  15.080
  108ACC    N0622347   6.511  11.943  15.217
  108ACC    C0722348   6.467  12.084  15.237
  108ACC    C0822349   6.397  11.850  15.243
  108ACC    C0922350   6.618  11.912  15.316
  108ACC    H0A22351   6.584  11.648  14.644
  108ACC    H0B22352   6.690  11.789  14.659
  108ACC    H0C22353   6.527  11.807  14.592
  108ACC    H0D22354   6.375  11.900  14.972
  108ACC    H0E22355   6.449  12.057  14.955
  108ACC    H0F22356   6.657  11.981  15.065
  108ACC    H0G22357   6.602  11.818  15.072
  108ACC    H0H22358   6.383  12.111  15.173
  108ACC    H0I22359   6.548  12.155  15.215
  108ACC    H0J22360   6.435  12.103  15.340
  108ACC    H0K22361   6.309  11.873  15.182
  108ACC    H0M22362   6.363  11.853  15.347
  108ACC    H0N22363   6.423  11.746  15.222
  108ACC    H0O22364   6.706  11.976  15.303
  108ACC    H0P22365   6.654  11.809  15.308
  108ACC    H0Q22366   6.585  11.925  15.420
  109ACC    C0022367  15.577  12.137  11.712
  109ACC    C0122368  15.700  12.073  11.649
  109ACC    O0222369  15.706  12.049  11.529
  109ACC    O0322370  15.798  12.047  11.738
  109ACC    C0422371  15.917  11.982  11.696
  109ACC    C0522372  16.011  12.083  11.625
  109ACC    N0622373  16.136  12.025  11.565
  109ACC    C0722374  16.221  11.959  11.668
  109ACC    C0822375  16.104  11.929  11.456
  109ACC    C0922376  16.215  12.138  11.506
  109ACC    H0A22377  15.501  12.155  11.636
  109ACC    H0B22378  15.603  12.232  11.759
  109ACC    H0C22379  15.535  12.071  11.788
  109ACC    H0D22380  15.890  11.898  11.631
  109ACC    H0E22381  15.964  11.940  11.784
  109ACC    H0F22382  16.036  12.162  11.696
  109ACC    H0G22383  15.954  12.134  11.546
  109ACC    H0H22384  16.174  11.869  11.710
  109ACC    H0I22385  16.244  12.025  11.751
  109ACC    H0J22386  16.316  11.925  11.627
  109ACC    H0K22387  16.055  11.838  11.492
  109ACC    H0M22388  16.193  11.896  11.402
  109ACC    H0N22389  16.037  11.972  11.381
  109ACC    H0O22390  16.243  12.212  11.580
  109ACC    H0P22391  16.159  12.191  11.428
  109ACC    H0Q22392  16.307  12.103  11.459
  110ACC    C0022393  13.906   9.589   5.930
  110ACC    C0122394  14.029   9.500   5.935
  110ACC    O0222395  14.022   9.377   5.940
  110ACC    O0322396  14.145   9.569   5.933
  110ACC    C0422397  14.268   9.499   5.941
  110ACC    C0522398  14.302   9.437   5.802
  110ACC    N0622399  14.417   9.342   5.801
  110ACC    C0722400  14.542   9.406   5.852
  110ACC    C0822401  14.385   9.219   5.880
  110ACC    C0922402  14.440   9.300   5.659
  110ACC    H0A22403  13.815   9.529   5.926
  110ACC    H0B22404  13.908   9.652   5.841
  110ACC    H0C22405  13.901   9.653   6.018
  110ACC    H0D22406  14.259   9.425   6.020
  110ACC    H0E22407  14.344   9.570   5.973
  110ACC    H0F22408  14.318   9.520   5.733
  110ACC    H0G22409  14.213   9.386   5.764
  110ACC    H0H22410  14.535   9.432   5.957
  110ACC    H0I22411  14.565   9.498   5.798
  110ACC    H0J22412  14.629   9.341   5.841
  110ACC    H0K22413  14.375   9.239   5.986
  110ACC    H0M22414  14.462   9.142   5.869
  110ACC    H0N22415  14.291   9.174   5.848
  110ACC    H0O22416  14.463   9.385   5.594
  110ACC    H0P22417  14.352   9.252   5.616
  110ACC    H0Q22418  14.523   9.230   5.648
  111ACC    C0022419  10.926   1.363  12.919
  111ACC    C0122420  11.075   1.364  12.894
  111ACC    O0222421  11.125   1.312  12.794
  111ACC    O0322422  11.144   1.427  12.991
  111ACC    C0422423  11.286   1.431  12.986
  111ACC    C0522424  11.334   1.539  12.886
  111ACC    N0622425  11.482   1.545  12.863
  111ACC    C0722426  11.556   1.572  12.989
  111ACC    C0822427  11.531   1.419  12.801
  111ACC    C0922428  11.509   1.657  12.768
  111ACC    H0A22429  10.874   1.311  12.838
  111ACC    H0B22430  10.888   1.465  12.925
  111ACC    H0C22431  10.904   1.312  13.013
  111ACC    H0D22432  11.322   1.331  12.962
  111ACC    H0E22433  11.320   1.452  13.088
  111ACC    H0F22434  11.297   1.636  12.921
  111ACC    H0G22435  11.283   1.523  12.791
  111ACC    H0H22436  11.549   1.491  13.061
  111ACC    H0I22437  11.520   1.663  13.039
  111ACC    H0J22438  11.663   1.587  12.971
  111ACC    H0K22439  11.526   1.333  12.868
  111ACC    H0M22440  11.636   1.426  12.770
  111ACC    H0N22441  11.474   1.392  12.711
  111ACC    H0O22442  11.476   1.754  12.807
  111ACC    H0P22443  11.458   1.644  12.672
  111ACC    H0Q22444  11.615   1.668  12.745
  112ACC    C0022445  11.910   1.725   1.375
  112ACC    C0122446  11.866   1.701   1.518
  112ACC    O0222447  11.896   1.779   1.609
  112ACC    O0322448  11.793   1.590   1.533
  112ACC    C0422449  11.755   1.547   1.663
  112ACC    C0522450  11.637   1.633   1.716
  112ACC    N0622451  11.596   1.607   1.858
  112ACC    C0722452  11.552   1.466   1.877
  112ACC    C0822453  11.707   1.638   1.953
  112ACC    C0922454  11.481   1.697   1.890
  112ACC    H0A22455  11.974   1.813   1.368
  112ACC    H0B22456  11.824   1.740   1.310
  112ACC    H0C22457  11.967   1.640   1.338
  112ACC    H0D22458  11.843   1.553   1.727
  112ACC    H0E22459  11.728   1.442   1.656
  112ACC    H0F22460  11.553   1.619   1.648
  112ACC    H0G22461  11.664   1.739   1.706
  112ACC    H0H22462  11.633   1.394   1.864
  112ACC    H0I22463  11.473   1.437   1.806
  112ACC    H0J22464  11.512   1.448   1.977
  112ACC    H0K22465  11.791   1.569   1.944
  112ACC    H0M22466  11.675   1.633   2.057
  112ACC    H0N22467  11.747   1.739   1.937
  112ACC    H0O22468  11.396   1.679   1.824
  112ACC    H0P22469  11.508   1.802   1.879
  112ACC    H0Q22470  11.445   1.684   1.992
  113ACC    C0022471   3.674   3.175   4.335
  113ACC    C0122472   3.738   3.042   4.299
  113ACC    O0222473   3.822   2.988   4.371
  113ACC    O0322474   3.690   2.991   4.184
  113ACC    C0422475   3.750   2.875   4.128
  113ACC    C0522476   3.704   2.748   4.205
  113ACC    N0622477   3.770   2.620   4.163
  113ACC    C0722478   3.741   2.588   4.020
  113ACC    C0822479   3.918   2.626   4.185
  113ACC    C0922480   3.714   2.511   4.248
  113ACC    H0A22481   3.722   3.217   4.424
  113ACC    H0B22482   3.568   3.162   4.355
  113ACC    H0C22483   3.686   3.246   4.253
  113ACC    H0D22484   3.858   2.889   4.130
  113ACC    H0E22485   3.720   2.871   4.023
  113ACC    H0F22486   3.595   2.740   4.195
  113ACC    H0G22487   3.721   2.764   4.311
  113ACC    H0H22488   3.785   2.660   3.951
  113ACC    H0I22489   3.634   2.587   4.000
  113ACC    H0J22490   3.780   2.490   3.991
  113ACC    H0K22491   3.969   2.696   4.118
  113ACC    H0M22492   3.966   2.529   4.170
  113ACC    H0N22493   3.943   2.659   4.286
  113ACC    H0O22494   3.606   2.501   4.236
  113ACC    H0P22495   3.733   2.527   4.354
  113ACC    H0Q22496   3.757   2.413   4.223
  114ACC    C0022497  14.492  11.360  14.543
  114ACC    C0122498  14.528  11.483  14.624
  114ACC    O0222499  14.572  11.585  14.571
  114ACC    O0322500  14.505  11.468  14.755
  114ACC    C0422501  14.539  11.573  14.845
  114ACC    C0522502  14.431  11.684  14.840
  114ACC    N0622503  14.462  11.808  14.918
  114ACC    C0722504  14.483  11.778  15.063
  114ACC    C0822505  14.583  11.878  14.864
  114ACC    C0922506  14.346  11.901  14.906
  114ACC    H0A22507  14.511  11.377  14.437
  114ACC    H0B22508  14.387  11.335  14.555
  114ACC    H0C22509  14.552  11.275  14.575
  114ACC    H0D22510  14.639  11.609  14.819
  114ACC    H0E22511  14.547  11.529  14.944
  114ACC    H0F22512  14.337  11.641  14.873
  114ACC    H0G22513  14.415  11.712  14.735
  114ACC    H0H22514  14.572  11.717  15.081
  114ACC    H0I22515  14.398  11.724  15.106
  114ACC    H0J22516  14.495  11.869  15.123
  114ACC    H0K22517  14.675  11.821  14.879
  114ACC    H0M22518  14.599  11.975  14.911
  114ACC    H0N22519  14.574  11.896  14.756
  114ACC    H0O22520  14.254  11.857  14.945
  114ACC    H0P22521  14.326  11.928  14.802
  114ACC    H0Q22522  14.361  11.994  14.960
  115ACC    C0022523   5.723  16.470   6.701
  115ACC    C0122524   5.747  16.565   6.817
  115ACC    O0222525   5.860  16.605   6.845
  115ACC    O0322526   5.634  16.600   6.880
  115ACC    C0422527   5.640  16.680   6.997
  115ACC    C0522528   5.665  16.829   6.961
  115ACC    N0622529   5.678  16.920   7.078
  115ACC    C0722530   5.552  16.920   7.158
  115ACC    C0822531   5.795  16.883   7.163
  115ACC    C0922532   5.701  17.060   7.030
  115ACC    H0A22533   5.818  16.439   6.657
  115ACC    H0B22534   5.662  16.517   6.625
  115ACC    H0C22535   5.671  16.380   6.737
  115ACC    H0D22536   5.717  16.640   7.063
  115ACC    H0E22537   5.545  16.668   7.050
  115ACC    H0F22538   5.584  16.862   6.895
  115ACC    H0G22539   5.756  16.835   6.900
  115ACC    H0H22540   5.544  16.833   7.224
  115ACC    H0I22541   5.462  16.925   7.097
  115ACC    H0J22542   5.546  17.006   7.225
  115ACC    H0K22543   5.777  16.794   7.224
  115ACC    H0M22544   5.820  16.961   7.235
  115ACC    H0N22545   5.885  16.865   7.105
  115ACC    H0O22546   5.618  17.097   6.969
  115ACC    H0P22547   5.792  17.068   6.970
  115ACC    H0Q22548   5.712  17.129   7.114
  116ACC    C0022549  15.955   4.421  16.800
  116ACC    C0122550  15.906   4.564  16.820
  116ACC    O0222551  15.976   4.649  16.874
  116ACC    O0322552  15.783   4.586  16.771
  116ACC    C0422553  15.722   4.712  16.790
  116ACC    C0522554  15.781   4.816  16.691
  116ACC    N0622555  15.737   4.958  16.711
  116ACC    C0722556  15.588   4.971  16.699
  116ACC    C0822557  15.782   5.010  16.843
  116ACC    C0922558  15.800   5.041  16.604
  116ACC    H0A22559  16.054   4.409  16.842
  116ACC    H0B22560  15.959   4.396  16.694
  116ACC    H0C22561  15.888   4.351  16.850
  116ACC    H0D22562  15.735   4.741  16.894
  116ACC    H0E22563  15.614   4.699  16.774
  116ACC    H0F22564  15.758   4.782  16.589
  116ACC    H0G22565  15.890   4.811  16.697
  116ACC    H0H22566  15.536   4.919  16.779
  116ACC    H0I22567  15.551   4.930  16.605
  116ACC    H0J22568  15.556   5.075  16.703
  116ACC    H0K22569  15.732   4.961  16.927
  116ACC    H0M22570  15.763   5.117  16.855
  116ACC    H0N22571  15.889   4.995  16.858
  116ACC    H0O22572  15.772   5.008  16.504
  116ACC    H0P22573  15.909   5.036  16.609
  116ACC    H0Q22574  15.773   5.146  16.612
  117ACC    C0022575  11.268   6.047   1.577
  117ACC    C0122576  11.420   6.060   1.584
  117ACC    O0222577  11.479   6.067   1.692
  117ACC    O0322578  11.478   6.062   1.463
  117ACC    C0422579  11.618   6.082   1.453
  117ACC    C0522580  11.694   5.952   1.489
  117ACC    N0622581  11.844   5.963   1.495
  117ACC    C0722582  11.901   6.009   1.364
  117ACC    C0822583  11.886   6.056   1.604
  117ACC    C0922584  11.899   5.828   1.525
  117ACC    H0A22585  11.225   6.048   1.677
  117ACC    H0B22586  11.240   5.954   1.528
  117ACC    H0C22587  11.226   6.131   1.521
  117ACC    H0D22588  11.645   6.166   1.519
  117ACC    H0E22589  11.639   6.114   1.351
  117ACC    H0F22590  11.665   5.875   1.416
  117ACC    H0G22591  11.658   5.915   1.585
  117ACC    H0H22592  11.872   6.111   1.339
  117ACC    H0I22593  11.869   5.945   1.281
  117ACC    H0J22594  12.010   6.008   1.365
  117ACC    H0K22595  11.859   6.160   1.584
  117ACC    H0M22596  11.994   6.056   1.619
  117ACC    H0N22597  11.841   6.030   1.700
  117ACC    H0O22598  11.872   5.754   1.449
  117ACC    H0P22599  11.862   5.789   1.621
  117ACC    H0Q22600  12.008   5.828   1.532
  118ACC    C0022601   3.771   6.151   0.128
  118ACC    C0122602   3.709   6.278   0.183
  118ACC    O0222603   3.751   6.332   0.285
  118ACC    O0322604   3.607   6.323   0.107
  118ACC    C0422605   3.528   6.431   0.153
  118ACC    C0522606   3.603   6.566   0.137
  118ACC    N0622607   3.534   6.686   0.195
  118ACC    C0722608   3.402   6.710   0.129
  118ACC    C0822609   3.515   6.672   0.342
  118ACC    C0922610   3.620   6.805   0.170
  118ACC    H0A22611   3.846   6.112   0.198
  118ACC    H0B22612   3.819   6.169   0.032
  118ACC    H0C22613   3.695   6.074   0.115
  118ACC    H0D22614   3.501   6.410   0.257
  118ACC    H0E22615   3.435   6.430   0.096
  118ACC    H0F22616   3.622   6.580   0.030
  118ACC    H0G22617   3.701   6.557   0.182
  118ACC    H0H22618   3.330   6.631   0.150
  118ACC    H0I22619   3.410   6.718   0.021
  118ACC    H0J22620   3.355   6.803   0.164
  118ACC    H0K22621   3.442   6.595   0.369
  118ACC    H0M22622   3.479   6.764   0.389
  118ACC    H0N22623   3.608   6.645   0.393
  118ACC    H0O22624   3.638   6.822   0.064
  118ACC    H0P22625   3.719   6.794   0.217
  118ACC    H0Q22626   3.577   6.897   0.210
  119ACC    C0022627   6.678  10.588   0.996
  119ACC    C0122628   6.785  10.480   1.000
  119ACC    O0222629   6.810  10.409   0.903
  119ACC    O0322630   6.849  10.473   1.118
  119ACC    C0422631   6.953  10.378   1.136
  119ACC    C0522632   7.082  10.431   1.070
  119ACC    N0622633   7.197  10.334   1.063
  119ACC    C0722634   7.235  10.284   1.199
  119ACC    C0822635   7.164  10.218   0.975
  119ACC    C0922636   7.314  10.406   1.005
  119ACC    H0A22637   6.635  10.596   0.896
  119ACC    H0B22638   6.720  10.685   1.022
  119ACC    H0C22639   6.598  10.565   1.066
  119ACC    H0D22640   6.920  10.282   1.095
  119ACC    H0E22641   6.965  10.363   1.243
  119ACC    H0F22642   7.112  10.522   1.123
  119ACC    H0G22643   7.058  10.465   0.969
  119ACC    H0H22644   7.156  10.224   1.245
  119ACC    H0I22645   7.255  10.367   1.268
  119ACC    H0J22646   7.324  10.222   1.196
  119ACC    H0K22647   7.085  10.155   1.015
  119ACC    H0M22648   7.250  10.153   0.957
  119ACC    H0N22649   7.129  10.252   0.876
  119ACC    H0O22650   7.344  10.492   1.065
  119ACC    H0P22651   7.292  10.444   0.904
  119ACC    H0Q22652   7.402  10.341   0.995
  120ACC    C0022653   4.702  16.518  10.567
  120ACC    C0122654   4.682  16.408  10.671
  120ACC    O0222655   4.776  16.361  10.735
  120ACC    O0322656   4.553  16.372  10.684
  120ACC    C0422657   4.519  16.265  10.771
  120ACC    C0522658   4.522  16.312  10.918
  120ACC    N0622659   4.505  16.204  11.021
  120ACC    C0722660   4.375  16.134  11.005
  120ACC    C0822661   4.617  16.106  11.015
  120ACC    C0922662   4.507  16.269  11.156
  120ACC    H0A22663   4.808  16.542  10.558
  120ACC    H0B22664   4.648  16.608  10.596
  120ACC    H0C22665   4.667  16.485  10.470
  120ACC    H0D22666   4.588  16.182  10.751
  120ACC    H0E22667   4.420  16.230  10.742
  120ACC    H0F22668   4.446  16.389  10.930
  120ACC    H0G22669   4.617  16.364  10.936
  120ACC    H0H22670   4.369  16.077  10.912
  120ACC    H0I22671   4.290  16.203  11.006
  120ACC    H0J22672   4.357  16.062  11.086
  120ACC    H0K22673   4.616  16.046  10.924
  120ACC    H0M22674   4.615  16.035  11.098
  120ACC    H0N22675   4.715  16.155  11.018
  120ACC    H0O22676   4.427  16.343  11.167
  120ACC    H0P22677   4.601  16.322  11.174
  120ACC    H0Q22678   4.496  16.197  11.237
  121ACC    C0022679  14.089  15.705   0.925
  121ACC    C0122680  13.968  15.680   1.014
  121ACC    O0222681  13.897  15.773   1.053
  121ACC    O0322682  13.953  15.551   1.046
  121ACC    C0422683  13.834  15.507   1.110
  121ACC    C0522684  13.732  15.469   1.000
  121ACC    N0622685  13.593  15.440   1.047
  121ACC    C0722686  13.591  15.339   1.157
  121ACC    C0822687  13.527  15.567   1.091
  121ACC    C0922688  13.516  15.385   0.932
  121ACC    H0A22689  14.079  15.800   0.873
  121ACC    H0B22690  14.096  15.626   0.849
  121ACC    H0C22691  14.180  15.706   0.984
  121ACC    H0D22692  13.797  15.585   1.177
  121ACC    H0E22693  13.859  15.422   1.173
  121ACC    H0F22694  13.773  15.384   0.945
  121ACC    H0G22695  13.730  15.550   0.926
  121ACC    H0H22696  13.638  15.374   1.249
  121ACC    H0I22697  13.642  15.247   1.128
  121ACC    H0J22698  13.489  15.311   1.184
  121ACC    H0K22699  13.574  15.611   1.179
  121ACC    H0M22700  13.421  15.553   1.114
  121ACC    H0N22701  13.532  15.643   1.013
  121ACC    H0O22702  13.559  15.293   0.893
  121ACC    H0P22703  13.512  15.455   0.848
  121ACC    H0Q22704  13.412  15.365   0.958
  122ACC    C0022705  15.769   1.087  10.136
  122ACC    C0122706  15.717   1.014  10.013
  122ACC    O0222707  15.791   0.982   9.920
  122ACC    O0322708  15.585   0.989  10.019
  122ACC    C0422709  15.519   0.930   9.908
  122ACC    C0522710  15.549   0.778   9.902
  122ACC    N0622711  15.498   0.707   9.780
  122ACC    C0722712  15.350   0.719   9.768
  122ACC    C0822713  15.564   0.758   9.656
  122ACC    C0922714  15.533   0.562   9.794
  122ACC    H0A22715  15.876   1.107  10.125
  122ACC    H0B22716  15.754   1.027  10.225
  122ACC    H0C22717  15.718   1.182  10.148
  122ACC    H0D22718  15.552   0.983   9.818
  122ACC    H0E22719  15.413   0.950   9.919
  122ACC    H0F22720  15.509   0.733   9.993
  122ACC    H0G22721  15.657   0.764   9.909
  122ACC    H0H22722  15.318   0.821   9.748
  122ACC    H0I22723  15.298   0.685   9.858
  122ACC    H0J22724  15.311   0.659   9.685
  122ACC    H0K22725  15.535   0.860   9.632
  122ACC    H0M22726  15.539   0.698   9.568
  122ACC    H0N22727  15.673   0.758   9.665
  122ACC    H0O22728  15.488   0.517   9.883
  122ACC    H0P22729  15.641   0.547   9.803
  122ACC    H0Q22730  15.500   0.503   9.709
  123ACC    C0022731   3.847  14.621  15.043
  123ACC    C0122732   3.985  14.568  15.008
  123ACC    O0222733   4.081  14.584  15.084
  123ACC    O0322734   3.990  14.504  14.890
  123ACC    C0422735   4.113  14.452  14.843
  123ACC    C0522736   4.146  14.319  14.916
  123ACC    N0622737   4.281  14.260  14.886
  123ACC    C0722738   4.298  14.232  14.740
  123ACC    C0822739   4.390  14.349  14.934
  123ACC    C0922740   4.291  14.130  14.959
  123ACC    H0A22741   3.848  14.670  15.140
  123ACC    H0B22742   3.774  14.539  15.047
  123ACC    H0C22743   3.814  14.693  14.968
  123ACC    H0D22744   4.190  14.528  14.858
  123ACC    H0E22745   4.104  14.437  14.736
  123ACC    H0F22746   4.067  14.247  14.893
  123ACC    H0G22747   4.138  14.335  15.024
  123ACC    H0H22748   4.300  14.323  14.680
  123ACC    H0I22749   4.218  14.169  14.701
  123ACC    H0J22750   4.391  14.179  14.719
  123ACC    H0K22751   4.397  14.442  14.878
  123ACC    H0M22752   4.489  14.302  14.926
  123ACC    H0N22753   4.378  14.377  15.039
  123ACC    H0O22754   4.214  14.059  14.929
  123ACC    H0P22755   4.281  14.143  15.068
  123ACC    H0Q22756   4.388  14.080  14.943
  124ACC    C0022757  10.311   4.376   6.529
  124ACC    C0122758  10.206   4.401   6.636
  124ACC    O0222759  10.226   4.478   6.730
  124ACC    O0322760  10.092   4.332   6.616
  124ACC    C0422761   9.984   4.346   6.706
  124ACC    C0522762   9.904   4.474   6.672
  124ACC    N0622763   9.793   4.507   6.767
  124ACC    C0722764   9.693   4.397   6.780
  124ACC    C0822765   9.848   4.542   6.902
  124ACC    C0922766   9.723   4.627   6.713
  124ACC    H0A22767  10.396   4.442   6.545
  124ACC    H0B22768  10.269   4.395   6.430
  124ACC    H0C22769  10.345   4.273   6.534
  124ACC    H0D22770  10.023   4.347   6.808
  124ACC    H0E22771   9.922   4.257   6.697
  124ACC    H0F22772   9.866   4.465   6.571
  124ACC    H0G22773   9.973   4.559   6.669
  124ACC    H0H22774   9.735   4.309   6.828
  124ACC    H0I22775   9.654   4.367   6.683
  124ACC    H0J22776   9.608   4.429   6.841
  124ACC    H0K22777   9.891   4.457   6.955
  124ACC    H0M22778   9.771   4.585   6.967
  124ACC    H0N22779   9.926   4.618   6.895
  124ACC    H0O22780   9.674   4.610   6.617
  124ACC    H0P22781   9.791   4.711   6.699
  124ACC    H0Q22782   9.646   4.666   6.782
  125ACC    C0022783  13.200   9.041   7.939
  125ACC    C0122784  13.319   9.120   7.888
  125ACC    O0222785  13.435   9.093   7.922
  125ACC    O0322786  13.285   9.219   7.804
  125ACC    C0422787  13.384   9.307   7.753
  125ACC    C0522788  13.463   9.238   7.640
  125ACC    N0622789  13.580   9.315   7.586
  125ACC    C0722790  13.538   9.445   7.528
  125ACC    C0822791  13.683   9.337   7.692
  125ACC    C0922792  13.642   9.233   7.478
  125ACC    H0A22793  13.232   8.965   8.010
  125ACC    H0B22794  13.149   8.992   7.856
  125ACC    H0C22795  13.129   9.107   7.988
  125ACC    H0D22796  13.447   9.339   7.836
  125ACC    H0E22797  13.332   9.396   7.717
  125ACC    H0F22798  13.393   9.214   7.559
  125ACC    H0G22799  13.497   9.140   7.676
  125ACC    H0H22800  13.498   9.514   7.603
  125ACC    H0I22801  13.460   9.434   7.452
  125ACC    H0J22802  13.621   9.498   7.479
  125ACC    H0K22803  13.649   9.406   7.770
  125ACC    H0M22804  13.775   9.379   7.652
  125ACC    H0N22805  13.710   9.244   7.743
  125ACC    H0O22806  13.572   9.213   7.396
  125ACC    H0P22807  13.676   9.135   7.514
  125ACC    H0Q22808  13.729   9.282   7.433
  126ACC    C0022809   9.942   9.242  11.559
  126ACC    C0122810  10.066   9.186  11.492
  126ACC    O0222811  10.130   9.252  11.411
  126ACC    O0322812  10.095   9.060  11.531
  126ACC    C0422813  10.204   8.992  11.471
  126ACC    C0522814  10.338   9.039  11.534
  126ACC    N0622815  10.462   8.982  11.473
  126ACC    C0722816  10.464   8.833  11.481
  126ACC    C0822817  10.478   9.024  11.330
  126ACC    C0922818  10.580   9.034  11.549
  126ACC    H0A22819   9.924   9.344  11.525
  126ACC    H0B22820   9.955   9.243  11.667
  126ACC    H0C22821   9.855   9.182  11.534
  126ACC    H0D22822  10.200   9.007  11.363
  126ACC    H0E22823  10.188   8.885  11.488
  126ACC    H0F22824  10.334   9.018  11.641
  126ACC    H0G22825  10.342   9.148  11.527
  126ACC    H0H22826  10.386   8.786  11.419
  126ACC    H0I22827  10.449   8.797  11.583
  126ACC    H0J22828  10.559   8.791  11.446
  126ACC    H0K22829  10.402   8.982  11.264
  126ACC    H0M22830  10.574   8.994  11.289
  126ACC    H0N22831  10.473   9.133  11.320
  126ACC    H0O22832  10.577   9.006  11.654
  126ACC    H0P22833  10.586   9.143  11.545
  126ACC    H0Q22834  10.675   8.997  11.509
  127ACC    C0022835   0.979   3.308  12.516
  127ACC    C0122836   0.942   3.189  12.428
  127ACC    O0222837   0.928   3.076  12.474
  127ACC    O0322838   0.927   3.224  12.300
  127ACC    C0422839   0.906   3.125  12.200
  127ACC    C0522840   0.759   3.074  12.204
  127ACC    N0622841   0.731   2.950  12.124
  127ACC    C0722842   0.751   2.972  11.978
  127ACC    C0822843   0.815   2.835  12.169
  127ACC    C0922844   0.587   2.915  12.144
  127ACC    H0A22845   0.996   3.276  12.619
  127ACC    H0B22846   0.899   3.382  12.515
  127ACC    H0C22847   1.069   3.355  12.478
  127ACC    H0D22848   0.980   3.047  12.215
  127ACC    H0E22849   0.928   3.171  12.104
  127ACC    H0F22850   0.697   3.156  12.169
  127ACC    H0G22851   0.731   3.057  12.308
  127ACC    H0H22852   0.850   3.011  11.954
  127ACC    H0I22853   0.680   3.045  11.940
  127ACC    H0J22854   0.737   2.882  11.918
  127ACC    H0K22855   0.920   2.849  12.143
  127ACC    H0M22856   0.785   2.741  12.122
  127ACC    H0N22857   0.810   2.821  12.277
  127ACC    H0O22858   0.523   2.998  12.114
  127ACC    H0P22859   0.564   2.894  12.249
  127ACC    H0Q22860   0.557   2.829  12.086
  128ACC    C0022861   6.169   5.975  17.343
  128ACC    C0122862   6.217   5.859  17.428
  128ACC    O0222863   6.334   5.852   0.027
  128ACC    O0322864   6.121   5.770   0.015
  128ACC    C0422865   6.149   5.656   0.096
  128ACC    C0522866   6.146   5.695   0.246
  128ACC    N0622867   6.188   5.588   0.342
  128ACC    C0722868   6.104   5.466   0.328
  128ACC    C0822869   6.332   5.554   0.323
  128ACC    C0922870   6.171   5.641   0.480
  128ACC    H0A22871   6.247   6.049  17.330
  128ACC    H0B22872   6.083   6.024  17.390
  128ACC    H0C22873   6.138   5.939  17.245
  128ACC    H0D22874   6.246   5.615   0.064
  128ACC    H0E22875   6.074   5.581   0.073
  128ACC    H0F22876   6.045   5.729   0.269
  128ACC    H0G22877   6.209   5.784   0.260
  128ACC    H0H22878   6.117   5.416   0.232
  128ACC    H0I22879   5.997   5.488   0.339
  128ACC    H0J22880   6.127   5.391   0.405
  128ACC    H0K22881   6.352   5.505   0.228
  128ACC    H0M22882   6.368   5.485   0.401
  128ACC    H0N22883   6.396   5.642   0.328
  128ACC    H0O22884   6.067   5.667   0.502
  128ACC    H0P22885   6.230   5.731   0.499
  128ACC    H0Q22886   6.200   5.569   0.557
  129ACC    C0022887  12.637   7.774   3.399
  129ACC    C0122888  12.567   7.780   3.264
  129ACC    O0222889  12.463   7.717   3.242
  129ACC    O0322890  12.628   7.861   3.176
  129ACC    C0422891  12.577   7.874   3.044
  129ACC    C0522892  12.454   7.968   3.045
  129ACC    N0622893  12.381   7.979   2.914
  129ACC    C0722894  12.469   8.028   2.805
  129ACC    C0822895  12.320   7.848   2.876
  129ACC    C0922896  12.270   8.078   2.933
  129ACC    H0A22897  12.584   7.709   3.467
  129ACC    H0B22898  12.643   7.874   3.443
  129ACC    H0C22899  12.738   7.736   3.386
  129ACC    H0D22900  12.554   7.774   3.007
  129ACC    H0E22901  12.658   7.913   2.982
  129ACC    H0F22902  12.489   8.067   3.078
  129ACC    H0G22903  12.385   7.935   3.123
  129ACC    H0H22904  12.549   7.958   2.780
  129ACC    H0I22905  12.518   8.123   2.832
  129ACC    H0J22906  12.414   8.046   2.712
  129ACC    H0K22907  12.395   7.773   2.850
  129ACC    H0M22908  12.255   7.857   2.789
  129ACC    H0N22909  12.260   7.806   2.957
  129ACC    H0O22910  12.307   8.177   2.961
  129ACC    H0P22911  12.200   8.047   3.012
  129ACC    H0Q22912  12.210   8.091   2.842
  130ACC    C0022913   9.097   2.727   8.865
  130ACC    C0122914   9.045   2.589   8.903
  130ACC    O0222915   9.055   2.545   9.017
  130ACC    O0322916   8.987   2.525   8.800
  130ACC    C0422917   8.940   2.392   8.819
  130ACC    C0522918   8.805   2.393   8.896
  130ACC    N0622919   8.753   2.258   8.937
  130ACC    C0722920   8.731   2.170   8.819
  130ACC    C0822921   8.845   2.192   9.033
  130ACC    C0922922   8.622   2.279   9.005
  130ACC    H0A22923   9.143   2.775   8.952
  130ACC    H0B22924   9.016   2.791   8.831
  130ACC    H0C22925   9.172   2.719   8.787
  130ACC    H0D22926   9.018   2.336   8.870
  130ACC    H0E22927   8.929   2.347   8.720
  130ACC    H0F22928   8.732   2.446   8.834
  130ACC    H0G22929   8.817   2.455   8.985
  130ACC    H0H22930   8.824   2.143   8.768
  130ACC    H0I22931   8.666   2.217   8.744
  130ACC    H0J22932   8.683   2.075   8.847
  130ACC    H0K22933   8.940   2.163   8.988
  130ACC    H0M22934   8.803   2.100   9.075
  130ACC    H0N22935   8.870   2.257   9.118
  130ACC    H0O22936   8.548   2.327   8.940
  130ACC    H0P22937   8.631   2.342   9.094
  130ACC    H0Q22938   8.577   2.185   9.039
  131ACC    C0022939   0.691  10.413   8.891
  131ACC    C0122940   0.769  10.390   8.763
  131ACC    O0222941   0.850  10.473   8.721
  131ACC    O0322942   0.741  10.272   8.705
  131ACC    C0422943   0.790  10.242   8.575
  131ACC    C0522944   0.941  10.208   8.577
  131ACC    N0622945   1.003  10.181   8.443
  131ACC    C0722946   0.944  10.060   8.379
  131ACC    C0822947   0.990  10.298   8.351
  131ACC    C0922948   1.149  10.156   8.464
  131ACC    H0A22949   0.703  10.517   8.925
  131ACC    H0B22950   0.726  10.347   8.970
  131ACC    H0C22951   0.585  10.395   8.875
  131ACC    H0D22952   0.767  10.327   8.510
  131ACC    H0E22953   0.731  10.158   8.539
  131ACC    H0F22954   0.956  10.123   8.644
  131ACC    H0G22955   0.994  10.291   8.624
  131ACC    H0H22956   0.839  10.073   8.353
  131ACC    H0I22957   0.950   9.972   8.444
  131ACC    H0J22958   0.995  10.034   8.287
  131ACC    H0K22959   0.888  10.316   8.319
  131ACC    H0M22960   1.048  10.285   8.259
  131ACC    H0N22961   1.026  10.391   8.397
  131ACC    H0O22962   1.168  10.070   8.530
  131ACC    H0P22963   1.200  10.242   8.508
  131ACC    H0Q22964   1.201  10.134   8.370
  132ACC    C0022965  17.017   1.704   5.018
  132ACC    C0122966  16.880   1.756   5.060
  132ACC    O0222967  16.861   1.804   5.172
  132ACC    O0322968  16.788   1.742   4.963
  132ACC    C0422969  16.651   1.769   4.990
  132ACC    C0522970  16.623   1.920   5.002
  132ACC    N0622971  16.484   1.956   5.046
  132ACC    C0722972  16.384   1.912   4.944
  132ACC    C0822973  16.451   1.898   5.179
  132ACC    C0922974  16.477   2.105   5.060
  132ACC    H0A22975  17.086   1.704   5.102
  132ACC    H0B22976  17.058   1.766   4.938
  132ACC    H0C22977  17.008   1.601   4.981
  132ACC    H0D22978  16.624   1.713   5.080
  132ACC    H0E22979  16.594   1.725   4.907
  132ACC    H0F22980  16.644   1.966   4.905
  132ACC    H0G22981  16.695   1.965   5.070
  132ACC    H0H22982  16.376   1.803   4.937
  132ACC    H0I22983  16.410   1.947   4.844
  132ACC    H0J22984  16.284   1.950   4.965
  132ACC    H0K22985  16.441   1.790   5.177
  132ACC    H0M22986  16.356   1.937   5.217
  132ACC    H0N22987  16.527   1.922   5.254
  132ACC    H0O22988  16.508   2.156   4.969
  132ACC    H0P22989  16.544   2.142   5.139
  132ACC    H0Q22990  16.377   2.140   5.083
  133ACC    C0022991  16.244  10.740  16.765
  133ACC    C0122992  16.344  10.633  16.808
  133ACC    O0222993  16.430  10.656  16.893
  133ACC    O0322994  16.326  10.516  16.745
  133ACC    C0422995  16.414  10.408  16.773
  133ACC    C0522996  16.376  10.339  16.907
  133ACC    N0622997  16.466  10.229  16.952
  133ACC    C0722998  16.476  10.120  16.850
  133ACC    C0822999  16.603  10.279  16.984
  133ACC    C0923000  16.409  10.170  17.077
  133ACC    H0A23001  16.262  10.832  16.822
  133ACC    H0B23002  16.142  10.707  16.784
  133ACC    H0C23003  16.256  10.763  16.660
  133ACC    H0D23004  16.517  10.445  16.774
  133ACC    H0E23005  16.407  10.338  16.689
  133ACC    H0F23006  16.273  10.303  16.897
  133ACC    H0G23007  16.372  10.416  16.985
  133ACC    H0H23008  16.527  10.152  16.759
  133ACC    H0I23009  16.378  10.081  16.821
  133ACC    H0J23010  16.533  10.035  16.888
  133ACC    H0K23011  16.658  10.316  16.897
  133ACC    H0M23012  16.666  10.202  17.029
  133ACC    H0N23013  16.601  10.361  17.057
  133ACC    H0O23014  16.309  10.129  17.061
  133ACC    H0P23015  16.400  10.245  17.156
  133ACC    H0Q23016  16.471  10.090  17.117
  134ACC    C0023017   5.277  11.784  13.121
  134ACC    C0123018   5.402  11.793  13.207
  134ACC    O0223019   5.514  11.807  13.158
  134ACC    O0323020   5.376  11.786  13.339
  134ACC    C0423021   5.483  11.776  13.431
  134ACC    C0523022   5.554  11.913  13.449
  134ACC    N0623023   5.680  11.911  13.530
  134ACC    C0723024   5.653  11.864  13.669
  134ACC    C0823025   5.784  11.825  13.467
  134ACC    C0923026   5.732  12.050  13.536
  134ACC    H0A23027   5.304  11.781  13.015
  134ACC    H0B23028   5.212  11.870  13.137
  134ACC    H0C23029   5.221  11.693  13.144
  134ACC    H0D23030   5.550  11.698  13.393
  134ACC    H0E23031   5.442  11.739  13.525
  134ACC    H0F23032   5.481  11.982  13.491
  134ACC    H0G23033   5.577  11.953  13.350
  134ACC    H0H23034   5.622  11.760  13.673
  134ACC    H0I23035   5.574  11.923  13.718
  134ACC    H0J23036   5.742  11.872  13.733
  134ACC    H0K23037   5.758  11.718  13.469
  134ACC    H0M23038   5.881  11.833  13.516
  134ACC    H0N23039   5.799  11.850  13.361
  134ACC    H0O23040   5.661  12.120  13.581
  134ACC    H0P23041   5.755  12.089  13.436
  134ACC    H0Q23042   5.824  12.058  13.594
  135ACC    C0023043   6.974  10.727  15.466
  135ACC    C0123044   6.955  10.776  15.609
  135ACC    O0223045   6.844  10.791  15.659
  135ACC    O0323046   7.072  10.797  15.672
  135ACC    C0423047   7.072  10.846  15.806
  135ACC    C0523048   7.044  10.729  15.904
  135ACC    N0623049   7.026  10.769  16.048
  135ACC    C0723050   7.147  10.839  16.101
  135ACC    C0823051   6.905  10.855  16.065
  135ACC    C0923052   7.006  10.644  16.127
  135ACC    H0A23053   6.878  10.707  15.419
  135ACC    H0B23054   7.033  10.635  15.465
  135ACC    H0C23055   7.026  10.802  15.407
  135ACC    H0D23056   7.000  10.927  15.813
  135ACC    H0E23057   7.171  10.890  15.824
  135ACC    H0F23058   7.127  10.658  15.895
  135ACC    H0G23059   6.956  10.675  15.870
  135ACC    H0H23060   7.164  10.935  16.054
  135ACC    H0I23061   7.238  10.780  16.088
  135ACC    H0J23062   7.138  10.859  16.209
  135ACC    H0K23063   6.917  10.953  16.019
  135ACC    H0M23064   6.883  10.873  16.170
  135ACC    H0N23065   6.817  10.809  16.020
  135ACC    H0O23066   7.092  10.577  16.121
  135ACC    H0P23067   6.919  10.587  16.094
  135ACC    H0Q23068   6.992  10.664  16.234
  136ACC    C0023069   2.604  16.993   3.530
  136ACC    C0123070   2.501  16.882   3.539
  136ACC    O0223071   2.472  16.812   3.442
  136ACC    O0323072   2.449  16.868   3.662
  136ACC    C0423073   2.343  16.776   3.685
  136ACC    C0523074   2.398  16.631   3.692
  136ACC    N0623075   2.295  16.523   3.703
  136ACC    C0723076   2.213  16.539   3.827
  136ACC    C0823077   2.206  16.520   3.583
  136ACC    C0923078   2.367  16.392   3.711
  136ACC    H0A23079   2.640  17.003   3.428
  136ACC    H0B23080   2.688  16.972   3.595
  136ACC    H0C23081   2.559  17.088   3.560
  136ACC    H0D23082   2.269  16.789   3.605
  136ACC    H0E23083   2.295  16.805   3.778
  136ACC    H0F23084   2.469  16.626   3.775
  136ACC    H0G23085   2.459  16.613   3.603
  136ACC    H0H23086   2.150  16.628   3.825
  136ACC    H0I23087   2.274  16.545   3.917
  136ACC    H0J23088   2.144  16.455   3.841
  136ACC    H0K23089   2.141  16.607   3.576
  136ACC    H0M23090   2.139  16.433   3.584
  136ACC    H0N23091   2.263  16.515   3.490
  136ACC    H0O23092   2.434  16.387   3.798
  136ACC    H0P23093   2.428  16.373   3.623
  136ACC    H0Q23094   2.298  16.307   3.720
  137ACC    C0023095   3.710  14.088  11.448
  137ACC    C0123096   3.859  14.078  11.478
  137ACC    O0223097   3.903  14.081  11.593
  137ACC    O0323098   3.934  14.067  11.367
  137ACC    C0423099   4.075  14.054  11.379
  137ACC    C0523100   4.111  13.908  11.416
  137ACC    N0623101   4.255  13.883  11.449
  137ACC    C0723102   4.345  13.922  11.337
  137ACC    C0823103   4.294  13.955  11.574
  137ACC    C0923104   4.271  13.736  11.473
  137ACC    H0A23105   3.652  14.089  11.540
  137ACC    H0B23106   3.677  14.002  11.389
  137ACC    H0C23107   3.688  14.179  11.392
  137ACC    H0D23108   4.110  14.127  11.453
  137ACC    H0E23109   4.118  14.083  11.283
  137ACC    H0F23110   4.079  13.844  11.333
  137ACC    H0G23111   4.049  13.877  11.500
  137ACC    H0H23112   4.345  14.030  11.318
  137ACC    H0I23113   4.317  13.874  11.243
  137ACC    H0J23114   4.449  13.895  11.356
  137ACC    H0K23115   4.294  14.063  11.562
  137ACC    H0M23116   4.395  13.928  11.607
  137ACC    H0N23117   4.227  13.932  11.657
  137ACC    H0O23118   4.245  13.677  11.385
  137ACC    H0P23119   4.208  13.700  11.554
  137ACC    H0Q23120   4.374  13.709  11.498
  138ACC    C0023121  13.880  12.211   3.305
  138ACC    C0123122  13.864  12.326   3.207
  138ACC    O0223123  13.819  12.309   3.093
  138ACC    O0323124  13.903  12.444   3.257
  138ACC    C0423125  13.900  12.560   3.176
  138ACC    C0523126  13.755  12.615   3.165
  138ACC    N0623127  13.736  12.731   3.072
  138ACC    C0723128  13.821  12.848   3.113
  138ACC    C0823129  13.767  12.693   2.931
  138ACC    C0923130  13.593  12.773   3.079
  138ACC    H0A23131  13.847  12.117   3.260
  138ACC    H0B23132  13.821  12.229   3.394
  138ACC    H0C23133  13.985  12.201   3.334
  138ACC    H0D23134  13.943  12.535   3.079
  138ACC    H0E23135  13.967  12.633   3.223
  138ACC    H0F23136  13.722  12.641   3.266
  138ACC    H0G23137  13.690  12.533   3.135
  138ACC    H0H23138  13.928  12.828   3.102
  138ACC    H0I23139  13.804  12.877   3.217
  138ACC    H0J23140  13.800  12.936   3.052
  138ACC    H0K23141  13.873  12.671   2.915
  138ACC    H0M23142  13.741  12.772   2.861
  138ACC    H0N23143  13.712  12.603   2.901
  138ACC    H0O23144  13.563  12.804   3.180
  138ACC    H0P23145  13.525  12.692   3.050
  138ACC    H0Q23146  13.571  12.857   3.013
  139ACC    C0023147   3.648   6.656   9.554
  139ACC    C0123148   3.622   6.800   9.596
  139ACC    O0223149   3.508   6.840   9.620
  139ACC    O0323150   3.734   6.874   9.604
  139ACC    C0423151   3.724   7.012   9.634
  139ACC    C0523152   3.699   7.034   9.786
  139ACC    N0623153   3.676   7.176   9.829
  139ACC    C0723154   3.792   7.264   9.793
  139ACC    C0823155   3.551   7.230   9.769
  139ACC    C0923156   3.661   7.177   9.977
  139ACC    H0A23157   3.554   6.601   9.549
  139ACC    H0B23158   3.713   6.607   9.626
  139ACC    H0C23159   3.695   6.654   9.456
  139ACC    H0D23160   3.644   7.055   9.573
  139ACC    H0E23161   3.817   7.059   9.602
  139ACC    H0F23162   3.784   6.991   9.840
  139ACC    H0G23163   3.613   6.973   9.816
  139ACC    H0H23164   3.804   7.276   9.685
  139ACC    H0I23165   3.886   7.225   9.832
  139ACC    H0J23166   3.780   7.365   9.833
  139ACC    H0K23167   3.557   7.243   9.661
  139ACC    H0M23168   3.526   7.329   9.809
  139ACC    H0N23169   3.464   7.166   9.788
  139ACC    H0O23170   3.749   7.139  10.029
  139ACC    H0P23171   3.576   7.116  10.010
  139ACC    H0Q23172   3.642   7.278  10.016
  140ACC    C0023173   0.382   2.103  13.757
  140ACC    C0123174   0.422   2.076  13.901
  140ACC    O0223175   0.504   2.147  13.959
  140ACC    O0323176   0.360   1.970  13.954
  140ACC    C0423177   0.392   1.929  14.087
  140ACC    C0523178   0.321   2.020  14.190
  140ACC    N0623179   0.355   1.995  14.334
  140ACC    C0723180   0.325   1.855  14.374
  140ACC    C0823181   0.499   2.026  14.361
  140ACC    C0923182   0.272   2.086  14.418
  140ACC    H0A23183   0.434   2.191  13.720
  140ACC    H0B23184   0.275   2.119  13.750
  140ACC    H0C23185   0.410   2.018  13.694
  140ACC    H0D23186   0.500   1.930  14.098
  140ACC    H0E23187   0.361   1.825  14.097
  140ACC    H0F23188   0.213   2.011  14.175
  140ACC    H0G23189   0.343   2.125  14.166
  140ACC    H0H23190   0.390   1.782  14.324
  140ACC    H0I23191   0.222   1.827  14.352
  140ACC    H0J23192   0.341   1.839  14.481
  140ACC    H0K23193   0.568   1.957  14.311
  140ACC    H0M23194   0.523   2.021  14.467
  140ACC    H0N23195   0.526   2.127  14.328
  140ACC    H0O23196   0.165   2.070  14.405
  140ACC    H0P23197   0.291   2.192  14.395
  140ACC    H0Q23198   0.293   2.075  14.525
  141ACC    C0023199   3.938  11.457   5.803
  141ACC    C0123200   3.817  11.481   5.891
  141ACC    O0223201   3.707  11.512   5.843
  141ACC    O0323202   3.843  11.464   6.022
  141ACC    C0423203   3.749  11.505   6.120
  141ACC    C0523204   3.630  11.406   6.130
  141ACC    N0623205   3.522  11.444   6.228
  141ACC    C0723206   3.573  11.444   6.368
  141ACC    C0823207   3.463  11.577   6.196
  141ACC    C0923208   3.413  11.342   6.218
  141ACC    H0A23209   3.920  11.491   5.701
  141ACC    H0B23210   3.964  11.351   5.801
  141ACC    H0C23211   4.024  11.512   5.841
  141ACC    H0D23212   3.718  11.607   6.096
  141ACC    H0E23213   3.803  11.511   6.215
  141ACC    H0F23214   3.670  11.307   6.154
  141ACC    H0G23215   3.586  11.396   6.031
  141ACC    H0H23216   3.648  11.522   6.385
  141ACC    H0I23217   3.619  11.349   6.395
  141ACC    H0J23218   3.493  11.463   6.440
  141ACC    H0K23219   3.532  11.660   6.214
  141ACC    H0M23220   3.375  11.599   6.257
  141ACC    H0N23221   3.432  11.585   6.091
  141ACC    H0O23222   3.449  11.241   6.242
  141ACC    H0P23223   3.369  11.337   6.119
  141ACC    H0Q23224   3.331  11.362   6.287
  142ACC    C0023225   6.124  11.788  11.746
  142ACC    C0123226   5.990  11.824  11.808
  142ACC    O0223227   5.981  11.908  11.898
  142ACC    O0323228   5.888  11.757  11.753
  142ACC    C0423229   5.762  11.750  11.819
  142ACC    C0523230   5.682  11.882  11.810
  142ACC    N0623231   5.549  11.882  11.880
  142ACC    C0723232   5.454  11.786  11.817
  142ACC    C0823233   5.562  11.850  12.025
  142ACC    C0923234   5.490  12.019  11.868
  142ACC    H0A23235   6.206  11.825  11.809
  142ACC    H0B23236   6.134  11.831  11.647
  142ACC    H0C23237   6.134  11.680  11.739
  142ACC    H0D23238   5.780  11.719  11.922
  142ACC    H0E23239   5.707  11.668  11.771
  142ACC    H0F23240   5.669  11.907  11.705
  142ACC    H0G23241   5.743  11.962  11.852
  142ACC    H0H23242   5.484  11.682  11.829
  142ACC    H0I23243   5.441  11.803  11.709
  142ACC    H0J23244   5.354  11.792  11.861
  142ACC    H0K23245   5.590  11.746  12.043
  142ACC    H0M23246   5.468  11.863  12.080
  142ACC    H0N23247   5.637  11.912  12.075
  142ACC    H0O23248   5.475  12.049  11.764
  142ACC    H0P23249   5.553  12.095  11.915
  142ACC    H0Q23250   5.392  12.026  11.916
  143ACC    C0023251   1.897   0.270   5.993
  143ACC    C0123252   1.895   0.280   5.841
  143ACC    O0223253   1.890   0.389   5.784
  143ACC    O0323254   1.900   0.160   5.780
  143ACC    C0423255   1.888   0.153   5.638
  143ACC    C0523256   2.022   0.192   5.571
  143ACC    N0623257   2.019   0.200   5.421
  143ACC    C0723258   1.980   0.069   5.360
  143ACC    C0823259   1.926   0.307   5.374
  143ACC    C0923260   2.157   0.234   5.374
  143ACC    H0A23261   1.891   0.369   6.037
  143ACC    H0B23262   1.989   0.222   6.026
  143ACC    H0C23263   1.812   0.211   6.028
  143ACC    H0D23264   1.805   0.217   5.608
  143ACC    H0E23265   1.859   0.051   5.614
  143ACC    H0F23266   2.098   0.122   5.604
  143ACC    H0G23267   2.054   0.289   5.610
  143ACC    H0H23268   1.877   0.042   5.382
  143ACC    H0I23269   2.044  17.427   5.395
  143ACC    H0J23270   1.988   0.071   5.251
  143ACC    H0K23271   1.822   0.285   5.394
  143ACC    H0M23272   1.933   0.323   5.266
  143ACC    H0N23273   1.948   0.403   5.420
  143ACC    H0O23274   2.231   0.160   5.404
  143ACC    H0P23275   2.191   0.331   5.413
  143ACC    H0Q23276   2.163   0.242   5.265
  144ACC    C0023277   8.287   9.653  11.124
  144ACC    C0123278   8.333   9.591  11.255
  144ACC    O0223279   8.425   9.509  11.259
  144ACC    O0323280   8.265   9.636  11.361
  144ACC    C0423281   8.294   9.584  11.490
  144ACC    C0523282   8.423   9.648  11.546
  144ACC    N0623283   8.474   9.590  11.675
  144ACC    C0723284   8.373   9.601  11.783
  144ACC    C0823285   8.515   9.448  11.657
  144ACC    C0923286   8.595   9.669  11.715
  144ACC    H0A23287   8.346   9.615  11.041
  144ACC    H0B23288   8.298   9.761  11.127
  144ACC    H0C23289   8.183   9.629  11.105
  144ACC    H0D23290   8.300   9.475  11.482
  144ACC    H0E23291   8.208   9.605  11.554
  144ACC    H0F23292   8.405   9.756  11.556
  144ACC    H0G23293   8.501   9.640  11.470
  144ACC    H0H23294   8.285   9.539  11.765
  144ACC    H0I23295   8.338   9.704  11.797
  144ACC    H0J23296   8.413   9.569  11.880
  144ACC    H0K23297   8.431   9.382  11.637
  144ACC    H0M23298   8.565   9.408  11.745
  144ACC    H0N23299   8.585   9.436  11.573
  144ACC    H0O23300   8.573   9.775  11.730
  144ACC    H0P23301   8.674   9.664  11.639
  144ACC    H0Q23302   8.639   9.632  11.808
  145ACC    C0023303  15.552  16.019   4.206
  145ACC    C0123304  15.525  16.167   4.186
  145ACC    O0223305  15.508  16.244   4.280
  145ACC    O0323306  15.524  16.203   4.056
  145ACC    C0423307  15.495  16.337   4.020
  145ACC    C0523308  15.620  16.426   4.040
  145ACC    N0623309  15.599  16.573   4.017
  145ACC    C0723310  15.552  16.601   3.878
  145ACC    C0823311  15.503  16.630   4.115
  145ACC    C0923312  15.731  16.642   4.036
  145ACC    H0A23313  15.553  15.995   4.312
  145ACC    H0B23314  15.648  15.991   4.163
  145ACC    H0C23315  15.474  15.960   4.159
  145ACC    H0D23316  15.409  16.371   4.078
  145ACC    H0E23317  15.464  16.336   3.915
  145ACC    H0F23318  15.699  16.388   3.975
  145ACC    H0G23319  15.657  16.411   4.142
  145ACC    H0H23320  15.452  16.561   3.858
  145ACC    H0I23321  15.619  16.558   3.803
  145ACC    H0J23322  15.547  16.708   3.857
  145ACC    H0K23323  15.401  16.593   4.101
  145ACC    H0M23324  15.496  16.739   4.108
  145ACC    H0N23325  15.531  16.607   4.218
  145ACC    H0O23326  15.807  16.606   3.966
  145ACC    H0P23327  15.771  16.627   4.136
  145ACC    H0Q23328  15.724  16.750   4.021
  146ACC    C0023329  13.433  16.316   0.971
  146ACC    C0123330  13.436  16.343   1.120
  146ACC    O0223331  13.480  16.447   1.168
  146ACC    O0323332  13.384  16.242   1.192
  146ACC    C0423333  13.383  16.249   1.334
  146ACC    C0523334  13.267  16.340   1.382
  146ACC    N0623335  13.266  16.372   1.528
  146ACC    C0723336  13.258  16.248   1.610
  146ACC    C0823337  13.386  16.452   1.566
  146ACC    C0923338  13.144  16.454   1.556
  146ACC    H0A23339  13.473  16.402   0.916
  146ACC    H0B23340  13.331  16.298   0.937
  146ACC    H0C23341  13.494  16.229   0.947
  146ACC    H0D23342  13.481  16.284   1.366
  146ACC    H0E23343  13.371  16.147   1.371
  146ACC    H0F23344  13.173  16.293   1.352
  146ACC    H0G23345  13.270  16.434   1.325
  146ACC    H0H23346  13.346  16.185   1.600
  146ACC    H0I23347  13.172  16.186   1.582
  146ACC    H0J23348  13.247  16.269   1.717
  146ACC    H0K23349  13.479  16.395   1.558
  146ACC    H0M23350  13.381  16.487   1.669
  146ACC    H0N23351  13.398  16.540   1.503
  146ACC    H0O23352  13.052  16.401   1.530
  146ACC    H0P23353  13.143  16.547   1.499
  146ACC    H0Q23354  13.135  16.481   1.661
  147ACC    C0023355  13.568   1.944  11.348
  147ACC    C0123356  13.569   2.056  11.245
  147ACC    O0223357  13.667   2.129  11.229
  147ACC    O0323358  13.454   2.064  11.176
  147ACC    C0423359  13.440   2.160  11.072
  147ACC    C0523360  13.498   2.100  10.941
  147ACC    N0623361  13.500   2.193  10.823
  147ACC    C0723362  13.364   2.246  10.791
  147ACC    C0823363  13.594   2.307  10.846
  147ACC    C0923364  13.550   2.116  10.705
  147ACC    H0A23365  13.667   1.931  11.391
  147ACC    H0B23366  13.539   1.850  11.302
  147ACC    H0C23367  13.498   1.967  11.428
  147ACC    H0D23368  13.488   2.253  11.101
  147ACC    H0E23369  13.333   2.181  11.062
  147ACC    H0F23370  13.440   2.011  10.917
  147ACC    H0G23371  13.599   2.064  10.961
  147ACC    H0H23372  13.325   2.311  10.868
  147ACC    H0I23373  13.292   2.166  10.776
  147ACC    H0J23374  13.365   2.305  10.699
  147ACC    H0K23375  13.560   2.374  10.925
  147ACC    H0M23376  13.606   2.369  10.757
  147ACC    H0N23377  13.694   2.273  10.874
  147ACC    H0O23378  13.485   2.031  10.681
  147ACC    H0P23379  13.650   2.073  10.722
  147ACC    H0Q23380  13.558   2.177  10.615
  148ACC    C0023381  13.993   1.578   7.484
  148ACC    C0123382  13.994   1.726   7.448
  148ACC    O0223383  13.954   1.765   7.339
  148ACC    O0323384  14.042   1.803   7.547
  148ACC    C0423385  14.060   1.943   7.525
  148ACC    C0523386  13.925   2.017   7.536
  148ACC    N0623387  13.930   2.165   7.511
  148ACC    C0723388  14.022   2.235   7.604
  148ACC    C0823389  13.970   2.194   7.370
  148ACC    C0923390  13.792   2.219   7.532
  148ACC    H0A23391  13.956   1.519   7.401
  148ACC    H0B23392  13.930   1.561   7.571
  148ACC    H0C23393  14.094   1.545   7.507
  148ACC    H0D23394  14.107   1.957   7.428
  148ACC    H0E23395  14.131   1.978   7.600
  148ACC    H0F23396  13.882   1.997   7.635
  148ACC    H0G23397  13.854   1.972   7.465
  148ACC    H0H23398  14.126   2.208   7.589
  148ACC    H0I23399  13.997   2.215   7.709
  148ACC    H0J23400  14.016   2.344   7.591
  148ACC    H0K23401  14.072   2.165   7.346
  148ACC    H0M23402  13.961   2.300   7.346
  148ACC    H0N23403  13.905   2.143   7.298
  148ACC    H0O23404  13.755   2.205   7.633
  148ACC    H0P23405  13.720   2.172   7.464
  148ACC    H0Q23406  13.786   2.326   7.510
  149ACC    C0023407   6.325   1.033   2.019
  149ACC    C0123408   6.196   1.112   2.009
  149ACC    O0223409   6.129   1.142   2.108
  149ACC    O0323410   6.164   1.145   1.882
  149ACC    C0423411   6.042   1.212   1.855
  149ACC    C0523412   6.052   1.362   1.893
  149ACC    N0623413   5.924   1.440   1.883
  149ACC    C0723414   5.871   1.440   1.743
  149ACC    C0823415   5.821   1.388   1.977
  149ACC    C0923416   5.955   1.581   1.921
  149ACC    H0A23417   6.344   1.004   2.123
  149ACC    H0B23418   6.409   1.092   1.983
  149ACC    H0C23419   6.318   0.942   1.960
  149ACC    H0D23420   5.962   1.159   1.909
  149ACC    H0E23421   6.021   1.199   1.749
  149ACC    H0F23422   6.130   1.406   1.831
  149ACC    H0G23423   6.090   1.369   1.996
  149ACC    H0H23424   5.839   1.340   1.711
  149ACC    H0I23425   5.946   1.474   1.671
  149ACC    H0J23426   5.784   1.505   1.733
  149ACC    H0K23427   5.785   1.289   1.949
  149ACC    H0M23428   5.733   1.452   1.981
  149ACC    H0N23429   5.859   1.379   2.079
  149ACC    H0O23430   6.030   1.626   1.856
  149ACC    H0P23431   5.994   1.589   2.023
  149ACC    H0Q23432   5.867   1.646   1.916
  150ACC    C0023433   1.105   6.118  10.708
  150ACC    C0123434   1.200   6.011  10.659
  150ACC    O0223435   1.228   5.999  10.539
  150ACC    O0323436   1.249   5.935  10.758
  150ACC    C0423437   1.333   5.825  10.729
  150ACC    C0523438   1.476   5.872  10.695
  150ACC    N0623439   1.568   5.767  10.642
  150ACC    C0723440   1.591   5.661  10.745
  150ACC    C0823441   1.516   5.706  10.516
  150ACC    C0923442   1.699   5.831  10.611
  150ACC    H0A23443   1.069   6.179  10.626
  150ACC    H0B23444   1.156   6.183  10.780
  150ACC    H0C23445   1.020   6.072  10.757
  150ACC    H0D23446   1.286   5.768  10.648
  150ACC    H0E23447   1.333   5.760  10.817
  150ACC    H0F23448   1.519   5.917  10.786
  150ACC    H0G23449   1.471   5.955  10.624
  150ACC    H0H23450   1.500   5.604  10.768
  150ACC    H0I23451   1.624   5.704  10.840
  150ACC    H0J23452   1.667   5.589  10.716
  150ACC    H0K23453   1.427   5.646  10.532
  150ACC    H0M23454   1.590   5.641  10.469
  150ACC    H0N23455   1.490   5.783  10.443
  150ACC    H0O23456   1.744   5.877  10.698
  150ACC    H0P23457   1.690   5.911  10.537
  150ACC    H0Q23458   1.773   5.760  10.573
  151ACC    C0023459  15.651   9.338   7.318
  151ACC    C0123460  15.684   9.191   7.297
  151ACC    O0223461  15.761   9.131   7.373
  151ACC    O0323462  15.621   9.136   7.192
  151ACC    C0423463  15.650   9.002   7.156
  151ACC    C0523464  15.575   8.904   7.250
  151ACC    N0623465  15.617   8.760   7.239
  151ACC    C0723466  15.597   8.707   7.101
  151ACC    C0823467  15.760   8.745   7.279
  151ACC    C0923468  15.534   8.680   7.332
  151ACC    H0A23469  15.703   9.376   7.406
  151ACC    H0B23470  15.544   9.351   7.331
  151ACC    H0C23471  15.684   9.395   7.231
  151ACC    H0D23472  15.758   8.988   7.159
  151ACC    H0E23473  15.620   8.987   7.052
  151ACC    H0F23474  15.468   8.913   7.232
  151ACC    H0G23475  15.589   8.936   7.353
  151ACC    H0H23476  15.662   8.754   7.027
  151ACC    H0I23477  15.494   8.717   7.067
  151ACC    H0J23478  15.619   8.600   7.097
  151ACC    H0K23479  15.831   8.786   7.206
  151ACC    H0M23480  15.789   8.641   7.291
  151ACC    H0N23481  15.782   8.793   7.375
  151ACC    H0O23482  15.427   8.687   7.311
  151ACC    H0P23483  15.548   8.708   7.437
  151ACC    H0Q23484  15.558   8.573   7.328
  152ACC    C0023485   5.913   5.687   6.642
  152ACC    C0123486   5.961   5.806   6.722
  152ACC    O0223487   5.897   5.911   6.729
  152ACC    O0323488   6.079   5.785   6.784
  152ACC    C0423489   6.140   5.891   6.857
  152ACC    C0523490   6.069   5.908   6.994
  152ACC    N0623491   6.112   6.027   7.075
  152ACC    C0723492   6.258   6.025   7.103
  152ACC    C0823493   6.075   6.154   7.005
  152ACC    C0923494   6.038   6.023   7.204
  152ACC    H0A23495   5.817   5.709   6.595
  152ACC    H0B23496   5.901   5.600   6.707
  152ACC    H0C23497   5.985   5.662   6.564
  152ACC    H0D23498   6.135   5.981   6.796
  152ACC    H0E23499   6.245   5.866   6.869
  152ACC    H0F23500   6.084   5.816   7.051
  152ACC    H0G23501   5.961   5.913   6.978
  152ACC    H0H23502   6.318   6.036   7.013
  152ACC    H0I23503   6.289   5.932   7.151
  152ACC    H0J23504   6.288   6.106   7.170
  152ACC    H0K23505   6.133   6.170   6.913
  152ACC    H0M23506   6.093   6.242   7.067
  152ACC    H0N23507   5.970   6.156   6.976
  152ACC    H0O23508   6.060   5.933   7.262
  152ACC    H0P23509   5.930   6.026   7.190
  152ACC    H0Q23510   6.063   6.108   7.269
  153ACC    C0023511   9.966   2.109  16.269
  153ACC    C0123512  10.097   2.168  16.319
  153ACC    O0223513  10.114   2.198  16.437
  153ACC    O0323514  10.189   2.180  16.221
  153ACC    C0423515  10.314   2.240  16.250
  153ACC    C0523516  10.406   2.139  16.323
  153ACC    N0623517  10.537   2.194  16.372
  153ACC    C0723518  10.619   2.248  16.259
  153ACC    C0823519  10.516   2.300  16.475
  153ACC    C0923520  10.613   2.082  16.435
  153ACC    H0A23521   9.894   2.102  16.351
  153ACC    H0B23522   9.982   2.010  16.227
  153ACC    H0C23523   9.923   2.173  16.192
  153ACC    H0D23524  10.296   2.331  16.308
  153ACC    H0E23525  10.357   2.272  16.155
  153ACC    H0F23526  10.423   2.055  16.256
  153ACC    H0G23527  10.351   2.098  16.409
  153ACC    H0H23528  10.573   2.336  16.213
  153ACC    H0I23529  10.633   2.175  16.180
  153ACC    H0J23530  10.718   2.279  16.291
  153ACC    H0K23531  10.471   2.391  16.434
  153ACC    H0M23532  10.610   2.332  16.521
  153ACC    H0N23533  10.451   2.266  16.556
  153ACC    H0O23534  10.633   2.001  16.365
  153ACC    H0P23535  10.559   2.039  16.520
  153ACC    H0Q23536  10.710   2.115  16.473
  154ACC    C0023537  10.610   0.922   4.754
  154ACC    C0123538  10.644   0.886   4.898
  154ACC    O0223539  10.721   0.954   4.965
  154ACC    O0323540  10.580   0.776   4.941
  154ACC    C0423541  10.608   0.725   5.070
  154ACC    C0523542  10.534   0.808   5.178
  154ACC    N0623543  10.565   0.773   5.320
  154ACC    C0723544  10.530   0.631   5.350
  154ACC    C0823545  10.709   0.797   5.352
  154ACC    C0923546  10.482   0.861   5.408
  154ACC    H0A23547  10.665   1.010   4.723
  154ACC    H0B23548  10.503   0.941   4.744
  154ACC    H0C23549  10.636   0.840   4.688
  154ACC    H0D23550  10.716   0.723   5.084
  154ACC    H0E23551  10.575   0.621   5.071
  154ACC    H0F23552  10.427   0.800   5.159
  154ACC    H0G23553  10.557   0.914   5.162
  154ACC    H0H23554  10.592   0.560   5.296
  154ACC    H0I23555  10.426   0.608   5.325
  154ACC    H0J23556  10.543   0.607   5.456
  154ACC    H0K23557  10.776   0.729   5.300
  154ACC    H0M23558  10.730   0.785   5.459
  154ACC    H0N23559  10.740   0.899   5.325
  154ACC    H0O23560  10.375   0.848   5.391
  154ACC    H0P23561  10.504   0.967   5.393
  154ACC    H0Q23562  10.499   0.841   5.515
  155ACC    C0023563   8.783  10.903   2.586
  155ACC    C0123564   8.881  10.986   2.667
  155ACC    O0223565   8.913  11.099   2.632
  155ACC    O0323566   8.924  10.923   2.777
  155ACC    C0423567   9.021  10.984   2.860
  155ACC    C0523568   8.953  11.090   2.951
  155ACC    N0623569   9.045  11.171   3.037
  155ACC    C0723570   9.124  11.084   3.129
  155ACC    C0823571   9.138  11.254   2.954
  155ACC    C0923572   8.962  11.263   3.120
  155ACC    H0A23573   8.749  10.957   2.498
  155ACC    H0B23574   8.695  10.878   2.646
  155ACC    H0C23575   8.830  10.810   2.553
  155ACC    H0D23576   9.099  11.027   2.797
  155ACC    H0E23577   9.067  10.905   2.919
  155ACC    H0F23578   8.879  11.038   3.013
  155ACC    H0G23579   8.894  11.157   2.888
  155ACC    H0H23580   9.195  11.019   3.077
  155ACC    H0I23581   9.060  11.019   3.190
  155ACC    H0J23582   9.184  11.143   3.200
  155ACC    H0K23583   9.210  11.194   2.898
  155ACC    H0M23584   9.197  11.323   3.015
  155ACC    H0N23585   9.084  11.314   2.880
  155ACC    H0O23586   8.892  11.209   3.184
  155ACC    H0P23587   8.902  11.331   3.058
  155ACC    H0Q23588   9.022  11.326   3.185
  156ACC    C0023589   0.968   0.678   8.904
  156ACC    C0123590   1.098   0.740   8.857
  156ACC    O0223591   1.129   0.856   8.886
  156ACC    O0323592   1.174   0.656   8.785
  156ACC    C0423593   1.297   0.701   8.730
  156ACC    C0523594   1.406   0.702   8.840
  156ACC    N0623595   1.537   0.764   8.801
  156ACC    C0723596   1.596   0.695   8.682
  156ACC    C0823597   1.521   0.909   8.773
  156ACC    C0923598   1.630   0.749   8.916
  156ACC    H0A23599   0.911   0.748   8.965
  156ACC    H0B23600   0.987   0.588   8.963
  156ACC    H0C23601   0.906   0.650   8.818
  156ACC    H0D23602   1.280   0.799   8.685
  156ACC    H0E23603   1.322   0.633   8.648
  156ACC    H0F23604   1.420   0.599   8.873
  156ACC    H0G23605   1.366   0.754   8.928
  156ACC    H0H23606   1.537   0.708   8.592
  156ACC    H0I23607   1.606   0.587   8.698
  156ACC    H0J23608   1.696   0.732   8.659
  156ACC    H0K23609   1.462   0.929   8.683
  156ACC    H0M23610   1.617   0.959   8.757
  156ACC    H0N23611   1.471   0.962   8.855
  156ACC    H0O23612   1.647   0.644   8.942
  156ACC    H0P23613   1.593   0.798   9.006
  156ACC    H0Q23614   1.729   0.792   8.896
  157ACC    C0023615   6.526   4.949   9.622
  157ACC    C0123616   6.472   5.083   9.574
  157ACC    O0223617   6.465   5.181   9.649
  157ACC    O0323618   6.436   5.082   9.444
  157ACC    C0423619   6.373   5.195   9.387
  157ACC    C0523620   6.478   5.306   9.357
  157ACC    N0623621   6.423   5.436   9.308
  157ACC    C0723622   6.346   5.419   9.181
  157ACC    C0823623   6.336   5.500   9.412
  157ACC    C0923624   6.537   5.528   9.282
  157ACC    H0A23625   6.551   4.954   9.728
  157ACC    H0B23626   6.616   4.922   9.567
  157ACC    H0C23627   6.452   4.871   9.608
  157ACC    H0D23628   6.295   5.229   9.456
  157ACC    H0E23629   6.323   5.162   9.297
  157ACC    H0F23630   6.549   5.265   9.285
  157ACC    H0G23631   6.537   5.323   9.447
  157ACC    H0H23632   6.255   5.360   9.195
  157ACC    H0I23633   6.405   5.369   9.104
  157ACC    H0J23634   6.314   5.515   9.139
  157ACC    H0K23635   6.243   5.445   9.429
  157ACC    H0M23636   6.305   5.601   9.384
  157ACC    H0N23637   6.386   5.507   9.508
  157ACC    H0O23638   6.606   5.488   9.206
  157ACC    H0P23639   6.597   5.546   9.372
  157ACC    H0Q23640   6.505   5.626   9.246
  158ACC    C0023641   4.276   1.947   9.183
  158ACC    C0123642   4.421   1.991   9.184
  158ACC    O0223643   4.489   1.993   9.082
  158ACC    O0323644   4.464   2.026   9.306
  158ACC    C0423645   4.599   2.065   9.326
  158ACC    C0523646   4.621   2.210   9.277
  158ACC    N0623647   4.763   2.259   9.280
  158ACC    C0723648   4.819   2.254   9.418
  158ACC    C0823649   4.849   2.180   9.186
  158ACC    C0923650   4.763   2.401   9.234
  158ACC    H0A23651   4.245   1.919   9.082
  158ACC    H0B23652   4.211   2.028   9.218
  158ACC    H0C23653   4.262   1.861   9.249
  158ACC    H0D23654   4.663   1.992   9.275
  158ACC    H0E23655   4.620   2.055   9.433
  158ACC    H0F23656   4.557   2.275   9.337
  158ACC    H0G23657   4.582   2.218   9.175
  158ACC    H0H23658   4.830   2.152   9.455
  158ACC    H0I23659   4.757   2.307   9.490
  158ACC    H0J23660   4.919   2.299   9.423
  158ACC    H0K23661   4.863   2.076   9.219
  158ACC    H0M23662   4.949   2.222   9.177
  158ACC    H0N23663   4.807   2.176   9.085
  158ACC    H0O23664   4.703   2.465   9.298
  158ACC    H0P23665   4.724   2.411   9.132
  158ACC    H0Q23666   4.864   2.444   9.233
  159ACC    C0023667   5.770   2.296  12.066
  159ACC    C0123668   5.838   2.160  12.056
  159ACC    O0223669   5.909   2.118  12.146
  159ACC    O0323670   5.810   2.098  11.940
  159ACC    C0423671   5.863   1.968  11.914
  159ACC    C0523672   5.767   1.861  11.973
  159ACC    N0623673   5.812   1.719  11.957
  159ACC    C0723674   5.832   1.681  11.814
  159ACC    C0823675   5.938   1.693  12.032
  159ACC    C0923676   5.706   1.630  12.015
  159ACC    H0A23677   5.785   2.338  12.166
  159ACC    H0B23678   5.663   2.285  12.049
  159ACC    H0C23679   5.811   2.364  11.992
  159ACC    H0D23680   5.964   1.960  11.954
  159ACC    H0E23681   5.871   1.958  11.806
  159ACC    H0F23682   5.669   1.875  11.928
  159ACC    H0G23683   5.754   1.883  12.079
  159ACC    H0H23684   5.914   1.735  11.768
  159ACC    H0I23685   5.743   1.699  11.753
  159ACC    H0J23686   5.856   1.575  11.803
  159ACC    H0K23687   6.025   1.744  11.990
  159ACC    H0M23688   5.966   1.587  12.033
  159ACC    H0N23689   5.933   1.723  12.137
  159ACC    H0O23690   5.610   1.641  11.964
  159ACC    H0P23691   5.689   1.651  12.121
  159ACC    H0Q23692   5.734   1.524  12.008
  160ACC    C0023693   9.929  14.964   0.307
  160ACC    C0123694   9.857  15.092   0.345
  160ACC    O0223695   9.755  15.092   0.414
  160ACC    O0323696   9.917  15.202   0.295
  160ACC    C0423697   9.864  15.330   0.325
  160ACC    C0523698   9.911  15.375   0.466
  160ACC    N0623699   9.852  15.503   0.517
  160ACC    C0723700   9.878  15.616   0.424
  160ACC    C0823701   9.705  15.489   0.539
  160ACC    C0923702   9.916  15.533   0.648
  160ACC    H0A23703   9.883  14.878   0.358
  160ACC    H0B23704  10.034  14.969   0.337
  160ACC    H0C23705   9.924  14.947   0.200
  160ACC    H0D23706   9.755  15.326   0.316
  160ACC    H0E23707   9.900  15.398   0.248
  160ACC    H0F23708  10.020  15.381   0.465
  160ACC    H0G23709   9.889  15.295   0.537
  160ACC    H0H23710   9.828  15.605   0.328
  160ACC    H0I23711   9.985  15.627   0.403
  160ACC    H0J23712   9.845  15.712   0.465
  160ACC    H0K23713   9.649  15.474   0.446
  160ACC    H0M23714   9.662  15.577   0.587
  160ACC    H0N23715   9.682  15.404   0.603
  160ACC    H0O23716  10.024  15.546   0.641
  160ACC    H0P23717   9.901  15.454   0.722
  160ACC    H0Q23718   9.878  15.625   0.694
  161ACC    C0023719   0.890   3.209   5.910
  161ACC    C0123720   0.934   3.106   6.012
  161ACC    O0223721   0.867   3.081   6.112
  161ACC    O0323722   1.049   3.045   5.979
  161ACC    C0423723   1.110   2.956   6.070
  161ACC    C0523724   1.037   2.819   6.068
  161ACC    N0623725   1.081   2.720   6.172
  161ACC    C0723726   1.225   2.687   6.159
  161ACC    C0823727   1.052   2.772   6.310
  161ACC    C0923728   1.001   2.595   6.153
  161ACC    H0A23729   0.798   3.258   5.942
  161ACC    H0B23730   0.873   3.162   5.813
  161ACC    H0C23731   0.967   3.285   5.898
  161ACC    H0D23732   1.110   3.003   6.169
  161ACC    H0E23733   1.215   2.946   6.041
  161ACC    H0F23734   1.049   2.777   5.968
  161ACC    H0G23735   0.930   2.837   6.079
  161ACC    H0H23736   1.290   2.773   6.180
  161ACC    H0I23737   1.250   2.653   6.058
  161ACC    H0J23738   1.256   2.609   6.228
  161ACC    H0K23739   1.115   2.858   6.336
  161ACC    H0M23740   1.070   2.697   6.387
  161ACC    H0N23741   0.949   2.806   6.320
  161ACC    H0O23742   1.017   2.552   6.054
  161ACC    H0P23743   0.894   2.613   6.162
  161ACC    H0Q23744   1.027   2.518   6.225
  162ACC    C0023745  11.960  15.416  13.379
  162ACC    C0123746  11.929  15.549  13.314
  162ACC    O0223747  11.931  15.654  13.377
  162ACC    O0323748  11.900  15.538  13.183
  162ACC    C0423749  11.864  15.654  13.109
  162ACC    C0523750  11.991  15.735  13.071
  162ACC    N0623751  11.966  15.867  13.005
  162ACC    C0723752  11.889  15.851  12.879
  162ACC    C0823753  11.896  15.961  13.097
  162ACC    C0923754  12.099  15.927  12.971
  162ACC    H0A23755  11.986  15.430  13.484
  162ACC    H0B23756  12.045  15.368  13.329
  162ACC    H0C23757  11.874  15.349  13.373
  162ACC    H0D23758  11.793  15.711  13.168
  162ACC    H0E23759  11.811  15.619  13.020
  162ACC    H0F23760  12.054  15.671  13.008
  162ACC    H0G23761  12.050  15.751  13.162
  162ACC    H0H23762  11.787  15.816  12.896
  162ACC    H0I23763  11.936  15.780  12.810
  162ACC    H0J23764  11.879  15.946  12.824
  162ACC    H0K23765  11.794  15.930  13.119
  162ACC    H0M23766  11.889  16.062  13.056
  162ACC    H0N23767  11.947  15.970  13.193
  162ACC    H0O23768  12.156  15.864  12.902
  162ACC    H0P23769  12.162  15.942  13.059
  162ACC    H0Q23770  12.090  16.024  12.922
  163ACC    C0023771  11.928  17.020   7.769
  163ACC    C0123772  11.779  16.996   7.751
  163ACC    O0223773  11.730  16.972   7.641
  163ACC    O0323774  11.710  17.003   7.866
  163ACC    C0423775  11.568  16.998   7.864
  163ACC    C0523776  11.518  16.853   7.843
  163ACC    N0623777  11.370  16.836   7.827
  163ACC    C0723778  11.296  16.885   7.947
  163ACC    C0823779  11.321  16.907   7.705
  163ACC    C0923780  11.342  16.691   7.810
  163ACC    H0A23781  11.978  17.019   7.672
  163ACC    H0B23782  11.972  16.943   7.832
  163ACC    H0C23783  11.945  17.118   7.815
  163ACC    H0D23784  11.533  17.067   7.786
  163ACC    H0E23785  11.533  17.039   7.959
  163ACC    H0F23786  11.555  16.793   7.927
  163ACC    H0G23787  11.569  16.812   7.755
  163ACC    H0H23788  11.305  16.993   7.960
  163ACC    H0I23789  11.332  16.839   8.039
  163ACC    H0J23790  11.189  16.864   7.940
  163ACC    H0K23791  11.327  17.016   7.713
  163ACC    H0M23792  11.216  16.885   7.683
  163ACC    H0N23793  11.378  16.880   7.615
  163ACC    H0O23794  11.375  16.632   7.896
  163ACC    H0P23795  11.392  16.650   7.722
  163ACC    H0Q23796  11.235  16.671   7.797
  164ACC    C0023797  12.438  14.476   0.699
  164ACC    C0123798  12.587  14.503   0.704
  164ACC    O0223799  12.664  14.427   0.762
  164ACC    O0323800  12.622  14.615   0.639
  164ACC    C0423801  12.758  14.657   0.639
  164ACC    C0523802  12.839  14.578   0.533
  164ACC    N0623803  12.986  14.607   0.530
  164ACC    C0723804  13.015  14.751   0.504
  164ACC    C0823805  13.053  14.561   0.655
  164ACC    C0923806  13.045  14.529   0.418
  164ACC    H0A23807  12.415  14.382   0.749
  164ACC    H0B23808  12.404  14.469   0.596
  164ACC    H0C23809  12.384  14.556   0.749
  164ACC    H0D23810  12.799  14.645   0.739
  164ACC    H0E23811  12.759  14.764   0.617
  164ACC    H0F23812  12.795  14.598   0.434
  164ACC    H0G23813  12.824  14.471   0.549
  164ACC    H0H23814  12.983  14.816   0.586
  164ACC    H0I23815  12.967  14.786   0.413
  164ACC    H0J23816  13.122  14.768   0.491
  164ACC    H0K23817  13.024  14.619   0.743
  164ACC    H0M23818  13.162  14.568   0.647
  164ACC    H0N23819  13.031  14.456   0.677
  164ACC    H0O23820  13.004  14.554   0.319
  164ACC    H0P23821  13.033  14.421   0.429
  164ACC    H0Q23822  13.153  14.546   0.409
  165ACC    C0023823   1.047  16.050   5.306
  165ACC    C0123824   0.987  15.916   5.266
  165ACC    O0223825   1.001  15.815   5.335
  165ACC    O0323826   0.917  15.923   5.152
  165ACC    C0423827   0.859  15.806   5.097
  165ACC    C0523828   0.727  15.773   5.170
  165ACC    N0623829   0.661  15.644   5.131
  165ACC    C0723830   0.627  15.642   4.985
  165ACC    C0823831   0.747  15.527   5.164
  165ACC    C0923832   0.534  15.632   5.208
  165ACC    H0A23833   1.102  16.041   5.400
  165ACC    H0B23834   0.969  16.125   5.318
  165ACC    H0C23835   1.116  16.084   5.229
  165ACC    H0D23836   0.933  15.725   5.102
  165ACC    H0E23837   0.842  15.825   4.991
  165ACC    H0F23838   0.659  15.857   5.155
  165ACC    H0G23839   0.747  15.771   5.278
  165ACC    H0H23840   0.716  15.642   4.921
  165ACC    H0I23841   0.567  15.728   4.956
  165ACC    H0J23842   0.570  15.553   4.958
  165ACC    H0K23843   0.837  15.522   5.103
  165ACC    H0M23844   0.695  15.432   5.149
  165ACC    H0N23845   0.780  15.528   5.269
  165ACC    H0O23846   0.465  15.714   5.188
  165ACC    H0P23847   0.551  15.632   5.316
  165ACC    H0Q23848   0.480  15.540   5.186
  166ACC    C0023849  16.507  13.568   0.888
  166ACC    C0123850  16.554  13.713   0.886
  166ACC    O0223851  16.646  13.752   0.959
  166ACC    O0323852  16.487  13.789   0.799
  166ACC    C0423853  16.523  13.925   0.782
  166ACC    C0523854  16.651  13.934   0.695
  166ACC    N0623855  16.710  14.071   0.680
  166ACC    C0723856  16.612  14.165   0.619
  166ACC    C0823857  16.756  14.124   0.812
  166ACC    C0923858  16.828  14.059   0.591
  166ACC    H0A23859  16.565  13.508   0.958
  166ACC    H0B23860  16.518  13.524   0.789
  166ACC    H0C23861  16.401  13.562   0.915
  166ACC    H0D23862  16.534  13.970   0.881
  166ACC    H0E23863  16.438  13.974   0.734
  166ACC    H0F23864  16.628  13.890   0.598
  166ACC    H0G23865  16.726  13.866   0.738
  166ACC    H0H23866  16.526  14.185   0.683
  166ACC    H0I23867  16.573  14.127   0.524
  166ACC    H0J23868  16.657  14.263   0.597
  166ACC    H0K23869  16.673  14.145   0.881
  166ACC    H0M23870  16.811  14.218   0.802
  166ACC    H0N23871  16.822  14.053   0.864
  166ACC    H0O23872  16.801  14.020   0.492
  166ACC    H0P23873  16.904  13.992   0.631
  166ACC    H0Q23874  16.878  14.156   0.574
  167ACC    C0023875  15.656   5.847  12.312
  167ACC    C0123876  15.613   5.987  12.351
  167ACC    O0223877  15.694   6.072  12.386
  167ACC    O0323878  15.480   6.006  12.340
  167ACC    C0423879  15.424   6.131  12.379
  167ACC    C0523880  15.449   6.238  12.269
  167ACC    N0623881  15.409   6.378  12.305
  167ACC    C0723882  15.264   6.386  12.338
  167ACC    C0823883  15.491   6.430  12.419
  167ACC    C0923884  15.436   6.464  12.186
  167ACC    H0A23885  15.764   5.836  12.322
  167ACC    H0B23886  15.628   5.825  12.209
  167ACC    H0C23887  15.608   5.774  12.378
  167ACC    H0D23888  15.467   6.159  12.476
  167ACC    H0E23889  15.317   6.115  12.396
  167ACC    H0F23890  15.398   6.205  12.179
  167ACC    H0G23891  15.555   6.237  12.243
  167ACC    H0H23892  15.239   6.332  12.430
  167ACC    H0I23893  15.201   6.345  12.259
  167ACC    H0J23894  15.232   6.489  12.354
  167ACC    H0K23895  15.470   6.379  12.513
  167ACC    H0M23896  15.473   6.536  12.437
  167ACC    H0N23897  15.598   6.418  12.400
  167ACC    H0O23898  15.379   6.432  12.098
  167ACC    H0P23899  15.541   6.463  12.157
  167ACC    H0Q23900  15.410   6.569  12.204
  168ACC    C0023901  16.256  14.859  17.137
  168ACC    C0123902  16.174  14.887  17.013
  168ACC    O0223903  16.221  14.944  16.915
  168ACC    O0323904  16.048  14.842  17.023
  168ACC    C0423905  15.955  14.865  16.918
  168ACC    C0523906  15.980  14.766  16.802
  168ACC    N0623907  15.898  14.789  16.679
  168ACC    C0723908  15.752  14.779  16.707
  168ACC    C0823909  15.929  14.921  16.617
  168ACC    C0923910  15.933  14.682  16.580
  168ACC    H0A23911  16.357  14.898  17.126
  168ACC    H0B23912  16.262  14.752  17.156
  168ACC    H0C23913  16.211  14.907  17.224
  168ACC    H0D23914  15.964  14.970  16.888
  168ACC    H0E23915  15.855  14.853  16.960
  168ACC    H0F23916  15.964  14.665  16.841
  168ACC    H0G23917  16.086  14.769  16.776
  168ACC    H0H23918  15.716  14.859  16.773
  168ACC    H0I23919  15.726  14.684  16.756
  168ACC    H0J23920  15.691  14.786  16.617
  168ACC    H0K23921  15.895  15.005  16.678
  168ACC    H0M23922  15.880  14.934  16.520
  168ACC    H0N23923  16.036  14.935  16.601
  168ACC    H0O23924  15.912  14.582  16.619
  168ACC    H0P23925  16.039  14.684  16.554
  168ACC    H0Q23926  15.877  14.692  16.487
  169ACC    C0023927   4.410   5.714   5.616
  169ACC    C0123928   4.298   5.728   5.718
  169ACC    O0223929   4.288   5.828   5.790
  169ACC    O0323930   4.215   5.623   5.720
  169ACC    C0423931   4.104   5.621   5.810
  169ACC    C0523932   3.988   5.707   5.754
  169ACC    N0623933   3.869   5.723   5.844
  169ACC    C0723934   3.809   5.592   5.881
  169ACC    C0823935   3.904   5.798   5.968
  169ACC    C0923936   3.766   5.802   5.770
  169ACC    H0A23937   4.473   5.803   5.616
  169ACC    H0B23938   4.369   5.701   5.516
  169ACC    H0C23939   4.473   5.628   5.640
  169ACC    H0D23940   4.138   5.656   5.908
  169ACC    H0E23941   4.074   5.517   5.822
  169ACC    H0F23942   3.958   5.663   5.658
  169ACC    H0G23943   4.027   5.806   5.728
  169ACC    H0H23944   3.875   5.531   5.944
  169ACC    H0I23945   3.783   5.532   5.793
  169ACC    H0J23946   3.717   5.604   5.939
  169ACC    H0K23947   3.971   5.742   6.034
  169ACC    H0M23948   3.816   5.820   6.029
  169ACC    H0N23949   3.953   5.893   5.946
  169ACC    H0O23950   3.733   5.751   5.678
  169ACC    H0P23951   3.802   5.900   5.740
  169ACC    H0Q23952   3.676   5.818   5.830
  170ACC    C0023953   1.739   0.276   3.187
  170ACC    C0123954   1.752   0.410   3.117
  170ACC    O0223955   1.768   0.515   3.180
  170ACC    O0323956   1.746   0.399   2.984
  170ACC    C0423957   1.732   0.515   2.902
  170ACC    C0523958   1.866   0.591   2.888
  170ACC    N0623959   1.862   0.718   2.808
  170ACC    C0723960   1.831   0.692   2.664
  170ACC    C0823961   1.762   0.814   2.865
  170ACC    C0923962   1.996   0.782   2.814
  170ACC    H0A23963   1.734   0.291   3.295
  170ACC    H0B23964   1.825   0.214   3.163
  170ACC    H0C23965   1.648   0.227   3.154
  170ACC    H0D23966   1.652   0.577   2.945
  170ACC    H0E23967   1.694   0.481   2.806
  170ACC    H0F23968   1.938   0.522   2.844
  170ACC    H0G23969   1.903   0.613   2.988
  170ACC    H0H23970   1.737   0.638   2.651
  170ACC    H0I23971   1.907   0.633   2.614
  170ACC    H0J23972   1.817   0.785   2.608
  170ACC    H0K23973   1.659   0.780   2.854
  170ACC    H0M23974   1.765   0.911   2.815
  170ACC    H0N23975   1.778   0.832   2.971
  170ACC    H0O23976   2.074   0.717   2.773
  170ACC    H0P23977   2.025   0.806   2.917
  170ACC    H0Q23978   2.000   0.875   2.757
  171ACC    C0023979  10.943   1.826   3.317
  171ACC    C0123980  10.800   1.863   3.281
  171ACC    O0223981  10.704   1.802   3.328
  171ACC    O0323982  10.792   1.967   3.196
  171ACC    C0423983  10.665   2.009   3.150
  171ACC    C0523984  10.593   2.093   3.259
  171ACC    N0623985  10.451   2.131   3.229
  171ACC    C0723986  10.441   2.210   3.103
  171ACC    C0823987  10.364   2.010   3.220
  171ACC    C0923988  10.402   2.216   3.341
  171ACC    H0A23989  10.945   1.742   3.387
  171ACC    H0B23990  10.994   1.910   3.363
  171ACC    H0C23991  10.998   1.796   3.228
  171ACC    H0D23992  10.608   1.920   3.120
  171ACC    H0E23993  10.682   2.067   3.059
  171ACC    H0F23994  10.654   2.182   3.277
  171ACC    H0G23995  10.596   2.037   3.353
  171ACC    H0H23996  10.468   2.151   3.014
  171ACC    H0I23997  10.507   2.297   3.104
  171ACC    H0J23998  10.340   2.247   3.085
  171ACC    H0K23999  10.387   1.947   3.134
  171ACC    H0M24000  10.258   2.036   3.212
  171ACC    H0N24001  10.374   1.946   3.309
  171ACC    H0O24002  10.461   2.307   3.354
  171ACC    H0P24003  10.406   2.163   3.437
  171ACC    H0Q24004  10.298   2.248   3.327
  172ACC    C0024005  16.480  14.672  14.165
  172ACC    C0124006  16.587  14.567  14.188
  172ACC    O0224007  16.599  14.508  14.295
  172ACC    O0324008  16.664  14.547  14.079
  172ACC    C0424009  16.782  14.469  14.086
  172ACC    C0524010  16.751  14.318  14.091
  172ACC    N0624011  16.870  14.227  14.104
  172ACC    C0724012  16.959  14.238  13.984
  172ACC    C0824013  16.948  14.256  14.228
  172ACC    C0924014  16.820  14.087  14.112
  172ACC    H0A24015  16.433  14.700  14.259
  172ACC    H0B24016  16.404  14.635  14.097
  172ACC    H0C24017  16.524  14.762  14.122
  172ACC    H0D24018  16.839  14.504  14.173
  172ACC    H0E24019  16.841  14.495  13.998
  172ACC    H0F24020  16.693  14.293  14.002
  172ACC    H0G24021  16.683  14.300  14.175
  172ACC    H0H24022  17.006  14.336  13.975
  172ACC    H0I24023  16.905  14.220  13.891
  172ACC    H0J24024  17.041  14.165  13.988
  172ACC    H0K24025  16.998  14.353  14.224
  172ACC    H0M24026  17.026  14.182  14.246
  172ACC    H0N24027  16.884  14.257  14.317
  172ACC    H0O24028  16.762  14.058  14.024
  172ACC    H0P24029  16.755  14.071  14.199
  172ACC    H0Q24030  16.901  14.014  14.121
  173ACC    C0024031   4.498   6.806   4.688
  173ACC    C0124032   4.556   6.944   4.717
  173ACC    O0224033   4.553   7.034   4.635
  173ACC    O0324034   4.608   6.953   4.841
  173ACC    C0424035   4.676   7.072   4.879
  173ACC    C0524036   4.575   7.185   4.911
  173ACC    N0624037   4.634   7.320   4.939
  173ACC    C0724038   4.729   7.316   5.055
  173ACC    C0824039   4.705   7.373   4.818
  173ACC    C0924040   4.523   7.413   4.972
  173ACC    H0A24041   4.459   6.803   4.586
  173ACC    H0B24042   4.416   6.784   4.756
  173ACC    H0C24043   4.575   6.730   4.697
  173ACC    H0D24044   4.745   7.099   4.798
  173ACC    H0E24045   4.738   7.048   4.965
  173ACC    H0F24046   4.514   7.151   4.996
  173ACC    H0G24047   4.505   7.193   4.828
  173ACC    H0H24048   4.818   7.256   5.034
  173ACC    H0I24049   4.682   7.273   5.144
  173ACC    H0J24050   4.764   7.415   5.082
  173ACC    H0K24051   4.795   7.317   4.793
  173ACC    H0M24052   4.737   7.477   4.831
  173ACC    H0N24053   4.641   7.371   4.729
  173ACC    H0O24054   4.466   7.381   5.060
  173ACC    H0P24055   4.451   7.422   4.890
  173ACC    H0Q24056   4.558   7.514   4.993
  174ACC    C0024057  12.786  14.639   2.719
  174ACC    C0124058  12.926  14.692   2.741
  174ACC    O0224059  12.983  14.682   2.850
  174ACC    O0324060  12.980  14.747   2.631
  174ACC    C0424061  13.108  14.809   2.638
  174ACC    C0524062  13.219  14.701   2.636
  174ACC    N0624063  13.359  14.752   2.656
  174ACC    C0724064  13.397  14.850   2.550
  174ACC    C0824065  13.375  14.813   2.791
  174ACC    C0924066  13.451  14.635   2.647
  174ACC    H0A24067  12.746  14.596   2.811
  174ACC    H0B24068  12.786  14.562   2.642
  174ACC    H0C24069  12.720  14.719   2.687
  174ACC    H0D24070  13.111  14.871   2.727
  174ACC    H0E24071  13.115  14.876   2.552
  174ACC    H0F24072  13.211  14.647   2.541
  174ACC    H0G24073  13.196  14.626   2.713
  174ACC    H0H24074  13.339  14.942   2.556
  174ACC    H0I24075  13.384  14.810   2.450
  174ACC    H0J24076  13.502  14.880   2.558
  174ACC    H0K24077  13.318  14.906   2.802
  174ACC    H0M24078  13.479  14.838   2.813
  174ACC    H0N24079  13.341  14.746   2.871
  174ACC    H0O24080  13.446  14.585   2.550
  174ACC    H0P24081  13.430  14.559   2.722
  174ACC    H0Q24082  13.556  14.664   2.661
  175ACC    C0024083  10.065   2.510   8.052
  175ACC    C0124084   9.915   2.493   8.036
  175ACC    O0224085   9.839   2.485   8.134
  175ACC    O0324086   9.875   2.490   7.908
  175ACC    C0424087   9.738   2.469   7.876
  175ACC    C0524088   9.658   2.600   7.897
  175ACC    N0624089   9.510   2.588   7.882
  175ACC    C0724090   9.472   2.539   7.747
  175ACC    C0824091   9.452   2.498   7.987
  175ACC    C0924092   9.451   2.724   7.901
  175ACC    H0A24093  10.092   2.512   8.158
  175ACC    H0B24094  10.098   2.602   8.006
  175ACC    H0C24095  10.117   2.427   8.005
  175ACC    H0D24096   9.702   2.386   7.938
  175ACC    H0E24097   9.734   2.436   7.773
  175ACC    H0F24098   9.698   2.674   7.828
  175ACC    H0G24099   9.682   2.639   7.997
  175ACC    H0H24100   9.504   2.436   7.729
  175ACC    H0I24101   9.515   2.601   7.667
  175ACC    H0J24102   9.364   2.540   7.731
  175ACC    H0K24103   9.482   2.394   7.974
  175ACC    H0M24104   9.343   2.499   7.987
  175ACC    H0N24105   9.484   2.527   8.088
  175ACC    H0O24106   9.489   2.796   7.827
  175ACC    H0P24107   9.475   2.766   7.999
  175ACC    H0Q24108   9.342   2.725   7.892
  176ACC    C0024109  10.843   5.461  10.928
  176ACC    C0124110  10.896   5.475  11.070
  176ACC    O0224111  10.863   5.398  11.160
  176ACC    O0324112  10.980   5.579  11.085
  176ACC    C0424113  11.045   5.599  11.210
  176ACC    C0524114  11.169   5.506  11.218
  176ACC    N0624115  11.238   5.501  11.351
  176ACC    C0724116  11.280   5.637  11.397
  176ACC    C0824117  11.150   5.437  11.454
  176ACC    C0924118  11.360   5.417  11.336
  176ACC    H0A24119  10.788   5.368  10.917
  176ACC    H0B24120  10.925   5.461  10.857
  176ACC    H0C24121  10.776   5.544  10.904
  176ACC    H0D24122  10.974   5.583  11.290
  176ACC    H0E24123  11.074   5.704  11.214
  176ACC    H0F24124  11.239   5.537  11.140
  176ACC    H0G24125  11.138   5.405  11.189
  176ACC    H0H24126  11.196   5.703  11.417
  176ACC    H0I24127  11.343   5.687  11.322
  176ACC    H0J24128  11.339   5.633  11.489
  176ACC    H0K24129  11.062   5.496  11.477
  176ACC    H0M24130  11.202   5.421  11.548
  176ACC    H0N24131  11.114   5.339  11.421
  176ACC    H0O24132  11.430   5.459  11.263
  176ACC    H0P24133  11.337   5.315  11.303
  176ACC    H0Q24134  11.416   5.408  11.430
  177ACC    C0024135   9.846  10.465   8.928
  177ACC    C0124136   9.741  10.566   8.969
  177ACC    O0224137   9.692  10.645   8.888
  177ACC    O0324138   9.707  10.558   9.099
  177ACC    C0424139   9.615  10.651   9.154
  177ACC    C0524140   9.470  10.612   9.115
  177ACC    N0624141   9.363  10.710   9.155
  177ACC    C0724142   9.361  10.731   9.303
  177ACC    C0824143   9.381  10.841   9.085
  177ACC    C0924144   9.231  10.653   9.114
  177ACC    H0A24145   9.871  10.475   8.823
  177ACC    H0B24146   9.811  10.363   8.946
  177ACC    H0C24147   9.937  10.480   8.986
  177ACC    H0D24148   9.642  10.751   9.119
  177ACC    H0E24149   9.629  10.650   9.262
  177ACC    H0F24150   9.449  10.514   9.158
  177ACC    H0G24151   9.466  10.597   9.007
  177ACC    H0H24152   9.452  10.780   9.340
  177ACC    H0I24153   9.351  10.637   9.358
  177ACC    H0J24154   9.278  10.794   9.334
  177ACC    H0K24155   9.471  10.894   9.118
  177ACC    H0M24156   9.298  10.909   9.103
  177ACC    H0N24157   9.390  10.828   8.977
  177ACC    H0O24158   9.211  10.558   9.162
  177ACC    H0P24159   9.225  10.636   9.006
  177ACC    H0Q24160   9.148  10.719   9.140
  178ACC    C0024161   3.362  12.012   5.507
  178ACC    C0124162   3.326  11.866   5.485
  178ACC    O0224163   3.323  11.817   5.372
  178ACC    O0324164   3.300  11.800   5.599
  178ACC    C0424165   3.250  11.667   5.593
  178ACC    C0524166   3.365  11.567   5.559
  178ACC    N0624167   3.322  11.425   5.537
  178ACC    C0724168   3.256  11.368   5.658
  178ACC    C0824169   3.231  11.414   5.419
  178ACC    C0924170   3.445  11.346   5.508
  178ACC    H0A24171   3.375  12.063   5.412
  178ACC    H0B24172   3.454  12.021   5.564
  178ACC    H0C24173   3.282  12.063   5.562
  178ACC    H0D24174   3.170  11.665   5.519
  178ACC    H0E24175   3.205  11.645   5.689
  178ACC    H0F24176   3.439  11.574   5.638
  178ACC    H0G24177   3.416  11.603   5.469
  178ACC    H0H24178   3.160  11.417   5.679
  178ACC    H0I24179   3.318  11.378   5.747
  178ACC    H0J24180   3.233  11.262   5.646
  178ACC    H0K24181   3.133  11.460   5.437
  178ACC    H0M24182   3.210  11.310   5.393
  178ACC    H0N24183   3.272  11.461   5.330
  178ACC    H0O24184   3.518  11.350   5.589
  178ACC    H0P24185   3.496  11.381   5.418
  178ACC    H0Q24186   3.423  11.240   5.491
  179ACC    C0024187   7.393   9.109   6.205
  179ACC    C0124188   7.515   9.168   6.274
  179ACC    O0224189   7.629   9.144   6.235
  179ACC    O0324190   7.483   9.248   6.377
  179ACC    C0424191   7.587   9.307   6.454
  179ACC    C0524192   7.645   9.430   6.380
  179ACC    N0624193   7.765   9.493   6.443
  179ACC    C0724194   7.736   9.539   6.582
  179ACC    C0824195   7.881   9.399   6.444
  179ACC    C0924196   7.803   9.612   6.361
  179ACC    H0A24197   7.422   9.047   6.120
  179ACC    H0B24198   7.328   9.189   6.168
  179ACC    H0C24199   7.336   9.048   6.274
  179ACC    H0D24200   7.661   9.230   6.476
  179ACC    H0E24201   7.543   9.336   6.550
  179ACC    H0F24202   7.565   9.503   6.368
  179ACC    H0G24203   7.671   9.399   6.278
  179ACC    H0H24204   7.715   9.457   6.650
  179ACC    H0I24205   7.649   9.606   6.585
  179ACC    H0J24206   7.819   9.595   6.625
  179ACC    H0K24207   7.866   9.313   6.511
  179ACC    H0M24208   7.973   9.447   6.478
  179ACC    H0N24209   7.902   9.358   6.345
  179ACC    H0O24210   7.723   9.686   6.356
  179ACC    H0P24211   7.827   9.585   6.258
  179ACC    H0Q24212   7.891   9.664   6.401
  180ACC    C0024213  16.464   6.037  16.283
  180ACC    C0124214  16.384   5.998  16.160
  180ACC    O0224215  16.315   5.896  16.157
  180ACC    O0324216  16.396   6.087  16.060
  180ACC    C0424217  16.337   6.059  15.934
  180ACC    C0524218  16.184   6.084  15.939
  180ACC    N0624219  16.108   6.044  15.816
  180ACC    C0724220  16.154   6.120  15.697
  180ACC    C0824221  16.120   5.897  15.791
  180ACC    C0924222  15.964   6.076  15.841
  180ACC    H0A24223  16.456   5.960  16.360
  180ACC    H0B24224  16.428   6.131  16.325
  180ACC    H0C24225  16.569   6.049  16.257
  180ACC    H0D24226  16.363   5.956  15.907
  180ACC    H0E24227  16.386   6.124  15.861
  180ACC    H0F24228  16.169   6.190  15.962
  180ACC    H0G24229  16.144   6.030  16.026
  180ACC    H0H24230  16.257   6.096  15.669
  180ACC    H0I24231  16.151   6.228  15.713
  180ACC    H0J24232  16.093   6.100  15.609
  180ACC    H0K24233  16.220   5.868  15.761
  180ACC    H0M24234  16.053   5.864  15.711
  180ACC    H0N24235  16.095   5.838  15.880
  180ACC    H0O24236  15.949   6.182  15.860
  180ACC    H0P24237  15.924   6.022  15.927
  180ACC    H0Q24238  15.901   6.050  15.755
  181ACC    C0024239   7.411   3.329   0.085
  181ACC    C0124240   7.511   3.274   0.185
  181ACC    O0224241   7.633   3.283   0.168
  181ACC    O0324242   7.453   3.217   0.292
  181ACC    C0424243   7.533   3.153   0.391
  181ACC    C0524244   7.597   3.260   0.484
  181ACC    N0624245   7.695   3.207   0.585
  181ACC    C0724246   7.632   3.107   0.675
  181ACC    C0824247   7.814   3.148   0.517
  181ACC    C0924248   7.741   3.322   0.668
  181ACC    H0A24249   7.463   3.373   0.000
  181ACC    H0B24250   7.348   3.405   0.132
  181ACC    H0C24251   7.347   3.249   0.048
  181ACC    H0D24252   7.607   3.092   0.340
  181ACC    H0E24253   7.468   3.086   0.446
  181ACC    H0F24254   7.515   3.313   0.534
  181ACC    H0G24255   7.645   3.335   0.422
  181ACC    H0H24256   7.603   3.015   0.623
  181ACC    H0I24257   7.543   3.145   0.724
  181ACC    H0J24258   7.700   3.075   0.755
  181ACC    H0K24259   7.791   3.056   0.463
  181ACC    H0M24260   7.893   3.122   0.588
  181ACC    H0N24261   7.858   3.217   0.445
  181ACC    H0O24262   7.659   3.371   0.721
  181ACC    H0P24263   7.789   3.400   0.608
  181ACC    H0Q24264   7.814   3.292   0.744
  182ACC    C0024265  11.305  14.474  16.014
  182ACC    C0124266  11.325  14.324  16.021
  182ACC    O0224267  11.322  14.253  15.920
  182ACC    O0324268  11.346  14.281  16.146
  182ACC    C0424269  11.402  14.152  16.168
  182ACC    C0524270  11.555  14.163  16.144
  182ACC    N0624271  11.635  14.037  16.152
  182ACC    C0724272  11.618  13.969  16.283
  182ACC    C0824273  11.598  13.946  16.040
  182ACC    C0924274  11.778  14.076  16.136
  182ACC    H0A24275  11.301  14.507  15.910
  182ACC    H0B24276  11.390  14.524  16.060
  182ACC    H0C24277  11.214  14.503  16.065
  182ACC    H0D24278  11.354  14.080  16.101
  182ACC    H0E24279  11.380  14.123  16.270
  182ACC    H0F24280  11.594  14.237  16.215
  182ACC    H0G24281  11.571  14.210  16.047
  182ACC    H0H24282  11.516  13.934  16.299
  182ACC    H0I24283  11.643  14.036  16.366
  182ACC    H0J24284  11.683  13.882  16.292
  182ACC    H0K24285  11.495  13.910  16.047
  182ACC    H0M24286  11.662  13.857  16.037
  182ACC    H0N24287  11.608  13.995  15.943
  182ACC    H0O24288  11.811  14.145  16.214
  182ACC    H0P24289  11.796  14.130  16.042
  182ACC    H0Q24290  11.846  13.991  16.137
  183ACC    C0024291  13.924   2.561  14.871
  183ACC    C0124292  13.898   2.526  15.016
  183ACC    O0224293  13.795   2.561  15.073
  183ACC    O0324294  13.998   2.455  15.072
  183ACC    C0424295  13.993   2.423  15.210
  183ACC    C0524296  13.897   2.304  15.235
  183ACC    N0624297  13.873   2.268  15.379
  183ACC    C0724298  14.000   2.229  15.447
  183ACC    C0824299  13.809   2.381  15.453
  183ACC    C0924300  13.781   2.151  15.383
  183ACC    H0A24301  13.843   2.621  14.831
  183ACC    H0B24302  13.934   2.470  14.812
  183ACC    H0C24303  14.017   2.618  14.862
  183ACC    H0D24304  13.964   2.513  15.265
  183ACC    H0E24305  14.095   2.398  15.241
  183ACC    H0F24306  13.935   2.218  15.180
  183ACC    H0G24307  13.801   2.327  15.188
  183ACC    H0H24308  14.071   2.312  15.456
  183ACC    H0I24309  14.052   2.148  15.395
  183ACC    H0J24310  13.983   2.193  15.549
  183ACC    H0K24311  13.875   2.467  15.465
  183ACC    H0M24312  13.778   2.352  15.554
  183ACC    H0N24313  13.719   2.417  15.402
  183ACC    H0O24314  13.823   2.064  15.332
  183ACC    H0P24315  13.685   2.172  15.335
  183ACC    H0Q24316  13.759   2.119  15.485
  184ACC    C0024317   9.179   5.874   4.820
  184ACC    C0124318   9.162   5.976   4.931
  184ACC    O0224319   9.127   5.944   5.044
  184ACC    O0324320   9.189   6.102   4.891
  184ACC    C0424321   9.173   6.209   4.983
  184ACC    C0524322   9.294   6.215   5.079
  184ACC    N0624323   9.284   6.315   5.190
  184ACC    C0724324   9.266   6.454   5.138
  184ACC    C0824325   9.171   6.281   5.283
  184ACC    C0924326   9.411   6.311   5.268
  184ACC    H0A24327   9.158   5.773   4.858
  184ACC    H0B24328   9.281   5.876   4.782
  184ACC    H0C24329   9.111   5.895   4.738
  184ACC    H0D24330   9.078   6.197   5.034
  184ACC    H0E24331   9.165   6.301   4.923
  184ACC    H0F24332   9.384   6.233   5.019
  184ACC    H0G24333   9.309   6.116   5.122
  184ACC    H0H24334   9.170   6.468   5.087
  184ACC    H0I24335   9.344   6.481   5.067
  184ACC    H0J24336   9.269   6.529   5.218
  184ACC    H0K24337   9.073   6.292   5.237
  184ACC    H0M24338   9.170   6.345   5.372
  184ACC    H0N24339   9.178   6.178   5.319
  184ACC    H0O24340   9.498   6.335   5.207
  184ACC    H0P24341   9.430   6.211   5.311
  184ACC    H0Q24342   9.411   6.381   5.352
  185ACC    C0024343  14.763   1.781  13.896
  185ACC    C0124344  14.783   1.806  13.748
  185ACC    O0224345  14.881   1.866  13.704
  185ACC    O0324346  14.684   1.756  13.673
  185ACC    C0424347  14.686   1.772  13.532
  185ACC    C0524348  14.782   1.668  13.469
  185ACC    N0624349  14.806   1.683  13.321
  185ACC    C0724350  14.679   1.675  13.244
  185ACC    C0824351  14.876   1.812  13.291
  185ACC    C0924352  14.895   1.571  13.278
  185ACC    H0A24353  14.848   1.820  13.953
  185ACC    H0B24354  14.754   1.674  13.916
  185ACC    H0C24355  14.672   1.830  13.931
  185ACC    H0D24356  14.713   1.875  13.509
  185ACC    H0E24357  14.583   1.758  13.497
  185ACC    H0F24358  14.743   1.569  13.491
  185ACC    H0G24359  14.878   1.673  13.522
  185ACC    H0H24360  14.612   1.758  13.264
  185ACC    H0I24361  14.624   1.583  13.266
  185ACC    H0J24362  14.697   1.675  13.136
  185ACC    H0K24363  14.814   1.899  13.311
  185ACC    H0M24364  14.906   1.819  13.187
  185ACC    H0N24365  14.967   1.824  13.351
  185ACC    H0O24366  14.850   1.473  13.296
  185ACC    H0P24367  14.991   1.572  13.331
  185ACC    H0Q24368  14.918   1.575  13.171
  186ACC    C0024369   6.676  16.211  11.877
  186ACC    C0124370   6.552  16.123  11.870
  186ACC    O0224371   6.455  16.142  11.943
  186ACC    O0324372   6.562  16.027  11.777
  186ACC    C0424373   6.457  15.932  11.763
  186ACC    C0524374   6.340  15.996  11.683
  186ACC    N0624375   6.215  15.912  11.673
  186ACC    C0724376   6.243  15.781  11.607
  186ACC    C0824377   6.155  15.891  11.807
  186ACC    C0924378   6.117  15.987  11.589
  186ACC    H0A24379   6.664  16.288  11.952
  186ACC    H0B24380   6.694  16.258  11.780
  186ACC    H0C24381   6.763  16.150  11.902
  186ACC    H0D24382   6.427  15.898  11.862
  186ACC    H0E24383   6.498  15.846  11.711
  186ACC    H0F24384   6.377  16.021  11.583
  186ACC    H0G24385   6.315  16.092  11.728
  186ACC    H0H24386   6.309  15.717  11.667
  186ACC    H0I24387   6.291  15.794  11.510
  186ACC    H0J24388   6.152  15.724  11.590
  186ACC    H0K24389   6.216  15.827  11.872
  186ACC    H0M24390   6.057  15.842  11.801
  186ACC    H0N24391   6.140  15.985  11.861
  186ACC    H0O24392   6.155  16.006  11.488
  186ACC    H0P24393   6.092  16.085  11.632
  186ACC    H0Q24394   6.023  15.933  11.576
  187ACC    C0024395  11.104  11.534  16.875
  187ACC    C0124396  11.223  11.573  16.790
  187ACC    O0224397  11.255  11.690  16.773
  187ACC    O0324398  11.291  11.466  16.743
  187ACC    C0424399  11.385  11.484  16.639
  187ACC    C0524400  11.515  11.550  16.692
  187ACC    N0624401  11.616  11.588  16.587
  187ACC    C0724402  11.669  11.467  16.518
  187ACC    C0824403  11.556  11.682  16.488
  187ACC    C0924404  11.729  11.657  16.656
  187ACC    H0A24405  11.041  11.621  16.892
  187ACC    H0B24406  11.136  11.493  16.971
  187ACC    H0C24407  11.044  11.459  16.823
  187ACC    H0D24408  11.335  11.543  16.561
  187ACC    H0E24409  11.404  11.386  16.596
  187ACC    H0F24410  11.559  11.483  16.766
  187ACC    H0G24411  11.489  11.639  16.748
  187ACC    H0H24412  11.592  11.416  16.460
  187ACC    H0I24413  11.710  11.394  16.589
  187ACC    H0J24414  11.749  11.492  16.448
  187ACC    H0K24415  11.481  11.635  16.424
  187ACC    H0M24416  11.630  11.725  16.420
  187ACC    H0N24417  11.505  11.766  16.537
  187ACC    H0O24418  11.776  11.594  16.732
  187ACC    H0P24419  11.695  11.748  16.707
  187ACC    H0Q24420  11.807  11.688  16.587
  188ACC    C0024421   0.394   0.332  11.940
  188ACC    C0124422   0.290   0.415  12.013
  188ACC    O0224423   0.179   0.370  12.042
  188ACC    O0324424   0.334   0.538  12.044
  188ACC    C0424425   0.245   0.631  12.105
  188ACC    C0524426   0.229   0.599  12.256
  188ACC    N0624427   0.126   0.681  12.329
  188ACC    C0724428   0.157   0.826  12.321
  188ACC    C0824429  17.429   0.655  12.275
  188ACC    C0924430   0.128   0.639  12.472
  188ACC    H0A24431   0.353   0.233  11.915
  188ACC    H0B24432   0.483   0.318  12.001
  188ACC    H0C24433   0.422   0.381  11.847
  188ACC    H0D24434   0.150   0.628  12.051
  188ACC    H0E24435   0.287   0.730  12.089
  188ACC    H0F24436   0.327   0.610  12.303
  188ACC    H0G24437   0.205   0.493  12.267
  188ACC    H0H24438   0.150   0.866  12.220
  188ACC    H0I24439   0.258   0.849  12.357
  188ACC    H0J24440   0.089   0.886  12.383
  188ACC    H0K24441  17.416   0.693  12.174
  188ACC    H0M24442  17.352   0.702  12.336
  188ACC    H0N24443  17.407   0.548  12.271
  188ACC    H0O24444   0.226   0.656  12.519
  188ACC    H0P24445   0.106   0.533  12.485
  188ACC    H0Q24446   0.055   0.694  12.533
  189ACC    C0024447  14.500   4.120   7.309
  189ACC    C0124448  14.602   4.230   7.290
  189ACC    O0224449  14.572   4.348   7.306
  189ACC    O0324450  14.723   4.183   7.257
  189ACC    C0424451  14.829   4.274   7.229
  189ACC    C0524452  14.889   4.330   7.361
  189ACC    N0624453  14.999   4.431   7.346
  189ACC    C0724454  15.118   4.372   7.277
  189ACC    C0824455  14.950   4.551   7.271
  189ACC    C0924456  15.042   4.476   7.481
  189ACC    H0A24457  14.402   4.162   7.332
  189ACC    H0B24458  14.530   4.054   7.391
  189ACC    H0C24459  14.491   4.061   7.218
  189ACC    H0D24460  14.792   4.352   7.163
  189ACC    H0E24461  14.904   4.220   7.170
  189ACC    H0F24462  14.925   4.245   7.420
  189ACC    H0G24463  14.808   4.374   7.419
  189ACC    H0H24464  15.094   4.331   7.179
  189ACC    H0I24465  15.164   4.291   7.334
  189ACC    H0J24466  15.195   4.447   7.258
  189ACC    H0K24467  14.922   4.529   7.168
  189ACC    H0M24468  15.027   4.628   7.263
  189ACC    H0N24469  14.862   4.597   7.317
  189ACC    H0O24470  15.081   4.394   7.541
  189ACC    H0P24471  14.961   4.522   7.537
  189ACC    H0Q24472  15.122   4.551   7.475
  190ACC    C0024473   0.400   1.211  14.203
  190ACC    C0124474   0.397   1.261  14.346
  190ACC    O0224475   0.294   1.303  14.398
  190ACC    O0324476   0.517   1.252  14.405
  190ACC    C0424477   0.535   1.296  14.539
  190ACC    C0524478   0.491   1.182  14.635
  190ACC    N0624479   0.490   1.217  14.781
  190ACC    C0724480   0.624   1.266  14.826
  190ACC    C0824481   0.386   1.320  14.811
  190ACC    C0924482   0.457   1.093  14.858
  190ACC    H0A24483   0.300   1.209  14.160
  190ACC    H0B24484   0.441   1.110  14.200
  190ACC    H0C24485   0.464   1.275  14.142
  190ACC    H0D24486   0.480   1.388  14.554
  190ACC    H0E24487   0.641   1.320  14.550
  190ACC    H0F24488   0.558   1.097  14.618
  190ACC    H0G24489   0.392   1.147  14.605
  190ACC    H0H24490   0.653   1.360  14.780
  190ACC    H0I24491   0.703   1.194  14.803
  190ACC    H0J24492   0.627   1.282  14.934
  190ACC    H0K24493   0.408   1.417  14.766
  190ACC    H0M24494   0.375   1.338  14.918
  190ACC    H0N24495   0.287   1.290  14.774
  190ACC    H0O24496   0.530   1.014  14.842
  190ACC    H0P24497   0.360   1.052  14.829
  190ACC    H0Q24498   0.453   1.111  14.966
  191ACC    C0024499   7.394   9.825   4.888
  191ACC    C0124500   7.251   9.828   4.839
  191ACC    O0224501   7.175   9.920   4.867
  191ACC    O0324502   7.219   9.721   4.764
  191ACC    C0424503   7.085   9.706   4.717
  191ACC    C0524504   7.060   9.799   4.595
  191ACC    N0624505   6.919   9.803   4.544
  191ACC    C0724506   6.872   9.668   4.502
  191ACC    C0824507   6.826   9.859   4.647
  191ACC    C0924508   6.916   9.894   4.426
  191ACC    H0A24509   7.415   9.913   4.949
  191ACC    H0B24510   7.463   9.824   4.804
  191ACC    H0C24511   7.412   9.736   4.949
  191ACC    H0D24512   7.017   9.726   4.800
  191ACC    H0E24513   7.072   9.601   4.690
  191ACC    H0F24514   7.129   9.770   4.516
  191ACC    H0G24515   7.091   9.901   4.623
  191ACC    H0H24516   6.863   9.599   4.586
  191ACC    H0I24517   6.940   9.622   4.429
  191ACC    H0J24518   6.773   9.672   4.455
  191ACC    H0K24519   6.814   9.794   4.734
  191ACC    H0M24520   6.726   9.875   4.608
  191ACC    H0N24521   6.861   9.956   4.686
  191ACC    H0O24522   6.982   9.859   4.345
  191ACC    H0P24523   6.948   9.995   4.450
  191ACC    H0Q24524   6.816   9.902   4.383
  192ACC    C0024525   7.169   3.497  14.597
  192ACC    C0124526   7.202   3.485  14.449
  192ACC    O0224527   7.317   3.471  14.409
  192ACC    O0324528   7.093   3.491  14.371
  192ACC    C0424529   7.108   3.487  14.230
  192ACC    C0524530   7.134   3.341  14.184
  192ACC    N0624531   7.169   3.323  14.040
  192ACC    C0724532   7.061   3.376  13.951
  192ACC    C0824533   7.299   3.388  14.008
  192ACC    C0924534   7.183   3.176  14.014
  192ACC    H0A24535   7.259   3.489  14.657
  192ACC    H0B24536   7.101   3.417  14.627
  192ACC    H0C24537   7.121   3.593  14.618
  192ACC    H0D24538   7.189   3.555  14.202
  192ACC    H0E24539   7.017   3.527  14.186
  192ACC    H0F24540   7.045   3.282  14.210
  192ACC    H0G24541   7.214   3.298  14.246
  192ACC    H0H24542   7.051   3.484  13.958
  192ACC    H0I24543   6.964   3.333  13.975
  192ACC    H0J24544   7.081   3.354  13.845
  192ACC    H0K24545   7.295   3.497  14.014
  192ACC    H0M24546   7.333   3.365  13.907
  192ACC    H0N24547   7.378   3.356  14.076
  192ACC    H0O24548   7.091   3.121  14.036
  192ACC    H0P24549   7.261   3.131  14.076
  192ACC    H0Q24550   7.209   3.154  13.910
  193ACC    C0024551   9.323   1.343   2.701
  193ACC    C0124552   9.314   1.494   2.715
  193ACC    O0224553   9.305   1.548   2.824
  193ACC    O0324554   9.320   1.558   2.596
  193ACC    C0424555   9.296   1.698   2.591
  193ACC    C0524556   9.419   1.777   2.642
  193ACC    N0624557   9.401   1.925   2.652
  193ACC    C0724558   9.373   1.985   2.518
  193ACC    C0824559   9.291   1.961   2.747
  193ACC    C0924560   9.528   1.983   2.704
  193ACC    H0A24561   9.308   1.295   2.798
  193ACC    H0B24562   9.421   1.313   2.663
  193ACC    H0C24563   9.246   1.307   2.633
  193ACC    H0D24564   9.205   1.718   2.648
  193ACC    H0E24565   9.273   1.722   2.487
  193ACC    H0F24566   9.504   1.752   2.578
  193ACC    H0G24567   9.446   1.738   2.741
  193ACC    H0H24568   9.277   1.954   2.477
  193ACC    H0I24569   9.449   1.959   2.444
  193ACC    H0J24570   9.370   2.095   2.522
  193ACC    H0K24571   9.192   1.933   2.710
  193ACC    H0M24572   9.286   2.068   2.766
  193ACC    H0N24573   9.303   1.912   2.844
  193ACC    H0O24574   9.613   1.961   2.639
  193ACC    H0P24575   9.553   1.944   2.803
  193ACC    H0Q24576   9.523   2.092   2.714
  194ACC    C0024577   5.768   9.143  15.113
  194ACC    C0124578   5.680   9.068  15.211
  194ACC    O0224579   5.641   8.954  15.189
  194ACC    O0324580   5.653   9.139  15.322
  194ACC    C0424581   5.562   9.087  15.418
  194ACC    C0524582   5.632   8.979  15.505
  194ACC    N0624583   5.542   8.905  15.601
  194ACC    C0724584   5.478   8.999  15.698
  194ACC    C0824585   5.438   8.827  15.528
  194ACC    C0924586   5.627   8.809  15.678
  194ACC    H0A24587   5.786   9.082  15.024
  194ACC    H0B24588   5.865   9.167  15.158
  194ACC    H0C24589   5.720   9.235  15.081
  194ACC    H0D24590   5.475   9.048  15.365
  194ACC    H0E24591   5.527   9.170  15.479
  194ACC    H0F24592   5.714   9.026  15.558
  194ACC    H0G24593   5.679   8.906  15.438
  194ACC    H0H24594   5.407   9.067  15.650
  194ACC    H0I24595   5.551   9.060  15.751
  194ACC    H0J24596   5.421   8.945  15.774
  194ACC    H0K24597   5.364   8.891  15.478
  194ACC    H0M24598   5.381   8.763  15.595
  194ACC    H0N24599   5.481   8.763  15.451
  194ACC    H0O24600   5.706   8.859  15.734
  194ACC    H0P24601   5.676   8.736  15.612
  194ACC    H0Q24602   5.569   8.751  15.750
  195ACC    C0024603   7.930   6.784   8.562
  195ACC    C0124604   7.797   6.839   8.513
  195ACC    O0224605   7.693   6.823   8.577
  195ACC    O0324606   7.808   6.906   8.397
  195ACC    C0424607   7.691   6.960   8.336
  195ACC    C0524608   7.651   7.092   8.406
  195ACC    N0624609   7.522   7.153   8.360
  195ACC    C0724610   7.525   7.184   8.214
  195ACC    C0824611   7.406   7.064   8.391
  195ACC    C0924612   7.502   7.281   8.435
  195ACC    H0A24613   7.918   6.732   8.656
  195ACC    H0B24614   8.002   6.865   8.576
  195ACC    H0C24615   7.971   6.714   8.489
  195ACC    H0D24616   7.613   6.884   8.339
  195ACC    H0E24617   7.715   6.976   8.231
  195ACC    H0F24618   7.733   7.163   8.394
  195ACC    H0G24619   7.645   7.074   8.514
  195ACC    H0H24620   7.530   7.094   8.152
  195ACC    H0I24621   7.610   7.247   8.188
  195ACC    H0J24622   7.435   7.238   8.182
  195ACC    H0K24623   7.407   6.972   8.332
  195ACC    H0M24624   7.310   7.112   8.371
  195ACC    H0N24625   7.404   7.034   8.496
  195ACC    H0O24626   7.583   7.352   8.417
  195ACC    H0P24627   7.498   7.265   8.543
  195ACC    H0Q24628   7.410   7.332   8.408
  196ACC    C0024629   4.051   6.782   7.016
  196ACC    C0124630   3.958   6.765   6.897
  196ACC    O0224631   3.840   6.802   6.902
  196ACC    O0324632   4.017   6.710   6.790
  196ACC    C0424633   3.940   6.676   6.676
  196ACC    C0524634   3.907   6.804   6.594
  196ACC    N0624635   3.813   6.784   6.479
  196ACC    C0724636   3.869   6.687   6.380
  196ACC    C0824637   3.679   6.738   6.525
  196ACC    C0924638   3.796   6.916   6.411
  196ACC    H0A24639   3.997   6.823   7.101
  196ACC    H0B24640   4.133   6.849   6.991
  196ACC    H0C24641   4.092   6.685   7.045
  196ACC    H0D24642   3.850   6.624   6.711
  196ACC    H0E24643   3.997   6.605   6.618
  196ACC    H0F24644   4.001   6.847   6.561
  196ACC    H0G24645   3.864   6.879   6.662
  196ACC    H0H24646   3.876   6.586   6.420
  196ACC    H0I24647   3.969   6.716   6.346
  196ACC    H0J24648   3.806   6.680   6.290
  196ACC    H0K24649   3.681   6.636   6.566
  196ACC    H0M24650   3.605   6.736   6.445
  196ACC    H0N24651   3.638   6.802   6.604
  196ACC    H0O24652   3.890   6.957   6.375
  196ACC    H0P24653   3.754   6.991   6.479
  196ACC    H0Q24654   3.728   6.911   6.326
  197ACC    C0024655  13.436  11.777   9.027
  197ACC    C0124656  13.582  11.818   9.032
  197ACC    O0224657  13.651  11.826   8.930
  197ACC    O0324658  13.626  11.843   9.157
  197ACC    C0424659  13.763  11.873   9.178
  197ACC    C0524660  13.792  12.020   9.139
  197ACC    N0624661  13.937  12.061   9.141
  197ACC    C0724662  13.996  12.041   9.277
  197ACC    C0824663  14.015  11.984   9.040
  197ACC    C0924664  13.944  12.205   9.106
  197ACC    H0A24665  13.405  11.758   8.924
  197ACC    H0B24666  13.373  11.856   9.068
  197ACC    H0C24667  13.420  11.686   9.085
  197ACC    H0D24668  13.823  11.801   9.122
  197ACC    H0E24669  13.783  11.855   9.284
  197ACC    H0F24670  13.733  12.084   9.204
  197ACC    H0G24671  13.752  12.038   9.038
  197ACC    H0H24672  14.002  11.936   9.305
  197ACC    H0I24673  13.938  12.092   9.354
  197ACC    H0J24674  14.098  12.080   9.282
  197ACC    H0K24675  14.024  11.878   9.063
  197ACC    H0M24676  14.118  12.021   9.030
  197ACC    H0N24677  13.970  11.991   8.940
  197ACC    H0O24678  13.889  12.268   9.176
  197ACC    H0P24679  13.903  12.226   9.007
  197ACC    H0Q24680  14.047  12.243   9.105
  198ACC    C0024681   1.802  15.873   8.367
  198ACC    C0124682   1.879  15.750   8.409
  198ACC    O0224683   1.826  15.658   8.472
  198ACC    O0324684   2.007  15.751   8.367
  198ACC    C0424685   2.096  15.649   8.410
  198ACC    C0524686   2.073  15.521   8.326
  198ACC    N0624687   2.150  15.400   8.370
  198ACC    C0724688   2.297  15.425   8.367
  198ACC    C0824689   2.107  15.357   8.506
  198ACC    C0924690   2.119  15.290   8.274
  198ACC    H0A24691   1.700  15.870   8.405
  198ACC    H0B24692   1.799  15.883   8.259
  198ACC    H0C24693   1.850  15.962   8.408
  198ACC    H0D24694   2.080  15.634   8.517
  198ACC    H0E24695   2.196  15.689   8.399
  198ACC    H0F24696   2.095  15.547   8.222
  198ACC    H0G24697   1.966  15.498   8.326
  198ACC    H0H24698   2.327  15.500   8.441
  198ACC    H0I24699   2.330  15.462   8.270
  198ACC    H0J24700   2.354  15.335   8.389
  198ACC    H0K24701   2.135  15.428   8.584
  198ACC    H0M24702   2.152  15.261   8.535
  198ACC    H0N24703   1.999  15.345   8.513
  198ACC    H0O24704   2.147  15.315   8.171
  198ACC    H0P24705   2.012  15.266   8.272
  198ACC    H0Q24706   2.170  15.197   8.299
  199ACC    C0024707  14.181  15.802   2.064
  199ACC    C0124708  14.113  15.937   2.051
  199ACC    O0224709  14.047  15.986   2.142
  199ACC    O0324710  14.135  15.995   1.931
  199ACC    C0424711  14.076  16.120   1.902
  199ACC    C0524712  14.156  16.235   1.969
  199ACC    N0624713  14.096  16.372   1.958
  199ACC    C0724714  14.077  16.412   1.816
  199ACC    C0824715  13.967  16.379   2.032
  199ACC    C0924716  14.191  16.469   2.021
  199ACC    H0A24717  14.164  15.760   2.163
  199ACC    H0B24718  14.288  15.811   2.048
  199ACC    H0C24719  14.141  15.732   1.990
  199ACC    H0D24720  13.972  16.117   1.934
  199ACC    H0E24721  14.075  16.130   1.793
  199ACC    H0F24722  14.257  16.234   1.926
  199ACC    H0G24723  14.171  16.210   2.074
  199ACC    H0H24724  14.002  16.350   1.764
  199ACC    H0I24725  14.169  16.404   1.758
  199ACC    H0J24726  14.043  16.515   1.806
  199ACC    H0K24727  13.888  16.318   1.986
  199ACC    H0M24728  13.928  16.481   2.036
  199ACC    H0N24729  13.977  16.345   2.135
  199ACC    H0O24730  14.288  16.470   1.971
  199ACC    H0P24731  14.210  16.446   2.126
  199ACC    H0Q24732  14.154  16.571   2.018
  200ACC    C0024733   9.618  12.573  16.147
  200ACC    C0124734   9.528  12.691  16.179
  200ACC    O0224735   9.489  12.715  16.293
  200ACC    O0324736   9.497  12.765  16.070
  200ACC    C0424737   9.408  12.874  16.083
  200ACC    C0524738   9.481  12.995  16.146
  200ACC    N0624739   9.394  13.112  16.183
  200ACC    C0724740   9.321  13.165  16.063
  200ACC    C0824741   9.297  13.075  16.290
  200ACC    C0924742   9.483  13.220  16.236
  200ACC    H0A24743   9.641  12.517  16.238
  200ACC    H0B24744   9.712  12.607  16.103
  200ACC    H0C24745   9.570  12.506  16.077
  200ACC    H0D24746   9.322  12.841  16.142
  200ACC    H0E24747   9.370  12.897  15.984
  200ACC    H0F24748   9.560  13.025  16.077
  200ACC    H0G24749   9.534  12.961  16.236
  200ACC    H0H24750   9.248  13.094  16.024
  200ACC    H0I24751   9.389  13.188  15.981
  200ACC    H0J24752   9.266  13.256  16.086
  200ACC    H0K24753   9.221  13.004  16.256
  200ACC    H0M24754   9.242  13.162  16.327
  200ACC    H0N24755   9.346  13.029  16.376
  200ACC    H0O24756   9.557  13.252  16.162
  200ACC    H0P24757   9.538  13.187  16.324
  200ACC    H0Q24758   9.427  13.309  16.265
  201ACC    C0024759  13.862  13.563   5.853
  201ACC    C0124760  13.748  13.657   5.821
  201ACC    O0224761  13.739  13.769   5.873
  201ACC    O0324762  13.661  13.606   5.733
  201ACC    C0424763  13.543  13.679   5.699
  201ACC    C0524764  13.576  13.793   5.599
  201ACC    N0624765  13.463  13.885   5.565
  201ACC    C0724766  13.349  13.811   5.504
  201ACC    C0824767  13.416  13.960   5.686
  201ACC    C0924768  13.512  13.985   5.466
  201ACC    H0A24769  13.929  13.607   5.927
  201ACC    H0B24770  13.920  13.540   5.764
  201ACC    H0C24771  13.824  13.469   5.894
  201ACC    H0D24772  13.498  13.715   5.791
  201ACC    H0E24773  13.473  13.607   5.656
  201ACC    H0F24774  13.617  13.747   5.509
  201ACC    H0G24775  13.659  13.852   5.640
  201ACC    H0H24776  13.301  13.742   5.574
  201ACC    H0I24777  13.379  13.753   5.417
  201ACC    H0J24778  13.270  13.879   5.470
  201ACC    H0K24779  13.367  13.895   5.759
  201ACC    H0M24780  13.342  14.037   5.660
  201ACC    H0N24781  13.498  14.010   5.737
  201ACC    H0O24782  13.547  13.937   5.374
  201ACC    H0P24783  13.596  14.044   5.505
  201ACC    H0Q24784  13.435  14.056   5.437
  202ACC    C0024785   1.531  14.283   7.476
  202ACC    C0124786   1.500  14.432   7.475
  202ACC    O0224787   1.479  14.494   7.579
  202ACC    O0324788   1.498  14.484   7.351
  202ACC    C0424789   1.456  14.618   7.332
  202ACC    C0524790   1.568  14.718   7.373
  202ACC    N0624791   1.532  14.863   7.360
  202ACC    C0724792   1.501  14.901   7.220
  202ACC    C0824793   1.416  14.898   7.447
  202ACC    C0924794   1.648  14.945   7.406
  202ACC    H0A24795   1.526  14.244   7.578
  202ACC    H0B24796   1.630  14.264   7.436
  202ACC    H0C24797   1.458  14.229   7.415
  202ACC    H0D24798   1.365  14.633   7.390
  202ACC    H0E24799   1.429  14.629   7.227
  202ACC    H0F24800   1.657  14.695   7.314
  202ACC    H0G24801   1.596  14.697   7.476
  202ACC    H0H24802   1.408  14.855   7.184
  202ACC    H0I24803   1.580  14.873   7.150
  202ACC    H0J24804   1.486  15.009   7.210
  202ACC    H0K24805   1.325  14.842   7.426
  202ACC    H0M24806   1.388  15.003   7.433
  202ACC    H0N24807   1.438  14.886   7.553
  202ACC    H0O24808   1.737  14.929   7.345
  202ACC    H0P24809   1.675  14.922   7.510
  202ACC    H0Q24810   1.626  15.052   7.406
  203ACC    C0024811   3.302  15.398  10.107
  203ACC    C0124812   3.375  15.455   9.987
  203ACC    O0224813   3.377  15.397   9.878
  203ACC    O0324814   3.433  15.574  10.011
  203ACC    C0424815   3.509  15.637   9.909
  203ACC    C0524816   3.414  15.704   9.806
  203ACC    N0624817   3.481  15.761   9.685
  203ACC    C0724818   3.582  15.864   9.721
  203ACC    C0824819   3.544  15.654   9.603
  203ACC    C0924820   3.375  15.826   9.601
  203ACC    H0A24821   3.255  15.303  10.082
  203ACC    H0B24822   3.224  15.467  10.141
  203ACC    H0C24823   3.371  15.381  10.189
  203ACC    H0D24824   3.574  15.562   9.864
  203ACC    H0E24825   3.574  15.710   9.958
  203ACC    H0F24826   3.357  15.781   9.859
  203ACC    H0G24827   3.339  15.631   9.775
  203ACC    H0H24828   3.667  15.822   9.774
  203ACC    H0I24829   3.540  15.943   9.784
  203ACC    H0J24830   3.624  15.914   9.632
  203ACC    H0K24831   3.630  15.607   9.652
  203ACC    H0M24832   3.581  15.691   9.507
  203ACC    H0N24833   3.474  15.573   9.580
  203ACC    H0O24834   3.324  15.907   9.655
  203ACC    H0P24835   3.298  15.755   9.571
  203ACC    H0Q24836   3.415  15.870   9.510
  204ACC    C0024837  14.924   9.531   1.884
  204ACC    C0124838  15.023   9.644   1.908
  204ACC    O0224839  15.053   9.681   2.021
  204ACC    O0324840  15.073   9.696   1.794
  204ACC    C0424841  15.167   9.802   1.801
  204ACC    C0524842  15.308   9.746   1.832
  204ACC    N0624843  15.415   9.848   1.856
  204ACC    C0724844  15.430   9.940   1.740
  204ACC    C0824845  15.387   9.926   1.981
  204ACC    C0924846  15.544   9.775   1.875
  204ACC    H0A24847  14.893   9.487   1.979
  204ACC    H0B24848  14.969   9.453   1.823
  204ACC    H0C24849  14.835   9.569   1.833
  204ACC    H0D24850  15.133   9.874   1.875
  204ACC    H0E24851  15.165   9.853   1.704
  204ACC    H0F24852  15.336   9.679   1.751
  204ACC    H0G24853  15.300   9.680   1.920
  204ACC    H0H24854  15.342  10.004   1.726
  204ACC    H0I24855  15.446   9.886   1.647
  204ACC    H0J24856  15.515  10.008   1.753
  204ACC    H0K24857  15.299   9.989   1.973
  204ACC    H0M24858  15.470   9.992   2.007
  204ACC    H0N24859  15.372   9.860   2.067
  204ACC    H0O24860  15.572   9.716   1.788
  204ACC    H0P24861  15.541   9.706   1.960
  204ACC    H0Q24862  15.628   9.843   1.895
  205ACC    C0024863   2.779   5.103  15.188
  205ACC    C0124864   2.791   5.254  15.186
  205ACC    O0224865   2.800   5.321  15.289
  205ACC    O0324866   2.793   5.304  15.061
  205ACC    C0424867   2.788   5.445  15.041
  205ACC    C0524868   2.927   5.508  15.070
  205ACC    N0624869   2.931   5.658  15.065
  205ACC    C0724870   2.894   5.709  14.929
  205ACC    C0824871   2.841   5.718  15.168
  205ACC    C0924872   3.071   5.700  15.095
  205ACC    H0A24873   2.770   5.067  15.291
  205ACC    H0B24874   2.866   5.056  15.143
  205ACC    H0C24875   2.690   5.071  15.134
  205ACC    H0D24876   2.709   5.484  15.104
  205ACC    H0E24877   2.757   5.461  14.938
  205ACC    H0F24878   2.998   5.465  14.999
  205ACC    H0G24879   2.960   5.475  15.168
  205ACC    H0H24880   2.790   5.689  14.904
  205ACC    H0I24881   2.955   5.664  14.850
  205ACC    H0J24882   2.907   5.817  14.922
  205ACC    H0K24883   2.736   5.702  15.146
  205ACC    H0M24884   2.854   5.826  15.176
  205ACC    H0N24885   2.859   5.676  15.267
  205ACC    H0O24886   3.143   5.660  15.023
  205ACC    H0P24887   3.104   5.667  15.194
  205ACC    H0Q24888   3.083   5.809  15.093
  206ACC    C0024889   4.266  14.561  15.476
  206ACC    C0124890   4.384  14.622  15.403
  206ACC    O0224891   4.412  14.591  15.287
  206ACC    O0324892   4.450  14.711  15.478
  206ACC    C0424893   4.564  14.779  15.428
  206ACC    C0524894   4.519  14.898  15.340
  206ACC    N0624895   4.630  14.971  15.269
  206ACC    C0724896   4.727  15.028  15.367
  206ACC    C0824897   4.702  14.883  15.172
  206ACC    C0924898   4.568  15.083  15.193
  206ACC    H0A24899   4.210  14.494  15.411
  206ACC    H0B24900   4.199  14.640  15.511
  206ACC    H0C24901   4.301  14.505  15.563
  206ACC    H0D24902   4.626  14.708  15.374
  206ACC    H0E24903   4.621  14.814  15.514
  206ACC    H0F24904   4.466  14.969  15.404
  206ACC    H0G24905   4.445  14.864  15.267
  206ACC    H0H24906   4.788  14.952  15.417
  206ACC    H0I24907   4.676  15.083  15.446
  206ACC    H0J24908   4.796  15.099  15.321
  206ACC    H0K24909   4.760  14.805  15.222
  206ACC    H0M24910   4.772  14.941  15.112
  206ACC    H0N24911   4.633  14.834  15.104
  206ACC    H0O24912   4.507  15.147  15.257
  206ACC    H0P24913   4.501  15.049  15.113
  206ACC    H0Q24914   4.642  15.150  15.148
  207ACC    C0024915  10.266   6.222  11.119
  207ACC    C0124916  10.129   6.283  11.099
  207ACC    O0224917  10.089   6.318  10.988
  207ACC    O0324918  10.058   6.292  11.213
  207ACC    C0424919   9.932   6.358  11.212
  207ACC    C0524920   9.824   6.268  11.149
  207ACC    N0624921   9.691   6.332  11.126
  207ACC    C0724922   9.631   6.381  11.254
  207ACC    C0824923   9.702   6.446  11.029
  207ACC    C0924924   9.600   6.230  11.066
  207ACC    H0A24925  10.321   6.221  11.024
  207ACC    H0B24926  10.258   6.119  11.155
  207ACC    H0C24927  10.323   6.280  11.191
  207ACC    H0D24928   9.945   6.453  11.159
  207ACC    H0E24929   9.908   6.384  11.315
  207ACC    H0F24930   9.814   6.179  11.212
  207ACC    H0G24931   9.862   6.229  11.054
  207ACC    H0H24932   9.688   6.462  11.298
  207ACC    H0I24933   9.624   6.301  11.328
  207ACC    H0J24934   9.529   6.419  11.239
  207ACC    H0K24935   9.757   6.531  11.069
  207ACC    H0M24936   9.605   6.485  10.999
  207ACC    H0N24937   9.754   6.416  10.937
  207ACC    H0O24938   9.587   6.143  11.132
  207ACC    H0P24939   9.639   6.191  10.971
  207ACC    H0Q24940   9.500   6.269  11.046
  208ACC    C0024941   5.275  10.790  16.066
  208ACC    C0124942   5.215  10.888  16.165
  208ACC    O0224943   5.212  11.009  16.143
  208ACC    O0324944   5.167  10.828  16.275
  208ACC    C0424945   5.103  10.905  16.377
  208ACC    C0524946   4.956  10.932  16.336
  208ACC    N0624947   4.879  11.023  16.427
  208ACC    C0724948   4.876  10.971  16.568
  208ACC    C0824949   4.935  11.161  16.425
  208ACC    C0924950   4.738  11.029  16.378
  208ACC    H0A24951   5.305  10.841  15.975
  208ACC    H0B24952   5.202  10.713  16.041
  208ACC    H0C24953   5.363  10.742  16.110
  208ACC    H0D24954   5.160  10.997  16.393
  208ACC    H0E24955   5.109  10.848  16.469
  208ACC    H0F24956   4.906  10.835  16.329
  208ACC    H0G24957   4.954  10.972  16.235
  208ACC    H0H24958   4.974  10.971  16.615
  208ACC    H0I24959   4.838  10.869  16.573
  208ACC    H0J24960   4.812  11.032  16.632
  208ACC    H0K24961   5.035  11.167  16.470
  208ACC    H0M24962   4.873  11.231  16.481
  208ACC    H0N24963   4.944  11.200  16.324
  208ACC    H0O24964   4.690  10.931  16.378
  208ACC    H0P24965   4.732  11.066  16.275
  208ACC    H0Q24966   4.675  11.095  16.438
  209ACC    C0024967  11.444  13.893   8.462
  209ACC    C0124968  11.399  13.964   8.335
  209ACC    O0224969  11.370  14.084   8.335
  209ACC    O0324970  11.397  13.883   8.228
  209ACC    C0424971  11.344  13.930   8.105
  209ACC    C0524972  11.445  14.023   8.033
  209ACC    N0624973  11.396  14.087   7.907
  209ACC    C0724974  11.361  13.985   7.804
  209ACC    C0824975  11.278  14.175   7.933
  209ACC    C0924976  11.506  14.172   7.853
  209ACC    H0A24977  11.436  13.960   8.547
  209ACC    H0B24978  11.547  13.860   8.452
  209ACC    H0C24979  11.381  13.806   8.480
  209ACC    H0D24980  11.249  13.979   8.126
  209ACC    H0E24981  11.321  13.842   8.045
  209ACC    H0F24982  11.536  13.965   8.014
  209ACC    H0G24983  11.476  14.101   8.103
  209ACC    H0H24984  11.275  13.923   7.832
  209ACC    H0I24985  11.443  13.916   7.784
  209ACC    H0J24986  11.334  14.030   7.708
  209ACC    H0K24987  11.189  14.118   7.961
  209ACC    H0M24988  11.249  14.233   7.845
  209ACC    H0N24989  11.297  14.246   8.014
  209ACC    H0O24990  11.596  14.114   7.830
  209ACC    H0P24991  11.536  14.250   7.923
  209ACC    H0Q24992  11.477  14.222   7.760
  210ACC    C0024993  14.174  12.180  10.833
  210ACC    C0124994  14.313  12.126  10.803
  210ACC    O0224995  14.405  12.137  10.883
  210ACC    O0324996  14.321  12.067  10.683
  210ACC    C0424997  14.446  12.017  10.638
  210ACC    C0524998  14.476  11.881  10.706
  210ACC    N0624999  14.612  11.823  10.678
  210ACC    C0725000  14.633  11.800  10.532
  210ACC    C0825001  14.720  11.911  10.732
  210ACC    C0925002  14.621  11.691  10.748
  210ACC    H0A25003  14.171  12.227  10.931
  210ACC    H0B25004  14.101  12.099  10.831
  210ACC    H0C25005  14.145  12.254  10.758
  210ACC    H0D25006  14.522  12.092  10.657
  210ACC    H0E25007  14.439  12.006  10.529
  210ACC    H0F25008  14.398  11.811  10.676
  210ACC    H0G25009  14.464  11.893  10.814
  210ACC    H0H25010  14.636  11.893  10.475
  210ACC    H0I25011  14.554  11.739  10.489
  210ACC    H0J25012  14.727  11.749  10.512
  210ACC    H0K25013  14.727  12.006  10.679
  210ACC    H0M25014  14.818  11.865  10.725
  210ACC    H0N25015  14.704  11.936  10.837
  210ACC    H0O25016  14.545  11.621  10.713
  210ACC    H0P25017  14.607  11.701  10.856
  210ACC    H0Q25018  14.717  11.642  10.733
  211ACC    C0025019  12.290   2.363  10.348
  211ACC    C0125020  12.161   2.291  10.316
  211ACC    O0225021  12.138   2.243  10.205
  211ACC    O0325022  12.078   2.289  10.421
  211ACC    C0425023  11.940   2.260  10.402
  211ACC    C0525024  11.915   2.108  10.386
  211ACC    N0625025  11.775   2.071  10.349
  211ACC    C0725026  11.675   2.128  10.444
  211ACC    C0825027  11.743   2.117  10.210
  211ACC    C0925028  11.764   1.922  10.352
  211ACC    H0A25029  12.356   2.363  10.261
  211ACC    H0B25030  12.341   2.315  10.432
  211ACC    H0C25031  12.268   2.466  10.375
  211ACC    H0D25032  11.903   2.319  10.318
  211ACC    H0E25033  11.889   2.297  10.490
  211ACC    H0F25034  11.943   2.062  10.481
  211ACC    H0G25035  11.985   2.067  10.313
  211ACC    H0H25036  11.670   2.238  10.438
  211ACC    H0I25037  11.698   2.105  10.548
  211ACC    H0J25038  11.573   2.094  10.424
  211ACC    H0K25039  11.737   2.225  10.203
  211ACC    H0M25040  11.647   2.078  10.174
  211ACC    H0N25041  11.819   2.085  10.138
  211ACC    H0O25042  11.785   1.882  10.452
  211ACC    H0P25043  11.835   1.874  10.284
  211ACC    H0Q25044  11.665   1.886  10.324
  212ACC    C0025045  11.564   5.844   6.410
  212ACC    C0125046  11.672   5.804   6.508
  212ACC    O0225047  11.653   5.803   6.630
  212ACC    O0325048  11.787   5.768   6.449
  212ACC    C0425049  11.900   5.736   6.528
  212ACC    C0525050  11.886   5.592   6.585
  212ACC    N0625051  11.993   5.550   6.682
  212ACC    C0725052  12.128   5.555   6.620
  212ACC    C0825053  11.990   5.635   6.805
  212ACC    C0925054  11.964   5.409   6.722
  212ACC    H0A25055  11.473   5.873   6.463
  212ACC    H0B25056  11.540   5.761   6.343
  212ACC    H0C25057  11.597   5.929   6.350
  212ACC    H0D25058  11.910   5.811   6.606
  212ACC    H0E25059  11.988   5.745   6.464
  212ACC    H0F25060  11.881   5.523   6.501
  212ACC    H0G25061  11.788   5.584   6.634
  212ACC    H0H25062  12.160   5.657   6.596
  212ACC    H0I25063  12.133   5.497   6.527
  212ACC    H0J25064  12.205   5.515   6.686
  212ACC    H0K25065  12.020   5.738   6.786
  212ACC    H0M25066  12.057   5.597   6.882
  212ACC    H0N25067  11.890   5.639   6.850
  212ACC    H0O25068  11.965   5.341   6.637
  212ACC    H0P25069  11.867   5.399   6.770
  212ACC    H0Q25070  12.038   5.371   6.794
  213ACC    C0025071  13.643   0.894   8.737
  213ACC    C0125072  13.659   1.028   8.805
  213ACC    O0225073  13.620   1.132   8.752
  213ACC    O0325074  13.716   1.018   8.926
  213ACC    C0425075  13.753   1.135   8.998
  213ACC    C0525076  13.627   1.201   9.061
  213ACC    N0625077  13.651   1.332   9.129
  213ACC    C0725078  13.745   1.317   9.244
  213ACC    C0825079  13.704   1.434   9.033
  213ACC    C0925080  13.520   1.380   9.182
  213ACC    H0A25081  13.605   0.906   8.636
  213ACC    H0B25082  13.575   0.831   8.793
  213ACC    H0C25083  13.740   0.844   8.731
  213ACC    H0D25084  13.806   1.202   8.930
  213ACC    H0E25085  13.824   1.105   9.075
  213ACC    H0F25086  13.585   1.129   9.132
  213ACC    H0G25087  13.552   1.213   8.984
  213ACC    H0H25088  13.846   1.289   9.214
  213ACC    H0I25089  13.712   1.239   9.314
  213ACC    H0J25090  13.755   1.408   9.303
  213ACC    H0K25091  13.806   1.412   9.001
  213ACC    H0M25092  13.707   1.534   9.077
  213ACC    H0N25093  13.643   1.440   8.943
  213ACC    H0O25094  13.478   1.310   9.254
  213ACC    H0P25095  13.446   1.393   9.102
  213ACC    H0Q25096  13.529   1.476   9.233
  214ACC    C0025097  12.258   1.016  13.489
  214ACC    C0125098  12.318   0.880  13.462
  214ACC    O0225099  12.257   0.792  13.400
  214ACC    O0325100  12.443   0.867  13.510
  214ACC    C0425101  12.508   0.740  13.506
  214ACC    C0525102  12.557   0.707  13.363
  214ACC    N0625103  12.612   0.569  13.343
  214ACC    C0725104  12.732   0.545  13.429
  214ACC    C0825105  12.508   0.465  13.371
  214ACC    C0925106  12.653   0.556  13.200
  214ACC    H0A25107  12.153   1.018  13.458
  214ACC    H0B25108  12.312   1.094  13.435
  214ACC    H0C25109  12.262   1.038  13.596
  214ACC    H0D25110  12.437   0.666  13.544
  214ACC    H0E25111  12.591   0.744  13.577
  214ACC    H0F25112  12.631   0.782  13.335
  214ACC    H0G25113  12.474   0.723  13.293
  214ACC    H0H25114  12.708   0.545  13.535
  214ACC    H0I25115  12.809   0.621  13.413
  214ACC    H0J25116  12.778   0.448  13.409
  214ACC    H0K25117  12.482   0.460  13.477
  214ACC    H0M25118  12.541   0.365  13.343
  214ACC    H0N25119  12.415   0.485  13.317
  214ACC    H0O25120  12.730   0.629  13.173
  214ACC    H0P25121  12.569   0.571  13.132
  214ACC    H0Q25122  12.695   0.457  13.178
  215ACC    C0025123  14.735  10.131  16.204
  215ACC    C0125124  14.671  10.261  16.159
  215ACC    O0225125  14.650  10.354  16.237
  215ACC    O0325126  14.648  10.265  16.025
  215ACC    C0425127  14.558  10.361  15.974
  215ACC    C0525128  14.616  10.505  15.980
  215ACC    N0625129  14.519  10.616  15.954
  215ACC    C0725130  14.473  10.613  15.813
  215ACC    C0825131  14.402  10.607  16.047
  215ACC    C0925132  14.590  10.744  15.981
  215ACC    H0A25133  14.722  10.121  16.312
  215ACC    H0B25134  14.841  10.129  16.180
  215ACC    H0C25135  14.685  10.046  16.157
  215ACC    H0D25136  14.466  10.349  16.031
  215ACC    H0E25137  14.535  10.332  15.871
  215ACC    H0F25138  14.702  10.510  15.913
  215ACC    H0G25139  14.659  10.522  16.079
  215ACC    H0H25140  14.416  10.523  15.790
  215ACC    H0I25141  14.557  10.615  15.743
  215ACC    H0J25142  14.409  10.698  15.788
  215ACC    H0K25143  14.335  10.523  16.024
  215ACC    H0M25144  14.339  10.696  16.043
  215ACC    H0N25145  14.433  10.594  16.151
  215ACC    H0O25146  14.679  10.755  15.919
  215ACC    H0P25147  14.623  10.752  16.085
  215ACC    H0Q25148  14.527  10.832  15.962
  216ACC    C0025149  13.537  15.180  13.619
  216ACC    C0125150  13.685  15.146  13.619
  216ACC    O0225151  13.745  15.116  13.516
  216ACC    O0325152  13.740  15.154  13.741
  216ACC    C0425153  13.877  15.120  13.760
  216ACC    C0525154  13.968  15.237  13.714
  216ACC    N0625155  14.115  15.209  13.716
  216ACC    C0725156  14.162  15.173  13.853
  216ACC    C0825157  14.150  15.100  13.619
  216ACC    C0925158  14.186  15.333  13.674
  216ACC    H0A25159  13.496  15.173  13.518
  216ACC    H0B25160  13.522  15.282  13.656
  216ACC    H0C25161  13.483  15.111  13.683
  216ACC    H0D25162  13.896  15.027  13.706
  216ACC    H0E25163  13.890  15.098  13.866
  216ACC    H0F25164  13.944  15.323  13.777
  216ACC    H0G25165  13.938  15.266  13.613
  216ACC    H0H25166  14.121  15.078  13.888
  216ACC    H0I25167  14.135  15.248  13.927
  216ACC    H0J25168  14.271  15.162  13.858
  216ACC    H0K25169  14.112  15.003  13.649
  216ACC    H0M25170  14.259  15.088  13.610
  216ACC    H0N25171  14.112  15.120  13.519
  216ACC    H0O25172  14.165  15.417  13.741
  216ACC    H0P25173  14.157  15.366  13.573
  216ACC    H0Q25174  14.294  15.321  13.672
  217ACC    C0025175   2.726   0.738  12.213
  217ACC    C0125176   2.815   0.853  12.259
  217ACC    O0225177   2.871   0.928  12.179
  217ACC    O0325178   2.823   0.862  12.393
  217ACC    C0425179   2.903   0.963  12.451
  217ACC    C0525180   2.826   1.098  12.450
  217ACC    N0625181   2.904   1.218  12.496
  217ACC    C0725182   2.957   1.200  12.634
  217ACC    C0825183   3.017   1.247  12.402
  217ACC    C0925184   2.812   1.336  12.496
  217ACC    H0A25185   2.717   0.739  12.104
  217ACC    H0B25186   2.626   0.748  12.256
  217ACC    H0C25187   2.768   0.643  12.243
  217ACC    H0D25188   2.998   0.968  12.398
  217ACC    H0E25189   2.926   0.932  12.553
  217ACC    H0F25190   2.736   1.086  12.511
  217ACC    H0G25191   2.789   1.116  12.349
  217ACC    H0H25192   3.032   1.121  12.641
  217ACC    H0I25193   2.878   1.175  12.705
  217ACC    H0J25194   3.005   1.291  12.672
  217ACC    H0K25195   3.094   1.170  12.402
  217ACC    H0M25196   3.067   1.341  12.426
  217ACC    H0N25197   2.982   1.256  12.298
  217ACC    H0O25198   2.727   1.322  12.563
  217ACC    H0P25199   2.770   1.355  12.397
  217ACC    H0Q25200   2.862   1.428  12.527
  218ACC    C0025201  15.398   3.095   5.676
  218ACC    C0125202  15.499   3.207   5.672
  218ACC    O0225203  15.541   3.254   5.566
  218ACC    O0325204  15.536   3.249   5.794
  218ACC    C0425205  15.638   3.347   5.808
  218ACC    C0525206  15.582   3.488   5.778
  218ACC    N0625207  15.684   3.599   5.775
  218ACC    C0725208  15.754   3.611   5.907
  218ACC    C0825209  15.783   3.578   5.666
  218ACC    C0925210  15.611   3.726   5.749
  218ACC    H0A25211  15.373   3.062   5.575
  218ACC    H0B25212  15.307   3.128   5.726
  218ACC    H0C25213  15.439   3.010   5.731
  218ACC    H0D25214  15.721   3.319   5.743
  218ACC    H0E25215  15.675   3.340   5.911
  218ACC    H0F25216  15.504   3.509   5.851
  218ACC    H0G25217  15.531   3.485   5.681
  218ACC    H0H25218  15.816   3.524   5.930
  218ACC    H0I25219  15.684   3.622   5.990
  218ACC    H0J25220  15.820   3.697   5.910
  218ACC    H0K25221  15.849   3.493   5.684
  218ACC    H0M25222  15.850   3.664   5.654
  218ACC    H0N25223  15.735   3.561   5.569
  218ACC    H0O25224  15.537   3.749   5.825
  218ACC    H0P25225  15.558   3.724   5.653
  218ACC    H0Q25226  15.679   3.812   5.745
  219ACC    C0025227   4.961   3.009  12.298
  219ACC    C0125228   4.897   2.881  12.247
  219ACC    O0225229   4.776   2.871  12.234
  219ACC    O0325230   4.987   2.785  12.217
  219ACC    C0425231   4.939   2.658  12.173
  219ACC    C0525232   4.896   2.665  12.024
  219ACC    N0625233   4.833   2.541  11.969
  219ACC    C0725234   4.923   2.423  11.981
  219ACC    C0825235   4.703   2.513  12.037
  219ACC    C0925236   4.805   2.564  11.824
  219ACC    H0A25237   4.884   3.084  12.317
  219ACC    H0B25238   5.031   3.049  12.225
  219ACC    H0C25239   5.014   2.989  12.391
  219ACC    H0D25240   4.858   2.627  12.239
  219ACC    H0E25241   5.020   2.586  12.188
  219ACC    H0F25242   4.984   2.693  11.965
  219ACC    H0G25243   4.827   2.748  12.012
  219ACC    H0H25244   4.940   2.393  12.085
  219ACC    H0I25245   5.021   2.441  11.936
  219ACC    H0J25246   4.881   2.335  11.932
  219ACC    H0K25247   4.714   2.485  12.142
  219ACC    H0M25248   4.649   2.430  11.989
  219ACC    H0N25249   4.635   2.599  12.034
  219ACC    H0O25250   4.896   2.585  11.767
  219ACC    H0P25251   4.738   2.649  11.808
  219ACC    H0Q25252   4.758   2.478  11.776
  220ACC    C0025253   4.248   2.183  14.008
  220ACC    C0125254   4.219   2.034  14.008
  220ACC    O0225255   4.203   1.971  13.904
  220ACC    O0325256   4.215   1.982  14.132
  220ACC    C0425257   4.176   1.847  14.150
  220ACC    C0525258   4.293   1.752  14.114
  220ACC    N0625259   4.261   1.605  14.117
  220ACC    C0725260   4.218   1.561  14.253
  220ACC    C0825261   4.156   1.571  14.016
  220ACC    C0925262   4.385   1.531  14.080
  220ACC    H0A25263   4.245   2.223  13.907
  220ACC    H0B25264   4.347   2.203  14.050
  220ACC    H0C25265   4.174   2.236  14.068
  220ACC    H0D25266   4.087   1.829  14.091
  220ACC    H0E25267   4.147   1.836  14.255
  220ACC    H0F25268   4.376   1.774  14.181
  220ACC    H0G25269   4.330   1.779  14.014
  220ACC    H0H25270   4.123   1.606  14.283
  220ACC    H0I25271   4.291   1.588  14.329
  220ACC    H0J25272   4.204   1.453  14.258
  220ACC    H0K25273   4.058   1.613  14.043
  220ACC    H0M25274   4.141   1.464  14.007
  220ACC    H0N25275   4.180   1.609  13.917
  220ACC    H0O25276   4.467   1.551  14.150
  220ACC    H0P25277   4.422   1.558  13.981
  220ACC    H0Q25278   4.370   1.422  14.080
  221ACC    C0025279   6.555   9.460  15.030
  221ACC    C0125280   6.701   9.498  15.041
  221ACC    O0225281   6.739   9.615  15.028
  221ACC    O0325282   6.782   9.393  15.066
  221ACC    C0425283   6.923   9.410  15.063
  221ACC    C0525284   6.972   9.480  15.192
  221ACC    N0625285   7.118   9.514  15.196
  221ACC    C0725286   7.203   9.392  15.186
  221ACC    C0825287   7.154   9.609  15.086
  221ACC    C0925288   7.147   9.581  15.326
  221ACC    H0A25289   6.495   9.546  15.001
  221ACC    H0B25290   6.518   9.422  15.126
  221ACC    H0C25291   6.542   9.382  14.955
  221ACC    H0D25292   6.948   9.465  14.973
  221ACC    H0E25293   6.966   9.310  15.053
  221ACC    H0F25294   6.945   9.417  15.277
  221ACC    H0G25295   6.914   9.572  15.206
  221ACC    H0H25296   7.194   9.342  15.089
  221ACC    H0I25297   7.178   9.318  15.263
  221ACC    H0J25298   7.309   9.414  15.198
  221ACC    H0K25299   7.148   9.563  14.987
  221ACC    H0M25300   7.257   9.646  15.095
  221ACC    H0N25301   7.089   9.696  15.084
  221ACC    H0O25302   7.123   9.517  15.411
  221ACC    H0P25303   7.089   9.673  15.339
  221ACC    H0Q25304   7.252   9.609  15.336
  222ACC    C0025305  16.526   6.542   4.495
  222ACC    C0125306  16.541   6.644   4.384
  222ACC    O0225307  16.612   6.623   4.285
  222ACC    O0325308  16.470   6.756   4.405
  222ACC    C0425309  16.479   6.864   4.312
  222ACC    C0525310  16.394   6.834   4.186
  222ACC    N0625311  16.406   6.934   4.075
  222ACC    C0725312  16.366   7.070   4.119
  222ACC    C0825313  16.544   6.936   4.020
  222ACC    C0925314  16.313   6.891   3.965
  222ACC    H0A25315  16.586   6.453   4.473
  222ACC    H0B25316  16.422   6.512   4.505
  222ACC    H0C25317  16.561   6.584   4.589
  222ACC    H0D25318  16.584   6.880   4.289
  222ACC    H0E25319  16.444   6.953   4.364
  222ACC    H0F25320  16.290   6.824   4.218
  222ACC    H0G25321  16.421   6.735   4.149
  222ACC    H0H25322  16.435   7.112   4.193
  222ACC    H0I25323  16.266   7.072   4.164
  222ACC    H0J25324  16.364   7.141   4.036
  222ACC    H0K25325  16.618   6.976   4.090
  222ACC    H0M25326  16.552   6.998   3.930
  222ACC    H0N25327  16.579   6.836   3.992
  222ACC    H0O25328  16.209   6.887   3.998
  222ACC    H0P25329  16.337   6.791   3.927
  222ACC    H0Q25330  16.316   6.959   3.880
  223ACC    C0025331   8.647  14.672  10.000
  223ACC    C0125332   8.763  14.624  10.085
  223ACC    O0225333   8.779  14.661  10.201
  223ACC    O0325334   8.844  14.539  10.020
  223ACC    C0425335   8.961  14.489  10.083
  223ACC    C0525336   8.923  14.377  10.183
  223ACC    N0625337   9.034  14.327  10.271
  223ACC    C0725338   9.147  14.273  10.190
  223ACC    C0825339   9.084  14.436  10.361
  223ACC    C0925340   8.980  14.218  10.356
  223ACC    H0A25341   8.583  14.740  10.056
  223ACC    H0B25342   8.585  14.588   9.968
  223ACC    H0C25343   8.682  14.724   9.911
  223ACC    H0D25344   9.012  14.574  10.131
  223ACC    H0E25345   9.027  14.453  10.005
  223ACC    H0F25346   8.880  14.295  10.125
  223ACC    H0G25347   8.841  14.413  10.246
  223ACC    H0H25348   9.197  14.350  10.130
  223ACC    H0I25349   9.114  14.196  10.120
  223ACC    H0J25350   9.224  14.227  10.252
  223ACC    H0K25351   9.135  14.515  10.307
  223ACC    H0M25352   9.155  14.399  10.435
  223ACC    H0N25353   9.002  14.484  10.416
  223ACC    H0O25354   8.942  14.134  10.296
  223ACC    H0P25355   8.896  14.252  10.418
  223ACC    H0Q25356   9.055  14.176  10.423
  224ACC    C0025357  11.603   4.235  16.826
  224ACC    C0125358  11.610   4.387  16.819
  224ACC    O0225359  11.717   4.446  16.808
  224ACC    O0325360  11.489   4.444  16.826
  224ACC    C0425361  11.478   4.586  16.828
  224ACC    C0525362  11.497   4.643  16.685
  224ACC    N0625363  11.507   4.792  16.676
  224ACC    C0725364  11.386   4.858  16.732
  224ACC    C0825365  11.628   4.844  16.746
  224ACC    C0925366  11.516   4.830  16.532
  224ACC    H0A25367  11.703   4.192  16.819
  224ACC    H0B25368  11.543   4.196  16.744
  224ACC    H0C25369  11.559   4.204  16.920
  224ACC    H0D25370  11.552   4.625  16.899
  224ACC    H0E25371  11.380   4.612  16.867
  224ACC    H0F25372  11.414   4.607  16.624
  224ACC    H0G25373  11.587   4.599  16.641
  224ACC    H0H25374  11.372   4.844  16.839
  224ACC    H0I25375  11.293   4.826  16.684
  224ACC    H0J25376  11.390   4.967  16.718
  224ACC    H0K25377  11.622   4.832  16.854
  224ACC    H0M25378  11.641   4.951  16.729
  224ACC    H0N25379  11.719   4.794  16.713
  224ACC    H0O25380  11.428   4.797  16.475
  224ACC    H0P25381  11.604   4.788  16.483
  224ACC    H0Q25382  11.521   4.939  16.518
  225ACC    C0025383  15.671  15.655   9.407
  225ACC    C0125384  15.635  15.721   9.539
  225ACC    O0225385  15.651  15.663   9.647
  225ACC    O0325386  15.587  15.845   9.525
  225ACC    C0425387  15.542  15.919   9.638
  225ACC    C0525388  15.663  15.979   9.714
  225ACC    N0625389  15.630  16.052   9.841
  225ACC    C0725390  15.537  16.167   9.817
  225ACC    C0825391  15.570  15.960   9.943
  225ACC    C0925392  15.757  16.107   9.898
  225ACC    H0A25393  15.709  15.555   9.423
  225ACC    H0B25394  15.747  15.714   9.355
  225ACC    H0C25395  15.583  15.649   9.343
  225ACC    H0D25396  15.482  15.853   9.700
  225ACC    H0E25397  15.476  15.997   9.601
  225ACC    H0F25398  15.716  16.046   9.646
  225ACC    H0G25399  15.734  15.899   9.736
  225ACC    H0H25400  15.439  16.135   9.783
  225ACC    H0I25401  15.576  16.235   9.741
  225ACC    H0J25402  15.521  16.226   9.907
  225ACC    H0K25403  15.471  15.924   9.914
  225ACC    H0M25404  15.558  16.008  10.040
  225ACC    H0N25405  15.633  15.872   9.959
  225ACC    H0O25406  15.806  16.177   9.831
  225ACC    H0P25407  15.830  16.028   9.921
  225ACC    H0Q25408  15.741  16.161   9.992
  226ACC    C0025409   1.927   3.328  15.827
  226ACC    C0125410   2.045   3.298  15.736
  226ACC    O0225411   2.122   3.205  15.759
  226ACC    O0325412   2.054   3.383  15.632
  226ACC    C0425413   2.161   3.371  15.540
  226ACC    C0525414   2.135   3.255  15.441
  226ACC    N0625415   2.245   3.226  15.344
  226ACC    C0725416   2.277   3.342  15.257
  226ACC    C0825417   2.370   3.182  15.414
  226ACC    C0925418   2.200   3.114  15.256
  226ACC    H0A25419   1.926   3.259  15.911
  226ACC    H0B25420   1.834   3.318  15.772
  226ACC    H0C25421   1.934   3.430  15.866
  226ACC    H0D25422   2.254   3.358  15.596
  226ACC    H0E25423   2.169   3.467  15.487
  226ACC    H0F25424   2.042   3.277  15.388
  226ACC    H0G25425   2.114   3.164  15.499
  226ACC    H0H25426   2.318   3.427  15.312
  226ACC    H0I25427   2.189   3.378  15.202
  226ACC    H0J25428   2.352   3.316  15.181
  226ACC    H0K25429   2.415   3.260  15.476
  226ACC    H0M25430   2.447   3.153  15.343
  226ACC    H0N25431   2.353   3.095  15.478
  226ACC    H0O25432   2.105   3.135  15.206
  226ACC    H0P25433   2.189   3.020  15.310
  226ACC    H0Q25434   2.272   3.094  15.176
  227ACC    C0025435  14.293   4.552   6.461
  227ACC    C0125436  14.208   4.426   6.473
  227ACC    O0225437  14.102   4.425   6.536
  227ACC    O0325438  14.261   4.321   6.409
  227ACC    C0425439  14.198   4.194   6.417
  227ACC    C0525440  14.075   4.189   6.323
  227ACC    N0625441  13.990   4.066   6.332
  227ACC    C0725442  14.069   3.943   6.302
  227ACC    C0825443  13.928   4.054   6.467
  227ACC    C0925444  13.881   4.078   6.231
  227ACC    H0A25445  14.247   4.635   6.515
  227ACC    H0B25446  14.304   4.580   6.356
  227ACC    H0C25447  14.392   4.535   6.502
  227ACC    H0D25448  14.172   4.176   6.522
  227ACC    H0E25449  14.272   4.119   6.390
  227ACC    H0F25450  14.112   4.203   6.220
  227ACC    H0G25451  14.013   4.277   6.342
  227ACC    H0H25452  14.147   3.923   6.376
  227ACC    H0I25453  14.120   3.950   6.205
  227ACC    H0J25454  14.007   3.854   6.298
  227ACC    H0K25455  14.001   4.034   6.546
  227ACC    H0M25456  13.855   3.973   6.472
  227ACC    H0N25457  13.875   4.146   6.496
  227ACC    H0O25458  13.920   4.086   6.129
  227ACC    H0P25459  13.819   4.166   6.248
  227ACC    H0Q25460  13.814   3.991   6.231
  228ACC    C0025461  15.954   3.872  13.984
  228ACC    C0125462  15.851   3.763  13.955
  228ACC    O0225463  15.731   3.781  13.972
  228ACC    O0325464  15.906   3.650  13.908
  228ACC    C0425465  15.824   3.536  13.889
  228ACC    C0525466  15.741   3.550  13.759
  228ACC    N0625467  15.639   3.442  13.734
  228ACC    C0725468  15.703   3.308  13.727
  228ACC    C0825469  15.534   3.443  13.839
  228ACC    C0925470  15.574   3.471  13.603
  228ACC    H0A25471  15.905   3.960  14.025
  228ACC    H0B25472  16.007   3.901  13.894
  228ACC    H0C25473  16.026   3.837  14.058
  228ACC    H0D25474  15.761   3.524  13.978
  228ACC    H0E25475  15.890   3.449  13.886
  228ACC    H0F25476  15.811   3.558  13.675
  228ACC    H0G25477  15.690   3.647  13.761
  228ACC    H0H25478  15.745   3.277  13.823
  228ACC    H0I25479  15.784   3.305  13.653
  228ACC    H0J25480  15.631   3.230  13.699
  228ACC    H0K25481  15.571   3.414  13.938
  228ACC    H0M25482  15.452   3.375  13.817
  228ACC    H0N25483  15.489   3.542  13.852
  228ACC    H0O25484  15.645   3.472  13.520
  228ACC    H0P25485  15.524   3.568  13.602
  228ACC    H0Q25486  15.498   3.397  13.577
  229ACC    C0025487   7.140  13.366  11.503
  229ACC    C0125488   7.074  13.469  11.593
  229ACC    O0225489   7.042  13.580  11.551
  229ACC    O0325490   7.057  13.426  11.719
  229ACC    C0425491   7.005  13.514  11.818
  229ACC    C0525492   6.851  13.526  11.803
  229ACC    N0625493   6.785  13.627  11.893
  229ACC    C0725494   6.811  13.597  12.037
  229ACC    C0825495   6.830  13.765  11.860
  229ACC    C0925496   6.637  13.620  11.870
  229ACC    H0A25497   7.151  13.406  11.403
  229ACC    H0B25498   7.079  13.276  11.500
  229ACC    H0C25499   7.238  13.341  11.542
  229ACC    H0D25500   7.056  13.610  11.808
  229ACC    H0E25501   7.032  13.473  11.915
  229ACC    H0F25502   6.808  13.427  11.820
  229ACC    H0G25503   6.827  13.550  11.699
  229ACC    H0H25504   6.916  13.608  12.064
  229ACC    H0I25505   6.782  13.495  12.064
  229ACC    H0J25506   6.755  13.664  12.103
  229ACC    H0K25507   6.936  13.782  11.884
  229ACC    H0M25508   6.774  13.841  11.915
  229ACC    H0N25509   6.818  13.788  11.754
  229ACC    H0O25510   6.596  13.521  11.893
  229ACC    H0P25511   6.610  13.642  11.766
  229ACC    H0Q25512   6.582  13.691  11.932
  230ACC    C0025513   3.853  11.253  10.758
  230ACC    C0125514   3.921  11.265  10.894
  230ACC    O0225515   3.862  11.313  10.991
  230ACC    O0325516   4.046  11.216  10.894
  230ACC    C0425517   4.128  11.232  11.010
  230ACC    C0525518   4.087  11.131  11.120
  230ACC    N0625519   4.166  11.140  11.247
  230ACC    C0725520   4.310  11.105  11.226
  230ACC    C0825521   4.156  11.276  11.307
  230ACC    C0925522   4.109  11.043  11.345
  230ACC    H0A25523   3.759  11.308  10.759
  230ACC    H0B25524   3.833  11.149  10.734
  230ACC    H0C25525   3.917  11.295  10.681
  230ACC    H0D25526   4.120  11.335  11.043
  230ACC    H0E25527   4.231  11.216  10.977
  230ACC    H0F25528   4.092  11.030  11.079
  230ACC    H0G25529   3.982  11.148  11.143
  230ACC    H0H25530   4.361  11.178  11.162
  230ACC    H0I25531   4.322  11.007  11.179
  230ACC    H0J25532   4.366  11.103  11.320
  230ACC    H0K25533   4.207  11.353  11.248
  230ACC    H0M25534   4.199  11.283  11.407
  230ACC    H0N25535   4.053  11.310  11.316
  230ACC    H0O25536   4.113  10.940  11.309
  230ACC    H0P25537   4.004  11.065  11.368
  230ACC    H0Q25538   4.162  11.044  11.441
  231ACC    C0025539   6.084   2.355   2.260
  231ACC    C0125540   5.951   2.401   2.317
  231ACC    O0225541   5.866   2.454   2.247
  231ACC    O0325542   5.940   2.377   2.449
  231ACC    C0425543   5.829   2.430   2.521
  231ACC    C0525544   5.700   2.348   2.494
  231ACC    N0625545   5.575   2.401   2.557
  231ACC    C0725546   5.587   2.406   2.706
  231ACC    C0825547   5.541   2.536   2.505
  231ACC    C0925548   5.463   2.308   2.522
  231ACC    H0A25549   6.092   2.383   2.155
  231ACC    H0B25550   6.094   2.246   2.267
  231ACC    H0C25551   6.167   2.401   2.314
  231ACC    H0D25552   5.818   2.535   2.493
  231ACC    H0E25553   5.856   2.429   2.626
  231ACC    H0F25554   5.719   2.245   2.526
  231ACC    H0G25555   5.685   2.341   2.386
  231ACC    H0H25556   5.661   2.479   2.740
  231ACC    H0I25557   5.616   2.309   2.749
  231ACC    H0J25558   5.493   2.434   2.754
  231ACC    H0K25559   5.612   2.613   2.536
  231ACC    H0M25560   5.443   2.571   2.540
  231ACC    H0N25561   5.538   2.539   2.396
  231ACC    H0O25562   5.480   2.206   2.558
  231ACC    H0P25563   5.448   2.302   2.414
  231ACC    H0Q25564   5.368   2.341   2.565
  232ACC    C0025565  15.733   8.263   6.912
  232ACC    C0125566  15.840   8.212   6.817
  232ACC    O0225567  15.826   8.218   6.695
  232ACC    O0325568  15.948   8.165   6.882
  232ACC    C0425569  16.055   8.108   6.809
  232ACC    C0525570  16.141   8.220   6.745
  232ACC    N0625571  16.245   8.174   6.648
  232ACC    C0725572  16.343   8.082   6.712
  232ACC    C0825573  16.181   8.107   6.530
  232ACC    C0925574  16.318   8.295   6.599
  232ACC    H0A25575  15.636   8.272   6.863
  232ACC    H0B25576  15.763   8.360   6.950
  232ACC    H0C25577  15.723   8.196   6.997
  232ACC    H0D25578  16.012   8.039   6.735
  232ACC    H0E25579  16.113   8.048   6.878
  232ACC    H0F25580  16.186   8.277   6.827
  232ACC    H0G25581  16.074   8.292   6.696
  232ACC    H0H25582  16.297   7.988   6.745
  232ACC    H0I25583  16.389   8.127   6.800
  232ACC    H0J25584  16.424   8.055   6.644
  232ACC    H0K25585  16.136   8.011   6.555
  232ACC    H0M25586  16.253   8.087   6.450
  232ACC    H0N25587  16.102   8.168   6.486
  232ACC    H0O25588  16.367   8.349   6.680
  232ACC    H0P25589  16.251   8.366   6.549
  232ACC    H0Q25590  16.396   8.269   6.526
  233ACC    C0025591  11.881  10.974  10.180
  233ACC    C0125592  11.850  11.122  10.190
  233ACC    O0225593  11.820  11.189  10.092
  233ACC    O0325594  11.857  11.168  10.316
  233ACC    C0425595  11.836  11.307  10.341
  233ACC    C0525596  11.684  11.338  10.336
  233ACC    N0625597  11.648  11.483  10.341
  233ACC    C0725598  11.699  11.547  10.465
  233ACC    C0825599  11.700  11.555  10.221
  233ACC    C0925600  11.499  11.493  10.339
  233ACC    H0A25601  11.874  10.940  10.077
  233ACC    H0B25602  11.811  10.915  10.240
  233ACC    H0C25603  11.982  10.954  10.216
  233ACC    H0D25604  11.894  11.363  10.268
  233ACC    H0E25605  11.878  11.328  10.439
  233ACC    H0F25606  11.636  11.283  10.417
  233ACC    H0G25607  11.642  11.294  10.244
  233ACC    H0H25608  11.808  11.551  10.469
  233ACC    H0I25609  11.666  11.494  10.555
  233ACC    H0J25610  11.665  11.651  10.475
  233ACC    H0K25611  11.809  11.562  10.220
  233ACC    H0M25612  11.664  11.658  10.214
  233ACC    H0N25613  11.672  11.505  10.127
  233ACC    H0O25614  11.454  11.441  10.424
  233ACC    H0P25615  11.456  11.448  10.249
  233ACC    H0Q25616  11.463  11.596  10.342
  234ACC    C0025617  15.037  10.104   8.162
  234ACC    C0125618  15.060  10.254   8.169
  234ACC    O0225619  15.071  10.313   8.276
  234ACC    O0325620  15.068  10.312   8.048
  234ACC    C0425621  15.084  10.452   8.038
  234ACC    C0525622  15.231  10.491   8.066
  234ACC    N0625623  15.259  10.638   8.075
  234ACC    C0725624  15.221  10.709   7.949
  234ACC    C0825625  15.188  10.699   8.191
  234ACC    C0925626  15.406  10.656   8.096
  234ACC    H0A25627  15.032  10.062   8.263
  234ACC    H0B25628  15.118  10.055   8.108
  234ACC    H0C25629  14.943  10.083   8.112
  234ACC    H0D25630  15.014  10.499   8.107
  234ACC    H0E25631  15.053  10.481   7.937
  234ACC    H0F25632  15.293  10.445   7.988
  234ACC    H0G25633  15.263  10.443   8.159
  234ACC    H0H25634  15.114  10.708   7.931
  234ACC    H0I25635  15.269  10.665   7.861
  234ACC    H0J25636  15.250  10.814   7.951
  234ACC    H0K25637  15.079  10.700   8.179
  234ACC    H0M25638  15.217  10.803   8.208
  234ACC    H0N25639  15.208  10.645   8.284
  234ACC    H0O25640  15.465  10.614   8.015
  234ACC    H0P25641  15.440  10.607   8.188
  234ACC    H0Q25642  15.435  10.761   8.105
  235ACC    C0025643   6.423   3.581   9.342
  235ACC    C0125644   6.402   3.557   9.490
  235ACC    O0225645   6.293   3.525   9.536
  235ACC    O0325646   6.515   3.572   9.561
  235ACC    C0425647   6.511   3.563   9.703
  235ACC    C0525648   6.504   3.415   9.746
  235ACC    N0625649   6.491   3.391   9.893
  235ACC    C0725650   6.607   3.446   9.968
  235ACC    C0825651   6.365   3.451   9.947
  235ACC    C0925652   6.486   3.243   9.914
  235ACC    H0A25653   6.327   3.573   9.289
  235ACC    H0B25654   6.492   3.508   9.301
  235ACC    H0C25655   6.463   3.681   9.326
  235ACC    H0D25656   6.425   3.621   9.738
  235ACC    H0E25657   6.599   3.614   9.742
  235ACC    H0F25658   6.593   3.365   9.707
  235ACC    H0G25659   6.420   3.368   9.695
  235ACC    H0H25660   6.610   3.556   9.965
  235ACC    H0I25661   6.703   3.411   9.929
  235ACC    H0J25662   6.604   3.420  10.074
  235ACC    H0K25663   6.368   3.560   9.946
  235ACC    H0M25664   6.347   3.423  10.051
  235ACC    H0N25665   6.277   3.422   9.889
  235ACC    H0O25666   6.575   3.193   9.877
  235ACC    H0P25667   6.401   3.198   9.862
  235ACC    H0Q25668   6.475   3.217  10.020
  236ACC    C0025669   6.271   1.516  14.005
  236ACC    C0125670   6.220   1.487  13.865
  236ACC    O0225671   6.175   1.576  13.792
  236ACC    O0325672   6.230   1.357  13.830
  236ACC    C0425673   6.179   1.315  13.704
  236ACC    C0525674   6.274   1.357  13.589
  236ACC    N0625675   6.223   1.329  13.450
  236ACC    C0725676   6.198   1.184  13.428
  236ACC    C0825677   6.098   1.407  13.422
  236ACC    C0925678   6.328   1.374  13.354
  236ACC    H0A25679   6.257   1.622  14.029
  236ACC    H0B25680   6.378   1.494  14.013
  236ACC    H0C25681   6.217   1.458  14.079
  236ACC    H0D25682   6.079   1.357  13.693
  236ACC    H0E25683   6.168   1.206  13.709
  236ACC    H0F25684   6.370   1.308  13.605
  236ACC    H0G25685   6.295   1.463  13.598
  236ACC    H0H25686   6.116   1.145  13.489
  236ACC    H0I25687   6.287   1.123  13.451
  236ACC    H0J25688   6.171   1.162  13.325
  236ACC    H0K25689   6.013   1.373  13.481
  236ACC    H0M25690   6.068   1.399  13.318
  236ACC    H0N25691   6.110   1.513  13.444
  236ACC    H0O25692   6.423   1.321  13.368
  236ACC    H0P25693   6.350   1.480  13.363
  236ACC    H0Q25694   6.298   1.357  13.250
  237ACC    C0025695   4.775   5.490   3.470
  237ACC    C0125696   4.789   5.641   3.471
  237ACC    O0225697   4.801   5.705   3.576
  237ACC    O0325698   4.786   5.695   3.348
  237ACC    C0425699   4.805   5.835   3.334
  237ACC    C0525700   4.956   5.867   3.343
  237ACC    N0625701   4.992   6.012   3.352
  237ACC    C0725702   4.938   6.090   3.237
  237ACC    C0825703   4.944   6.070   3.481
  237ACC    C0925704   5.141   6.022   3.349
  237ACC    H0A25705   4.793   5.448   3.569
  237ACC    H0B25706   4.848   5.446   3.402
  237ACC    H0C25707   4.675   5.460   3.437
  237ACC    H0D25708   4.746   5.886   3.410
  237ACC    H0E25709   4.763   5.865   3.237
  237ACC    H0F25710   5.004   5.821   3.256
  237ACC    H0G25711   4.998   5.814   3.429
  237ACC    H0H25712   4.829   6.094   3.237
  237ACC    H0I25713   4.968   6.047   3.141
  237ACC    H0J25714   4.972   6.194   3.237
  237ACC    H0K25715   4.836   6.076   3.487
  237ACC    H0M25716   4.981   6.172   3.496
  237ACC    H0N25717   4.977   6.011   3.567
  237ACC    H0O25718   5.183   5.982   3.256
  237ACC    H0P25719   5.188   5.967   3.431
  237ACC    H0Q25720   5.177   6.125   3.356
  238ACC    C0025721  15.267   8.854   6.444
  238ACC    C0125722  15.115   8.856   6.445
  238ACC    O0225723  15.051   8.860   6.550
  238ACC    O0325724  15.061   8.854   6.322
  238ACC    C0425725  14.920   8.844   6.306
  238ACC    C0525726  14.853   8.981   6.334
  238ACC    N0625727  14.703   8.981   6.331
  238ACC    C0725728  14.651   8.938   6.199
  238ACC    C0825729  14.647   8.894   6.439
  238ACC    C0925730  14.658   9.121   6.357
  238ACC    H0A25731  15.305   8.852   6.546
  238ACC    H0B25732  15.306   8.943   6.394
  238ACC    H0C25733  15.303   8.766   6.391
  238ACC    H0D25734  14.884   8.765   6.373
  238ACC    H0E25735  14.902   8.810   6.204
  238ACC    H0F25736  14.894   9.053   6.263
  238ACC    H0G25737  14.887   9.017   6.432
  238ACC    H0H25738  14.673   8.832   6.178
  238ACC    H0I25739  14.694   8.995   6.117
  238ACC    H0J25740  14.543   8.947   6.192
  238ACC    H0K25741  14.666   8.788   6.422
  238ACC    H0M25742  14.538   8.903   6.447
  238ACC    H0N25743  14.687   8.918   6.537
  238ACC    H0O25744  14.696   9.192   6.283
  238ACC    H0P25745  14.691   9.158   6.455
  238ACC    H0Q25746  14.549   9.130   6.357
  239ACC    C0025747  10.850  10.118   0.011
  239ACC    C0125748  10.913  10.030   0.118
  239ACC    O0225749  10.897   9.908   0.119
  239ACC    O0325750  10.986  10.100   0.207
  239ACC    C0425751  11.040  10.035   0.321
  239ACC    C0525752  11.168   9.957   0.284
  239ACC    N0625753  11.231   9.879   0.396
  239ACC    C0725754  11.265   9.965   0.513
  239ACC    C0825755  11.144   9.765   0.439
  239ACC    C0925756  11.358   9.821   0.344
  239ACC    H0A25757  10.790  10.059  17.383
  239ACC    H0B25758  10.927  10.170  17.394
  239ACC    H0C25759  10.785  10.193   0.056
  239ACC    H0D25760  10.963   9.970   0.365
  239ACC    H0E25761  11.061  10.113   0.395
  239ACC    H0F25762  11.240  10.028   0.242
  239ACC    H0G25763  11.145   9.888   0.202
  239ACC    H0H25764  11.176  10.005   0.562
  239ACC    H0I25765  11.328  10.049   0.485
  239ACC    H0J25766  11.319   9.908   0.589
  239ACC    H0K25767  11.052   9.798   0.487
  239ACC    H0M25768  11.195   9.699   0.509
  239ACC    H0N25769  11.117   9.701   0.355
  239ACC    H0O25770  11.430   9.896   0.310
  239ACC    H0P25771  11.340   9.754   0.259
  239ACC    H0Q25772  11.409   9.760   0.419
  240ACC    C0025773   5.936   7.479   7.815
  240ACC    C0125774   5.899   7.467   7.962
  240ACC    O0225775   5.793   7.511   8.005
  240ACC    O0325776   5.993   7.403   8.035
  240ACC    C0425777   5.978   7.396   8.177
  240ACC    C0525778   5.873   7.289   8.216
  240ACC    N0625779   5.842   7.279   8.362
  240ACC    C0725780   5.962   7.246   8.443
  240ACC    C0825781   5.781   7.406   8.414
  240ACC    C0925782   5.741   7.170   8.380
  240ACC    H0A25783   5.860   7.536   7.762
  240ACC    H0B25784   5.944   7.380   7.769
  240ACC    H0C25785   6.031   7.531   7.804
  240ACC    H0D25786   5.951   7.495   8.213
  240ACC    H0E25787   6.076   7.373   8.218
  240ACC    H0F25788   5.907   7.192   8.178
  240ACC    H0G25789   5.780   7.310   8.161
  240ACC    H0H25790   6.036   7.326   8.443
  240ACC    H0I25791   6.012   7.155   8.408
  240ACC    H0J25792   5.938   7.229   8.548
  240ACC    H0K25793   5.852   7.489   8.415
  240ACC    H0M25794   5.747   7.396   8.518
  240ACC    H0N25795   5.695   7.438   8.355
  240ACC    H0O25796   5.779   7.073   8.346
  240ACC    H0P25797   5.649   7.190   8.325
  240ACC    H0Q25798   5.713   7.157   8.485
  241ACC    C0025799   9.532  13.264   7.205
  241ACC    C0125800   9.474  13.387   7.273
  241ACC    O0225801   9.455  13.391   7.394
  241ACC    O0325802   9.449  13.487   7.186
  241ACC    C0425803   9.379  13.602   7.229
  241ACC    C0525804   9.473  13.695   7.309
  241ACC    N0625805   9.408  13.816   7.371
  241ACC    C0725806   9.349  13.905   7.267
  241ACC    C0825807   9.303  13.776   7.469
  241ACC    C0925808   9.514  13.892   7.444
  241ACC    H0A25809   9.543  13.183   7.276
  241ACC    H0B25810   9.630  13.287   7.162
  241ACC    H0C25811   9.466  13.231   7.125
  241ACC    H0D25812   9.292  13.570   7.286
  241ACC    H0E25813   9.340  13.651   7.139
  241ACC    H0F25814   9.554  13.725   7.242
  241ACC    H0G25815   9.521  13.636   7.388
  241ACC    H0H25816   9.265  13.858   7.214
  241ACC    H0I25817   9.422  13.933   7.190
  241ACC    H0J25818   9.310  13.998   7.309
  241ACC    H0K25819   9.216  13.731   7.421
  241ACC    H0M25820   9.265  13.861   7.526
  241ACC    H0N25821   9.340  13.703   7.542
  241ACC    H0O25822   9.594  13.924   7.378
  241ACC    H0P25823   9.560  13.832   7.523
  241ACC    H0Q25824   9.475  13.982   7.492
  242ACC    C0025825   6.598   7.711  15.539
  242ACC    C0125826   6.706   7.781  15.459
  242ACC    O0225827   6.751   7.733  15.355
  242ACC    O0325828   6.747   7.896  15.517
  242ACC    C0425829   6.842   7.978  15.450
  242ACC    C0525830   6.768   8.078  15.359
  242ACC    N0625831   6.856   8.163  15.272
  242ACC    C0725832   6.964   8.229  15.349
  242ACC    C0825833   6.911   8.080  15.161
  242ACC    C0925834   6.773   8.272  15.210
  242ACC    H0A25835   6.548   7.637  15.477
  242ACC    H0B25836   6.524   7.783  15.573
  242ACC    H0C25837   6.642   7.661  15.625
  242ACC    H0D25838   6.913   7.916  15.395
  242ACC    H0E25839   6.899   8.029  15.528
  242ACC    H0F25840   6.703   8.140  15.422
  242ACC    H0G25841   6.698   8.022  15.297
  242ACC    H0H25842   7.036   8.158  15.389
  242ACC    H0I25843   6.924   8.286  15.433
  242ACC    H0J25844   7.021   8.299  15.287
  242ACC    H0K25845   6.979   8.002  15.196
  242ACC    H0M25846   6.966   8.140  15.088
  242ACC    H0N25847   6.831   8.030  15.106
  242ACC    H0O25848   6.719   8.331  15.284
  242ACC    H0P25849   6.697   8.232  15.143
  242ACC    H0Q25850   6.832   8.340  15.149
  243ACC    C0025851   5.308  15.506   2.632
  243ACC    C0125852   5.301  15.472   2.484
  243ACC    O0225853   5.399  15.430   2.422
  243ACC    O0325854   5.179  15.492   2.431
  243ACC    C0425855   5.159  15.473   2.292
  243ACC    C0525856   5.150  15.322   2.258
  243ACC    N0625857   5.143  15.288   2.112
  243ACC    C0725858   5.023  15.349   2.048
  243ACC    C0825859   5.267  15.332   2.041
  243ACC    C0925860   5.133  15.140   2.101
  243ACC    H0A25861   5.409  15.492   2.669
  243ACC    H0B25862   5.241  15.443   2.689
  243ACC    H0C25863   5.280  15.610   2.647
  243ACC    H0D25864   5.240  15.524   2.239
  243ACC    H0E25865   5.067  15.525   2.266
  243ACC    H0F25866   5.064  15.282   2.312
  243ACC    H0G25867   5.237  15.272   2.303
  243ACC    H0H25868   5.028  15.458   2.045
  243ACC    H0I25869   4.931  15.322   2.100
  243ACC    H0J25870   5.011  15.317   1.944
  243ACC    H0K25871   5.276  15.441   2.035
  243ACC    H0M25872   5.270  15.296   1.938
  243ACC    H0N25873   5.358  15.296   2.091
  243ACC    H0O25874   5.044  15.101   2.151
  243ACC    H0P25875   5.219  15.089   2.146
  243ACC    H0Q25876   5.128  15.107   1.997
  244ACC    C0025877   3.026   2.292   5.763
  244ACC    C0125878   2.891   2.312   5.698
  244ACC    O0225879   2.870   2.287   5.579
  244ACC    O0325880   2.802   2.359   5.785
  244ACC    C0425881   2.675   2.404   5.743
  244ACC    C0525882   2.578   2.283   5.740
  244ACC    N0625883   2.439   2.314   5.694
  244ACC    C0725884   2.373   2.413   5.784
  244ACC    C0825885   2.440   2.366   5.554
  244ACC    C0925886   2.362   2.187   5.696
  244ACC    H0A25887   3.099   2.258   5.689
  244ACC    H0B25888   3.017   2.219   5.843
  244ACC    H0C25889   3.058   2.387   5.806
  244ACC    H0D25890   2.684   2.456   5.648
  244ACC    H0E25891   2.643   2.479   5.816
  244ACC    H0F25892   2.577   2.242   5.841
  244ACC    H0G25893   2.623   2.206   5.677
  244ACC    H0H25894   2.420   2.511   5.781
  244ACC    H0I25895   2.376   2.381   5.889
  244ACC    H0J25896   2.268   2.428   5.758
  244ACC    H0K25897   2.484   2.465   5.546
  244ACC    H0M25898   2.339   2.374   5.512
  244ACC    H0N25899   2.497   2.301   5.486
  244ACC    H0O25900   2.356   2.144   5.797
  244ACC    H0P25901   2.406   2.110   5.632
  244ACC    H0Q25902   2.259   2.200   5.663
  245ACC    C0025903  10.796  14.655  14.664
  245ACC    C0125904  10.670  14.700  14.591
  245ACC    O0225905  10.561  14.647  14.611
  245ACC    O0325906  10.693  14.801  14.506
  245ACC    C0425907  10.601  14.828  14.401
  245ACC    C0525908  10.474  14.901  14.452
  245ACC    N0625909  10.369  14.927  14.347
  245ACC    C0725910  10.419  15.022  14.244
  245ACC    C0825911  10.327  14.800  14.281
  245ACC    C0925912  10.250  14.985  14.415
  245ACC    H0A25913  10.780  14.557  14.709
  245ACC    H0B25914  10.824  14.726  14.741
  245ACC    H0C25915  10.878  14.645  14.593
  245ACC    H0D25916  10.578  14.732  14.354
  245ACC    H0E25917  10.655  14.885  14.325
  245ACC    H0F25918  10.505  14.994  14.499
  245ACC    H0G25919  10.431  14.841  14.531
  245ACC    H0H25920  10.502  14.980  14.186
  245ACC    H0I25921  10.455  15.116  14.287
  245ACC    H0J25922  10.342  15.047  14.171
  245ACC    H0K25923  10.401  14.768  14.209
  245ACC    H0M25924  10.235  14.810  14.222
  245ACC    H0N25925  10.314  14.717  14.350
  245ACC    H0O25926  10.273  15.078  14.467
  245ACC    H0P25927  10.208  14.915  14.488
  245ACC    H0Q25928  10.170  15.007  14.343
  246ACC    C0025929  11.689   2.852   6.641
  246ACC    C0125930  11.602   2.842   6.765
  246ACC    O0225931  11.600   2.741   6.834
  246ACC    O0325932  11.533   2.955   6.789
  246ACC    C0425933  11.438   2.958   6.895
  246ACC    C0525934  11.510   2.972   7.032
  246ACC    N0625935  11.421   2.970   7.152
  246ACC    C0725936  11.322   3.082   7.150
  246ACC    C0825937  11.348   2.840   7.163
  246ACC    C0925938  11.506   2.984   7.274
  246ACC    H0A25939  11.738   2.756   6.622
  246ACC    H0B25940  11.766   2.928   6.654
  246ACC    H0C25941  11.628   2.878   6.554
  246ACC    H0D25942  11.377   2.868   6.890
  246ACC    H0E25943  11.372   3.043   6.877
  246ACC    H0F25944  11.570   3.064   7.030
  246ACC    H0G25945  11.583   2.891   7.041
  246ACC    H0H25946  11.249   3.071   7.070
  246ACC    H0I25947  11.370   3.179   7.139
  246ACC    H0J25948  11.264   3.085   7.243
  246ACC    H0K25949  11.274   2.827   7.084
  246ACC    H0M25950  11.291   2.831   7.255
  246ACC    H0N25951  11.413   2.753   7.158
  246ACC    H0O25952  11.563   3.078   7.274
  246ACC    H0P25953  11.579   2.903   7.282
  246ACC    H0Q25954  11.447   2.982   7.366
  247ACC    C0025955  16.852  14.792   8.570
  247ACC    C0125956  16.736  14.700   8.536
  247ACC    O0225957  16.692  14.694   8.421
  247ACC    O0325958  16.691  14.630   8.641
  247ACC    C0425959  16.577  14.547   8.627
  247ACC    C0525960  16.612  14.415   8.554
  247ACC    N0625961  16.498  14.320   8.532
  247ACC    C0725962  16.437  14.275   8.661
  247ACC    C0825963  16.394  14.382   8.445
  247ACC    C0925964  16.551  14.200   8.460
  247ACC    H0A25965  16.878  14.853   8.484
  247ACC    H0B25966  16.939  14.733   8.599
  247ACC    H0C25967  16.825  14.858   8.653
  247ACC    H0D25968  16.499  14.603   8.575
  247ACC    H0E25969  16.540  14.528   8.728
  247ACC    H0F25970  16.693  14.366   8.609
  247ACC    H0G25971  16.655  14.441   8.457
  247ACC    H0H25972  16.388  14.357   8.714
  247ACC    H0I25973  16.512  14.233   8.728
  247ACC    H0J25974  16.361  14.199   8.645
  247ACC    H0K25975  16.344  14.468   8.489
  247ACC    H0M25976  16.315  14.313   8.416
  247ACC    H0N25977  16.438  14.418   8.352
  247ACC    H0O25978  16.628  14.148   8.517
  247ACC    H0P25979  16.594  14.227   8.363
  247ACC    H0Q25980  16.472  14.127   8.439
  248ACC    C0025981   3.164  10.021  11.654
  248ACC    C0125982   3.043  10.098  11.702
  248ACC    O0225983   3.018  10.211  11.660
  248ACC    O0325984   2.971  10.031  11.795
  248ACC    C0425985   2.840  10.076  11.827
  248ACC    C0525986   2.741   9.998  11.739
  248ACC    N0625987   2.599  10.048  11.736
  248ACC    C0725988   2.543  10.063  11.873
  248ACC    C0825989   2.593  10.177  11.661
  248ACC    C0925990   2.515   9.949  11.661
  248ACC    H0A25991   3.191  10.054  11.554
  248ACC    H0B25992   3.142   9.914  11.649
  248ACC    H0C25993   3.249  10.038  11.720
  248ACC    H0D25994   2.832  10.184  11.814
  248ACC    H0E25995   2.823  10.057  11.933
  248ACC    H0F25996   2.745   9.892  11.766
  248ACC    H0G25997   2.781  10.000  11.637
  248ACC    H0H25998   2.594  10.140  11.930
  248ACC    H0I25999   2.551   9.969  11.929
  248ACC    H0J26000   2.438  10.090  11.870
  248ACC    H0K26001   2.648  10.258  11.709
  248ACC    H0M26002   2.490  10.212  11.647
  248ACC    H0N26003   2.635  10.167  11.560
  248ACC    H0O26004   2.519   9.849  11.705
  248ACC    H0P26005   2.548   9.938  11.558
  248ACC    H0Q26006   2.411   9.979  11.655
  249ACC    C0026007  11.537  13.932  10.164
  249ACC    C0126008  11.565  13.787  10.132
  249ACC    O0226009  11.581  13.749  10.016
  249ACC    O0326010  11.570  13.708  10.241
  249ACC    C0426011  11.583  13.567  10.226
  249ACC    C0526012  11.729  13.529  10.189
  249ACC    N0626013  11.752  13.384  10.158
  249ACC    C0726014  11.719  13.297  10.275
  249ACC    C0826015  11.674  13.341  10.038
  249ACC    C0926016  11.897  13.366  10.128
  249ACC    H0A26017  11.527  13.990  10.073
  249ACC    H0B26018  11.617  13.974  10.224
  249ACC    H0C26019  11.443  13.941  10.220
  249ACC    H0D26020  11.511  13.535  10.150
  249ACC    H0E26021  11.553  13.522  10.320
  249ACC    H0F26022  11.794  13.562  10.270
  249ACC    H0G26023  11.760  13.588  10.103
  249ACC    H0H26024  11.612  13.299  10.299
  249ACC    H0I26025  11.772  13.328  10.365
  249ACC    H0J26026  11.745  13.193  10.257
  249ACC    H0K26027  11.567  13.341  10.055
  249ACC    H0M26028  11.700  13.240  10.006
  249ACC    H0N26029  11.692  13.406   9.952
  249ACC    H0O26030  11.962  13.395  10.211
  249ACC    H0P26031  11.929  13.425  10.042
  249ACC    H0Q26032  11.923  13.262  10.104
  250ACC    C0026033   7.396  14.525  12.389
  250ACC    C0126034   7.263  14.589  12.356
  250ACC    O0226035   7.228  14.610  12.240
  250ACC    O0326036   7.189  14.617  12.465
  250ACC    C0426037   7.067  14.687  12.452
  250ACC    C0526038   6.955  14.593  12.400
  250ACC    N0626039   6.823  14.658  12.371
  250ACC    C0726040   6.765  14.721  12.493
  250ACC    C0826041   6.836  14.760  12.263
  250ACC    C0926042   6.729  14.552  12.323
  250ACC    H0A26043   7.454  14.510  12.298
  250ACC    H0B26044   7.382  14.429  12.438
  250ACC    H0C26045   7.453  14.590  12.455
  250ACC    H0D26046   7.084  14.773  12.386
  250ACC    H0E26047   7.042  14.727  12.550
  250ACC    H0F26048   6.943  14.512  12.473
  250ACC    H0G26049   6.991  14.543  12.309
  250ACC    H0H26050   6.824  14.805  12.529
  250ACC    H0I26051   6.757  14.650  12.576
  250ACC    H0J26052   6.664  14.759  12.475
  250ACC    H0K26053   6.894  14.848  12.294
  250ACC    H0M26054   6.739  14.799  12.230
  250ACC    H0N26055   6.886  14.720  12.174
  250ACC    H0O26056   6.714  14.474  12.398
  250ACC    H0P26057   6.765  14.503  12.233
  250ACC    H0Q26058   6.630  14.592  12.300
  251ACC    C0026059  11.410  15.337  14.567
  251ACC    C0126060  11.537  15.315  14.647
  251ACC    O0226061  11.571  15.202  14.683
  251ACC    O0326062  11.605  15.428  14.670
  251ACC    C0426063  11.723  15.425  14.750
  251ACC    C0526064  11.843  15.373  14.668
  251ACC    N0626065  11.971  15.355  14.744
  251ACC    C0726066  12.017  15.484  14.805
  251ACC    C0826067  11.958  15.251  14.849
  251ACC    C0926068  12.076  15.310  14.647
  251ACC    H0A26069  11.358  15.243  14.551
  251ACC    H0B26070  11.433  15.381  14.470
  251ACC    H0C26071  11.343  15.404  14.621
  251ACC    H0D26072  11.703  15.364  14.838
  251ACC    H0E26073  11.740  15.526  14.786
  251ACC    H0F26074  11.858  15.441  14.584
  251ACC    H0G26075  11.815  15.278  14.622
  251ACC    H0H26076  11.950  15.519  14.884
  251ACC    H0I26077  12.025  15.564  14.732
  251ACC    H0J26078  12.116  15.473  14.852
  251ACC    H0K26079  11.891  15.281  14.930
  251ACC    H0M26080  12.053  15.228  14.897
  251ACC    H0N26081  11.919  15.157  14.810
  251ACC    H0O26082  12.093  15.382  14.567
  251ACC    H0P26083  12.050  15.215  14.600
  251ACC    H0Q26084  12.173  15.294  14.696
  252ACC    C0026085   1.853   2.218   8.017
  252ACC    C0126086   1.834   2.068   8.017
  252ACC    O0226087   1.823   2.003   8.122
  252ACC    O0326088   1.829   2.018   7.894
  252ACC    C0426089   1.792   1.884   7.871
  252ACC    C0526090   1.641   1.865   7.900
  252ACC    N0626091   1.589   1.725   7.888
  252ACC    C0726092   1.614   1.671   7.751
  252ACC    C0826093   1.650   1.638   7.992
  252ACC    C0926094   1.442   1.732   7.909
  252ACC    H0A26095   1.861   2.258   8.118
  252ACC    H0B26096   1.768   2.265   7.967
  252ACC    H0C26097   1.943   2.245   7.962
  252ACC    H0D26098   1.857   1.819   7.931
  252ACC    H0E26099   1.814   1.865   7.766
  252ACC    H0F26100   1.587   1.931   7.833
  252ACC    H0G26101   1.618   1.905   7.999
  252ACC    H0H26102   1.720   1.658   7.729
  252ACC    H0I26103   1.574   1.738   7.674
  252ACC    H0J26104   1.567   1.573   7.736
  252ACC    H0K26105   1.756   1.622   7.975
  252ACC    H0M26106   1.603   1.540   7.996
  252ACC    H0N26107   1.641   1.683   8.091
  252ACC    H0O26108   1.394   1.795   7.833
  252ACC    H0P26109   1.416   1.774   8.006
  252ACC    H0Q26110   1.395   1.633   7.903
  253ACC    C0026111  10.664   5.781  11.296
  253ACC    C0126112  10.772   5.831  11.390
  253ACC    O0226113  10.886   5.856  11.351
  253ACC    O0326114  10.730   5.842  11.518
  253ACC    C0426115  10.819   5.890  11.618
  253ACC    C0526116  10.809   6.045  11.626
  253ACC    N0626117  10.907   6.112  11.718
  253ACC    C0726118  10.902   6.055  11.856
  253ACC    C0826119  11.046   6.102  11.664
  253ACC    C0926120  10.871   6.257  11.726
  253ACC    H0A26121  10.692   5.800  11.192
  253ACC    H0B26122  10.570   5.831  11.316
  253ACC    H0C26123  10.650   5.674  11.308
  253ACC    H0D26124  10.920   5.856  11.597
  253ACC    H0E26125  10.789   5.844  11.712
  253ACC    H0F26126  10.706   6.069  11.656
  253ACC    H0G26127  10.819   6.086  11.525
  253ACC    H0H26128  10.937   5.952  11.860
  253ACC    H0I26129  10.802   6.057  11.898
  253ACC    H0J26130  10.966   6.111  11.925
  253ACC    H0K26131  11.084   6.000  11.661
  253ACC    H0M26132  11.117   6.160  11.723
  253ACC    H0N26133  11.053   6.141  11.562
  253ACC    H0O26134  10.771   6.273  11.767
  253ACC    H0P26135  10.873   6.305  11.628
  253ACC    H0Q26136  10.940   6.313  11.790
  254ACC    C0026137  14.082   6.949  11.376
  254ACC    C0126138  14.045   7.042  11.490
  254ACC    O0226139  14.127   7.078  11.573
  254ACC    O0326140  13.915   7.080  11.488
  254ACC    C0426141  13.860   7.146  11.601
  254ACC    C0526142  13.910   7.293  11.612
  254ACC    N0626143  13.872   7.365  11.738
  254ACC    C0726144  13.724   7.383  11.746
  254ACC    C0826145  13.922   7.292  11.858
  254ACC    C0926146  13.937   7.499  11.735
  254ACC    H0A26147  14.179   6.903  11.397
  254ACC    H0B26148  14.089   7.004  11.282
  254ACC    H0C26149  14.008   6.870  11.366
  254ACC    H0D26150  13.887   7.086  11.688
  254ACC    H0E26151  13.752   7.142  11.591
  254ACC    H0F26152  13.876   7.347  11.523
  254ACC    H0G26153  14.019   7.294  11.603
  254ACC    H0H26154  13.671   7.289  11.754
  254ACC    H0I26155  13.685   7.435  11.658
  254ACC    H0J26156  13.696   7.443  11.833
  254ACC    H0K26157  13.869   7.198  11.877
  254ACC    H0M26158  13.912   7.351  11.950
  254ACC    H0N26159  14.028   7.265  11.849
  254ACC    H0O26160  13.908   7.558  11.648
  254ACC    H0P26161  14.046   7.491  11.731
  254ACC    H0Q26162  13.913   7.559  11.823
  255ACC    C0026163   9.489   5.785   2.478
  255ACC    C0126164   9.483   5.661   2.390
  255ACC    O0226165   9.406   5.568   2.414
  255ACC    O0326166   9.568   5.666   2.286
  255ACC    C0426167   9.580   5.553   2.200
  255ACC    C0526168   9.460   5.547   2.103
  255ACC    N0626169   9.452   5.425   2.016
  255ACC    C0726170   9.574   5.411   1.931
  255ACC    C0826171   9.433   5.302   2.099
  255ACC    C0926172   9.334   5.440   1.926
  255ACC    H0A26173   9.419   5.775   2.562
  255ACC    H0B26174   9.463   5.874   2.421
  255ACC    H0C26175   9.589   5.797   2.519
  255ACC    H0D26176   9.588   5.464   2.263
  255ACC    H0E26177   9.675   5.563   2.147
  255ACC    H0F26178   9.462   5.638   2.041
  255ACC    H0G26179   9.367   5.556   2.161
  255ACC    H0H26180   9.664   5.391   1.990
  255ACC    H0I26181   9.594   5.501   1.872
  255ACC    H0J26182   9.565   5.328   1.860
  255ACC    H0K26183   9.520   5.278   2.160
  255ACC    H0M26184   9.414   5.214   2.037
  255ACC    H0N26185   9.349   5.312   2.167
  255ACC    H0O26186   9.341   5.528   1.863
  255ACC    H0P26187   9.241   5.449   1.983
  255ACC    H0Q26188   9.321   5.354   1.860
  256ACC    C0026189  10.771   8.107  12.428
  256ACC    C0126190  10.906   8.109  12.358
  256ACC    O0226191  11.011   8.089  12.419
  256ACC    O0326192  10.896   8.133  12.227
  256ACC    C0426193  11.014   8.147  12.148
  256ACC    C0526194  11.075   8.008  12.117
  256ACC    N0626195  11.207   8.009  12.045
  256ACC    C0726196  11.195   8.076  11.912
  256ACC    C0826197  11.312   8.076  12.126
  256ACC    C0926198  11.248   7.868  12.022
  256ACC    H0A26199  10.784   8.090  12.535
  256ACC    H0B26200  10.708   8.027  12.388
  256ACC    H0C26201  10.720   8.202  12.414
  256ACC    H0D26202  11.083   8.212  12.201
  256ACC    H0E26203  10.985   8.198  12.056
  256ACC    H0F26204  11.001   7.950  12.060
  256ACC    H0G26205  11.087   7.953  12.211
  256ACC    H0H26206  11.173   8.183  11.920
  256ACC    H0I26207  11.117   8.032  11.850
  256ACC    H0J26208  11.288   8.069  11.854
  256ACC    H0K26209  11.295   8.184  12.138
  256ACC    H0M26210  11.411   8.066  12.081
  256ACC    H0N26211  11.319   8.035  12.227
  256ACC    H0O26212  11.176   7.813  11.961
  256ACC    H0P26213  11.260   7.812  12.115
  256ACC    H0Q26214  11.344   7.861  11.969
  257ACC    C0026215   8.050  11.894  14.152
  257ACC    C0126216   8.105  11.789  14.247
  257ACC    O0226217   8.225  11.765  14.254
  257ACC    O0326218   8.009  11.730  14.321
  257ACC    C0426219   8.044  11.622  14.407
  257ACC    C0526220   8.112  11.674  14.536
  257ACC    N0626221   8.165  11.568  14.628
  257ACC    C0726222   8.056  11.477  14.675
  257ACC    C0826223   8.273  11.489  14.564
  257ACC    C0926224   8.223  11.637  14.747
  257ACC    H0A26225   8.131  11.936  14.092
  257ACC    H0B26226   8.002  11.975  14.206
  257ACC    H0C26227   7.978  11.849  14.084
  257ACC    H0D26228   8.107  11.553  14.350
  257ACC    H0E26229   7.951  11.568  14.429
  257ACC    H0F26230   8.041  11.739  14.587
  257ACC    H0G26231   8.194  11.740  14.507
  257ACC    H0H26232   8.015  11.417  14.595
  257ACC    H0I26233   7.972  11.532  14.720
  257ACC    H0J26234   8.091  11.407  14.751
  257ACC    H0K26235   8.236  11.426  14.482
  257ACC    H0M26236   8.322  11.420  14.634
  257ACC    H0N26237   8.351  11.552  14.522
  257ACC    H0O26238   8.150  11.698  14.801
  257ACC    H0P26239   8.305  11.704  14.720
  257ACC    H0Q26240   8.264  11.566  14.820
  258ACC    C0026241   1.433   5.829   1.578
  258ACC    C0126242   1.482   5.869   1.715
  258ACC    O0226243   1.585   5.821   1.764
  258ACC    O0326244   1.403   5.960   1.772
  258ACC    C0426245   1.410   5.985   1.911
  258ACC    C0526246   1.525   6.084   1.939
  258ACC    N0626247   1.550   6.114   2.084
  258ACC    C0726248   1.431   6.175   2.149
  258ACC    C0826249   1.588   5.991   2.158
  258ACC    C0926250   1.664   6.209   2.092
  258ACC    H0A26251   1.492   5.746   1.539
  258ACC    H0B26252   1.439   5.914   1.510
  258ACC    H0C26253   1.329   5.798   1.585
  258ACC    H0D26254   1.420   5.890   1.964
  258ACC    H0E26255   1.313   6.025   1.941
  258ACC    H0F26256   1.503   6.176   1.884
  258ACC    H0G26257   1.616   6.043   1.895
  258ACC    H0H26258   1.346   6.107   2.153
  258ACC    H0I26259   1.397   6.265   2.097
  258ACC    H0J26260   1.451   6.203   2.253
  258ACC    H0K26261   1.504   5.923   2.177
  258ACC    H0M26262   1.626   6.016   2.257
  258ACC    H0N26263   1.665   5.932   2.109
  258ACC    H0O26264   1.645   6.302   2.039
  258ACC    H0P26265   1.755   6.165   2.050
  258ACC    H0Q26266   1.688   6.235   2.196
  259ACC    C0026267  11.666  14.649  10.046
  259ACC    C0126268  11.650  14.763   9.947
  259ACC    O0226269  11.584  14.751   9.844
  259ACC    O0326270  11.714  14.874   9.986
  259ACC    C0426271  11.705  14.993   9.907
  259ACC    C0526272  11.573  15.066   9.941
  259ACC    N0626273  11.543  15.188   9.859
  259ACC    C0726274  11.653  15.289   9.868
  259ACC    C0826275  11.520  15.152   9.716
  259ACC    C0926276  11.418  15.250   9.912
  259ACC    H0A26277  11.604  14.564  10.016
  259ACC    H0B26278  11.635  14.680  10.145
  259ACC    H0C26279  11.770  14.617  10.050
  259ACC    H0D26280  11.713  14.966   9.802
  259ACC    H0E26281  11.792  15.054   9.931
  259ACC    H0F26282  11.576  15.092  10.047
  259ACC    H0G26283  11.490  14.995   9.932
  259ACC    H0H26284  11.746  15.255   9.823
  259ACC    H0I26285  11.676  15.316   9.972
  259ACC    H0J26286  11.627  15.382   9.818
  259ACC    H0K26287  11.610  15.114   9.666
  259ACC    H0M26288  11.486  15.237   9.657
  259ACC    H0N26289  11.443  15.074   9.705
  259ACC    H0O26290  11.428  15.281  10.016
  259ACC    H0P26291  11.333  15.181   9.908
  259ACC    H0Q26292  11.389  15.339   9.856
  260ACC    C0026293   4.181   9.734   5.942
  260ACC    C0126294   4.131   9.877   5.937
  260ACC    O0226295   4.123   9.940   5.831
  260ACC    O0326296   4.097   9.925   6.058
  260ACC    C0426297   4.055  10.061   6.070
  260ACC    C0526298   3.908  10.076   6.022
  260ACC    N0626299   3.857  10.217   6.015
  260ACC    C0726300   3.864  10.285   6.148
  260ACC    C0826301   3.932  10.296   5.913
  260ACC    C0926302   3.714  10.211   5.973
  260ACC    H0A26303   4.207   9.699   5.842
  260ACC    H0B26304   4.104   9.668   5.982
  260ACC    H0C26305   4.270   9.727   6.004
  260ACC    H0D26306   4.125  10.123   6.014
  260ACC    H0E26307   4.066  10.088   6.175
  260ACC    H0F26308   3.846  10.016   6.088
  260ACC    H0G26309   3.899  10.030   5.924
  260ACC    H0H26310   3.967  10.300   6.182
  260ACC    H0I26311   3.813  10.227   6.226
  260ACC    H0J26312   3.818  10.383   6.146
  260ACC    H0K26313   4.036  10.314   5.942
  260ACC    H0M26314   3.888  10.395   5.896
  260ACC    H0N26315   3.935  10.246   5.816
  260ACC    H0O26316   3.652  10.155   6.043
  260ACC    H0P26317   3.702  10.164   5.875
  260ACC    H0Q26318   3.669  10.311   5.964
  261ACC    C0026319   5.077   7.145  16.113
  261ACC    C0126320   4.978   7.039  16.156
  261ACC    O0226321   4.875   7.017  16.092
  261ACC    O0326322   5.015   6.975  16.268
  261ACC    C0426323   4.930   6.876  16.325
  261ACC    C0526324   4.944   6.742  16.248
  261ACC    N0626325   4.847   6.635  16.288
  261ACC    C0726326   4.864   6.599  16.432
  261ACC    C0826327   4.706   6.675  16.262
  261ACC    C0926328   4.877   6.514  16.205
  261ACC    H0A26329   5.043   7.194  16.021
  261ACC    H0B26330   5.175   7.100  16.094
  261ACC    H0C26331   5.088   7.221  16.191
  261ACC    H0D26332   4.828   6.914  16.325
  261ACC    H0E26333   4.960   6.864  16.429
  261ACC    H0F26334   5.046   6.706  16.260
  261ACC    H0G26335   4.933   6.762  16.141
  261ACC    H0H26336   4.834   6.679  16.500
  261ACC    H0I26337   4.968   6.577  16.456
  261ACC    H0J26338   4.808   6.510  16.459
  261ACC    H0K26339   4.672   6.755  16.327
  261ACC    H0M26340   4.637   6.591  16.278
  261ACC    H0N26341   4.691   6.708  16.159
  261ACC    H0O26342   4.980   6.482  16.217
  261ACC    H0P26343   4.863   6.532  16.099
  261ACC    H0Q26344   4.816   6.428  16.233
  262ACC    C0026345  14.326  10.676   9.667
  262ACC    C0126346  14.335  10.525   9.656
  262ACC    O0226347  14.341  10.469   9.547
  262ACC    O0326348  14.336  10.464   9.775
  262ACC    C0426349  14.333  10.322   9.783
  262ACC    C0526350  14.473  10.262   9.754
  262ACC    N0626351  14.480  10.112   9.749
  262ACC    C0726352  14.438  10.051   9.878
  262ACC    C0826353  14.396  10.058   9.638
  262ACC    C0926354  14.622  10.073   9.723
  262ACC    H0A26355  14.322  10.721   9.567
  262ACC    H0B26356  14.413  10.716   9.719
  262ACC    H0C26357  14.236  10.705   9.721
  262ACC    H0D26358  14.257  10.286   9.713
  262ACC    H0E26359  14.299  10.296   9.883
  262ACC    H0F26360  14.543  10.301   9.829
  262ACC    H0G26361  14.509  10.302   9.658
  262ACC    H0H26362  14.332  10.067   9.900
  262ACC    H0I26363  14.495  10.090   9.963
  262ACC    H0J26364  14.452   9.942   9.879
  262ACC    H0K26365  14.289  10.072   9.654
  262ACC    H0M26366  14.411   9.950   9.625
  262ACC    H0N26367  14.420  10.104   9.542
  262ACC    H0O26368  14.690  10.108   9.802
  262ACC    H0P26369  14.660  10.112   9.629
  262ACC    H0Q26370  14.635   9.964   9.718
  263ACC    C0026371   3.098   9.859   6.243
  263ACC    C0126372   3.123   9.772   6.366
  263ACC    O0226373   3.182   9.816   6.465
  263ACC    O0326374   3.075   9.648   6.352
  263ACC    C0426375   3.085   9.556   6.460
  263ACC    C0526376   2.971   9.583   6.561
  263ACC    N0626377   2.975   9.500   6.687
  263ACC    C0726378   2.972   9.354   6.656
  263ACC    C0826379   3.095   9.533   6.769
  263ACC    C0926380   2.853   9.534   6.767
  263ACC    H0A26381   3.130   9.961   6.262
  263ACC    H0B26382   2.992   9.860   6.219
  263ACC    H0C26383   3.153   9.820   6.158
  263ACC    H0D26384   3.184   9.564   6.504
  263ACC    H0E26385   3.078   9.456   6.417
  263ACC    H0F26386   2.876   9.568   6.509
  263ACC    H0G26387   2.972   9.689   6.588
  263ACC    H0H26388   3.062   9.320   6.605
  263ACC    H0I26389   2.887   9.327   6.593
  263ACC    H0J26390   2.964   9.294   6.747
  263ACC    H0K26391   3.188   9.503   6.721
  263ACC    H0M26392   3.093   9.483   6.866
  263ACC    H0N26393   3.102   9.640   6.789
  263ACC    H0O26394   2.760   9.511   6.713
  263ACC    H0P26395   2.849   9.640   6.793
  263ACC    H0Q26396   2.848   9.478   6.861
  264ACC    C0026397  13.740   2.211  13.311
  264ACC    C0126398  13.720   2.227  13.461
  264ACC    O0226399  13.608   2.225  13.512
  264ACC    O0326400  13.836   2.244  13.526
  264ACC    C0426401  13.835   2.259  13.668
  264ACC    C0526402  13.824   2.121  13.737
  264ACC    N0626403  13.806   2.124  13.886
  264ACC    C0726404  13.919   2.195  13.952
  264ACC    C0826405  13.675   2.186  13.922
  264ACC    C0926406  13.806   1.984  13.937
  264ACC    H0A26407  13.645   2.189  13.262
  264ACC    H0B26408  13.808   2.128  13.291
  264ACC    H0C26409  13.781   2.302  13.269
  264ACC    H0D26410  13.754   2.327  13.695
  264ACC    H0E26411  13.929   2.308  13.695
  264ACC    H0F26412  13.914   2.064  13.711
  264ACC    H0G26413  13.743   2.063  13.691
  264ACC    H0H26414  13.921   2.302  13.928
  264ACC    H0I26415  14.015   2.153  13.922
  264ACC    H0J26416  13.914   2.188  14.061
  264ACC    H0K26417  13.670   2.292  13.897
  264ACC    H0M26418  13.654   2.178  14.029
  264ACC    H0N26419  13.592   2.138  13.869
  264ACC    H0O26420  13.904   1.938  13.928
  264ACC    H0P26421  13.739   1.918  13.880
  264ACC    H0Q26422  13.778   1.976  14.042
  265ACC    C0026423  11.753   4.393   4.779
  265ACC    C0126424  11.777   4.471   4.651
  265ACC    O0226425  11.723   4.579   4.629
  265ACC    O0326426  11.863   4.409   4.568
  265ACC    C0426427  11.890   4.465   4.440
  265ACC    C0526428  11.987   4.585   4.454
  265ACC    N0626429  12.011   4.664   4.328
  265ACC    C0726430  12.068   4.577   4.221
  265ACC    C0826431  11.886   4.729   4.281
  265ACC    C0926432  12.110   4.771   4.360
  265ACC    H0A26433  11.682   4.446   4.843
  265ACC    H0B26434  11.846   4.381   4.835
  265ACC    H0C26435  11.712   4.295   4.757
  265ACC    H0D26436  11.794   4.493   4.395
  265ACC    H0E26437  11.932   4.386   4.378
  265ACC    H0F26438  12.081   4.548   4.495
  265ACC    H0G26439  11.948   4.653   4.531
  265ACC    H0H26440  11.997   4.502   4.186
  265ACC    H0I26441  12.158   4.525   4.253
  265ACC    H0J26442  12.096   4.635   4.132
  265ACC    H0K26443  11.811   4.658   4.246
  265ACC    H0M26444  11.903   4.798   4.198
  265ACC    H0N26445  11.837   4.787   4.360
  265ACC    H0O26446  12.205   4.731   4.396
  265ACC    H0P26447  12.074   4.839   4.438
  265ACC    H0Q26448  12.133   4.834   4.273
  266ACC    C0026449   2.753   5.469   7.947
  266ACC    C0126450   2.858   5.579   7.951
  266ACC    O0226451   2.830   5.693   7.989
  266ACC    O0326452   2.980   5.537   7.913
  266ACC    C0426453   3.085   5.632   7.898
  266ACC    C0526454   3.141   5.674   8.037
  266ACC    N0626455   3.244   5.782   8.033
  266ACC    C0726456   3.364   5.739   7.956
  266ACC    C0826457   3.188   5.908   7.975
  266ACC    C0926458   3.286   5.812   8.173
  266ACC    H0A26459   2.655   5.510   7.970
  266ACC    H0B26460   2.776   5.391   8.019
  266ACC    H0C26461   2.749   5.425   7.847
  266ACC    H0D26462   3.047   5.716   7.841
  266ACC    H0E26463   3.162   5.585   7.837
  266ACC    H0F26464   3.180   5.585   8.086
  266ACC    H0G26465   3.057   5.707   8.099
  266ACC    H0H26466   3.346   5.734   7.849
  266ACC    H0I26467   3.403   5.642   7.988
  266ACC    H0J26468   3.447   5.810   7.968
  266ACC    H0K26469   3.177   5.903   7.866
  266ACC    H0M26470   3.254   5.994   7.992
  266ACC    H0N26471   3.091   5.934   8.016
  266ACC    H0O26472   3.329   5.725   8.222
  266ACC    H0P26473   3.203   5.848   8.234
  266ACC    H0Q26474   3.363   5.891   8.175
  267ACC    C0026475  11.509  16.579   4.828
  267ACC    C0126476  11.480  16.432   4.806
  267ACC    O0226477  11.516  16.346   4.886
  267ACC    O0326478  11.410  16.408   4.693
  267ACC    C0426479  11.382  16.275   4.654
  267ACC    C0526480  11.263  16.219   4.737
  267ACC    N0626481  11.231  16.074   4.717
  267ACC    C0726482  11.198  16.045   4.574
  267ACC    C0826483  11.345  15.988   4.761
  267ACC    C0926484  11.112  16.041   4.801
  267ACC    H0A26485  11.565  16.594   4.920
  267ACC    H0B26486  11.416  16.636   4.835
  267ACC    H0C26487  11.567  16.619   4.745
  267ACC    H0D26488  11.473  16.216   4.666
  267ACC    H0E26489  11.359  16.276   4.548
  267ACC    H0F26490  11.176  16.281   4.716
  267ACC    H0G26491  11.284  16.237   4.843
  267ACC    H0H26492  11.283  16.059   4.507
  267ACC    H0I26493  11.118  16.110   4.537
  267ACC    H0J26494  11.165  15.942   4.560
  267ACC    H0K26495  11.433  15.998   4.698
  267ACC    H0M26496  11.319  15.882   4.759
  267ACC    H0N26497  11.377  16.011   4.863
  267ACC    H0O26498  11.025  16.100   4.773
  267ACC    H0P26499  11.131  16.059   4.907
  267ACC    H0Q26500  11.083  15.936   4.792
  268ACC    C0026501   4.512  12.742  15.609
  268ACC    C0126502   4.602  12.622  15.583
  268ACC    O0226503   4.678  12.578  15.669
  268ACC    O0326504   4.589  12.573  15.459
  268ACC    C0426505   4.663  12.459  15.419
  268ACC    C0526506   4.596  12.331  15.474
  268ACC    N0626507   4.674  12.204  15.455
  268ACC    C0726508   4.702  12.179  15.311
  268ACC    C0826509   4.803  12.206  15.530
  268ACC    C0926510   4.592  12.092  15.509
  268ACC    H0A26511   4.520  12.774  15.712
  268ACC    H0B26512   4.408  12.715  15.589
  268ACC    H0C26513   4.540  12.825  15.544
  268ACC    H0D26514   4.766  12.471  15.453
  268ACC    H0E26515   4.666  12.458  15.310
  268ACC    H0F26516   4.498  12.321  15.427
  268ACC    H0G26517   4.576  12.344  15.581
  268ACC    H0H26518   4.758  12.258  15.261
  268ACC    H0I26519   4.611  12.160  15.253
  268ACC    H0J26520   4.762  12.089  15.298
  268ACC    H0K26521   4.874  12.278  15.490
  268ACC    H0M26522   4.852  12.108  15.525
  268ACC    H0N26523   4.788  12.229  15.636
  268ACC    H0O26524   4.502  12.074  15.449
  268ACC    H0P26525   4.559  12.108  15.612
  268ACC    H0Q26526   4.645  11.997  15.508
  269ACC    C0026527  10.624  11.476   6.315
  269ACC    C0126528  10.522  11.470   6.203
  269ACC    O0226529  10.554  11.486   6.085
  269ACC    O0326530  10.397  11.445   6.246
  269ACC    C0426531  10.289  11.444   6.153
  269ACC    C0526532  10.288  11.311   6.073
  269ACC    N0626533  10.188  11.304   5.962
  269ACC    C0726534  10.049  11.323   6.012
  269ACC    C0826535  10.218  11.404   5.856
  269ACC    C0926536  10.198  11.168   5.901
  269ACC    H0A26537  10.723  11.496   6.275
  269ACC    H0B26538  10.627  11.381   6.369
  269ACC    H0C26539  10.598  11.555   6.385
  269ACC    H0D26540  10.299  11.532   6.089
  269ACC    H0E26541  10.197  11.458   6.210
  269ACC    H0F26542  10.272  11.230   6.145
  269ACC    H0G26543  10.388  11.294   6.033
  269ACC    H0H26544  10.031  11.424   6.050
  269ACC    H0I26545  10.024  11.253   6.092
  269ACC    H0J26546   9.974  11.307   5.933
  269ACC    H0K26547  10.203  11.507   5.889
  269ACC    H0M26548  10.155  11.392   5.767
  269ACC    H0N26549  10.322  11.398   5.821
  269ACC    H0O26550  10.176  11.088   5.973
  269ACC    H0P26551  10.298  11.148   5.861
  269ACC    H0Q26552  10.128  11.154   5.818
  270ACC    C0026553   1.473   1.299   8.409
  270ACC    C0126554   1.375   1.415   8.405
  270ACC    O0226555   1.401   1.519   8.345
  270ACC    O0326556   1.262   1.390   8.473
  270ACC    C0426557   1.165   1.492   8.492
  270ACC    C0526558   1.084   1.519   8.363
  270ACC    N0626559   0.983   1.630   8.371
  270ACC    C0726560   0.877   1.600   8.471
  270ACC    C0826561   1.047   1.761   8.404
  270ACC    C0926562   0.918   1.643   8.237
  270ACC    H0A26563   1.569   1.329   8.366
  270ACC    H0B26564   1.434   1.215   8.353
  270ACC    H0C26565   1.491   1.269   8.512
  270ACC    H0D26566   1.217   1.581   8.528
  270ACC    H0E26567   1.100   1.459   8.573
  270ACC    H0F26568   1.035   1.426   8.333
  270ACC    H0G26569   1.154   1.541   8.282
  270ACC    H0H26570   0.914   1.597   8.573
  270ACC    H0I26571   0.827   1.504   8.452
  270ACC    H0J26572   0.798   1.676   8.470
  270ACC    H0K26573   1.086   1.765   8.506
  270ACC    H0M26574   0.977   1.844   8.396
  270ACC    H0N26575   1.131   1.784   8.337
  270ACC    H0O26576   0.867   1.552   8.206
  270ACC    H0P26577   0.990   1.668   8.158
  270ACC    H0Q26578   0.843   1.723   8.235
  271ACC    C0026579   5.689  11.361  10.471
  271ACC    C0126580   5.815  11.276  10.468
  271ACC    O0226581   5.871  11.238  10.571
  271ACC    O0326582   5.857  11.249  10.343
  271ACC    C0426583   5.971  11.167  10.323
  271ACC    C0526584   5.931  11.018  10.337
  271ACC    N0626585   6.044  10.920  10.333
  271ACC    C0726586   6.124  10.932  10.208
  271ACC    C0826587   6.133  10.936  10.452
  271ACC    C0926588   5.985  10.783  10.338
  271ACC    H0A26589   5.653  11.372  10.573
  271ACC    H0B26590   5.610  11.314  10.412
  271ACC    H0C26591   5.709  11.460  10.430
  271ACC    H0D26592   6.049  11.197  10.394
  271ACC    H0E26593   6.009  11.189  10.223
  271ACC    H0F26594   5.858  10.996  10.259
  271ACC    H0G26595   5.875  11.006  10.431
  271ACC    H0H26596   6.177  11.027  10.201
  271ACC    H0I26597   6.061  10.924  10.119
  271ACC    H0J26598   6.199  10.854  10.200
  271ACC    H0K26599   6.187  11.031  10.452
  271ACC    H0M26600   6.209  10.857  10.458
  271ACC    H0N26601   6.076  10.932  10.546
  271ACC    H0O26602   5.919  10.763  10.254
  271ACC    H0P26603   5.925  10.766  10.428
  271ACC    H0Q26604   6.061  10.704  10.337
  272ACC    C0026605   7.363  14.275  14.631
  272ACC    C0126606   7.364  14.345  14.496
  272ACC    O0226607   7.403  14.461  14.484
  272ACC    O0326608   7.318  14.268  14.397
  272ACC    C0426609   7.304  14.321  14.266
  272ACC    C0526610   7.442  14.330  14.196
  272ACC    N0626611   7.443  14.398  14.062
  272ACC    C0726612   7.354  14.329  13.964
  272ACC    C0826613   7.402  14.541  14.075
  272ACC    C0926614   7.582  14.395  14.010
  272ACC    H0A26615   7.397  14.342  14.710
  272ACC    H0B26616   7.428  14.187  14.629
  272ACC    H0C26617   7.262  14.242  14.655
  272ACC    H0D26618   7.254  14.418  14.274
  272ACC    H0E26619   7.236  14.256  14.211
  272ACC    H0F26620   7.481  14.228  14.187
  272ACC    H0G26621   7.512  14.381  14.263
  272ACC    H0H26622   7.248  14.334  13.991
  272ACC    H0I26623   7.379  14.222  13.955
  272ACC    H0J26624   7.361  14.371  13.864
  272ACC    H0K26625   7.296  14.553  14.101
  272ACC    H0M26626   7.415  14.597  13.982
  272ACC    H0N26627   7.459  14.594  14.152
  272ACC    H0O26628   7.619  14.292  13.997
  272ACC    H0P26629   7.653  14.445  14.077
  272ACC    H0Q26630   7.591  14.443  13.912
  273ACC    C0026631   7.723   3.956  11.357
  273ACC    C0126632   7.626   3.888  11.452
  273ACC    O0226633   7.569   3.784  11.422
  273ACC    O0326634   7.611   3.953  11.569
  273ACC    C0426635   7.516   3.905  11.663
  273ACC    C0526636   7.572   3.779  11.735
  273ACC    N0626637   7.475   3.708  11.825
  273ACC    C0726638   7.427   3.798  11.934
  273ACC    C0826639   7.360   3.655  11.748
  273ACC    C0926640   7.548   3.593  11.887
  273ACC    H0A26641   7.728   3.902  11.263
  273ACC    H0B26642   7.823   3.960  11.400
  273ACC    H0C26643   7.691   4.058  11.336
  273ACC    H0D26644   7.423   3.885  11.610
  273ACC    H0E26645   7.496   3.986  11.733
  273ACC    H0F26646   7.662   3.809  11.790
  273ACC    H0G26647   7.608   3.709  11.660
  273ACC    H0H26648   7.366   3.880  11.897
  273ACC    H0I26649   7.509   3.842  11.990
  273ACC    H0J26650   7.364   3.744  12.006
  273ACC    H0K26651   7.294   3.733  11.708
  273ACC    H0M26652   7.295   3.590  11.808
  273ACC    H0N26653   7.392   3.595  11.661
  273ACC    H0O26654   7.635   3.625  11.945
  273ACC    H0P26655   7.584   3.523  11.811
  273ACC    H0Q26656   7.484   3.536  11.954
  274ACC    C0026657  11.175   4.137   2.843
  274ACC    C0126658  11.268   4.254   2.812
  274ACC    O0226659  11.364   4.281   2.882
  274ACC    O0326660  11.233   4.320   2.700
  274ACC    C0426661  11.303   4.437   2.663
  274ACC    C0526662  11.439   4.401   2.599
  274ACC    N0626663  11.530   4.516   2.568
  274ACC    C0726664  11.466   4.611   2.473
  274ACC    C0826665  11.569   4.588   2.693
  274ACC    C0926666  11.654   4.462   2.505
  274ACC    H0A26667  11.205   4.089   2.936
  274ACC    H0B26668  11.177   4.064   2.763
  274ACC    H0C26669  11.073   4.173   2.855
  274ACC    H0D26670  11.313   4.500   2.752
  274ACC    H0E26671  11.239   4.492   2.593
  274ACC    H0F26672  11.419   4.342   2.509
  274ACC    H0G26673  11.491   4.332   2.666
  274ACC    H0H26674  11.379   4.662   2.515
  274ACC    H0I26675  11.432   4.561   2.382
  274ACC    H0J26676  11.535   4.690   2.442
  274ACC    H0K26677  11.485   4.641   2.740
  274ACC    H0M26678  11.646   4.664   2.675
  274ACC    H0N26679  11.609   4.520   2.769
  274ACC    H0O26680  11.633   4.407   2.413
  274ACC    H0P26681  11.706   4.392   2.572
  274ACC    H0Q26682  11.726   4.540   2.480
  275ACC    C0026683   5.176   4.932  11.490
  275ACC    C0126684   5.086   4.953  11.369
  275ACC    O0226685   5.087   4.875  11.274
  275ACC    O0326686   5.009   5.062  11.380
  275ACC    C0426687   4.924   5.100  11.272
  275ACC    C0526688   4.797   5.012  11.270
  275ACC    N0626689   4.704   5.034  11.154
  275ACC    C0726690   4.654   5.175  11.151
  275ACC    C0826691   4.770   5.001  11.025
  275ACC    C0926692   4.586   4.944  11.171
  275ACC    H0A26693   5.238   4.844  11.476
  275ACC    H0B26694   5.116   4.919  11.580
  275ACC    H0C26695   5.241   5.019  11.504
  275ACC    H0D26696   4.981   5.094  11.180
  275ACC    H0E26697   4.899   5.205  11.287
  275ACC    H0F26698   4.744   5.027  11.364
  275ACC    H0G26699   4.827   4.907  11.271
  275ACC    H0H26700   4.733   5.248  11.130
  275ACC    H0I26701   4.608   5.205  11.245
  275ACC    H0J26702   4.579   5.190  11.073
  275ACC    H0K26703   4.851   5.070  10.999
  275ACC    H0M26704   4.700   5.004  10.941
  275ACC    H0N26705   4.814   4.901  11.026
  275ACC    H0O26706   4.532   4.964  11.264
  275ACC    H0P26707   4.615   4.839  11.173
  275ACC    H0Q26708   4.514   4.954  11.090
  276ACC    C0026709   6.367   5.333   2.342
  276ACC    C0126710   6.458   5.378   2.455
  276ACC    O0226711   6.419   5.457   2.540
  276ACC    O0326712   6.581   5.323   2.450
  276ACC    C0426713   6.674   5.353   2.554
  276ACC    C0526714   6.649   5.259   2.674
  276ACC    N0626715   6.728   5.289   2.798
  276ACC    C0726716   6.874   5.289   2.773
  276ACC    C0826717   6.686   5.421   2.852
  276ACC    C0926718   6.696   5.186   2.901
  276ACC    H0A26719   6.264   5.361   2.363
  276ACC    H0B26720   6.371   5.224   2.330
  276ACC    H0C26721   6.396   5.380   2.248
  276ACC    H0D26722   6.664   5.458   2.582
  276ACC    H0E26723   6.774   5.341   2.514
  276ACC    H0F26724   6.666   5.156   2.642
  276ACC    H0G26725   6.542   5.263   2.699
  276ACC    H0H26726   6.905   5.371   2.708
  276ACC    H0I26727   6.908   5.196   2.727
  276ACC    H0J26728   6.930   5.301   2.866
  276ACC    H0K26729   6.721   5.508   2.796
  276ACC    H0M26730   6.718   5.437   2.956
  276ACC    H0N26731   6.577   5.430   2.854
  276ACC    H0O26732   6.721   5.084   2.869
  276ACC    H0P26733   6.589   5.186   2.927
  276ACC    H0Q26734   6.748   5.203   2.995
  277ACC    C0026735  12.452  14.729   9.897
  277ACC    C0126736  12.401  14.590   9.865
  277ACC    O0226737  12.430  14.492   9.934
  277ACC    O0326738  12.323  14.586   9.755
  277ACC    C0426739  12.279  14.461   9.704
  277ACC    C0526740  12.163  14.405   9.791
  277ACC    N0626741  12.119  14.265   9.757
  277ACC    C0726742  12.068  14.257   9.617
  277ACC    C0826743  12.230  14.167   9.777
  277ACC    C0926744  12.008  14.230   9.850
  277ACC    H0A26745  12.520  14.726   9.983
  277ACC    H0B26746  12.369  14.796   9.921
  277ACC    H0C26747  12.506  14.770   9.812
  277ACC    H0D26748  12.366  14.395   9.700
  277ACC    H0E26749  12.247  14.477   9.601
  277ACC    H0F26750  12.080  14.475   9.784
  277ACC    H0G26751  12.194  14.408   9.896
  277ACC    H0H26752  12.147  14.274   9.543
  277ACC    H0I26753  11.990  14.330   9.597
  277ACC    H0J26754  12.027  14.159   9.594
  277ACC    H0K26755  12.311  14.179   9.705
  277ACC    H0M26756  12.196  14.064   9.768
  277ACC    H0N26757  12.276  14.177   9.876
  277ACC    H0O26758  11.923  14.298   9.840
  277ACC    H0P26759  12.039  14.233   9.954
  277ACC    H0Q26760  11.969  14.129   9.831
  278ACC    C0026761  15.256   6.475   6.962
  278ACC    C0126762  15.140   6.396   7.019
  278ACC    O0226763  15.083   6.429   7.123
  278ACC    O0326764  15.108   6.289   6.944
  278ACC    C0426765  15.008   6.198   6.989
  278ACC    C0526766  14.867   6.258   6.966
  278ACC    N0626767  14.753   6.178   7.022
  278ACC    C0726768  14.748   6.041   6.962
  278ACC    C0826769  14.763   6.168   7.171
  278ACC    C0926770  14.627   6.249   6.989
  278ACC    H0A26771  15.282   6.558   7.028
  278ACC    H0B26772  15.230   6.514   6.864
  278ACC    H0C26773  15.344   6.411   6.952
  278ACC    H0D26774  15.029   6.175   7.093
  278ACC    H0E26775  15.022   6.106   6.932
  278ACC    H0F26776  14.854   6.272   6.858
  278ACC    H0G26777  14.864   6.359   7.009
  278ACC    H0H26778  14.835   5.980   6.989
  278ACC    H0I26779  14.746   6.045   6.853
  278ACC    H0J26780  14.660   5.985   6.994
  278ACC    H0K26781  14.847   6.107   7.204
  278ACC    H0M26782  14.674   6.122   7.215
  278ACC    H0N26783  14.775   6.266   7.218
  278ACC    H0O26784  14.613   6.260   6.881
  278ACC    H0P26785  14.624   6.350   7.031
  278ACC    H0Q26786  14.538   6.197   7.026
  279ACC    C0026787   4.996  14.678   1.964
  279ACC    C0126788   5.057  14.548   1.915
  279ACC    O0226789   5.066  14.522   1.795
  279ACC    O0326790   5.098  14.469   2.015
  279ACC    C0426791   5.143  14.337   1.987
  279ACC    C0526792   5.288  14.340   1.931
  279ACC    N0626793   5.342  14.207   1.885
  279ACC    C0726794   5.346  14.109   1.997
  279ACC    C0826795   5.262  14.152   1.772
  279ACC    C0926796   5.481  14.229   1.837
  279ACC    H0A26797   4.960  14.737   1.879
  279ACC    H0B26798   5.071  14.736   2.019
  279ACC    H0C26799   4.912  14.658   2.030
  279ACC    H0D26800   5.072  14.291   1.919
  279ACC    H0E26801   5.138  14.281   2.081
  279ACC    H0F26802   5.353  14.383   2.007
  279ACC    H0G26803   5.291  14.410   1.847
  279ACC    H0H26804   5.246  14.081   2.032
  279ACC    H0I26805   5.401  14.146   2.084
  279ACC    H0J26806   5.394  14.015   1.968
  279ACC    H0K26807   5.161  14.123   1.801
  279ACC    H0M26808   5.307  14.063   1.728
  279ACC    H0N26809   5.250  14.225   1.691
  279ACC    H0O26810   5.547  14.269   1.915
  279ACC    H0P26811   5.486  14.300   1.754
  279ACC    H0Q26812   5.528  14.137   1.802
  280ACC    C0026813   1.906  12.905  14.252
  280ACC    C0126814   1.758  12.937  14.262
  280ACC    O0226815   1.693  12.974  14.164
  280ACC    O0326816   1.710  12.922  14.386
  280ACC    C0426817   1.572  12.942  14.411
  280ACC    C0526818   1.493  12.814  14.372
  280ACC    N0626819   1.344  12.826  14.381
  280ACC    C0726820   1.298  12.868  14.517
  280ACC    C0826821   1.291  12.920  14.278
  280ACC    C0926822   1.285  12.692  14.354
  280ACC    H0A26823   1.939  12.907  14.148
  280ACC    H0B26824   1.927  12.806  14.292
  280ACC    H0C26825   1.965  12.978  14.308
  280ACC    H0D26826   1.538  13.030  14.357
  280ACC    H0E26827   1.561  12.964  14.517
  280ACC    H0F26828   1.528  12.732  14.436
  280ACC    H0G26829   1.521  12.784  14.271
  280ACC    H0H26830   1.329  12.969  14.543
  280ACC    H0I26831   1.336  12.800  14.594
  280ACC    H0J26832   1.189  12.865  14.525
  280ACC    H0K26833   1.320  13.024  14.295
  280ACC    H0M26834   1.182  12.918  14.274
  280ACC    H0N26835   1.325  12.893  14.177
  280ACC    H0O26836   1.318  12.614  14.422
  280ACC    H0P26837   1.304  12.655  14.252
  280ACC    H0Q26838   1.177  12.696  14.364
  281ACC    C0026839   2.764   1.077  13.976
  281ACC    C0126840   2.719   0.935  13.946
  281ACC    O0226841   2.673   0.903  13.836
  281ACC    O0326842   2.736   0.851  14.050
  281ACC    C0426843   2.683   0.719  14.044
  281ACC    C0526844   2.772   0.628  13.956
  281ACC    N0626845   2.720   0.490  13.932
  281ACC    C0726846   2.706   0.414  14.060
  281ACC    C0826847   2.588   0.493  13.861
  281ACC    C0926848   2.818   0.418  13.846
  281ACC    H0A26849   2.740   1.143  13.893
  281ACC    H0B26850   2.871   1.080  13.994
  281ACC    H0C26851   2.713   1.114  14.065
  281ACC    H0D26852   2.580   0.726  14.008
  281ACC    H0E26853   2.678   0.683  14.147
  281ACC    H0F26854   2.871   0.625  14.001
  281ACC    H0G26855   2.787   0.678  13.859
  281ACC    H0H26856   2.629   0.456  14.126
  281ACC    H0I26857   2.799   0.413  14.117
  281ACC    H0J26858   2.677   0.310  14.044
  281ACC    H0K26859   2.508   0.533  13.923
  281ACC    H0M26860   2.556   0.393  13.830
  281ACC    H0N26861   2.592   0.555  13.771
  281ACC    H0O26862   2.917   0.411  13.892
  281ACC    H0P26863   2.831   0.468  13.749
  281ACC    H0Q26864   2.787   0.316  13.824
  282ACC    C0026865  15.803  10.487   5.665
  282ACC    C0126866  15.697  10.476   5.556
  282ACC    O0226867  15.644  10.576   5.508
  282ACC    O0326868  15.670  10.350   5.521
  282ACC    C0426869  15.572  10.324   5.421
  282ACC    C0526870  15.632  10.350   5.281
  282ACC    N0626871  15.535  10.343   5.166
  282ACC    C0726872  15.468  10.211   5.159
  282ACC    C0826873  15.433  10.452   5.177
  282ACC    C0926874  15.612  10.364   5.040
  282ACC    H0A26875  15.825  10.591   5.688
  282ACC    H0B26876  15.896  10.439   5.633
  282ACC    H0C26877  15.769  10.438   5.756
  282ACC    H0D26878  15.485  10.386   5.442
  282ACC    H0E26879  15.541  10.220   5.433
  282ACC    H0F26880  15.714  10.279   5.266
  282ACC    H0G26881  15.681  10.448   5.281
  282ACC    H0H26882  15.403  10.192   5.245
  282ACC    H0I26883  15.540  10.128   5.155
  282ACC    H0J26884  15.405  10.201   5.070
  282ACC    H0K26885  15.366  10.439   5.261
  282ACC    H0M26886  15.370  10.457   5.088
  282ACC    H0N26887  15.480  10.550   5.188
  282ACC    H0O26888  15.689  10.287   5.025
  282ACC    H0P26889  15.664  10.460   5.038
  282ACC    H0Q26890  15.549  10.361   4.951
  283ACC    C0026891   7.380   4.955   2.995
  283ACC    C0126892   7.246   4.885   2.980
  283ACC    O0226893   7.178   4.898   2.878
  283ACC    O0326894   7.217   4.809   3.086
  283ACC    C0426895   7.089   4.748   3.096
  283ACC    C0526896   7.084   4.616   3.015
  283ACC    N0626897   6.952   4.545   3.012
  283ACC    C0726898   6.907   4.507   3.149
  283ACC    C0826899   6.847   4.627   2.945
  283ACC    C0926900   6.968   4.420   2.933
  283ACC    H0A26901   7.401   5.016   2.907
  283ACC    H0B26902   7.459   4.882   3.007
  283ACC    H0C26903   7.378   5.019   3.082
  283ACC    H0D26904   7.014   4.820   3.063
  283ACC    H0E26905   7.068   4.732   3.202
  283ACC    H0F26906   7.161   4.551   3.055
  283ACC    H0G26907   7.115   4.640   2.913
  283ACC    H0H26908   6.892   4.593   3.214
  283ACC    H0I26909   6.977   4.442   3.200
  283ACC    H0J26910   6.810   4.456   3.148
  283ACC    H0K26911   6.829   4.722   2.994
  283ACC    H0M26912   6.749   4.578   2.945
  283ACC    H0N26913   6.872   4.651   2.841
  283ACC    H0O26914   7.043   4.353   2.977
  283ACC    H0P26915   7.000   4.440   2.830
  283ACC    H0Q26916   6.875   4.364   2.926
  284ACC    C0026917  15.636   4.669  11.458
  284ACC    C0126918  15.678   4.530  11.414
  284ACC    O0226919  15.701   4.504  11.296
  284ACC    O0326920  15.688   4.443  11.516
  284ACC    C0426921  15.720   4.307  11.489
  284ACC    C0526922  15.872   4.292  11.460
  284ACC    N0626923  15.917   4.155  11.418
  284ACC    C0726924  15.885   4.052  11.521
  284ACC    C0826925  15.855   4.116  11.288
  284ACC    C0926926  16.065   4.159  11.399
  284ACC    H0A26927  15.627   4.736  11.372
  284ACC    H0B26928  15.709   4.711  11.527
  284ACC    H0C26929  15.539   4.665  11.508
  284ACC    H0D26930  15.658   4.273  11.406
  284ACC    H0E26931  15.691   4.250  11.577
  284ACC    H0F26932  15.927   4.324  11.550
  284ACC    H0G26933  15.901   4.364  11.383
  284ACC    H0H26934  15.778   4.038  11.535
  284ACC    H0I26935  15.927   4.079  11.619
  284ACC    H0J26936  15.927   3.955  11.496
  284ACC    H0K26937  15.747   4.100  11.295
  284ACC    H0M26938  15.897   4.023  11.248
  284ACC    H0N26939  15.870   4.192  11.211
  284ACC    H0O26940  16.118   4.185  11.491
  284ACC    H0P26941  16.096   4.231  11.323
  284ACC    H0Q26942  16.106   4.062  11.368
  285ACC    C0026943   7.332   4.508  11.310
  285ACC    C0126944   7.422   4.570  11.417
  285ACC    O0226945   7.539   4.598  11.394
  285ACC    O0326946   7.359   4.589  11.534
  285ACC    C0426947   7.429   4.647  11.643
  285ACC    C0526948   7.437   4.800  11.624
  285ACC    N0626949   7.522   4.874  11.724
  285ACC    C0726950   7.476   4.849  11.864
  285ACC    C0826951   7.665   4.836  11.710
  285ACC    C0926952   7.509   5.020  11.695
  285ACC    H0A26953   7.385   4.501  11.215
  285ACC    H0B26954   7.243   4.569  11.295
  285ACC    H0C26955   7.301   4.408  11.339
  285ACC    H0D26956   7.528   4.600  11.649
  285ACC    H0E26957   7.375   4.620  11.734
  285ACC    H0F26958   7.335   4.839  11.625
  285ACC    H0G26959   7.474   4.821  11.523
  285ACC    H0H26960   7.490   4.746  11.895
  285ACC    H0I26961   7.370   4.872  11.876
  285ACC    H0J26962   7.530   4.911  11.936
  285ACC    H0K26963   7.685   4.733  11.738
  285ACC    H0M26964   7.730   4.898  11.773
  285ACC    H0N26965   7.701   4.848  11.607
  285ACC    H0O26966   7.406   5.055  11.704
  285ACC    H0P26967   7.542   5.045  11.594
  285ACC    H0Q26968   7.569   5.081  11.764
  286ACC    C0026969   5.881  14.223   9.094
  286ACC    C0126970   5.905  14.353   9.018
  286ACC    O0226971   5.812  14.421   8.976
  286ACC    O0326972   6.035  14.382   9.003
  286ACC    C0426973   6.075  14.493   8.925
  286ACC    C0526974   6.057  14.626   9.004
  286ACC    N0626975   6.085  14.752   8.928
  286ACC    C0726976   6.226  14.756   8.879
  286ACC    C0826977   5.991  14.767   8.813
  286ACC    C0926978   6.065  14.867   9.020
  286ACC    H0A26979   5.774  14.202   9.100
  286ACC    H0B26980   5.921  14.231   9.195
  286ACC    H0C26981   5.930  14.140   9.043
  286ACC    H0D26982   6.017  14.492   8.832
  286ACC    H0E26983   6.179  14.478   8.897
  286ACC    H0F26984   6.120  14.620   9.093
  286ACC    H0G26985   5.954  14.629   9.042
  286ACC    H0H26986   6.247  14.680   8.804
  286ACC    H0I26987   6.298  14.742   8.960
  286ACC    H0J26988   6.250  14.852   8.832
  286ACC    H0K26989   6.007  14.693   8.734
  286ACC    H0M26990   6.002  14.865   8.765
  286ACC    H0N26991   5.887  14.759   8.844
  286ACC    H0O26992   6.132  14.863   9.107
  286ACC    H0P26993   5.963  14.872   9.060
  286ACC    H0Q26994   6.084  14.963   8.972
  287ACC    C0026995   0.556   2.810   7.920
  287ACC    C0126996   0.529   2.814   7.771
  287ACC    O0226997   0.439   2.883   7.722
  287ACC    O0326998   0.614   2.738   7.701
  287ACC    C0426999   0.599   2.725   7.561
  287ACC    C0527000   0.658   2.849   7.490
  287ACC    N0627001   0.639   2.855   7.341
  287ACC    C0727002   0.699   2.736   7.275
  287ACC    C0827003   0.494   2.864   7.307
  287ACC    C0927004   0.707   2.978   7.291
  287ACC    H0A27005   0.491   2.878   7.975
  287ACC    H0B27006   0.660   2.835   7.942
  287ACC    H0C27007   0.539   2.709   7.959
  287ACC    H0D27008   0.493   2.709   7.539
  287ACC    H0E27009   0.652   2.633   7.533
  287ACC    H0F27010   0.764   2.854   7.516
  287ACC    H0G27011   0.614   2.938   7.536
  287ACC    H0H27012   0.649   2.643   7.301
  287ACC    H0I27013   0.805   2.723   7.302
  287ACC    H0J27014   0.695   2.744   7.166
  287ACC    H0K27015   0.438   2.773   7.332
  287ACC    H0M27016   0.477   2.881   7.200
  287ACC    H0N27017   0.444   2.946   7.360
  287ACC    H0O27018   0.814   2.977   7.313
  287ACC    H0P27019   0.666   3.068   7.336
  287ACC    H0Q27020   0.697   2.989   7.183
  288ACC    C0027021  14.163   2.130  10.985
  288ACC    C0127022  14.309   2.101  11.016
  288ACC    O0227023  14.383   2.186  11.064
  288ACC    O0327024  14.343   1.974  10.988
  288ACC    C0427025  14.479   1.934  10.995
  288ACC    C0527026  14.522   1.911  11.142
  288ACC    N0627027  14.667   1.878  11.162
  288ACC    C0727028  14.704   1.752  11.091
  288ACC    C0827029  14.755   1.990  11.118
  288ACC    C0927030  14.689   1.857  11.308
  288ACC    H0A27031  14.142   2.236  11.001
  288ACC    H0B27032  14.097   2.070  11.047
  288ACC    H0C27033  14.142   2.107  10.880
  288ACC    H0D27034  14.539   2.010  10.944
  288ACC    H0E27035  14.487   1.843  10.936
  288ACC    H0F27036  14.458   1.833  11.183
  288ACC    H0G27037  14.498   2.001  11.199
  288ACC    H0H27038  14.699   1.763  10.982
  288ACC    H0I27039  14.639   1.669  11.117
  288ACC    H0J27040  14.806   1.721  11.113
  288ACC    H0K27041  14.753   2.005  11.009
  288ACC    H0M27042  14.860   1.973  11.144
  288ACC    H0N27043  14.726   2.085  11.163
  288ACC    H0O27044  14.628   1.776  11.348
  288ACC    H0P27045  14.665   1.946  11.367
  288ACC    H0Q27046  14.793   1.832  11.332
  289ACC    C0027047  13.760   3.767   1.763
  289ACC    C0127048  13.871   3.835   1.685
  289ACC    O0227049  13.978   3.864   1.738
  289ACC    O0327050  13.840   3.859   1.557
  289ACC    C0427051  13.938   3.912   1.469
  289ACC    C0527052  14.024   3.797   1.412
  289ACC    N0627053  14.141   3.838   1.327
  289ACC    C0727054  14.100   3.927   1.214
  289ACC    C0827055  14.246   3.906   1.410
  289ACC    C0927056  14.203   3.715   1.270
  289ACC    H0A27057  13.797   3.730   1.859
  289ACC    H0B27058  13.720   3.682   1.708
  289ACC    H0C27059  13.678   3.837   1.782
  289ACC    H0D27060  13.998   3.987   1.522
  289ACC    H0E27061  13.885   3.965   1.389
  289ACC    H0F27062  13.958   3.731   1.355
  289ACC    H0G27063  14.060   3.736   1.495
  289ACC    H0H27064  14.064   4.024   1.248
  289ACC    H0I27065  14.022   3.881   1.153
  289ACC    H0J27066  14.184   3.947   1.147
  289ACC    H0K27067  14.213   4.002   1.450
  289ACC    H0M27068  14.336   3.927   1.352
  289ACC    H0N27069  14.277   3.845   1.495
  289ACC    H0O27070  14.133   3.659   1.206
  289ACC    H0P27071  14.237   3.645   1.347
  289ACC    H0Q27072  14.290   3.736   1.208
  290ACC    C0027073  11.155   6.822  16.019
  290ACC    C0127074  11.202   6.754  15.891
  290ACC    O0227075  11.319   6.717  15.878
  290ACC    O0327076  11.105   6.739  15.801
  290ACC    C0427077  11.134   6.689  15.671
  290ACC    C0527078  11.150   6.534  15.675
  290ACC    N0627079  11.189   6.471  15.545
  290ACC    C0727080  11.087   6.495  15.439
  290ACC    C0827081  11.323   6.520  15.498
  290ACC    C0927082  11.200   6.323  15.566
  290ACC    H0A27083  11.238   6.839  16.087
  290ACC    H0B27084  11.080   6.761  16.069
  290ACC    H0C27085  11.110   6.919  15.995
  290ACC    H0D27086  11.222   6.740  15.634
  290ACC    H0E27087  11.051   6.718  15.607
  290ACC    H0F27088  11.057   6.491  15.711
  290ACC    H0G27089  11.225   6.509  15.751
  290ACC    H0H27090  11.078   6.600  15.411
  290ACC    H0I27091  10.987   6.462  15.471
  290ACC    H0J27092  11.109   6.440  15.347
  290ACC    H0K27093  11.321   6.625  15.468
  290ACC    H0M27094  11.359   6.465  15.411
  290ACC    H0N27095  11.399   6.510  15.575
  290ACC    H0O27096  11.105   6.279  15.599
  290ACC    H0P27097  11.274   6.297  15.642
  290ACC    H0Q27098  11.228   6.269  15.476
  291ACC    C0027099   6.659   7.652  12.024
  291ACC    C0127100   6.782   7.566  11.999
  291ACC    O0227101   6.773   7.456  11.946
  291ACC    O0327102   6.896   7.625  12.039
  291ACC    C0427103   7.018   7.552  12.034
  291ACC    C0527104   7.071   7.542  11.888
  291ACC    N0627105   7.200   7.468  11.871
  291ACC    C0727106   7.314   7.542  11.934
  291ACC    C0827107   7.192   7.332  11.931
  291ACC    C0927108   7.226   7.453  11.725
  291ACC    H0A27109   6.569   7.594  12.009
  291ACC    H0B27110   6.657   7.737  11.956
  291ACC    H0C27111   6.660   7.689  12.126
  291ACC    H0D27112   7.001   7.454  12.079
  291ACC    H0E27113   7.089   7.604  12.099
  291ACC    H0F27114   7.078   7.643  11.847
  291ACC    H0G27115   6.994   7.492  11.829
  291ACC    H0H27116   7.304   7.549  12.042
  291ACC    H0I27117   7.323   7.644  11.895
  291ACC    H0J27118   7.409   7.492  11.916
  291ACC    H0K27119   7.189   7.335  12.041
  291ACC    H0M27120   7.277   7.268  11.907
  291ACC    H0N27121   7.102   7.277  11.902
  291ACC    H0O27122   7.233   7.550  11.675
  291ACC    H0P27123   7.147   7.396  11.676
  291ACC    H0Q27124   7.320   7.400  11.706
  292ACC    C0027125   1.422  15.293   4.991
  292ACC    C0127126   1.542  15.200   4.994
  292ACC    O0227127   1.592  15.156   4.891
  292ACC    O0327128   1.585  15.172   5.118
  292ACC    C0427129   1.692  15.080   5.136
  292ACC    C0527130   1.827  15.149   5.103
  292ACC    N0627131   1.947  15.059   5.102
  292ACC    C0727132   1.967  14.991   5.233
  292ACC    C0827133   1.936  14.957   4.993
  292ACC    C0927134   2.067  15.143   5.074
  292ACC    H0A27135   1.393  15.313   4.888
  292ACC    H0B27136   1.447  15.388   5.038
  292ACC    H0C27137   1.338  15.248   5.043
  292ACC    H0D27138   1.673  14.993   5.073
  292ACC    H0E27139   1.689  15.045   5.239
  292ACC    H0F27140   1.841  15.231   5.174
  292ACC    H0G27141   1.819  15.197   5.005
  292ACC    H0H27142   1.887  14.920   5.256
  292ACC    H0I27143   1.971  15.062   5.316
  292ACC    H0J27144   2.059  14.933   5.236
  292ACC    H0K27145   1.857  14.884   5.011
  292ACC    H0M27146   2.029  14.899   4.982
  292ACC    H0N27147   1.915  15.002   4.896
  292ACC    H0O27148   2.082  15.221   5.150
  292ACC    H0P27149   2.060  15.195   4.978
  292ACC    H0Q27150   2.159  15.085   5.071
  293ACC    C0027151   2.824   1.464  15.564
  293ACC    C0127152   2.955   1.415  15.623
  293ACC    O0227153   3.050   1.382  15.552
  293ACC    O0327154   2.954   1.414  15.757
  293ACC    C0427155   3.067   1.364  15.828
  293ACC    C0527156   3.179   1.470  15.830
  293ACC    N0627157   3.309   1.426  15.890
  293ACC    C0727158   3.292   1.383  16.032
  293ACC    C0827159   3.370   1.315  15.811
  293ACC    C0927160   3.403   1.542  15.887
  293ACC    H0A27161   2.828   1.463  15.455
  293ACC    H0B27162   2.803   1.566  15.596
  293ACC    H0C27163   2.742   1.401  15.596
  293ACC    H0D27164   3.097   1.270  15.781
  293ACC    H0E27165   3.033   1.339  15.928
  293ACC    H0F27166   3.141   1.558  15.883
  293ACC    H0G27167   3.197   1.505  15.728
  293ACC    H0H27168   3.231   1.294  16.042
  293ACC    H0I27169   3.244   1.461  16.093
  293ACC    H0J27170   3.387   1.360  16.080
  293ACC    H0K27171   3.312   1.222  15.817
  293ACC    H0M27172   3.471   1.290  15.844
  293ACC    H0N27173   3.377   1.340  15.705
  293ACC    H0O27174   3.365   1.627  15.944
  293ACC    H0P27175   3.421   1.578  15.785
  293ACC    H0Q27176   3.501   1.518  15.929
  294ACC    C0027177  10.363   6.583  13.268
  294ACC    C0127178  10.513   6.563  13.276
  294ACC    O0227179  10.591   6.658  13.283
  294ACC    O0327180  10.548   6.434  13.275
  294ACC    C0427181  10.685   6.398  13.269
  294ACC    C0527182  10.750   6.415  13.409
  294ACC    N0627183  10.899   6.398  13.414
  294ACC    C0727184  10.939   6.261  13.369
  294ACC    C0827185  10.968   6.501  13.330
  294ACC    C0927186  10.942   6.416  13.556
  294ACC    H0A27187  10.339   6.690  13.265
  294ACC    H0B27188  10.314   6.539  13.354
  294ACC    H0C27189  10.324   6.537  13.177
  294ACC    H0D27190  10.732   6.458  13.192
  294ACC    H0E27191  10.690   6.294  13.235
  294ACC    H0F27192  10.701   6.345  13.477
  294ACC    H0G27193  10.725   6.514  13.447
  294ACC    H0H27194  10.917   6.244  13.263
  294ACC    H0I27195  10.887   6.183  13.425
  294ACC    H0J27196  11.046   6.243  13.381
  294ACC    H0K27197  10.951   6.486  13.223
  294ACC    H0M27198  11.076   6.499  13.344
  294ACC    H0N27199  10.933   6.602  13.354
  294ACC    H0O27200  10.896   6.343  13.622
  294ACC    H0P27201  10.916   6.515  13.594
  294ACC    H0Q27202  11.050   6.405  13.568
  295ACC    C0027203   0.072  13.892  10.629
  295ACC    C0127204   0.115  13.875  10.484
  295ACC    O0227205   0.198  13.949  10.432
  295ACC    O0327206   0.055  13.772  10.421
  295ACC    C0427207   0.083  13.752  10.283
  295ACC    C0527208   0.225  13.692  10.262
  295ACC    N0627209   0.276  13.694  10.121
  295ACC    C0727210   0.183  13.622  10.028
  295ACC    C0827211   0.300  13.833  10.074
  295ACC    C0927212   0.408  13.624  10.118
  295ACC    H0A27213   0.123  13.978  10.672
  295ACC    H0B27214   0.097  13.804  10.687
  295ACC    H0C27215  17.405  13.911  10.635
  295ACC    H0D27216   0.071  13.848  10.233
  295ACC    H0E27217   0.006  13.686  10.242
  295ACC    H0F27218   0.224  13.590  10.302
  295ACC    H0G27219   0.296  13.746  10.324
  295ACC    H0H27220   0.088  13.674  10.017
  295ACC    H0I27221   0.163  13.521  10.062
  295ACC    H0J27222   0.226  13.615   9.928
  295ACC    H0K27223   0.209  13.893  10.063
  295ACC    H0M27224   0.351  13.836   9.977
  295ACC    H0N27225   0.366  13.889  10.142
  295ACC    H0O27226   0.402  13.520  10.150
  295ACC    H0P27227   0.482  13.674  10.182
  295ACC    H0Q27228   0.453  13.624  10.018
  296ACC    C0027229  15.877  11.307  12.956
  296ACC    C0127230  15.893  11.271  12.809
  296ACC    O0227231  15.820  11.187  12.755
  296ACC    O0327232  15.990  11.340  12.748
  296ACC    C0427233  16.032  11.305  12.617
  296ACC    C0527234  15.930  11.353  12.511
  296ACC    N0627235  15.960  11.314  12.370
  296ACC    C0727236  16.089  11.371  12.323
  296ACC    C0827237  15.963  11.165  12.354
  296ACC    C0927238  15.850  11.367  12.283
  296ACC    H0A27239  15.806  11.240  13.004
  296ACC    H0B27240  15.841  11.409  12.966
  296ACC    H0C27241  15.972  11.298  13.007
  296ACC    H0D27242  16.047  11.196  12.615
  296ACC    H0E27243  16.130  11.350  12.602
  296ACC    H0F27244  15.922  11.462  12.520
  296ACC    H0G27245  15.831  11.315  12.539
  296ACC    H0H27246  16.175  11.330  12.376
  296ACC    H0I27247  16.094  11.480  12.336
  296ACC    H0J27248  16.107  11.351  12.217
  296ACC    H0K27249  16.048  11.119  12.404
  296ACC    H0M27250  15.970  11.135  12.249
  296ACC    H0N27251  15.873  11.117  12.395
  296ACC    H0O27252  15.843  11.476  12.289
  296ACC    H0P27253  15.753  11.327  12.311
  296ACC    H0Q27254  15.865  11.342  12.178
  297ACC    C0027255   6.746   8.115   1.755
  297ACC    C0127256   6.802   7.976   1.780
  297ACC    O0227257   6.879   7.922   1.701
  297ACC    O0327258   6.758   7.922   1.895
  297ACC    C0427259   6.793   7.788   1.928
  297ACC    C0527260   6.939   7.782   1.980
  297ACC    N0627261   6.994   7.645   2.005
  297ACC    C0727262   6.913   7.572   2.108
  297ACC    C0827263   7.000   7.565   1.879
  297ACC    C0927264   7.133   7.660   2.058
  297ACC    H0A27265   6.781   8.154   1.660
  297ACC    H0B27266   6.777   8.183   1.834
  297ACC    H0C27267   6.637   8.112   1.753
  297ACC    H0D27268   6.777   7.726   1.839
  297ACC    H0E27269   6.722   7.754   2.003
  297ACC    H0F27270   6.944   7.843   2.071
  297ACC    H0G27271   7.004   7.834   1.909
  297ACC    H0H27272   6.811   7.550   2.073
  297ACC    H0I27273   6.903   7.629   2.200
  297ACC    H0J27274   6.957   7.476   2.134
  297ACC    H0K27275   6.901   7.540   1.840
  297ACC    H0M27276   7.052   7.470   1.893
  297ACC    H0N27277   7.051   7.619   1.799
  297ACC    H0O27278   7.136   7.717   2.151
  297ACC    H0P27279   7.198   7.712   1.987
  297ACC    H0Q27280   7.180   7.564   2.078
  298ACC    C0027281   3.680  16.930   5.701
  298ACC    C0127282   3.619  16.824   5.790
  298ACC    O0227283   3.594  16.711   5.749
  298ACC    O0327284   3.598  16.867   5.916
  298ACC    C0427285   3.536  16.781   6.011
  298ACC    C0527286   3.639  16.678   6.065
  298ACC    N0627287   3.584  16.572   6.155
  298ACC    C0727288   3.518  16.631   6.275
  298ACC    C0827289   3.487  16.484   6.082
  298ACC    C0927290   3.697  16.487   6.201
  298ACC    H0A27291   3.696  16.891   5.600
  298ACC    H0B27292   3.775  16.964   5.741
  298ACC    H0C27293   3.613  17.016   5.693
  298ACC    H0D27294   3.450  16.734   5.963
  298ACC    H0E27295   3.497  16.844   6.090
  298ACC    H0F27296   3.718  16.734   6.115
  298ACC    H0G27297   3.689  16.630   5.979
  298ACC    H0H27298   3.428  16.688   6.250
  298ACC    H0I27299   3.584  16.699   6.329
  298ACC    H0J27300   3.486  16.554   6.346
  298ACC    H0K27301   3.396  16.537   6.053
  298ACC    H0M27302   3.456  16.399   6.141
  298ACC    H0N27303   3.530  16.444   5.989
  298ACC    H0O27304   3.772  16.544   6.256
  298ACC    H0P27305   3.750  16.439   6.118
  298ACC    H0Q27306   3.665  16.406   6.267
  299ACC    C0027307   1.865   8.540   1.544
  299ACC    C0127308   1.821   8.664   1.470
  299ACC    O0227309   1.880   8.772   1.481
  299ACC    O0327310   1.713   8.643   1.391
  299ACC    C0427311   1.648   8.753   1.331
  299ACC    C0527312   1.729   8.803   1.208
  299ACC    N0627313   1.679   8.930   1.146
  299ACC    C0727314   1.540   8.915   1.094
  299ACC    C0827315   1.685   9.044   1.243
  299ACC    C0927316   1.769   8.963   1.031
  299ACC    H0A27317   1.942   8.562   1.618
  299ACC    H0B27318   1.902   8.463   1.477
  299ACC    H0C27319   1.780   8.498   1.599
  299ACC    H0D27320   1.635   8.830   1.407
  299ACC    H0E27321   1.548   8.720   1.302
  299ACC    H0F27322   1.732   8.722   1.135
  299ACC    H0G27323   1.833   8.817   1.238
  299ACC    H0H27324   1.467   8.898   1.174
  299ACC    H0I27325   1.531   8.831   1.025
  299ACC    H0J27326   1.506   9.004   1.040
  299ACC    H0K27327   1.612   9.034   1.324
  299ACC    H0M27328   1.664   9.140   1.196
  299ACC    H0N27329   1.783   9.052   1.290
  299ACC    H0O27330   1.770   8.884   0.956
  299ACC    H0P27331   1.872   8.978   1.063
  299ACC    H0Q27332   1.739   9.055   0.980
  300ACC    C0027333   6.865   2.847  11.770
  300ACC    C0127334   6.748   2.807  11.858
  300ACC    O0227335   6.761   2.786  11.979
  300ACC    O0327336   6.633   2.800  11.790
  300ACC    C0427337   6.514   2.758  11.856
  300ACC    C0527338   6.455   2.874  11.939
  300ACC    N0627339   6.338   2.839  12.026
  300ACC    C0727340   6.225   2.786  11.945
  300ACC    C0827341   6.377   2.740  12.131
  300ACC    C0927342   6.293   2.964  12.094
  300ACC    H0A27343   6.958   2.853  11.827
  300ACC    H0B27344   6.847   2.944  11.724
  300ACC    H0C27345   6.879   2.774  11.690
  300ACC    H0D27346   6.538   2.669  11.915
  300ACC    H0E27347   6.445   2.726  11.777
  300ACC    H0F27348   6.429   2.954  11.869
  300ACC    H0G27349   6.535   2.916  12.001
  300ACC    H0H27350   6.248   2.690  11.897
  300ACC    H0I27351   6.196   2.854  11.865
  300ACC    H0J27352   6.135   2.769  12.005
  300ACC    H0K27353   6.401   2.642  12.089
  300ACC    H0M27354   6.297   2.724  12.203
  300ACC    H0N27355   6.465   2.773  12.187
  300ACC    H0O27356   6.262   3.041  12.023
  300ACC    H0P27357   6.372   3.008  12.156
  300ACC    H0Q27358   6.208   2.947  12.160
  301ACC    C0027359   9.904   6.409   9.386
  301ACC    C0127360   9.829   6.294   9.451
  301ACC    O0227361   9.852   6.259   9.566
  301ACC    O0327362   9.736   6.240   9.370
  301ACC    C0427363   9.667   6.123   9.411
  301ACC    C0527364   9.558   6.157   9.516
  301ACC    N0627365   9.487   6.040   9.576
  301ACC    C0727366   9.414   5.961   9.473
  301ACC    C0827367   9.581   5.950   9.650
  301ACC    C0927368   9.388   6.093   9.674
  301ACC    H0A27369   9.984   6.444   9.452
  301ACC    H0B27370   9.837   6.492   9.365
  301ACC    H0C27371   9.950   6.376   9.293
  301ACC    H0D27372   9.740   6.052   9.448
  301ACC    H0E27373   9.623   6.078   9.321
  301ACC    H0F27374   9.487   6.226   9.469
  301ACC    H0G27375   9.605   6.216   9.596
  301ACC    H0H27376   9.481   5.912   9.403
  301ACC    H0I27377   9.346   6.023   9.414
  301ACC    H0J27378   9.354   5.881   9.518
  301ACC    H0K27379   9.650   5.897   9.583
  301ACC    H0M27380   9.530   5.872   9.706
  301ACC    H0N27381   9.644   6.005   9.721
  301ACC    H0O27382   9.315   6.160   9.627
  301ACC    H0P27383   9.436   6.151   9.753
  301ACC    H0Q27384   9.331   6.014   9.723
  302ACC    C0027385   8.682  10.727   1.580
  302ACC    C0127386   8.751  10.857   1.546
  302ACC    O0227387   8.759  10.898   1.430
  302ACC    O0327388   8.801  10.921   1.654
  302ACC    C0427389   8.876  11.040   1.637
  302ACC    C0527390   8.781  11.160   1.610
  302ACC    N0627391   8.849  11.290   1.577
  302ACC    C0727392   8.939  11.334   1.687
  302ACC    C0827393   8.927  11.279   1.449
  302ACC    C0927394   8.743  11.393   1.557
  302ACC    H0A27395   8.645  10.678   1.490
  302ACC    H0B27396   8.597  10.745   1.646
  302ACC    H0C27397   8.751  10.659   1.630
  302ACC    H0D27398   8.948  11.024   1.557
  302ACC    H0E27399   8.934  11.055   1.728
  302ACC    H0F27400   8.716  11.171   1.697
  302ACC    H0G27401   8.714  11.133   1.528
  302ACC    H0H27402   9.024  11.268   1.701
  302ACC    H0I27403   8.886  11.340   1.783
  302ACC    H0J27404   8.980  11.434   1.668
  302ACC    H0K27405   9.014  11.213   1.458
  302ACC    H0M27406   8.965  11.376   1.416
  302ACC    H0N27407   8.866  11.239   1.367
  302ACC    H0O27408   8.682  11.406   1.647
  302ACC    H0P27409   8.674  11.366   1.477
  302ACC    H0Q27410   8.784  11.491   1.533
  303ACC    C0027411   9.297   1.125  14.225
  303ACC    C0127412   9.434   1.080  14.176
  303ACC    O0227413   9.453   0.967  14.131
  303ACC    O0327414   9.528   1.175  14.186
  303ACC    C0427415   9.662   1.147  14.147
  303ACC    C0527416   9.672   1.151  13.993
  303ACC    N0627417   9.801   1.102  13.935
  303ACC    C0727418   9.918   1.180  13.987
  303ACC    C0827419   9.820   0.957  13.962
  303ACC    C0927420   9.795   1.121  13.787
  303ACC    H0A27421   9.223   1.047  14.210
  303ACC    H0B27422   9.265   1.214  14.171
  303ACC    H0C27423   9.301   1.148  14.331
  303ACC    H0D27424   9.689   1.050  14.189
  303ACC    H0E27425   9.726   1.221  14.194
  303ACC    H0F27426   9.652   1.254  13.962
  303ACC    H0G27427   9.590   1.093  13.950
  303ACC    H0H27428   9.934   1.165  14.094
  303ACC    H0I27429   9.905   1.287  13.972
  303ACC    H0J27430  10.011   1.151  13.938
  303ACC    H0K27431   9.837   0.936  14.068
  303ACC    H0M27432   9.906   0.915  13.909
  303ACC    H0N27433   9.733   0.898  13.933
  303ACC    H0O27434   9.781   1.225  13.759
  303ACC    H0P27435   9.711   1.065  13.742
  303ACC    H0Q27436   9.885   1.086  13.736
  304ACC    C0027437   4.762  10.252   2.367
  304ACC    C0127438   4.847  10.143   2.430
  304ACC    O0227439   4.888  10.151   2.546
  304ACC    O0327440   4.869  10.039   2.347
  304ACC    C0427441   4.953   9.932   2.389
  304ACC    C0527442   4.878   9.839   2.488
  304ACC    N0627443   4.959   9.726   2.544
  304ACC    C0727444   5.008   9.636   2.437
  304ACC    C0827445   5.075   9.775   2.624
  304ACC    C0927446   4.871   9.647   2.635
  304ACC    H0A27447   4.751  10.336   2.436
  304ACC    H0B27448   4.663  10.215   2.341
  304ACC    H0C27449   4.810  10.290   2.277
  304ACC    H0D27450   5.043   9.975   2.433
  304ACC    H0E27451   4.984   9.878   2.300
  304ACC    H0F27452   4.789   9.801   2.438
  304ACC    H0G27453   4.840   9.900   2.571
  304ACC    H0H27454   5.089   9.680   2.378
  304ACC    H0I27455   4.930   9.606   2.367
  304ACC    H0J27456   5.050   9.544   2.478
  304ACC    H0K27457   5.151   9.825   2.563
  304ACC    H0M27458   5.129   9.693   2.673
  304ACC    H0N27459   5.045   9.846   2.702
  304ACC    H0O27460   4.786   9.604   2.582
  304ACC    H0P27461   4.831   9.707   2.717
  304ACC    H0Q27462   4.925   9.563   2.681
  305ACC    C0027463   0.901   8.816   2.752
  305ACC    C0127464   0.818   8.935   2.708
  305ACC    O0227465   0.697   8.941   2.726
  305ACC    O0327466   0.894   9.029   2.652
  305ACC    C0427467   0.838   9.153   2.611
  305ACC    C0527468   0.809   9.243   2.734
  305ACC    N0627469   0.740   9.372   2.704
  305ACC    C0727470   0.822   9.456   2.612
  305ACC    C0827471   0.605   9.347   2.646
  305ACC    C0927472   0.723   9.446   2.832
  305ACC    H0A27473   0.838   8.738   2.796
  305ACC    H0B27474   0.976   8.848   2.824
  305ACC    H0C27475   0.954   8.774   2.665
  305ACC    H0D27476   0.751   9.133   2.550
  305ACC    H0E27477   0.914   9.199   2.547
  305ACC    H0F27478   0.905   9.263   2.783
  305ACC    H0G27479   0.753   9.185   2.808
  305ACC    H0H27480   0.833   9.411   2.513
  305ACC    H0I27481   0.923   9.470   2.650
  305ACC    H0J27482   0.779   9.555   2.597
  305ACC    H0K27483   0.609   9.303   2.546
  305ACC    H0M27484   0.546   9.438   2.637
  305ACC    H0N27485   0.547   9.277   2.708
  305ACC    H0O27486   0.820   9.469   2.878
  305ACC    H0P27487   0.666   9.389   2.906
  305ACC    H0Q27488   0.672   9.542   2.819
  306ACC    C0027489   5.849   2.733  16.640
  306ACC    C0127490   5.795   2.870  16.602
  306ACC    O0227491   5.840   2.973  16.652
  306ACC    O0327492   5.698   2.865  16.510
  306ACC    C0427493   5.627   2.983  16.476
  306ACC    C0527494   5.713   3.075  16.386
  306ACC    N0627495   5.656   3.210  16.357
  306ACC    C0727496   5.525   3.200  16.285
  306ACC    C0827497   5.638   3.289  16.482
  306ACC    C0927498   5.752   3.283  16.269
  306ACC    H0A27499   5.921   2.742  16.722
  306ACC    H0B27500   5.898   2.686  16.555
  306ACC    H0C27501   5.767   2.669  16.674
  306ACC    H0D27502   5.598   3.032  16.570
  306ACC    H0E27503   5.535   2.953  16.427
  306ACC    H0F27504   5.733   3.021  16.293
  306ACC    H0G27505   5.811   3.088  16.432
  306ACC    H0H27506   5.447   3.155  16.347
  306ACC    H0I27507   5.532   3.139  16.195
  306ACC    H0J27508   5.487   3.298  16.255
  306ACC    H0K27509   5.560   3.250  16.547
  306ACC    H0M27510   5.610   3.393  16.463
  306ACC    H0N27511   5.729   3.292  16.543
  306ACC    H0O27512   5.770   3.231  16.175
  306ACC    H0P27513   5.849   3.295  16.317
  306ACC    H0Q27514   5.717   3.383  16.243
  307ACC    C0027515   6.284   1.836  16.662
  307ACC    C0127516   6.142   1.830  16.608
  307ACC    O0227517   6.112   1.873  16.497
  307ACC    O0327518   6.056   1.773  16.694
  307ACC    C0427519   5.917   1.772  16.665
  307ACC    C0527520   5.883   1.663  16.560
  307ACC    N0627521   5.741   1.659  16.513
  307ACC    C0727522   5.646   1.634  16.626
  307ACC    C0827523   5.704   1.786  16.444
  307ACC    C0927524   5.728   1.548  16.415
  307ACC    H0A27525   6.348   1.888  16.591
  307ACC    H0B27526   6.322   1.736  16.678
  307ACC    H0C27527   6.285   1.890  16.756
  307ACC    H0D27528   5.888   1.872  16.633
  307ACC    H0E27529   5.865   1.754  16.760
  307ACC    H0F27530   5.912   1.566  16.603
  307ACC    H0G27531   5.949   1.676  16.474
  307ACC    H0H27532   5.644   1.717  16.698
  307ACC    H0I27533   5.672   1.544  16.682
  307ACC    H0J27534   5.543   1.622  16.591
  307ACC    H0K27535   5.700   1.872  16.512
  307ACC    H0M27536   5.606   1.781  16.397
  307ACC    H0N27537   5.775   1.812  16.365
  307ACC    H0O27538   5.752   1.451  16.459
  307ACC    H0P27539   5.793   1.561  16.329
  307ACC    H0Q27540   5.626   1.539  16.376
  308ACC    C0027541   1.315   0.143   2.119
  308ACC    C0127542   1.390   0.264   2.066
  308ACC    O0227543   1.405   0.365   2.134
  308ACC    O0327544   1.438   0.247   1.942
  308ACC    C0427545   1.493   0.358   1.872
  308ACC    C0527546   1.635   0.393   1.925
  308ACC    N0627547   1.699   0.514   1.864
  308ACC    C0727548   1.717   0.499   1.717
  308ACC    C0827549   1.618   0.637   1.891
  308ACC    C0927550   1.833   0.532   1.927
  308ACC    H0A27551   1.269   0.167   2.215
  308ACC    H0B27552   1.383   0.059   2.133
  308ACC    H0C27553   1.236   0.114   2.050
  308ACC    H0D27554   1.424   0.442   1.882
  308ACC    H0E27555   1.495   0.332   1.766
  308ACC    H0F27556   1.698   0.305   1.911
  308ACC    H0G27557   1.629   0.406   2.033
  308ACC    H0H27558   1.622   0.496   1.663
  308ACC    H0I27559   1.772   0.408   1.691
  308ACC    H0J27560   1.773   0.583   1.674
  308ACC    H0K27561   1.523   0.639   1.838
  308ACC    H0M27562   1.669   0.729   1.860
  308ACC    H0N27563   1.595   0.649   1.997
  308ACC    H0O27564   1.898   0.445   1.911
  308ACC    H0P27565   1.825   0.546   2.035
  308ACC    H0Q27566   1.886   0.619   1.888
  309ACC    C0027567  16.556   3.535  13.985
  309ACC    C0127568  16.457   3.556  13.871
  309ACC    O0227569  16.398   3.662  13.854
  309ACC    O0327570  16.443   3.447  13.793
  309ACC    C0427571  16.359   3.454  13.678
  309ACC    C0527572  16.437   3.520  13.561
  309ACC    N0627573  16.356   3.551  13.439
  309ACC    C0727574  16.285   3.431  13.387
  309ACC    C0827575  16.259   3.661  13.466
  309ACC    C0927576  16.450   3.599  13.332
  309ACC    H0A27577  16.578   3.629  14.035
  309ACC    H0B27578  16.650   3.494  13.949
  309ACC    H0C27579  16.515   3.466  14.060
  309ACC    H0D27580  16.268   3.509  13.704
  309ACC    H0E27581  16.329   3.352  13.653
  309ACC    H0F27582  16.521   3.455  13.537
  309ACC    H0G27583  16.484   3.612  13.598
  309ACC    H0H27584  16.209   3.395  13.456
  309ACC    H0I27585  16.354   3.348  13.370
  309ACC    H0J27586  16.235   3.450  13.292
  309ACC    H0K27587  16.182   3.634  13.538
  309ACC    H0M27588  16.206   3.694  13.376
  309ACC    H0N27589  16.309   3.750  13.506
  309ACC    H0O27590  16.524   3.524  13.305
  309ACC    H0P27591  16.505   3.688  13.363
  309ACC    H0Q27592  16.398   3.627  13.240
  310ACC    C0027593   0.117  13.686   7.404
  310ACC    C0127594   0.164  13.541   7.397
  310ACC    O0227595   0.172  13.481   7.290
  310ACC    O0327596   0.193  13.489   7.518
  310ACC    C0427597   0.239  13.355   7.527
  310ACC    C0527598   0.388  13.348   7.486
  310ACC    N0627599   0.447  13.210   7.478
  310ACC    C0727600   0.436  13.137   7.607
  310ACC    C0827601   0.381  13.131   7.369
  310ACC    C0927602   0.592  13.225   7.444
  310ACC    H0A27603   0.097  13.724   7.304
  310ACC    H0B27604   0.195  13.749   7.448
  310ACC    H0C27605   0.027  13.694   7.463
  310ACC    H0D27606   0.175  13.292   7.464
  310ACC    H0E27607   0.224  13.322   7.630
  310ACC    H0F27608   0.445  13.410   7.557
  310ACC    H0G27609   0.400  13.398   7.390
  310ACC    H0H27610   0.333  13.115   7.634
  310ACC    H0I27611   0.479  13.195   7.690
  310ACC    H0J27612   0.488  13.041   7.605
  310ACC    H0K27613   0.277  13.106   7.392
  310ACC    H0M27614   0.432  13.035   7.352
  310ACC    H0N27615   0.381  13.184   7.274
  310ACC    H0O27616   0.647  13.282   7.519
  310ACC    H0P27617   0.607  13.276   7.349
  310ACC    H0Q27618   0.642  13.128   7.435
  311ACC    C0027619  12.545   1.081   6.753
  311ACC    C0127620  12.655   1.172   6.702
  311ACC    O0227621  12.764   1.181   6.759
  311ACC    O0327622  12.621   1.238   6.590
  311ACC    C0427623  12.711   1.333   6.533
  311ACC    C0527624  12.823   1.260   6.455
  311ACC    N0627625  12.931   1.348   6.399
  311ACC    C0727626  12.876   1.450   6.305
  311ACC    C0827627  13.007   1.416   6.509
  311ACC    C0927628  13.027   1.262   6.324
  311ACC    H0A27629  12.576   1.031   6.844
  311ACC    H0B27630  12.520   1.006   6.678
  311ACC    H0C27631  12.456   1.140   6.775
  311ACC    H0D27632  12.750   1.395   6.614
  311ACC    H0E27633  12.652   1.397   6.468
  311ACC    H0F27634  12.776   1.203   6.374
  311ACC    H0G27635  12.869   1.185   6.520
  311ACC    H0H27636  12.812   1.523   6.355
  311ACC    H0I27637  12.818   1.405   6.225
  311ACC    H0J27638  12.956   1.508   6.257
  311ACC    H0K27639  12.947   1.490   6.563
  311ACC    H0M27640  13.094   1.470   6.472
  311ACC    H0N27641  13.044   1.345   6.583
  311ACC    H0O27642  12.979   1.210   6.241
  311ACC    H0P27643  13.073   1.186   6.387
  311ACC    H0Q27644  13.110   1.320   6.281
  312ACC    C0027645  14.873  12.059  12.198
  312ACC    C0127646  14.732  12.003  12.204
  312ACC    O0227647  14.669  11.976  12.101
  312ACC    O0327648  14.687  11.984  12.329
  312ACC    C0427649  14.552  11.945  12.350
  312ACC    C0527650  14.534  11.794  12.320
  312ACC    N0627651  14.393  11.743  12.325
  312ACC    C0727652  14.331  11.765  12.459
  312ACC    C0827653  14.309  11.808  12.219
  312ACC    C0927654  14.396  11.596  12.297
  312ACC    H0A27655  14.903  12.077  12.095
  312ACC    H0B27656  14.943  11.990  12.244
  312ACC    H0C27657  14.877  12.154  12.252
  312ACC    H0D27658  14.489  12.008  12.287
  312ACC    H0E27659  14.527  11.969  12.453
  312ACC    H0F27660  14.597  11.738  12.390
  312ACC    H0G27661  14.576  11.772  12.222
  312ACC    H0H27662  14.317  11.870  12.482
  312ACC    H0I27663  14.392  11.722  12.539
  312ACC    H0J27664  14.232  11.719  12.466
  312ACC    H0K27665  14.292  11.914  12.238
  312ACC    H0M27666  14.210  11.762  12.212
  312ACC    H0N27667  14.355  11.800  12.120
  312ACC    H0O27668  14.456  11.542  12.371
  312ACC    H0P27669  14.439  11.574  12.199
  312ACC    H0Q27670  14.296  11.552  12.298
  313ACC    C0027671   3.921   2.464   5.477
  313ACC    C0127672   3.809   2.489   5.576
  313ACC    O0227673   3.784   2.410   5.668
  313ACC    O0327674   3.744   2.604   5.552
  313ACC    C0427675   3.635   2.643   5.635
  313ACC    C0527676   3.689   2.709   5.764
  313ACC    N0627677   3.587   2.742   5.869
  313ACC    C0727678   3.480   2.833   5.816
  313ACC    C0827679   3.524   2.618   5.923
  313ACC    C0927680   3.656   2.812   5.981
  313ACC    H0A27681   3.978   2.374   5.503
  313ACC    H0B27682   3.990   2.548   5.474
  313ACC    H0C27683   3.880   2.450   5.376
  313ACC    H0D27684   3.573   2.555   5.655
  313ACC    H0E27685   3.574   2.712   5.577
  313ACC    H0F27686   3.743   2.800   5.734
  313ACC    H0G27687   3.766   2.645   5.807
  313ACC    H0H27688   3.419   2.786   5.738
  313ACC    H0I27689   3.522   2.924   5.773
  313ACC    H0J27690   3.411   2.864   5.894
  313ACC    H0K27691   3.462   2.567   5.850
  313ACC    H0M27692   3.458   2.639   6.008
  313ACC    H0N27693   3.599   2.546   5.958
  313ACC    H0O27694   3.703   2.905   5.948
  313ACC    H0P27695   3.736   2.751   6.025
  313ACC    H0Q27696   3.588   2.838   6.062
  314ACC    C0027697   6.742  12.524  11.227
  314ACC    C0127698   6.853  12.625  11.208
  314ACC    O0227699   6.971  12.592  11.195
  314ACC    O0327700   6.809  12.752  11.208
  314ACC    C0427701   6.902  12.859  11.192
  314ACC    C0527702   6.941  12.873  11.043
  314ACC    N0627703   7.052  12.970  11.013
  314ACC    C0727704   7.019  13.107  11.062
  314ACC    C0827705   7.180  12.923  11.073
  314ACC    C0927706   7.069  12.976  10.865
  314ACC    H0A27707   6.782  12.422  11.221
  314ACC    H0B27708   6.667  12.536  11.150
  314ACC    H0C27709   6.696  12.536  11.325
  314ACC    H0D27710   6.988  12.839  11.257
  314ACC    H0E27711   6.854  12.949  11.229
  314ACC    H0F27712   6.851  12.899  10.987
  314ACC    H0G27713   6.969  12.774  11.004
  314ACC    H0H27714   7.012  13.112  11.171
  314ACC    H0I27715   6.923  13.142  11.022
  314ACC    H0J27716   7.094  13.180  11.031
  314ACC    H0K27717   7.180  12.924  11.182
  314ACC    H0M27718   7.265  12.985  11.042
  314ACC    H0N27719   7.205  12.821  11.043
  314ACC    H0O27720   6.978  13.009  10.814
  314ACC    H0P27721   7.094  12.878  10.822
  314ACC    H0Q27722   7.149  13.044  10.835
  315ACC    C0027723  13.938  16.407  15.676
  315ACC    C0127724  14.076  16.464  15.702
  315ACC    O0227725  14.117  16.484  15.817
  315ACC    O0327726  14.145  16.488  15.590
  315ACC    C0427727  14.274  16.549  15.597
  315ACC    C0527728  14.380  16.444  15.640
  315ACC    N0627729  14.519  16.498  15.658
  315ACC    C0727730  14.571  16.554  15.531
  315ACC    C0827731  14.524  16.603  15.764
  315ACC    C0927732  14.609  16.386  15.698
  315ACC    H0A27733  13.885  16.391  15.770
  315ACC    H0B27734  13.946  16.311  15.624
  315ACC    H0C27735  13.881  16.476  15.614
  315ACC    H0D27736  14.269  16.634  15.665
  315ACC    H0E27737  14.295  16.590  15.498
  315ACC    H0F27738  14.380  16.364  15.565
  315ACC    H0G27739  14.347  16.397  15.733
  315ACC    H0H27740  14.512  16.638  15.497
  315ACC    H0I27741  14.573  16.482  15.448
  315ACC    H0J27742  14.673  16.593  15.541
  315ACC    H0K27743  14.473  16.695  15.733
  315ACC    H0M27744  14.626  16.634  15.786
  315ACC    H0N27745  14.479  16.570  15.858
  315ACC    H0O27746  14.613  16.308  15.622
  315ACC    H0P27747  14.577  16.338  15.791
  315ACC    H0Q27748  14.711  16.420  15.713
  316ACC    C0027749   0.792   7.176   8.385
  316ACC    C0127750   0.793   7.025   8.403
  316ACC    O0227751   0.806   6.973   8.514
  316ACC    O0327752   0.776   6.958   8.288
  316ACC    C0427753   0.785   6.816   8.287
  316ACC    C0527754   0.654   6.754   8.343
  316ACC    N0627755   0.654   6.605   8.359
  316ACC    C0727756   0.680   6.535   8.230
  316ACC    C0827757   0.756   6.562   8.460
  316ACC    C0927758   0.520   6.564   8.409
  316ACC    H0A27759   0.809   7.225   8.481
  316ACC    H0B27760   0.697   7.209   8.345
  316ACC    H0C27761   0.872   7.206   8.317
  316ACC    H0D27762   0.872   6.787   8.345
  316ACC    H0E27763   0.803   6.785   8.185
  316ACC    H0F27764   0.572   6.785   8.277
  316ACC    H0G27765   0.631   6.800   8.439
  316ACC    H0H27766   0.781   6.553   8.192
  316ACC    H0I27767   0.610   6.566   8.152
  316ACC    H0J27768   0.670   6.426   8.239
  316ACC    H0K27769   0.858   6.579   8.427
  316ACC    H0M27770   0.748   6.456   8.484
  316ACC    H0N27771   0.744   6.616   8.555
  316ACC    H0O27772   0.440   6.591   8.340
  316ACC    H0P27773   0.495   6.610   8.505
  316ACC    H0Q27774   0.512   6.456   8.424
  317ACC    C0027775  10.449   9.783  15.630
  317ACC    C0127776  10.591   9.793  15.579
  317ACC    O0227777  10.688   9.796  15.655
  317ACC    O0327778  10.598   9.797  15.445
  317ACC    C0427779  10.725   9.790  15.381
  317ACC    C0527780  10.772   9.643  15.378
  317ACC    N0627781  10.912   9.620  15.330
  317ACC    C0727782  10.931   9.674  15.193
  317ACC    C0827783  11.010   9.679  15.426
  317ACC    C0927784  10.935   9.473  15.326
  317ACC    H0A27785  10.447   9.773  15.738
  317ACC    H0B27786  10.400   9.695  15.587
  317ACC    H0C27787  10.391   9.871  15.602
  317ACC    H0D27788  10.794   9.857  15.433
  317ACC    H0E27789  10.712   9.830  15.280
  317ACC    H0F27790  10.700   9.586  15.318
  317ACC    H0G27791  10.760   9.599  15.478
  317ACC    H0H27792  10.924   9.783  15.190
  317ACC    H0I27793  10.856   9.634  15.124
  317ACC    H0J27794  11.029   9.647  15.152
  317ACC    H0K27795  11.006   9.787  15.429
  317ACC    H0M27796  11.113   9.652  15.400
  317ACC    H0N27797  10.992   9.643  15.527
  317ACC    H0O27798  10.864   9.422  15.259
  317ACC    H0P27799  10.920   9.426  15.423
  317ACC    H0Q27800  11.035   9.445  15.292
  318ACC    C0027801   7.456   2.004  16.058
  318ACC    C0127802   7.428   1.959  16.200
  318ACC    O0227803   7.316   1.922  16.235
  318ACC    O0327804   7.537   1.961  16.278
  318ACC    C0427805   7.525   1.932  16.417
  318ACC    C0527806   7.511   1.780  16.440
  318ACC    N0627807   7.485   1.738  16.582
  318ACC    C0727808   7.595   1.780  16.673
  318ACC    C0827809   7.355   1.793  16.631
  318ACC    C0927810   7.476   1.589  16.584
  318ACC    H0A27811   7.364   2.006  16.000
  318ACC    H0B27812   7.527   1.938  16.009
  318ACC    H0C27813   7.498   2.105  16.059
  318ACC    H0D27814   7.440   1.989  16.456
  318ACC    H0E27815   7.614   1.972  16.466
  318ACC    H0F27816   7.602   1.732  16.402
  318ACC    H0G27817   7.430   1.742  16.376
  318ACC    H0H27818   7.602   1.889  16.683
  318ACC    H0I27819   7.693   1.745  16.638
  318ACC    H0J27820   7.582   1.741  16.774
  318ACC    H0K27821   7.356   1.901  16.643
  318ACC    H0M27822   7.327   1.752  16.728
  318ACC    H0N27823   7.272   1.770  16.562
  318ACC    H0O27824   7.568   1.541  16.550
  318ACC    H0P27825   7.396   1.551  16.520
  318ACC    H0Q27826   7.457   1.550  16.684
  319ACC    C0027827  16.801   6.026   2.728
  319ACC    C0127828  16.836   5.908   2.818
  319ACC    O0227829  16.880   5.924   2.932
  319ACC    O0327830  16.811   5.790   2.759
  319ACC    C0427831  16.850   5.669   2.824
  319ACC    C0527832  16.749   5.634   2.936
  319ACC    N0627833  16.785   5.515   3.020
  319ACC    C0727834  16.795   5.391   2.938
  319ACC    C0827835  16.913   5.538   3.093
  319ACC    C0927836  16.677   5.497   3.121
  319ACC    H0A27837  16.828   6.120   2.777
  319ACC    H0B27838  16.695   6.027   2.706
  319ACC    H0C27839  16.856   6.020   2.635
  319ACC    H0D27840  16.952   5.682   2.860
  319ACC    H0E27841  16.852   5.592   2.747
  319ACC    H0F27842  16.651   5.620   2.890
  319ACC    H0G27843  16.737   5.722   3.001
  319ACC    H0H27844  16.877   5.395   2.866
  319ACC    H0I27845  16.704   5.374   2.879
  319ACC    H0J27846  16.811   5.302   2.999
  319ACC    H0K27847  17.000   5.541   3.027
  319ACC    H0M27848  16.934   5.459   3.166
  319ACC    H0N27849  16.913   5.632   3.148
  319ACC    H0O27850  16.579   5.479   3.074
  319ACC    H0P27851  16.665   5.584   3.186
  319ACC    H0Q27852  16.695   5.411   3.187
  320ACC    C0027853   3.545   2.733   2.769
  320ACC    C0127854   3.643   2.756   2.655
  320ACC    O0227855   3.741   2.830   2.669
  320ACC    O0327856   3.613   2.686   2.545
  320ACC    C0427857   3.679   2.715   2.422
  320ACC    C0527858   3.824   2.661   2.421
  320ACC    N0627859   3.905   2.697   2.300
  320ACC    C0727860   3.844   2.642   2.176
  320ACC    C0827861   3.919   2.845   2.287
  320ACC    C0927862   4.041   2.637   2.315
  320ACC    H0A27863   3.563   2.804   2.849
  320ACC    H0B27864   3.555   2.632   2.808
  320ACC    H0C27865   3.443   2.747   2.732
  320ACC    H0D27866   3.674   2.823   2.408
  320ACC    H0E27867   3.619   2.670   2.343
  320ACC    H0F27868   3.819   2.552   2.432
  320ACC    H0G27869   3.876   2.696   2.510
  320ACC    H0H27870   3.746   2.684   2.152
  320ACC    H0I27871   3.832   2.534   2.180
  320ACC    H0J27872   3.907   2.662   2.089
  320ACC    H0K27873   3.826   2.895   2.261
  320ACC    H0M27874   3.990   2.873   2.209
  320ACC    H0N27875   3.954   2.892   2.380
  320ACC    H0O27876   4.036   2.528   2.323
  320ACC    H0P27877   4.093   2.675   2.403
  320ACC    H0Q27878   4.104   2.658   2.228
  321ACC    C0027879   6.618   5.995  12.244
  321ACC    C0127880   6.685   5.918  12.355
  321ACC    O0227881   6.657   5.800  12.380
  321ACC    O0327882   6.778   5.990  12.421
  321ACC    C0427883   6.840   5.938  12.537
  321ACC    C0527884   6.947   5.833  12.499
  321ACC    N0627885   7.010   5.760  12.614
  321ACC    C0727886   7.081   5.854  12.706
  321ACC    C0827887   6.908   5.682  12.690
  321ACC    C0927888   7.110   5.665  12.558
  321ACC    H0A27889   6.538   5.936  12.198
  321ACC    H0B27890   6.689   6.022  12.166
  321ACC    H0C27891   6.573   6.086  12.283
  321ACC    H0D27892   6.761   5.898  12.601
  321ACC    H0E27893   6.883   6.023  12.591
  321ACC    H0F27894   7.023   5.885  12.439
  321ACC    H0G27895   6.902   5.761  12.431
  321ACC    H0H27896   7.013   5.923  12.757
  321ACC    H0I27897   7.154   5.916  12.653
  321ACC    H0J27898   7.135   5.802  12.784
  321ACC    H0K27899   6.838   5.746  12.745
  321ACC    H0M27900   6.953   5.616  12.765
  321ACC    H0N27901   6.848   5.619  12.624
  321ACC    H0O27902   7.188   5.716  12.500
  321ACC    H0P27903   7.064   5.592  12.490
  321ACC    H0Q27904   7.161   5.607  12.636
  322ACC    C0027905   2.987  15.863  14.993
  322ACC    C0127906   3.063  15.961  15.081
  322ACC    O0227907   3.011  16.065  15.122
  322ACC    O0327908   3.189  15.922  15.108
  322ACC    C0427909   3.274  16.008  15.182
  322ACC    C0527910   3.239  16.002  15.333
  322ACC    N0627911   3.312  16.100  15.420
  322ACC    C0727912   3.460  16.081  15.411
  322ACC    C0827913   3.276  16.240  15.386
  322ACC    C0927914   3.270  16.075  15.561
  322ACC    H0A27915   2.886  15.900  14.975
  322ACC    H0B27916   2.980  15.766  15.042
  322ACC    H0C27917   3.037  15.851  14.897
  322ACC    H0D27918   3.265  16.109  15.140
  322ACC    H0E27919   3.376  15.976  15.163
  322ACC    H0F27920   3.256  15.900  15.367
  322ACC    H0G27921   3.132  16.018  15.344
  322ACC    H0H27922   3.499  16.107  15.313
  322ACC    H0I27923   3.490  15.978  15.432
  322ACC    H0J27924   3.513  16.145  15.483
  322ACC    H0K27925   3.312  16.271  15.287
  322ACC    H0M27926   3.318  16.312  15.457
  322ACC    H0N27927   3.168  16.256  15.385
  322ACC    H0O27928   3.293  15.973  15.595
  322ACC    H0P27929   3.162  16.088  15.575
  322ACC    H0Q27930   3.319  16.143  15.632
  323ACC    C0027931   2.188  14.564   0.300
  323ACC    C0127932   2.084  14.453   0.294
  323ACC    O0227933   2.039  14.413   0.187
  323ACC    O0327934   2.051  14.406   0.415
  323ACC    C0427935   1.945  14.313   0.428
  323ACC    C0527936   1.992  14.171   0.387
  323ACC    N0627937   1.886  14.065   0.385
  323ACC    C0727938   1.824  14.047   0.520
  323ACC    C0827939   1.781  14.096   0.284
  323ACC    C0927940   1.951  13.936   0.346
  323ACC    H0A27941   2.208  14.603   0.200
  323ACC    H0B27942   2.281  14.528   0.343
  323ACC    H0C27943   2.151  14.646   0.362
  323ACC    H0D27944   1.861  14.348   0.367
  323ACC    H0E27945   1.912  14.316   0.532
  323ACC    H0F27946   2.074  14.143   0.455
  323ACC    H0G27947   2.039  14.177   0.288
  323ACC    H0H27948   1.767  14.135   0.552
  323ACC    H0I27949   1.899  14.028   0.597
  323ACC    H0J27950   1.754  13.964   0.522
  323ACC    H0K27951   1.720  14.183   0.312
  323ACC    H0M27952   1.710  14.014   0.272
  323ACC    H0N27953   1.823  14.117   0.186
  323ACC    H0O27954   2.029  13.906   0.416
  323ACC    H0P27955   1.997  13.942   0.247
  323ACC    H0Q27956   1.879  13.853   0.342
  324ACC    C0027957   0.725  11.059  13.783
  324ACC    C0127958   0.739  11.207  13.812
  324ACC    O0227959   0.732  11.292  13.724
  324ACC    O0327960   0.760  11.231  13.943
  324ACC    C0427961   0.784  11.364  13.988
  324ACC    C0527962   0.652  11.446  13.989
  324ACC    N0627963   0.668  11.593  14.014
  324ACC    C0727964   0.736  11.622  14.143
  324ACC    C0827965   0.742  11.658  13.902
  324ACC    C0927966   0.530  11.651  14.021
  324ACC    H0A27967   0.711  11.042  13.676
  324ACC    H0B27968   0.639  11.018  13.836
  324ACC    H0C27969   0.814  11.005  13.815
  324ACC    H0D27970   0.861  11.408  13.925
  324ACC    H0E27971   0.824  11.356  14.089
  324ACC    H0F27972   0.587  11.401  14.065
  324ACC    H0G27973   0.599  11.430  13.895
  324ACC    H0H27974   0.837  11.580  14.149
  324ACC    H0I27975   0.682  11.580  14.228
  324ACC    H0J27976   0.745  11.729  14.163
  324ACC    H0K27977   0.848  11.629  13.901
  324ACC    H0M27978   0.741  11.767  13.910
  324ACC    H0N27979   0.701  11.632  13.805
  324ACC    H0O27980   0.472  11.605  14.101
  324ACC    H0P27981   0.474  11.635  13.929
  324ACC    H0Q27982   0.531  11.758  14.041
  325ACC    C0027983  11.056   2.490  10.382
  325ACC    C0127984  11.051   2.409  10.511
  325ACC    O0227985  11.117   2.440  10.610
  325ACC    O0327986  10.966   2.306  10.504
  325ACC    C0427987  10.954   2.217  10.615
  325ACC    C0527988  10.869   2.283  10.727
  325ACC    N0627989  10.865   2.209  10.857
  325ACC    C0727990  10.810   2.071  10.839
  325ACC    C0827991  11.000   2.203  10.920
  325ACC    C0927992  10.774   2.284  10.949
  325ACC    H0A27993  11.127   2.572  10.392
  325ACC    H0B27994  10.958   2.532  10.359
  325ACC    H0C27995  11.088   2.427  10.299
  325ACC    H0D27996  11.055   2.192  10.648
  325ACC    H0E27997  10.908   2.125  10.579
  325ACC    H0F27998  10.769   2.298  10.687
  325ACC    H0G27999  10.908   2.384  10.745
  325ACC    H0H28000  10.876   2.007  10.780
  325ACC    H0I28001  10.713   2.072  10.789
  325ACC    H0J28002  10.797   2.019  10.935
  325ACC    H0K28003  11.070   2.140  10.864
  325ACC    H0M28004  10.997   2.161  11.021
  325ACC    H0N28005  11.046   2.302  10.928
  325ACC    H0O28006  10.673   2.292  10.909
  325ACC    H0P28007  10.809   2.386  10.967
  325ACC    H0Q28008  10.765   2.236  11.047
  326ACC    C0028009  13.581   1.686   1.724
  326ACC    C0128010  13.630   1.544   1.748
  326ACC    O0228011  13.553   1.452   1.772
  326ACC    O0328012  13.764   1.534   1.737
  326ACC    C0428013  13.829   1.413   1.774
  326ACC    C0528014  13.811   1.305   1.664
  326ACC    N0628015  13.867   1.170   1.696
  326ACC    C0728016  14.014   1.175   1.718
  326ACC    C0828017  13.800   1.111   1.816
  326ACC    C0928018  13.839   1.080   1.580
  326ACC    H0A28019  13.473   1.692   1.744
  326ACC    H0B28020  13.599   1.716   1.621
  326ACC    H0C28021  13.631   1.755   1.791
  326ACC    H0D28022  13.789   1.382   1.871
  326ACC    H0E28023  13.934   1.437   1.791
  326ACC    H0F28024  13.856   1.344   1.572
  326ACC    H0G28025  13.704   1.296   1.642
  326ACC    H0H28026  14.041   1.232   1.807
  326ACC    H0I28027  14.067   1.221   1.634
  326ACC    H0J28028  14.057   1.076   1.732
  326ACC    H0K28029  13.825   1.164   1.909
  326ACC    H0M28030  13.829   1.007   1.833
  326ACC    H0N28031  13.691   1.113   1.808
  326ACC    H0O28032  13.886   1.117   1.488
  326ACC    H0P28033  13.732   1.071   1.560
  326ACC    H0Q28034  13.877   0.979   1.596
  327ACC    C0028035   2.100   7.347   1.915
  327ACC    C0128036   2.085   7.498   1.906
  327ACC    O0228037   2.161   7.566   1.838
  327ACC    O0328038   1.982   7.544   1.978
  327ACC    C0428039   1.960   7.684   1.989
  327ACC    C0528040   1.893   7.738   1.860
  327ACC    N0628041   1.876   7.887   1.854
  327ACC    C0728042   1.789   7.939   1.964
  327ACC    C0828043   2.008   7.957   1.859
  327ACC    C0928044   1.811   7.919   1.724
  327ACC    H0A28045   2.188   7.314   1.859
  327ACC    H0B28046   2.013   7.297   1.874
  327ACC    H0C28047   2.113   7.317   2.019
  327ACC    H0D28048   2.056   7.732   2.010
  327ACC    H0E28049   1.897   7.701   2.076
  327ACC    H0F28050   1.797   7.689   1.848
  327ACC    H0G28051   1.953   7.707   1.774
  327ACC    H0H28052   1.834   7.927   2.063
  327ACC    H0I28053   1.691   7.891   1.965
  327ACC    H0J28054   1.771   8.046   1.953
  327ACC    H0K28055   2.057   7.949   1.956
  327ACC    H0M28056   1.998   8.064   1.841
  327ACC    H0N28057   2.078   7.920   1.784
  327ACC    H0O28058   1.713   7.871   1.713
  327ACC    H0P28059   1.871   7.890   1.638
  327ACC    H0Q28060   1.792   8.026   1.712
  328ACC    C0028061   8.615  12.190  15.132
  328ACC    C0128062   8.486  12.217  15.208
  328ACC    O0228063   8.420  12.319  15.189
  328ACC    O0328064   8.455  12.118  15.293
  328ACC    C0428065   8.345  12.135  15.382
  328ACC    C0528066   8.211  12.113  15.308
  328ACC    N0628067   8.087  12.145  15.387
  328ACC    C0728068   8.078  12.060  15.509
  328ACC    C0828069   8.084  12.289  15.424
  328ACC    C0928070   7.969  12.116  15.300
  328ACC    H0A28071   8.640  12.274  15.067
  328ACC    H0B28072   8.607  12.100  15.071
  328ACC    H0C28073   8.698  12.176  15.202
  328ACC    H0D28074   8.354  12.234  15.427
  328ACC    H0E28075   8.359  12.063  15.463
  328ACC    H0F28076   8.209  12.009  15.273
  328ACC    H0G28077   8.212  12.173  15.217
  328ACC    H0H28078   8.157  12.081  15.582
  328ACC    H0I28079   8.084  11.953  15.486
  328ACC    H0J28080   7.984  12.075  15.563
  328ACC    H0K28081   8.160  12.316  15.498
  328ACC    H0M28082   7.988  12.318  15.469
  328ACC    H0N28083   8.099  12.354  15.338
  328ACC    H0O28084   7.965  12.011  15.269
  328ACC    H0P28085   7.970  12.176  15.209
  328ACC    H0Q28086   7.875  12.137  15.351
  329ACC    C0028087   2.751  14.535  13.191
  329ACC    C0128088   2.663  14.567  13.072
  329ACC    O0228089   2.703  14.556  12.957
  329ACC    O0328090   2.539  14.607  13.108
  329ACC    C0428091   2.451  14.661  13.009
  329ACC    C0528092   2.390  14.550  12.919
  329ACC    N0628093   2.311  14.598  12.801
  329ACC    C0728094   2.190  14.675  12.843
  329ACC    C0828095   2.395  14.682  12.711
  329ACC    C0928096   2.267  14.478  12.724
  329ACC    H0A28097   2.853  14.510  13.159
  329ACC    H0B28098   2.712  14.451  13.249
  329ACC    H0C28099   2.761  14.621  13.257
  329ACC    H0D28100   2.509  14.734  12.952
  329ACC    H0E28101   2.373  14.717  13.061
  329ACC    H0F28102   2.329  14.485  12.983
  329ACC    H0G28103   2.472  14.486  12.884
  329ACC    H0H28104   2.214  14.768  12.894
  329ACC    H0I28105   2.125  14.617  12.910
  329ACC    H0J28106   2.127  14.703  12.758
  329ACC    H0K28107   2.419  14.779  12.754
  329ACC    H0M28108   2.344  14.704  12.616
  329ACC    H0N28109   2.490  14.634  12.685
  329ACC    H0O28110   2.205  14.411  12.784
  329ACC    H0P28111   2.351  14.419  12.687
  329ACC    H0Q28112   2.207  14.505  12.636
  330ACC    C0028113   6.923   5.030   7.213
  330ACC    C0128114   6.876   4.888   7.187
  330ACC    O0228115   6.939   4.791   7.230
  330ACC    O0328116   6.763   4.882   7.116
  330ACC    C0428117   6.713   4.756   7.074
  330ACC    C0528118   6.642   4.683   7.191
  330ACC    N0628119   6.595   4.544   7.163
  330ACC    C0728120   6.497   4.540   7.050
  330ACC    C0828121   6.710   4.454   7.132
  330ACC    C0928122   6.528   4.492   7.285
  330ACC    H0A28123   7.017   5.030   7.268
  330ACC    H0B28124   6.848   5.085   7.272
  330ACC    H0C28125   6.938   5.083   7.119
  330ACC    H0D28126   6.796   4.698   7.033
  330ACC    H0E28127   6.644   4.774   6.991
  330ACC    H0F28128   6.558   4.746   7.223
  330ACC    H0G28129   6.710   4.681   7.277
  330ACC    H0H28130   6.541   4.569   6.955
  330ACC    H0I28131   6.412   4.608   7.067
  330ACC    H0J28132   6.455   4.440   7.036
  330ACC    H0K28133   6.759   4.477   7.037
  330ACC    H0M28134   6.680   4.349   7.124
  330ACC    H0N28135   6.788   4.458   7.209
  330ACC    H0O28136   6.441   4.553   7.314
  330ACC    H0P28137   6.595   4.490   7.372
  330ACC    H0Q28138   6.491   4.390   7.273
  331ACC    C0028139  15.202  12.236   2.477
  331ACC    C0128140  15.303  12.146   2.408
  331ACC    O0228141  15.313  12.027   2.438
  331ACC    O0328142  15.374  12.209   2.313
  331ACC    C0428143  15.482  12.142   2.249
  331ACC    C0528144  15.431  12.042   2.143
  331ACC    N0628145  15.536  11.958   2.076
  331ACC    C0728146  15.634  12.043   2.002
  331ACC    C0828147  15.608  11.872   2.175
  331ACC    C0928148  15.468  11.869   1.978
  331ACC    H0A28149  15.153  12.183   2.558
  331ACC    H0B28150  15.127  12.271   2.406
  331ACC    H0C28151  15.253  12.323   2.519
  331ACC    H0D28152  15.543  12.094   2.327
  331ACC    H0E28153  15.545  12.219   2.204
  331ACC    H0F28154  15.374  12.098   2.069
  331ACC    H0G28155  15.358  11.976   2.191
  331ACC    H0H28156  15.695  12.105   2.068
  331ACC    H0I28157  15.586  12.110   1.931
  331ACC    H0J28158  15.705  11.983   1.945
  331ACC    H0K28159  15.670  11.930   2.243
  331ACC    H0M28160  15.675  11.801   2.126
  331ACC    H0N28161  15.539  11.814   2.237
  331ACC    H0O28162  15.413  11.925   1.902
  331ACC    H0P28163  15.395  11.803   2.026
  331ACC    H0Q28164  15.538  11.805   1.925
  332ACC    C0028165   1.823   6.831  14.169
  332ACC    C0128166   1.747   6.844  14.038
  332ACC    O0228167   1.712   6.953  13.993
  332ACC    O0328168   1.725   6.725  13.979
  332ACC    C0428169   1.651   6.719  13.858
  332ACC    C0528170   1.742   6.760  13.739
  332ACC    N0628171   1.675   6.768  13.605
  332ACC    C0728172   1.618   6.636  13.566
  332ACC    C0828173   1.567   6.871  13.605
  332ACC    C0928174   1.778   6.807  13.505
  332ACC    H0A28175   1.836   6.929  14.216
  332ACC    H0B28176   1.922   6.788  14.153
  332ACC    H0C28177   1.769   6.767  14.238
  332ACC    H0D28178   1.563   6.782  13.868
  332ACC    H0E28179   1.616   6.616  13.848
  332ACC    H0F28180   1.826   6.691  13.736
  332ACC    H0G28181   1.787   6.857  13.763
  332ACC    H0H28182   1.536   6.604  13.630
  332ACC    H0I28183   1.693   6.557  13.568
  332ACC    H0J28184   1.578   6.637  13.464
  332ACC    H0K28185   1.482   6.844  13.668
  332ACC    H0M28186   1.526   6.888  13.505
  332ACC    H0N28187   1.604   6.968  13.641
  332ACC    H0O28188   1.860   6.735  13.499
  332ACC    H0P28189   1.823   6.904  13.527
  332ACC    H0Q28190   1.737   6.815  13.404
  333ACC    C0028191  14.596  12.922  15.697
  333ACC    C0128192  14.476  12.873  15.776
  333ACC    O0228193  14.373  12.835  15.722
  333ACC    O0328194  14.501  12.872  15.907
  333ACC    C0428195  14.394  12.870  16.000
  333ACC    C0528196  14.345  12.726  16.020
  333ACC    N0628197  14.227  12.711  16.110
  333ACC    C0728198  14.258  12.757  16.249
  333ACC    C0828199  14.109  12.786  16.058
  333ACC    C0928200  14.194  12.565  16.113
  333ACC    H0A28201  14.571  12.932  15.592
  333ACC    H0B28202  14.680  12.854  15.709
  333ACC    H0C28203  14.626  13.020  15.736
  333ACC    H0D28204  14.318  12.941  15.967
  333ACC    H0E28205  14.433  12.909  16.094
  333ACC    H0F28206  14.431  12.670  16.058
  333ACC    H0G28207  14.323  12.685  15.921
  333ACC    H0H28208  14.275  12.865  16.253
  333ACC    H0I28209  14.348  12.711  16.290
  333ACC    H0J28210  14.176  12.737  16.318
  333ACC    H0K28211  14.122  12.894  16.066
  333ACC    H0M28212  14.017  12.763  16.113
  333ACC    H0N28213  14.090  12.765  15.952
  333ACC    H0O28214  14.278  12.506  16.151
  333ACC    H0P28215  14.171  12.528  16.014
  333ACC    H0Q28216  14.108  12.544  16.177
  334ACC    C0028217   8.008   6.650  15.468
  334ACC    C0128218   7.971   6.503  15.473
  334ACC    O0228219   7.911   6.447  15.381
  334ACC    O0328220   8.011   6.442  15.587
  334ACC    C0428221   7.976   6.307  15.611
  334ACC    C0528222   8.067   6.213  15.528
  334ACC    N0628223   8.032   6.067  15.532
  334ACC    C0728224   8.036   6.014  15.672
  334ACC    C0828225   7.897   6.043  15.473
  334ACC    C0928226   8.132   5.993  15.450
  334ACC    H0A28227   7.972   6.695  15.376
  334ACC    H0B28228   8.116   6.662  15.473
  334ACC    H0C28229   7.963   6.703  15.552
  334ACC    H0D28230   7.870   6.295  15.587
  334ACC    H0E28231   7.986   6.289  15.718
  334ACC    H0F28232   8.170   6.228  15.562
  334ACC    H0G28233   8.067   6.247  15.424
  334ACC    H0H28234   7.959   6.058  15.736
  334ACC    H0I28235   8.132   6.033  15.720
  334ACC    H0J28236   8.020   5.906  15.675
  334ACC    H0K28237   7.816   6.085  15.533
  334ACC    H0M28238   7.875   5.937  15.462
  334ACC    H0N28239   7.887   6.088  15.373
  334ACC    H0O28240   8.234   6.006  15.488
  334ACC    H0P28241   8.133   6.027  15.346
  334ACC    H0Q28242   8.113   5.886  15.448
  335ACC    C0028243  15.120  15.812   8.451
  335ACC    C0128244  15.027  15.831   8.333
  335ACC    O0228245  15.047  15.775   8.225
  335ACC    O0328246  14.925  15.913   8.360
  335ACC    C0428247  14.835  15.950   8.256
  335ACC    C0528248  14.735  15.835   8.227
  335ACC    N0628249  14.644  15.856   8.110
  335ACC    C0728250  14.558  15.977   8.129
  335ACC    C0828251  14.720  15.868   7.983
  335ACC    C0928252  14.554  15.737   8.100
  335ACC    H0A28253  15.204  15.747   8.423
  335ACC    H0B28254  15.067  15.766   8.534
  335ACC    H0C28255  15.160  15.908   8.484
  335ACC    H0D28256  14.894  15.978   8.168
  335ACC    H0E28257  14.783  16.040   8.289
  335ACC    H0F28258  14.678  15.817   8.318
  335ACC    H0G28259  14.793  15.743   8.211
  335ACC    H0H28260  14.616  16.070   8.129
  335ACC    H0I28261  14.503  15.975   8.223
  335ACC    H0J28262  14.484  15.988   8.049
  335ACC    H0K28263  14.780  15.959   7.977
  335ACC    H0M28264  14.655  15.869   7.895
  335ACC    H0N28265  14.790  15.784   7.969
  335ACC    H0O28266  14.494  15.722   8.190
  335ACC    H0P28267  14.611  15.645   8.085
  335ACC    H0Q28268  14.484  15.745   8.017
  336ACC    C0028269  15.935  14.897  14.879
  336ACC    C0128270  15.978  14.787  14.784
  336ACC    O0228271  16.007  14.809  14.667
  336ACC    O0328272  15.981  14.665  14.842
  336ACC    C0428273  16.012  14.551  14.765
  336ACC    C0528274  16.165  14.545  14.741
  336ACC    N0628275  16.212  14.440  14.643
  336ACC    C0728276  16.172  14.304  14.688
  336ACC    C0828277  16.158  14.467  14.507
  336ACC    C0928278  16.361  14.447  14.637
  336ACC    H0A28279  15.935  14.994  14.828
  336ACC    H0B28280  16.004  14.903  14.964
  336ACC    H0C28281  15.835  14.878  14.917
  336ACC    H0D28282  15.955  14.556  14.672
  336ACC    H0E28283  15.977  14.464  14.819
  336ACC    H0F28284  16.213  14.531  14.838
  336ACC    H0G28285  16.199  14.643  14.707
  336ACC    H0H28286  16.064  14.289  14.687
  336ACC    H0I28287  16.206  14.282  14.790
  336ACC    H0J28288  16.213  14.226  14.624
  336ACC    H0K28289  16.050  14.454  14.500
  336ACC    H0M28290  16.202  14.402  14.431
  336ACC    H0N28291  16.178  14.570  14.475
  336ACC    H0O28292  16.407  14.428  14.734
  336ACC    H0P28293  16.396  14.545  14.605
  336ACC    H0Q28294  16.403  14.374  14.567
  337ACC    C0028295  13.726  14.461   7.443
  337ACC    C0128296  13.820  14.476   7.325
  337ACC    O0228297  13.938  14.507   7.340
  337ACC    O0328298  13.760  14.453   7.208
  337ACC    C0428299  13.833  14.463   7.087
  337ACC    C0528300  13.918  14.335   7.066
  337ACC    N0628301  14.010  14.337   6.947
  337ACC    C0728302  13.933  14.359   6.821
  337ACC    C0828303  14.115  14.442   6.960
  337ACC    C0928304  14.077  14.204   6.941
  337ACC    H0A28305  13.780  14.476   7.537
  337ACC    H0B28306  13.683  14.361   7.444
  337ACC    H0C28307  13.645  14.533   7.437
  337ACC    H0D28308  13.894  14.553   7.089
  337ACC    H0E28309  13.761  14.475   7.006
  337ACC    H0F28310  13.849  14.250   7.056
  337ACC    H0G28311  13.976  14.314   7.156
  337ACC    H0H28312  13.897  14.461   6.809
  337ACC    H0I28313  13.845  14.295   6.816
  337ACC    H0J28314  13.991  14.335   6.732
  337ACC    H0K28315  14.075  14.543   6.955
  337ACC    H0M28316  14.189  14.433   6.880
  337ACC    H0N28317  14.170  14.433   7.054
  337ACC    H0O28318  14.006  14.122   6.943
  337ACC    H0P28319  14.146  14.187   7.023
  337ACC    H0Q28320  14.133  14.190   6.848
  338ACC    C0028321   7.370   6.329   5.221
  338ACC    C0128322   7.302   6.200   5.175
  338ACC    O0228323   7.316   6.095   5.236
  338ACC    O0328324   7.226   6.217   5.065
  338ACC    C0428325   7.163   6.105   5.005
  338ACC    C0528326   7.036   6.066   5.085
  338ACC    N0628327   6.966   5.941   5.040
  338ACC    C0728328   6.921   5.952   4.898
  338ACC    C0828329   7.054   5.822   5.056
  338ACC    C0928330   6.846   5.922   5.125
  338ACC    H0A28331   7.431   6.310   5.309
  338ACC    H0B28332   7.296   6.404   5.245
  338ACC    H0C28333   7.434   6.367   5.141
  338ACC    H0D28334   7.236   6.024   4.999
  338ACC    H0E28335   7.138   6.133   4.903
  338ACC    H0F28336   6.967   6.151   5.082
  338ACC    H0G28337   7.063   6.056   5.190
  338ACC    H0H28338   7.005   5.958   4.827
  338ACC    H0I28339   6.859   6.041   4.881
  338ACC    H0J28340   6.862   5.866   4.867
  338ACC    H0K28341   7.140   5.822   4.988
  338ACC    H0M28342   7.001   5.728   5.036
  338ACC    H0N28343   7.095   5.814   5.157
  338ACC    H0O28344   6.776   6.006   5.118
  338ACC    H0P28345   6.871   5.913   5.231
  338ACC    H0Q28346   6.789   5.833   5.099
  339ACC    C0028347   4.270   6.945  17.391
  339ACC    C0128348   4.339   6.955   0.085
  339ACC    O0228349   4.393   7.059   0.123
  339ACC    O0328350   4.329   6.842   0.158
  339ACC    C0428351   4.375   6.841   0.292
  339ACC    C0528352   4.269   6.911   0.380
  339ACC    N0628353   4.302   6.924   0.526
  339ACC    C0728354   4.323   6.791   0.590
  339ACC    C0828355   4.422   7.010   0.547
  339ACC    C0928356   4.185   6.990   0.592
  339ACC    H0A28357   4.299   7.029  17.329
  339ACC    H0B28358   4.162   6.948  17.403
  339ACC    H0C28359   4.297   6.852  17.341
  339ACC    H0D28360   4.473   6.890   0.297
  339ACC    H0E28361   4.390   6.737   0.321
  339ACC    H0F28362   4.175   6.856   0.368
  339ACC    H0G28363   4.250   7.010   0.339
  339ACC    H0H28364   4.413   6.741   0.554
  339ACC    H0I28365   4.240   6.723   0.574
  339ACC    H0J28366   4.336   6.800   0.699
  339ACC    H0K28367   4.514   6.964   0.510
  339ACC    H0M28368   4.440   7.031   0.652
  339ACC    H0N28369   4.413   7.107   0.496
  339ACC    H0O28370   4.093   6.932   0.582
  339ACC    H0P28371   4.165   7.089   0.550
  339ACC    H0Q28372   4.201   7.004   0.699
  340ACC    C0028373   5.870   8.447  13.682
  340ACC    C0128374   5.927   8.580  13.636
  340ACC    O0228375   5.946   8.605  13.518
  340ACC    O0328376   5.955   8.662  13.739
  340ACC    C0428377   6.014   8.789  13.714
  340ACC    C0528378   5.908   8.892  13.670
  340ACC    N0628379   5.962   9.026  13.628
  340ACC    C0728380   6.048   9.086  13.733
  340ACC    C0828381   6.039   9.016  13.501
  340ACC    C0928382   5.846   9.118  13.604
  340ACC    H0A28383   5.844   8.386  13.595
  340ACC    H0B28384   5.781   8.462  13.742
  340ACC    H0C28385   5.943   8.393  13.741
  340ACC    H0D28386   6.093   8.777  13.639
  340ACC    H0E28387   6.063   8.819  13.806
  340ACC    H0F28388   5.838   8.906  13.754
  340ACC    H0G28389   5.848   8.850  13.589
  340ACC    H0H28390   6.135   9.027  13.760
  340ACC    H0I28391   5.992   9.107  13.825
  340ACC    H0J28392   6.087   9.183  13.701
  340ACC    H0K28393   6.132   8.960  13.512
  340ACC    H0M28394   6.067   9.115  13.464
  340ACC    H0N28395   5.981   8.967  13.421
  340ACC    H0O28396   5.788   9.136  13.695
  340ACC    H0P28397   5.777   9.082  13.528
  340ACC    H0Q28398   5.879   9.218  13.573
  341ACC    C0028399  14.697   6.791  15.818
  341ACC    C0128400  14.815   6.766  15.726
  341ACC    O0228401  14.915   6.838  15.728
  341ACC    O0328402  14.798   6.660  15.646
  341ACC    C0428403  14.898   6.627  15.551
  341ACC    C0528404  15.017   6.557  15.620
  341ACC    N0628405  15.136   6.530  15.532
  341ACC    C0728406  15.100   6.444  15.416
  341ACC    C0828407  15.198   6.657  15.485
  341ACC    C0928408  15.237   6.457  15.615
  341ACC    H0A28409  14.715   6.878  15.882
  341ACC    H0B28410  14.680   6.705  15.883
  341ACC    H0C28411  14.607   6.810  15.760
  341ACC    H0D28412  14.927   6.719  15.499
  341ACC    H0E28413  14.851   6.563  15.476
  341ACC    H0F28414  14.980   6.464  15.664
  341ACC    H0G28415  15.049   6.618  15.705
  341ACC    H0H28416  15.033   6.494  15.346
  341ACC    H0I28417  15.051   6.351  15.447
  341ACC    H0J28418  15.188   6.415  15.357
  341ACC    H0K28419  15.134   6.712  15.415
  341ACC    H0M28420  15.292   6.640  15.432
  341ACC    H0N28421  15.220   6.725  15.567
  341ACC    H0O28422  15.199   6.362  15.653
  341ACC    H0P28423  15.269   6.516  15.702
  341ACC    H0Q28424  15.328   6.434  15.558
  342ACC    C0028425   4.171  14.408   9.532
  342ACC    C0128426   4.266  14.290   9.533
  342ACC    O0228427   4.316  14.247   9.637
  342ACC    O0328428   4.289  14.240   9.410
  342ACC    C0428429   4.378  14.130   9.394
  342ACC    C0528430   4.306  13.998   9.431
  342ACC    N0628431   4.392  13.875   9.430
  342ACC    C0728432   4.455  13.853   9.297
  342ACC    C0828433   4.497  13.883   9.536
  342ACC    C0928434   4.304  13.758   9.461
  342ACC    H0A28435   4.152  14.443   9.634
  342ACC    H0B28436   4.076  14.380   9.487
  342ACC    H0C28437   4.214  14.490   9.474
  342ACC    H0D28438   4.467  14.149   9.454
  342ACC    H0E28439   4.409  14.131   9.289
  342ACC    H0F28440   4.221  13.986   9.362
  342ACC    H0G28441   4.260  14.010   9.530
  342ACC    H0H28442   4.527  13.930   9.271
  342ACC    H0I28443   4.381  13.850   9.217
  342ACC    H0J28444   4.509  13.758   9.293
  342ACC    H0K28445   4.572  13.960   9.516
  342ACC    H0M28446   4.552  13.790   9.546
  342ACC    H0N28447   4.455  13.905   9.634
  342ACC    H0O28448   4.225  13.745   9.387
  342ACC    H0P28449   4.255  13.767   9.558
  342ACC    H0Q28450   4.360  13.664   9.464
  343ACC    C0028451  16.219   8.252   0.606
  343ACC    C0128452  16.177   8.240   0.752
  343ACC    O0228453  16.211   8.145   0.821
  343ACC    O0328454  16.102   8.343   0.794
  343ACC    C0428455  16.048   8.342   0.926
  343ACC    C0528456  16.158   8.379   1.029
  343ACC    N0628457  16.119   8.367   1.173
  343ACC    C0728458  16.003   8.455   1.205
  343ACC    C0828459  16.086   8.226   1.209
  343ACC    C0928460  16.235   8.411   1.256
  343ACC    H0A28461  16.278   8.165   0.577
  343ACC    H0B28462  16.278   8.342   0.591
  343ACC    H0C28463  16.131   8.256   0.542
  343ACC    H0D28464  16.005   8.243   0.943
  343ACC    H0E28465  15.966   8.413   0.928
  343ACC    H0F28466  16.193   8.480   1.006
  343ACC    H0G28467  16.245   8.315   1.011
  343ACC    H0H28468  15.911   8.424   1.154
  343ACC    H0I28469  16.021   8.559   1.177
  343ACC    H0J28470  15.980   8.455   1.312
  343ACC    H0K28471  15.996   8.189   1.160
  343ACC    H0M28472  16.070   8.213   1.316
  343ACC    H0N28473  16.167   8.157   1.180
  343ACC    H0O28474  16.264   8.514   1.235
  343ACC    H0P28475  16.323   8.349   1.238
  343ACC    H0Q28476  16.214   8.405   1.363
  344ACC    C0028477   1.079   3.392   4.767
  344ACC    C0128478   1.211   3.466   4.770
  344ACC    O0228479   1.274   3.491   4.667
  344ACC    O0328480   1.249   3.501   4.894
  344ACC    C0428481   1.372   3.568   4.914
  344ACC    C0528482   1.358   3.719   4.878
  344ACC    N0628483   1.484   3.799   4.883
  344ACC    C0728484   1.549   3.793   5.018
  344ACC    C0828485   1.580   3.754   4.778
  344ACC    C0928486   1.449   3.941   4.854
  344ACC    H0A28487   1.051   3.369   4.664
  344ACC    H0B28488   1.000   3.453   4.811
  344ACC    H0C28489   1.087   3.299   4.822
  344ACC    H0D28490   1.449   3.518   4.854
  344ACC    H0E28491   1.400   3.555   5.018
  344ACC    H0F28492   1.283   3.761   4.945
  344ACC    H0G28493   1.314   3.727   4.778
  344ACC    H0H28494   1.586   3.693   5.042
  344ACC    H0I28495   1.480   3.822   5.097
  344ACC    H0J28496   1.635   3.860   5.025
  344ACC    H0K28497   1.618   3.653   4.795
  344ACC    H0M28498   1.668   3.819   4.771
  344ACC    H0N28499   1.535   3.753   4.678
  344ACC    H0O28500   1.379   3.982   4.927
  344ACC    H0P28501   1.403   3.953   4.756
  344ACC    H0Q28502   1.537   4.007   4.856
  345ACC    C0028503   9.325   8.446   7.090
  345ACC    C0128504   9.347   8.545   7.202
  345ACC    O0228505   9.455   8.554   7.261
  345ACC    O0328506   9.239   8.620   7.229
  345ACC    C0428507   9.244   8.716   7.333
  345ACC    C0528508   9.320   8.843   7.284
  345ACC    N0628509   9.347   8.946   7.388
  345ACC    C0728510   9.221   8.993   7.453
  345ACC    C0828511   9.442   8.894   7.491
  345ACC    C0928512   9.413   9.063   7.321
  345ACC    H0A28513   9.417   8.390   7.069
  345ACC    H0B28514   9.295   8.497   6.999
  345ACC    H0C28515   9.247   8.375   7.117
  345ACC    H0D28516   9.290   8.670   7.420
  345ACC    H0E28517   9.141   8.740   7.360
  345ACC    H0F28518   9.262   8.885   7.201
  345ACC    H0G28519   9.414   8.811   7.238
  345ACC    H0H28520   9.173   8.915   7.512
  345ACC    H0I28521   9.148   9.028   7.380
  345ACC    H0J28522   9.239   9.076   7.522
  345ACC    H0K28523   9.399   8.814   7.552
  345ACC    H0M28524   9.474   8.971   7.561
  345ACC    H0N28525   9.533   8.853   7.446
  345ACC    H0O28526   9.349   9.107   7.244
  345ACC    H0P28527   9.506   9.034   7.272
  345ACC    H0Q28528   9.437   9.143   7.391
  346ACC    C0028529   9.763   9.531   8.004
  346ACC    C0128530   9.682   9.629   7.921
  346ACC    O0228531   9.679   9.623   7.798
  346ACC    O0328532   9.616   9.720   7.995
  346ACC    C0428533   9.551   9.829   7.932
  346ACC    C0528534   9.418   9.784   7.864
  346ACC    N0628535   9.347   9.890   7.785
  346ACC    C0728536   9.306  10.004   7.871
  346ACC    C0828537   9.432   9.939   7.672
  346ACC    C0928538   9.224   9.828   7.727
  346ACC    H0A28539   9.824   9.468   7.940
  346ACC    H0B28540   9.697   9.467   8.063
  346ACC    H0C28541   9.829   9.585   8.072
  346ACC    H0D28542   9.621   9.873   7.861
  346ACC    H0E28543   9.533   9.904   8.009
  346ACC    H0F28544   9.353   9.744   7.942
  346ACC    H0G28545   9.440   9.699   7.799
  346ACC    H0H28546   9.391  10.060   7.911
  346ACC    H0I28547   9.246   9.972   7.957
  346ACC    H0J28548   9.245  10.077   7.816
  346ACC    H0K28549   9.518   9.997   7.706
  346ACC    H0M28550   9.377  10.005   7.604
  346ACC    H0N28551   9.471   9.857   7.611
  346ACC    H0O28552   9.157   9.789   7.804
  346ACC    H0P28553   9.248   9.744   7.660
  346ACC    H0Q28554   9.166   9.899   7.667
  347ACC    C0028555  12.472   2.860  11.196
  347ACC    C0128556  12.321   2.842  11.190
  347ACC    O0228557  12.254   2.818  11.290
  347ACC    O0328558  12.272   2.857  11.066
  347ACC    C0428559  12.131   2.851  11.047
  347ACC    C0528560  12.070   2.988  11.086
  347ACC    N0628561  11.921   2.990  11.099
  347ACC    C0728562  11.854   2.940  10.975
  347ACC    C0828563  11.877   2.910  11.217
  347ACC    C0928564  11.879   3.132  11.122
  347ACC    H0A28565  12.509   2.841  11.297
  347ACC    H0B28566  12.500   2.962  11.171
  347ACC    H0C28567  12.523   2.793  11.127
  347ACC    H0D28568  12.092   2.768  11.105
  347ACC    H0E28569  12.113   2.828  10.942
  347ACC    H0F28570  12.104   3.061  11.013
  347ACC    H0G28571  12.115   3.021  11.181
  347ACC    H0H28572  11.873   2.834  10.957
  347ACC    H0I28573  11.888   2.994  10.886
  347ACC    H0J28574  11.745   2.951  10.979
  347ACC    H0K28575  11.897   2.803  11.205
  347ACC    H0M28576  11.770   2.919  11.237
  347ACC    H0N28577  11.929   2.940  11.309
  347ACC    H0O28578  11.908   3.197  11.038
  347ACC    H0P28579  11.926   3.174  11.211
  347ACC    H0Q28580  11.771   3.142  11.134
  348ACC    C0028581  12.110  15.499   8.047
  348ACC    C0128582  12.039  15.622   7.994
  348ACC    O0228583  11.970  15.619   7.892
  348ACC    O0328584  12.059  15.731   8.070
  348ACC    C0428585  12.006  15.856   8.029
  348ACC    C0528586  11.854  15.862   8.059
  348ACC    N0628587  11.783  15.983   8.006
  348ACC    C0728588  11.840  16.109   8.062
  348ACC    C0828589  11.787  15.987   7.857
  348ACC    C0928590  11.640  15.973   8.049
  348ACC    H0A28591  12.092  15.414   7.982
  348ACC    H0B28592  12.074  15.474   8.147
  348ACC    H0C28593  12.218  15.517   8.052
  348ACC    H0D28594  12.029  15.870   7.923
  348ACC    H0E28595  12.061  15.934   8.083
  348ACC    H0F28596  11.841  15.854   8.167
  348ACC    H0G28597  11.807  15.773   8.018
  348ACC    H0H28598  11.942  16.127   8.028
  348ACC    H0I28599  11.843  16.108   8.172
  348ACC    H0J28600  11.782  16.197   8.033
  348ACC    H0K28601  11.887  16.005   7.818
  348ACC    H0M28602  11.724  16.067   7.816
  348ACC    H0N28603  11.752  15.894   7.813
  348ACC    H0O28604  11.629  15.970   8.157
  348ACC    H0P28605  11.592  15.883   8.009
  348ACC    H0Q28606  11.580  16.058   8.014
  349ACC    C0028607   0.867   6.056   4.628
  349ACC    C0128608   1.019   6.049   4.627
  349ACC    O0228609   1.084   6.059   4.731
  349ACC    O0328610   1.069   6.030   4.504
  349ACC    C0428611   1.210   6.028   4.484
  349ACC    C0528612   1.269   5.891   4.526
  349ACC    N0628613   1.419   5.881   4.521
  349ACC    C0728614   1.471   5.904   4.384
  349ACC    C0828615   1.483   5.977   4.616
  349ACC    C0928616   1.458   5.743   4.561
  349ACC    H0A28617   0.830   6.074   4.729
  349ACC    H0B28618   0.825   5.963   4.591
  349ACC    H0C28619   0.834   6.138   4.565
  349ACC    H0D28620   1.254   6.111   4.539
  349ACC    H0E28621   1.228   6.047   4.378
  349ACC    H0F28622   1.225   5.815   4.462
  349ACC    H0G28623   1.235   5.868   4.627
  349ACC    H0H28624   1.455   6.005   4.345
  349ACC    H0I28625   1.425   5.837   4.310
  349ACC    H0J28626   1.579   5.887   4.374
  349ACC    H0K28627   1.471   6.081   4.584
  349ACC    H0M28628   1.591   5.961   4.622
  349ACC    H0N28629   1.443   5.968   4.717
  349ACC    H0O28630   1.416   5.668   4.494
  349ACC    H0P28631   1.424   5.718   4.662
  349ACC    H0Q28632   1.566   5.728   4.559
  350ACC    C0028633  10.704  13.678  10.706
  350ACC    C0128634  10.802  13.761  10.625
  350ACC    O0228635  10.789  13.777  10.504
  350ACC    O0328636  10.902  13.813  10.698
  350ACC    C0428637  10.994  13.902  10.636
  350ACC    C0528638  10.934  14.044  10.638
  350ACC    N0628639  11.013  14.148  10.564
  350ACC    C0728640  11.156  14.152  10.604
  350ACC    C0828641  11.001  14.130  10.416
  350ACC    C0928642  10.954  14.281  10.598
  350ACC    H0A28643  10.613  13.661  10.647
  350ACC    H0B28644  10.677  13.729  10.798
  350ACC    H0C28645  10.749  13.581  10.729
  350ACC    H0D28646  11.016  13.868  10.535
  350ACC    H0E28647  11.087  13.897  10.692
  350ACC    H0F28648  10.921  14.074  10.742
  350ACC    H0G28649  10.833  14.042  10.597
  350ACC    H0H28650  11.210  14.061  10.576
  350ACC    H0I28651  11.167  14.166  10.712
  350ACC    H0J28652  11.208  14.235  10.556
  350ACC    H0K28653  11.046  14.038  10.380
  350ACC    H0M28654  11.046  14.213  10.361
  350ACC    H0N28655  10.896  14.128  10.384
  350ACC    H0O28656  10.950  14.302  10.705
  350ACC    H0P28657  10.853  14.294  10.558
  350ACC    H0Q28658  11.013  14.362  10.555
  351ACC    C0028659   9.535  15.617   9.646
  351ACC    C0128660   9.680  15.662   9.639
  351ACC    O0228661   9.729  15.706   9.536
  351ACC    O0328662   9.745  15.647   9.756
  351ACC    C0428663   9.883  15.680   9.763
  351ACC    C0528664   9.902  15.834   9.779
  351ACC    N0628665  10.044  15.881   9.769
  351ACC    C0728666  10.131  15.815   9.870
  351ACC    C0828667  10.098  15.862   9.632
  351ACC    C0928668  10.047  16.027   9.797
  351ACC    H0A28669   9.484  15.639   9.552
  351ACC    H0B28670   9.483  15.668   9.726
  351ACC    H0C28671   9.530  15.509   9.663
  351ACC    H0D28672   9.932  15.641   9.674
  351ACC    H0E28673   9.925  15.626   9.848
  351ACC    H0F28674   9.857  15.865   9.874
  351ACC    H0G28675   9.842  15.885   9.704
  351ACC    H0H28676  10.145  15.708   9.851
  351ACC    H0I28677  10.090  15.825   9.971
  351ACC    H0J28678  10.231  15.859   9.873
  351ACC    H0K28679  10.110  15.757   9.605
  351ACC    H0M28680  10.195  15.909   9.618
  351ACC    H0N28681  10.031  15.906   9.557
  351ACC    H0O28682  10.014  16.049   9.899
  351ACC    H0P28683   9.979  16.083   9.732
  351ACC    H0Q28684  10.145  16.073   9.787
  352ACC    C0028685  14.464   6.437  11.980
  352ACC    C0128686  14.580   6.529  12.011
  352ACC    O0228687  14.669   6.553  11.930
  352ACC    O0328688  14.573   6.581  12.135
  352ACC    C0428689  14.666   6.681  12.174
  352ACC    C0528690  14.622   6.817  12.116
  352ACC    N0628691  14.722   6.928  12.128
  352ACC    C0728692  14.769   6.947  12.268
  352ACC    C0828693  14.839   6.903  12.038
  352ACC    C0928694  14.656   7.054  12.083
  352ACC    H0A28695  14.466   6.405  11.876
  352ACC    H0B28696  14.369   6.487  11.999
  352ACC    H0C28697  14.468   6.347  12.042
  352ACC    H0D28698  14.765   6.650  12.140
  352ACC    H0E28699  14.668   6.682  12.283
  352ACC    H0F28700  14.527   6.845  12.164
  352ACC    H0G28701  14.594   6.805  12.011
  352ACC    H0H28702  14.825   6.861  12.305
  352ACC    H0I28703  14.685   6.962  12.337
  352ACC    H0J28704  14.835   7.033  12.278
  352ACC    H0K28705  14.897   6.815  12.067
  352ACC    H0M28706  14.908   6.987  12.035
  352ACC    H0N28707  14.806   6.885  11.935
  352ACC    H0O28708  14.569   7.078  12.144
  352ACC    H0P28709  14.617   7.044  11.981
  352ACC    H0Q28710  14.722   7.140  12.084
  353ACC    C0028711   6.347   3.663   1.277
  353ACC    C0128712   6.299   3.807   1.278
  353ACC    O0228713   6.309   3.877   1.378
  353ACC    O0328714   6.248   3.845   1.160
  353ACC    C0428715   6.180   3.970   1.149
  353ACC    C0528716   6.280   4.088   1.148
  353ACC    N0628717   6.218   4.225   1.143
  353ACC    C0728718   6.138   4.245   1.019
  353ACC    C0828719   6.131   4.249   1.262
  353ACC    C0928720   6.329   4.325   1.145
  353ACC    H0A28721   6.374   3.632   1.378
  353ACC    H0B28722   6.435   3.652   1.213
  353ACC    H0C28723   6.268   3.597   1.241
  353ACC    H0D28724   6.108   3.976   1.231
  353ACC    H0E28725   6.121   3.966   1.057
  353ACC    H0F28726   6.347   4.074   1.063
  353ACC    H0G28727   6.343   4.081   1.237
  353ACC    H0H28728   6.049   4.181   1.016
  353ACC    H0I28729   6.195   4.223   0.928
  353ACC    H0J28730   6.101   4.347   1.010
  353ACC    H0K28731   6.040   4.189   1.263
  353ACC    H0M28732   6.096   4.353   1.268
  353ACC    H0N28733   6.183   4.229   1.357
  353ACC    H0O28734   6.396   4.313   1.060
  353ACC    H0P28735   6.390   4.317   1.235
  353ACC    H0Q28736   6.291   4.428   1.142
  354ACC    C0028737   2.363   8.906  13.403
  354ACC    C0128738   2.493   8.850  13.457
  354ACC    O0228739   2.540   8.886  13.565
  354ACC    O0328740   2.549   8.757  13.377
  354ACC    C0428741   2.673   8.700  13.412
  354ACC    C0528742   2.653   8.594  13.524
  354ACC    N0628743   2.778   8.541  13.587
  354ACC    C0728744   2.867   8.478  13.485
  354ACC    C0828745   2.851   8.649  13.660
  354ACC    C0928746   2.738   8.437  13.686
  354ACC    H0A28747   2.321   8.979  13.472
  354ACC    H0B28748   2.290   8.826  13.389
  354ACC    H0C28749   2.380   8.955  13.308
  354ACC    H0D28750   2.740   8.781  13.442
  354ACC    H0E28751   2.716   8.656  13.322
  354ACC    H0F28752   2.592   8.513  13.482
  354ACC    H0G28753   2.590   8.638  13.602
  354ACC    H0H28754   2.906   8.551  13.414
  354ACC    H0I28755   2.815   8.402  13.427
  354ACC    H0J28756   2.954   8.430  13.531
  354ACC    H0K28757   2.893   8.725  13.593
  354ACC    H0M28758   2.935   8.610  13.718
  354ACC    H0N28759   2.786   8.702  13.730
  354ACC    H0O28760   2.683   8.355  13.640
  354ACC    H0P28761   2.672   8.478  13.764
  354ACC    H0Q28762   2.823   8.393  13.738
  355ACC    C0028763  13.114  10.195  14.207
  355ACC    C0128764  13.205  10.184  14.328
  355ACC    O0228765  13.245  10.075  14.370
  355ACC    O0328766  13.238  10.303  14.381
  355ACC    C0428767  13.313  10.307  14.502
  355ACC    C0528768  13.462  10.276  14.472
  355ACC    N0628769  13.551  10.261  14.592
  355ACC    C0728770  13.551  10.386  14.674
  355ACC    C0828771  13.509  10.145  14.675
  355ACC    C0928772  13.689  10.235  14.543
  355ACC    H0A28773  13.088  10.096  14.169
  355ACC    H0B28774  13.163  10.251  14.127
  355ACC    H0C28775  13.022  10.247  14.234
  355ACC    H0D28776  13.268  10.237  14.572
  355ACC    H0E28777  13.300  10.407  14.544
  355ACC    H0F28778  13.499  10.355  14.405
  355ACC    H0G28779  13.467  10.184  14.412
  355ACC    H0H28780  13.454  10.405  14.721
  355ACC    H0I28781  13.575  10.474  14.615
  355ACC    H0J28782  13.623  10.380  14.757
  355ACC    H0K28783  13.412  10.160  14.724
  355ACC    H0M28784  13.580  10.123  14.756
  355ACC    H0N28785  13.499  10.053  14.616
  355ACC    H0O28786  13.726  10.316  14.480
  355ACC    H0P28787  13.694  10.143  14.483
  355ACC    H0Q28788  13.760  10.223  14.625
  356ACC    C0028789   3.506   7.293  13.917
  356ACC    C0128790   3.410   7.407  13.893
  356ACC    O0228791   3.377   7.486  13.981
  356ACC    O0328792   3.367   7.410  13.765
  356ACC    C0428793   3.280   7.514  13.723
  356ACC    C0528794   3.364   7.639  13.688
  356ACC    N0628795   3.285   7.763  13.661
  356ACC    C0728796   3.185   7.742  13.553
  356ACC    C0828797   3.217   7.810  13.785
  356ACC    C0928798   3.381   7.869  13.617
  356ACC    H0A28799   3.563   7.305  14.009
  356ACC    H0B28800   3.578   7.290  13.835
  356ACC    H0C28801   3.456   7.196  13.919
  356ACC    H0D28802   3.206   7.531  13.802
  356ACC    H0E28803   3.225   7.476  13.637
  356ACC    H0F28804   3.427   7.613  13.603
  356ACC    H0G28805   3.435   7.657  13.770
  356ACC    H0H28806   3.106   7.672  13.582
  356ACC    H0I28807   3.230   7.703  13.461
  356ACC    H0J28808   3.133   7.835  13.526
  356ACC    H0K28809   3.139   7.742  13.820
  356ACC    H0M28810   3.169   7.907  13.772
  356ACC    H0N28811   3.288   7.821  13.869
  356ACC    H0O28812   3.434   7.841  13.525
  356ACC    H0P28813   3.458   7.889  13.692
  356ACC    H0Q28814   3.331   7.964  13.596
  357ACC    C0028815   2.102  10.268  13.675
  357ACC    C0128816   1.975  10.189  13.703
  357ACC    O0228817   1.882  10.184  13.622
  357ACC    O0328818   1.978  10.128  13.822
  357ACC    C0428819   1.864  10.059  13.869
  357ACC    C0528820   1.853   9.918  13.804
  357ACC    N0628821   1.727   9.843  13.836
  357ACC    C0728822   1.716   9.819  13.982
  357ACC    C0828823   1.607   9.915  13.785
  357ACC    C0928824   1.733   9.711  13.768
  357ACC    H0A28825   2.099  10.315  13.577
  357ACC    H0B28826   2.190  10.203  13.680
  357ACC    H0C28827   2.114  10.346  13.750
  357ACC    H0D28828   1.777  10.121  13.850
  357ACC    H0E28829   1.875  10.051  13.978
  357ACC    H0F28830   1.941   9.860  13.834
  357ACC    H0G28831   1.864   9.929  13.696
  357ACC    H0H28832   1.702   9.910  14.040
  357ACC    H0I28833   1.807   9.770  14.021
  357ACC    H0J28834   1.632   9.753  14.007
  357ACC    H0K28835   1.588  10.009  13.837
  357ACC    H0M28836   1.516   9.855  13.794
  357ACC    H0N28837   1.618   9.940  13.679
  357ACC    H0O28838   1.811   9.648  13.810
  357ACC    H0P28839   1.756   9.719  13.661
  357ACC    H0Q28840   1.641   9.653  13.778
  358ACC    C0028841   2.738   0.657  10.132
  358ACC    C0128842   2.890   0.643  10.131
  358ACC    O0228843   2.955   0.640  10.236
  358ACC    O0328844   2.941   0.634  10.008
  358ACC    C0428845   3.082   0.629   9.990
  358ACC    C0528846   3.136   0.488  10.024
  358ACC    N0628847   3.285   0.474  10.024
  358ACC    C0728848   3.344   0.508   9.891
  358ACC    C0828849   3.347   0.559  10.130
  358ACC    C0928850   3.317   0.331  10.054
  358ACC    H0A28851   2.701   0.667  10.234
  358ACC    H0B28852   2.692   0.570  10.086
  358ACC    H0C28853   2.708   0.746  10.077
  358ACC    H0D28854   3.126   0.707  10.052
  358ACC    H0E28855   3.102   0.656   9.886
  358ACC    H0F28856   3.091   0.418   9.953
  358ACC    H0G28857   3.097   0.458  10.122
  358ACC    H0H28858   3.331   0.613   9.865
  358ACC    H0I28859   3.298   0.450   9.810
  358ACC    H0J28860   3.451   0.488   9.887
  358ACC    H0K28861   3.337   0.666  10.110
  358ACC    H0M28862   3.454   0.540  10.141
  358ACC    H0N28863   3.301   0.542  10.228
  358ACC    H0O28864   3.276   0.263   9.980
  358ACC    H0P28865   3.278   0.300  10.152
  358ACC    H0Q28866   3.425   0.312  10.057
  359ACC    C0028867  15.661   0.908  10.709
  359ACC    C0128868  15.535   0.947  10.784
  359ACC    O0228869  15.426   0.896  10.757
  359ACC    O0328870  15.557   1.042  10.876
  359ACC    C0428871  15.454   1.077  10.967
  359ACC    C0528872  15.456   0.976  11.085
  359ACC    N0628873  15.345   0.987  11.185
  359ACC    C0728874  15.335   1.126  11.240
  359ACC    C0828875  15.216   0.944  11.123
  359ACC    C0928876  15.373   0.895  11.298
  359ACC    H0A28877  15.645   0.816  10.652
  359ACC    H0B28878  15.742   0.889  10.780
  359ACC    H0C28879  15.691   0.988  10.642
  359ACC    H0D28880  15.358   1.078  10.915
  359ACC    H0E28881  15.474   1.178  11.002
  359ACC    H0F28882  15.554   0.981  11.134
  359ACC    H0G28883  15.454   0.875  11.042
  359ACC    H0H28884  15.306   1.198  11.164
  359ACC    H0I28885  15.430   1.158  11.281
  359ACC    H0J28886  15.261   1.132  11.320
  359ACC    H0K28887  15.184   1.010  11.042
  359ACC    H0M28888  15.135   0.940  11.195
  359ACC    H0N28889  15.226   0.844  11.080
  359ACC    H0O28890  15.472   0.911  11.343
  359ACC    H0P28891  15.373   0.790  11.266
  359ACC    H0Q28892  15.300   0.901  11.378
  360ACC    C0028893  12.480  12.381   5.427
  360ACC    C0128894  12.364  12.291   5.467
  360ACC    O0228895  12.273  12.266   5.389
  360ACC    O0328896  12.373  12.247   5.594
  360ACC    C0428897  12.275  12.157   5.644
  360ACC    C0528898  12.320  12.012   5.614
  360ACC    N0628899  12.226  11.904   5.659
  360ACC    C0728900  12.198  11.911   5.806
  360ACC    C0828901  12.097  11.911   5.583
  360ACC    C0928902  12.291  11.773   5.631
  360ACC    H0A28903  12.483  12.390   5.319
  360ACC    H0B28904  12.574  12.339   5.461
  360ACC    H0C28905  12.466  12.480   5.470
  360ACC    H0D28906  12.178  12.179   5.601
  360ACC    H0E28907  12.267  12.175   5.752
  360ACC    H0F28908  12.419  11.996   5.657
  360ACC    H0G28909  12.335  12.002   5.506
  360ACC    H0H28910  12.141  12.000   5.833
  360ACC    H0I28911  12.290  11.911   5.865
  360ACC    H0J28912  12.138  11.826   5.839
  360ACC    H0K28913  12.036  11.998   5.610
  360ACC    H0M28914  12.036  11.822   5.597
  360ACC    H0N28915  12.115  11.919   5.476
  360ACC    H0O28916  12.384  11.759   5.686
  360ACC    H0P28917  12.316  11.761   5.526
  360ACC    H0Q28918  12.227  11.688   5.656
  361ACC    C0028919   0.780   3.006   3.645
  361ACC    C0128920   0.639   2.952   3.630
  361ACC    O0228921   0.593   2.924   3.520
  361ACC    O0328922   0.574   2.941   3.748
  361ACC    C0428923   0.438   2.899   3.748
  361ACC    C0528924   0.429   2.745   3.732
  361ACC    N0628925   0.290   2.690   3.720
  361ACC    C0728926   0.207   2.716   3.841
  361ACC    C0828927   0.220   2.748   3.601
  361ACC    C0928928   0.300   2.543   3.700
  361ACC    H0A28929   0.830   3.007   3.548
  361ACC    H0B28930   0.838   2.944   3.713
  361ACC    H0C28931   0.777   3.108   3.683
  361ACC    H0D28932   0.386   2.952   3.667
  361ACC    H0E28933   0.392   2.932   3.841
  361ACC    H0F28934   0.481   2.698   3.815
  361ACC    H0G28935   0.485   2.716   3.643
  361ACC    H0H28936   0.185   2.822   3.855
  361ACC    H0I28937   0.255   2.680   3.932
  361ACC    H0J28938   0.110   2.666   3.834
  361ACC    H0K28939   0.199   2.854   3.607
  361ACC    H0M28940   0.124   2.699   3.583
  361ACC    H0N28941   0.278   2.732   3.509
  361ACC    H0O28942   0.348   2.491   3.783
  361ACC    H0P28943   0.356   2.517   3.610
  361ACC    H0Q28944   0.202   2.496   3.686
  362ACC    C0028945   6.876  15.933   3.536
  362ACC    C0128946   6.881  15.960   3.685
  362ACC    O0228947   6.888  15.869   3.767
  362ACC    O0328948   6.876  16.091   3.714
  362ACC    C0428949   6.887  16.133   3.850
  362ACC    C0528950   7.037  16.139   3.889
  362ACC    N0628951   7.066  16.168   4.033
  362ACC    C0728952   7.000  16.294   4.078
  362ACC    C0828953   7.022  16.054   4.119
  362ACC    C0928954   7.213  16.183   4.048
  362ACC    H0A28955   6.899  15.828   3.516
  362ACC    H0B28956   6.949  15.994   3.483
  362ACC    H0C28957   6.777  15.955   3.497
  362ACC    H0D28958   6.830  16.065   3.913
  362ACC    H0E28959   6.840  16.231   3.858
  362ACC    H0F28960   7.085  16.213   3.824
  362ACC    H0G28961   7.084  16.044   3.861
  362ACC    H0H28962   6.891  16.287   4.079
  362ACC    H0I28963   7.026  16.379   4.014
  362ACC    H0J28964   7.029  16.322   4.180
  362ACC    H0K28965   6.914  16.040   4.120
  362ACC    H0M28966   7.052  16.068   4.223
  362ACC    H0N28967   7.066  15.959   4.086
  362ACC    H0O28968   7.253  16.265   3.988
  362ACC    H0P28969   7.267  16.093   4.016
  362ACC    H0Q28970   7.243  16.202   4.151
  363ACC    C0028971   9.007   3.889  11.117
  363ACC    C0128972   9.052   3.745  11.124
  363ACC    O0228973   9.003   3.665  11.204
  363ACC    O0328974   9.148   3.716  11.035
  363ACC    C0428975   9.209   3.588  11.034
  363ACC    C0528976   9.116   3.485  10.964
  363ACC    N0628977   9.163   3.342  10.967
  363ACC    C0728978   9.295   3.327  10.900
  363ACC    C0828979   9.171   3.291  11.107
  363ACC    C0928980   9.063   3.259  10.893
  363ACC    H0A28981   8.931   3.909  11.193
  363ACC    H0B28982   8.965   3.912  11.019
  363ACC    H0C28983   9.091   3.956  11.135
  363ACC    H0D28984   9.233   3.560  11.137
  363ACC    H0E28985   9.304   3.597  10.981
  363ACC    H0F28986   9.102   3.518  10.861
  363ACC    H0G28987   9.017   3.491  11.009
  363ACC    H0H28988   9.376   3.378  10.953
  363ACC    H0I28989   9.294   3.366  10.798
  363ACC    H0J28990   9.326   3.222  10.893
  363ACC    H0K28991   9.250   3.339  11.165
  363ACC    H0M28992   9.192   3.184  11.111
  363ACC    H0N28993   9.078   3.308  11.162
  363ACC    H0O28994   9.053   3.290  10.789
  363ACC    H0P28995   8.963   3.265  10.938
  363ACC    H0Q28996   9.090   3.154  10.891
  364ACC    C0028997   4.967   9.747   8.667
  364ACC    C0128998   4.993   9.616   8.596
  364ACC    O0228999   4.991   9.508   8.656
  364ACC    O0329000   5.018   9.631   8.465
  364ACC    C0429001   5.050   9.517   8.386
  364ACC    C0529002   4.920   9.438   8.352
  364ACC    N0629003   4.940   9.307   8.283
  364ACC    C0729004   5.014   9.323   8.154
  364ACC    C0829005   5.013   9.210   8.371
  364ACC    C0929006   4.806   9.250   8.253
  364ACC    H0A29007   4.945   9.730   8.773
  364ACC    H0B29008   4.881   9.798   8.622
  364ACC    H0C29009   5.054   9.813   8.661
  364ACC    H0D29010   5.123   9.457   8.441
  364ACC    H0E29011   5.100   9.552   8.296
  364ACC    H0F29012   4.857   9.504   8.293
  364ACC    H0G29013   4.865   9.422   8.445
  364ACC    H0H29014   5.117   9.356   8.168
  364ACC    H0I29015   4.966   9.396   8.088
  364ACC    H0J29016   5.020   9.230   8.098
  364ACC    H0K29017   5.116   9.239   8.390
  364ACC    H0M29018   5.017   9.110   8.328
  364ACC    H0N29019   4.965   9.201   8.469
  364ACC    H0O29020   4.747   9.315   8.189
  364ACC    H0P29021   4.747   9.235   8.344
  364ACC    H0Q29022   4.811   9.153   8.203
  365ACC    C0029023  10.634   0.514   7.740
  365ACC    C0129024  10.672   0.641   7.814
  365ACC    O0229025  10.615   0.676   7.918
  365ACC    O0329026  10.773   0.706   7.755
  365ACC    C0429027  10.801   0.841   7.789
  365ACC    C0529028  10.888   0.843   7.917
  365ACC    N0629029  10.916   0.978   7.975
  365ACC    C0729030  10.988   1.065   7.877
  365ACC    C0829031  10.789   1.045   8.018
  365ACC    C0929032  11.002   0.959   8.095
  365ACC    H0A29033  10.550   0.464   7.788
  365ACC    H0B29034  10.719   0.447   7.734
  365ACC    H0C29035  10.604   0.540   7.638
  365ACC    H0D29036  10.705   0.893   7.799
  365ACC    H0E29037  10.851   0.885   7.703
  365ACC    H0F29038  10.981   0.791   7.893
  365ACC    H0G29039  10.839   0.780   7.992
  365ACC    H0H29040  10.927   1.089   7.790
  365ACC    H0I29041  11.079   1.017   7.839
  365ACC    H0J29042  11.018   1.160   7.921
  365ACC    H0K29043  10.725   1.072   7.934
  365ACC    H0M29044  10.808   1.137   8.073
  365ACC    H0N29045  10.729   0.980   8.082
  365ACC    H0O29046  11.097   0.910   8.070
  365ACC    H0P29047  10.953   0.896   8.170
  365ACC    H0Q29048  11.027   1.053   8.144
  366ACC    C0029049  14.864   3.543   7.967
  366ACC    C0129050  14.981   3.482   7.892
  366ACC    O0229051  15.044   3.548   7.809
  366ACC    O0329052  15.003   3.355   7.926
  366ACC    C0429053  15.112   3.282   7.868
  366ACC    C0529054  15.240   3.311   7.949
  366ACC    N0629055  15.365   3.246   7.898
  366ACC    C0729056  15.351   3.098   7.886
  366ACC    C0829057  15.404   3.302   7.765
  366ACC    C0929058  15.475   3.274   7.995
  366ACC    H0A29059  14.855   3.649   7.945
  366ACC    H0B29060  14.878   3.530   8.074
  366ACC    H0C29061  14.771   3.493   7.937
  366ACC    H0D29062  15.121   3.308   7.763
  366ACC    H0E29063  15.086   3.176   7.871
  366ACC    H0F29064  15.222   3.281   8.052
  366ACC    H0G29065  15.256   3.420   7.953
  366ACC    H0H29066  15.278   3.068   7.810
  366ACC    H0I29067  15.321   3.051   7.979
  366ACC    H0J29068  15.445   3.052   7.855
  366ACC    H0K29069  15.331   3.280   7.687
  366ACC    H0M29070  15.498   3.258   7.731
  366ACC    H0N29071  15.421   3.409   7.768
  366ACC    H0O29072  15.450   3.247   8.098
  366ACC    H0P29073  15.505   3.379   7.995
  366ACC    H0Q29074  15.566   3.219   7.971
  367ACC    C0029075  16.275   0.843  15.658
  367ACC    C0129076  16.134   0.786  15.648
  367ACC    O0229077  16.096   0.693  15.720
  367ACC    O0329078  16.058   0.847  15.555
  367ACC    C0429079  15.926   0.798  15.532
  367ACC    C0529080  15.832   0.844  15.646
  367ACC    N0629081  15.696   0.781  15.647
  367ACC    C0729082  15.623   0.807  15.520
  367ACC    C0829083  15.705   0.634  15.671
  367ACC    C0929084  15.618   0.841  15.759
  367ACC    H0A29085  16.332   0.789  15.734
  367ACC    H0B29086  16.272   0.948  15.686
  367ACC    H0C29087  16.327   0.833  15.563
  367ACC    H0D29088  15.932   0.690  15.523
  367ACC    H0E29089  15.894   0.836  15.435
  367ACC    H0F29090  15.824   0.953  15.641
  367ACC    H0G29091  15.880   0.824  15.742
  367ACC    H0H29092  15.670   0.758  15.434
  367ACC    H0I29093  15.617   0.914  15.497
  367ACC    H0J29094  15.520   0.770  15.523
  367ACC    H0K29095  15.752   0.580  15.589
  367ACC    H0M29096  15.607   0.588  15.687
  367ACC    H0N29097  15.765   0.611  15.760
  367ACC    H0O29098  15.608   0.950  15.749
  367ACC    H0P29099  15.667   0.824  15.856
  367ACC    H0Q29100  15.517   0.801  15.767
  368ACC    C0029101   2.697   7.586  13.963
  368ACC    C0129102   2.835   7.573  14.026
  368ACC    O0229103   2.922   7.659  14.012
  368ACC    O0329104   2.847   7.460  14.096
  368ACC    C0429105   2.964   7.432  14.172
  368ACC    C0529106   2.946   7.490  14.314
  368ACC    N0629107   3.065   7.479  14.405
  368ACC    C0729108   3.109   7.338  14.421
  368ACC    C0829109   3.178   7.562  14.354
  368ACC    C0929110   3.024   7.531  14.539
  368ACC    H0A29111   2.680   7.687  13.925
  368ACC    H0B29112   2.619   7.564  14.036
  368ACC    H0C29113   2.687   7.515  13.880
  368ACC    H0D29114   3.052   7.472  14.120
  368ACC    H0E29115   2.975   7.324  14.174
  368ACC    H0F29116   2.859   7.439  14.359
  368ACC    H0G29117   2.915   7.595  14.305
  368ACC    H0H29118   3.148   7.295  14.328
  368ACC    H0I29119   3.027   7.273  14.454
  368ACC    H0J29120   3.188   7.328  14.495
  368ACC    H0K29121   3.220   7.524  14.261
  368ACC    H0M29122   3.261   7.565  14.425
  368ACC    H0N29123   3.148   7.666  14.337
  368ACC    H0O29124   2.943   7.473  14.583
  368ACC    H0P29125   2.990   7.635  14.535
  368ACC    H0Q29126   3.106   7.528  14.611
  369ACC    C0029127   2.926   1.921   6.038
  369ACC    C0129128   3.060   1.910   5.967
  369ACC    O0229129   3.073   1.940   5.848
  369ACC    O0329130   3.159   1.865   6.047
  369ACC    C0429131   3.285   1.832   5.992
  369ACC    C0529132   3.366   1.960   5.958
  369ACC    N0629133   3.499   1.937   5.891
  369ACC    C0729134   3.592   1.861   5.980
  369ACC    C0829135   3.482   1.864   5.761
  369ACC    C0929136   3.559   2.070   5.862
  369ACC    H0A29137   2.847   1.943   5.966
  369ACC    H0B29138   2.929   2.002   6.111
  369ACC    H0C29139   2.902   1.828   6.089
  369ACC    H0D29140   3.268   1.768   5.905
  369ACC    H0E29141   3.337   1.770   6.066
  369ACC    H0F29142   3.379   2.017   6.050
  369ACC    H0G29143   3.305   2.023   5.894
  369ACC    H0H29144   3.558   1.759   5.998
  369ACC    H0I29145   3.604   1.909   6.077
  369ACC    H0J29146   3.692   1.852   5.936
  369ACC    H0K29147   3.450   1.761   5.774
  369ACC    H0M29148   3.575   1.860   5.704
  369ACC    H0N29149   3.407   1.912   5.697
  369ACC    H0O29150   3.574   2.129   5.953
  369ACC    H0P29151   3.496   2.130   5.795
  369ACC    H0Q29152   3.657   2.062   5.813
  370ACC    C0029153  15.468   4.684  10.884
  370ACC    C0129154  15.619   4.687  10.905
  370ACC    O0229155  15.674   4.616  10.989
  370ACC    O0329156  15.681   4.773  10.823
  370ACC    C0429157  15.822   4.793  10.834
  370ACC    C0529158  15.899   4.677  10.766
  370ACC    N0629159  16.049   4.681  10.780
  370ACC    C0729160  16.106   4.806  10.721
  370ACC    C0829161  16.090   4.670  10.923
  370ACC    C0929162  16.106   4.565  10.705
  370ACC    H0A29163  15.421   4.614  10.953
  370ACC    H0B29164  15.445   4.653  10.782
  370ACC    H0C29165  15.426   4.783  10.900
  370ACC    H0D29166  15.847   4.803  10.940
  370ACC    H0E29167  15.844   4.889  10.787
  370ACC    H0F29168  15.872   4.676  10.660
  370ACC    H0G29169  15.862   4.582  10.805
  370ACC    H0H29170  16.076   4.896  10.775
  370ACC    H0I29171  16.077   4.819  10.617
  370ACC    H0J29172  16.215   4.805  10.723
  370ACC    H0K29173  16.062   4.757  10.982
  370ACC    H0M29174  16.198   4.659  10.934
  370ACC    H0N29175  16.044   4.583  10.972
  370ACC    H0O29176  16.082   4.568  10.599
  370ACC    H0P29177  16.069   4.469  10.743
  370ACC    H0Q29178  16.215   4.561  10.711
  371ACC    C0029179   3.108   6.839  13.279
  371ACC    C0129180   3.219   6.934  13.320
  371ACC    O0229181   3.275   6.925  13.429
  371ACC    O0329182   3.248   7.027  13.227
  371ACC    C0429183   3.348   7.124  13.253
  371ACC    C0529184   3.488   7.063  13.232
  371ACC    N0629185   3.604   7.150  13.271
  371ACC    C0729186   3.600   7.281  13.200
  371ACC    C0829187   3.608   7.171  13.419
  371ACC    C0929188   3.730   7.080  13.232
  371ACC    H0A29189   3.094   6.762  13.354
  371ACC    H0B29190   3.132   6.791  13.184
  371ACC    H0C29191   3.014   6.892  13.267
  371ACC    H0D29192   3.333   7.162  13.354
  371ACC    H0E29193   3.329   7.207  13.185
  371ACC    H0F29194   3.496   7.034  13.127
  371ACC    H0G29195   3.494   6.969  13.287
  371ACC    H0H29196   3.515   7.342  13.230
  371ACC    H0I29197   3.594   7.269  13.092
  371ACC    H0J29198   3.690   7.341  13.220
  371ACC    H0K29199   3.523   7.228  13.457
  371ACC    H0M29200   3.698   7.224  13.452
  371ACC    H0N29201   3.607   7.076  13.474
  371ACC    H0O29202   3.736   7.061  13.125
  371ACC    H0P29203   3.739   6.983  13.282
  371ACC    H0Q29204   3.819   7.137  13.259
  372ACC    C0029205  16.159  16.317   1.699
  372ACC    C0129206  16.011  16.324   1.730
  372ACC    O0229207  15.931  16.241   1.687
  372ACC    O0329208  15.979  16.429   1.808
  372ACC    C0429209  15.843  16.454   1.840
  372ACC    C0529210  15.796  16.358   1.952
  372ACC    N0629211  15.650  16.363   1.986
  372ACC    C0729212  15.610  16.499   2.032
  372ACC    C0829213  15.567  16.322   1.869
  372ACC    C0929214  15.626  16.266   2.097
  372ACC    H0A29215  16.181  16.232   1.635
  372ACC    H0B29216  16.217  16.307   1.791
  372ACC    H0C29217  16.192  16.408   1.648
  372ACC    H0D29218  15.784  16.446   1.749
  372ACC    H0E29219  15.837  16.558   1.873
  372ACC    H0F29220  15.857  16.378   2.041
  372ACC    H0G29221  15.823  16.256   1.923
  372ACC    H0H29222  15.618  16.575   1.953
  372ACC    H0I29223  15.672  16.534   2.115
  372ACC    H0J29224  15.506  16.502   2.066
  372ACC    H0K29225  15.571  16.394   1.787
  372ACC    H0M29226  15.462  16.312   1.895
  372ACC    H0N29227  15.599  16.226   1.827
  372ACC    H0O29228  15.684  16.291   2.186
  372ACC    H0P29229  15.653  16.164   2.069
  372ACC    H0Q29230  15.521  16.264   2.127
  373ACC    C0029231   6.247  10.249   7.206
  373ACC    C0129232   6.123  10.200   7.280
  373ACC    O0229233   6.128  10.163   7.397
  373ACC    O0329234   6.013  10.202   7.204
  373ACC    C0429235   5.890  10.152   7.255
  373ACC    C0529236   5.827  10.255   7.352
  373ACC    N0629237   5.704  10.208   7.424
  373ACC    C0729238   5.595  10.172   7.329
  373ACC    C0829239   5.734  10.092   7.513
  373ACC    C0929240   5.656  10.321   7.510
  373ACC    H0A29241   6.335  10.243   7.271
  373ACC    H0B29242   6.234  10.353   7.175
  373ACC    H0C29243   6.265  10.188   7.118
  373ACC    H0D29244   5.911  10.056   7.303
  373ACC    H0E29245   5.825  10.131   7.170
  373ACC    H0F29246   5.806  10.345   7.295
  373ACC    H0G29247   5.902  10.284   7.426
  373ACC    H0H29248   5.620  10.084   7.269
  373ACC    H0I29249   5.573  10.253   7.259
  373ACC    H0J29250   5.502  10.147   7.381
  373ACC    H0K29251   5.759  10.001   7.458
  373ACC    H0M29252   5.649  10.066   7.577
  373ACC    H0N29253   5.819  10.112   7.580
  373ACC    H0O29254   5.631  10.410   7.451
  373ACC    H0P29255   5.731  10.352   7.583
  373ACC    H0Q29256   5.566  10.295   7.566
  374ACC    C0029257   3.440   6.334   4.095
  374ACC    C0129258   3.465   6.352   4.244
  374ACC    O0229259   3.455   6.462   4.299
  374ACC    O0329260   3.498   6.238   4.305
  374ACC    C0429261   3.521   6.237   4.445
  374ACC    C0529262   3.385   6.233   4.519
  374ACC    N0629263   3.391   6.251   4.668
  374ACC    C0729264   3.479   6.149   4.731
  374ACC    C0829265   3.437   6.389   4.703
  374ACC    C0929266   3.253   6.233   4.722
  374ACC    H0A29267   3.402   6.426   4.050
  374ACC    H0B29268   3.365   6.256   4.078
  374ACC    H0C29269   3.531   6.305   4.044
  374ACC    H0D29270   3.581   6.324   4.471
  374ACC    H0E29271   3.581   6.149   4.468
  374ACC    H0F29272   3.336   6.139   4.493
  374ACC    H0G29273   3.319   6.310   4.476
  374ACC    H0H29274   3.584   6.161   4.703
  374ACC    H0I29275   3.450   6.047   4.704
  374ACC    H0J29276   3.476   6.154   4.840
  374ACC    H0K29277   3.541   6.407   4.674
  374ACC    H0M29278   3.430   6.408   4.810
  374ACC    H0N29279   3.377   6.465   4.653
  374ACC    H0O29280   3.212   6.134   4.700
  374ACC    H0P29281   3.182   6.305   4.679
  374ACC    H0Q29282   3.248   6.246   4.830
  375ACC    C0029283   3.085   7.688   5.443
  375ACC    C0129284   3.229   7.733   5.431
  375ACC    O0229285   3.276   7.821   5.503
  375ACC    O0329286   3.298   7.667   5.337
  375ACC    C0429287   3.430   7.706   5.305
  375ACC    C0529288   3.529   7.656   5.414
  375ACC    N0629289   3.670   7.704   5.401
  375ACC    C0729290   3.730   7.661   5.271
  375ACC    C0829291   3.678   7.853   5.413
  375ACC    C0929292   3.749   7.644   5.512
  375ACC    H0A29293   3.032   7.748   5.518
  375ACC    H0B29294   3.079   7.583   5.473
  375ACC    H0C29295   3.033   7.700   5.348
  375ACC    H0D29296   3.431   7.815   5.294
  375ACC    H0E29297   3.454   7.664   5.207
  375ACC    H0F29298   3.524   7.547   5.414
  375ACC    H0G29299   3.490   7.686   5.512
  375ACC    H0H29300   3.682   7.709   5.185
  375ACC    H0I29301   3.722   7.553   5.256
  375ACC    H0J29302   3.836   7.687   5.264
  375ACC    H0K29303   3.632   7.905   5.329
  375ACC    H0M29304   3.781   7.889   5.418
  375ACC    H0N29305   3.628   7.889   5.503
  375ACC    H0O29306   3.748   7.535   5.509
  375ACC    H0P29307   3.711   7.673   5.610
  375ACC    H0Q29308   3.854   7.674   5.509
  376ACC    C0029309   9.067  14.545   0.697
  376ACC    C0129310   9.127  14.558   0.836
  376ACC    O0229311   9.123  14.663   0.899
  376ACC    O0329312   9.182  14.443   0.880
  376ACC    C0429313   9.247  14.440   1.006
  376ACC    C0529314   9.143  14.431   1.120
  376ACC    N0629315   9.198  14.438   1.260
  376ACC    C0729316   9.296  14.328   1.285
  376ACC    C0829317   9.262  14.570   1.286
  376ACC    C0929318   9.084  14.422   1.355
  376ACC    H0A29319   9.023  14.640   0.666
  376ACC    H0B29320   8.989  14.469   0.696
  376ACC    H0C29321   9.144  14.518   0.625
  376ACC    H0D29322   9.311  14.528   1.014
  376ACC    H0E29323   9.314  14.353   1.006
  376ACC    H0F29324   9.086  14.338   1.106
  376ACC    H0G29325   9.070  14.511   1.107
  376ACC    H0H29326   9.387  14.338   1.226
  376ACC    H0I29327   9.254  14.229   1.264
  376ACC    H0J29328   9.329  14.326   1.390
  376ACC    H0K29329   9.353  14.586   1.228
  376ACC    H0M29330   9.291  14.582   1.391
  376ACC    H0N29331   9.195  14.653   1.262
  376ACC    H0O29332   9.033  14.326   1.343
  376ACC    H0P29333   9.009  14.500   1.342
  376ACC    H0Q29334   9.116  14.426   1.459
  377ACC    C0029335   5.181  15.220  12.093
  377ACC    C0129336   5.202  15.364  12.049
  377ACC    O0229337   5.300  15.429  12.083
  377ACC    O0329338   5.103  15.409  11.969
  377ACC    C0429339   5.103  15.544  11.926
  377ACC    C0529340   5.205  15.563  11.810
  377ACC    N0629341   5.224  15.704  11.764
  377ACC    C0729342   5.097  15.763  11.713
  377ACC    C0829343   5.280  15.790  11.873
  377ACC    C0929344   5.323  15.702  11.651
  377ACC    H0A29345   5.262  15.189  12.159
  377ACC    H0B29346   5.180  15.153  12.006
  377ACC    H0C29347   5.087  15.210  12.146
  377ACC    H0D29348   5.124  15.607  12.012
  377ACC    H0E29349   5.002  15.567  11.893
  377ACC    H0F29350   5.174  15.499  11.727
  377ACC    H0G29351   5.301  15.522  11.842
  377ACC    H0H29352   5.022  15.776  11.792
  377ACC    H0I29353   5.051  15.701  11.635
  377ACC    H0J29354   5.112  15.862  11.670
  377ACC    H0K29355   5.209  15.806  11.954
  377ACC    H0M29356   5.307  15.890  11.837
  377ACC    H0N29357   5.369  15.747  11.918
  377ACC    H0O29358   5.288  15.642  11.567
  377ACC    H0P29359   5.419  15.661  11.682
  377ACC    H0Q29360   5.343  15.802  11.612
  378ACC    C0029361  15.306  14.817   7.664
  378ACC    C0129362  15.431  14.790   7.583
  378ACC    O0229363  15.426  14.767   7.462
  378ACC    O0329364  15.543  14.794   7.657
  378ACC    C0429365  15.668  14.760   7.598
  378ACC    C0529366  15.722  14.877   7.512
  378ACC    N0629367  15.845  14.844   7.433
  378ACC    C0729368  15.957  14.806   7.523
  378ACC    C0829369  15.817  14.736   7.333
  378ACC    C0929370  15.888  14.965   7.356
  378ACC    H0A29371  15.217  14.809   7.601
  378ACC    H0B29372  15.309  14.917   7.706
  378ACC    H0C29373  15.297  14.745   7.745
  378ACC    H0D29374  15.655  14.669   7.540
  378ACC    H0E29375  15.737  14.736   7.679
  378ACC    H0F29376  15.741  14.962   7.577
  378ACC    H0G29377  15.644  14.910   7.443
  378ACC    H0H29378  15.942  14.708   7.570
  378ACC    H0I29379  15.976  14.879   7.601
  378ACC    H0J29380  16.051  14.796   7.469
  378ACC    H0K29381  15.814  14.637   7.378
  378ACC    H0M29382  15.893  14.730   7.256
  378ACC    H0N29383  15.722  14.751   7.280
  378ACC    H0O29384  15.911  15.050   7.421
  378ACC    H0P29385  15.812  14.998   7.284
  378ACC    H0Q29386  15.978  14.944   7.298
  379ACC    C0029387  14.858   3.517   7.455
  379ACC    C0129388  14.966   3.571   7.364
  379ACC    O0229389  15.058   3.641   7.407
  379ACC    O0329390  14.950   3.535   7.235
  379ACC    C0429391  15.046   3.575   7.138
  379ACC    C0529392  15.168   3.480   7.143
  379ACC    N0629393  15.284   3.516   7.055
  379ACC    C0729394  15.243   3.526   6.912
  379ACC    C0829395  15.346   3.645   7.099
  379ACC    C0929396  15.387   3.409   7.066
  379ACC    H0A29397  14.881   3.539   7.559
  379ACC    H0B29398  14.850   3.409   7.445
  379ACC    H0C29399  14.762   3.562   7.430
  379ACC    H0D29400  15.074   3.679   7.156
  379ACC    H0E29401  14.997   3.572   7.041
  379ACC    H0F29402  15.133   3.379   7.120
  379ACC    H0G29403  15.203   3.473   7.247
  379ACC    H0H29404  15.175   3.609   6.893
  379ACC    H0I29405  15.194   3.435   6.877
  379ACC    H0J29406  15.329   3.542   6.846
  379ACC    H0K29407  15.281   3.731   7.085
  379ACC    H0M29408  15.438   3.667   7.043
  379ACC    H0N29409  15.373   3.643   7.205
  379ACC    H0O29410  15.349   3.311   7.035
  379ACC    H0P29411  15.423   3.396   7.169
  379ACC    H0Q29412  15.475   3.428   7.005
  380ACC    C0029413   9.825   9.988  11.274
  380ACC    C0129414   9.935  10.089  11.249
  380ACC    O0229415   9.996  10.141  11.342
  380ACC    O0329416   9.956  10.112  11.118
  380ACC    C0429417  10.031  10.225  11.076
  380ACC    C0529418  10.183  10.206  11.102
  380ACC    N0629419  10.270  10.321  11.060
  380ACC    C0729420  10.272  10.337  10.912
  380ACC    C0829421  10.224  10.449  11.122
  380ACC    C0929422  10.409  10.294  11.108
  380ACC    H0A29423   9.790   9.997  11.377
  380ACC    H0B29424   9.861   9.887  11.257
  380ACC    H0C29425   9.741  10.008  11.207
  380ACC    H0D29426   9.991  10.312  11.128
  380ACC    H0E29427  10.010  10.240  10.970
  380ACC    H0F29428  10.216  10.114  11.054
  380ACC    H0G29429  10.197  10.189  11.209
  380ACC    H0H29430  10.174  10.365  10.873
  380ACC    H0I29431  10.302  10.245  10.861
  380ACC    H0J29432  10.340  10.416  10.881
  380ACC    H0K29433  10.134  10.486  11.074
  380ACC    H0M29434  10.297  10.530  11.115
  380ACC    H0N29435  10.198  10.438  11.228
  380ACC    H0O29436  10.449  10.201  11.066
  380ACC    H0P29437  10.413  10.285  11.217
  380ACC    H0Q29438  10.478  10.374  11.081
  381ACC    C0029439   8.272   1.266   5.024
  381ACC    C0129440   8.379   1.194   5.106
  381ACC    O0229441   8.413   1.235   5.217
  381ACC    O0329442   8.427   1.085   5.045
  381ACC    C0429443   8.534   1.012   5.105
  381ACC    C0529444   8.481   0.924   5.221
  381ACC    N0629445   8.585   0.852   5.301
  381ACC    C0729446   8.666   0.761   5.216
  381ACC    C0829447   8.675   0.949   5.372
  381ACC    C0929448   8.516   0.770   5.405
  381ACC    H0A29449   8.238   1.355   5.077
  381ACC    H0B29450   8.187   1.201   5.007
  381ACC    H0C29451   8.313   1.297   4.928
  381ACC    H0D29452   8.609   1.084   5.138
  381ACC    H0E29453   8.580   0.952   5.027
  381ACC    H0F29454   8.409   0.853   5.179
  381ACC    H0G29455   8.422   0.987   5.288
  381ACC    H0H29456   8.728   0.815   5.143
  381ACC    H0I29457   8.604   0.691   5.160
  381ACC    H0J29458   8.736   0.701   5.275
  381ACC    H0K29459   8.738   1.006   5.303
  381ACC    H0M29460   8.743   0.900   5.441
  381ACC    H0N29461   8.618   1.023   5.430
  381ACC    H0O29462   8.448   0.697   5.361
  381ACC    H0P29463   8.455   0.832   5.472
  381ACC    H0Q29464   8.585   0.715   5.468
  382ACC    C0029465   8.465   6.484  10.239
  382ACC    C0129466   8.516   6.342  10.253
  382ACC    O0229467   8.489   6.255  10.170
  382ACC    O0329468   8.590   6.323  10.363
  382ACC    C0429469   8.639   6.193  10.394
  382ACC    C0529470   8.762   6.160  10.306
  382ACC    N0629471   8.815   6.020  10.319
  382ACC    C0729472   8.856   5.989  10.459
  382ACC    C0829473   8.714   5.920  10.272
  382ACC    C0929474   8.935   6.008  10.231
  382ACC    H0A29475   8.405   6.495  10.148
  382ACC    H0B29476   8.548   6.554  10.233
  382ACC    H0C29477   8.403   6.511  10.324
  382ACC    H0D29478   8.557   6.122  10.381
  382ACC    H0E29479   8.665   6.193  10.500
  382ACC    H0F29480   8.840   6.233  10.328
  382ACC    H0G29481   8.736   6.178  10.201
  382ACC    H0H29482   8.772   5.987  10.528
  382ACC    H0I29483   8.927   6.063  10.497
  382ACC    H0J29484   8.904   5.892  10.467
  382ACC    H0K29485   8.627   5.914  10.338
  382ACC    H0M29486   8.756   5.819  10.268
  382ACC    H0N29487   8.677   5.942  10.172
  382ACC    H0O29488   9.014   6.078  10.259
  382ACC    H0P29489   8.911   6.028  10.126
  382ACC    H0Q29490   8.980   5.908  10.234
  383ACC    C0029491   7.874  14.484   4.246
  383ACC    C0129492   7.726  14.465   4.215
  383ACC    O0229493   7.682  14.360   4.169
  383ACC    O0329494   7.651  14.573   4.245
  383ACC    C0429495   7.511  14.569   4.224
  383ACC    C0529496   7.443  14.493   4.340
  383ACC    N0629497   7.296  14.468   4.324
  383ACC    C0729498   7.220  14.595   4.305
  383ACC    C0829499   7.270  14.375   4.209
  383ACC    C0929500   7.246  14.402   4.449
  383ACC    H0A29501   7.929  14.392   4.227
  383ACC    H0B29502   7.888  14.512   4.350
  383ACC    H0C29503   7.915  14.563   4.183
  383ACC    H0D29504   7.492  14.525   4.126
  383ACC    H0E29505   7.477  14.673   4.219
  383ACC    H0F29506   7.462  14.549   4.432
  383ACC    H0G29507   7.494  14.398   4.354
  383ACC    H0H29508   7.244  14.645   4.211
  383ACC    H0I29509   7.239  14.666   4.385
  383ACC    H0J29510   7.112  14.578   4.303
  383ACC    H0K29511   7.295  14.419   4.113
  383ACC    H0M29512   7.165  14.345   4.204
  383ACC    H0N29513   7.329  14.283   4.218
  383ACC    H0O29514   7.261  14.464   4.537
  383ACC    H0P29515   7.298  14.307   4.468
  383ACC    H0Q29516   7.140  14.379   4.445
  384ACC    C0029517   5.777   1.831   2.687
  384ACC    C0129518   5.699   1.733   2.773
  384ACC    O0229519   5.724   1.719   2.892
  384ACC    O0329520   5.603   1.669   2.705
  384ACC    C0429521   5.528   1.566   2.769
  384ACC    C0529522   5.419   1.626   2.861
  384ACC    N0629523   5.342   1.528   2.944
  384ACC    C0729524   5.271   1.428   2.859
  384ACC    C0829525   5.431   1.456   3.040
  384ACC    C0929526   5.239   1.603   3.022
  384ACC    H0A29527   5.854   1.881   2.746
  384ACC    H0B29528   5.711   1.906   2.645
  384ACC    H0C29529   5.826   1.778   2.605
  384ACC    H0D29530   5.597   1.501   2.823
  384ACC    H0E29531   5.483   1.504   2.691
  384ACC    H0F29532   5.350   1.683   2.798
  384ACC    H0G29533   5.465   1.700   2.927
  384ACC    H0H29534   5.337   1.361   2.804
  384ACC    H0I29535   5.204   1.473   2.785
  384ACC    H0J29536   5.207   1.362   2.918
  384ACC    H0K29537   5.500   1.388   2.990
  384ACC    H0M29538   5.374   1.394   3.109
  384ACC    H0N29539   5.491   1.525   3.100
  384ACC    H0O29540   5.169   1.655   2.957
  384ACC    H0P29541   5.284   1.677   3.088
  384ACC    H0Q29542   5.179   1.536   3.084
  385ACC    C0029543   3.243   1.628   7.282
  385ACC    C0129544   3.377   1.699   7.290
  385ACC    O0229545   3.395   1.809   7.238
  385ACC    O0329546   3.468   1.631   7.361
  385ACC    C0429547   3.600   1.682   7.373
  385ACC    C0529548   3.604   1.794   7.480
  385ACC    N0629549   3.734   1.867   7.492
  385ACC    C0729550   3.846   1.775   7.527
  385ACC    C0829551   3.766   1.942   7.367
  385ACC    C0929552   3.720   1.967   7.603
  385ACC    H0A29553   3.171   1.688   7.226
  385ACC    H0B29554   3.202   1.611   7.382
  385ACC    H0C29555   3.254   1.532   7.232
  385ACC    H0D29556   3.633   1.715   7.275
  385ACC    H0E29557   3.665   1.598   7.401
  385ACC    H0F29558   3.575   1.750   7.575
  385ACC    H0G29559   3.525   1.866   7.457
  385ACC    H0H29560   3.868   1.704   7.446
  385ACC    H0I29561   3.825   1.716   7.616
  385ACC    H0J29562   3.940   1.828   7.546
  385ACC    H0K29563   3.789   1.876   7.283
  385ACC    H0M29564   3.854   2.006   7.379
  385ACC    H0N29565   3.684   2.006   7.335
  385ACC    H0O29566   3.697   1.919   7.699
  385ACC    H0P29567   3.640   2.038   7.584
  385ACC    H0Q29568   3.811   2.025   7.618
  386CL      CL29569  15.663   8.551  10.486
  387CL      CL29570   7.501  13.693   6.224
  388CL      CL29571   2.882   8.424   3.182
  389CL      CL29572  10.919  14.492  10.333
  390CL      CL29573   2.794   2.559   6.054
  391CL      CL29574   6.888  11.041  12.605
  392CL      CL29575  17.026   3.442  11.330
  393CL      CL29576  15.550  16.148  14.744
  394CL      CL29577  13.893   1.706  10.835
  395CL      CL29578   2.920   9.718   1.140
  396CL      CL29579  11.830   4.305   9.349
  397CL      CL29580   5.815   3.193  10.481
  398CL      CL29581   6.470   5.528   3.091
  399CL      CL29582   5.900   7.165   3.200
  400CL      CL29583   5.059   5.305   3.859
  401CL      CL29584   5.565   6.723  13.641
  402CL      CL29585  17.390   1.124   2.188
  403CL      CL29586  11.518   3.266   9.140
  404CL      CL29587  10.318  13.752  10.311
  405CL      CL29588  14.605   1.426  12.377
  406CL      CL29589   5.401   2.443  13.724
  407CL      CL29590   7.130   3.220  16.271
  408CL      CL29591  11.710   2.484  10.595
  409CL      CL29592  13.776   1.055   9.533
  410CL      CL29593  11.403  11.310   3.071
  411CL      CL29594   2.534   8.968  16.564
  412CL      CL29595  11.198   9.334  11.325
  413CL      CL29596   9.941  10.304  15.488
  414CL      CL29597  14.609  14.297  15.850
  415CL      CL29598  14.522  12.861   5.481
  416CL      CL29599  15.607   5.329   7.995
  417CL      CL29600   0.151   2.495   3.388
  418CL      CL29601   9.373  13.399  11.794
  419CL      CL29602   3.128  13.581  11.783
  420CL      CL29603   6.660  11.004  14.028
  421CL      CL29604  11.354   9.025  13.690
  422CL      CL29605  10.589  10.192   3.040
  423CL      CL29606   5.167   6.389  16.400
  424CL      CL29607  15.574   0.644  11.137
  425CL      CL29608   2.207   0.726   4.499
  426CL      CL29609  15.076   5.828   6.272
  427CL      CL29610   7.164   7.068  12.139
  428CL      CL29611   9.242   1.751   5.584
  429CL      CL29612   2.754   9.959  11.372
  430CL      CL29613  10.724  10.709  12.553
  431CL      CL29614  11.233  10.472   4.026
  432CL      CL29615  17.026   2.553   5.654
  433CL      CL29616  11.178  16.908   3.332
  434CL      CL29617  10.051   1.766  14.673
  435CL      CL29618  16.012   9.012  11.627
  436CL      CL29619   1.568   5.886   4.065
  437CL      CL29620  13.869   7.741   6.371
  438CL      CL29621  13.575  15.698   0.735
  439CL      CL29622   6.254   2.737   8.989
  440CL      CL29623  16.541   2.153   4.697
  441CL      CL29624  14.238  10.931   1.873
  442CL      CL29625   4.679  16.019   6.871
  443CL      CL29626   1.708  10.891   9.948
  444CL      CL29627   4.550  10.650  11.854
  445CL      CL29628   1.253   1.773  11.199
  446CL      CL29629   7.000  13.904  13.525
  447CL      CL29630  16.553   0.498  15.956
  448CL      CL29631  11.293   8.548   1.413
  449CL      CL29632   3.148   0.925   5.459
  450CL      CL29633   8.099  10.823  15.744
  451CL      CL29634   2.212   5.315   6.844
  452CL      CL29635  11.768  15.721  11.191
  453CL      CL29636   7.374  10.880  17.339
  454CL      CL29637   7.157  15.537  12.182
  455CL      CL29638   3.062  14.649  13.379
  456CL      CL29639  15.182   3.480   1.007
  457CL      CL29640  13.706   4.433  16.210
  458CL      CL29641   6.859   0.456   7.551
  459CL      CL29642   4.070  10.724  10.206
  460CL      CL29643  16.846  10.219   2.949
  461CL      CL29644   6.634   1.491   3.849
  462CL      CL29645   1.244   5.738  15.366
  463CL      CL29646   5.582   9.540  12.508
  464CL      CL29647   5.863  13.758  12.503
  465CL      CL29648   6.499   3.835   9.930
  466CL      CL29649  12.501   6.989   9.768
  467CL      CL29650   6.367   2.863  17.337
  468CL      CL29651   1.426  15.191   7.629
  469CL      CL29652   1.009   7.798   3.552
  470CL      CL29653   0.093  14.280  10.652
  471CL      CL29654   0.783   0.515  14.945
  472CL      CL29655   6.555  10.983   0.601
  473CL      CL29656  11.232  12.994   4.979
  474CL      CL29657   2.161   3.275  13.315
  475CL      CL29658   5.838   0.297   9.745
  476CL      CL29659   2.466  11.972  10.577
  477CL      CL29660  10.984  10.711   1.072
  478CL      CL29661   0.978  12.878   9.659
  479CL      CL29662  15.049  10.839  17.116
  480CL      CL29663  13.683   2.345   7.231
  481CL      CL29664   8.730   7.452   6.167
  482CL      CL29665  12.659  17.208  14.851
  483CL      CL29666   5.864   9.063   5.183
  484CL      CL29667   0.763   5.353  10.815
  485CL      CL29668  11.228   5.587  15.475
  486CL      CL29669   0.746   9.242   0.520
  487CL      CL29670   1.874  10.819   1.097
  488CL      CL29671  15.516   7.149   2.269
  489CL      CL29672   1.707   2.781  16.824
  490CL      CL29673   2.361   6.770  14.220
  491CL      CL29674  10.496   5.133   3.290
  492CL      CL29675  15.761   3.333   7.798
  493CL      CL29676  10.670   0.728   7.427
  494CL      CL29677  16.136   0.908   6.377
  495CL      CL29678  16.306   9.286   2.947
  496CL      CL29679  12.663  16.275   1.362
  497CL      CL29680   1.469   0.629   2.701
  498CL      CL29681   1.724   7.271   5.872
  499CL      CL29682   1.975   4.210  14.077
  500CL      CL29683  10.566  14.068   8.987
  501CL      CL29684   2.796   6.366   3.281
  502CL      CL29685  16.380   7.572  16.895
  503CL      CL29686   1.609   4.779   7.509
  504CL      CL29687  14.616   5.347   1.177
  505CL      CL29688   5.195  16.812  12.009
  506CL      CL29689   3.800   0.500  15.351
  507CL      CL29690   0.636   5.319   8.011
  508CL      CL29691  12.277  11.843   5.261
  509CL      CL29692   6.787   4.856   3.232
  510CL      CL29693  14.923   8.442   2.704
  511CL      CL29694   3.463   4.951  12.972
  512CL      CL29695  10.645   9.313  15.419
  513CL      CL29696   7.141  12.005   1.694
  514CL      CL29697  12.680  15.235   6.148
  515CL      CL29698  12.718   3.022  11.388
  516CL      CL29699  13.865  14.035   6.717
  517CL      CL29700  17.134   9.854  12.453
  518CL      CL29701   5.928   5.567   1.159
  519CL      CL29702   3.939  14.613   6.127
  520CL      CL29703   9.635  11.646  17.151
  521CL      CL29704  14.653  16.872  15.453
  522CL      CL29705  15.616   1.844   2.779
  523CL      CL29706  10.592  14.627  14.087
  524CL      CL29707   3.157  12.986   5.714
  525CL      CL29708   0.072  16.626   2.149
  526CL      CL29709   4.999   3.050  17.292
  527CL      CL29710  17.387   2.624   9.143
  528CL      CL29711  11.084   2.633   7.179
  529CL      CL29712  13.812   0.343  15.314
  530CL      CL29713   5.941   9.400  13.813
  531CL      CL29714   4.215  11.407   2.073
  532CL      CL29715   9.969   4.082   4.877
  533CL      CL29716  14.312   6.899  11.949
  534CL      CL29717  12.853  15.441  11.450
  535CL      CL29718  15.041   4.441   6.931
  536CL      CL29719  10.156  15.389   1.016
  537CL      CL29720   5.545   1.195  14.601
  538CL      CL29721   0.593  10.103  13.502
  539CL      CL29722  11.589   0.812  13.606
  540CL      CL29723   1.535  11.128  15.881
  541CL      CL29724  11.695  14.466  16.069
  542CL      CL29725  16.406   2.031  16.094
  543CL      CL29726   9.916  10.584  11.212
  544CL      CL29727  16.574   5.698   1.771
  545CL      CL29728   2.066   2.232   3.018
  546CL      CL29729   2.296  10.231   6.020
  547CL      CL29730   4.645  11.838  15.277
  548CL      CL29731   9.865  11.810  12.737
  549CL      CL29732  14.993   4.955   5.175
  550CL      CL29733  11.644   9.657   7.642
  551CL      CL29734  11.023  11.702  16.417
  552CL      CL29735  13.006   9.674   5.715
  553CL      CL29736   5.501   5.686   2.348
  554CL      CL29737   9.300  15.222   5.492
  555CL      CL29738   8.967   0.911  11.657
  556CL      CL29739   5.673  17.031   7.467
  557CL      CL29740   7.449   3.382   2.356
  558CL      CL29741  16.169  14.678   7.256
  559CL      CL29742   1.613   5.841   2.469
  560CL      CL29743  16.328  14.599   8.171
  561CL      CL29744   4.776  12.330  10.607
  562CL      CL29745   1.598   2.065   7.598
  563CL      CL29746   3.839   7.202  13.845
  564CL      CL29747   2.872   4.265   5.253
  565CL      CL29748  14.799  13.264   0.143
  566CL      CL29749  16.607  16.058  16.503
  567CL      CL29750  14.231   1.649   5.232
  568CL      CL29751   8.488   2.060   2.824
  569CL      CL29752   5.953  15.991  16.298
  570CL      CL29753   2.080   9.592  13.814
  571CL      CL29754  10.712   5.683   5.356
  572CL      CL29755  16.431  17.130  14.144
  573CL      CL29756  16.682  10.441  11.315
  574CL      CL29757  13.665   1.642   3.799
  575CL      CL29758   3.533   3.401   2.610
  576CL      CL29759   2.296  10.541  13.865
  577CL      CL29760  11.365   6.947  10.909
  578CL      CL29761  14.379   1.080   2.878
  579CL      CL29762   9.563   3.032   9.580
  580CL      CL29763  14.026   6.049   0.467
  581CL      CL29764   5.285   2.241   5.371
  582CL      CL29765  14.468  12.825   8.315
  583CL      CL29766   2.139  11.602   6.690
  584CL      CL29767  10.540   6.070  12.706
  585CL      CL29768  17.395   1.064   5.918
  586CL      CL29769   0.186   7.170  10.522
  587CL      CL29770  14.277   1.358  15.610
  588CL      CL29771   1.760   5.926  10.967
  589CL      CL29772  13.442  10.029   7.285
  590CL      CL29773   8.961   9.937  10.278
  591CL      CL29774   8.033  16.196   6.829
  592CL      CL29775   0.279   4.565  14.854
  593CL      CL29776  16.934   3.311  15.412
  594CL      CL29777   6.766  15.441   8.900
  595CL      CL29778   0.765   2.522   8.049
  596CL      CL29779  11.137  17.244   5.836
  597CL      CL29780   2.696   9.207   8.160
  598CL      CL29781  13.681  15.051   1.635
  599CL      CL29782   3.395  10.050   0.427
  600CL      CL29783   1.752  14.902  12.777
  601CL      CL29784   6.144   8.438   6.336
  602CL      CL29785   7.727  12.786   5.427
  603CL      CL29786   6.110  14.773  17.059
  604CL      CL29787  14.384  10.176  16.375
  605CL      CL29788   4.881   5.600   6.294
  606CL      CL29789   9.782  16.203   9.906
  607CL      CL29790   6.503  11.318   5.783
  608CL      CL29791   1.911   3.135  12.094
  609CL      CL29792  12.525   9.366   9.488
  610CL      CL29793   0.941  10.232   3.829
  611CL      CL29794   8.098   9.889   2.692
  612CL      CL29795   6.922   2.489   3.578
  613CL      CL29796  16.193  12.424   5.898
  614CL      CL29797   0.636  13.907   9.925
  615CL      CL29798   5.865   3.607   6.269
  616CL      CL29799  14.496  13.176  16.087
  617CL      CL29800  15.964  11.258   0.925
  618CL      CL29801  12.121   2.130  12.505
  619CL      CL29802   5.082  10.301  10.904
  620CL      CL29803   1.158  11.751   5.551
  621CL      CL29804   7.495  13.072   7.526
  622CL      CL29805  11.381   9.480   0.346
  623CL      CL29806  14.454  16.330   0.173
  624CL      CL29807  10.532  10.516  17.417
  625CL      CL29808  13.040  14.248  14.740
  626CL      CL29809  10.171   6.115  15.666
  627CL      CL29810  16.536   6.840   1.667
  628CL      CL29811   7.988  14.959   9.780
  629CL      CL29812  15.182  17.157   2.391
  630CL      CL29813  15.418   7.474  13.833
  631CL      CL29814   6.234   1.630  12.180
  632CL      CL29815   2.011   8.430  15.163
  633CL      CL29816  12.440  10.361  11.553
  634CL      CL29817   1.063   5.893   1.838
  635CL      CL29818  12.936  11.367  14.004
  636CL      CL29819  10.365  10.363   7.109
  637CL      CL29820  10.678  13.057   6.853
  638CL      CL29821   8.287  10.936   5.870
  639CL      CL29822  13.243  14.341   0.233
  640CL      CL29823   0.736   2.674  14.745
  641CL      CL29824  13.630   2.050   2.671
  642CL      CL29825   0.201  10.679   1.907
  643CL      CL29826   6.817   3.468  10.964
  644CL      CL29827   1.121   2.495   1.132
  645CL      CL29828   5.429  11.539  12.487
  646CL      CL29829  15.738   8.377   7.237
  647CL      CL29830   0.924   1.493  14.416
  648CL      CL29831  14.848  12.693  11.607
  649CL      CL29832  17.388  10.445  17.022
  650CL      CL29833   7.409   0.847   3.335
  651CL      CL29834   8.098  11.202  10.230
  652CL      CL29835  11.938  14.976   6.098
  653CL      CL29836  10.410   4.705  10.945
  654CL      CL29837   8.809   0.916  14.049
  655CL      CL29838   2.767  16.189  13.658
  656CL      CL29839   3.978   2.423   1.943
  657CL      CL29840   6.982   0.494   1.994
  658CL      CL29841   4.609  15.354  15.416
  659CL      CL29842  13.636  15.060  15.469
  660CL      CL29843  13.995   1.797  13.701
  661CL      CL29844  14.456   6.051  11.984
  662CL      CL29845   0.564   6.344  14.338
  663CL      CL29846   0.765   3.303  11.892
  664CL      CL29847  13.446  11.484  10.187
  665CL      CL29848  13.430   3.594  10.461
  666CL      CL29849  12.138  16.544   9.636
  667CL      CL29850   5.423  13.780  11.412
  668CL      CL29851   6.059   1.247   8.383
  669CL      CL29852   1.929   0.541  15.342
  670CL      CL29853  15.769   3.241   6.525
  671CL      CL29854   5.334   3.561   0.709
  672CL      CL29855   0.882  11.573   2.437
  673CL      CL29856   6.811   1.187   0.383
  674CL      CL29857   3.447   2.684  10.942
  675CL      CL29858   1.835   8.286   1.791
  676CL      CL29859   3.489   6.051   7.837
  677CL      CL29860   1.412  10.822   5.062
  678CL      CL29861   1.946  15.239   0.940
  679CL      CL29862  13.539  13.625  10.417
  680CL      CL29863   7.932   1.867  14.216
  681CL      CL29864  16.432  12.405   1.232
  682CL      CL29865  11.458  10.689   7.111
  683CL      CL29866   9.238  14.819   2.868
  684CL      CL29867   9.126  12.780  15.091
  685CL      CL29868  17.400  14.409   3.869
  686CL      CL29869   5.387  10.915   2.746
  687CL      CL29870  16.089   0.476   2.440
  688CL      CL29871  10.647   7.652  11.331
  689CL      CL29872   7.401  15.713   3.813
  690CL      CL29873   2.145  16.705   7.390
  691CL      CL29874   1.170   0.171   7.517
  692CL      CL29875   7.294   9.832   8.483
  693CL      CL29876   2.506   2.938  15.167
  694CL      CL29877   2.291  11.789  14.695
  695CL      CL29878   2.045  16.155   8.522
  696CL      CL29879  13.019  14.336   5.463
  697CL      CL29880   5.581   4.120   1.553
  698CL      CL29881   7.582   9.242  14.283
  699CL      CL29882   3.043   9.318  10.406
  700CL      CL29883  11.383   3.164  13.592
  701CL      CL29884   9.514   5.383   9.793
  702CL      CL29885   8.870  13.641   6.727
  703CL      CL29886   1.427  15.768   4.336
  704CL      CL29887  15.076   9.440   9.668
  705CL      CL29888   3.853   2.514  16.156
  706CL      CL29889   1.052   1.642   6.555
  707CL      CL29890  11.190  12.759   1.810
  708CL      CL29891   9.299  16.650  14.490
  709CL      CL29892  14.958   7.792   1.097
  710CL      CL29893   1.383   1.012   1.581
  711CL      CL29894   2.114   6.625   9.210
  712CL      CL29895   2.346   6.807  13.079
  713CL      CL29896  11.332   9.140  10.115
  714CL      CL29897  15.454   5.220  13.382
  715CL      CL29898   4.334   2.048  10.020
  716CL      CL29899  16.208   3.696   2.134
  717CL      CL29900   1.196   4.482  15.845
  718CL      CL29901  11.796   6.040  11.697
  719CL      CL29902   2.780  15.602  11.209
  720CL      CL29903   2.747   1.120   1.813
  721CL      CL29904   2.990   7.909  10.242
  722CL      CL29905  10.834   9.242   6.550
  723CL      CL29906   5.861   7.761  11.177
  724CL      CL29907  15.057   2.936   7.666
  725CL      CL29908   2.558  13.985   6.173
  726CL      CL29909   5.816   7.508   8.957
  727CL      CL29910  12.865  11.042   5.707
  728CL      CL29911  12.012   0.257   3.258
  729CL      CL29912  16.535  13.360   0.557
  730CL      CL29913   8.051  16.006   1.118
  731CL      CL29914  16.138  13.680  16.880
  732CL      CL29915   6.708  16.687   9.023
  733CL      CL29916   2.322   3.197   9.953
  734CL      CL29917   4.959   6.885   1.089
  735CL      CL29918   8.582   2.909   1.700
  736CL      CL29919   3.158   9.685   9.182
  737CL      CL29920   4.109  11.604  11.368
  738CL      CL29921  11.148   5.080  16.809
  739CL      CL29922   5.324   9.477   2.524
  740CL      CL29923   9.710   7.574  13.692
  741CL      CL29924   1.206  11.644   7.822
  742CL      CL29925   6.357   8.728  17.187
  743CL      CL29926   1.488   3.638   6.216
  744CL      CL29927   2.840  13.977   9.444
  745CL      CL29928   4.463   5.234  13.601
  746CL      CL29929   3.724   5.670   6.483
  747CL      CL29930  16.073  16.237  10.471
  748CL      CL29931   5.110   1.185   2.706
  749CL      CL29932   2.370   5.286   4.525
  750CL      CL29933   5.993  15.824   9.951
  751CL      CL29934   9.797   4.881   6.936
  752CL      CL29935   1.173   9.251   2.693
  753CL      CL29936  16.435   4.246  10.241
  754CL      CL29937  16.051  14.861   2.406
  755CL      CL29938   5.452   9.315   7.402
  756CL      CL29939   2.974   3.771  14.765
  757CL      CL29940  14.364   1.302   8.865
  758CL      CL29941   1.523  10.522   7.993
  759CL      CL29942   5.738   4.079   2.925
  760CL      CL29943   0.419  14.217   7.320
  761CL      CL29944   0.471  11.420  14.326
  762CL      CL29945  10.804   9.634   5.528
  763CL      CL29946  13.640  15.234  16.705
  764CL      CL29947   6.511   8.045  15.086
  765CL      CL29948   0.991  12.538  14.246
  766CL      CL29949  16.975   2.119  14.713
  767CL      CL29950  10.693   1.118  10.022
  768CL      CL29951  14.797   8.106  11.530
  769CL      CL29952   4.513   5.686   1.016
  17.44000  17.44000  17.44000
