Gromacs.gro file
    19584
    1STR  BCK1     1   0.890  17.384   0.056
    1STR  O03      2   0.818  17.374  17.397
    1STR  N04      3   1.022  17.355   0.061
    1STR  C05      4   1.106  17.261  17.437
    1STR  C06      5   1.248  17.279   0.004
    1STR  C07      6   1.342  17.184  17.392
    1STR  N08      7   1.481  17.204  17.406
    1STR  C09      8   1.585  17.122  17.373
    1STR  O0A      9   1.574  17.011  17.323
    1STR  O0B     10   1.706  17.177  17.404
    1STR  C0C     11   1.828  17.105  17.375
    1STR  C0D     12   1.868  17.127  17.228
    1STR  C0E     13   1.941  17.147   0.031
    1STR  O0F     14   2.062  17.073   0.005
    1STR  C0G     15   2.175  17.105   0.088
    1STR  C0H     16   2.158  17.039   0.226
    1STR  C0I     17   2.305  17.057   0.019
    1STR  O0J     18   2.421  17.098   0.093
    1STR  C0K     19   2.549  17.064   0.037
    1STR  C0M     20   2.581  17.158  17.361
    1STR  C0N     21   2.657  17.077   0.148
    1STR  O0O     22   2.786  17.034   0.103
    1STR  C0P     23   2.893  17.118   0.096
    1STR  O0Q     24   2.891  17.239   0.114
    1STR  N0R     25   3.002  17.046   0.067
    1STR  C0S     26   3.136  17.077   0.042
    1STR  C0T     27   3.210  16.974  17.420
    1STR  C0U     28   3.343  16.993  17.380
    1STR  C0V     29   3.408  17.116  17.405
    1STR  C0W     30   3.543  17.139  17.339
    1STR  C0X     31   3.342  17.217   0.040
    1STR  N0Y     32   3.413  17.332   0.079
    1STR  BCK2    33   3.540  17.335   0.121
    1STR  O10     34   3.599  17.440   0.148
    1STR  C13     35   3.204  17.198   0.073
    1STR  C14     36   1.288  17.070  17.330
    1STR  C15     37   1.150  17.050  17.321
    1STR  C16     38   1.059  17.142  17.374
    1STR  C17     39   0.912  17.104  17.365
    1STR  H1B     40   1.070  17.416   0.125
    1STR  H1C     41   1.287  17.368   0.051
    1STR  H1D     42   1.514  17.290   0.006
    1STR  H1E     43   1.810  16.998  17.391
    1STR  H1F     44   1.887  17.232  17.207
    1STR  H1G     45   1.959  17.071  17.204
    1STR  H1H     46   1.790  17.092  17.160
    1STR  H1I     47   1.908  17.130   0.134
    1STR  H1J     48   1.960  17.254   0.021
    1STR  H1K     49   2.182  17.213   0.099
    1STR  H1M     50   2.148  16.931   0.217
    1STR  H1N     51   2.071  17.076   0.279
    1STR  H1O     52   2.244  17.059   0.289
    1STR  H1P     53   2.303  16.948   0.008
    1STR  H1Q     54   2.308  17.099  17.358
    1STR  H1R     55   2.547  16.961   0.002
    1STR  H1S     56   2.679  17.134  17.318
    1STR  H1T     57   2.586  17.262  17.394
    1STR  H1U     58   2.509  17.153  17.280
    1STR  H1V     59   2.630  17.013   0.231
    1STR  H1W     60   2.660  17.178   0.187
    1STR  H1X     61   2.976  16.950   0.057
    1STR  H1Y     62   3.164  16.878  17.399
    1STR  H1Z     63   3.395  16.914  17.328
    1STR  H20     64   3.545  17.237  17.292
    1STR  H21     65   3.625  17.133  17.411
    1STR  H22     66   3.562  17.066  17.260
    1STR  H23     67   3.365  17.420   0.081
    1STR  H27     68   3.150  17.277   0.124
    1STR  H28     69   1.350  16.993  17.287
    1STR  H29     70   1.114  16.959  17.273
    1STR  H2A     71   0.864  17.116   0.021
    1STR  H2B     72   0.900  17.000  17.335
    1STR  H2C     73   0.863  17.165  17.289
    1STR  BCK1    74   0.897  17.432   4.373
    1STR  O03     75   0.816   0.076   4.408
    1STR  N04     76   1.024   0.012   4.326
    1STR  C05     77   1.103   0.122   4.285
    1STR  C06     78   1.246   0.109   4.285
    1STR  C07     79   1.335   0.211   4.240
    1STR  N08     80   1.476   0.191   4.237
    1STR  C09     81   1.578   0.273   4.202
    1STR  O0A     82   1.563   0.389   4.165
    1STR  O0B     83   1.702   0.214   4.211
    1STR  C0C     84   1.823   0.288   4.181
    1STR  C0D     85   1.863   0.373   4.303
    1STR  C0E     86   1.940   0.194   4.138
    1STR  O0F     87   2.062   0.266   4.109
    1STR  C0G     88   2.176   0.188   4.069
    1STR  C0H     89   2.158   0.143   3.923
    1STR  C0I     90   2.309   0.268   4.087
    1STR  O0J     91   2.427   0.189   4.060
    1STR  C0K     92   2.555   0.251   4.083
    1STR  C0M     93   2.582   0.262   4.233
    1STR  C0N     94   2.670   0.167   4.017
    1STR  O0O     95   2.801   0.224   4.034
    1STR  C0P     96   2.901   0.165   4.108
    1STR  O0Q     97   2.889   0.066   4.179
    1STR  N0R     98   3.015   0.233   4.089
    1STR  C0S     99   3.149   0.229   4.136
    1STR  C0T    100   3.230   0.330   4.081
    1STR  C0U    101   3.363   0.346   4.122
    1STR  C0V    102   3.421   0.262   4.219
    1STR  C0W    103   3.561   0.299   4.264
    1STR  C0X    104   3.346   0.154   4.274
    1STR  N0Y    105   3.398   0.067   4.374
    1STR  BCK2   106   3.522   0.025   4.416
    1STR  O10    107   3.630   0.041   4.361
    1STR  C13    108   3.208   0.140   4.232
    1STR  C14    109   1.276   0.331   4.196
    1STR  C15    110   1.137   0.347   4.193
    1STR  C16    111   1.050   0.244   4.234
    1STR  C17    112   0.902   0.270   4.215
    1STR  H1B    113   1.074  17.365   4.324
    1STR  H1C    114   1.288   0.016   4.321
    1STR  H1D    115   1.511   0.101   4.266
    1STR  H1E    116   1.803   0.356   4.098
    1STR  H1F    117   1.883   0.310   4.390
    1STR  H1G    118   1.953   0.431   4.282
    1STR  H1H    119   1.785   0.444   4.330
    1STR  H1I    120   1.908   0.138   4.051
    1STR  H1J    121   1.959   0.122   4.217
    1STR  H1K    122   2.183   0.100   4.134
    1STR  H1M    123   2.148   0.229   3.857
    1STR  H1N    124   2.071   0.079   3.909
    1STR  H1O    125   2.245   0.086   3.890
    1STR  H1P    126   2.307   0.356   4.022
    1STR  H1Q    127   2.311   0.306   4.189
    1STR  H1R    128   2.555   0.350   4.037
    1STR  H1S    129   2.679   0.310   4.251
    1STR  H1T    130   2.586   0.164   4.279
    1STR  H1U    131   2.507   0.322   4.285
    1STR  H1V    132   2.651   0.161   3.910
    1STR  H1W    133   2.668   0.064   4.053
    1STR  H1X    134   2.995   0.307   4.024
    1STR  H1Y    135   3.191   0.399   4.008
    1STR  H1Z    136   3.420   0.427   4.079
    1STR  H20    137   3.571   0.290   4.372
    1STR  H21    138   3.634   0.235   4.214
    1STR  H22    139   3.585   0.402   4.238
    1STR  H23    140   3.326   0.021   4.427
    1STR  H27    141   3.146   0.062   4.273
    1STR  H28    142   1.335   0.414   4.161
    1STR  H29    143   1.097   0.440   4.157
    1STR  H2A    144   0.851   0.181   4.178
    1STR  H2B    145   0.885   0.349   4.142
    1STR  H2C    146   0.856   0.302   4.309
    1STR  BCK1   147   0.887  17.385   8.793
    1STR  O03    148   0.846  17.349   8.684
    1STR  N04    149   1.012  17.434   8.808
    1STR  C05    150   1.104  17.397   8.908
    1STR  C06    151   1.244  17.412   8.885
    1STR  C07    152   1.342  17.364   8.978
    1STR  N08    153   1.481  17.381   8.955
    1STR  C09    154   1.587  17.344   9.031
    1STR  O0A    155   1.579  17.283   9.137
    1STR  O0B    156   1.706  17.381   8.978
    1STR  C0C    157   1.829  17.347   9.046
    1STR  C0D    158   1.869  17.202   9.012
    1STR  C0E    159   1.942   0.006   9.012
    1STR  O0F    160   2.062  17.414   9.085
    1STR  C0G    161   2.175   0.059   9.061
    1STR  C0H    162   2.158   0.190   9.139
    1STR  C0I    163   2.305  17.426   9.103
    1STR  O0J    164   2.421   0.064   9.068
    1STR  C0K    165   2.549   0.006   9.096
    1STR  C0M    166   2.582  17.337   8.993
    1STR  C0N    167   2.657   0.117   9.092
    1STR  O0O    168   2.785   0.071   9.135
    1STR  C0P    169   2.893   0.063   9.053
    1STR  O0Q    170   2.894   0.083   8.932
    1STR  N0R    171   2.997   0.027   9.127
    1STR  C0S    172   3.131  17.432   9.103
    1STR  C0T    173   3.192  17.367   9.212
    1STR  C0U    174   3.320  17.312   9.201
    1STR  C0V    175   3.393  17.325   9.082
    1STR  C0W    176   3.520  17.242   9.070
    1STR  C0X    177   3.344  17.408   8.977
    1STR  N0Y    178   3.428   0.001   8.869
    1STR  BCK2   179   3.561   0.016   8.874
    1STR  O10    180   3.628   0.044   8.776
    1STR  C13    181   3.209   0.014   8.986
    1STR  C14    182   1.293  17.298   9.093
    1STR  C15    183   1.156  17.286   9.118
    1STR  C16    184   1.061  17.337   9.029
    1STR  C17    185   0.916  17.325   9.072
    1STR  H1B    186   1.046   0.042   8.726
    1STR  H1C    187   1.278   0.019   8.794
    1STR  H1D    188   1.510  17.428   8.871
    1STR  H1E    189   1.812  17.354   9.154
    1STR  H1F    190   1.888  17.190   8.906
    1STR  H1G    191   1.960  17.174   9.066
    1STR  H1H    192   1.791  17.132   9.042
    1STR  H1I    193   1.909   0.107   9.038
    1STR  H1J    194   1.962   0.005   8.905
    1STR  H1K    195   2.182   0.080   8.954
    1STR  H1M    196   2.148   0.171   9.246
    1STR  H1N    197   2.071   0.247   9.107
    1STR  H1O    198   2.245   0.255   9.125
    1STR  H1P    199   2.303  17.406   9.210
    1STR  H1Q    200   2.308  17.329   9.053
    1STR  H1R    201   2.547  17.403   9.197
    1STR  H1S    202   2.679  17.292   9.014
    1STR  H1T    203   2.586  17.379   8.893
    1STR  H1U    204   2.509  17.256   8.993
    1STR  H1V    205   2.627   0.197   9.161
    1STR  H1W    206   2.662   0.163   8.993
    1STR  H1X    207   2.966   0.019   9.222
    1STR  H1Y    208   3.139  17.354   9.306
    1STR  H1Z    209   3.361  17.257   9.284
    1STR  H20    210   3.536  17.211   8.967
    1STR  H21    211   3.607  17.297   9.106
    1STR  H22    212   3.511  17.150   9.128
    1STR  H23    213   3.386   0.026   8.781
    1STR  H27    214   3.165   0.069   8.904
    1STR  H28    215   1.358  17.255   9.167
    1STR  H29    216   1.125  17.236   9.209
    1STR  H2A    217   0.864  17.419   9.056
    1STR  H2B    218   0.906  17.300   9.177
    1STR  H2C    219   0.867  17.246   9.015
    1STR  BCK1   220   0.897  17.374  13.099
    1STR  O03    221   0.811  17.424  13.027
    1STR  N04    222   1.027  17.351  13.070
    1STR  C05    223   1.106  17.341  12.952
    1STR  C06    224   1.249  17.346  12.966
    1STR  C07    225   1.339  17.326  12.857
    1STR  N08    226   1.480  17.326  12.877
    1STR  C09    227   1.582  17.301  12.791
    1STR  O0A    228   1.568  17.274  12.672
    1STR  O0B    229   1.704  17.309  12.852
    1STR  C0C    230   1.825  17.287  12.775
    1STR  C0D    231   1.865  17.417  12.703
    1STR  C0E    232   1.941  17.236  12.866
    1STR  O0F    233   2.062  17.213  12.792
    1STR  C0G    234   2.176  17.167  12.867
    1STR  C0H    235   2.158  17.017  12.899
    1STR  C0I    236   2.307  17.192  12.788
    1STR  O0J    237   2.424  17.157  12.865
    1STR  C0K    238   2.553  17.183  12.806
    1STR  C0M    239   2.582  17.334  12.808
    1STR  C0N    240   2.664  17.107  12.884
    1STR  O0O    241   2.795  17.123  12.828
    1STR  C0P    242   2.898  17.181  12.896
    1STR  O0Q    243   2.890  17.239  13.004
    1STR  N0R    244   3.011  17.165  12.826
    1STR  C0S    245   3.146  17.205  12.841
    1STR  C0T    246   3.225  17.185  12.727
    1STR  C0U    247   3.358  17.229  12.722
    1STR  C0V    248   3.417  17.292  12.833
    1STR  C0W    249   3.554  17.355  12.809
    1STR  C0X    250   3.346  17.303  12.956
    1STR  N0Y    251   3.402  17.357  13.075
    1STR  BCK2   252   3.527  17.364  13.128
    1STR  O10    253   3.631  17.318  13.083
    1STR  C13    254   3.208  17.263  12.956
    1STR  C14    255   1.282  17.305  12.730
    1STR  C15    256   1.143  17.300  12.713
    1STR  C16    257   1.054  17.316  12.822
    1STR  C17    258   0.907  17.301  12.791
    1STR  H1B    259   1.081  17.340  13.154
    1STR  H1C    260   1.291  17.364  13.064
    1STR  H1D    261   1.514  17.347  12.969
    1STR  H1E    262   1.807  17.210  12.700
    1STR  H1F    263   1.885   0.058  12.773
    1STR  H1G    264   1.956  17.402  12.644
    1STR  H1H    265   1.787   0.010  12.634
    1STR  H1I    266   1.908  17.144  12.915
    1STR  H1J    267   1.960  17.309  12.945
    1STR  H1K    268   2.182  17.224  12.960
    1STR  H1M    269   2.148  16.958  12.808
    1STR  H1N    270   2.071  16.998  12.961
    1STR  H1O    271   2.245  16.979  12.953
    1STR  H1P    272   2.305  17.134  12.695
    1STR  H1Q    273   2.310  17.297  12.760
    1STR  H1R    274   2.552  17.147  12.702
    1STR  H1S    275   2.679  17.355  12.763
    1STR  H1T    276   2.586  17.371  12.911
    1STR  H1U    277   2.509  17.393  12.754
    1STR  H1V    278   2.641  17.000  12.881
    1STR  H1W    279   2.662  17.135  12.989
    1STR  H1X    280   2.990  17.113  12.743
    1STR  H1Y    281   3.184  17.138  12.638
    1STR  H1Z    282   3.414  17.217  12.631
    1STR  H20    283   3.561   0.011  12.860
    1STR  H21    284   3.634  17.289  12.843
    1STR  H22    285   3.570  17.374  12.703
    1STR  H23    286   3.333  17.391  13.139
    1STR  H27    287   3.148  17.276  13.045
    1STR  H28    288   1.341  17.290  12.642
    1STR  H29    289   1.104  17.282  12.614
    1STR  H2A    290   0.858  17.240  12.866
    1STR  H2B    291   0.891  17.252  12.695
    1STR  H2C    292   0.860  17.399  12.786
    1STR  BCK1   293   0.896   4.350   0.055
    1STR  O03    294   0.831   4.375   0.155
    1STR  N04    295   1.019   4.399   0.021
    1STR  C05    296   1.102   4.501   0.073
    1STR  C06    297   1.245   4.490   0.058
    1STR  C07    298   1.337   4.590   0.103
    1STR  N08    299   1.477   4.577   0.083
    1STR  C09    300   1.580   4.655   0.124
    1STR  O0A    301   1.568   4.754   0.195
    1STR  O0B    302   1.702   4.610   0.080
    1STR  C0C    303   1.824   4.677   0.121
    1STR  C0D    304   1.865   4.631   0.262
    1STR  C0E    305   1.940   4.654   0.019
    1STR  O0F    306   2.061   4.721   0.059
    1STR  C0G    307   2.175   4.705  17.412
    1STR  C0H    308   2.158   4.794  17.288
    1STR  C0I    309   2.307   4.740   0.047
    1STR  O0J    310   2.424   4.712  17.407
    1STR  C0K    311   2.552   4.733   0.030
    1STR  C0M    312   2.581   4.621   0.130
    1STR  C0N    313   2.665   4.735  17.362
    1STR  O0O    314   2.795   4.764  17.418
    1STR  C0P    315   2.897   4.673  17.423
    1STR  O0Q    316   2.891   4.555  17.390
    1STR  N0R    317   3.006   4.735   0.028
    1STR  C0S    318   3.140   4.704   0.060
    1STR  C0T    319   3.214   4.815   0.103
    1STR  C0U    320   3.346   4.803   0.145
    1STR  C0V    321   3.412   4.679   0.144
    1STR  C0W    322   3.555   4.679   0.197
    1STR  C0X    323   3.345   4.563   0.096
    1STR  N0Y    324   3.411   4.438   0.086
    1STR  BCK2   325   3.537   4.402   0.121
    1STR  O10    326   3.582   4.291   0.098
    1STR  C13    327   3.207   4.577   0.055
    1STR  C14    328   1.281   4.703   0.167
    1STR  C15    329   1.142   4.717   0.180
    1STR  C16    330   1.052   4.621   0.131
    1STR  C17    331   0.905   4.656   0.136
    1STR  H1B    332   1.059   4.348  17.384
    1STR  H1C    333   1.284   4.402   0.009
    1STR  H1D    334   1.509   4.499   0.028
    1STR  H1E    335   1.805   4.785   0.124
    1STR  H1F    336   1.884   4.524   0.265
    1STR  H1G    337   1.955   4.683   0.295
    1STR  H1H    338   1.787   4.654   0.335
    1STR  H1I    339   1.907   4.689  17.361
    1STR  H1J    340   1.959   4.547   0.010
    1STR  H1K    341   2.182   4.600  17.381
    1STR  H1M    342   2.148   4.899  17.315
    1STR  H1N    343   2.071   4.766  17.228
    1STR  H1O    344   2.245   4.786  17.222
    1STR  H1P    345   2.305   4.845   0.077
    1STR  H1Q    346   2.309   4.682   0.139
    1STR  H1R    347   2.552   4.830   0.081
    1STR  H1S    348   2.678   4.636   0.178
    1STR  H1T    349   2.585   4.524   0.080
    1STR  H1U    350   2.507   4.615   0.209
    1STR  H1V    351   2.643   4.815  17.291
    1STR  H1W    352   2.667   4.643  17.305
    1STR  H1X    353   2.981   4.831   0.042
    1STR  H1Y    354   3.169   4.914   0.107
    1STR  H1Z    355   3.398   4.892   0.179
    1STR  H20    356   3.564   4.610   0.281
    1STR  H21    357   3.624   4.650   0.118
    1STR  H22    358   3.586   4.777   0.233
    1STR  H23    359   3.360   4.362   0.044
    1STR  H27    360   3.151   4.491   0.021
    1STR  H28    361   1.341   4.783   0.206
    1STR  H29    362   1.104   4.807   0.227
    1STR  H2A    363   0.853   4.620   0.047
    1STR  H2B    364   0.890   4.763   0.141
    1STR  H2C    365   0.859   4.612   0.225
    1STR  BCK1   366   0.881   4.292   4.423
    1STR  O03    367   0.815   4.382   4.372
    1STR  N04    368   1.015   4.297   4.429
    1STR  C05    369   1.106   4.191   4.452
    1STR  C06    370   1.247   4.217   4.450
    1STR  C07    371   1.344   4.112   4.461
    1STR  N08    372   1.483   4.139   4.460
    1STR  C09    373   1.588   4.055   4.475
    1STR  O0A    374   1.579   3.934   4.492
    1STR  O0B    375   1.708   4.119   4.471
    1STR  C0C    376   1.830   4.043   4.485
    1STR  C0D    377   1.870   3.983   4.349
    1STR  C0E    378   1.943   4.131   4.543
    1STR  O0F    379   2.062   4.054   4.561
    1STR  C0G    380   2.175   4.125   4.614
    1STR  C0H    381   2.158   4.143   4.766
    1STR  C0I    382   2.305   4.047   4.582
    1STR  O0J    383   2.421   4.122   4.622
    1STR  C0K    384   2.548   4.063   4.594
    1STR  C0M    385   2.581   4.080   4.445
    1STR  C0N    386   2.656   4.132   4.681
    1STR  O0O    387   2.784   4.069   4.669
    1STR  C0P    388   2.892   4.133   4.617
    1STR  O0Q    389   2.892   4.244   4.564
    1STR  N0R    390   2.998   4.054   4.631
    1STR  C0S    391   3.133   4.062   4.592
    1STR  C0T    392   3.202   3.939   4.596
    1STR  C0U    393   3.334   3.929   4.549
    1STR  C0V    394   3.402   4.043   4.503
    1STR  C0W    395   3.535   4.021   4.432
    1STR  C0X    396   3.342   4.171   4.514
    1STR  N0Y    397   3.418   4.286   4.488
    1STR  BCK2   398   3.546   4.303   4.523
    1STR  O10    399   3.610   4.403   4.493
    1STR  C13    400   3.204   4.178   4.553
    1STR  C14    401   1.294   3.980   4.472
    1STR  C15    402   1.157   3.954   4.478
    1STR  C16    403   1.063   4.057   4.470
    1STR  C17    404   0.917   4.014   4.479
    1STR  H1B    405   1.052   4.387   4.405
    1STR  H1C    406   1.281   4.318   4.439
    1STR  H1D    407   1.513   4.234   4.447
    1STR  H1E    408   1.813   3.962   4.556
    1STR  H1F    409   1.888   4.060   4.274
    1STR  H1G    410   1.960   3.923   4.359
    1STR  H1H    411   1.792   3.917   4.311
    1STR  H1I    412   1.909   4.172   4.638
    1STR  H1J    413   1.962   4.216   4.477
    1STR  H1K    414   2.182   4.223   4.566
    1STR  H1M    415   2.148   4.047   4.816
    1STR  H1N    416   2.071   4.203   4.791
    1STR  H1O    417   2.245   4.193   4.809
    1STR  H1P    418   2.303   3.950   4.631
    1STR  H1Q    419   2.307   4.028   4.474
    1STR  H1R    420   2.546   3.957   4.620
    1STR  H1S    421   2.679   4.036   4.422
    1STR  H1T    422   2.586   4.185   4.418
    1STR  H1U    423   2.509   4.032   4.379
    1STR  H1V    424   2.627   4.125   4.785
    1STR  H1W    425   2.661   4.239   4.659
    1STR  H1X    426   2.970   3.969   4.676
    1STR  H1Y    427   3.154   3.849   4.631
    1STR  H1Z    428   3.382   3.833   4.547
    1STR  H20    429   3.541   4.086   4.344
    1STR  H21    430   3.619   4.043   4.497
    1STR  H22    431   3.545   3.919   4.396
    1STR  H23    432   3.373   4.366   4.446
    1STR  H27    433   3.154   4.274   4.554
    1STR  H28    434   1.358   3.894   4.478
    1STR  H29    435   1.125   3.851   4.488
    1STR  H2A    436   0.868   4.066   4.561
    1STR  H2B    437   0.907   3.907   4.499
    1STR  H2C    438   0.866   4.034   4.385
    1STR  BCK1   439   0.898   4.328   8.718
    1STR  O03    440   0.811   4.413   8.704
    1STR  N04    441   1.026   4.330   8.673
    1STR  C05    442   1.104   4.410   8.584
    1STR  C06    443   1.247   4.400   8.592
    1STR  C07    444   1.336   4.469   8.503
    1STR  N08    445   1.477   4.452   8.512
    1STR  C09    446   1.579   4.504   8.438
    1STR  O0A    447   1.563   4.582   8.345
    1STR  O0B    448   1.702   4.460   8.479
    1STR  C0C    449   1.823   4.507   8.414
    1STR  C0D    450   1.863   4.644   8.472
    1STR  C0E    451   1.940   4.405   8.428
    1STR  O0F    452   2.062   4.451   8.365
    1STR  C0G    453   2.176   4.363   8.374
    1STR  C0H    454   2.159   4.247   8.274
    1STR  C0I    455   2.308   4.440   8.345
    1STR  O0J    456   2.426   4.358   8.365
    1STR  C0K    457   2.555   4.422   8.351
    1STR  C0M    458   2.582   4.512   8.472
    1STR  C0N    459   2.669   4.315   8.341
    1STR  O0O    460   2.801   4.371   8.325
    1STR  C0P    461   2.901   4.356   8.418
    1STR  O0Q    462   2.889   4.307   8.529
    1STR  N0R    463   3.016   4.402   8.366
    1STR  C0S    464   3.149   4.420   8.409
    1STR  C0T    465   3.231   4.484   8.314
    1STR  C0U    466   3.364   4.517   8.344
    1STR  C0V    467   3.421   4.486   8.469
    1STR  C0W    468   3.560   4.543   8.494
    1STR  C0X    469   3.347   4.412   8.566
    1STR  N0Y    470   3.400   4.376   8.693
    1STR  BCK2   471   3.524   4.352   8.745
    1STR  O10    472   3.631   4.343   8.686
    1STR  C13    473   3.209   4.383   8.534
    1STR  C14    474   1.277   4.551   8.405
    1STR  C15    475   1.138   4.562   8.394
    1STR  C16    476   1.051   4.491   8.480
    1STR  C17    477   0.903   4.504   8.450
    1STR  H1B    478   1.080   4.259   8.718
    1STR  H1C    479   1.290   4.338   8.669
    1STR  H1D    480   1.513   4.392   8.585
    1STR  H1E    481   1.803   4.520   8.307
    1STR  H1F    482   1.883   4.638   8.579
    1STR  H1G    483   1.953   4.682   8.424
    1STR  H1H    484   1.785   4.718   8.457
    1STR  H1I    485   1.908   4.311   8.385
    1STR  H1J    486   1.959   4.387   8.534
    1STR  H1K    487   2.183   4.323   8.475
    1STR  H1M    488   2.148   4.284   8.172
    1STR  H1N    489   2.071   4.185   8.297
    1STR  H1O    490   2.245   4.181   8.277
    1STR  H1P    491   2.307   4.479   8.243
    1STR  H1Q    492   2.311   4.527   8.411
    1STR  H1R    493   2.555   4.482   8.259
    1STR  H1S    494   2.679   4.562   8.462
    1STR  H1T    495   2.585   4.454   8.564
    1STR  H1U    496   2.508   4.591   8.484
    1STR  H1V    497   2.650   4.253   8.253
    1STR  H1W    498   2.666   4.247   8.426
    1STR  H1X    499   2.997   4.433   8.273
    1STR  H1Y    500   3.193   4.511   8.217
    1STR  H1Z    501   3.422   4.569   8.269
    1STR  H20    502   3.569   4.579   8.596
    1STR  H21    503   3.636   4.467   8.475
    1STR  H22    504   3.581   4.627   8.428
    1STR  H23    505   3.328   4.360   8.761
    1STR  H27    506   3.147   4.332   8.606
    1STR  H28    507   1.335   4.607   8.334
    1STR  H29    508   1.097   4.624   8.316
    1STR  H2A    509   0.853   4.408   8.458
    1STR  H2B    510   0.885   4.540   8.349
    1STR  H2C    511   0.857   4.575   8.519
    1STR  BCK1   512   0.895   4.319  13.139
    1STR  O03    513   0.856   4.236  13.220
    1STR  N04    514   1.012   4.387  13.147
    1STR  C05    515   1.103   4.402  13.254
    1STR  C06    516   1.244   4.405  13.230
    1STR  C07    517   1.339   4.424  13.335
    1STR  N08    518   1.479   4.430  13.309
    1STR  C09    519   1.584   4.443  13.393
    1STR  O0A    520   1.574   4.448  13.516
    1STR  O0B    521   1.704   4.448  13.329
    1STR  C0C    522   1.827   4.457  13.406
    1STR  C0D    523   1.867   4.317  13.455
    1STR  C0E    524   1.941   4.523  13.324
    1STR  O0F    525   2.061   4.534  13.402
    1STR  C0G    526   2.174   4.592  13.336
    1STR  C0H    527   2.157   4.745  13.332
    1STR  C0I    528   2.305   4.553  13.410
    1STR  O0J    529   2.421   4.600  13.338
    1STR  C0K    530   2.549   4.566  13.393
    1STR  C0M    531   2.581   4.418  13.366
    1STR  C0N    532   2.658   4.655  13.329
    1STR  O0O    533   2.787   4.636  13.388
    1STR  C0P    534   2.892   4.580  13.322
    1STR  O0Q    535   2.891   4.531  13.210
    1STR  N0R    536   2.997   4.588  13.403
    1STR  C0S    537   3.131   4.546  13.405
    1STR  C0T    538   3.194   4.571  13.528
    1STR  C0U    539   3.324   4.527  13.553
    1STR  C0V    540   3.398   4.461  13.454
    1STR  C0W    541   3.532   4.405  13.498
    1STR  C0X    542   3.344   4.445  13.323
    1STR  N0Y    543   3.422   4.392  13.218
    1STR  BCK2   544   3.556   4.374  13.212
    1STR  O10    545   3.613   4.331  13.113
    1STR  C13    546   3.208   4.485  13.301
    1STR  C14    547   1.288   4.437  13.466
    1STR  C15    548   1.150   4.439  13.491
    1STR  C16    549   1.057   4.426  13.386
    1STR  C17    550   0.911   4.445  13.422
    1STR  H1B    551   1.040   4.431  13.060
    1STR  H1C    552   1.280   4.393  13.129
    1STR  H1D    553   1.509   4.425  13.213
    1STR  H1E    554   1.809   4.520  13.493
    1STR  H1F    555   1.886   4.249  13.371
    1STR  H1G    556   1.958   4.321  13.515
    1STR  H1H    557   1.790   4.272  13.517
    1STR  H1I    558   1.908   4.621  13.292
    1STR  H1J    559   1.960   4.464  13.234
    1STR  H1K    560   2.181   4.553  13.234
    1STR  H1M    561   2.147   4.787  13.432
    1STR  H1N    562   2.070   4.776  13.274
    1STR  H1O    563   2.244   4.792  13.285
    1STR  H1P    564   2.304   4.594  13.511
    1STR  H1Q    565   2.307   4.445  13.420
    1STR  H1R    566   2.548   4.584  13.501
    1STR  H1S    567   2.678   4.391  13.408
    1STR  H1T    568   2.585   4.399  13.259
    1STR  H1U    569   2.507   4.350  13.409
    1STR  H1V    570   2.631   4.760  13.345
    1STR  H1W    571   2.661   4.642  13.220
    1STR  H1X    572   2.966   4.635  13.487
    1STR  H1Y    573   3.142   4.621  13.608
    1STR  H1Z    574   3.367   4.544  13.650
    1STR  H20    575   3.543   4.302  13.464
    1STR  H21    576   3.614   4.466  13.460
    1STR  H22    577   3.541   4.402  13.607
    1STR  H23    578   3.377   4.370  13.131
    1STR  H27    579   3.161   4.469  13.205
    1STR  H28    580   1.351   4.449  13.552
    1STR  H29    581   1.116   4.453  13.592
    1STR  H2A    582   0.858   4.498  13.342
    1STR  H2B    583   0.900   4.505  13.512
    1STR  H2C    584   0.862   4.349  13.439
    1STR  BCK1   585   0.893   8.657   0.044
    1STR  O03    586   0.814   8.671  17.391
    1STR  N04    587   1.025   8.625   0.035
    1STR  C05    588   1.106   8.558  17.381
    1STR  C06    589   1.249   8.571  17.392
    1STR  C07    590   1.341   8.499  17.310
    1STR  N08    591   1.481   8.512  17.328
    1STR  C09    592   1.584   8.446  17.270
    1STR  O0A    593   1.571   8.358  17.184
    1STR  O0B    594   1.705   8.486  17.317
    1STR  C0C    595   1.827   8.427  17.264
    1STR  C0D    596   1.867   8.498  17.134
    1STR  C0E    597   1.941   8.434  17.369
    1STR  O0F    598   2.062   8.374  17.319
    1STR  C0G    599   2.175   8.375  17.407
    1STR  C0H    600   2.158   8.266   0.074
    1STR  C0I    601   2.305   8.354  17.326
    1STR  O0J    602   2.422   8.366  17.410
    1STR  C0K    603   2.550   8.355  17.346
    1STR  C0M    604   2.582   8.483  17.269
    1STR  C0N    605   2.659   8.330   0.014
    1STR  O0O    606   2.789   8.308  17.397
    1STR  C0P    607   2.895   8.390  17.423
    1STR  O0Q    608   2.890   8.497   0.042
    1STR  N0R    609   3.005   8.335  17.371
    1STR  C0S    610   3.140   8.374  17.360
    1STR  C0T    611   3.215   8.297  17.269
    1STR  C0U    612   3.348   8.330  17.240
    1STR  C0V    613   3.412   8.438  17.304
    1STR  C0W    614   3.548   8.482  17.252
    1STR  C0X    615   3.344   8.509  17.407
    1STR  N0Y    616   3.412   8.608   0.041
    1STR  BCK2   617   3.540   8.603   0.082
    1STR  O10    618   3.596   8.698   0.137
    1STR  C13    619   3.206   8.479  17.431
    1STR  C14    620   1.286   8.413  17.213
    1STR  C15    621   1.147   8.399  17.199
    1STR  C16    622   1.057   8.468  17.282
    1STR  C17    623   0.910   8.436  17.261
    1STR  H1B    624   1.075   8.660   0.115
    1STR  H1C    625   1.289   8.638   0.027
    1STR  H1D    626   1.514   8.579  17.395
    1STR  H1E    627   1.809   8.322  17.243
    1STR  H1F    628   1.886   8.604  17.150
    1STR  H1G    629   1.957   8.454  17.092
    1STR  H1H    630   1.789   8.489  17.058
    1STR  H1I    631   1.908   8.383   0.019
    1STR  H1J    632   1.960   8.538  17.396
    1STR  H1K    633   2.182   8.473   0.015
    1STR  H1M    634   2.148   8.167   0.029
    1STR  H1N    635   2.071   8.283   0.137
    1STR  H1O    636   2.245   8.263   0.140
    1STR  H1P    637   2.304   8.255  17.279
    1STR  H1Q    638   2.308   8.427  17.246
    1STR  H1R    639   2.548   8.269  17.278
    1STR  H1S    640   2.679   8.476  17.220
    1STR  H1T    641   2.586   8.569  17.336
    1STR  H1U    642   2.508   8.505  17.191
    1STR  H1V    643   2.633   8.240   0.070
    1STR  H1W    644   2.660   8.411   0.087
    1STR  H1X    645   2.981   8.248  17.328
    1STR  H1Y    646   3.171   8.214  17.217
    1STR  H1Z    647   3.401   8.273  17.165
    1STR  H20    648   3.548   8.590  17.238
    1STR  H21    649   3.628   8.455  17.320
    1STR  H22    650   3.569   8.437  17.155
    1STR  H23    651   3.361   8.690   0.070
    1STR  H27    652   3.150   8.536   0.064
    1STR  H28    653   1.346   8.355  17.145
    1STR  H29    654   1.110   8.331  17.124
    1STR  H2A    655   0.861   8.420  17.357
    1STR  H2B    656   0.896   8.346  17.202
    1STR  H2C    657   0.862   8.518  17.208
    1STR  BCK1   658   0.897   8.718   4.391
    1STR  O03    659   0.820   8.788   4.455
    1STR  N04    660   1.022   8.749   4.346
    1STR  C05    661   1.102   8.866   4.340
    1STR  C06    662   1.245   8.851   4.334
    1STR  C07    663   1.336   8.962   4.322
    1STR  N08    664   1.476   8.943   4.312
    1STR  C09    665   1.578   9.032   4.306
    1STR  O0A    666   1.565   9.154   4.311
    1STR  O0B    667   1.701   8.972   4.293
    1STR  C0C    668   1.823   9.052   4.291
    1STR  C0D    669   1.863   9.089   4.435
    1STR  C0E    670   1.940   8.978   4.219
    1STR  O0F    671   2.062   9.056   4.216
    1STR  C0G    672   2.176   8.996   4.151
    1STR  C0H    673   2.158   9.004   3.999
    1STR  C0I    674   2.308   9.066   4.196
    1STR  O0J    675   2.426   9.000   4.143
    1STR  C0K    676   2.555   9.051   4.185
    1STR  C0M    677   2.582   9.010   4.331
    1STR  C0N    678   2.669   8.995   4.095
    1STR  O0O    679   2.800   9.045   4.130
    1STR  C0P    680   2.900   8.967   4.181
    1STR  O0Q    681   2.890   8.850   4.215
    1STR  N0R    682   3.013   9.040   4.187
    1STR  C0S    683   3.146   9.023   4.231
    1STR  C0T    684   3.226   9.137   4.211
    1STR  C0U    685   3.359   9.141   4.255
    1STR  C0V    686   3.418   9.031   4.320
    1STR  C0W    687   3.560   9.051   4.369
    1STR  C0X    688   3.344   8.911   4.339
    1STR  N0Y    689   3.399   8.798   4.406
    1STR  BCK2   690   3.522   8.761   4.450
    1STR  O10    691   3.625   8.760   4.384
    1STR  C13    692   3.207   8.910   4.295
    1STR  C14    693   1.277   9.091   4.319
    1STR  C15    694   1.138   9.108   4.322
    1STR  C16    695   1.050   8.998   4.330
    1STR  C17    696   0.902   9.029   4.318
    1STR  H1B    697   1.069   8.667   4.313
    1STR  H1C    698   1.287   8.752   4.338
    1STR  H1D    699   1.510   8.849   4.308
    1STR  H1E    700   1.803   9.144   4.236
    1STR  H1F    701   1.883   9.001   4.495
    1STR  H1G    702   1.954   9.151   4.435
    1STR  H1H    703   1.785   9.147   4.484
    1STR  H1I    704   1.908   8.956   4.117
    1STR  H1J    705   1.959   8.883   4.268
    1STR  H1K    706   2.183   8.891   4.182
    1STR  H1M    707   2.148   9.108   3.966
    1STR  H1N    708   2.071   8.949   3.964
    1STR  H1O    709   2.245   8.962   3.948
    1STR  H1P    710   2.307   9.170   4.165
    1STR  H1Q    711   2.310   9.066   4.304
    1STR  H1R    712   2.554   9.160   4.177
    1STR  H1S    713   2.678   9.048   4.364
    1STR  H1T    714   2.585   8.901   4.340
    1STR  H1U    715   2.507   9.047   4.400
    1STR  H1V    716   2.649   9.025   3.992
    1STR  H1W    717   2.668   8.886   4.094
    1STR  H1X    718   2.992   9.130   4.149
    1STR  H1Y    719   3.186   9.225   4.162
    1STR  H1Z    720   3.416   9.232   4.238
    1STR  H20    721   3.569   9.026   4.475
    1STR  H21    722   3.629   8.990   4.311
    1STR  H22    723   3.593   9.155   4.358
    1STR  H23    724   3.331   8.726   4.425
    1STR  H27    725   3.146   8.822   4.310
    1STR  H28    726   1.337   9.180   4.311
    1STR  H29    727   1.099   9.208   4.316
    1STR  H2A    728   0.851   8.955   4.257
    1STR  H2B    729   0.886   9.126   4.271
    1STR  H2C    730   0.857   9.032   4.417
    1STR  BCK1   731   0.881   8.660   8.783
    1STR  O03    732   0.817   8.718   8.696
    1STR  N04    733   1.012   8.684   8.802
    1STR  C05    734   1.104   8.613   8.882
    1STR  C06    735   1.245   8.637   8.867
    1STR  C07    736   1.343   8.560   8.938
    1STR  N08    737   1.482   8.585   8.922
    1STR  C09    738   1.588   8.524   8.980
    1STR  O0A    739   1.580   8.431   9.060
    1STR  O0B    740   1.707   8.577   8.942
    1STR  C0C    741   1.830   8.521   8.995
    1STR  C0D    742   1.870   8.397   8.913
    1STR  C0E    743   1.943   8.626   8.997
    1STR  O0F    744   2.063   8.571   9.054
    1STR  C0G    745   2.175   8.659   9.060
    1STR  C0H    746   2.158   8.755   9.179
    1STR  C0I    747   2.305   8.576   9.075
    1STR  O0J    748   2.421   8.660   9.069
    1STR  C0K    749   2.549   8.596   9.076
    1STR  C0M    750   2.582   8.529   8.942
    1STR  C0N    751   2.656   8.701   9.112
    1STR  O0O    752   2.784   8.642   9.137
    1STR  C0P    753   2.893   8.665   9.059
    1STR  O0Q    754   2.894   8.728   8.953
    1STR  N0R    755   2.998   8.605   9.115
    1STR  C0S    756   3.132   8.584   9.080
    1STR  C0T    757   3.196   8.483   9.154
    1STR  C0U    758   3.325   8.440   9.121
    1STR  C0V    759   3.396   8.502   9.017
    1STR  C0W    760   3.523   8.434   8.969
    1STR  C0X    761   3.343   8.618   8.954
    1STR  N0Y    762   3.425   8.694   8.869
    1STR  BCK2   763   3.557   8.715   8.887
    1STR  O10    764   3.625   8.779   8.808
    1STR  C13    765   3.207   8.654   8.981
    1STR  C14    766   1.295   8.458   9.022
    1STR  C15    767   1.159   8.437   9.042
    1STR  C16    768   1.063   8.515   8.976
    1STR  C17    769   0.918   8.488   9.012
    1STR  H1B    770   1.047   8.757   8.742
    1STR  H1C    771   1.278   8.714   8.800
    1STR  H1D    772   1.511   8.658   8.860
    1STR  H1E    773   1.814   8.490   9.098
    1STR  H1F    774   1.889   8.421   8.808
    1STR  H1G    775   1.960   8.351   8.953
    1STR  H1H    776   1.792   8.320   8.916
    1STR  H1I    777   1.909   8.712   9.055
    1STR  H1J    778   1.962   8.662   8.896
    1STR  H1K    779   2.183   8.716   8.967
    1STR  H1M    780   2.148   8.701   9.273
    1STR  H1N    781   2.071   8.819   9.168
    1STR  H1O    782   2.245   8.821   9.188
    1STR  H1P    783   2.303   8.520   9.169
    1STR  H1Q    784   2.308   8.502   8.995
    1STR  H1R    785   2.546   8.520   9.156
    1STR  H1S    786   2.679   8.480   8.946
    1STR  H1T    787   2.586   8.604   8.862
    1STR  H1U    788   2.509   8.454   8.913
    1STR  H1V    789   2.627   8.752   9.203
    1STR  H1W    790   2.662   8.779   9.035
    1STR  H1X    791   2.967   8.562   9.200
    1STR  H1Y    792   3.144   8.432   9.234
    1STR  H1Z    793   3.368   8.357   9.174
    1STR  H20    794   3.536   8.447   8.862
    1STR  H21    795   3.611   8.473   9.021
    1STR  H22    796   3.518   8.326   8.986
    1STR  H23    797   3.384   8.746   8.793
    1STR  H27    798   3.161   8.736   8.928
    1STR  H28    799   1.360   8.392   9.077
    1STR  H29    800   1.128   8.359   9.110
    1STR  H2A    801   0.867   8.581   9.038
    1STR  H2B    802   0.909   8.422   9.099
    1STR  H2C    803   0.867   8.439   8.930
    1STR  BCK1   804   0.898   8.662  13.086
    1STR  O03    805   0.810   8.729  13.032
    1STR  N04    806   1.028   8.649  13.048
    1STR  C05    807   1.105   8.676  12.932
    1STR  C06    808   1.248   8.675  12.945
    1STR  C07    809   1.338   8.691  12.835
    1STR  N08    810   1.479   8.684  12.853
    1STR  C09    811   1.580   8.689  12.763
    1STR  O0A    812   1.566   8.704  12.642
    1STR  O0B    813   1.703   8.675  12.822
    1STR  C0C    814   1.824   8.680  12.742
    1STR  C0D    815   1.864   8.827  12.718
    1STR  C0E    816   1.941   8.602  12.809
    1STR  O0F    817   2.062   8.606  12.732
    1STR  C0G    818   2.176   8.536  12.786
    1STR  C0H    819   2.158   8.385  12.765
    1STR  C0I    820   2.308   8.587  12.721
    1STR  O0J    821   2.425   8.528  12.781
    1STR  C0K    822   2.554   8.573  12.735
    1STR  C0M    823   2.582   8.714  12.789
    1STR  C0N    824   2.666   8.476  12.783
    1STR  O0O    825   2.798   8.513  12.738
    1STR  C0P    826   2.900   8.545  12.824
    1STR  O0Q    827   2.889   8.563  12.944
    1STR  N0R    828   3.014   8.555  12.754
    1STR  C0S    829   3.148   8.589  12.782
    1STR  C0T    830   3.229   8.603  12.668
    1STR  C0U    831   3.361   8.646  12.678
    1STR  C0V    832   3.420   8.675  12.803
    1STR  C0W    833   3.557   8.740  12.799
    1STR  C0X    834   3.347   8.650  12.923
    1STR  N0Y    835   3.402   8.671  13.052
    1STR  BCK2   836   3.526   8.665  13.108
    1STR  O10    837   3.631   8.632  13.054
    1STR  C13    838   3.209   8.612  12.910
    1STR  C14    839   1.280   8.712  12.709
    1STR  C15    840   1.140   8.714  12.693
    1STR  C16    841   1.053   8.695  12.801
    1STR  C17    842   0.905   8.691  12.768
    1STR  H1B    843   1.082   8.612  13.124
    1STR  H1C    844   1.291   8.660  13.043
    1STR  H1D    845   1.514   8.672  12.946
    1STR  H1E    846   1.805   8.634  12.645
    1STR  H1F    847   1.884   8.879  12.812
    1STR  H1G    848   1.955   8.833  12.657
    1STR  H1H    849   1.786   8.881  12.665
    1STR  H1I    850   1.908   8.499  12.823
    1STR  H1J    851   1.959   8.643  12.909
    1STR  H1K    852   2.183   8.558  12.893
    1STR  H1M    853   2.148   8.361  12.659
    1STR  H1N    854   2.071   8.346  12.817
    1STR  H1O    855   2.245   8.331  12.803
    1STR  H1P    856   2.306   8.565  12.614
    1STR  H1Q    857   2.310   8.695  12.730
    1STR  H1R    858   2.554   8.575  12.626
    1STR  H1S    859   2.679   8.750  12.754
    1STR  H1T    860   2.586   8.714  12.898
    1STR  H1U    861   2.508   8.788  12.757
    1STR  H1V    862   2.645   8.377  12.743
    1STR  H1W    863   2.663   8.465  12.891
    1STR  H1X    864   2.994   8.534  12.658
    1STR  H1Y    865   3.189   8.584  12.569
    1STR  H1Z    866   3.418   8.661  12.588
    1STR  H20    867   3.565   8.817  12.876
    1STR  H21    868   3.635   8.666  12.814
    1STR  H22    869   3.575   8.788  12.703
    1STR  H23    870   3.331   8.686  13.123
    1STR  H27    871   3.148   8.598  12.998
    1STR  H28    872   1.338   8.726  12.619
    1STR  H29    873   1.101   8.730  12.593
    1STR  H2A    874   0.856   8.609  12.820
    1STR  H2B    875   0.888   8.675  12.661
    1STR  H2C    876   0.858   8.785  12.795
    1STR  BCK1   877   0.896  13.058   0.062
    1STR  O03    878   0.841  13.043   0.171
    1STR  N04    879   1.016  13.117   0.040
    1STR  C05    880   1.102  13.194   0.122
    1STR  C06    881   1.244  13.187   0.102
    1STR  C07    882   1.338  13.264   0.179
    1STR  N08    883   1.477  13.258   0.154
    1STR  C09    884   1.581  13.316   0.219
    1STR  O0A    885   1.570  13.385   0.320
    1STR  O0B    886   1.703  13.288   0.162
    1STR  C0C    887   1.825  13.337   0.223
    1STR  C0D    888   1.866  13.245   0.339
    1STR  C0E    889   1.940  13.349   0.119
    1STR  O0F    890   2.061  13.399   0.179
    1STR  C0G    891   2.175  13.413   0.092
    1STR  C0H    892   2.158  13.540   0.006
    1STR  C0I    893   2.306  13.421   0.175
    1STR  O0J    894   2.423  13.422   0.090
    1STR  C0K    895   2.551  13.421   0.155
    1STR  C0M    896   2.581  13.281   0.211
    1STR  C0N    897   2.663  13.461   0.055
    1STR  O0O    898   2.792  13.471   0.117
    1STR  C0P    899   2.895  13.386   0.091
    1STR  O0Q    900   2.891  13.285   0.021
    1STR  N0R    901   3.002  13.432   0.155
    1STR  C0S    902   3.136  13.394   0.177
    1STR  C0T    903   3.206  13.485   0.258
    1STR  C0U    904   3.339  13.462   0.296
    1STR  C0V    905   3.407  13.347   0.253
    1STR  C0W    906   3.548  13.330   0.307
    1STR  C0X    907   3.344  13.254   0.165
    1STR  N0Y    908   3.414  13.143   0.112
    1STR  BCK2   909   3.541  13.103   0.132
    1STR  O10    910   3.590  13.007   0.073
    1STR  C13    911   3.207  13.279   0.129
    1STR  C14    912   1.283  13.348   0.278
    1STR  C15    913   1.145  13.360   0.297
    1STR  C16    914   1.054  13.287   0.218
    1STR  C17    915   0.907  13.320   0.235
    1STR  H1B    916   1.052  13.100  17.388
    1STR  H1C    917   1.283  13.121   0.026
    1STR  H1D    918   1.509  13.203   0.076
    1STR  H1E    919   1.807  13.437   0.262
    1STR  H1F    920   1.885  13.143   0.305
    1STR  H1G    921   1.956  13.282   0.388
    1STR  H1H    922   1.788  13.241   0.416
    1STR  H1I    923   1.907  13.415   0.039
    1STR  H1J    924   1.959  13.252   0.074
    1STR  H1K    925   2.182  13.326   0.027
    1STR  H1M    926   2.148  13.629   0.068
    1STR  H1N    927   2.071  13.534  17.380
    1STR  H1O    928   2.245  13.554  17.381
    1STR  H1P    929   2.305  13.509   0.238
    1STR  H1Q    930   2.308  13.334   0.241
    1STR  H1R    931   2.550  13.494   0.236
    1STR  H1S    932   2.677  13.280   0.262
    1STR  H1T    933   2.585  13.208   0.131
    1STR  H1U    934   2.507  13.248   0.284
    1STR  H1V    935   2.639  13.559   0.014
    1STR  H1W    936   2.665  13.393  17.409
    1STR  H1X    937   2.975  13.517   0.201
    1STR  H1Y    938   3.159  13.575   0.294
    1STR  H1Z    939   3.387  13.533   0.360
    1STR  H20    940   3.557  13.235   0.359
    1STR  H21    941   3.621  13.335   0.226
    1STR  H22    942   3.575  13.408   0.379
    1STR  H23    943   3.365  13.083   0.047
    1STR  H27    944   3.154  13.210   0.065
    1STR  H28    945   1.345  13.409   0.343
    1STR  H29    946   1.108  13.428   0.372
    1STR  H2A    947   0.854  13.316   0.140
    1STR  H2B    948   0.894  13.421   0.275
    1STR  H2C    949   0.860  13.250   0.305
    1STR  BCK1   950   0.887  13.019   4.430
    1STR  O03    951   0.821  13.022   4.327
    1STR  N04    952   1.021  13.006   4.431
    1STR  C05    953   1.107  12.900   4.394
    1STR  C06    954   1.249  12.920   4.398
    1STR  C07    955   1.343  12.817   4.369
    1STR  N08    956   1.482  12.840   4.377
    1STR  C09    957   1.586  12.754   4.363
    1STR  O0A    958   1.576  12.635   4.338
    1STR  O0B    959   1.707  12.815   4.382
    1STR  C0C    960   1.829  12.739   4.369
    1STR  C0D    961   1.869  12.729   4.220
    1STR  C0E    962   1.942  12.801   4.453
    1STR  O0F    963   2.062  12.723   4.444
    1STR  C0G    964   2.175  12.772   4.518
    1STR  C0H    965   2.158  12.737   4.667
    1STR  C0I    966   2.305  12.710   4.461
    1STR  O0J    967   2.421  12.766   4.525
    1STR  C0K    968   2.548  12.721   4.477
    1STR  C0M    969   2.581  12.788   4.343
    1STR  C0N    970   2.657  12.756   4.583
    1STR  O0O    971   2.785  12.703   4.549
    1STR  C0P    972   2.892  12.783   4.524
    1STR  O0Q    973   2.891  12.905   4.514
    1STR  N0R    974   3.000  12.705   4.510
    1STR  C0S    975   3.135  12.728   4.478
    1STR  C0T    976   3.207  12.614   4.440
    1STR  C0U    977   3.340  12.623   4.395
    1STR  C0V    978   3.406  12.747   4.392
    1STR  C0W    979   3.540  12.754   4.322
    1STR  C0X    980   3.342  12.862   4.446
    1STR  N0Y    981   3.414  12.982   4.460
    1STR  BCK2   982   3.542  12.991   4.501
    1STR  O10    983   3.603  13.097   4.506
    1STR  C13    984   3.204  12.853   4.482
    1STR  C14    985   1.290  12.691   4.333
    1STR  C15    986   1.152  12.668   4.328
    1STR  C16    987   1.060  12.770   4.360
    1STR  C17    988   0.914  12.731   4.356
    1STR  H1B    989   1.067  13.090   4.462
    1STR  H1C    990   1.286  13.018   4.424
    1STR  H1D    991   1.514  12.933   4.398
    1STR  H1E    992   1.812  12.638   4.407
    1STR  H1F    993   1.887  12.827   4.177
    1STR  H1G    994   1.959  12.669   4.209
    1STR  H1H    995   1.791  12.680   4.162
    1STR  H1I    996   1.908  12.807   4.557
    1STR  H1J    997   1.961  12.903   4.420
    1STR  H1K    998   2.182  12.880   4.506
    1STR  H1M    999   2.148  12.629   4.681
    1STR  H1N   1000   2.070  12.785   4.711
    1STR  H1O   1001   2.244  12.770   4.724
    1STR  H1P   1002   2.303  12.602   4.474
    1STR  H1Q   1003   2.307  12.729   4.354
    1STR  H1R   1004   2.546  12.612   4.466
    1STR  H1S   1005   2.679  12.755   4.307
    1STR  H1T   1006   2.586  12.896   4.354
    1STR  H1U   1007   2.509  12.765   4.265
    1STR  H1V   1008   2.628  12.713   4.678
    1STR  H1W   1009   2.661  12.864   4.599
    1STR  H1X   1010   2.973  12.609   4.522
    1STR  H1Y   1011   3.160  12.516   4.439
    1STR  H1Z   1012   3.390  12.534   4.360
    1STR  H20   1013   3.543  12.842   4.257
    1STR  H21   1014   3.623  12.760   4.393
    1STR  H22   1015   3.557  12.668   4.258
    1STR  H23   1016   3.368  13.070   4.445
    1STR  H27   1017   3.151  12.941   4.516
    1STR  H28   1018   1.352  12.607   4.308
    1STR  H29   1019   1.117  12.570   4.301
    1STR  H2A   1020   0.866  12.754   4.451
    1STR  H2B   1021   0.900  12.624   4.340
    1STR  H2C   1022   0.863  12.783   4.275
    1STR  BCK1  1023   0.897  13.064   8.725
    1STR  O03   1024   0.813  13.152   8.740
    1STR  N04   1025   1.025  13.077   8.678
    1STR  C05   1026   1.103  13.179   8.617
    1STR  C06   1027   1.246  13.166   8.620
    1STR  C07   1028   1.336  13.258   8.556
    1STR  N08   1029   1.477  13.239   8.559
    1STR  C09   1030   1.578  13.312   8.506
    1STR  O0A   1031   1.563  13.418   8.445
    1STR  O0B   1032   1.702  13.256   8.528
    1STR  C0C   1033   1.823  13.323   8.483
    1STR  C0D   1034   1.863  13.432   8.585
    1STR  C0E   1035   1.940  13.222   8.462
    1STR  O0F   1036   2.062  13.287   8.418
    1STR  C0G   1037   2.176  13.201   8.396
    1STR  C0H   1038   2.159  13.126   8.263
    1STR  C0I   1039   2.309  13.284   8.396
    1STR  O0J   1040   2.426  13.200   8.386
    1STR  C0K   1041   2.555  13.265   8.395
    1STR  C0M   1042   2.582  13.309   8.540
    1STR  C0N   1043   2.670  13.169   8.350
    1STR  O0O   1044   2.802  13.228   8.354
    1STR  C0P   1045   2.901  13.184   8.438
    1STR  O0Q   1046   2.889  13.101   8.527
    1STR  N0R   1047   3.016  13.246   8.405
    1STR  C0S   1048   3.149  13.250   8.452
    1STR  C0T   1049   3.231  13.339   8.380
    1STR  C0U   1050   3.364  13.362   8.417
    1STR  C0V   1051   3.421  13.297   8.528
    1STR  C0W   1052   3.561  13.343   8.566
    1STR  C0X   1053   3.347  13.200   8.601
    1STR  N0Y   1054   3.399  13.131   8.715
    1STR  BCK2  1055   3.522  13.096   8.761
    1STR  O10   1056   3.630  13.102   8.703
    1STR  C13   1057   3.209  13.180   8.562
    1STR  C14   1058   1.276  13.367   8.489
    1STR  C15   1059   1.137  13.382   8.483
    1STR  C16   1060   1.050  13.289   8.543
    1STR  C17   1061   0.902  13.310   8.519
    1STR  H1B   1062   1.077  12.993   8.695
    1STR  H1C   1063   1.289  13.083   8.673
    1STR  H1D   1064   1.512  13.158   8.606
    1STR  H1E   1065   1.803  13.371   8.387
    1STR  H1F   1066   1.883  13.390   8.683
    1STR  H1G   1067   1.953  13.484   8.552
    1STR  H1H   1068   1.784  13.507   8.596
    1STR  H1I   1069   1.908  13.149   8.388
    1STR  H1J   1070   1.959  13.168   8.555
    1STR  H1K   1071   2.183  13.129   8.478
    1STR  H1M   1072   2.148  13.196   8.179
    1STR  H1N   1073   2.071  13.061   8.263
    1STR  H1O   1074   2.245  13.063   8.243
    1STR  H1P   1075   2.307  13.355   8.313
    1STR  H1Q   1076   2.311  13.342   8.487
    1STR  H1R   1077   2.556  13.352   8.329
    1STR  H1S   1078   2.679  13.359   8.547
    1STR  H1T   1079   2.585  13.222   8.606
    1STR  H1U   1080   2.508  13.378   8.578
    1STR  H1V   1081   2.651  13.140   8.246
    1STR  H1W   1082   2.667  13.076   8.406
    1STR  H1X   1083   2.997  13.305   8.327
    1STR  H1Y   1084   3.193  13.393   8.295
    1STR  H1Z   1085   3.422  13.433   8.361
    1STR  H20   1086   3.570  13.351   8.675
    1STR  H21   1087   3.635  13.273   8.528
    1STR  H22   1088   3.584  13.441   8.525
    1STR  H23   1089   3.327  13.097   8.775
    1STR  H27   1090   3.147  13.111   8.617
    1STR  H28   1091   1.335  13.443   8.439
    1STR  H29   1092   1.097  13.466   8.429
    1STR  H2A   1093   0.852  13.216   8.499
    1STR  H2B   1094   0.884  13.374   8.433
    1STR  H2C   1095   0.856  13.358   8.606
    1STR  BCK1  1096   0.893  13.035  13.131
    1STR  O03   1097   0.859  12.924  13.171
    1STR  N04   1098   1.010  13.095  13.162
    1STR  C05   1099   1.103  13.068  13.265
    1STR  C06   1100   1.244  13.078  13.241
    1STR  C07   1101   1.341  13.055  13.344
    1STR  N08   1102   1.480  13.069  13.320
    1STR  C09   1103   1.585  13.052  13.403
    1STR  O0A   1104   1.576  13.016  13.520
    1STR  O0B   1105   1.705  13.078  13.344
    1STR  C0C   1106   1.828  13.059  13.419
    1STR  C0D   1107   1.868  12.911  13.417
    1STR  C0E   1108   1.941  13.149  13.364
    1STR  O0F   1109   2.061  13.133  13.442
    1STR  C0G   1110   2.174  13.211  13.400
    1STR  C0H   1111   2.158  13.356  13.448
    1STR  C0I   1112   2.305  13.148  13.456
    1STR  O0J   1113   2.420  13.217  13.405
    1STR  C0K   1114   2.549  13.166  13.445
    1STR  C0M   1115   2.581  13.037  13.369
    1STR  C0N   1116   2.657  13.274  13.416
    1STR  O0O   1117   2.785  13.237  13.467
    1STR  C0P   1118   2.892  13.210  13.388
    1STR  O0Q   1119   2.892  13.203  13.265
    1STR  N0R   1120   2.997  13.191  13.468
    1STR  C0S   1121   3.131  13.151  13.454
    1STR  C0T   1122   3.191  13.118  13.577
    1STR  C0U   1123   3.320  13.064  13.582
    1STR  C0V   1124   3.394  13.045  13.465
    1STR  C0W   1125   3.523  12.965  13.479
    1STR  C0X   1126   3.345  13.093  13.340
    1STR  N0Y   1127   3.427  13.094  13.226
    1STR  BCK2  1128   3.561  13.099  13.223
    1STR  O10   1129   3.625  13.100  13.118
    1STR  C13   1130   3.209  13.140  13.335
    1STR  C14   1131   1.291  13.019  13.471
    1STR  C15   1132   1.153  13.012  13.497
    1STR  C16   1133   1.059  13.039  13.397
    1STR  C17   1134   0.913  13.044  13.439
    1STR  H1B   1135   1.036  13.168  13.098
    1STR  H1C   1136   1.278  13.105  13.142
    1STR  H1D   1137   1.509  13.097  13.228
    1STR  H1E   1138   1.811  13.089  13.523
    1STR  H1F   1139   1.887  12.875  13.315
    1STR  H1G   1140   1.959  12.894  13.475
    1STR  H1H   1141   1.790  12.848  13.460
    1STR  H1I   1142   1.908  13.253  13.368
    1STR  H1J   1143   1.961  13.125  13.260
    1STR  H1K   1144   2.182  13.208  13.291
    1STR  H1M   1145   2.147  13.360  13.557
    1STR  H1N   1146   2.070  13.404  13.405
    1STR  H1O   1147   2.244  13.416  13.421
    1STR  H1P   1148   2.303  13.152  13.566
    1STR  H1Q   1149   2.307  13.043  13.429
    1STR  H1R   1150   2.547  13.147  13.553
    1STR  H1S   1151   2.678  12.998  13.399
    1STR  H1T   1152   2.586  13.056  13.262
    1STR  H1U   1153   2.508  12.958  13.386
    1STR  H1V   1154   2.628  13.366  13.467
    1STR  H1W   1155   2.661  13.298  13.310
    1STR  H1X   1156   2.965  13.204  13.562
    1STR  H1Y   1157   3.138  13.130  13.670
    1STR  H1Z   1158   3.361  13.034  13.677
    1STR  H20   1159   3.538  12.901  13.392
    1STR  H21   1160   3.608  13.032  13.491
    1STR  H22   1161   3.518  12.899  13.565
    1STR  H23   1162   3.384  13.100  13.135
    1STR  H27   1163   3.165  13.170  13.241
    1STR  H28   1164   1.354  12.997  13.555
    1STR  H29   1165   1.120  12.987  13.597
    1STR  H2A   1166   0.861  13.126  13.390
    1STR  H2B   1167   0.904  13.059  13.546
    1STR  H2C   1168   0.864  12.950  13.415
    1STR  BCK1  1169   5.256  17.374   0.029
    1STR  O03   1170   5.173  17.411  17.387
    1STR  N04   1171   5.387  17.345   0.006
    1STR  C05   1172   5.467  17.312  17.334
    1STR  C06   1173   5.609  17.320  17.347
    1STR  C07   1174   5.700  17.279  17.245
    1STR  N08   1175   5.840  17.284  17.265
    1STR  C09   1176   5.942  17.242  17.187
    1STR  O0A   1177   5.929  17.190  17.076
    1STR  O0B   1178   6.065  17.262  17.244
    1STR  C0C   1179   6.186  17.225  17.175
    1STR  C0D   1180   6.226  17.336  17.076
    1STR  C0E   1181   6.301  17.195  17.275
    1STR  O0F   1182   6.422  17.156  17.207
    1STR  C0G   1183   6.535  17.127  17.291
    1STR  C0H   1184   6.518  16.988  17.354
    1STR  C0I   1185   6.667  17.135  17.208
    1STR  O0J   1186   6.783  17.118  17.291
    1STR  C0K   1187   6.912  17.130  17.227
    1STR  C0M   1188   6.942  17.277  17.197
    1STR  C0N   1189   7.022  17.071  17.320
    1STR  O0O   1190   7.153  17.073  17.260
    1STR  C0P   1191   7.257  17.143  17.314
    1STR  O0Q   1192   7.250  17.223  17.407
    1STR  N0R   1193   7.370  17.111  17.249
    1STR  C0S   1194   7.504  17.153  17.254
    1STR  C0T   1195   7.583  17.111  17.145
    1STR  C0U   1196   7.715  17.153  17.132
    1STR  C0V   1197   7.776  17.236  17.228
    1STR  C0W   1198   7.912  17.293  17.192
    1STR  C0X   1199   7.706  17.269  17.348
    1STR  N0Y   1200   7.762  17.342   0.015
    1STR  BCK2  1201   7.888  17.361   0.065
    1STR  O10   1202   7.993  17.314   0.024
    1STR  C13   1203   7.567  17.231  17.356
    1STR  C14   1204   5.643  17.232  17.125
    1STR  C15   1205   5.504  17.223  17.109
    1STR  C16   1206   5.416  17.261  17.211
    1STR  C17   1207   5.268  17.239  17.183
    1STR  H1B   1208   5.439  17.352   0.092
    1STR  H1C   1209   5.650  17.358  17.440
    1STR  H1D   1210   5.874  17.324  17.351
    1STR  H1E   1211   6.168  17.133  17.118
    1STR  H1F   1212   6.245  17.431  17.128
    1STR  H1G   1213   6.316  17.309  17.022
    1STR  H1H   1214   6.148  17.354  17.002
    1STR  H1I   1215   6.268  17.116  17.342
    1STR  H1J   1216   6.320  17.284  17.336
    1STR  H1K   1217   6.542  17.203  17.370
    1STR  H1M   1218   6.508  16.911  17.278
    1STR  H1N   1219   6.431  16.982  17.419
    1STR  H1O   1220   6.605  16.963  17.415
    1STR  H1P   1221   6.665  17.059  17.129
    1STR  H1Q   1222   6.669  17.231  17.158
    1STR  H1R   1223   6.911  17.073  17.134
    1STR  H1S   1224   7.039  17.288  17.149
    1STR  H1T   1225   6.946  17.335  17.290
    1STR  H1U   1226   6.869  17.323  17.132
    1STR  H1V   1227   6.998  16.967  17.340
    1STR  H1W   1228   7.022  17.121  17.416
    1STR  H1X   1229   7.347  17.044  17.178
    1STR  H1Y   1230   7.541  17.049  17.067
    1STR  H1Z   1231   7.771  17.124  17.044
    1STR  H20   1232   7.919  17.397  17.223
    1STR  H21   1233   7.992  17.236  17.237
    1STR  H22   1234   7.928  17.292  17.084
    1STR  H23   1235   7.693  17.383   0.075
    1STR  H27   1236   7.508  17.260   0.001
    1STR  H28   1237   5.703  17.199  17.042
    1STR  H29   1238   5.466  17.185  17.016
    1STR  H2A   1239   5.219  17.194  17.269
    1STR  H2B   1240   5.253  17.172  17.099
    1STR  H2C   1241   5.221  17.334  17.159
    1STR  BCK1  1242   5.256  17.435   4.407
    1STR  O03   1243   5.186   0.041   4.496
    1STR  N04   1244   5.379   0.037   4.368
    1STR  C05   1245   5.462   0.149   4.399
    1STR  C06   1246   5.605   0.136   4.386
    1STR  C07   1247   5.696   0.244   4.410
    1STR  N08   1248   5.836   0.228   4.393
    1STR  C09   1249   5.939   0.313   4.418
    1STR  O0A   1250   5.926   0.426   4.465
    1STR  O0B   1251   6.062   0.261   4.385
    1STR  C0C   1252   6.183   0.336   4.409
    1STR  C0D   1253   6.224   0.321   4.557
    1STR  C0E   1254   6.300   0.291   4.316
    1STR  O0F   1255   6.421   0.365   4.340
    1STR  C0G   1256   6.535   0.331   4.259
    1STR  C0H   1257   6.518   0.391   4.118
    1STR  C0I   1258   6.667   0.381   4.324
    1STR  O0J   1259   6.785   0.337   4.252
    1STR  C0K   1260   6.913   0.371   4.309
    1STR  C0M   1261   6.941   0.283   4.431
    1STR  C0N   1262   7.027   0.350   4.205
    1STR  O0O   1263   7.157   0.388   4.254
    1STR  C0P   1264   7.258   0.298   4.277
    1STR  O0Q   1265   7.250   0.176   4.270
    1STR  N0R   1266   7.369   0.368   4.308
    1STR  C0S   1267   7.502   0.342   4.346
    1STR  C0T   1268   7.577   0.459   4.365
    1STR  C0U   1269   7.710   0.453   4.408
    1STR  C0V   1270   7.774   0.331   4.433
    1STR  C0W   1271   7.917   0.339   4.484
    1STR  C0X   1272   7.705   0.208   4.410
    1STR  N0Y   1273   7.770   0.083   4.426
    1STR  BCK2  1274   7.896   0.053   4.466
    1STR  O10   1275   7.940  17.379   4.465
    1STR  C13   1276   7.568   0.216   4.368
    1STR  C14   1277   5.639   0.367   4.449
    1STR  C15   1278   5.500   0.383   4.459
    1STR  C16   1279   5.411   0.278   4.431
    1STR  C17   1280   5.264   0.312   4.429
    1STR  H1B   1281   5.423  17.411   4.306
    1STR  H1C   1282   5.645   0.040   4.358
    1STR  H1D   1283   5.870   0.141   4.357
    1STR  H1E   1284   6.164   0.441   4.389
    1STR  H1F   1285   6.244   0.218   4.583
    1STR  H1G   1286   6.314   0.379   4.578
    1STR  H1H   1287   6.146   0.359   4.624
    1STR  H1I   1288   6.267   0.305   4.213
    1STR  H1J   1289   6.319   0.185   4.330
    1STR  H1K   1290   6.542   0.222   4.251
    1STR  H1M   1291   6.508   0.499   4.123
    1STR  H1N   1292   6.431   0.351   4.066
    1STR  H1O   1293   6.605   0.369   4.056
    1STR  H1P   1294   6.666   0.490   4.331
    1STR  H1Q   1295   6.670   0.344   4.427
    1STR  H1R   1296   6.913   0.476   4.338
    1STR  H1S   1297   7.038   0.308   4.475
    1STR  H1T   1298   6.945   0.177   4.403
    1STR  H1U   1299   6.867   0.294   4.510
    1STR  H1V   1300   7.006   0.412   4.118
    1STR  H1W   1301   7.028   0.247   4.167
    1STR  H1X   1302   7.345   0.465   4.302
    1STR  H1Y   1303   7.534   0.556   4.347
    1STR  H1Z   1304   7.763   0.546   4.423
    1STR  H20   1305   7.926   0.288   4.580
    1STR  H21   1306   7.986   0.295   4.412
    1STR  H22   1307   7.950   0.442   4.499
    1STR  H23   1308   7.718  17.440   4.401
    1STR  H27   1309   7.510   0.126   4.352
    1STR  H28   1310   5.699   0.454   4.471
    1STR  H29   1311   5.462   0.480   4.486
    1STR  H2A   1312   5.212   0.260   4.348
    1STR  H2B   1313   5.248   0.419   4.413
    1STR  H2C   1314   5.217   0.286   4.524
    1STR  BCK1  1315   5.240  17.377   8.782
    1STR  O03   1316   5.176   0.019   8.718
    1STR  N04   1317   5.374  17.387   8.795
    1STR  C05   1318   5.465  17.290   8.842
    1STR  C06   1319   5.606  17.316   8.836
    1STR  C07   1320   5.704  17.218   8.871
    1STR  N08   1321   5.843  17.245   8.865
    1STR  C09   1322   5.948  17.167   8.898
    1STR  O0A   1323   5.940  17.052   8.941
    1STR  O0B   1324   6.068  17.229   8.880
    1STR  C0C   1325   6.190  17.158   8.910
    1STR  C0D   1326   6.230  17.069   8.790
    1STR  C0E   1327   6.303  17.256   8.948
    1STR  O0F   1328   6.423  17.185   8.982
    1STR  C0G   1329   6.535  17.265   9.019
    1STR  C0H   1330   6.518  17.315   9.163
    1STR  C0I   1331   6.665  17.182   9.004
    1STR  O0J   1332   6.781  17.264   9.027
    1STR  C0K   1333   6.908  17.200   9.012
    1STR  C0M   1334   6.941  17.184   8.863
    1STR  C0N   1335   7.016  17.287   9.082
    1STR  O0O   1336   7.144  17.222   9.084
    1STR  C0P   1337   7.252  17.273   9.020
    1STR  O0Q   1338   7.253  17.369   8.944
    1STR  N0R   1339   7.358  17.198   9.052
    1STR  C0S   1340   7.492  17.194   9.012
    1STR  C0T   1341   7.560  17.075   9.043
    1STR  C0U   1342   7.690  17.052   8.999
    1STR  C0V   1343   7.760  17.150   8.927
    1STR  C0W   1344   7.891  17.110   8.860
    1STR  C0X   1345   7.702  17.279   8.910
    1STR  N0Y   1346   7.781  17.384   8.859
    1STR  BCK2  1347   7.910  17.404   8.889
    1STR  O10   1348   7.976   0.054   8.839
    1STR  C13   1349   7.565  17.298   8.946
    1STR  C14   1350   5.655  17.092   8.912
    1STR  C15   1351   5.518  17.066   8.924
    1STR  C16   1352   5.423  17.163   8.892
    1STR  C17   1353   5.278  17.124   8.913
    1STR  H1B   1354   5.410   0.032   8.757
    1STR  H1C   1355   5.640  17.412   8.801
    1STR  H1D   1356   5.872  17.335   8.831
    1STR  H1E   1357   6.174  17.094   8.996
    1STR  H1F   1358   6.249  17.129   8.701
    1STR  H1G   1359   6.320  17.013   8.812
    1STR  H1H   1360   6.152  16.997   8.767
    1STR  H1I   1361   6.269  17.316   9.032
    1STR  H1J   1362   6.322  17.324   8.865
    1STR  H1K   1363   6.543  17.351   8.951
    1STR  H1M   1364   6.508  17.232   9.233
    1STR  H1N   1365   6.431  17.379   9.175
    1STR  H1O   1366   6.605  17.374   9.194
    1STR  H1P   1367   6.663  17.098   9.073
    1STR  H1Q   1368   6.667  17.141   8.903
    1STR  H1R   1369   6.906  17.102   9.060
    1STR  H1S   1370   7.039  17.137   8.850
    1STR  H1T   1371   6.946  17.282   8.814
    1STR  H1U   1372   6.869  17.123   8.810
    1STR  H1V   1373   6.986  17.303   9.186
    1STR  H1W   1374   7.022  17.386   9.037
    1STR  H1X   1375   7.328  17.125   9.115
    1STR  H1Y   1376   7.510  16.996   9.098
    1STR  H1Z   1377   7.737  16.956   9.018
    1STR  H20   1378   7.899  17.158   8.762
    1STR  H21   1379   7.977  17.139   8.921
    1STR  H22   1380   7.895  17.003   8.843
    1STR  H23   1381   7.738   0.015   8.803
    1STR  H27   1382   7.516  17.392   8.927
    1STR  H28   1383   5.720  17.009   8.938
    1STR  H29   1384   5.487  16.968   8.957
    1STR  H2A   1385   5.228  17.196   8.978
    1STR  H2B   1386   5.269  17.027   8.961
    1STR  H2C   1387   5.226  17.117   8.817
    1STR  BCK1  1388   5.258  17.397  13.078
    1STR  O03   1389   5.170   0.037  13.048
    1STR  N04   1390   5.387  17.393  13.035
    1STR  C05   1391   5.464   0.015  12.933
    1STR  C06   1392   5.607   0.008  12.944
    1STR  C07   1393   5.697   0.058  12.843
    1STR  N08   1394   5.838   0.045  12.856
    1STR  C09   1395   5.939   0.080  12.773
    1STR  O0A   1396   5.924   0.136  12.665
    1STR  O0B   1397   6.063   0.046  12.823
    1STR  C0C   1398   6.184   0.078  12.749
    1STR  C0D   1399   6.224   0.225  12.777
    1STR  C0E   1400   6.300  17.422  12.785
    1STR  O0F   1401   6.422   0.012  12.714
    1STR  C0G   1402   6.536  17.368  12.741
    1STR  C0H   1403   6.518  17.234  12.669
    1STR  C0I   1404   6.668  17.438  12.697
    1STR  O0J   1405   6.786  17.362  12.734
    1STR  C0K   1406   6.915  17.421  12.706
    1STR  C0M   1407   6.942   0.095  12.805
    1STR  C0N   1408   7.028  17.314  12.719
    1STR  O0O   1409   7.160  17.365  12.691
    1STR  C0P   1410   7.261  17.368  12.784
    1STR  O0Q   1411   7.249  17.344  12.903
    1STR  N0R   1412   7.375  17.402  12.723
    1STR  C0S   1413   7.509  17.426  12.762
    1STR  C0T   1414   7.591   0.032  12.657
    1STR  C0U   1415   7.724   0.070  12.680
    1STR  C0V   1416   7.781   0.062  12.808
    1STR  C0W   1417   7.919   0.123  12.823
    1STR  C0X   1418   7.707   0.006  12.916
    1STR  N0Y   1419   7.761  17.431  13.047
    1STR  BCK2  1420   7.885  17.414  13.101
    1STR  O10   1421   7.991  17.394  13.043
    1STR  C13   1422   7.569  17.412  12.891
    1STR  C14   1423   5.638   0.119  12.731
    1STR  C15   1424   5.498   0.127  12.717
    1STR  C16   1425   5.411   0.074  12.815
    1STR  C17   1426   5.263   0.081  12.783
    1STR  H1B   1427   5.441  17.333  13.094
    1STR  H1C   1428   5.651  17.403  13.031
    1STR  H1D   1429   5.873   0.002  12.940
    1STR  H1E   1430   6.164   0.068  12.642
    1STR  H1F   1431   6.244   0.242  12.882
    1STR  H1G   1432   6.314   0.251  12.721
    1STR  H1H   1433   6.145   0.294  12.745
    1STR  H1I   1434   6.268  17.320  12.763
    1STR  H1J   1435   6.319  17.426  12.893
    1STR  H1K   1436   6.543  17.352  12.849
    1STR  H1M   1437   6.508  17.247  12.562
    1STR  H1N   1438   6.431  17.179  12.705
    1STR  H1O   1439   6.605  17.170  12.686
    1STR  H1P   1440   6.667   0.014  12.589
    1STR  H1Q   1441   6.671   0.097  12.743
    1STR  H1R   1442   6.915   0.020  12.604
    1STR  H1S   1443   7.039   0.141  12.784
    1STR  H1T   1444   6.946   0.058  12.907
    1STR  H1U   1445   6.868   0.175  12.800
    1STR  H1V   1446   7.008  17.235  12.647
    1STR  H1W   1447   7.025  17.266  12.817
    1STR  H1X   1448   7.356  17.413  12.626
    1STR  H1Y   1449   7.552   0.043  12.557
    1STR  H1Z   1450   7.781   0.109  12.597
    1STR  H20   1451   7.927   0.177  12.918
    1STR  H21   1452   7.996   0.047  12.817
    1STR  H22   1453   7.939   0.196  12.744
    1STR  H23   1454   7.689  17.429  13.118
    1STR  H27   1455   7.507  17.374  12.971
    1STR  H28   1456   5.696   0.161  12.650
    1STR  H29   1457   5.458   0.173  12.628
    1STR  H2A   1458   5.214  17.427  12.808
    1STR  H2B   1459   5.246   0.098  12.677
    1STR  H2C   1460   5.217   0.163  12.838
    1STR  BCK1  1461   5.256   4.325   0.062
    1STR  O03   1462   5.211   4.266   0.160
    1STR  N04   1463   5.373   4.392   0.057
    1STR  C05   1464   5.462   4.433   0.159
    1STR  C06   1465   5.604   4.432   0.136
    1STR  C07   1466   5.699   4.475   0.234
    1STR  N08   1467   5.838   4.476   0.208
    1STR  C09   1468   5.943   4.507   0.288
    1STR  O0A   1469   5.933   4.539   0.406
    1STR  O0B   1470   6.063   4.500   0.224
    1STR  C0C   1471   6.186   4.525   0.297
    1STR  C0D   1472   6.227   4.398   0.375
    1STR  C0E   1473   6.300   4.572   0.204
    1STR  O0F   1474   6.421   4.599   0.277
    1STR  C0G   1475   6.534   4.642   0.200
    1STR  C0H   1476   6.517   4.790   0.163
    1STR  C0I   1477   6.665   4.620   0.281
    1STR  O0J   1478   6.781   4.650   0.201
    1STR  C0K   1479   6.910   4.628   0.262
    1STR  C0M   1480   6.940   4.477   0.267
    1STR  C0N   1481   7.020   4.700   0.180
    1STR  O0O   1482   7.148   4.692   0.242
    1STR  C0P   1483   7.253   4.622   0.190
    1STR  O0Q   1484   7.251   4.551   0.090
    1STR  N0R   1485   7.359   4.646   0.267
    1STR  C0S   1486   7.493   4.605   0.276
    1STR  C0T   1487   7.558   4.660   0.388
    1STR  C0U   1488   7.690   4.625   0.420
    1STR  C0V   1489   7.762   4.535   0.339
    1STR  C0W   1490   7.899   4.496   0.391
    1STR  C0X   1491   7.704   4.484   0.219
    1STR  N0Y   1492   7.779   4.403   0.130
    1STR  BCK2  1493   7.910   4.372   0.132
    1STR  O10   1494   7.963   4.306   0.044
    1STR  C13   1495   7.567   4.518   0.191
    1STR  C14   1496   5.646   4.518   0.358
    1STR  C15   1497   5.508   4.524   0.381
    1STR  C16   1498   5.416   4.486   0.282
    1STR  C17   1499   5.269   4.512   0.311
    1STR  H1B   1500   5.403   4.413  17.403
    1STR  H1C   1501   5.641   4.397   0.041
    1STR  H1D   1502   5.869   4.451   0.115
    1STR  H1E   1503   6.168   4.605   0.369
    1STR  H1F   1504   6.246   4.314   0.309
    1STR  H1G   1505   6.317   4.416   0.433
    1STR  H1H   1506   6.149   4.368   0.446
    1STR  H1I   1507   6.267   4.661   0.151
    1STR  H1J   1508   6.319   4.495   0.128
    1STR  H1K   1509   6.541   4.582   0.110
    1STR  H1M   1510   6.507   4.852   0.252
    1STR  H1N   1511   6.430   4.807   0.100
    1STR  H1O   1512   6.604   4.826   0.107
    1STR  H1P   1513   6.664   4.681   0.371
    1STR  H1Q   1514   6.668   4.516   0.314
    1STR  H1R   1515   6.909   4.669   0.363
    1STR  H1S   1516   7.037   4.460   0.314
    1STR  H1T   1517   6.945   4.436   0.166
    1STR  H1U   1518   6.867   4.421   0.324
    1STR  H1V   1519   6.994   4.806   0.174
    1STR  H1W   1520   7.023   4.665   0.077
    1STR  H1X   1521   7.329   4.710   0.338
    1STR  H1Y   1522   7.508   4.729   0.454
    1STR  H1Z   1523   7.735   4.667   0.508
    1STR  H20   1524   7.908   4.387   0.394
    1STR  H21   1525   7.977   4.539   0.328
    1STR  H22   1526   7.916   4.531   0.493
    1STR  H23   1527   7.731   4.366   0.049
    1STR  H27   1528   7.518   4.478   0.103
    1STR  H28   1529   5.709   4.551   0.439
    1STR  H29   1530   5.473   4.561   0.476
    1STR  H2A   1531   5.216   4.543   0.220
    1STR  H2B   1532   5.257   4.592   0.384
    1STR  H2C   1533   5.222   4.423   0.351
    1STR  BCK1  1534   5.252   4.302   4.412
    1STR  O03   1535   5.177   4.301   4.315
    1STR  N04   1536   5.384   4.270   4.412
    1STR  C05   1537   5.466   4.185   4.335
    1STR  C06   1538   5.609   4.202   4.344
    1STR  C07   1539   5.702   4.114   4.280
    1STR  N08   1540   5.841   4.131   4.295
    1STR  C09   1541   5.944   4.054   4.252
    1STR  O0A   1542   5.933   3.951   4.187
    1STR  O0B   1543   6.066   4.104   4.290
    1STR  C0C   1544   6.187   4.036   4.251
    1STR  C0D   1545   6.228   4.078   4.108
    1STR  C0E   1546   6.301   4.065   4.352
    1STR  O0F   1547   6.422   3.996   4.316
    1STR  C0G   1548   6.535   4.016   4.402
    1STR  C0H   1549   6.518   3.933   4.530
    1STR  C0I   1550   6.665   3.978   4.328
    1STR  O0J   1551   6.781   4.008   4.407
    1STR  C0K   1552   6.909   3.983   4.347
    1STR  C0M   1553   6.941   4.092   4.244
    1STR  C0N   1554   7.018   3.981   4.458
    1STR  O0O   1555   7.147   3.945   4.408
    1STR  C0P   1556   7.254   4.030   4.413
    1STR  O0Q   1557   7.250   4.148   4.447
    1STR  N0R   1558   7.363   3.964   4.375
    1STR  C0S   1559   7.498   3.998   4.355
    1STR  C0T   1560   7.572   3.904   4.281
    1STR  C0U   1561   7.705   3.929   4.244
    1STR  C0V   1562   7.769   4.048   4.284
    1STR  C0W   1563   7.905   4.079   4.223
    1STR  C0X   1564   7.703   4.138   4.372
    1STR  N0Y   1565   7.772   4.249   4.424
    1STR  BCK2  1566   7.900   4.249   4.467
    1STR  O10   1567   7.957   4.350   4.505
    1STR  C13   1568   7.565   4.115   4.401
    1STR  C14   1569   5.647   4.009   4.202
    1STR  C15   1570   5.509   3.991   4.191
    1STR  C16   1571   5.418   4.076   4.257
    1STR  C17   1572   5.272   4.040   4.243
    1STR  H1B   1573   5.433   4.322   4.483
    1STR  H1C   1574   5.648   4.283   4.402
    1STR  H1D   1575   5.874   4.211   4.346
    1STR  H1E   1576   6.170   3.928   4.252
    1STR  H1F   1577   6.247   4.185   4.101
    1STR  H1G   1578   6.318   4.026   4.077
    1STR  H1H   1579   6.150   4.052   4.037
    1STR  H1I   1580   6.268   4.035   4.451
    1STR  H1J   1581   6.320   4.173   4.356
    1STR  H1K   1582   6.542   4.122   4.428
    1STR  H1M   1583   6.508   3.826   4.507
    1STR  H1N   1584   6.431   3.962   4.588
    1STR  H1O   1585   6.604   3.944   4.595
    1STR  H1P   1586   6.663   3.872   4.302
    1STR  H1Q   1587   6.668   4.032   4.234
    1STR  H1R   1588   6.907   3.885   4.299
    1STR  H1S   1589   7.039   4.073   4.198
    1STR  H1T   1590   6.946   4.190   4.291
    1STR  H1U   1591   6.869   4.096   4.163
    1STR  H1V   1592   6.991   3.906   4.532
    1STR  H1W   1593   7.020   4.076   4.511
    1STR  H1X   1594   7.337   3.869   4.352
    1STR  H1Y   1595   7.527   3.812   4.247
    1STR  H1Z   1596   7.757   3.858   4.182
    1STR  H20   1597   7.906   4.183   4.188
    1STR  H21   1598   7.986   4.066   4.294
    1STR  H22   1599   7.925   4.016   4.137
    1STR  H23   1600   7.723   4.336   4.438
    1STR  H27   1601   7.510   4.186   4.462
    1STR  H28   1602   5.709   3.938   4.149
    1STR  H29   1603   5.473   3.908   4.132
    1STR  H2A   1604   5.222   4.042   4.339
    1STR  H2B   1605   5.258   3.940   4.202
    1STR  H2C   1606   5.223   4.110   4.175
    1STR  BCK1  1607   5.256   4.355   8.740
    1STR  O03   1608   5.177   4.436   8.786
    1STR  N04   1609   5.382   4.379   8.693
    1STR  C05   1610   5.462   4.494   8.666
    1STR  C06   1611   5.605   4.479   8.663
    1STR  C07   1612   5.695   4.586   8.630
    1STR  N08   1613   5.836   4.566   8.625
    1STR  C09   1614   5.938   4.652   8.600
    1STR  O0A   1615   5.924   4.772   8.579
    1STR  O0B   1616   6.061   4.592   8.601
    1STR  C0C   1617   6.183   4.669   8.581
    1STR  C0D   1618   6.223   4.737   8.714
    1STR  C0E   1619   6.300   4.582   8.526
    1STR  O0F   1620   6.422   4.658   8.507
    1STR  C0G   1621   6.536   4.585   8.457
    1STR  C0H   1622   6.518   4.560   8.306
    1STR  C0I   1623   6.668   4.663   8.485
    1STR  O0J   1624   6.786   4.587   8.448
    1STR  C0K   1625   6.915   4.646   8.479
    1STR  C0M   1626   6.942   4.637   8.629
    1STR  C0N   1627   7.030   4.571   8.403
    1STR  O0O   1628   7.161   4.627   8.427
    1STR  C0P   1629   7.261   4.559   8.492
    1STR  O0Q   1630   7.250   4.451   8.550
    1STR  N0R   1631   7.375   4.630   8.483
    1STR  C0S   1632   7.508   4.621   8.529
    1STR  C0T   1633   7.589   4.727   8.486
    1STR  C0U   1634   7.722   4.739   8.528
    1STR  C0V   1635   7.780   4.644   8.615
    1STR  C0W   1636   7.920   4.676   8.662
    1STR  C0X   1637   7.706   4.530   8.657
    1STR  N0Y   1638   7.758   4.433   8.747
    1STR  BCK2  1639   7.881   4.389   8.786
    1STR  O10   1640   7.990   4.410   8.732
    1STR  C13   1641   7.568   4.522   8.614
    1STR  C14   1642   5.637   4.711   8.601
    1STR  C15   1643   5.497   4.728   8.601
    1STR  C16   1644   5.410   4.621   8.629
    1STR  C17   1645   5.262   4.649   8.613
    1STR  H1B   1646   5.432   4.293   8.679
    1STR  H1C   1647   5.648   4.383   8.687
    1STR  H1D   1648   5.871   4.473   8.641
    1STR  H1E   1649   6.163   4.748   8.508
    1STR  H1F   1650   6.243   4.663   8.792
    1STR  H1G   1651   6.313   4.797   8.701
    1STR  H1H   1652   6.145   4.804   8.750
    1STR  H1I   1653   6.268   4.538   8.432
    1STR  H1J   1654   6.319   4.500   8.595
    1STR  H1K   1655   6.543   4.489   8.509
    1STR  H1M   1656   6.508   4.654   8.252
    1STR  H1N   1657   6.431   4.499   8.284
    1STR  H1O   1658   6.605   4.508   8.266
    1STR  H1P   1659   6.667   4.758   8.433
    1STR  H1Q   1660   6.671   4.686   8.592
    1STR  H1R   1661   6.915   4.750   8.447
    1STR  H1S   1662   7.038   4.682   8.654
    1STR  H1T   1663   6.945   4.533   8.662
    1STR  H1U   1664   6.867   4.689   8.689
    1STR  H1V   1665   7.011   4.580   8.296
    1STR  H1W   1666   7.028   4.465   8.425
    1STR  H1X   1667   7.354   4.711   8.427
    1STR  H1Y   1668   7.550   4.804   8.421
    1STR  H1Z   1669   7.779   4.824   8.495
    1STR  H20   1670   7.931   4.656   8.769
    1STR  H21   1671   7.993   4.617   8.607
    1STR  H22   1672   7.946   4.781   8.647
    1STR  H23   1673   7.686   4.382   8.794
    1STR  H27   1674   7.506   4.439   8.646
    1STR  H28   1675   5.695   4.798   8.576
    1STR  H29   1676   5.458   4.825   8.576
    1STR  H2A   1677   5.211   4.565   8.566
    1STR  H2B   1678   5.245   4.736   8.549
    1STR  H2C   1679   5.216   4.670   8.709
    1STR  BCK1  1680   5.245   4.299  13.144
    1STR  O03   1681   5.183   4.333  13.044
    1STR  N04   1682   5.373   4.336  13.164
    1STR  C05   1683   5.464   4.288  13.259
    1STR  C06   1684   5.605   4.308  13.240
    1STR  C07   1685   5.703   4.250  13.327
    1STR  N08   1686   5.842   4.271  13.306
    1STR  C09   1687   5.948   4.224  13.376
    1STR  O0A   1688   5.940   4.150  13.474
    1STR  O0B   1689   6.067   4.268  13.328
    1STR  C0C   1690   6.190   4.224  13.391
    1STR  C0D   1691   6.230   4.085  13.338
    1STR  C0E   1692   6.303   4.327  13.371
    1STR  O0F   1693   6.422   4.285  13.438
    1STR  C0G   1694   6.535   4.373  13.426
    1STR  C0H   1695   6.518   4.493  13.521
    1STR  C0I   1696   6.665   4.295  13.457
    1STR  O0J   1697   6.781   4.377  13.433
    1STR  C0K   1698   6.909   4.315  13.454
    1STR  C0M   1699   6.942   4.221  13.337
    1STR  C0N   1700   7.017   4.426  13.465
    1STR  O0O   1701   7.145   4.374  13.503
    1STR  C0P   1702   7.253   4.379  13.421
    1STR  O0Q   1703   7.254   4.416  13.304
    1STR  N0R   1704   7.358   4.333  13.489
    1STR  C0S   1705   7.491   4.302  13.460
    1STR  C0T   1706   7.553   4.221  13.557
    1STR  C0U   1707   7.682   4.169  13.536
    1STR  C0V   1708   7.754   4.202  13.421
    1STR  C0W   1709   7.880   4.122  13.393
    1STR  C0X   1710   7.704   4.300  13.331
    1STR  N0Y   1711   7.787   4.352  13.230
    1STR  BCK2  1712   7.920   4.370  13.240
    1STR  O10   1713   7.988   4.413  13.148
    1STR  C13   1714   7.568   4.344  13.347
    1STR  C14   1715   5.655   4.170  13.433
    1STR  C15   1716   5.518   4.154  13.456
    1STR  C16   1717   5.422   4.214  13.374
    1STR  C17   1718   5.277   4.198  13.415
    1STR  H1B   1719   5.406   4.397  13.091
    1STR  H1C   1720   5.638   4.368  13.157
    1STR  H1D   1721   5.870   4.329  13.230
    1STR  H1E   1722   6.173   4.216  13.499
    1STR  H1F   1723   6.248   4.087  13.231
    1STR  H1G   1724   6.320   4.050  13.387
    1STR  H1H   1725   6.152   4.012  13.357
    1STR  H1I   1726   6.269   4.424  13.409
    1STR  H1J   1727   6.322   4.341  13.264
    1STR  H1K   1728   6.543   4.408  13.323
    1STR  H1M   1729   6.508   4.460  13.624
    1STR  H1N   1730   6.431   4.553  13.496
    1STR  H1O   1731   6.605   4.558  13.516
    1STR  H1P   1732   6.663   4.261  13.561
    1STR  H1Q   1733   6.668   4.206  13.395
    1STR  H1R   1734   6.907   4.259  13.548
    1STR  H1S   1735   7.039   4.174  13.352
    1STR  H1T   1736   6.946   4.276  13.243
    1STR  H1U   1737   6.869   4.141  13.326
    1STR  H1V   1738   6.987   4.496  13.544
    1STR  H1W   1739   7.022   4.485  13.374
    1STR  H1X   1740   7.327   4.310  13.582
    1STR  H1Y   1741   7.501   4.193  13.647
    1STR  H1Z   1742   7.724   4.101  13.608
    1STR  H20   1743   7.895   4.110  13.285
    1STR  H21   1744   7.968   4.169  13.437
    1STR  H22   1745   7.871   4.021  13.434
    1STR  H23   1746   7.746   4.388  13.145
    1STR  H27   1747   7.524   4.412  13.276
    1STR  H28   1748   5.719   4.118  13.501
    1STR  H29   1749   5.487   4.094  13.541
    1STR  H2A   1750   5.226   4.294  13.413
    1STR  H2B   1751   5.268   4.159  13.516
    1STR  H2C   1752   5.227   4.128  13.349
    1STR  BCK1  1753   5.258   8.657   0.014
    1STR  O03   1754   5.171   8.713  17.388
    1STR  N04   1755   5.388   8.637  17.420
    1STR  C05   1756   5.466   8.641  17.302
    1STR  C06   1757   5.609   8.643  17.316
    1STR  C07   1758   5.699   8.637  17.205
    1STR  N08   1759   5.840   8.635  17.224
    1STR  C09   1760   5.941   8.621  17.136
    1STR  O0A   1761   5.927   8.610  17.015
    1STR  O0B   1762   6.064   8.620  17.197
    1STR  C0C   1763   6.185   8.609  17.118
    1STR  C0D   1764   6.225   8.747  17.063
    1STR  C0E   1765   6.301   8.547  17.201
    1STR  O0F   1766   6.422   8.534  17.124
    1STR  C0G   1767   6.536   8.478  17.193
    1STR  C0H   1768   6.518   8.325  17.204
    1STR  C0I   1769   6.667   8.513  17.117
    1STR  O0J   1770   6.784   8.469  17.190
    1STR  C0K   1771   6.913   8.502  17.134
    1STR  C0M   1772   6.942   8.651  17.156
    1STR  C0N   1773   7.025   8.417  17.202
    1STR  O0O   1774   7.156   8.441  17.149
    1STR  C0P   1775   7.259   8.490  17.225
    1STR  O0Q   1776   7.249   8.534  17.339
    1STR  N0R   1777   7.373   8.484  17.154
    1STR  C0S   1778   7.507   8.523  17.174
    1STR  C0T   1779   7.587   8.515  17.059
    1STR  C0U   1780   7.720   8.560  17.060
    1STR  C0V   1781   7.779   8.610  17.178
    1STR  C0W   1782   7.915   8.675  17.161
    1STR  C0X   1783   7.707   8.607  17.301
    1STR  N0Y   1784   7.762   8.649  17.424
    1STR  BCK2  1785   7.887   8.651   0.039
    1STR  O10   1786   7.992   8.610  17.431
    1STR  C13   1787   7.569   8.567  17.295
    1STR  C14   1788   5.641   8.632  17.077
    1STR  C15   1789   5.502   8.631  17.060
    1STR  C16   1790   5.414   8.633  17.170
    1STR  C17   1791   5.266   8.622  17.138
    1STR  H1B   1792   5.442   8.616   0.063
    1STR  H1C   1793   5.651   8.649  17.415
    1STR  H1D   1794   5.874   8.643  17.318
    1STR  H1E   1795   6.166   8.542  17.033
    1STR  H1F   1796   6.245   8.818  17.143
    1STR  H1G   1797   6.315   8.740  17.002
    1STR  H1H   1798   6.147   8.789  17.000
    1STR  H1I   1799   6.268   8.449  17.237
    1STR  H1J   1800   6.320   8.608  17.289
    1STR  H1K   1801   6.543   8.521  17.292
    1STR  H1M   1802   6.508   8.279  17.106
    1STR  H1N   1803   6.431   8.298  17.263
    1STR  H1O   1804   6.605   8.280  17.253
    1STR  H1P   1805   6.666   8.469  17.018
    1STR  H1Q   1806   6.670   8.621  17.103
    1STR  H1R   1807   6.913   8.480  17.027
    1STR  H1S   1808   7.039   8.678  17.114
    1STR  H1T   1809   6.946   8.674  17.263
    1STR  H1U   1810   6.869   8.717  17.110
    1STR  H1V   1811   7.002   8.312  17.184
    1STR  H1W   1812   7.023   8.430  17.310
    1STR  H1X   1813   7.352   8.443  17.065
    1STR  H1Y   1814   7.547   8.479  16.966
    1STR  H1Z   1815   7.776   8.558  16.968
    1STR  H20   1816   7.922   8.764  17.223
    1STR  H21   1817   7.994   8.605  17.188
    1STR  H22   1818   7.932   8.705  17.058
    1STR  H23   1819   7.692   8.676   0.052
    1STR  H27   1820   7.508   8.570  17.385
    1STR  H28   1821   5.700   8.628  16.987
    1STR  H29   1822   5.463   8.625  16.960
    1STR  H2A   1823   5.217   8.552  17.205
    1STR  H2B   1824   5.250   8.586  17.036
    1STR  H2C   1825   5.219   8.720  17.146
    1STR  BCK1  1826   5.256   8.705   4.418
    1STR  O03   1827   5.194   8.717   4.523
    1STR  N04   1828   5.377   8.759   4.389
    1STR  C05   1829   5.462   8.852   4.453
    1STR  C06   1830   5.604   8.843   4.436
    1STR  C07   1831   5.697   8.936   4.494
    1STR  N08   1832   5.837   8.925   4.471
    1STR  C09   1833   5.940   8.996   4.523
    1STR  O0A   1834   5.929   9.085   4.606
    1STR  O0B   1835   6.062   8.957   4.473
    1STR  C0C   1836   6.184   9.019   4.522
    1STR  C0D   1837   6.225   8.954   4.656
    1STR  C0E   1838   6.300   9.008   4.418
    1STR  O0F   1839   6.421   9.070   4.466
    1STR  C0G   1840   6.535   9.065   4.378
    1STR  C0H   1841   6.518   9.170   4.267
    1STR  C0I   1842   6.667   9.090   4.457
    1STR  O0J   1843   6.784   9.073   4.374
    1STR  C0K   1844   6.912   9.086   4.439
    1STR  C0M   1845   6.941   8.961   4.524
    1STR  C0N   1846   7.024   9.103   4.333
    1STR  O0O   1847   7.154   9.125   4.391
    1STR  C0P   1848   7.256   9.035   4.384
    1STR  O0Q   1849   7.251   8.922   4.337
    1STR  N0R   1850   7.365   9.092   4.437
    1STR  C0S   1851   7.499   9.057   4.466
    1STR  C0T   1852   7.571   9.163   4.524
    1STR  C0U   1853   7.703   9.146   4.565
    1STR  C0V   1854   7.770   9.024   4.547
    1STR  C0W   1855   7.912   9.018   4.601
    1STR  C0X   1856   7.704   8.915   4.484
    1STR  N0Y   1857   7.772   8.793   4.457
    1STR  BCK2  1858   7.898   8.755   4.488
    1STR  O10   1859   7.945   8.648   4.450
    1STR  C13   1860   7.567   8.933   4.444
    1STR  C14   1861   5.641   9.039   4.572
    1STR  C15   1862   5.503   9.053   4.587
    1STR  C16   1863   5.413   8.964   4.526
    1STR  C17   1864   5.265   8.998   4.536
    1STR  H1B   1865   5.416   8.719   4.305
    1STR  H1C   1866   5.644   8.762   4.376
    1STR  H1D   1867   5.869   8.855   4.407
    1STR  H1E   1868   6.166   9.125   4.539
    1STR  H1F   1869   6.245   8.848   4.645
    1STR  H1G   1870   6.316   9.001   4.695
    1STR  H1H   1871   6.147   8.967   4.731
    1STR  H1I   1872   6.267   9.056   4.326
    1STR  H1J   1873   6.319   8.904   4.395
    1STR  H1K   1874   6.542   8.966   4.334
    1STR  H1M   1875   6.508   9.271   4.308
    1STR  H1N   1876   6.431   9.151   4.205
    1STR  H1O   1877   6.605   9.171   4.201
    1STR  H1P   1878   6.665   9.190   4.501
    1STR  H1Q   1879   6.669   9.020   4.541
    1STR  H1R   1880   6.911   9.175   4.502
    1STR  H1S   1881   7.038   8.971   4.573
    1STR  H1T   1882   6.945   8.872   4.461
    1STR  H1U   1883   6.867   8.945   4.601
    1STR  H1V   1884   7.002   9.190   4.272
    1STR  H1W   1885   7.026   9.019   4.263
    1STR  H1X   1886   7.339   9.185   4.464
    1STR  H1Y   1887   7.525   9.259   4.540
    1STR  H1Z   1888   7.754   9.230   4.611
    1STR  H20   1889   7.921   8.938   4.674
    1STR  H21   1890   7.983   9.001   4.519
    1STR  H22   1891   7.942   9.110   4.650
    1STR  H23   1892   7.722   8.722   4.405
    1STR  H27   1893   7.512   8.852   4.398
    1STR  H28   1894   5.702   9.113   4.621
    1STR  H29   1895   5.465   9.136   4.646
    1STR  H2A   1896   5.213   8.974   4.443
    1STR  H2B   1897   5.251   9.105   4.554
    1STR  H2C   1898   5.219   8.944   4.618
    1STR  BCK1  1899   5.243   8.648   8.783
    1STR  O03   1900   5.176   8.737   8.732
    1STR  N04   1901   5.377   8.652   8.786
    1STR  C05   1902   5.467   8.543   8.792
    1STR  C06   1903   5.608   8.568   8.792
    1STR  C07   1904   5.704   8.462   8.788
    1STR  N08   1905   5.843   8.488   8.790
    1STR  C09   1906   5.948   8.402   8.794
    1STR  O0A   1907   5.938   8.280   8.794
    1STR  O0B   1908   6.068   8.466   8.798
    1STR  C0C   1909   6.190   8.389   8.802
    1STR  C0D   1910   6.230   8.347   8.659
    1STR  C0E   1911   6.302   8.468   8.871
    1STR  O0F   1912   6.422   8.390   8.879
    1STR  C0G   1913   6.535   8.453   8.941
    1STR  C0H   1914   6.518   8.451   9.093
    1STR  C0I   1915   6.665   8.380   8.898
    1STR  O0J   1916   6.781   8.449   8.948
    1STR  C0K   1917   6.908   8.394   8.912
    1STR  C0M   1918   6.941   8.431   8.767
    1STR  C0N   1919   7.016   8.452   9.007
    1STR  O0O   1920   7.144   8.391   8.986
    1STR  C0P   1921   7.252   8.462   8.944
    1STR  O0Q   1922   7.252   8.579   8.908
    1STR  N0R   1923   7.359   8.382   8.948
    1STR  C0S   1924   7.494   8.396   8.911
    1STR  C0T   1925   7.564   8.275   8.898
    1STR  C0U   1926   7.696   8.273   8.851
    1STR  C0V   1927   7.763   8.392   8.821
    1STR  C0W   1928   7.897   8.382   8.749
    1STR  C0X   1929   7.702   8.517   8.849
    1STR  N0Y   1930   7.776   8.636   8.838
    1STR  BCK2  1931   7.904   8.650   8.876
    1STR  O10   1932   7.967   8.754   8.860
    1STR  C13   1933   7.564   8.518   8.888
    1STR  C14   1934   5.654   8.330   8.780
    1STR  C15   1935   5.516   8.304   8.782
    1STR  C16   1936   5.422   8.408   8.789
    1STR  C17   1937   5.277   8.366   8.792
    1STR  H1B   1938   5.414   8.744   8.771
    1STR  H1C   1939   5.643   8.670   8.795
    1STR  H1D   1940   5.874   8.584   8.789
    1STR  H1E   1941   6.173   8.299   8.861
    1STR  H1F   1942   6.248   8.434   8.595
    1STR  H1G   1943   6.320   8.287   8.660
    1STR  H1H   1944   6.152   8.287   8.612
    1STR  H1I   1945   6.269   8.496   8.971
    1STR  H1J   1946   6.322   8.561   8.817
    1STR  H1K   1947   6.542   8.556   8.906
    1STR  H1M   1948   6.508   8.349   9.131
    1STR  H1N   1949   6.431   8.507   9.126
    1STR  H1O   1950   6.605   8.495   9.143
    1STR  H1P   1951   6.663   8.277   8.934
    1STR  H1Q   1952   6.667   8.376   8.789
    1STR  H1R   1953   6.906   8.286   8.924
    1STR  H1S   1954   7.039   8.391   8.738
    1STR  H1T   1955   6.946   8.539   8.754
    1STR  H1U   1956   6.869   8.392   8.695
    1STR  H1V   1957   6.987   8.430   9.110
    1STR  H1W   1958   7.021   8.560   9.000
    1STR  H1X   1959   7.331   8.292   8.981
    1STR  H1Y   1960   7.516   8.181   8.919
    1STR  H1Z   1961   7.745   8.178   8.836
    1STR  H20   1962   7.901   8.457   8.669
    1STR  H21   1963   7.981   8.398   8.817
    1STR  H22   1964   7.910   8.285   8.702
    1STR  H23   1965   7.731   8.720   8.807
    1STR  H27   1966   7.512   8.612   8.902
    1STR  H28   1967   5.717   8.244   8.773
    1STR  H29   1968   5.484   8.202   8.776
    1STR  H2A   1969   5.228   8.404   8.881
    1STR  H2B   1970   5.265   8.257   8.794
    1STR  H2C   1971   5.226   8.401   8.702
    1STR  BCK1  1972   5.257   8.694  13.080
    1STR  O03   1973   5.171   8.781  13.076
    1STR  N04   1974   5.385   8.701  13.034
    1STR  C05   1975   5.463   8.790  12.954
    1STR  C06   1976   5.606   8.779  12.961
    1STR  C07   1977   5.696   8.857  12.881
    1STR  N08   1978   5.837   8.839  12.888
    1STR  C09   1979   5.938   8.900  12.821
    1STR  O0A   1980   5.923   8.990  12.738
    1STR  O0B   1981   6.062   8.851  12.855
    1STR  C0C   1982   6.183   8.907  12.797
    1STR  C0D   1983   6.223   9.035  12.872
    1STR  C0E   1984   6.300   8.804  12.797
    1STR  O0F   1985   6.422   8.857  12.740
    1STR  C0G   1986   6.536   8.769  12.737
    1STR  C0H   1987   6.519   8.667  12.623
    1STR  C0I   1988   6.668   8.850  12.719
    1STR  O0J   1989   6.786   8.766  12.728
    1STR  C0K   1990   6.915   8.831  12.723
    1STR  C0M   1991   6.942   8.904  12.855
    1STR  C0N   1992   7.029   8.727  12.699
    1STR  O0O   1993   7.161   8.785  12.691
    1STR  C0P   1994   7.261   8.758  12.781
    1STR  O0Q   1995   7.249   8.695  12.885
    1STR  N0R   1996   7.376   8.811  12.736
    1STR  C0S   1997   7.510   8.823  12.781
    1STR  C0T   1998   7.591   8.897  12.694
    1STR  C0U   1999   7.724   8.927  12.727
    1STR  C0V   2000   7.781   8.883  12.848
    1STR  C0W   2001   7.920   8.936  12.878
    1STR  C0X   2002   7.707   8.800  12.936
    1STR  N0Y   2003   7.760   8.751  13.059
    1STR  BCK2  2004   7.883   8.722  13.110
    1STR  O10   2005   7.991   8.719  13.050
    1STR  C13   2006   7.569   8.774  12.902
    1STR  C14   2007   5.637   8.951  12.794
    1STR  C15   2008   5.497   8.963  12.784
    1STR  C16   2009   5.410   8.883  12.861
    1STR  C17   2010   5.262   8.899  12.833
    1STR  H1B   2011   5.439   8.623  13.069
    1STR  H1C   2012   5.650   8.708  13.030
    1STR  H1D   2013   5.872   8.771  12.951
    1STR  H1E   2014   6.163   8.933  12.693
    1STR  H1F   2015   6.243   9.015  12.978
    1STR  H1G   2016   6.313   9.079  12.829
    1STR  H1H   2017   6.145   9.110  12.867
    1STR  H1I   2018   6.268   8.716  12.741
    1STR  H1J   2019   6.319   8.771  12.899
    1STR  H1K   2020   6.543   8.716  12.833
    1STR  H1M   2021   6.508   8.717  12.527
    1STR  H1N   2022   6.431   8.603  12.637
    1STR  H1O   2023   6.605   8.601  12.617
    1STR  H1P   2024   6.667   8.902  12.624
    1STR  H1Q   2025   6.671   8.926  12.796
    1STR  H1R   2026   6.916   8.902  12.640
    1STR  H1S   2027   7.039   8.955  12.851
    1STR  H1T   2028   6.945   8.834  12.938
    1STR  H1U   2029   6.868   8.981  12.877
    1STR  H1V   2030   7.010   8.677  12.603
    1STR  H1W   2031   7.026   8.648  12.774
    1STR  H1X   2032   7.357   8.853  12.647
    1STR  H1Y   2033   7.553   8.935  12.601
    1STR  H1Z   2034   7.782   8.987  12.659
    1STR  H20   2035   7.930   8.962  12.984
    1STR  H21   2036   7.996   8.861  12.852
    1STR  H22   2037   7.942   9.026  12.821
    1STR  H23   2038   7.688   8.728  13.126
    1STR  H27   2039   7.507   8.715  12.968
    1STR  H28   2040   5.695   9.015  12.730
    1STR  H29   2041   5.457   9.035  12.715
    1STR  H2A   2042   5.212   8.803  12.830
    1STR  H2B   2043   5.245   8.947  12.737
    1STR  H2C   2044   5.216   8.962  12.910
    1STR  BCK1  2045   5.254  13.036   0.056
    1STR  O03   2046   5.217  12.941   0.123
    1STR  N04   2047   5.371  13.103   0.073
    1STR  C05   2048   5.463  13.102   0.180
    1STR  C06   2049   5.604  13.108   0.156
    1STR  C07   2050   5.700  13.110   0.262
    1STR  N08   2051   5.839  13.120   0.236
    1STR  C09   2052   5.944  13.121   0.322
    1STR  O0A   2053   5.935  13.111   0.444
    1STR  O0B   2054   6.064  13.134   0.258
    1STR  C0C   2055   6.187  13.132   0.335
    1STR  C0D   2056   6.228  12.987   0.365
    1STR  C0E   2057   6.301  13.209   0.263
    1STR  O0F   2058   6.421  13.209   0.342
    1STR  C0G   2059   6.534  13.276   0.285
    1STR  C0H   2060   6.517  13.428   0.301
    1STR  C0I   2061   6.665  13.227   0.353
    1STR  O0J   2062   6.780  13.283   0.288
    1STR  C0K   2063   6.909  13.242   0.338
    1STR  C0M   2064   6.941  13.100   0.291
    1STR  C0N   2065   7.017  13.340   0.286
    1STR  O0O   2066   7.146  13.314   0.342
    1STR  C0P   2067   7.252  13.269   0.270
    1STR  O0Q   2068   7.251  13.235   0.152
    1STR  N0R   2069   7.357  13.266   0.352
    1STR  C0S   2070   7.491  13.225   0.348
    1STR  C0T   2071   7.552  13.228   0.475
    1STR  C0U   2072   7.682  13.180   0.493
    1STR  C0V   2073   7.756  13.130   0.385
    1STR  C0W   2074   7.888  13.064   0.421
    1STR  C0X   2075   7.705  13.138   0.253
    1STR  N0Y   2076   7.785  13.105   0.141
    1STR  BCK2  2077   7.919  13.096   0.135
    1STR  O10   2078   7.978  13.069   0.031
    1STR  C13   2079   7.568  13.181   0.236
    1STR  C14   2080   5.649  13.105   0.394
    1STR  C15   2081   5.511  13.104   0.420
    1STR  C16   2082   5.418  13.106   0.315
    1STR  C17   2083   5.272  13.121   0.353
    1STR  H1B   2084   5.398  13.159  17.433
    1STR  H1C   2085   5.639  13.110   0.054
    1STR  H1D   2086   5.869  13.127   0.141
    1STR  H1E   2087   6.170  13.184   0.431
    1STR  H1F   2088   6.247  12.931   0.274
    1STR  H1G   2089   6.318  12.984   0.426
    1STR  H1H   2090   6.150  12.935   0.421
    1STR  H1I   2091   6.268  13.311   0.244
    1STR  H1J   2092   6.320  13.163   0.166
    1STR  H1K   2093   6.541  13.251   0.179
    1STR  H1M   2094   6.507  13.456   0.406
    1STR  H1N   2095   6.430  13.466   0.248
    1STR  H1O   2096   6.604  13.481   0.261
    1STR  H1P   2097   6.664  13.254   0.459
    1STR  H1Q   2098   6.667  13.119   0.348
    1STR  H1R   2099   6.908  13.246   0.447
    1STR  H1S   2100   7.038  13.068   0.329
    1STR  H1T   2101   6.945  13.095   0.182
    1STR  H1U   2102   6.868  13.026   0.325
    1STR  H1V   2103   6.990  13.441   0.316
    1STR  H1W   2104   7.021  13.341   0.177
    1STR  H1X   2105   7.325  13.301   0.441
    1STR  H1Y   2106   7.499  13.265   0.561
    1STR  H1Z   2107   7.724  13.180   0.593
    1STR  H20   2108   7.901  12.971   0.364
    1STR  H21   2109   7.971  13.131   0.402
    1STR  H22   2110   7.892  13.035   0.526
    1STR  H23   2111   7.740  13.093   0.052
    1STR  H27   2112   7.523  13.182   0.138
    1STR  H28   2113   5.712  13.104   0.481
    1STR  H29   2114   5.478  13.103   0.522
    1STR  H2A   2115   5.219  13.185   0.283
    1STR  H2B   2116   5.261  13.165   0.452
    1STR  H2C   2117   5.223  13.023   0.356
    1STR  BCK1  2118   5.255  13.016   4.399
    1STR  O03   2119   5.174  13.038   4.309
    1STR  N04   2120   5.386  12.983   4.384
    1STR  C05   2121   5.467  12.929   4.282
    1STR  C06   2122   5.609  12.940   4.294
    1STR  C07   2123   5.701  12.879   4.203
    1STR  N08   2124   5.841  12.889   4.222
    1STR  C09   2125   5.943  12.831   4.155
    1STR  O0A   2126   5.930  12.756   4.058
    1STR  O0B   2127   6.065  12.864   4.207
    1STR  C0C   2128   6.186  12.813   4.147
    1STR  C0D   2129   6.227  12.901   4.027
    1STR  C0E   2130   6.301  12.806   4.251
    1STR  O0F   2131   6.422  12.753   4.194
    1STR  C0G   2132   6.535  12.743   4.282
    1STR  C0H   2133   6.518  12.620   4.373
    1STR  C0I   2134   6.666  12.732   4.199
    1STR  O0J   2135   6.782  12.733   4.284
    1STR  C0K   2136   6.910  12.731   4.218
    1STR  C0M   2137   6.942  12.868   4.158
    1STR  C0N   2138   7.020  12.692   4.322
    1STR  O0O   2139   7.150  12.679   4.263
    1STR  C0P   2140   7.255  12.758   4.300
    1STR  O0Q   2141   7.250  12.856   4.373
    1STR  N0R   2142   7.366  12.711   4.242
    1STR  C0S   2143   7.501  12.751   4.237
    1STR  C0T   2144   7.577  12.687   4.138
    1STR  C0U   2145   7.710  12.723   4.114
    1STR  C0V   2146   7.773  12.823   4.191
    1STR  C0W   2147   7.909  12.872   4.145
    1STR  C0X   2148   7.705  12.880   4.302
    1STR  N0Y   2149   7.772  12.970   4.386
    1STR  BCK2  2150   7.901  12.963   4.426
    1STR  O10   2151   7.956  13.053   4.488
    1STR  C13   2152   7.566  12.847   4.320
    1STR  C14   2153   5.645  12.807   4.095
    1STR  C15   2154   5.506  12.795   4.080
    1STR  C16   2155   5.417  12.853   4.172
    1STR  C17   2156   5.270  12.825   4.148
    1STR  H1B   2157   5.437  13.008   4.467
    1STR  H1C   2158   5.650  12.997   4.376
    1STR  H1D   2159   5.874  12.946   4.297
    1STR  H1E   2160   6.169  12.711   4.111
    1STR  H1F   2161   6.246  13.004   4.057
    1STR  H1G   2162   6.317  12.862   3.980
    1STR  H1H   2163   6.148  12.902   3.951
    1STR  H1I   2164   6.268  12.743   4.334
    1STR  H1J   2165   6.320  12.905   4.292
    1STR  H1K   2166   6.542  12.833   4.342
    1STR  H1M   2167   6.508  12.529   4.315
    1STR  H1N   2168   6.431  12.629   4.438
    1STR  H1O   2169   6.605  12.608   4.438
    1STR  H1P   2170   6.664  12.641   4.138
    1STR  H1Q   2171   6.669  12.815   4.129
    1STR  H1R   2172   6.909  12.655   4.140
    1STR  H1S   2173   7.039  12.867   4.109
    1STR  H1T   2174   6.946  12.944   4.236
    1STR  H1U   2175   6.869  12.900   4.084
    1STR  H1V   2176   6.994  12.595   4.365
    1STR  H1W   2177   7.020  12.762   4.405
    1STR  H1X   2178   7.342  12.630   4.188
    1STR  H1Y   2179   7.533  12.611   4.075
    1STR  H1Z   2180   7.764  12.676   4.032
    1STR  H20   2181   7.910  12.981   4.144
    1STR  H21   2182   7.989  12.837   4.209
    1STR  H22   2183   7.931  12.840   4.043
    1STR  H23   2184   7.721  13.048   4.425
    1STR  H27   2185   7.510  12.894   4.400
    1STR  H28   2186   5.705  12.758   4.021
    1STR  H29   2187   5.468  12.738   3.997
    1STR  H2A   2188   5.220  12.797   4.241
    1STR  H2B   2189   5.255  12.743   4.078
    1STR  H2C   2190   5.222  12.913   4.105
    1STR  BCK1  2191   5.256  13.077   8.757
    1STR  O03   2192   5.182  13.140   8.832
    1STR  N04   2193   5.381  13.113   8.714
    1STR  C05   2194   5.462  13.229   8.722
    1STR  C06   2195   5.605  13.215   8.714
    1STR  C07   2196   5.696  13.326   8.716
    1STR  N08   2197   5.836  13.308   8.703
    1STR  C09   2198   5.938  13.397   8.708
    1STR  O0A   2199   5.925  13.517   8.730
    1STR  O0B   2200   6.061  13.339   8.688
    1STR  C0C   2201   6.183  13.418   8.696
    1STR  C0D   2202   6.224  13.436   8.843
    1STR  C0E   2203   6.300  13.355   8.614
    1STR  O0F   2204   6.421  13.432   8.622
    1STR  C0G   2205   6.536  13.381   8.550
    1STR  C0H   2206   6.518  13.410   8.400
    1STR  C0I   2207   6.668  13.445   8.603
    1STR  O0J   2208   6.785  13.387   8.542
    1STR  C0K   2209   6.914  13.431   8.591
    1STR  C0M   2210   6.941  13.371   8.729
    1STR  C0N   2211   7.028  13.388   8.494
    1STR  O0O   2212   7.159  13.434   8.534
    1STR  C0P   2213   7.259  13.350   8.576
    1STR  O0Q   2214   7.250  13.230   8.594
    1STR  N0R   2215   7.370  13.423   8.592
    1STR  C0S   2216   7.504  13.404   8.635
    1STR  C0T   2217   7.581  13.521   8.629
    1STR  C0U   2218   7.714  13.523   8.673
    1STR  C0V   2219   7.776  13.407   8.722
    1STR  C0W   2220   7.920  13.424   8.771
    1STR  C0X   2221   7.706  13.283   8.725
    1STR  N0Y   2222   7.770  13.163   8.764
    1STR  BCK2  2223   7.897  13.140   8.806
    1STR  O10   2224   7.941  13.027   8.823
    1STR  C13   2225   7.568  13.284   8.682
    1STR  C14   2226   5.638  13.454   8.728
    1STR  C15   2227   5.499  13.471   8.734
    1STR  C16   2228   5.410  13.362   8.728
    1STR  C17   2229   5.263  13.394   8.720
    1STR  H1B   2230   5.427  13.036   8.670
    1STR  H1C   2231   5.646  13.116   8.705
    1STR  H1D   2232   5.870  13.215   8.686
    1STR  H1E   2233   6.164  13.517   8.654
    1STR  H1F   2234   6.244  13.340   8.891
    1STR  H1G   2235   6.314  13.497   8.852
    1STR  H1H   2236   6.145  13.487   8.900
    1STR  H1I   2237   6.267  13.346   8.511
    1STR  H1J   2238   6.319  13.254   8.651
    1STR  H1K   2239   6.542  13.274   8.566
    1STR  H1M   2240   6.508  13.517   8.381
    1STR  H1N   2241   6.431  13.360   8.358
    1STR  H1O   2242   6.605  13.375   8.344
    1STR  H1P   2243   6.666  13.552   8.586
    1STR  H1Q   2244   6.670  13.431   8.711
    1STR  H1R   2245   6.914  13.540   8.597
    1STR  H1S   2246   7.038  13.405   8.767
    1STR  H1T   2247   6.945  13.262   8.724
    1STR  H1U   2248   6.867  13.399   8.804
    1STR  H1V   2249   7.008  13.431   8.396
    1STR  H1W   2250   7.028  13.280   8.479
    1STR  H1X   2251   7.348  13.517   8.566
    1STR  H1Y   2252   7.539  13.613   8.592
    1STR  H1Z   2253   7.768  13.616   8.668
    1STR  H20   2254   7.929  13.392   8.874
    1STR  H21   2255   7.988  13.367   8.708
    1STR  H22   2256   7.952  13.528   8.767
    1STR  H23   2257   7.716  13.078   8.756
    1STR  H27   2258   7.509  13.193   8.685
    1STR  H28   2259   5.697  13.544   8.732
    1STR  H29   2260   5.460  13.572   8.741
    1STR  H2A   2261   5.211  13.328   8.651
    1STR  H2B   2262   5.247  13.496   8.685
    1STR  H2C   2263   5.217  13.386   8.819
    1STR  BCK1  2264   5.241  13.020  13.142
    1STR  O03   2265   5.176  13.089  13.065
    1STR  N04   2266   5.373  13.037  13.160
    1STR  C05   2267   5.465  12.955  13.229
    1STR  C06   2268   5.605  12.980  13.217
    1STR  C07   2269   5.703  12.894  13.275
    1STR  N08   2270   5.842  12.920  13.263
    1STR  C09   2271   5.948  12.851  13.312
    1STR  O0A   2272   5.940  12.749  13.379
    1STR  O0B   2273   6.067  12.909  13.281
    1STR  C0C   2274   6.190  12.846  13.326
    1STR  C0D   2275   6.230  12.734  13.228
    1STR  C0E   2276   6.303  12.950  13.342
    1STR  O0F   2277   6.423  12.887  13.391
    1STR  C0G   2278   6.535  12.974  13.409
    1STR  C0H   2279   6.518  13.054  13.539
    1STR  C0I   2280   6.665  12.889  13.412
    1STR  O0J   2281   6.781  12.974  13.418
    1STR  C0K   2282   6.908  12.909  13.417
    1STR  C0M   2283   6.942  12.861  13.275
    1STR  C0N   2284   7.016  13.009  13.466
    1STR  O0O   2285   7.144  12.946  13.483
    1STR  C0P   2286   7.252  12.980  13.409
    1STR  O0Q   2287   7.254  13.057  13.313
    1STR  N0R   2288   7.358  12.914  13.457
    1STR  C0S   2289   7.492  12.899  13.419
    1STR  C0T   2290   7.557  12.789  13.477
    1STR  C0U   2291   7.687  12.753  13.438
    1STR  C0V   2292   7.757  12.831  13.345
    1STR  C0W   2293   7.886  12.773  13.288
    1STR  C0X   2294   7.703  12.954  13.300
    1STR  N0Y   2295   7.783  13.043  13.227
    1STR  BCK2  2296   7.914  13.064  13.249
    1STR  O10   2297   7.982  13.140  13.180
    1STR  C13   2298   7.567  12.984  13.331
    1STR  C14   2299   5.655  12.780  13.344
    1STR  C15   2300   5.519  12.757  13.361
    1STR  C16   2301   5.423  12.844  13.307
    1STR  C17   2302   5.278  12.811  13.338
    1STR  H1B   2303   5.408  13.116  13.108
    1STR  H1C   2304   5.638  13.066  13.161
    1STR  H1D   2305   5.871  13.001  13.211
    1STR  H1E   2306   6.174  12.802  13.424
    1STR  H1F   2307   6.249  12.772  13.128
    1STR  H1G   2308   6.321  12.683  13.262
    1STR  H1H   2309   6.152  12.658  13.221
    1STR  H1I   2310   6.269  13.027  13.411
    1STR  H1J   2311   6.322  12.999  13.246
    1STR  H1K   2312   6.543  13.042  13.324
    1STR  H1M   2313   6.508  12.987  13.625
    1STR  H1N   2314   6.431  13.119  13.537
    1STR  H1O   2315   6.605  13.117  13.557
    1STR  H1P   2316   6.663  12.822  13.498
    1STR  H1Q   2317   6.668  12.827  13.323
    1STR  H1R   2318   6.906  12.824  13.485
    1STR  H1S   2319   7.039  12.812  13.272
    1STR  H1T   2320   6.946  12.945  13.206
    1STR  H1U   2321   6.869  12.790  13.236
    1STR  H1V   2322   6.986  13.047  13.564
    1STR  H1W   2323   7.022  13.096  13.401
    1STR  H1X   2324   7.328  12.858  13.535
    1STR  H1Y   2325   7.507  12.726  13.548
    1STR  H1Z   2326   7.732  12.664  13.479
    1STR  H20   2327   7.897  12.800  13.183
    1STR  H21   2328   7.973  12.808  13.344
    1STR  H22   2329   7.885  12.664  13.292
    1STR  H23   2330   7.742  13.103  13.157
    1STR  H27   2331   7.519  13.072  13.290
    1STR  H28   2332   5.720  12.706  13.388
    1STR  H29   2333   5.488  12.670  13.417
    1STR  H2A   2334   5.228  12.898  13.380
    1STR  H2B   2335   5.270  12.731  13.412
    1STR  H2C   2336   5.227  12.778  13.248
    1STR  BCK1  2337   9.618  17.387   0.002
    1STR  O03   2338   9.530   0.020  17.396
    1STR  N04   2339   9.747  17.378  17.401
    1STR  C05   2340   9.825  17.418  17.290
    1STR  C06   2341   9.968  17.415  17.302
    1STR  C07   2342  10.058   0.005  17.195
    1STR  N08   2343  10.199  17.435  17.211
    1STR  C09   2344  10.300   0.012  17.122
    1STR  O0A   2345  10.285   0.043  17.005
    1STR  O0B   2346  10.423  17.430  17.178
    1STR  C0C   2347  10.544   0.006  17.100
    1STR  C0D   2348  10.584   0.154  17.096
    1STR  C0E   2349  10.660  17.359  17.156
    1STR  O0F   2350  10.782  17.373  17.080
    1STR  C0G   2351  10.896  17.297  17.125
    1STR  C0H   2352  10.878  17.150  17.083
    1STR  C0I   2353  11.028  17.356  17.066
    1STR  O0J   2354  11.145  17.290  17.119
    1STR  C0K   2355  11.274  17.341  17.079
    1STR  C0M   2356  11.302   0.034  17.151
    1STR  C0N   2357  11.387  17.239  17.114
    1STR  O0O   2358  11.519  17.281  17.074
    1STR  C0P   2359  11.620  17.303  17.164
    1STR  O0Q   2360  11.609  17.305  17.286
    1STR  N0R   2361  11.735  17.322  17.097
    1STR  C0S   2362  11.869  17.353  17.130
    1STR  C0T   2363  11.950  17.379  17.018
    1STR  C0U   2364  12.083  17.421  17.033
    1STR  C0V   2365  12.140  17.436  17.161
    1STR  C0W   2366  12.278   0.060  17.164
    1STR  C0X   2367  12.067  17.399  17.277
    1STR  N0Y   2368  12.121  17.406  17.408
    1STR  BCK2  2369  12.246  17.396   0.024
    1STR  O10   2370  12.351  17.368  17.408
    1STR  C13   2371  11.929  17.361  17.259
    1STR  C14   2372   9.999   0.042  17.072
    1STR  C15   2373   9.860   0.046  17.057
    1STR  C16   2374   9.772   0.013  17.162
    1STR  C17   2375   9.624   0.013  17.129
    1STR  H1B   2376   9.802  17.331   0.032
    1STR  H1C   2377  10.011  17.388  17.397
    1STR  H1D   2378  10.234  17.411  17.302
    1STR  H1E   2379  10.525  17.412  16.998
    1STR  H1F   2380  10.604   0.194  17.195
    1STR  H1G   2381  10.674   0.169  17.036
    1STR  H1H   2382  10.506   0.215  17.050
    1STR  H1I   2383  10.628  17.255  17.156
    1STR  H1J   2384  10.679  17.387  17.260
    1STR  H1K   2385  10.903  17.304  17.233
    1STR  H1M   2386  10.868  17.141  16.975
    1STR  H1N   2387  10.791  17.104  17.129
    1STR  H1O   2388  10.965  17.091  17.113
    1STR  H1P   2389  11.026  17.349  16.957
    1STR  H1Q   2390  11.031   0.022  17.090
    1STR  H1R   2391  11.274  17.357  16.970
    1STR  H1S   2392  11.399   0.074  17.121
    1STR  H1T   2393  11.306   0.019  17.259
    1STR  H1U   2394  11.228   0.110  17.129
    1STR  H1V   2395  11.366  17.146  17.060
    1STR  H1W   2396  11.384  17.213  17.220
    1STR  H1X   2397  11.715  17.313  16.999
    1STR  H1Y   2398  11.911  17.372  16.918
    1STR  H1Z   2399  12.140   0.005  16.945
    1STR  H20   2400  12.286   0.129  17.249
    1STR  H21   2401  12.356  17.424  17.172
    1STR  H22   2402  12.297   0.118  17.074
    1STR  H23   2403  12.050  17.415   0.039
    1STR  H27   2404  11.868  17.339  17.345
    1STR  H28   2405  10.058   0.067  16.985
    1STR  H29   2406   9.820   0.074  16.960
    1STR  H2A   2407   9.575  17.366  17.171
    1STR  H2B   2408   9.607   0.010  17.021
    1STR  H2C   2409   9.578   0.104  17.167
    1STR  BCK1  2410   9.616  17.412   4.423
    1STR  O03   2411   9.565  17.381   4.530
    1STR  N04   2412   9.735   0.035   4.407
    1STR  C05   2413   9.822   0.099   4.498
    1STR  C06   2414   9.964   0.095   4.476
    1STR  C07   2415  10.058   0.160   4.563
    1STR  N08   2416  10.198   0.157   4.537
    1STR  C09   2417  10.302   0.205   4.609
    1STR  O0A   2418  10.291   0.261   4.718
    1STR  O0B   2419  10.423   0.184   4.549
    1STR  C0C   2420  10.545   0.225   4.615
    1STR  C0D   2421  10.586   0.118   4.718
    1STR  C0E   2422  10.660   0.250   4.514
    1STR  O0F   2423  10.781   0.293   4.580
    1STR  C0G   2424  10.894   0.318   4.495
    1STR  C0H   2425  10.878   0.455   4.427
    1STR  C0I   2426  11.026   0.314   4.579
    1STR  O0J   2427  11.142   0.327   4.495
    1STR  C0K   2428  11.270   0.317   4.559
    1STR  C0M   2429  11.301   0.171   4.596
    1STR  C0N   2430  11.381   0.370   4.464
    1STR  O0O   2431  11.510   0.374   4.527
    1STR  C0P   2432  11.614   0.293   4.490
    1STR  O0Q   2433  11.611   0.203   4.408
    1STR  N0R   2434  11.721   0.331   4.561
    1STR  C0S   2435  11.855   0.292   4.577
    1STR  C0T   2436  11.923   0.371   4.671
    1STR  C0U   2437  12.055   0.343   4.707
    1STR  C0V   2438  12.125   0.237   4.649
    1STR  C0W   2439  12.265   0.212   4.703
    1STR  C0X   2440  12.064   0.157   4.548
    1STR  N0Y   2441  12.135   0.055   4.480
    1STR  BCK2  2442  12.264   0.017   4.493
    1STR  O10   2443  12.314  17.372   4.421
    1STR  C13   2444  11.927   0.186   4.514
    1STR  C14   2445  10.004   0.230   4.673
    1STR  C15   2446   9.866   0.239   4.693
    1STR  C16   2447   9.775   0.179   4.605
    1STR  C17   2448   9.628   0.210   4.627
    1STR  H1B   2449   9.768   0.032   4.312
    1STR  H1C   2450  10.002   0.039   4.392
    1STR  H1D   2451  10.229   0.112   4.453
    1STR  H1E   2452  10.527   0.319   4.668
    1STR  H1F   2453  10.605   0.022   4.671
    1STR  H1G   2454  10.677   0.148   4.771
    1STR  H1H   2455  10.508   0.104   4.793
    1STR  H1I   2456  10.627   0.327   4.443
    1STR  H1J   2457  10.679   0.160   4.456
    1STR  H1K   2458  10.902   0.240   4.420
    1STR  H1M   2459  10.867   0.535   4.500
    1STR  H1N   2460  10.790   0.458   4.362
    1STR  H1O   2461  10.964   0.478   4.365
    1STR  H1P   2462  11.024   0.393   4.654
    1STR  H1Q   2463  11.028   0.220   4.633
    1STR  H1R   2464  11.270   0.379   4.649
    1STR  H1S   2465  11.397   0.164   4.646
    1STR  H1T   2466  11.305   0.109   4.507
    1STR  H1U   2467  11.227   0.128   4.664
    1STR  H1V   2468  11.357   0.473   4.436
    1STR  H1W   2469  11.384   0.314   4.371
    1STR  H1X   2470  11.692   0.409   4.617
    1STR  H1Y   2471  11.875   0.454   4.720
    1STR  H1Z   2472  12.103   0.405   4.782
    1STR  H20   2473  12.274   0.110   4.739
    1STR  H21   2474  12.340   0.231   4.626
    1STR  H22   2475  12.289   0.277   4.788
    1STR  H23   2476  12.087   0.004   4.408
    1STR  H27   2477  11.875   0.126   4.440
    1STR  H28   2478  10.066   0.281   4.745
    1STR  H29   2479   9.830   0.297   4.777
    1STR  H2A   2480   9.575   0.219   4.532
    1STR  H2B   2481   9.615   0.304   4.680
    1STR  H2C   2482   9.581   0.132   4.687
    1STR  BCK1  2483   9.609  17.386   8.779
    1STR  O03   2484   9.539  17.372   8.679
    1STR  N04   2485   9.742  17.359   8.786
    1STR  C05   2486   9.826  17.260   8.730
    1STR  C06   2487   9.968  17.279   8.736
    1STR  C07   2488  10.062  17.180   8.693
    1STR  N08   2489  10.202  17.201   8.705
    1STR  C09   2490  10.305  17.118   8.680
    1STR  O0A   2491  10.294  17.002   8.639
    1STR  O0B   2492  10.426  17.175   8.706
    1STR  C0C   2493  10.548  17.101   8.683
    1STR  C0D   2494  10.588  17.110   8.535
    1STR  C0E   2495  10.662  17.151   8.775
    1STR  O0F   2496  10.782  17.075   8.756
    1STR  C0G   2497  10.895  17.114   8.835
    1STR  C0H   2498  10.878  17.059   8.978
    1STR  C0I   2499  11.025  17.060   8.771
    1STR  O0J   2500  11.141  17.107   8.842
    1STR  C0K   2501  11.269  17.068   8.788
    1STR  C0M   2502  11.301  17.153   8.664
    1STR  C0N   2503  11.377  17.090   8.897
    1STR  O0O   2504  11.506  17.043   8.856
    1STR  C0P   2505  11.613  17.125   8.843
    1STR  O0Q   2506  11.611  17.248   8.850
    1STR  N0R   2507  11.721  17.051   8.819
    1STR  C0S   2508  11.856  17.079   8.791
    1STR  C0T   2509  11.929  16.971   8.738
    1STR  C0U   2510  12.062  16.987   8.696
    1STR  C0V   2511  12.127  17.111   8.710
    1STR  C0W   2512  12.262  17.128   8.642
    1STR  C0X   2513  12.062  17.217   8.778
    1STR  N0Y   2514  12.133  17.335   8.807
    1STR  BCK2  2515  12.261  17.340   8.849
    1STR  O10   2516  12.320   0.006   8.868
    1STR  C13   2517  11.924  17.203   8.812
    1STR  C14   2518  10.009  17.061   8.640
    1STR  C15   2519   9.871  17.040   8.633
    1STR  C16   2520   9.779  17.136   8.678
    1STR  C17   2521   9.633  17.097   8.671
    1STR  H1B   2522   9.790  17.427   8.842
    1STR  H1C   2523  10.007  17.372   8.776
    1STR  H1D   2524  10.234  17.290   8.738
    1STR  H1E   2525  10.531  16.995   8.708
    1STR  H1F   2526  10.607  17.213   8.505
    1STR  H1G   2527  10.679  17.053   8.515
    1STR  H1H   2528  10.510  17.070   8.470
    1STR  H1I   2529  10.628  17.142   8.879
    1STR  H1J   2530  10.680  17.257   8.756
    1STR  H1K   2531  10.902  17.223   8.838
    1STR  H1M   2532  10.868  16.951   8.978
    1STR  H1N   2533  10.790  17.101   9.028
    1STR  H1O   2534  10.964  17.084   9.039
    1STR  H1P   2535  11.023  16.951   8.769
    1STR  H1Q   2536  11.028  17.093   8.667
    1STR  H1R   2537  11.267  16.962   8.762
    1STR  H1S   2538  11.399  17.125   8.624
    1STR  H1T   2539  11.306  17.259   8.689
    1STR  H1U   2540  11.229  17.140   8.584
    1STR  H1V   2541  11.349  17.033   8.986
    1STR  H1W   2542  11.381  17.194   8.928
    1STR  H1X   2543  11.695  16.954   8.817
    1STR  H1Y   2544  11.883  16.874   8.725
    1STR  H1Z   2545  12.113  16.904   8.650
    1STR  H20   2546  12.264  17.223   8.588
    1STR  H21   2547  12.344  17.127   8.714
    1STR  H22   2548  12.280  17.049   8.569
    1STR  H23   2549  12.086  17.424   8.803
    1STR  H27   2550  11.870  17.285   8.857
    1STR  H28   2551  10.071  16.980   8.605
    1STR  H29   2552   9.835  16.946   8.594
    1STR  H2A   2553   9.585  17.115   8.767
    1STR  H2B   2554   9.620  16.991   8.648
    1STR  H2C   2555   9.583  17.153   8.593
    1STR  BCK1  2556   9.617  17.429  13.090
    1STR  O03   2557   9.534   0.075  13.117
    1STR  N04   2558   9.744   0.006  13.043
    1STR  C05   2559   9.822   0.114  12.994
    1STR  C06   2560   9.966   0.101  12.995
    1STR  C07   2561  10.055   0.199  12.943
    1STR  N08   2562  10.196   0.179  12.942
    1STR  C09   2563  10.298   0.259  12.900
    1STR  O0A   2564  10.283   0.371  12.853
    1STR  O0B   2565  10.422   0.200  12.914
    1STR  C0C   2566  10.543   0.272  12.878
    1STR  C0D   2567  10.583   0.366  12.993
    1STR  C0E   2568  10.660   0.175  12.843
    1STR  O0F   2569  10.782   0.245  12.808
    1STR  C0G   2570  10.896   0.163  12.775
    1STR  C0H   2571  10.878   0.107  12.633
    1STR  C0I   2572  11.029   0.245  12.786
    1STR  O0J   2573  11.147   0.163  12.765
    1STR  C0K   2574  11.275   0.227  12.783
    1STR  C0M   2575  11.302   0.251  12.932
    1STR  C0N   2576  11.390   0.138  12.725
    1STR  O0O   2577  11.522   0.196  12.737
    1STR  C0P   2578  11.621   0.142  12.815
    1STR  O0Q   2579  11.609   0.049  12.893
    1STR  N0R   2580  11.735   0.209  12.791
    1STR  C0S   2581  11.869   0.208  12.838
    1STR  C0T   2582  11.950   0.304  12.776
    1STR  C0U   2583  12.083   0.323  12.816
    1STR  C0V   2584  12.141   0.246  12.918
    1STR  C0W   2585  12.281   0.287  12.961
    1STR  C0X   2586  12.066   0.142  12.981
    1STR  N0Y   2587  12.119   0.062  13.086
    1STR  BCK2  2588  12.242   0.022  13.130
    1STR  O10   2589  12.350   0.034  13.073
    1STR  C13   2590  11.929   0.126  12.939
    1STR  C14   2591   9.996   0.316  12.890
    1STR  C15   2592   9.857   0.331  12.886
    1STR  C16   2593   9.770   0.232  12.934
    1STR  C17   2594   9.622   0.256  12.913
    1STR  H1B   2595   9.795  17.360  13.048
    1STR  H1C   2596  10.008   0.011  13.038
    1STR  H1D   2597  10.231   0.092  12.978
    1STR  H1E   2598  10.523   0.333  12.789
    1STR  H1F   2599  10.603   0.312  13.085
    1STR  H1G   2600  10.673   0.423  12.967
    1STR  H1H   2601  10.505   0.439  13.014
    1STR  H1I   2602  10.628   0.112  12.760
    1STR  H1J   2603  10.679   0.109  12.928
    1STR  H1K   2604  10.903   0.081  12.846
    1STR  H1M   2605  10.868   0.187  12.560
    1STR  H1N   2606  10.791   0.042  12.624
    1STR  H1O   2607  10.965   0.047  12.604
    1STR  H1P   2608  11.027   0.327  12.714
    1STR  H1Q   2609  11.031   0.291  12.884
    1STR  H1R   2610  11.275   0.322  12.729
    1STR  H1S   2611  11.399   0.299  12.946
    1STR  H1T   2612  11.305   0.156  12.986
    1STR  H1U   2613  11.228   0.314  12.979
    1STR  H1V   2614  11.371   0.123  12.618
    1STR  H1W   2615  11.388   0.038  12.769
    1STR  H1X   2616  11.716   0.277  12.720
    1STR  H1Y   2617  11.912   0.368  12.698
    1STR  H1Z   2618  12.141   0.400  12.767
    1STR  H20   2619  12.291   0.284  13.069
    1STR  H21   2620  12.354   0.220  12.916
    1STR  H22   2621  12.305   0.388  12.929
    1STR  H23   2622  12.046   0.020  13.142
    1STR  H27   2623  11.866   0.051  12.986
    1STR  H28   2624  10.055   0.396  12.849
    1STR  H29   2625   9.817   0.422  12.842
    1STR  H2A   2626   9.571   0.165  12.882
    1STR  H2B   2627   9.604   0.330  12.834
    1STR  H2C   2628   9.576   0.294  13.004
    1STR  BCK1  2629   9.612   4.315   0.049
    1STR  O03   2630   9.581   4.198   0.067
    1STR  N04   2631   9.730   4.369   0.086
    1STR  C05   2632   9.823   4.326   0.183
    1STR  C06   2633   9.964   4.340   0.161
    1STR  C07   2634  10.061   4.301   0.259
    1STR  N08   2635  10.200   4.319   0.237
    1STR  C09   2636  10.306   4.289   0.317
    1STR  O0A   2637  10.297   4.238   0.428
    1STR  O0B   2638  10.426   4.323   0.261
    1STR  C0C   2639  10.548   4.294   0.333
    1STR  C0D   2640  10.589   4.147   0.311
    1STR  C0E   2641  10.662   4.391   0.291
    1STR  O0F   2642  10.782   4.364   0.366
    1STR  C0G   2643  10.895   4.447   0.335
    1STR  C0H   2644  10.878   4.584   0.402
    1STR  C0I   2645  11.025   4.378   0.382
    1STR  O0J   2646  11.140   4.452   0.341
    1STR  C0K   2647  11.269   4.397   0.374
    1STR  C0M   2648  11.301   4.280   0.281
    1STR  C0N   2649  11.377   4.508   0.360
    1STR  O0O   2650  11.505   4.465   0.407
    1STR  C0P   2651  11.612   4.450   0.325
    1STR  O0Q   2652  11.613   4.459   0.203
    1STR  N0R   2653  11.717   4.420   0.402
    1STR  C0S   2654  11.851   4.383   0.382
    1STR  C0T   2655  11.911   4.330   0.497
    1STR  C0U   2656  12.040   4.274   0.492
    1STR  C0V   2657  12.113   4.275   0.373
    1STR  C0W   2658  12.240   4.191   0.371
    1STR  C0X   2659  12.064   4.345   0.259
    1STR  N0Y   2660  12.147   4.366   0.148
    1STR  BCK2  2661  12.282   4.378   0.150
    1STR  O10   2662  12.347   4.396   0.048
    1STR  C13   2663  11.929   4.393   0.263
    1STR  C14   2664  10.012   4.247   0.380
    1STR  C15   2665   9.874   4.236   0.405
    1STR  C16   2666   9.780   4.278   0.310
    1STR  C17   2667   9.634   4.276   0.353
    1STR  H1B   2668   9.757   4.450   0.032
    1STR  H1C   2669   9.998   4.381   0.068
    1STR  H1D   2670  10.230   4.359   0.150
    1STR  H1E   2671  10.531   4.310   0.440
    1STR  H1F   2672  10.608   4.126   0.206
    1STR  H1G   2673  10.679   4.123   0.367
    1STR  H1H   2674  10.511   4.079   0.346
    1STR  H1I   2675  10.628   4.493   0.308
    1STR  H1J   2676  10.681   4.381   0.184
    1STR  H1K   2677  10.902   4.459   0.226
    1STR  H1M   2678  10.868   4.574   0.510
    1STR  H1N   2679  10.791   4.638   0.365
    1STR  H1O   2680  10.965   4.647   0.383
    1STR  H1P   2681  11.023   4.366   0.491
    1STR  H1Q   2682  11.027   4.277   0.341
    1STR  H1R   2683  11.267   4.363   0.478
    1STR  H1S   2684  11.399   4.237   0.305
    1STR  H1T   2685  11.306   4.313   0.177
    1STR  H1U   2686  11.229   4.199   0.287
    1STR  H1V   2687  11.347   4.593   0.422
    1STR  H1W   2688  11.381   4.545   0.258
    1STR  H1X   2689  11.686   4.421   0.497
    1STR  H1Y   2690  11.859   4.326   0.591
    1STR  H1Z   2691  12.081   4.228   0.581
    1STR  H20   2692  12.257   4.148   0.273
    1STR  H21   2693  12.327   4.251   0.400
    1STR  H22   2694  12.233   4.108   0.441
    1STR  H23   2695  12.106   4.384   0.058
    1STR  H27   2696  11.885   4.438   0.175
    1STR  H28   2697  10.076   4.213   0.459
    1STR  H29   2698   9.842   4.197   0.500
    1STR  H2A   2699   9.583   4.366   0.320
    1STR  H2B   2700   9.625   4.270   0.461
    1STR  H2C   2701   9.584   4.188   0.311
    1STR  BCK1  2702   9.617   4.294   4.383
    1STR  O03   2703   9.532   4.339   4.307
    1STR  N04   2704   9.747   4.268   4.356
    1STR  C05   2705   9.826   4.249   4.240
    1STR  C06   2706   9.969   4.256   4.254
    1STR  C07   2707  10.060   4.228   4.147
    1STR  N08   2708  10.200   4.229   4.167
    1STR  C09   2709  10.302   4.198   4.083
    1STR  O0A   2710  10.288   4.161   3.967
    1STR  O0B   2711  10.424   4.210   4.143
    1STR  C0C   2712  10.546   4.182   4.069
    1STR  C0D   2713  10.586   4.306   3.986
    1STR  C0E   2714  10.661   4.139   4.164
    1STR  O0F   2715  10.782   4.110   4.092
    1STR  C0G   2716  10.896   4.070   4.171
    1STR  C0H   2717  10.878   3.924   4.214
    1STR  C0I   2718  11.027   4.088   4.089
    1STR  O0J   2719  11.144   4.060   4.169
    1STR  C0K   2720  11.272   4.081   4.108
    1STR  C0M   2721  11.302   4.231   4.098
    1STR  C0N   2722  11.383   4.011   4.192
    1STR  O0O   2723  11.514   4.022   4.134
    1STR  C0P   2724  11.618   4.085   4.197
    1STR  O0Q   2725  11.610   4.152   4.300
    1STR  N0R   2726  11.731   4.063   4.129
    1STR  C0S   2727  11.865   4.104   4.140
    1STR  C0T   2728  11.944   4.075   4.027
    1STR  C0U   2729  12.077   4.119   4.019
    1STR  C0V   2730  12.137   4.190   4.125
    1STR  C0W   2731  12.273   4.251   4.096
    1STR  C0X   2732  12.066   4.209   4.247
    1STR  N0Y   2733  12.122   4.270   4.362
    1STR  BCK2  2734  12.247   4.282   4.414
    1STR  O10   2735  12.352   4.234   4.372
    1STR  C13   2736  11.928   4.170   4.250
    1STR  C14   2737  10.002   4.196   4.022
    1STR  C15   2738   9.863   4.190   4.005
    1STR  C16   2739   9.775   4.215   4.112
    1STR  C17   2740   9.628   4.197   4.082
    1STR  H1B   2741   9.801   4.265   4.441
    1STR  H1C   2742  10.011   4.281   4.350
    1STR  H1D   2743  10.234   4.258   4.257
    1STR  H1E   2744  10.527   4.099   4.000
    1STR  H1F   2745  10.605   4.392   4.049
    1STR  H1G   2746  10.676   4.286   3.928
    1STR  H1H   2747  10.507   4.333   3.915
    1STR  H1I   2748  10.628   4.052   4.220
    1STR  H1J   2749  10.680   4.219   4.236
    1STR  H1K   2750  10.902   4.134   4.259
    1STR  H1M   2751  10.868   3.858   4.128
    1STR  H1N   2752  10.791   3.909   4.278
    1STR  H1O   2753  10.965   3.890   4.271
    1STR  H1P   2754  11.025   4.024   4.001
    1STR  H1Q   2755  11.030   4.191   4.053
    1STR  H1R   2756  11.272   4.037   4.008
    1STR  H1S   2757  11.399   4.248   4.051
    1STR  H1T   2758  11.306   4.276   4.197
    1STR  H1U   2759  11.229   4.286   4.039
    1STR  H1V   2760  11.360   3.905   4.198
    1STR  H1W   2761  11.382   4.048   4.295
    1STR  H1X   2762  11.709   4.005   4.050
    1STR  H1Y   2763  11.903   4.022   3.943
    1STR  H1Z   2764  12.133   4.100   3.929
    1STR  H20   2765  12.280   4.350   4.140
    1STR  H21   2766  12.353   4.188   4.134
    1STR  H22   2767  12.289   4.262   3.989
    1STR  H23   2768  12.053   4.308   4.424
    1STR  H27   2769  11.868   4.189   4.338
    1STR  H28   2770  10.062   4.174   3.935
    1STR  H29   2771   9.825   4.164   3.908
    1STR  H2A   2772   9.578   4.141   4.161
    1STR  H2B   2773   9.612   4.141   3.990
    1STR  H2C   2774   9.580   4.294   4.070
    1STR  BCK1  2775   9.616   4.352   8.772
    1STR  O03   2776   9.549   4.386   8.868
    1STR  N04   2777   9.739   4.398   8.736
    1STR  C05   2778   9.822   4.505   8.780
    1STR  C06   2779   9.964   4.493   8.766
    1STR  C07   2780  10.056   4.597   8.803
    1STR  N08   2781  10.196   4.583   8.784
    1STR  C09   2782  10.299   4.663   8.819
    1STR  O0A   2783  10.287   4.769   8.881
    1STR  O0B   2784  10.422   4.615   8.779
    1STR  C0C   2785  10.544   4.686   8.814
    1STR  C0D   2786  10.584   4.652   8.958
    1STR  C0E   2787  10.660   4.654   8.715
    1STR  O0F   2788  10.781   4.725   8.749
    1STR  C0G   2789  10.895   4.701   8.663
    1STR  C0H   2790  10.878   4.780   8.532
    1STR  C0I   2791  11.027   4.742   8.736
    1STR  O0J   2792  11.144   4.708   8.658
    1STR  C0K   2793  11.273   4.734   8.719
    1STR  C0M   2794  11.301   4.631   8.828
    1STR  C0N   2795  11.386   4.727   8.612
    1STR  O0O   2796  11.516   4.760   8.665
    1STR  C0P   2797  11.618   4.669   8.677
    1STR  O0Q   2798  11.611   4.549   8.655
    1STR  N0R   2799  11.727   4.734   8.717
    1STR  C0S   2800  11.861   4.705   8.752
    1STR  C0T   2801  11.935   4.819   8.786
    1STR  C0U   2802  12.068   4.810   8.828
    1STR  C0V   2803  12.133   4.685   8.837
    1STR  C0W   2804  12.276   4.689   8.889
    1STR  C0X   2805  12.065   4.566   8.799
    1STR  N0Y   2806  12.130   4.440   8.799
    1STR  BCK2  2807  12.256   4.407   8.836
    1STR  O10   2808  12.301   4.294   8.822
    1STR  C13   2809  11.927   4.578   8.757
    1STR  C14   2810  10.000   4.714   8.858
    1STR  C15   2811   9.861   4.729   8.869
    1STR  C16   2812   9.772   4.629   8.828
    1STR  C17   2813   9.624   4.664   8.831
    1STR  H1B   2814   9.781   4.341   8.665
    1STR  H1C   2815  10.005   4.402   8.725
    1STR  H1D   2816  10.229   4.501   8.736
    1STR  H1E   2817  10.525   4.794   8.808
    1STR  H1F   2818  10.604   4.546   8.970
    1STR  H1G   2819  10.675   4.706   8.987
    1STR  H1H   2820  10.507   4.680   9.029
    1STR  H1I   2821  10.627   4.681   8.615
    1STR  H1J   2822  10.679   4.547   8.715
    1STR  H1K   2823  10.902   4.594   8.642
    1STR  H1M   2824  10.868   4.887   8.552
    1STR  H1N   2825  10.791   4.748   8.476
    1STR  H1O   2826  10.965   4.766   8.468
    1STR  H1P   2827  11.026   4.849   8.757
    1STR  H1Q   2828  11.029   4.692   8.832
    1STR  H1R   2829  11.272   4.835   8.762
    1STR  H1S   2830  11.398   4.650   8.875
    1STR  H1T   2831  11.305   4.530   8.786
    1STR  H1U   2832  11.227   4.631   8.908
    1STR  H1V   2833  11.364   4.801   8.534
    1STR  H1W   2834  11.387   4.631   8.562
    1STR  H1X   2835  11.702   4.831   8.724
    1STR  H1Y   2836  11.891   4.918   8.781
    1STR  H1Z   2837  12.120   4.900   8.855
    1STR  H20   2838  12.285   4.626   8.978
    1STR  H21   2839  12.345   4.653   8.813
    1STR  H22   2840  12.307   4.789   8.917
    1STR  H23   2841  12.079   4.361   8.763
    1STR  H27   2842  11.871   4.490   8.730
    1STR  H28   2843  10.060   4.797   8.890
    1STR  H29   2844   9.823   4.823   8.909
    1STR  H2A   2845   9.572   4.622   8.745
    1STR  H2B   2846   9.609   4.771   8.828
    1STR  H2C   2847   9.578   4.626   8.922
    1STR  BCK1  2848   9.601   4.295  13.143
    1STR  O03   2849   9.536   4.383  13.088
    1STR  N04   2850   9.735   4.300  13.152
    1STR  C05   2851   9.826   4.197  13.184
    1STR  C06   2852   9.966   4.223  13.180
    1STR  C07   2853  10.064   4.121  13.201
    1STR  N08   2854  10.203   4.148  13.198
    1STR  C09   2855  10.308   4.066  13.220
    1STR  O0A   2856  10.299   3.946  13.247
    1STR  O0B   2857  10.428   4.129  13.210
    1STR  C0C   2858  10.550   4.055  13.231
    1STR  C0D   2859  10.590   3.983  13.100
    1STR  C0E   2860  10.663   4.147  13.281
    1STR  O0F   2861  10.783   4.072  13.306
    1STR  C0G   2862  10.895   4.147  13.353
    1STR  C0H   2863  10.878   4.177  13.503
    1STR  C0I   2864  11.025   4.067  13.327
    1STR  O0J   2865  11.141   4.144  13.361
    1STR  C0K   2866  11.268   4.083  13.337
    1STR  C0M   2867  11.301   4.088  13.187
    1STR  C0N   2868  11.376   4.160  13.418
    1STR  O0O   2869  11.504   4.096  13.412
    1STR  C0P   2870  11.612   4.155  13.355
    1STR  O0Q   2871  11.613   4.261  13.293
    1STR  N0R   2872  11.718   4.077  13.376
    1STR  C0S   2873  11.853   4.080  13.336
    1STR  C0T   2874  11.921   3.958  13.350
    1STR  C0U   2875  12.053   3.943  13.304
    1STR  C0V   2876  12.121   4.052  13.247
    1STR  C0W   2877  12.253   4.023  13.178
    1STR  C0X   2878  12.062   4.181  13.248
    1STR  N0Y   2879  12.139   4.292  13.212
    1STR  BCK2  2880  12.268   4.311  13.245
    1STR  O10   2881  12.333   4.408  13.208
    1STR  C13   2882  11.925   4.193  13.286
    1STR  C14   2883  10.015   3.990  13.224
    1STR  C15   2884   9.878   3.964  13.231
    1STR  C16   2885   9.783   4.065  13.214
    1STR  C17   2886   9.638   4.023  13.228
    1STR  H1B   2887   9.771   4.389  13.122
    1STR  H1C   2888  10.001   4.324  13.160
    1STR  H1D   2889  10.233   4.242  13.177
    1STR  H1E   2890  10.533   3.980  13.308
    1STR  H1F   2891  10.608   4.054  13.019
    1STR  H1G   2892  10.680   3.924  13.115
    1STR  H1H   2893  10.512   3.914  13.068
    1STR  H1I   2894  10.629   4.196  13.373
    1STR  H1J   2895  10.682   4.226  13.208
    1STR  H1K   2896  10.902   4.240  13.297
    1STR  H1M   2897  10.868   4.085  13.560
    1STR  H1N   2898  10.791   4.239  13.523
    1STR  H1O   2899  10.965   4.231  13.541
    1STR  H1P   2900  11.023   3.974  13.384
    1STR  H1Q   2901  11.027   4.039  13.221
    1STR  H1R   2902  11.266   3.980  13.372
    1STR  H1S   2903  11.399   4.043  13.168
    1STR  H1T   2904  11.306   4.191  13.152
    1STR  H1U   2905  11.229   4.035  13.126
    1STR  H1V   2906  11.347   4.161  13.523
    1STR  H1W   2907  11.381   4.264  13.387
    1STR  H1X   2908  11.689   3.996  13.428
    1STR  H1Y   2909  11.872   3.872  13.393
    1STR  H1Z   2910  12.100   3.846  13.310
    1STR  H20   2911  12.260   4.082  13.086
    1STR  H21   2912  12.338   4.048  13.241
    1STR  H22   2913  12.261   3.919  13.149
    1STR  H23   2914  12.095   4.370  13.165
    1STR  H27   2915  11.875   4.288  13.280
    1STR  H28   2916  10.079   3.905  13.237
    1STR  H29   2917   9.846   3.862  13.251
    1STR  H2A   2918   9.588   4.084  13.304
    1STR  H2B   2919   9.628   3.919  13.258
    1STR  H2C   2920   9.586   4.034  13.132
    1STR  BCK1  2921   9.617   8.683  17.437
    1STR  O03   2922   9.530   8.766  17.417
    1STR  N04   2923   9.746   8.684  17.393
    1STR  C05   2924   9.824   8.757  17.299
    1STR  C06   2925   9.967   8.748  17.308
    1STR  C07   2926  10.056   8.810  17.215
    1STR  N08   2927  10.197   8.794  17.225
    1STR  C09   2928  10.299   8.840  17.147
    1STR  O0A   2929  10.284   8.910  17.048
    1STR  O0B   2930  10.422   8.800  17.191
    1STR  C0C   2931  10.543   8.842  17.123
    1STR  C0D   2932  10.583   8.983  17.170
    1STR  C0E   2933  10.660   8.741  17.146
    1STR  O0F   2934  10.782   8.781  17.079
    1STR  C0G   2935  10.896   8.694  17.095
    1STR  C0H   2936  10.879   8.570  17.005
    1STR  C0I   2937  11.028   8.769  17.060
    1STR  O0J   2938  11.146   8.689  17.087
    1STR  C0K   2939  11.275   8.751  17.067
    1STR  C0M   2940  11.302   8.851  17.180
    1STR  C0N   2941  11.388   8.644  17.066
    1STR  O0O   2942  11.521   8.698  17.045
    1STR  C0P   2943  11.621   8.690  17.138
    1STR  O0Q   2944  11.608   8.651  17.254
    1STR  N0R   2945  11.736   8.731  17.083
    1STR  C0S   2946  11.869   8.752  17.125
    1STR  C0T   2947  11.951   8.809  17.025
    1STR  C0U   2948  12.084   8.844  17.053
    1STR  C0V   2949  12.141   8.822  17.179
    1STR  C0W   2950  12.279   8.881  17.200
    1STR  C0X   2951  12.067   8.755  17.281
    1STR  N0Y   2952  12.120   8.727  17.410
    1STR  BCK2  2953  12.244   8.705   0.023
    1STR  O10   2954  12.351   8.694  17.404
    1STR  C13   2955  11.929   8.724  17.252
    1STR  C14   2956   9.997   8.884  17.110
    1STR  C15   2957   9.858   8.894  17.098
    1STR  C16   2958   9.771   8.830  17.189
    1STR  C17   2959   9.623   8.841  17.158
    1STR  H1B   2960   9.800   8.616   0.004
    1STR  H1C   2961  10.010   8.692  17.389
    1STR  H1D   2962  10.233   8.741  17.302
    1STR  H1E   2963  10.524   8.845  17.016
    1STR  H1F   2964  10.603   8.986  17.277
    1STR  H1G   2965  10.673   9.017  17.118
    1STR  H1H   2966  10.505   9.055  17.148
    1STR  H1I   2967  10.628   8.643  17.110
    1STR  H1J   2968  10.679   8.731  17.253
    1STR  H1K   2969  10.903   8.663  17.199
    1STR  H1M   2970  10.868   8.598  16.901
    1STR  H1N   2971  10.791   8.511  17.033
    1STR  H1O   2972  10.965   8.505  17.013
    1STR  H1P   2973  11.027   8.800  16.955
    1STR  H1Q   2974  11.031   8.861  17.119
    1STR  H1R   2975  11.275   8.803  16.971
    1STR  H1S   2976  11.399   8.899  17.166
    1STR  H1T   2977  11.305   8.800  17.277
    1STR  H1U   2978  11.228   8.930  17.186
    1STR  H1V   2979  11.369   8.575  16.983
    1STR  H1W   2980  11.385   8.583  17.156
    1STR  H1X   2981  11.717   8.755  16.987
    1STR  H1Y   2982  11.913   8.830  16.927
    1STR  H1Z   2983  12.142   8.892  16.975
    1STR  H20   2984  12.288   8.924  17.300
    1STR  H21   2985  12.356   8.804  17.187
    1STR  H22   2986  12.300   8.961  17.129
    1STR  H23   2987  12.049   8.715   0.039
    1STR  H27   2988  11.867   8.678  17.327
    1STR  H28   2989  10.056   8.935  17.035
    1STR  H29   2990   9.818   8.951  17.016
    1STR  H2A   2991   9.573   8.745  17.172
    1STR  H2B   2992   9.606   8.870  17.055
    1STR  H2C   2993   9.577   8.916  17.222
    1STR  BCK1  2994   9.615   8.681   4.420
    1STR  O03   2995   9.574   8.607   4.509
    1STR  N04   2996   9.733   8.749   4.423
    1STR  C05   2997   9.822   8.774   4.529
    1STR  C06   2998   9.964   8.776   4.505
    1STR  C07   2999  10.059   8.804   4.608
    1STR  N08   3000  10.199   8.808   4.582
    1STR  C09   3001  10.303   8.828   4.665
    1STR  O0A   3002  10.294   8.844   4.787
    1STR  O0B   3003  10.424   8.828   4.601
    1STR  C0C   3004  10.546   8.843   4.677
    1STR  C0D   3005  10.587   8.708   4.737
    1STR  C0E   3006  10.660   8.902   4.590
    1STR  O0F   3007  10.781   8.920   4.667
    1STR  C0G   3008  10.894   8.973   4.596
    1STR  C0H   3009  10.877   9.125   4.579
    1STR  C0I   3010  11.025   8.940   4.673
    1STR  O0J   3011  11.141   8.980   4.598
    1STR  C0K   3012  11.269   8.951   4.655
    1STR  C0M   3013  11.300   8.801   4.640
    1STR  C0N   3014  11.378   9.034   4.584
    1STR  O0O   3015  11.507   9.019   4.644
    1STR  C0P   3016  11.612   8.957   4.583
    1STR  O0Q   3017  11.611   8.900   4.475
    1STR  N0R   3018  11.718   8.972   4.663
    1STR  C0S   3019  11.852   8.930   4.668
    1STR  C0T   3020  11.916   8.967   4.788
    1STR  C0U   3021  12.046   8.927   4.815
    1STR  C0V   3022  12.120   8.850   4.723
    1STR  C0W   3023  12.255   8.801   4.771
    1STR  C0X   3024  12.064   8.820   4.595
    1STR  N0Y   3025  12.141   8.756   4.495
    1STR  BCK2  3026  12.274   8.733   4.492
    1STR  O10   3027  12.329   8.681   4.396
    1STR  C13   3028  11.928   8.858   4.570
    1STR  C14   3029  10.007   8.829   4.737
    1STR  C15   3030   9.869   8.833   4.761
    1STR  C16   3031   9.777   8.810   4.658
    1STR  C17   3032   9.630   8.832   4.691
    1STR  H1B   3033   9.761   8.784   4.333
    1STR  H1C   3034  10.000   8.754   4.406
    1STR  H1D   3035  10.229   8.795   4.487
    1STR  H1E   3036  10.529   8.914   4.758
    1STR  H1F   3037  10.606   8.633   4.660
    1STR  H1G   3038  10.678   8.718   4.797
    1STR  H1H   3039  10.509   8.669   4.803
    1STR  H1I   3040  10.627   8.998   4.550
    1STR  H1J   3041  10.680   8.837   4.505
    1STR  H1K   3042  10.901   8.925   4.498
    1STR  H1M   3043  10.867   9.174   4.675
    1STR  H1N   3044  10.790   9.150   4.519
    1STR  H1O   3045  10.964   9.167   4.528
    1STR  H1P   3046  11.024   8.989   4.771
    1STR  H1Q   3047  11.027   8.833   4.692
    1STR  H1R   3048  11.268   8.978   4.761
    1STR  H1S   3049  11.397   8.777   4.684
    1STR  H1T   3050  11.305   8.773   4.535
    1STR  H1U   3051  11.227   8.737   4.689
    1STR  H1V   3052  11.352   9.140   4.592
    1STR  H1W   3053  11.382   9.012   4.477
    1STR  H1X   3054  11.687   9.025   4.742
    1STR  H1Y   3055  11.864   9.025   4.863
    1STR  H1Z   3056  12.090   8.953   4.910
    1STR  H20   3057  12.265   8.694   4.751
    1STR  H21   3058  12.335   8.856   4.722
    1STR  H22   3059  12.267   8.813   4.879
    1STR  H23   3060  12.095   8.728   4.410
    1STR  H27   3061  11.880   8.833   4.477
    1STR  H28   3062  10.070   8.849   4.822
    1STR  H29   3063   9.835   8.856   4.861
    1STR  H2A   3064   9.577   8.876   4.607
    1STR  H2B   3065   9.619   8.900   4.776
    1STR  H2C   3066   9.582   8.738   4.718
    1STR  BCK1  3067   9.613   8.659   8.767
    1STR  O03   3068   9.536   8.667   8.672
    1STR  N04   3069   9.745   8.626   8.762
    1STR  C05   3070   9.826   8.552   8.673
    1STR  C06   3071   9.969   8.567   8.684
    1STR  C07   3072  10.061   8.488   8.608
    1STR  N08   3073  10.201   8.502   8.625
    1STR  C09   3074  10.304   8.432   8.572
    1STR  O0A   3075  10.292   8.338   8.494
    1STR  O0B   3076  10.425   8.476   8.616
    1STR  C0C   3077  10.547   8.414   8.569
    1STR  C0D   3078  10.587   8.474   8.433
    1STR  C0E   3079  10.661   8.429   8.673
    1STR  O0F   3080  10.782   8.365   8.628
    1STR  C0G   3081  10.895   8.374   8.716
    1STR  C0H   3082  10.878   8.274   8.832
    1STR  C0I   3083  11.025   8.346   8.637
    1STR  O0J   3084  11.141   8.365   8.720
    1STR  C0K   3085  11.270   8.348   8.657
    1STR  C0M   3086  11.301   8.470   8.569
    1STR  C0N   3087  11.379   8.332   8.766
    1STR  O0O   3088  11.509   8.305   8.712
    1STR  C0P   3089  11.614   8.388   8.730
    1STR  O0Q   3090  11.610   8.500   8.779
    1STR  N0R   3091  11.724   8.329   8.683
    1STR  C0S   3092  11.859   8.366   8.668
    1STR  C0T   3093  11.934   8.282   8.583
    1STR  C0U   3094  12.067   8.313   8.551
    1STR  C0V   3095  12.131   8.425   8.606
    1STR  C0W   3096  12.267   8.464   8.550
    1STR  C0X   3097  12.064   8.504   8.704
    1STR  N0Y   3098  12.132   8.608   8.770
    1STR  BCK2  3099  12.260   8.604   8.812
    1STR  O10   3100  12.316   8.702   8.860
    1STR  C13   3101  11.925   8.476   8.730
    1STR  C14   3102  10.006   8.395   8.518
    1STR  C15   3103   9.868   8.379   8.505
    1STR  C16   3104   9.778   8.454   8.582
    1STR  C17   3105   9.631   8.421   8.564
    1STR  H1B   3106   9.795   8.667   8.839
    1STR  H1C   3107  10.008   8.639   8.753
    1STR  H1D   3108  10.234   8.575   8.686
    1STR  H1E   3109  10.529   8.307   8.556
    1STR  H1F   3110  10.606   8.581   8.440
    1STR  H1G   3111  10.678   8.426   8.395
    1STR  H1H   3112  10.509   8.458   8.358
    1STR  H1I   3113  10.628   8.386   8.767
    1STR  H1J   3114  10.680   8.535   8.691
    1STR  H1K   3115  10.902   8.475   8.756
    1STR  H1M   3116  10.868   8.172   8.795
    1STR  H1N   3117  10.791   8.296   8.893
    1STR  H1O   3118  10.965   8.277   8.898
    1STR  H1P   3119  11.024   8.244   8.598
    1STR  H1Q   3120  11.028   8.412   8.551
    1STR  H1R   3121  11.268   8.257   8.596
    1STR  H1S   3122  11.399   8.458   8.521
    1STR  H1T   3123  11.306   8.561   8.629
    1STR  H1U   3124  11.229   8.485   8.489
    1STR  H1V   3125  11.352   8.247   8.830
    1STR  H1W   3126  11.380   8.419   8.832
    1STR  H1X   3127  11.699   8.238   8.648
    1STR  H1Y   3128  11.889   8.196   8.538
    1STR  H1Z   3129  12.120   8.250   8.481
    1STR  H20   3130  12.267   8.571   8.528
    1STR  H21   3131  12.347   8.443   8.620
    1STR  H22   3132  12.288   8.413   8.457
    1STR  H23   3133  12.082   8.692   8.793
    1STR  H27   3134  11.870   8.539   8.798
    1STR  H28   3135  10.067   8.331   8.456
    1STR  H29   3136   9.831   8.305   8.436
    1STR  H2A   3137   9.581   8.412   8.660
    1STR  H2B   3138   9.617   8.327   8.511
    1STR  H2C   3139   9.583   8.499   8.504
    1STR  BCK1  3140   9.616   8.717  13.107
    1STR  O03   3141   9.539   8.792  13.164
    1STR  N04   3142   9.742   8.745  13.061
    1STR  C05   3143   9.822   8.862  13.047
    1STR  C06   3144   9.965   8.847  13.042
    1STR  C07   3145  10.055   8.957  13.022
    1STR  N08   3146  10.196   8.938  13.014
    1STR  C09   3147  10.298   9.026  13.000
    1STR  O0A   3148  10.284   9.148  12.996
    1STR  O0B   3149  10.421   8.966  12.993
    1STR  C0C   3150  10.543   9.045  12.984
    1STR  C0D   3151  10.583   9.094  13.124
    1STR  C0E   3152  10.660   8.966  12.918
    1STR  O0F   3153  10.782   9.043  12.909
    1STR  C0G   3154  10.896   8.978  12.849
    1STR  C0H   3155  10.878   8.974  12.697
    1STR  C0I   3156  11.028   9.051  12.888
    1STR  O0J   3157  11.146   8.981  12.841
    1STR  C0K   3158  11.275   9.035  12.879
    1STR  C0M   3159  11.302   9.006  13.027
    1STR  C0N   3160  11.390   8.972  12.794
    1STR  O0O   3161  11.521   9.024  12.824
    1STR  C0P   3162  11.621   8.950  12.881
    1STR  O0Q   3163  11.610   8.836  12.925
    1STR  N0R   3164  11.734   9.022  12.881
    1STR  C0S   3165  11.867   9.008  12.926
    1STR  C0T   3166  11.948   9.119  12.896
    1STR  C0U   3167  12.081   9.126  12.939
    1STR  C0V   3168  12.139   9.022  13.013
    1STR  C0W   3169  12.280   9.048  13.063
    1STR  C0X   3170  12.065   8.904  13.043
    1STR  N0Y   3171  12.118   8.797  13.121
    1STR  BCK2  3172  12.241   8.750  13.155
    1STR  O10   3173  12.350   8.776  13.105
    1STR  C13   3174  11.928   8.900  12.998
    1STR  C14   3175   9.997   9.085  13.009
    1STR  C15   3176   9.858   9.102  13.011
    1STR  C16   3177   9.770   8.993  13.026
    1STR  C17   3178   9.622   9.023  13.013
    1STR  H1B   3179   9.790   8.661  13.035
    1STR  H1C   3180  10.007   8.749  13.054
    1STR  H1D   3181  10.231   8.843  13.017
    1STR  H1E   3182  10.523   9.133  12.921
    1STR  H1F   3183  10.603   9.011  13.191
    1STR  H1G   3184  10.673   9.155  13.119
    1STR  H1H   3185  10.505   9.156  13.169
    1STR  H1I   3186  10.628   8.935  12.818
    1STR  H1J   3187  10.679   8.875  12.975
    1STR  H1K   3188  10.903   8.876  12.888
    1STR  H1M   3189  10.868   9.074  12.655
    1STR  H1N   3190  10.791   8.916  12.666
    1STR  H1O   3191  10.965   8.928  12.649
    1STR  H1P   3192  11.027   9.153  12.848
    1STR  H1Q   3193  11.031   9.060  12.996
    1STR  H1R   3194  11.275   9.143  12.861
    1STR  H1S   3195  11.398   9.048  13.057
    1STR  H1T   3196  11.305   8.899  13.045
    1STR  H1U   3197  11.227   9.050  13.093
    1STR  H1V   3198  11.370   8.994  12.689
    1STR  H1W   3199  11.388   8.863  12.801
    1STR  H1X   3200  11.713   9.109  12.836
    1STR  H1Y   3201  11.908   9.203  12.841
    1STR  H1Z   3202  12.138   9.215  12.916
    1STR  H20   3203  12.291   9.018  13.167
    1STR  H21   3204  12.352   8.993  13.002
    1STR  H22   3205  12.307   9.153  13.057
    1STR  H23   3206  12.045   8.739  13.161
    1STR  H27   3207  11.866   8.814  13.020
    1STR  H28   3208  10.056   9.174  12.994
    1STR  H29   3209   9.818   9.201  12.997
    1STR  H2A   3210   9.571   8.944  12.957
    1STR  H2B   3211   9.605   9.116  12.959
    1STR  H2C   3212   9.576   9.033  13.111
    1STR  BCK1  3213   9.603  13.020   0.063
    1STR  O03   3214   9.539  13.069  17.411
    1STR  N04   3215   9.733  13.048   0.083
    1STR  C05   3216   9.824  12.986   0.170
    1STR  C06   3217   9.965  13.008   0.153
    1STR  C07   3218  10.063  12.938   0.230
    1STR  N08   3219  10.202  12.962   0.213
    1STR  C09   3220  10.308  12.906   0.276
    1STR  O0A   3221  10.300  12.819   0.362
    1STR  O0B   3222  10.427  12.956   0.233
    1STR  C0C   3223  10.550  12.904   0.290
    1STR  C0D   3224  10.590  12.774   0.219
    1STR  C0E   3225  10.663  13.009   0.283
    1STR  O0F   3226  10.783  12.959   0.345
    1STR  C0G   3227  10.895  13.047   0.344
    1STR  C0H   3228  10.878  13.153   0.455
    1STR  C0I   3229  11.025  12.965   0.366
    1STR  O0J   3230  11.141  13.050   0.353
    1STR  C0K   3231  11.269  12.986   0.365
    1STR  C0M   3232  11.302  12.908   0.237
    1STR  C0N   3233  11.376  13.094   0.392
    1STR  O0O   3234  11.504  13.037   0.422
    1STR  C0P   3235  11.613  13.053   0.341
    1STR  O0Q   3236  11.614  13.106   0.231
    1STR  N0R   3237  11.718  12.999   0.403
    1STR  C0S   3238  11.851  12.974   0.370
    1STR  C0T   3239  11.915  12.879   0.453
    1STR  C0U   3240  12.043  12.832   0.424
    1STR  C0V   3241  12.115  12.883   0.315
    1STR  C0W   3242  12.242  12.810   0.274
    1STR  C0X   3243  12.063  12.994   0.242
    1STR  N0Y   3244  12.146  13.061   0.150
    1STR  BCK2  3245  12.278  13.081   0.165
    1STR  O10   3246  12.346  13.137   0.081
    1STR  C13   3247  11.928  13.033   0.265
    1STR  C14   3248  10.015  12.844   0.324
    1STR  C15   3249   9.878  12.825   0.345
    1STR  C16   3250   9.783  12.897   0.272
    1STR  C17   3251   9.638  12.873   0.311
    1STR  H1B   3252   9.767  13.117   0.018
    1STR  H1C   3253   9.998  13.079   0.079
    1STR  H1D   3254  10.231  13.030   0.145
    1STR  H1E   3255  10.534  12.882   0.396
    1STR  H1F   3256  10.608  12.789   0.113
    1STR  H1G   3257  10.680  12.732   0.263
    1STR  H1H   3258  10.512  12.698   0.228
    1STR  H1I   3259  10.629  13.099   0.335
    1STR  H1J   3260  10.682  13.036   0.180
    1STR  H1K   3261  10.903  13.096   0.247
    1STR  H1M   3262  10.868  13.106   0.553
    1STR  H1N   3263  10.791  13.216   0.438
    1STR  H1O   3264  10.965  13.219   0.458
    1STR  H1P   3265  11.023  12.918   0.464
    1STR  H1Q   3266  11.028  12.885   0.292
    1STR  H1R   3267  11.267  12.917   0.451
    1STR  H1S   3268  11.399  12.860   0.245
    1STR  H1T   3269  11.306  12.976   0.151
    1STR  H1U   3270  11.229  12.830   0.214
    1STR  H1V   3271  11.347  13.152   0.479
    1STR  H1W   3272  11.382  13.165   0.309
    1STR  H1X   3273  11.687  12.963   0.492
    1STR  H1Y   3274  11.863  12.837   0.537
    1STR  H1Z   3275  12.086  12.754   0.485
    1STR  H20   3276  12.255  12.814   0.166
    1STR  H21   3277  12.329  12.851   0.323
    1STR  H22   3278  12.235  12.704   0.299
    1STR  H23   3279  12.105  13.107   0.070
    1STR  H27   3280  11.882  13.110   0.204
    1STR  H28   3281  10.080  12.783   0.384
    1STR  H29   3282   9.848  12.754   0.420
    1STR  H2A   3283   9.587  12.969   0.326
    1STR  H2B   3284   9.629  12.818   0.404
    1STR  H2C   3285   9.587  12.816   0.234
    1STR  BCK1  3286   9.618  13.020   4.369
    1STR  O03   3287   9.530  13.083   4.310
    1STR  N04   3288   9.748  13.004   4.332
    1STR  C05   3289   9.826  13.022   4.215
    1STR  C06   3290   9.969  13.023   4.229
    1STR  C07   3291  10.058  13.030   4.118
    1STR  N08   3292  10.199  13.025   4.136
    1STR  C09   3293  10.301  13.023   4.046
    1STR  O0A   3294  10.286  13.028   3.924
    1STR  O0B   3295  10.424  13.014   4.106
    1STR  C0C   3296  10.545  13.013   4.026
    1STR  C0D   3297  10.585  13.157   3.990
    1STR  C0E   3298  10.661  12.940   4.100
    1STR  O0F   3299  10.782  12.938   4.022
    1STR  C0G   3300  10.896  12.873   4.083
    1STR  C0H   3301  10.878  12.720   4.074
    1STR  C0I   3302  11.028  12.918   4.013
    1STR  O0J   3303  11.145  12.864   4.078
    1STR  C0K   3304  11.274  12.905   4.028
    1STR  C0M   3305  11.302  13.050   4.070
    1STR  C0N   3306  11.385  12.812   4.084
    1STR  O0O   3307  11.517  12.844   4.035
    1STR  C0P   3308  11.619  12.883   4.118
    1STR  O0Q   3309  11.609  12.911   4.237
    1STR  N0R   3310  11.733  12.887   4.048
    1STR  C0S   3311  11.867  12.923   4.073
    1STR  C0T   3312  11.948  12.929   3.958
    1STR  C0U   3313  12.081  12.973   3.965
    1STR  C0V   3314  12.139  13.010   4.087
    1STR  C0W   3315  12.276  13.075   4.079
    1STR  C0X   3316  12.067  12.993   4.209
    1STR  N0Y   3317  12.122  13.022   4.336
    1STR  BCK2  3318  12.246  13.019   4.392
    1STR  O10   3319  12.351  12.983   4.340
    1STR  C13   3320  11.929  12.954   4.198
    1STR  C14   3321  10.000  13.042   3.990
    1STR  C15   3322   9.861  13.043   3.973
    1STR  C16   3323   9.773  13.031   4.083
    1STR  C17   3324   9.626  13.024   4.050
    1STR  H1B   3325   9.802  12.973   4.411
    1STR  H1C   3326  10.011  13.015   4.327
    1STR  H1D   3327  10.234  13.021   4.230
    1STR  H1E   3328  10.526  12.958   3.933
    1STR  H1F   3329  10.604  13.217   4.079
    1STR  H1G   3330  10.675  13.158   3.929
    1STR  H1H   3331  10.506  13.207   3.933
    1STR  H1I   3332  10.628  12.839   4.122
    1STR  H1J   3333  10.679  12.989   4.195
    1STR  H1K   3334  10.903  12.903   4.187
    1STR  H1M   3335  10.868  12.688   3.970
    1STR  H1N   3336  10.791  12.685   4.129
    1STR  H1O   3337  10.965  12.669   4.116
    1STR  H1P   3338  11.026  12.887   3.908
    1STR  H1Q   3339  11.030  13.026   4.013
    1STR  H1R   3340  11.273  12.898   3.919
    1STR  H1S   3341  11.399  13.082   4.032
    1STR  H1T   3342  11.306  13.059   4.179
    1STR  H1U   3343  11.229  13.121   4.033
    1STR  H1V   3344  11.364  12.710   4.052
    1STR  H1W   3345  11.383  12.810   4.193
    1STR  H1X   3346  11.713  12.858   3.954
    1STR  H1Y   3347  11.908  12.903   3.861
    1STR  H1Z   3348  12.138  12.981   3.873
    1STR  H20   3349  12.284  13.157   4.150
    1STR  H21   3350  12.355  13.002   4.098
    1STR  H22   3351  12.294  13.117   3.980
    1STR  H23   3352  12.052  13.042   4.406
    1STR  H27   3353  11.868  12.947   4.287
    1STR  H28   3354  10.059  13.049   3.900
    1STR  H29   3355   9.821  13.050   3.873
    1STR  H2A   3356   9.576  12.947   4.108
    1STR  H2B   3357   9.609  13.001   3.945
    1STR  H2C   3358   9.579  13.121   4.070
    1STR  BCK1  3359   9.616  13.061   8.781
    1STR  O03   3360   9.558  13.056   8.889
    1STR  N04   3361   9.736  13.118   8.756
    1STR  C05   3362   9.822  13.202   8.832
    1STR  C06   3363   9.964  13.194   8.813
    1STR  C07   3364  10.057  13.277   8.882
    1STR  N08   3365  10.197  13.270   8.859
    1STR  C09   3366  10.301  13.332   8.919
    1STR  O0A   3367  10.290  13.410   9.013
    1STR  O0B   3368  10.422  13.300   8.864
    1STR  C0C   3369  10.545  13.354   8.921
    1STR  C0D   3370  10.586  13.272   9.044
    1STR  C0E   3371  10.660  13.358   8.816
    1STR  O0F   3372  10.781  13.413   8.872
    1STR  C0G   3373  10.895  13.420   8.784
    1STR  C0H   3374  10.878  13.539   8.688
    1STR  C0I   3375  11.026  13.434   8.866
    1STR  O0J   3376  11.143  13.428   8.781
    1STR  C0K   3377  11.271  13.432   8.847
    1STR  C0M   3378  11.301  13.298   8.914
    1STR  C0N   3379  11.383  13.463   8.743
    1STR  O0O   3380  11.513  13.479   8.804
    1STR  C0P   3381  11.616  13.391   8.786
    1STR  O0Q   3382  11.611  13.285   8.724
    1STR  N0R   3383  11.723  13.441   8.846
    1STR  C0S   3384  11.857  13.405   8.870
    1STR  C0T   3385  11.928  13.502   8.942
    1STR  C0U   3386  12.061  13.481   8.982
    1STR  C0V   3387  12.129  13.363   8.948
    1STR  C0W   3388  12.270  13.351   9.002
    1STR  C0X   3389  12.064  13.263   8.870
    1STR  N0Y   3390  12.133  13.147   8.827
    1STR  BCK2  3391  12.260  13.107   8.851
    1STR  O10   3392  12.308  13.007   8.800
    1STR  C13   3393  11.927  13.285   8.832
    1STR  C14   3394  10.003  13.369   8.974
    1STR  C15   3395   9.864  13.382   8.992
    1STR  C16   3396   9.773  13.302   8.919
    1STR  C17   3397   9.626  13.336   8.933
    1STR  H1B   3398   9.774  13.091   8.666
    1STR  H1C   3399  10.003  13.121   8.743
    1STR  H1D   3400  10.229  13.209   8.785
    1STR  H1E   3401  10.526  13.457   8.952
    1STR  H1F   3402  10.605  13.168   9.019
    1STR  H1G   3403  10.676  13.313   9.090
    1STR  H1H   3404  10.508  13.274   9.121
    1STR  H1I   3405  10.627  13.418   8.731
    1STR  H1J   3406  10.679  13.257   8.779
    1STR  H1K   3407  10.902  13.327   8.727
    1STR  H1M   3408  10.868  13.632   8.742
    1STR  H1N   3409  10.791  13.528   8.623
    1STR  H1O   3410  10.965  13.548   8.622
    1STR  H1P   3411  11.025  13.527   8.922
    1STR  H1Q   3412  11.029  13.353   8.939
    1STR  H1R   3413  11.271  13.512   8.922
    1STR  H1S   3414  11.398  13.300   8.964
    1STR  H1T   3415  11.305  13.218   8.840
    1STR  H1U   3416  11.227  13.270   8.989
    1STR  H1V   3417  11.360  13.558   8.694
    1STR  H1W   3418  11.386  13.389   8.664
    1STR  H1X   3419  11.696  13.530   8.884
    1STR  H1Y   3420  11.881  13.595   8.971
    1STR  H1Z   3421  12.110  13.558   9.039
    1STR  H20   3422  12.279  13.261   9.064
    1STR  H21   3423  12.342  13.347   8.920
    1STR  H22   3424  12.298  13.435   9.066
    1STR  H23   3425  12.084  13.083   8.766
    1STR  H27   3426  11.873  13.211   8.775
    1STR  H28   3427  10.064  13.436   9.033
    1STR  H29   3428   9.827  13.456   9.061
    1STR  H2A   3429   9.574  13.324   8.839
    1STR  H2B   3430   9.613  13.440   8.965
    1STR  H2C   3431   9.580  13.272   9.008
    1STR  BCK1  3432   9.606  13.007  13.153
    1STR  O03   3433   9.539  13.058  13.064
    1STR  N04   3434   9.740  13.008  13.150
    1STR  C05   3435   9.828  12.899  13.131
    1STR  C06   3436   9.969  12.922  13.132
    1STR  C07   3437  10.064  12.817  13.112
    1STR  N08   3438  10.203  12.841  13.117
    1STR  C09   3439  10.307  12.755  13.110
    1STR  O0A   3440  10.297  12.634  13.094
    1STR  O0B   3441  10.427  12.818  13.123
    1STR  C0C   3442  10.549  12.741  13.117
    1STR  C0D   3443  10.589  12.718  12.970
    1STR  C0E   3444  10.662  12.810  13.196
    1STR  O0F   3445  10.782  12.731  13.193
    1STR  C0G   3446  10.895  12.786  13.263
    1STR  C0H   3447  10.878  12.763  13.414
    1STR  C0I   3448  11.025  12.720  13.211
    1STR  O0J   3449  11.141  12.781  13.270
    1STR  C0K   3450  11.268  12.732  13.227
    1STR  C0M   3451  11.301  12.787  13.087
    1STR  C0N   3452  11.376  12.776  13.329
    1STR  O0O   3453  11.505  12.719  13.300
    1STR  C0P   3454  11.612  12.796  13.268
    1STR  O0Q   3455  11.611  12.917  13.248
    1STR  N0R   3456  11.720  12.717  13.261
    1STR  C0S   3457  11.854  12.737  13.226
    1STR  C0T   3458  11.926  12.619  13.198
    1STR  C0U   3459  12.058  12.624  13.152
    1STR  C0V   3460  12.125  12.747  13.139
    1STR  C0W   3461  12.259  12.748  13.067
    1STR  C0X   3462  12.062  12.867  13.183
    1STR  N0Y   3463  12.135  12.986  13.187
    1STR  BCK2  3464  12.263  12.997  13.227
    1STR  O10   3465  12.324  13.104  13.225
    1STR  C13   3466  11.924  12.861  13.220
    1STR  C14   3467  10.012  12.688  13.086
    1STR  C15   3468   9.874  12.664  13.084
    1STR  C16   3469   9.782  12.767  13.107
    1STR  C17   3470   9.635  12.727  13.104
    1STR  H1B   3471   9.780  13.101  13.153
    1STR  H1C   3472  10.006  13.022  13.149
    1STR  H1D   3473  10.234  12.936  13.130
    1STR  H1E   3474  10.532  12.643  13.163
    1STR  H1F   3475  10.608  12.812  12.918
    1STR  H1G   3476  10.680  12.658  12.963
    1STR  H1H   3477  10.511  12.665  12.915
    1STR  H1I   3478  10.629  12.824  13.299
    1STR  H1J   3479  10.681  12.909  13.155
    1STR  H1K   3480  10.902  12.893  13.242
    1STR  H1M   3481  10.868  12.657  13.437
    1STR  H1N   3482  10.791  12.815  13.454
    1STR  H1O   3483  10.964  12.801  13.469
    1STR  H1P   3484  11.023  12.613  13.233
    1STR  H1Q   3485  11.027  12.730  13.103
    1STR  H1R   3486  11.266  12.622  13.224
    1STR  H1S   3487  11.399  12.752  13.054
    1STR  H1T   3488  11.306  12.896  13.089
    1STR  H1U   3489  11.229  12.758  13.012
    1STR  H1V   3490  11.348  12.740  13.428
    1STR  H1W   3491  11.381  12.884  13.336
    1STR  H1X   3492  11.692  12.623  13.280
    1STR  H1Y   3493  11.879  12.522  13.206
    1STR  H1Z   3494  12.108  12.533  13.124
    1STR  H20   3495  12.262  12.831  12.997
    1STR  H21   3496  12.342  12.758  13.137
    1STR  H22   3497  12.274  12.657  13.010
    1STR  H23   3498  12.089  13.074  13.166
    1STR  H27   3499  11.871  12.952  13.247
    1STR  H28   3500  10.074  12.603  13.067
    1STR  H29   3501   9.840  12.564  13.065
    1STR  H2A   3502   9.587  12.754  13.198
    1STR  H2B   3503   9.622  12.620  13.092
    1STR  H2C   3504   9.584  12.776  13.021
    1STR  BCK1  3505  13.977  17.420   0.003
    1STR  O03   3506  13.892   0.068   0.011
    1STR  N04   3507  14.105  17.431  17.396
    1STR  C05   3508  14.183   0.088  17.328
    1STR  C06   3509  14.326   0.076  17.332
    1STR  C07   3510  14.416   0.163  17.262
    1STR  N08   3511  14.557   0.145  17.266
    1STR  C09   3512  14.658   0.214  17.208
    1STR  O0A   3513  14.643   0.313  17.138
    1STR  O0B   3514  14.782   0.160  17.235
    1STR  C0C   3515  14.903   0.223  17.184
    1STR  C0D   3516  14.943   0.340  17.276
    1STR  C0E   3517  15.020   0.121  17.171
    1STR  O0F   3518  15.142   0.181  17.122
    1STR  C0G   3519  15.256   0.094  17.107
    1STR  C0H   3520  15.238   0.008  16.981
    1STR  C0I   3521  15.389   0.176  17.100
    1STR  O0J   3522  15.506   0.092  17.098
    1STR  C0K   3523  15.635   0.158  17.101
    1STR  C0M   3524  15.662   0.213  17.241
    1STR  C0N   3525  15.750   0.058  17.063
    1STR  O0O   3526  15.881   0.117  17.063
    1STR  C0P   3527  15.981   0.080  17.150
    1STR  O0Q   3528  15.969   0.005  17.246
    1STR  N0R   3529  16.096   0.138  17.112
    1STR  C0S   3530  16.229   0.146  17.159
    1STR  C0T   3531  16.311   0.229  17.080
    1STR  C0U   3532  16.444   0.255  17.116
    1STR  C0V   3533  16.501   0.198  17.231
    1STR  C0W   3534  16.640   0.246  17.267
    1STR  C0X   3535  16.427   0.105  17.311
    1STR  N0Y   3536  16.479   0.044  17.428
    1STR  BCK2  3537  16.602   0.011   0.036
    1STR  O10   3538  16.710   0.015  17.419
    1STR  C13   3539  16.289   0.083  17.273
    1STR  C14   3540  14.356   0.267  17.187
    1STR  C15   3541  14.217   0.281  17.180
    1STR  C16   3542  14.130   0.192  17.246
    1STR  C17   3543  13.982   0.212  17.221
    1STR  H1B   3544  14.157  17.349  17.420
    1STR  H1C   3545  14.369  17.437  17.392
    1STR  H1D   3546  14.592   0.068  17.320
    1STR  H1E   3547  14.883   0.263  17.085
    1STR  H1F   3548  14.963   0.306  17.378
    1STR  H1G   3549  15.033   0.389  17.239
    1STR  H1H   3550  14.865   0.415  17.281
    1STR  H1I   3551  14.988   0.041  17.104
    1STR  H1J   3552  15.039   0.075  17.268
    1STR  H1K   3553  15.263   0.029  17.195
    1STR  H1M   3554  15.228   0.071  16.892
    1STR  H1N   3555  15.151  17.383  16.986
    1STR  H1O   3556  15.325  17.384  16.966
    1STR  H1P   3557  15.387   0.241  17.012
    1STR  H1Q   3558  15.391   0.242  17.186
    1STR  H1R   3559  15.636   0.239  17.028
    1STR  H1S   3560  15.759   0.263  17.245
    1STR  H1T   3561  15.666   0.132  17.315
    1STR  H1U   3562  15.588   0.285  17.274
    1STR  H1V   3563  15.731   0.021  16.962
    1STR  H1W   3564  15.747  17.410  17.128
    1STR  H1X   3565  16.077   0.191  17.029
    1STR  H1Y   3566  16.273   0.277  16.992
    1STR  H1Z   3567  16.502   0.322  17.055
    1STR  H20   3568  16.650   0.261  17.374
    1STR  H21   3569  16.715   0.174  17.233
    1STR  H22   3570  16.663   0.341  17.219
    1STR  H23   3571  16.407   0.012   0.050
    1STR  H27   3572  16.227   0.018  17.332
    1STR  H28   3573  14.415   0.338  17.131
    1STR  H29   3574  14.177   0.361  17.119
    1STR  H2A   3575  13.932   0.116  17.207
    1STR  H2B   3576  13.964   0.270  17.130
    1STR  H2C   3577  13.936   0.265  17.304
    1STR  BCK1  3578  13.973  17.395   4.413
    1STR  O03   3579  13.938  17.289   4.464
    1STR  N04   3580  14.091   0.018   4.438
    1STR  C05   3581  14.183   0.001   4.544
    1STR  C06   3582  14.324   0.010   4.520
    1STR  C07   3583  14.420  17.436   4.625
    1STR  N08   3584  14.560   0.009   4.600
    1STR  C09   3585  14.665  17.438   4.684
    1STR  O0A   3586  14.656  17.411   4.804
    1STR  O0B   3587  14.785   0.019   4.623
    1STR  C0C   3588  14.907   0.007   4.699
    1STR  C0D   3589  14.948  17.299   4.709
    1STR  C0E   3590  15.021   0.092   4.638
    1STR  O0F   3591  15.141   0.082   4.716
    1STR  C0G   3592  15.254   0.157   4.668
    1STR  C0H   3593  15.238   0.305   4.705
    1STR  C0I   3594  15.385   0.099   4.730
    1STR  O0J   3595  15.500   0.163   4.673
    1STR  C0K   3596  15.629   0.116   4.717
    1STR  C0M   3597  15.661  17.421   4.651
    1STR  C0N   3598  15.737   0.220   4.679
    1STR  O0O   3599  15.866   0.188   4.732
    1STR  C0P   3600  15.972   0.153   4.655
    1STR  O0Q   3601  15.972   0.136   4.533
    1STR  N0R   3602  16.077   0.141   4.736
    1STR  C0S   3603  16.211   0.100   4.726
    1STR  C0T   3604  16.271   0.081   4.851
    1STR  C0U   3605  16.400   0.029   4.862
    1STR  C0V   3606  16.475  17.437   4.748
    1STR  C0W   3607  16.604  17.362   4.771
    1STR  C0X   3608  16.425   0.030   4.618
    1STR  N0Y   3609  16.506   0.018   4.504
    1STR  BCK2  3610  16.641   0.018   4.499
    1STR  O10   3611  16.703   0.007   4.394
    1STR  C13   3612  16.289   0.076   4.609
    1STR  C14   3613  14.370  17.412   4.755
    1STR  C15   3614  14.233  17.407   4.780
    1STR  C16   3615  14.139  17.425   4.678
    1STR  C17   3616  13.993  17.434   4.719
    1STR  H1B   3617  14.117   0.085   4.368
    1STR  H1C   3618  14.358   0.027   4.419
    1STR  H1D   3619  14.589   0.029   4.506
    1STR  H1E   3620  14.890   0.045   4.800
    1STR  H1F   3621  14.967  17.256   4.611
    1STR  H1G   3622  15.039  17.288   4.769
    1STR  H1H   3623  14.870  17.240   4.758
    1STR  H1I   3624  14.988   0.196   4.633
    1STR  H1J   3625  15.041   0.060   4.536
    1STR  H1K   3626  15.262   0.145   4.560
    1STR  H1M   3627  15.228   0.319   4.812
    1STR  H1N   3628  15.150   0.350   4.657
    1STR  H1O   3629  15.324   0.363   4.672
    1STR  H1P   3630  15.384   0.112   4.838
    1STR  H1Q   3631  15.387  17.432   4.711
    1STR  H1R   3632  15.628   0.105   4.826
    1STR  H1S   3633  15.758  17.384   4.684
    1STR  H1T   3634  15.665  17.431   4.543
    1STR  H1U   3635  15.588  17.344   4.675
    1STR  H1V   3636  15.709   0.317   4.722
    1STR  H1W   3637  15.741   0.236   4.571
    1STR  H1X   3638  16.045   0.163   4.828
    1STR  H1Y   3639  16.218   0.103   4.943
    1STR  H1Z   3640  16.441   0.010   4.960
    1STR  H20   3641  16.619  17.285   4.694
    1STR  H21   3642  16.689  17.430   4.772
    1STR  H22   3643  16.603  17.309   4.866
    1STR  H23   3644  16.463   0.017   4.413
    1STR  H27   3645  16.244   0.095   4.512
    1STR  H28   3646  14.434  17.398   4.840
    1STR  H29   3647  14.199  17.391   4.882
    1STR  H2A   3648  13.940   0.070   4.661
    1STR  H2B   3649  13.983   0.021   4.824
    1STR  H2C   3650  13.943  17.338   4.705
    1STR  BCK1  3651  13.976  17.374   8.753
    1STR  O03   3652  13.893  17.406   8.668
    1STR  N04   3653  14.107  17.344   8.733
    1STR  C05   3654  14.187  17.303   8.624
    1STR  C06   3655  14.329  17.312   8.637
    1STR  C07   3656  14.420  17.263   8.538
    1STR  N08   3657  14.561  17.270   8.558
    1STR  C09   3658  14.663  17.221   8.484
    1STR  O0A   3659  14.650  17.160   8.378
    1STR  O0B   3660  14.785  17.247   8.540
    1STR  C0C   3661  14.906  17.204   8.473
    1STR  C0D   3662  14.946  17.307   8.366
    1STR  C0E   3663  15.021  17.183   8.576
    1STR  O0F   3664  15.142  17.138   8.511
    1STR  C0G   3665  15.255  17.116   8.597
    1STR  C0H   3666  15.238  16.983   8.672
    1STR  C0I   3667  15.386  17.117   8.514
    1STR  O0J   3668  15.502  17.107   8.598
    1STR  C0K   3669  15.631  17.113   8.533
    1STR  C0M   3670  15.662  17.258   8.492
    1STR  C0N   3671  15.740  17.062   8.631
    1STR  O0O   3672  15.871  17.058   8.571
    1STR  C0P   3673  15.975  17.131   8.618
    1STR  O0Q   3674  15.969  17.219   8.704
    1STR  N0R   3675  16.087  17.093   8.555
    1STR  C0S   3676  16.221  17.135   8.557
    1STR  C0T   3677  16.299  17.084   8.450
    1STR  C0U   3678  16.432  17.124   8.432
    1STR  C0V   3679  16.494  17.211   8.523
    1STR  C0W   3680  16.630  17.267   8.485
    1STR  C0X   3681  16.424  17.253   8.640
    1STR  N0Y   3682  16.492  17.331   8.736
    1STR  BCK2  3683  16.621  17.319   8.770
    1STR  O10   3684  16.688  17.412   8.814
    1STR  C13   3685  16.286  17.219   8.652
    1STR  C14   3686  14.364  17.206   8.422
    1STR  C15   3687  14.225  17.196   8.407
    1STR  C16   3688  14.136  17.242   8.506
    1STR  C17   3689  13.989  17.217   8.479
    1STR  H1B   3690  14.159  17.357   8.818
    1STR  H1C   3691  14.370  17.357   8.726
    1STR  H1D   3692  14.594  17.317   8.640
    1STR  H1E   3693  14.888  17.108   8.424
    1STR  H1F   3694  14.966  17.405   8.409
    1STR  H1G   3695  15.037  17.275   8.314
    1STR  H1H   3696  14.868  17.318   8.291
    1STR  H1I   3697  14.988  17.109   8.649
    1STR  H1J   3698  15.040  17.276   8.629
    1STR  H1K   3699  15.262  17.198   8.669
    1STR  H1M   3700  15.228  16.900   8.602
    1STR  H1N   3701  15.151  16.982   8.737
    1STR  H1O   3702  15.325  16.962   8.735
    1STR  H1P   3703  15.384  17.035   8.442
    1STR  H1Q   3704  15.389  17.209   8.456
    1STR  H1R   3705  15.630  17.048   8.445
    1STR  H1S   3706  15.759  17.264   8.443
    1STR  H1T   3707  15.666  17.323   8.579
    1STR  H1U   3708  15.589  17.298   8.422
    1STR  H1V   3709  15.716  16.960   8.660
    1STR  H1W   3710  15.741  17.120   8.723
    1STR  H1X   3711  16.064  17.021   8.490
    1STR  H1Y   3712  16.256  17.017   8.377
    1STR  H1Z   3713  16.486  17.088   8.346
    1STR  H20   3714  16.631  17.375   8.499
    1STR  H21   3715  16.710  17.223   8.544
    1STR  H22   3716  16.653  17.249   8.380
    1STR  H23   3717  16.442  17.406   8.782
    1STR  H27   3718  16.228  17.256   8.736
    1STR  H28   3719  14.424  17.167   8.342
    1STR  H29   3720  14.187  17.150   8.317
    1STR  H2A   3721  13.939  17.179   8.568
    1STR  H2B   3722  13.974  17.144   8.400
    1STR  H2C   3723  13.941  17.310   8.447
    1STR  BCK1  3724  13.976  17.436  13.123
    1STR  O03   3725  13.904   0.049  13.207
    1STR  N04   3726  14.100   0.036  13.083
    1STR  C05   3727  14.182   0.150  13.105
    1STR  C06   3728  14.325   0.136  13.094
    1STR  C07   3729  14.416   0.246  13.109
    1STR  N08   3730  14.556   0.229  13.094
    1STR  C09   3731  14.659   0.316  13.111
    1STR  O0A   3732  14.646   0.432  13.149
    1STR  O0B   3733  14.782   0.262  13.083
    1STR  C0C   3734  14.903   0.339  13.101
    1STR  C0D   3735  14.944   0.336  13.250
    1STR  C0E   3736  15.020   0.287  13.012
    1STR  O0F   3737  15.141   0.362  13.030
    1STR  C0G   3738  15.255   0.321  12.952
    1STR  C0H   3739  15.238   0.370  12.807
    1STR  C0I   3740  15.387   0.377  13.013
    1STR  O0J   3741  15.505   0.327  12.945
    1STR  C0K   3742  15.634   0.365  12.999
    1STR  C0M   3743  15.661   0.287  13.128
    1STR  C0N   3744  15.748   0.335  12.896
    1STR  O0O   3745  15.878   0.377  12.943
    1STR  C0P   3746  15.979   0.289  12.973
    1STR  O0Q   3747  15.971   0.167  12.975
    1STR  N0R   3748  16.089   0.360  12.999
    1STR  C0S   3749  16.223   0.337  13.038
    1STR  C0T   3750  16.299   0.454  13.048
    1STR  C0U   3751  16.432   0.452  13.092
    1STR  C0V   3752  16.495   0.332  13.126
    1STR  C0W   3753  16.638   0.343  13.176
    1STR  C0X   3754  16.426   0.208  13.113
    1STR  N0Y   3755  16.490   0.084  13.138
    1STR  BCK2  3756  16.616   0.056  13.179
    1STR  O10   3757  16.660  17.382  13.186
    1STR  C13   3758  16.288   0.213  13.070
    1STR  C14   3759  14.359   0.372  13.138
    1STR  C15   3760  14.219   0.388  13.146
    1STR  C16   3761  14.131   0.281  13.127
    1STR  C17   3762  13.983   0.315  13.123
    1STR  H1B   3763  14.145  17.405  13.027
    1STR  H1C   3764  14.366   0.039  13.073
    1STR  H1D   3765  14.590   0.139  13.065
    1STR  H1E   3766  14.884   0.442  13.072
    1STR  H1F   3767  14.964   0.235  13.285
    1STR  H1G   3768  15.034   0.396  13.266
    1STR  H1H   3769  14.866   0.379  13.313
    1STR  H1I   3770  14.987   0.291  12.908
    1STR  H1J   3771  15.039   0.182  13.035
    1STR  H1K   3772  15.262   0.212  12.953
    1STR  H1M   3773  15.228   0.478  12.802
    1STR  H1N   3774  15.151   0.326  12.758
    1STR  H1O   3775  15.325   0.342  12.747
    1STR  H1P   3776  15.386   0.486  13.010
    1STR  H1Q   3777  15.390   0.349  13.118
    1STR  H1R   3778  15.633   0.472  13.019
    1STR  H1S   3779  15.758   0.316  13.170
    1STR  H1T   3780  15.665   0.180  13.108
    1STR  H1U   3781  15.587   0.305  13.205
    1STR  H1V   3782  15.727   0.391  12.805
    1STR  H1W   3783  15.748   0.230  12.868
    1STR  H1X   3784  16.066   0.457  12.985
    1STR  H1Y   3785  16.256   0.550  13.023
    1STR  H1Z   3786  16.485   0.545  13.099
    1STR  H20   3787  16.647   0.299  13.275
    1STR  H21   3788  16.707   0.293  13.108
    1STR  H22   3789  16.670   0.447  13.184
    1STR  H23   3790  16.437  17.440  13.119
    1STR  H27   3791  16.230   0.122  13.062
    1STR  H28   3792  14.418   0.460  13.153
    1STR  H29   3793  14.181   0.487  13.166
    1STR  H2A   3794  13.932   0.257  13.046
    1STR  H2B   3795  13.967   0.420  13.099
    1STR  H2C   3796  13.937   0.295  13.219
    1STR  BCK1  3797  13.960   4.298   0.062
    1STR  O03   3798  13.896   4.376  17.433
    1STR  N04   3799  14.093   4.310   0.077
    1STR  C05   3800  14.185   4.219   0.133
    1STR  C06   3801  14.326   4.244   0.124
    1STR  C07   3802  14.424   4.150   0.169
    1STR  N08   3803  14.562   4.177   0.160
    1STR  C09   3804  14.668   4.103   0.200
    1STR  O0A   3805  14.660   3.992   0.251
    1STR  O0B   3806  14.788   4.163   0.177
    1STR  C0C   3807  14.910   4.095   0.212
    1STR  C0D   3808  14.950   3.997   0.100
    1STR  C0E   3809  15.023   4.196   0.242
    1STR  O0F   3810  15.143   4.127   0.282
    1STR  C0G   3811  15.255   4.211   0.312
    1STR  C0H   3812  15.238   4.272   0.452
    1STR  C0I   3813  15.385   4.127   0.304
    1STR  O0J   3814  15.501   4.210   0.321
    1STR  C0K   3815  15.628   4.145   0.311
    1STR  C0M   3816  15.661   4.117   0.164
    1STR  C0N   3817  15.736   4.237   0.373
    1STR  O0O   3818  15.864   4.173   0.381
    1STR  C0P   3819  15.972   4.217   0.313
    1STR  O0Q   3820  15.973   4.306   0.228
    1STR  N0R   3821  16.078   4.145   0.351
    1STR  C0S   3822  16.212   4.138   0.311
    1STR  C0T   3823  16.279   4.021   0.353
    1STR  C0U   3824  16.409   3.993   0.311
    1STR  C0V   3825  16.479   4.084   0.230
    1STR  C0W   3826  16.609   4.037   0.167
    1STR  C0X   3827  16.423   4.211   0.202
    1STR  N0Y   3828  16.502   4.311   0.143
    1STR  BCK2  3829  16.632   4.331   0.169
    1STR  O10   3830  16.699   4.416   0.111
    1STR  C13   3831  16.286   4.235   0.237
    1STR  C14   3832  14.375   4.028   0.221
    1STR  C15   3833  14.239   4.003   0.235
    1STR  C16   3834  14.143   4.097   0.194
    1STR  C17   3835  13.998   4.060   0.219
    1STR  H1B   3836  14.129   4.394   0.034
    1STR  H1C   3837  14.359   4.338   0.082
    1STR  H1D   3838  14.592   4.264   0.120
    1STR  H1E   3839  14.894   4.038   0.304
    1STR  H1F   3840  14.969   4.048   0.006
    1STR  H1G   3841  15.041   3.942   0.127
    1STR  H1H   3842  14.872   3.922   0.083
    1STR  H1I   3843  14.989   4.263   0.321
    1STR  H1J   3844  15.042   4.257   0.154
    1STR  H1K   3845  15.263   4.290   0.237
    1STR  H1M   3846  15.228   4.195   0.528
    1STR  H1N   3847  15.151   4.337   0.459
    1STR  H1O   3848  15.325   4.333   0.478
    1STR  H1P   3849  15.383   4.048   0.379
    1STR  H1Q   3850  15.387   4.077   0.207
    1STR  H1R   3851  15.626   4.052   0.367
    1STR  H1S   3852  15.759   4.069   0.155
    1STR  H1T   3853  15.666   4.210   0.107
    1STR  H1U   3854  15.589   4.052   0.115
    1STR  H1V   3855  15.706   4.262   0.475
    1STR  H1W   3856  15.742   4.332   0.320
    1STR  H1X   3857  16.048   4.079   0.420
    1STR  H1Y   3858  16.229   3.948   0.415
    1STR  H1Z   3859  16.455   3.899   0.339
    1STR  H20   3860  16.618   4.077   0.066
    1STR  H21   3861  16.695   4.068   0.225
    1STR  H22   3862  16.611   3.929   0.157
    1STR  H23   3863  16.460   4.378   0.081
    1STR  H27   3864  16.237   4.327   0.209
    1STR  H28   3865  14.440   3.949   0.254
    1STR  H29   3866  14.208   3.909   0.277
    1STR  H2A   3867  13.948   4.139   0.276
    1STR  H2B   3868  13.989   3.968   0.278
    1STR  H2C   3869  13.946   4.043   0.125
    1STR  BCK1  3870  13.978   4.313   4.359
    1STR  O03   3871  13.890   4.390   4.323
    1STR  N04   3872  14.107   4.307   4.317
    1STR  C05   3873  14.185   4.361   4.211
    1STR  C06   3874  14.328   4.355   4.222
    1STR  C07   3875  14.417   4.398   4.119
    1STR  N08   3876  14.558   4.386   4.133
    1STR  C09   3877  14.659   4.414   4.048
    1STR  O0A   3878  14.644   4.461   3.935
    1STR  O0B   3879  14.783   4.385   4.100
    1STR  C0C   3880  14.904   4.411   4.024
    1STR  C0D   3881  14.944   4.559   4.039
    1STR  C0E   3882  15.020   4.318   4.068
    1STR  O0F   3883  15.142   4.342   3.994
    1STR  C0G   3884  15.256   4.261   4.028
    1STR  C0H   3885  15.238   4.120   3.968
    1STR  C0I   3886  15.388   4.326   3.978
    1STR  O0J   3887  15.506   4.254   4.022
    1STR  C0K   3888  15.635   4.310   3.989
    1STR  C0M   3889  15.662   4.432   4.078
    1STR  C0N   3890  15.747   4.204   4.010
    1STR  O0O   3891  15.880   4.252   3.978
    1STR  C0P   3892  15.980   4.263   4.070
    1STR  O0Q   3893  15.968   4.249   4.191
    1STR  N0R   3894  16.095   4.291   4.007
    1STR  C0S   3895  16.229   4.318   4.043
    1STR  C0T   3896  16.310   4.357   3.935
    1STR  C0U   3897  16.443   4.396   3.955
    1STR  C0V   3898  16.501   4.397   4.084
    1STR  C0W   3899  16.638   4.460   4.094
    1STR  C0X   3900  16.427   4.348   4.195
    1STR  N0Y   3901  16.480   4.342   4.327
    1STR  BCK2  3902  16.604   4.327   4.382
    1STR  O10   3903  16.711   4.306   4.325
    1STR  C13   3904  16.289   4.313   4.173
    1STR  C14   3905  14.358   4.450   4.002
    1STR  C15   3906  14.219   4.457   3.988
    1STR  C16   3907  14.132   4.411   4.089
    1STR  C17   3908  13.984   4.415   4.056
    1STR  H1B   3909  14.161   4.252   4.381
    1STR  H1C   3910  14.371   4.317   4.313
    1STR  H1D   3911  14.593   4.350   4.220
    1STR  H1E   3912  14.884   4.391   3.918
    1STR  H1F   3913  14.964   4.585   4.143
    1STR  H1G   3914  15.034   4.581   3.982
    1STR  H1H   3915  14.865   4.625   4.002
    1STR  H1I   3916  14.988   4.214   4.054
    1STR  H1J   3917  15.039   4.331   4.175
    1STR  H1K   3918  15.263   4.253   4.137
    1STR  H1M   3919  15.228   4.125   3.859
    1STR  H1N   3920  15.151   4.068   4.007
    1STR  H1O   3921  15.325   4.058   3.990
    1STR  H1P   3922  15.387   4.334   3.869
    1STR  H1Q   3923  15.391   4.428   4.016
    1STR  H1R   3924  15.635   4.340   3.884
    1STR  H1S   3925  15.759   4.476   4.053
    1STR  H1T   3926  15.666   4.403   4.183
    1STR  H1U   3927  15.588   4.511   4.067
    1STR  H1V   3928  15.727   4.119   3.945
    1STR  H1W   3929  15.744   4.165   4.112
    1STR  H1X   3930  16.076   4.294   3.908
    1STR  H1Y   3931  16.272   4.360   3.834
    1STR  H1Z   3932  16.501   4.430   3.870
    1STR  H20   3933  16.647   4.519   4.185
    1STR  H21   3934  16.715   4.383   4.094
    1STR  H22   3935  16.658   4.527   4.011
    1STR  H23   3936  16.409   4.342   4.398
    1STR  H27   3937  16.227   4.281   4.255
    1STR  H28   3938  14.417   4.485   3.918
    1STR  H29   3939  14.179   4.496   3.895
    1STR  H2A   3940  13.934   4.324   4.088
    1STR  H2B   3941  13.967   4.425   3.949
    1STR  H2C   3942  13.937   4.501   4.105
    1STR  BCK1  3943  13.976   4.328   8.783
    1STR  O03   3944  13.929   4.279   8.885
    1STR  N04   3945  14.094   4.394   8.773
    1STR  C05   3946  14.182   4.444   8.871
    1STR  C06   3947  14.324   4.441   8.849
    1STR  C07   3948  14.418   4.493   8.943
    1STR  N08   3949  14.558   4.492   8.917
    1STR  C09   3950  14.662   4.530   8.995
    1STR  O0A   3951  14.652   4.571   9.110
    1STR  O0B   3952  14.783   4.518   8.932
    1STR  C0C   3953  14.906   4.549   9.003
    1STR  C0D   3954  14.947   4.429   9.091
    1STR  C0E   3955  15.020   4.588   8.906
    1STR  O0F   3956  15.141   4.621   8.977
    1STR  C0G   3957  15.254   4.657   8.896
    1STR  C0H   3958  15.238   4.802   8.847
    1STR  C0I   3959  15.385   4.642   8.978
    1STR  O0J   3960  15.502   4.666   8.897
    1STR  C0K   3961  15.630   4.648   8.959
    1STR  C0M   3962  15.661   4.499   8.977
    1STR  C0N   3963  15.740   4.714   8.872
    1STR  O0O   3964  15.869   4.710   8.935
    1STR  C0P   3965  15.973   4.636   8.888
    1STR  O0Q   3966  15.971   4.557   8.794
    1STR  N0R   3967  16.080   4.665   8.963
    1STR  C0S   3968  16.214   4.625   8.975
    1STR  C0T   3969  16.280   4.689   9.081
    1STR  C0U   3970  16.412   4.657   9.114
    1STR  C0V   3971  16.483   4.560   9.042
    1STR  C0W   3972  16.622   4.527   9.095
    1STR  C0X   3973  16.424   4.498   8.928
    1STR  N0Y   3974  16.497   4.408   8.847
    1STR  BCK2  3975  16.628   4.374   8.852
    1STR  O10   3976  16.680   4.299   8.770
    1STR  C13   3977  16.287   4.529   8.898
    1STR  C14   3978  14.365   4.547   9.063
    1STR  C15   3979  14.227   4.554   9.085
    1STR  C16   3980  14.135   4.507   8.989
    1STR  C17   3981  13.989   4.536   9.015
    1STR  H1B   3982  14.125   4.406   8.678
    1STR  H1C   3983  14.361   4.398   8.758
    1STR  H1D   3984  14.589   4.460   8.827
    1STR  H1E   3985  14.888   4.635   9.068
    1STR  H1F   3986  14.966   4.340   9.031
    1STR  H1G   3987  15.037   4.452   9.147
    1STR  H1H   3988  14.869   4.405   9.163
    1STR  H1I   3989  14.987   4.673   8.846
    1STR  H1J   3990  15.039   4.506   8.837
    1STR  H1K   3991  15.261   4.590   8.811
    1STR  H1M   3992  15.227   4.871   8.931
    1STR  H1N   3993  15.150   4.814   8.783
    1STR  H1O   3994  15.324   4.833   8.789
    1STR  H1P   3995  15.384   4.711   9.063
    1STR  H1Q   3996  15.388   4.541   9.020
    1STR  H1R   3997  15.629   4.697   9.057
    1STR  H1S   3998  15.757   4.485   9.025
    1STR  H1T   3999  15.665   4.449   8.880
    1STR  H1U   4000  15.587   4.447   9.038
    1STR  H1V   4001  15.715   4.819   8.858
    1STR  H1W   4002  15.743   4.670   8.772
    1STR  H1X   4003  16.050   4.734   9.029
    1STR  H1Y   4004  16.231   4.764   9.140
    1STR  H1Z   4005  16.458   4.707   9.198
    1STR  H20   4006  16.631   4.420   9.111
    1STR  H21   4007  16.698   4.561   9.025
    1STR  H22   4008  16.641   4.575   9.191
    1STR  H23   4009  16.450   4.365   8.769
    1STR  H27   4010  16.237   4.482   8.815
    1STR  H28   4011  14.428   4.587   9.141
    1STR  H29   4012  14.192   4.599   9.176
    1STR  H2A   4013  13.936   4.558   8.923
    1STR  H2B   4014  13.976   4.622   9.081
    1STR  H2C   4015  13.941   4.450   9.064
    1STR  BCK1  4016  13.971   4.304  13.134
    1STR  O03   4017  13.898   4.297  13.036
    1STR  N04   4018  14.103   4.273  13.138
    1STR  C05   4019  14.186   4.182  13.068
    1STR  C06   4020  14.328   4.200  13.076
    1STR  C07   4021  14.422   4.107  13.020
    1STR  N08   4022  14.562   4.126  13.034
    1STR  C09   4023  14.665   4.046  12.997
    1STR  O0A   4024  14.653   3.938  12.941
    1STR  O0B   4025  14.786   4.099  13.031
    1STR  C0C   4026  14.908   4.029  12.998
    1STR  C0D   4027  14.948   4.058  12.853
    1STR  C0E   4028  15.021   4.066  13.096
    1STR  O0F   4029  15.142   3.993  13.066
    1STR  C0G   4030  15.255   4.021  13.151
    1STR  C0H   4031  15.238   3.948  13.285
    1STR  C0I   4032  15.385   3.976  13.079
    1STR  O0J   4033  15.501   4.013  13.156
    1STR  C0K   4034  15.629   3.983  13.098
    1STR  C0M   4035  15.661   4.083  12.986
    1STR  C0N   4036  15.737   3.990  13.209
    1STR  O0O   4037  15.867   3.950  13.162
    1STR  C0P   4038  15.973   4.034  13.160
    1STR  O0Q   4039  15.971   4.154  13.185
    1STR  N0R   4040  16.082   3.964  13.127
    1STR  C0S   4041  16.217   3.997  13.104
    1STR  C0T   4042  16.291   3.897  13.037
    1STR  C0U   4043  16.424   3.919  12.998
    1STR  C0V   4044  16.488   4.040  13.029
    1STR  C0W   4045  16.624   4.066  12.965
    1STR  C0X   4046  16.423   4.137  13.109
    1STR  N0Y   4047  16.493   4.250  13.153
    1STR  BCK2  4048  16.620   4.252  13.196
    1STR  O10   4049  16.678   4.356  13.226
    1STR  C13   4050  16.285   4.117  13.141
    1STR  C14   4051  14.368   3.996  12.951
    1STR  C15   4052  14.230   3.977  12.942
    1STR  C16   4053  14.139   4.067  13.000
    1STR  C17   4054  13.992   4.030  12.988
    1STR  H1B   4055  14.152   4.331  13.204
    1STR  H1C   4056  14.367   4.286  13.128
    1STR  H1D   4057  14.594   4.210  13.078
    1STR  H1E   4058  14.890   3.921  13.008
    1STR  H1F   4059  14.967   4.164  12.837
    1STR  H1G   4060  15.038   4.004  12.826
    1STR  H1H   4061  14.870   4.027  12.783
    1STR  H1I   4062  14.988   4.044  13.198
    1STR  H1J   4063  15.040   4.173  13.091
    1STR  H1K   4064  15.262   4.129  13.168
    1STR  H1M   4065  15.228   3.841  13.270
    1STR  H1N   4066  15.150   3.983  13.340
    1STR  H1O   4067  15.324   3.965  13.349
    1STR  H1P   4068  15.383   3.869  13.063
    1STR  H1Q   4069  15.388   4.023  12.981
    1STR  H1R   4070  15.627   3.881  13.058
    1STR  H1S   4071  15.759   4.061  12.942
    1STR  H1T   4072  15.666   4.185  13.026
    1STR  H1U   4073  15.589   4.081  12.906
    1STR  H1V   4074  15.710   3.921  13.289
    1STR  H1W   4075  15.740   4.089  13.254
    1STR  H1X   4076  16.056   3.869  13.112
    1STR  H1Y   4077  16.245   3.803  13.011
    1STR  H1Z   4078  16.475   3.843  12.942
    1STR  H20   4079  16.625   4.167  12.923
    1STR  H21   4080  16.705   4.057  13.037
    1STR  H22   4081  16.644   3.997  12.883
    1STR  H23   4082  16.444   4.338  13.160
    1STR  H27   4083  16.230   4.192  13.196
    1STR  H28   4084  14.429   3.921  12.905
    1STR  H29   4085  14.194   3.890  12.890
    1STR  H2A   4086  13.943   4.038  13.085
    1STR  H2B   4087  13.979   3.927  12.954
    1STR  H2C   4088  13.943   4.094  12.915
    1STR  BCK1  4089  13.976   8.713   0.016
    1STR  O03   4090  13.895   8.796   0.054
    1STR  N04   4091  14.103   8.735  17.409
    1STR  C05   4092  14.182   8.847  17.373
    1STR  C06   4093  14.325   8.833  17.372
    1STR  C07   4094  14.415   8.937  17.331
    1STR  N08   4095  14.556   8.917  17.328
    1STR  C09   4096  14.658   9.001  17.296
    1STR  O0A   4097  14.643   9.119  17.265
    1STR  O0B   4098  14.781   8.941  17.302
    1STR  C0C   4099  14.903   9.017  17.276
    1STR  C0D   4100  14.943   9.095  17.402
    1STR  C0E   4101  15.020   8.925  17.229
    1STR  O0F   4102  15.142   8.999  17.203
    1STR  C0G   4103  15.256   8.922  17.159
    1STR  C0H   4104  15.238   8.886  17.011
    1STR  C0I   4105  15.388   9.002  17.181
    1STR  O0J   4106  15.506   8.924  17.150
    1STR  C0K   4107  15.635   8.984  17.176
    1STR  C0M   4108  15.662   8.988  17.327
    1STR  C0N   4109  15.750   8.904  17.106
    1STR  O0O   4110  15.881   8.961  17.126
    1STR  C0P   4111  15.981   8.898  17.197
    1STR  O0Q   4112  15.969   8.796  17.263
    1STR  N0R   4113  16.095   8.968  17.182
    1STR  C0S   4114  16.228   8.962  17.228
    1STR  C0T   4115  16.309   9.065  17.178
    1STR  C0U   4116  16.442   9.079  17.219
    1STR  C0V   4117  16.500   8.991  17.312
    1STR  C0W   4118  16.640   9.027  17.358
    1STR  C0X   4119  16.426   8.881  17.363
    1STR  N0Y   4120  16.478   8.789   0.019
    1STR  BCK2  4121  16.601   8.747   0.060
    1STR  O10   4122  16.710   8.766   0.006
    1STR  C13   4123  16.288   8.869  17.320
    1STR  C14   4124  14.356   9.059  17.293
    1STR  C15   4125  14.217   9.076  17.291
    1STR  C16   4126  14.130   8.971  17.328
    1STR  C17   4127  13.982   8.998  17.309
    1STR  H1B   4128  14.153   8.648  17.403
    1STR  H1C   4129  14.368   8.739  17.403
    1STR  H1D   4130  14.591   8.826  17.352
    1STR  H1E   4131  14.883   9.089  17.196
    1STR  H1F   4132  14.963   9.028   0.046
    1STR  H1G   4133  15.033   9.154  17.384
    1STR  H1H   4134  14.865   9.165  17.433
    1STR  H1I   4135  14.988   8.874  17.138
    1STR  H1J   4136  15.039   8.849  17.304
    1STR  H1K   4137  15.263   8.831  17.219
    1STR  H1M   4138  15.228   8.975  16.949
    1STR  H1N   4139  15.151   8.823  16.994
    1STR  H1O   4140  15.325   8.830  16.975
    1STR  H1P   4141  15.387   9.093  17.121
    1STR  H1Q   4142  15.391   9.034  17.285
    1STR  H1R   4143  15.635   9.086  17.135
    1STR  H1S   4144  15.759   9.035  17.347
    1STR  H1T   4145  15.665   8.887  17.368
    1STR  H1U   4146  15.587   9.045  17.382
    1STR  H1V   4147  15.731   8.904  16.999
    1STR  H1W   4148  15.748   8.799  17.137
    1STR  H1X   4149  16.075   9.044  17.119
    1STR  H1Y   4150  16.271   9.137  17.107
    1STR  H1Z   4151  16.500   9.162  17.180
    1STR  H20   4152  16.651   9.013   0.026
    1STR  H21   4153  16.713   8.964  17.306
    1STR  H22   4154  16.665   9.130  17.337
    1STR  H23   4155  16.405   8.741   0.069
    1STR  H27   4156  16.226   8.789  17.357
    1STR  H28   4157  14.415   9.144  17.262
    1STR  H29   4158  14.177   9.170  17.259
    1STR  H2A   4159  13.931   8.910  17.268
    1STR  H2B   4160  13.965   9.080  17.239
    1STR  H2C   4161  13.936   9.025  17.404
    1STR  BCK1  4162  13.967   8.657   4.426
    1STR  O03   4163  13.910   8.672   4.319
    1STR  N04   4164  14.093   8.702   4.445
    1STR  C05   4165  14.184   8.664   4.545
    1STR  C06   4166  14.325   8.682   4.524
    1STR  C07   4167  14.423   8.631   4.615
    1STR  N08   4168  14.561   8.650   4.593
    1STR  C09   4169  14.667   8.609   4.666
    1STR  O0A   4170  14.659   8.543   4.770
    1STR  O0B   4171  14.787   8.648   4.614
    1STR  C0C   4172  14.909   8.611   4.681
    1STR  C0D   4173  14.949   8.468   4.640
    1STR  C0E   4174  15.023   8.712   4.652
    1STR  O0F   4175  15.142   8.675   4.723
    1STR  C0G   4176  15.255   8.762   4.703
    1STR  C0H   4177  15.238   8.889   4.788
    1STR  C0I   4178  15.385   8.687   4.741
    1STR  O0J   4179  15.501   8.766   4.710
    1STR  C0K   4180  15.629   8.707   4.736
    1STR  C0M   4181  15.662   8.603   4.628
    1STR  C0N   4182  15.737   8.818   4.738
    1STR  O0O   4183  15.865   8.769   4.779
    1STR  C0P   4184  15.973   8.766   4.696
    1STR  O0Q   4185  15.974   8.793   4.577
    1STR  N0R   4186  16.078   8.727   4.769
    1STR  C0S   4187  16.211   8.693   4.743
    1STR  C0T   4188  16.273   8.622   4.848
    1STR  C0U   4189  16.401   8.568   4.833
    1STR  C0V   4190  16.474   8.588   4.715
    1STR  C0W   4191  16.600   8.505   4.696
    1STR  C0X   4192  16.424   8.677   4.615
    1STR  N0Y   4193  16.508   8.718   4.510
    1STR  BCK2  4194  16.641   8.734   4.517
    1STR  O10   4195  16.709   8.767   4.420
    1STR  C13   4196  16.289   8.723   4.627
    1STR  C14   4197  14.374   8.559   4.727
    1STR  C15   4198  14.237   8.546   4.752
    1STR  C16   4199  14.142   8.600   4.665
    1STR  C17   4200  13.997   8.586   4.707
    1STR  H1B   4201  14.126   8.757   4.367
    1STR  H1C   4202  14.358   8.734   4.436
    1STR  H1D   4203  14.590   8.701   4.511
    1STR  H1E   4204  14.893   8.612   4.789
    1STR  H1F   4205  14.968   8.461   4.532
    1STR  H1G   4206  15.040   8.436   4.692
    1STR  H1H   4207  14.872   8.396   4.665
    1STR  H1I   4208  14.989   8.811   4.683
    1STR  H1J   4209  15.042   8.716   4.545
    1STR  H1K   4210  15.262   8.789   4.598
    1STR  H1M   4211  15.228   8.864   4.894
    1STR  H1N   4212  15.151   8.947   4.759
    1STR  H1O   4213  15.325   8.954   4.778
    1STR  H1P   4214  15.384   8.661   4.847
    1STR  H1Q   4215  15.388   8.592   4.687
    1STR  H1R   4216  15.627   8.658   4.834
    1STR  H1S   4217  15.759   8.557   4.646
    1STR  H1T   4218  15.666   8.650   4.529
    1STR  H1U   4219  15.589   8.522   4.623
    1STR  H1V   4220  15.707   8.894   4.811
    1STR  H1W   4221  15.742   8.869   4.642
    1STR  H1X   4222  16.047   8.713   4.863
    1STR  H1Y   4223  16.220   8.603   4.940
    1STR  H1Z   4224  16.442   8.507   4.912
    1STR  H20   4225  16.616   8.482   4.591
    1STR  H21   4226  16.687   8.557   4.736
    1STR  H22   4227  16.591   8.410   4.748
    1STR  H23   4228  16.467   8.747   4.422
    1STR  H27   4229  16.244   8.783   4.549
    1STR  H28   4230  14.439   8.513   4.799
    1STR  H29   4231  14.206   8.492   4.840
    1STR  H2A   4232  13.945   8.682   4.696
    1STR  H2B   4233  13.988   8.557   4.811
    1STR  H2C   4234  13.947   8.510   4.647
    1STR  BCK1  4235  13.977   8.655   8.737
    1STR  O03   4236  13.891   8.707   8.668
    1STR  N04   4237  14.108   8.633   8.706
    1STR  C05   4238  14.186   8.628   8.588
    1STR  C06   4239  14.329   8.632   8.602
    1STR  C07   4240  14.419   8.618   8.492
    1STR  N08   4241  14.560   8.617   8.512
    1STR  C09   4242  14.661   8.596   8.425
    1STR  O0A   4243  14.647   8.575   8.305
    1STR  O0B   4244  14.784   8.600   8.485
    1STR  C0C   4245  14.905   8.583   8.408
    1STR  C0D   4246  14.945   8.716   8.342
    1STR  C0E   4247  15.021   8.528   8.496
    1STR  O0F   4248  15.142   8.508   8.421
    1STR  C0G   4249  15.256   8.458   8.494
    1STR  C0H   4250  15.238   8.307   8.517
    1STR  C0I   4251  15.387   8.487   8.416
    1STR  O0J   4252  15.504   8.449   8.491
    1STR  C0K   4253  15.633   8.478   8.433
    1STR  C0M   4254  15.662   8.628   8.443
    1STR  C0N   4255  15.744   8.398   8.507
    1STR  O0O   4256  15.876   8.417   8.452
    1STR  C0P   4257  15.979   8.472   8.524
    1STR  O0Q   4258  15.969   8.524   8.634
    1STR  N0R   4259  16.092   8.459   8.454
    1STR  C0S   4260  16.226   8.499   8.470
    1STR  C0T   4261  16.306   8.483   8.355
    1STR  C0U   4262  16.439   8.528   8.353
    1STR  C0V   4263  16.498   8.587   8.467
    1STR  C0W   4264  16.634   8.650   8.446
    1STR  C0X   4265  16.426   8.592   8.590
    1STR  N0Y   4266  16.482   8.641   8.711
    1STR  BCK2  4267  16.607   8.647   8.764
    1STR  O10   4268  16.711   8.602   8.719
    1STR  C13   4269  16.288   8.552   8.588
    1STR  C14   4270  14.361   8.603   8.364
    1STR  C15   4271  14.222   8.600   8.348
    1STR  C16   4272  14.134   8.610   8.457
    1STR  C17   4273  13.987   8.596   8.425
    1STR  H1B   4274  14.161   8.619   8.790
    1STR  H1C   4275  14.371   8.645   8.700
    1STR  H1D   4276  14.594   8.633   8.605
    1STR  H1E   4277  14.887   8.509   8.329
    1STR  H1F   4278  14.965   8.793   8.416
    1STR  H1G   4279  15.035   8.704   8.282
    1STR  H1H   4280  14.867   8.752   8.275
    1STR  H1I   4281  14.988   8.433   8.540
    1STR  H1J   4282  15.040   8.596   8.579
    1STR  H1K   4283  15.262   8.510   8.589
    1STR  H1M   4284  15.228   8.253   8.423
    1STR  H1N   4285  15.151   8.284   8.579
    1STR  H1O   4286  15.325   8.266   8.570
    1STR  H1P   4287  15.386   8.434   8.320
    1STR  H1Q   4288  15.390   8.593   8.393
    1STR  H1R   4289  15.632   8.447   8.328
    1STR  H1S   4290  15.759   8.651   8.399
    1STR  H1T   4291  15.666   8.659   8.548
    1STR  H1U   4292  15.589   8.689   8.392
    1STR  H1V   4293  15.722   8.291   8.499
    1STR  H1W   4294  15.742   8.420   8.614
    1STR  H1X   4295  16.071   8.412   8.368
    1STR  H1Y   4296  16.266   8.441   8.265
    1STR  H1Z   4297  16.495   8.519   8.262
    1STR  H20   4298  16.642   8.744   8.501
    1STR  H21   4299  16.714   8.583   8.477
    1STR  H22   4300  16.651   8.674   8.341
    1STR  H23   4301  16.412   8.673   8.776
    1STR  H27   4302  16.228   8.561   8.677
    1STR  H28   4303  14.421   8.592   8.275
    1STR  H29   4304  14.183   8.586   8.248
    1STR  H2A   4305  13.937   8.532   8.497
    1STR  H2B   4306  13.971   8.553   8.327
    1STR  H2C   4307  13.940   8.695   8.425
    1STR  BCK1  4308  13.976   8.708  13.136
    1STR  O03   4309  13.912   8.729  13.239
    1STR  N04   4310  14.098   8.759  13.104
    1STR  C05   4311  14.182   8.858  13.161
    1STR  C06   4312  14.324   8.847  13.145
    1STR  C07   4313  14.417   8.945  13.195
    1STR  N08   4314  14.557   8.933  13.174
    1STR  C09   4315  14.660   9.008  13.219
    1STR  O0A   4316  14.648   9.104  13.295
    1STR  O0B   4317  14.782   8.966  13.173
    1STR  C0C   4318  14.904   9.031  13.217
    1STR  C0D   4319  14.945   8.978  13.355
    1STR  C0E   4320  15.020   9.012  13.114
    1STR  O0F   4321  15.141   9.078  13.157
    1STR  C0G   4322  15.255   9.066  13.069
    1STR  C0H   4323  15.238   9.161  12.950
    1STR  C0I   4324  15.387   9.097  13.146
    1STR  O0J   4325  15.504   9.074  13.065
    1STR  C0K   4326  15.632   9.091  13.128
    1STR  C0M   4327  15.661   8.974  13.223
    1STR  C0N   4328  15.745   9.099  13.022
    1STR  O0O   4329  15.875   9.125  13.078
    1STR  C0P   4330  15.977   9.034  13.078
    1STR  O0Q   4331  15.971   8.918  13.040
    1STR  N0R   4332  16.086   9.095  13.127
    1STR  C0S   4333  16.220   9.062  13.157
    1STR  C0T   4334  16.293   9.172  13.206
    1STR  C0U   4335  16.425   9.158  13.248
    1STR  C0V   4336  16.491   9.034  13.241
    1STR  C0W   4337  16.634   9.032  13.294
    1STR  C0X   4338  16.425   8.920  13.187
    1STR  N0Y   4339  16.491   8.796  13.171
    1STR  BCK2  4340  16.617   8.760  13.204
    1STR  O10   4341  16.663   8.650  13.175
    1STR  C13   4342  16.287   8.936  13.147
    1STR  C14   4343  14.361   9.054  13.265
    1STR  C15   4344  14.222   9.069  13.279
    1STR  C16   4345  14.132   8.975  13.225
    1STR  C17   4346  13.985   9.010  13.232
    1STR  H1B   4347  14.138   8.712  13.025
    1STR  H1C   4348  14.364   8.762  13.092
    1STR  H1D   4349  14.589   8.858  13.116
    1STR  H1E   4350  14.885   9.138  13.225
    1STR  H1F   4351  14.964   8.870  13.353
    1STR  H1G   4352  15.035   9.027  13.391
    1STR  H1H   4353  14.867   8.996  13.429
    1STR  H1I   4354  14.987   9.052  13.018
    1STR  H1J   4355  15.039   8.906  13.100
    1STR  H1K   4356  15.262   8.963  13.033
    1STR  H1M   4357  15.228   9.264  12.983
    1STR  H1N   4358  15.151   9.137  12.889
    1STR  H1O   4359  15.325   9.156  12.884
    1STR  H1P   4360  15.385   9.200  13.182
    1STR  H1Q   4361  15.389   9.034  13.235
    1STR  H1R   4362  15.632   9.185  13.185
    1STR  H1S   4363  15.758   8.987  13.272
    1STR  H1T   4364  15.665   8.880  13.168
    1STR  H1U   4365  15.587   8.964  13.302
    1STR  H1V   4366  15.723   9.182  12.954
    1STR  H1W   4367  15.747   9.010  12.959
    1STR  H1X   4368  16.060   9.190  13.146
    1STR  H1Y   4369  16.248   9.269  13.214
    1STR  H1Z   4370  16.477   9.245  13.287
    1STR  H20   4371  16.643   8.958  13.374
    1STR  H21   4372  16.704   9.007  13.214
    1STR  H22   4373  16.664   9.128  13.335
    1STR  H23   4374  16.441   8.722  13.125
    1STR  H27   4375  16.231   8.852  13.107
    1STR  H28   4376  14.422   9.132  13.308
    1STR  H29   4377  14.185   9.156  13.330
    1STR  H2A   4378  13.933   8.979  13.141
    1STR  H2B   4379  13.970   9.117  13.242
    1STR  H2C   4380  13.939   8.962  13.318
    1STR  BCK1  4381  13.962  13.011   0.063
    1STR  O03   4382  13.896  13.099  17.450
    1STR  N04   4383  14.096  13.015   0.069
    1STR  C05   4384  14.186  12.908   0.085
    1STR  C06   4385  14.327  12.933   0.084
    1STR  C07   4386  14.424  12.828   0.089
    1STR  N08   4387  14.563  12.854   0.089
    1STR  C09   4388  14.668  12.770   0.100
    1STR  O0A   4389  14.659  12.648   0.110
    1STR  O0B   4390  14.788  12.834   0.099
    1STR  C0C   4391  14.910  12.757   0.109
    1STR  C0D   4392  14.950  12.704  17.410
    1STR  C0E   4393  15.023  12.842   0.171
    1STR  O0F   4394  15.142  12.764   0.185
    1STR  C0G   4395  15.255  12.832   0.242
    1STR  C0H   4396  15.238  12.842   0.394
    1STR  C0I   4397  15.385  12.756   0.206
    1STR  O0J   4398  15.501  12.829   0.250
    1STR  C0K   4399  15.628  12.771   0.218
    1STR  C0M   4400  15.661  12.796   0.070
    1STR  C0N   4401  15.736  12.836   0.309
    1STR  O0O   4402  15.864  12.774   0.293
    1STR  C0P   4403  15.972  12.841   0.245
    1STR  O0Q   4404  15.972  12.954   0.198
    1STR  N0R   4405  16.079  12.761   0.255
    1STR  C0S   4406  16.213  12.771   0.217
    1STR  C0T   4407  16.283  12.649   0.214
    1STR  C0U   4408  16.415  12.642   0.167
    1STR  C0V   4409  16.482  12.758   0.127
    1STR  C0W   4410  16.616  12.741   0.055
    1STR  C0X   4411  16.422  12.885   0.145
    1STR  N0Y   4412  16.497  13.002   0.124
    1STR  BCK2  4413  16.626  13.017   0.160
    1STR  O10   4414  16.690  13.119   0.135
    1STR  C13   4415  16.284  12.890   0.183
    1STR  C14   4416  14.374  12.696   0.092
    1STR  C15   4417  14.237  12.669   0.096
    1STR  C16   4418  14.143  12.773   0.095
    1STR  C17   4419  13.997  12.730   0.101
    1STR  H1B   4420  14.133  13.106   0.047
    1STR  H1C   4421  14.362  13.035   0.078
    1STR  H1D   4422  14.593  12.950   0.081
    1STR  H1E   4423  14.893  12.672   0.175
    1STR  H1F   4424  14.968  12.785  17.339
    1STR  H1G   4425  15.040  12.643  17.416
    1STR  H1H   4426  14.872  12.640  17.368
    1STR  H1I   4427  14.989  12.877   0.269
    1STR  H1J   4428  15.042  12.930   0.110
    1STR  H1K   4429  15.262  12.932   0.199
    1STR  H1M   4430  15.228  12.744   0.440
    1STR  H1N   4431  15.151  12.901   0.423
    1STR  H1O   4432  15.325  12.891   0.440
    1STR  H1P   4433  15.383  12.656   0.249
    1STR  H1Q   4434  15.387  12.743   0.097
    1STR  H1R   4435  15.626  12.664   0.239
    1STR  H1S   4436  15.759  12.753   0.045
    1STR  H1T   4437  15.666  12.903   0.049
    1STR  H1U   4438  15.589  12.751   0.003
    1STR  H1V   4439  15.707  12.823   0.413
    1STR  H1W   4440  15.741  12.944   0.292
    1STR  H1X   4441  16.050  12.674   0.296
    1STR  H1Y   4442  16.235  12.557   0.244
    1STR  H1Z   4443  16.463  12.546   0.160
    1STR  H20   4444  16.621  12.810  17.410
    1STR  H21   4445  16.700  12.760   0.121
    1STR  H22   4446  16.627  12.641   0.014
    1STR  H23   4447  16.453  13.084   0.086
    1STR  H27   4448  16.233  12.985   0.190
    1STR  H28   4449  14.438  12.609   0.093
    1STR  H29   4450  14.205  12.566   0.100
    1STR  H2A   4451  13.948  12.777   0.187
    1STR  H2B   4452  13.986  12.623   0.114
    1STR  H2C   4453  13.946  12.757   0.009
    1STR  BCK1  4454  13.977  13.050   4.358
    1STR  O03   4455  13.890  13.136   4.348
    1STR  N04   4456  14.106  13.055   4.313
    1STR  C05   4457  14.184  13.138   4.228
    1STR  C06   4458  14.327  13.128   4.235
    1STR  C07   4459  14.416  13.200   4.150
    1STR  N08   4460  14.557  13.183   4.158
    1STR  C09   4461  14.658  13.238   4.087
    1STR  O0A   4462  14.643  13.321   3.997
    1STR  O0B   4463  14.782  13.192   4.125
    1STR  C0C   4464  14.903  13.243   4.062
    1STR  C0D   4465  14.943  13.376   4.127
    1STR  C0E   4466  15.020  13.140   4.071
    1STR  O0F   4467  15.142  13.188   4.010
    1STR  C0G   4468  15.256  13.100   4.014
    1STR  C0H   4469  15.239  12.989   3.909
    1STR  C0I   4470  15.388  13.179   3.990
    1STR  O0J   4471  15.506  13.096   4.006
    1STR  C0K   4472  15.635  13.161   3.995
    1STR  C0M   4473  15.662  13.245   4.120
    1STR  C0N   4474  15.749  13.055   3.979
    1STR  O0O   4475  15.881  13.112   3.966
    1STR  C0P   4476  15.981  13.092   4.058
    1STR  O0Q   4477  15.968  13.039   4.168
    1STR  N0R   4478  16.096  13.141   4.009
    1STR  C0S   4479  16.229  13.157   4.053
    1STR  C0T   4480  16.311  13.224   3.961
    1STR  C0U   4481  16.444  13.256   3.992
    1STR  C0V   4482  16.501  13.221   4.115
    1STR  C0W   4483  16.640  13.276   4.143
    1STR  C0X   4484  16.427  13.143   4.209
    1STR  N0Y   4485  16.479  13.102   4.335
    1STR  BCK2  4486  16.603  13.076   4.387
    1STR  O10   4487  16.711  13.071   4.328
    1STR  C13   4488  16.289  13.115   4.177
    1STR  C14   4489  14.357  13.287   4.055
    1STR  C15   4490  14.217  13.298   4.045
    1STR  C16   4491  14.130  13.224   4.127
    1STR  C17   4492  13.982  13.238   4.098
    1STR  H1B   4493  14.159  12.981   4.354
    1STR  H1C   4494  14.370  13.062   4.309
    1STR  H1D   4495  14.593  13.119   4.227
    1STR  H1E   4496  14.883  13.260   3.956
    1STR  H1F   4497  14.963  13.365   4.233
    1STR  H1G   4498  15.033  13.417   4.080
    1STR  H1H   4499  14.865  13.451   4.115
    1STR  H1I   4500  14.988  13.048   4.023
    1STR  H1J   4501  15.039  13.116   4.176
    1STR  H1K   4502  15.263  13.056   4.114
    1STR  H1M   4503  15.228  13.031   3.809
    1STR  H1N   4504  15.151  12.927   3.929
    1STR  H1O   4505  15.325  12.923   3.908
    1STR  H1P   4506  15.387  13.223   3.890
    1STR  H1Q   4507  15.391  13.262   4.060
    1STR  H1R   4508  15.635  13.225   3.906
    1STR  H1S   4509  15.759  13.295   4.113
    1STR  H1T   4510  15.665  13.182   4.209
    1STR  H1U   4511  15.588  13.323   4.136
    1STR  H1V   4512  15.730  12.997   3.889
    1STR  H1W   4513  15.746  12.983   4.061
    1STR  H1X   4514  16.077  13.176   3.917
    1STR  H1Y   4515  16.273  13.256   3.865
    1STR  H1Z   4516  16.502  13.312   3.920
    1STR  H20   4517  16.649  13.309   4.246
    1STR  H21   4518  16.715  13.201   4.121
    1STR  H22   4519  16.661  13.363   4.080
    1STR  H23   4520  16.407  13.082   4.402
    1STR  H27   4521  16.227  13.061   4.246
    1STR  H28   4522  14.415  13.346   3.987
    1STR  H29   4523  14.177  13.364   3.970
    1STR  H2A   4524  13.933  13.141   4.102
    1STR  H2B   4525  13.965  13.278   3.999
    1STR  H2C   4526  13.936  13.305   4.170
    1STR  BCK1  4527  13.975  13.038   8.778
    1STR  O03   4528  13.936  12.950   8.854
    1STR  N04   4529  14.092  13.105   8.789
    1STR  C05   4530  14.183  13.115   8.897
    1STR  C06   4531  14.324  13.119   8.873
    1STR  C07   4532  14.420  13.131   8.978
    1STR  N08   4533  14.559  13.139   8.952
    1STR  C09   4534  14.664  13.147   9.037
    1STR  O0A   4535  14.655  13.146   9.160
    1STR  O0B   4536  14.784  13.155   8.973
    1STR  C0C   4537  14.907  13.160   9.050
    1STR  C0D   4538  14.948  13.018   9.092
    1STR  C0E   4539  15.021  13.230   8.972
    1STR  O0F   4540  15.141  13.237   9.050
    1STR  C0G   4541  15.254  13.299   8.987
    1STR  C0H   4542  15.237  13.452   8.991
    1STR  C0I   4543  15.385  13.256   9.059
    1STR  O0J   4544  15.501  13.306   8.990
    1STR  C0K   4545  15.629  13.269   9.043
    1STR  C0M   4546  15.661  13.123   9.008
    1STR  C0N   4547  15.738  13.362   8.983
    1STR  O0O   4548  15.867  13.340   9.042
    1STR  C0P   4549  15.972  13.288   8.973
    1STR  O0Q   4550  15.971  13.245   8.858
    1STR  N0R   4551  16.077  13.292   9.055
    1STR  C0S   4552  16.211  13.251   9.054
    1STR  C0T   4553  16.273  13.268   9.179
    1STR  C0U   4554  16.404  13.222   9.202
    1STR  C0V   4555  16.478  13.162   9.099
    1STR  C0W   4556  16.611  13.102   9.141
    1STR  C0X   4557  16.425  13.155   8.967
    1STR  N0Y   4558  16.503  13.109   8.859
    1STR  BCK2  4559  16.637  13.095   8.853
    1STR  O10   4560  16.695  13.058   8.751
    1STR  C13   4561  16.288  13.196   8.947
    1STR  C14   4562  14.368  13.138   9.110
    1STR  C15   4563  14.231  13.138   9.135
    1STR  C16   4564  14.137  13.131   9.030
    1STR  C17   4565  13.991  13.149   9.067
    1STR  H1B   4566  14.119  13.154   8.705
    1STR  H1C   4567  14.359  13.112   8.771
    1STR  H1D   4568  14.589  13.138   8.856
    1STR  H1E   4569  14.889  13.219   9.141
    1STR  H1F   4570  14.967  12.954   9.005
    1STR  H1G   4571  15.038  13.019   9.153
    1STR  H1H   4572  14.870  12.970   9.152
    1STR  H1I   4573  14.988  13.330   8.945
    1STR  H1J   4574  15.040  13.176   8.879
    1STR  H1K   4575  15.261  13.265   8.884
    1STR  H1M   4576  15.227  13.488   9.093
    1STR  H1N   4577  15.150  13.485   8.935
    1STR  H1O   4578  15.324  13.501   8.947
    1STR  H1P   4579  15.384  13.292   9.163
    1STR  H1Q   4580  15.387  13.147   9.064
    1STR  H1R   4581  15.628  13.282   9.152
    1STR  H1S   4582  15.758  13.094   9.049
    1STR  H1T   4583  15.665  13.110   8.900
    1STR  H1U   4584  15.587  13.053   9.048
    1STR  H1V   4585  15.710  13.466   9.005
    1STR  H1W   4586  15.741  13.355   8.875
    1STR  H1X   4587  16.046  13.334   9.140
    1STR  H1Y   4588  16.221  13.313   9.262
    1STR  H1Z   4589  16.446  13.232   9.300
    1STR  H20   4590  16.622  13.002   9.097
    1STR  H21   4591  16.693  13.166   9.109
    1STR  H22   4592  16.618  13.089   9.249
    1STR  H23   4593  16.458  13.091   8.771
    1STR  H27   4594  16.242  13.187   8.850
    1STR  H28   4595  14.431  13.145   9.197
    1STR  H29   4596  14.196  13.147   9.237
    1STR  H2A   4597  13.938  13.206   8.991
    1STR  H2B   4598  13.980  13.202   9.161
    1STR  H2C   4599  13.943  13.052   9.078
    1STR  BCK1  4600  13.974  13.017  13.122
    1STR  O03   4601  13.895  13.034  13.030
    1STR  N04   4602  14.106  12.984  13.111
    1STR  C05   4603  14.187  12.922  13.013
    1STR  C06   4604  14.329  12.934  13.025
    1STR  C07   4605  14.421  12.866  12.939
    1STR  N08   4606  14.561  12.878  12.958
    1STR  C09   4607  14.664  12.815  12.896
    1STR  O0A   4608  14.651  12.732  12.806
    1STR  O0B   4609  14.785  12.852  12.945
    1STR  C0C   4610  14.907  12.797  12.890
    1STR  C0D   4611  14.947  12.874  12.763
    1STR  C0E   4612  15.021  12.798  12.994
    1STR  O0F   4613  15.142  12.740  12.941
    1STR  C0G   4614  15.255  12.737  13.030
    1STR  C0H   4615  15.238  12.623  13.131
    1STR  C0I   4616  15.385  12.720  12.948
    1STR  O0J   4617  15.502  12.728  13.033
    1STR  C0K   4618  15.630  12.720  12.968
    1STR  C0M   4619  15.662  12.852  12.897
    1STR  C0N   4620  15.739  12.690  13.074
    1STR  O0O   4621  15.870  12.671  13.017
    1STR  C0P   4622  15.975  12.752  13.046
    1STR  O0Q   4623  15.970  12.856  13.111
    1STR  N0R   4624  16.086  12.700  12.992
    1STR  C0S   4625  16.220  12.740  12.983
    1STR  C0T   4626  16.296  12.668  12.889
    1STR  C0U   4627  16.429  12.702  12.862
    1STR  C0V   4628  16.492  12.807  12.931
    1STR  C0W   4629  16.628  12.853  12.881
    1STR  C0X   4630  16.424  12.873  13.037
    1STR  N0Y   4631  16.492  12.969  13.115
    1STR  BCK2  4632  16.620  12.963  13.156
    1STR  O10   4633  16.676  13.055  13.214
    1STR  C13   4634  16.286  12.842  13.059
    1STR  C14   4635  14.365  12.786  12.838
    1STR  C15   4636  14.227  12.772  12.824
    1STR  C16   4637  14.137  12.837  12.910
    1STR  C17   4638  13.990  12.807  12.888
    1STR  H1B   4639  14.156  13.015  13.192
    1STR  H1C   4640  14.369  12.998  13.102
    1STR  H1D   4641  14.594  12.941  13.028
    1STR  H1E   4642  14.889  12.692  12.862
    1STR  H1F   4643  14.966  12.979  12.784
    1STR  H1G   4644  15.037  12.832  12.719
    1STR  H1H   4645  14.869  12.868  12.687
    1STR  H1I   4646  14.988  12.742  13.082
    1STR  H1J   4647  15.040  12.900  13.027
    1STR  H1K   4648  15.262  12.833  13.083
    1STR  H1M   4649  15.228  12.527  13.081
    1STR  H1N   4650  15.151  12.636  13.195
    1STR  H1O   4651  15.324  12.617  13.197
    1STR  H1P   4652  15.384  12.624  12.895
    1STR  H1Q   4653  15.388  12.797  12.872
    1STR  H1R   4654  15.629  12.638  12.895
    1STR  H1S   4655  15.759  12.847  12.848
    1STR  H1T   4656  15.666  12.935  12.968
    1STR  H1U   4657  15.589  12.878  12.820
    1STR  H1V   4658  15.714  12.597  13.125
    1STR  H1W   4659  15.740  12.767  13.151
    1STR  H1X   4660  16.061  12.615  12.945
    1STR  H1Y   4661  16.252  12.587  12.832
    1STR  H1Z   4662  16.482  12.649  12.784
    1STR  H20   4663  16.629  12.962  12.872
    1STR  H21   4664  16.709  12.823  12.948
    1STR  H22   4665  16.650  12.813  12.782
    1STR  H23   4666  16.441  13.049  13.148
    1STR  H27   4667  16.230  12.895  13.134
    1STR  H28   4668  14.426  12.730  12.768
    1STR  H29   4669  14.189  12.708  12.745
    1STR  H2A   4670  13.940  12.786  12.983
    1STR  H2B   4671  13.976  12.719  12.825
    1STR  H2C   4672  13.942  12.891  12.839
    1STR  BCK1  4673  17.352   0.881  17.381
    1STR  O03   4674  17.444   0.811  17.420
    1STR  N04   4675  17.358   1.015  17.383
    1STR  C05   4676  17.252   1.108  17.378
    1STR  C06   4677  17.280   1.249  17.377
    1STR  C07   4678  17.176   1.347  17.382
    1STR  N08   4679  17.204   1.486  17.378
    1STR  C09   4680  17.120   1.592  17.376
    1STR  O0A   4681  16.997   1.584  17.378
    1STR  O0B   4682  17.184   1.711  17.369
    1STR  C0C   4683  17.108   1.833  17.368
    1STR  C0D   4684  17.069   1.873   0.071
    1STR  C0E   4685  17.185   1.946  17.296
    1STR  O0F   4686  17.107   2.066  17.290
    1STR  C0G   4687  17.168   2.178  17.226
    1STR  C0H   4688  17.161   2.160  17.073
    1STR  C0I   4689  17.097   2.308  17.270
    1STR  O0J   4690  17.163   2.424  17.218
    1STR  C0K   4691  17.110   2.552  17.256
    1STR  C0M   4692  17.149   2.584  17.401
    1STR  C0N   4693  17.164   2.662  17.161
    1STR  O0O   4694  17.098   2.788  17.180
    1STR  C0P   4695  17.164   2.902  17.214
    1STR  O0Q   4696  17.282   2.910  17.247
    1STR  N0R   4697  17.078   3.003  17.210
    1STR  C0S   4698  17.082   3.139  17.246
    1STR  C0T   4699  16.958   3.191  17.289
    1STR  C0U   4700  16.949   3.320  17.343
    1STR  C0V   4701  17.062   3.404  17.345
    1STR  C0W   4702  17.062   3.527  17.434
    1STR  C0X   4703  17.178   3.365  17.273
    1STR  N0Y   4704  17.269   3.466  17.237
    1STR  BCK2  4705  17.229   3.582  17.180
    1STR  O10   4706  17.308   3.670  17.149
    1STR  C13   4707  17.193   3.228  17.236
    1STR  C14   4708  17.043   1.300  17.391
    1STR  C15   4709  17.014   1.163  17.390
    1STR  C16   4710  17.116   1.067  17.381
    1STR  C17   4711  17.070   0.922  17.378
    1STR  H1B   4712   0.011   1.049  17.401
    1STR  H1C   4713  17.382   1.282  17.373
    1STR  H1D   4714  17.300   1.515  17.376
    1STR  H1E   4715  17.016   1.817  17.311
    1STR  H1F   4716  17.157   1.891   0.133
    1STR  H1G   4717  17.009   1.964   0.071
    1STR  H1H   4718  17.010   1.795   0.119
    1STR  H1I   4719  17.210   1.912  17.196
    1STR  H1J   4720  17.279   1.965  17.348
    1STR  H1K   4721  17.273   2.185  17.257
    1STR  H1M   4722  17.058   2.149  17.039
    1STR  H1N   4723  17.217   2.072  17.039
    1STR  H1O   4724  17.204   2.246  17.022
    1STR  H1P   4725  16.993   2.306  17.237
    1STR  H1Q   4726  17.095   2.311  17.379
    1STR  H1R   4727  17.001   2.549  17.247
    1STR  H1S   4728  17.111   2.681  17.431
    1STR  H1T   4729  17.258   2.588  17.411
    1STR  H1U   4730  17.112   2.511   0.032
    1STR  H1V   4731  17.144   2.631  17.058
    1STR  H1W   4732  17.272   2.671  17.169
    1STR  H1X   4733  16.988   2.967  17.183
    1STR  H1Y   4734  16.869   3.131  17.287
    1STR  H1Z   4735  16.856   3.354  17.385
    1STR  H20   4736  17.144   3.517   0.065
    1STR  H21   4737  17.076   3.621  17.381
    1STR  H22   4738  16.971   3.534   0.053
    1STR  H23   4739  17.368   3.451  17.244
    1STR  H27   4740  17.286   3.192  17.195
    1STR  H28   4741  16.958   1.364  17.400
    1STR  H29   4742  16.911   1.133  17.396
    1STR  H2A   4743  17.105   0.875  17.287
    1STR  H2B   4744  16.962   0.914  17.379
    1STR  H2C   4745  17.107   0.869   0.025
    1STR  BCK1  4746  17.396   0.900   4.362
    1STR  O03   4747   0.043   0.814   4.358
    1STR  N04   4748  17.408   1.028   4.410
    1STR  C05   4749   0.063   1.105   4.484
    1STR  C06   4750   0.053   1.248   4.479
    1STR  C07   4751   0.137   1.337   4.556
    1STR  N08   4752   0.121   1.478   4.550
    1STR  C09   4753   0.185   1.579   4.615
    1STR  O0A   4754   0.277   1.563   4.694
    1STR  O0B   4755   0.136   1.704   4.583
    1STR  C0C   4756   0.194   1.825   4.639
    1STR  C0D   4757   0.320   1.864   4.560
    1STR  C0E   4758   0.092   1.944   4.641
    1STR  O0F   4759   0.147   2.067   4.695
    1STR  C0G   4760   0.058   2.182   4.701
    1STR  C0H   4761  17.399   2.162   4.818
    1STR  C0I   4762   0.137   2.317   4.717
    1STR  O0J   4763   0.053   2.436   4.710
    1STR  C0K   4764   0.117   2.567   4.709
    1STR  C0M   4765   0.190   2.588   4.577
    1STR  C0N   4766   0.012   2.684   4.728
    1STR  O0O   4767   0.063   2.821   4.717
    1STR  C0P   4768   0.015   2.915   4.625
    1STR  O0Q   4769  17.383   2.889   4.529
    1STR  N0R   4770   0.058   3.039   4.657
    1STR  C0S   4771   0.054   3.173   4.607
    1STR  C0T   4772   0.137   3.258   4.682
    1STR  C0U   4773   0.157   3.391   4.643
    1STR  C0V   4774   0.095   3.446   4.530
    1STR  C0W   4775   0.146   3.583   4.490
    1STR  C0X   4776  17.439   3.372   4.455
    1STR  N0Y   4777  17.365   3.426   4.342
    1STR  BCK2  4778  17.328   3.549   4.287
    1STR  O10   4779  17.353   3.660   4.332
    1STR  C13   4780  17.424   3.232   4.495
    1STR  C14   4781   0.235   1.276   4.637
    1STR  C15   4782   0.246   1.136   4.644
    1STR  C16   4783   0.161   1.050   4.572
    1STR  C17   4784   0.178   0.902   4.597
    1STR  H1B   4785  17.327   1.082   4.384
    1STR  H1C   4786  17.419   1.293   4.416
    1STR  H1D   4787   0.050   1.515   4.489
    1STR  H1E   4788   0.224   1.805   4.742
    1STR  H1F   4789   0.297   1.884   4.455
    1STR  H1G   4790   0.366   1.954   4.601
    1STR  H1H   4791   0.396   1.785   4.564
    1STR  H1I   4792   0.006   1.912   4.700
    1STR  H1J   4793   0.056   1.962   4.540
    1STR  H1K   4794   0.002   2.188   4.607
    1STR  H1M   4795   0.012   2.151   4.913
    1STR  H1N   4796  17.336   2.075   4.804
    1STR  H1O   4797  17.333   2.248   4.827
    1STR  H1P   4798   0.192   2.316   4.812
    1STR  H1Q   4799   0.212   2.319   4.639
    1STR  H1R   4800   0.189   2.571   4.792
    1STR  H1S   4801   0.241   2.684   4.576
    1STR  H1T   4802   0.120   2.588   4.494
    1STR  H1U   4803   0.266   2.512   4.557
    1STR  H1V   4804  17.410   2.674   4.828
    1STR  H1W   4805  17.369   2.670   4.660
    1STR  H1X   4806   0.110   3.029   4.742
    1STR  H1Y   4807   0.190   3.223   4.769
    1STR  H1Z   4808   0.227   3.450   4.702
    1STR  H20   4809   0.162   3.588   4.382
    1STR  H21   4810   0.077   3.662   4.520
    1STR  H22   4811   0.242   3.605   4.537
    1STR  H23   4812  17.325   3.352   4.287
    1STR  H27   4813  17.358   3.167   4.439
    1STR  H28   4814   0.303   1.333   4.698
    1STR  H29   4815   0.321   1.095   4.710
    1STR  H2A   4816   0.081   0.852   4.605
    1STR  H2B   4817   0.231   0.883   4.690
    1STR  H2C   4818   0.235   0.856   4.516
    1STR  BCK1  4819  17.376   0.894   8.669
    1STR  O03   4820  17.297   0.839   8.593
    1STR  N04   4821  17.436   1.015   8.652
    1STR  C05   4822   0.003   1.104   8.542
    1STR  C06   4823   0.011   1.246   8.565
    1STR  C07   4824   0.019   1.341   8.458
    1STR  N08   4825   0.031   1.480   8.483
    1STR  C09   4826   0.031   1.585   8.397
    1STR  O0A   4827   0.017   1.576   8.275
    1STR  O0B   4828   0.048   1.706   8.459
    1STR  C0C   4829   0.044   1.829   8.382
    1STR  C0D   4830  17.338   1.869   8.357
    1STR  C0E   4831   0.122   1.944   8.452
    1STR  O0F   4832   0.120   2.066   8.375
    1STR  C0G   4833   0.189   2.179   8.431
    1STR  C0H   4834   0.341   2.161   8.411
    1STR  C0I   4835   0.140   2.311   8.364
    1STR  O0J   4836   0.196   2.430   8.426
    1STR  C0K   4837   0.148   2.557   8.379
    1STR  C0M   4838   0.005   2.582   8.429
    1STR  C0N   4839   0.238   2.675   8.428
    1STR  O0O   4840   0.196   2.803   8.374
    1STR  C0P   4841   0.142   2.906   8.448
    1STR  O0Q   4842   0.114   2.903   8.567
    1STR  N0R   4843   0.129   3.011   8.365
    1STR  C0S   4844   0.089   3.146   8.364
    1STR  C0T   4845   0.139   3.212   8.250
    1STR  C0U   4846   0.112   3.347   8.226
    1STR  C0V   4847   0.032   3.422   8.312
    1STR  C0W   4848   0.021   3.570   8.282
    1STR  C0X   4849  17.410   3.360   8.425
    1STR  N0Y   4850  17.319   3.436   8.505
    1STR  BCK2  4851  17.247   3.546   8.471
    1STR  O10   4852  17.178   3.606   8.553
    1STR  C13   4853   0.004   3.222   8.452
    1STR  C14   4854   0.017   1.289   8.327
    1STR  C15   4855   0.015   1.151   8.303
    1STR  C16   4856   0.013   1.058   8.408
    1STR  C17   4857   0.029   0.912   8.371
    1STR  H1B   4858   0.040   1.048   8.736
    1STR  H1C   4859   0.010   1.282   8.666
    1STR  H1D   4860   0.041   1.511   8.578
    1STR  H1E   4861   0.093   1.812   8.286
    1STR  H1F   4862  17.284   1.887   8.449
    1STR  H1G   4863  17.332   1.960   8.296
    1STR  H1H   4864  17.285   1.791   8.302
    1STR  H1I   4865   0.224   1.911   8.468
    1STR  H1J   4866   0.079   1.962   8.551
    1STR  H1K   4867   0.167   2.186   8.537
    1STR  H1M   4868   0.365   2.150   8.305
    1STR  H1N   4869   0.379   2.073   8.463
    1STR  H1O   4870   0.395   2.247   8.449
    1STR  H1P   4871   0.164   2.310   8.258
    1STR  H1Q   4872   0.031   2.313   8.371
    1STR  H1R   4873   0.149   2.557   8.270
    1STR  H1S   4874  17.408   2.678   8.393
    1STR  H1T   4875   0.003   2.585   8.538
    1STR  H1U   4876  17.374   2.506   8.396
    1STR  H1V   4877   0.340   2.657   8.393
    1STR  H1W   4878   0.244   2.678   8.537
    1STR  H1X   4879   0.167   2.979   8.278
    1STR  H1Y   4880   0.201   3.160   8.179
    1STR  H1Z   4881   0.155   3.393   8.138
    1STR  H20   4882  17.365   3.593   8.238
    1STR  H21   4883   0.035   3.628   8.373
    1STR  H22   4884   0.098   3.603   8.212
    1STR  H23   4885  17.304   3.406   8.600
    1STR  H27   4886  17.404   3.172   8.540
    1STR  H28   4887   0.021   1.352   8.239
    1STR  H29   4888   0.018   1.116   8.201
    1STR  H2A   4889   0.087   0.859   8.447
    1STR  H2B   4890   0.083   0.902   8.277
    1STR  H2C   4891  17.372   0.865   8.360
    1STR  BCK1  4892  17.347   0.897  13.033
    1STR  O03   4893  17.370   0.807  13.113
    1STR  N04   4894  17.336   1.030  13.060
    1STR  C05   4895  17.284   1.110  13.165
    1STR  C06   4896  17.296   1.252  13.153
    1STR  C07   4897  17.238   1.344  13.246
    1STR  N08   4898  17.249   1.484  13.226
    1STR  C09   4899  17.194   1.587  13.295
    1STR  O0A   4900  17.121   1.575  13.393
    1STR  O0B   4901  17.226   1.708  13.241
    1STR  C0C   4902  17.178   1.830  13.302
    1STR  C0D   4903  17.270   1.870  13.419
    1STR  C0E   4904  17.168   1.944  13.197
    1STR  O0F   4905  17.117   2.065  13.255
    1STR  C0G   4906  17.104   2.178  13.167
    1STR  C0H   4907  16.980   2.159  13.079
    1STR  C0I   4908  17.096   2.309  13.249
    1STR  O0J   4909  17.094   2.426  13.165
    1STR  C0K   4910  17.094   2.554  13.230
    1STR  C0M   4911  17.233   2.584  13.287
    1STR  C0N   4912  17.054   2.665  13.128
    1STR  O0O   4913  17.040   2.796  13.186
    1STR  C0P   4914  17.104   2.906  13.137
    1STR  O0Q   4915  17.195   2.905  13.055
    1STR  N0R   4916  17.053   3.016  13.193
    1STR  C0S   4917  17.083   3.154  13.190
    1STR  C0T   4918  17.047   3.222  13.308
    1STR  C0U   4919  17.082   3.357  13.327
    1STR  C0V   4920  17.147   3.429  13.225
    1STR  C0W   4921  17.215   3.559  13.264
    1STR  C0X   4922  17.163   3.371  13.096
    1STR  N0Y   4923  17.210   3.452  12.989
    1STR  BCK2  4924  17.157   3.568  12.942
    1STR  O10   4925  17.209   3.630  12.850
    1STR  C13   4926  17.140   3.230  13.083
    1STR  C14   4927  17.170   1.288  13.356
    1STR  C15   4928  17.157   1.150  13.371
    1STR  C16   4929  17.212   1.060  13.277
    1STR  C17   4930  17.189   0.913  13.304
    1STR  H1B   4931  17.376   1.084  12.985
    1STR  H1C   4932  17.350   1.293  13.068
    1STR  H1D   4933  17.305   1.517  13.150
    1STR  H1E   4934  17.077   1.813  13.340
    1STR  H1F   4935  17.372   1.888  13.386
    1STR  H1G   4936  17.233   1.961  13.467
    1STR  H1H   4937  17.272   1.792  13.495
    1STR  H1I   4938  17.104   1.910  13.116
    1STR  H1J   4939  17.267   1.962  13.153
    1STR  H1K   4940  17.193   2.184  13.104
    1STR  H1M   4941  16.890   2.149  13.139
    1STR  H1N   4942  16.987   2.072  13.014
    1STR  H1O   4943  16.966   2.246  13.014
    1STR  H1P   4944  17.006   2.307  13.312
    1STR  H1Q   4945  17.181   2.312  13.317
    1STR  H1R   4946  17.020   2.553  13.311
    1STR  H1S   4947  17.235   2.681  13.336
    1STR  H1T   4948  17.308   2.587  13.207
    1STR  H1U   4949  17.266   2.511  13.361
    1STR  H1V   4950  16.957   2.639  13.085
    1STR  H1W   4951  17.124   2.666  13.044
    1STR  H1X   4952  16.982   2.988  13.258
    1STR  H1Y   4953  16.998   3.171  13.389
    1STR  H1Z   4954  17.062   3.402  13.422
    1STR  H20   4955  17.322   3.540  13.267
    1STR  H21   4956  17.196   3.640  13.194
    1STR  H22   4957  17.185   3.592  13.363
    1STR  H23   4958  17.291   3.420  12.938
    1STR  H27   4959  17.164   3.179  12.991
    1STR  H28   4960  17.123   1.349  13.432
    1STR  H29   4961  17.103   1.112  13.456
    1STR  H2A   4962  17.150   0.863  13.215
    1STR  H2B   4963  17.116   0.897  13.384
    1STR  H2C   4964  17.282   0.866  13.335
    1STR  BCK1  4965  17.423   5.262  17.399
    1STR  O03   4966   0.042   5.190  17.320
    1STR  N04   4967   0.023   5.385   0.005
    1STR  C05   4968   0.140   5.465  17.434
    1STR  C06   4969   0.129   5.608   0.004
    1STR  C07   4970   0.241   5.697  17.439
    1STR  N08   4971   0.226   5.839   0.013
    1STR  C09   4972   0.316   5.940   0.005
    1STR  O0A   4973   0.435   5.925  17.419
    1STR  O0B   4974   0.260   6.064   0.027
    1STR  C0C   4975   0.339   6.186   0.016
    1STR  C0D   4976   0.353   6.225  17.308
    1STR  C0E   4977   0.279   6.305   0.098
    1STR  O0F   4978   0.354   6.428   0.088
    1STR  C0G   4979   0.305   6.543   0.162
    1STR  C0H   4980   0.338   6.523   0.311
    1STR  C0I   4981   0.366   6.678   0.109
    1STR  O0J   4982   0.309   6.799   0.169
    1STR  C0K   4983   0.348   6.928   0.115
    1STR  C0M   4984   0.288   6.946  17.415
    1STR  C0N   4985   0.301   7.051   0.203
    1STR  O0O   4986   0.327   7.184   0.147
    1STR  C0P   4987   0.229   7.276   0.111
    1STR  O0Q   4988   0.109   7.252   0.105
    1STR  N0R   4989   0.284   7.396   0.084
    1STR  C0S   4990   0.251   7.529   0.041
    1STR  C0T   4991   0.362   7.614   0.052
    1STR  C0U   4992   0.355   7.747   0.010
    1STR  C0V   4993   0.239   7.803  17.393
    1STR  C0W   4994   0.254   7.946  17.347
    1STR  C0X   4995   0.120   7.726  17.379
    1STR  N0Y   4996  17.439   7.776  17.316
    1STR  BCK2  4997  17.382   7.896  17.273
    1STR  O10   4998  17.416   8.010  17.302
    1STR  C13   4999   0.130   7.586  17.425
    1STR  C14   5000   0.368   5.638  17.422
    1STR  C15   5001   0.382   5.498  17.415
    1STR  C16   5002   0.271   5.412  17.424
    1STR  C17   5003   0.301   5.263  17.430
    1STR  H1B   5004  17.389   5.430   0.056
    1STR  H1C   5005   0.031   5.651   0.017
    1STR  H1D   5006   0.134   5.874   0.033
    1STR  H1E   5007   0.439   6.166   0.056
    1STR  H1F   5008   0.256   6.245  17.262
    1STR  H1G   5009   0.414   6.315  17.297
    1STR  H1H   5010   0.402   6.146  17.250
    1STR  H1I   5011   0.273   6.273   0.202
    1STR  H1J   5012   0.177   6.322   0.066
    1STR  H1K   5013   0.197   6.549   0.149
    1STR  H1M   5014   0.445   6.512   0.327
    1STR  H1N   5015   0.289   6.436   0.353
    1STR  H1O   5016   0.305   6.609   0.370
    1STR  H1P   5017   0.474   6.677   0.124
    1STR  H1Q   5018   0.350   6.679   0.002
    1STR  H1R   5019   0.457   6.931   0.108
    1STR  H1S   5020   0.318   7.041  17.372
    1STR  H1T   5021   0.179   6.946  17.422
    1STR  H1U   5022   0.318   6.868  17.345
    1STR  H1V   5023   0.354   7.044   0.298
    1STR  H1W   5024   0.196   7.041   0.228
    1STR  H1X   5025   0.382   7.384   0.104
    1STR  H1Y   5026   0.455   7.579   0.093
    1STR  H1Z   5027   0.445   7.807   0.020
    1STR  H20   5028   0.205   7.963  17.252
    1STR  H21   5029   0.214   8.014  17.422
    1STR  H22   5030   0.359   7.972  17.331
    1STR  H23   5031  17.375   7.701  17.297
    1STR  H27   5032   0.045   7.521  17.418
    1STR  H28   5033   0.458   5.696  17.416
    1STR  H29   5034   0.482   5.457  17.405
    1STR  H2A   5035   0.236   5.213   0.062
    1STR  H2B   5036   0.404   5.245   0.022
    1STR  H2C   5037   0.288   5.217  17.332
    1STR  BCK1  5038  17.385   5.240   4.315
    1STR  O03   5039  17.282   5.179   4.343
    1STR  N04   5040  17.396   5.369   4.274
    1STR  C05   5041  17.304   5.463   4.221
    1STR  C06   5042  17.329   5.604   4.235
    1STR  C07   5043  17.244   5.704   4.178
    1STR  N08   5044  17.272   5.843   4.188
    1STR  C09   5045  17.205   5.949   4.137
    1STR  O0A   5046  17.101   5.942   4.072
    1STR  O0B   5047  17.264   6.069   4.165
    1STR  C0C   5048  17.200   6.192   4.121
    1STR  C0D   5049  17.090   6.232   4.221
    1STR  C0E   5050  17.303   6.306   4.102
    1STR  O0F   5051  17.240   6.426   4.055
    1STR  C0G   5052  17.326   6.539   4.034
    1STR  C0H   5053  17.402   6.520   3.901
    1STR  C0I   5054  17.242   6.670   4.032
    1STR  O0J   5055  17.327   6.787   4.024
    1STR  C0K   5056  17.261   6.915   4.028
    1STR  C0M   5057  17.216   6.945   4.172
    1STR  C0N   5058  17.358   7.027   3.980
    1STR  O0O   5059  17.294   7.154   3.959
    1STR  C0P   5060  17.327   7.267   4.029
    1STR  O0Q   5061  17.402   7.275   4.125
    1STR  N0R   5062  17.258   7.369   3.975
    1STR  C0S   5063  17.227   7.502   4.009
    1STR  C0T   5064  17.102   7.543   3.960
    1STR  C0U   5065  17.042   7.661   4.005
    1STR  C0V   5066  17.112   7.747   4.091
    1STR  C0W   5067  17.034   7.845   4.178
    1STR  C0X   5068  17.251   7.728   4.108
    1STR  N0Y   5069  17.327   7.841   4.143
    1STR  BCK2  5070  17.302   7.965   4.093
    1STR  O10   5071  17.370   8.062   4.122
    1STR  C13   5072  17.306   7.598   4.080
    1STR  C14   5073  17.130   5.657   4.108
    1STR  C15   5074  17.106   5.521   4.091
    1STR  C16   5075  17.193   5.424   4.142
    1STR  C17   5076  17.164   5.281   4.100
    1STR  H1B   5077   0.049   5.405   4.289
    1STR  H1C   5078  17.416   5.636   4.291
    1STR  H1D   5079  17.354   5.871   4.238
    1STR  H1E   5080  17.153   6.175   4.024
    1STR  H1F   5081  17.131   6.250   4.321
    1STR  H1G   5082  17.039   6.322   4.189
    1STR  H1H   5083  17.014   6.154   4.230
    1STR  H1I   5084  17.378   6.272   4.031
    1STR  H1J   5085  17.355   6.325   4.196
    1STR  H1K   5086  17.397   6.546   4.116
    1STR  H1M   5087  17.333   6.509   3.817
    1STR  H1N   5088   0.027   6.433   3.902
    1STR  H1O   5089   0.025   6.607   3.881
    1STR  H1P   5090  17.172   6.668   3.948
    1STR  H1Q   5091  17.182   6.672   4.123
    1STR  H1R   5092  17.175   6.913   3.962
    1STR  H1S   5093  17.167   7.042   4.177
    1STR  H1T   5094  17.301   6.948   4.240
    1STR  H1U   5095  17.145   6.872   4.210
    1STR  H1V   5096  17.398   6.997   3.883
    1STR  H1W   5097   0.005   7.035   4.046
    1STR  H1X   5098  17.206   7.331   3.898
    1STR  H1Y   5099  17.045   7.480   3.894
    1STR  H1Z   5100  16.940   7.684   3.977
    1STR  H20   5101  17.056   7.821   4.282
    1STR  H21   5102  17.059   7.949   4.163
    1STR  H22   5103  16.927   7.834   4.165
    1STR  H23   5104  17.411   7.833   4.198
    1STR  H27   5105  17.407   7.573   4.109
    1STR  H28   5106  17.057   5.722   4.063
    1STR  H29   5107  17.019   5.491   4.033
    1STR  H2A   5108  17.256   5.230   4.074
    1STR  H2B   5109  17.099   5.277   4.013
    1STR  H2C   5110  17.113   5.229   4.181
    1STR  BCK1  5111  17.362   5.260   8.720
    1STR  O03   5112  17.435   5.169   8.759
    1STR  N04   5113  17.362   5.390   8.762
    1STR  C05   5114  17.412   5.467   8.871
    1STR  C06   5115  17.410   5.610   8.860
    1STR  C07   5116   0.007   5.699   8.966
    1STR  N08   5117  17.438   5.840   8.951
    1STR  C09   5118   0.019   5.941   9.039
    1STR  O0A   5119   0.053   5.926   9.155
    1STR  O0B   5120  17.436   6.065   8.983
    1STR  C0C   5121   0.015   6.187   9.061
    1STR  C0D   5122   0.164   6.226   9.061
    1STR  C0E   5123  17.367   6.304   9.007
    1STR  O0F   5124  17.384   6.426   9.082
    1STR  C0G   5125  17.306   6.540   9.039
    1STR  C0H   5126  17.160   6.521   9.085
    1STR  C0I   5127  17.364   6.674   9.096
    1STR  O0J   5128  17.297   6.792   9.045
    1STR  C0K   5129  17.349   6.923   9.081
    1STR  C0M   5130   0.041   6.947   9.007
    1STR  C0N   5131  17.247   7.036   9.044
    1STR  O0O   5132  17.288   7.173   9.069
    1STR  C0P   5133  17.287   7.273   8.972
    1STR  O0Q   5134  17.278   7.254   8.852
    1STR  N0R   5135  17.298   7.394   9.030
    1STR  C0S   5136  17.313   7.531   8.991
    1STR  C0T   5137  17.360   7.611   9.096
    1STR  C0U   5138  17.395   7.745   9.076
    1STR  C0V   5139  17.380   7.806   8.950
    1STR  C0W   5140   0.011   7.938   8.930
    1STR  C0X   5141  17.316   7.738   8.842
    1STR  N0Y   5142  17.295   7.804   8.716
    1STR  BCK2  5143  17.253   7.930   8.679
    1STR  O10   5144  17.260   7.968   8.563
    1STR  C13   5145  17.289   7.596   8.864
    1STR  C14   5146   0.051   5.639   9.086
    1STR  C15   5147   0.055   5.500   9.100
    1STR  C16   5148   0.015   5.413   8.996
    1STR  C17   5149   0.017   5.265   9.028
    1STR  H1B   5150  17.312   5.447   8.695
    1STR  H1C   5151  17.377   5.654   8.767
    1STR  H1D   5152  17.412   5.876   8.861
    1STR  H1E   5153  17.424   6.167   9.164
    1STR  H1F   5154   0.200   6.245   8.960
    1STR  H1G   5155   0.180   6.316   9.120
    1STR  H1H   5156   0.226   6.147   9.105
    1STR  H1I   5157  17.263   6.271   9.010
    1STR  H1J   5158  17.391   6.322   8.902
    1STR  H1K   5159  17.309   6.547   8.930
    1STR  H1M   5160  17.153   6.510   9.193
    1STR  H1N   5161  17.113   6.434   9.039
    1STR  H1O   5162  17.099   6.607   9.056
    1STR  H1P   5163  17.360   6.672   9.205
    1STR  H1Q   5164   0.030   6.676   9.069
    1STR  H1R   5165  17.366   6.925   9.189
    1STR  H1S   5166   0.083   7.044   9.034
    1STR  H1T   5167   0.025   6.948   8.899
    1STR  H1U   5168   0.117   6.873   9.029
    1STR  H1V   5169  17.156   7.020   9.102
    1STR  H1W   5170  17.216   7.025   8.940
    1STR  H1X   5171  17.303   7.379   9.129
    1STR  H1Y   5172  17.377   7.569   9.195
    1STR  H1Z   5173  17.439   7.799   9.158
    1STR  H20   5174   0.082   7.927   8.848
    1STR  H21   5175  17.383   8.020   8.908
    1STR  H22   5176   0.070   7.964   9.018
    1STR  H23   5177  17.318   7.748   8.635
    1STR  H27   5178  17.250   7.536   8.783
    1STR  H28   5179   0.081   5.698   9.171
    1STR  H29   5180   0.088   5.459   9.194
    1STR  H2A   5181  17.367   5.216   8.992
    1STR  H2B   5182   0.023   5.247   9.135
    1STR  H2C   5183   0.105   5.219   8.982
    1STR  BCK1  5184  17.393   5.262  13.018
    1STR  O03   5185  17.369   5.199  12.915
    1STR  N04   5186   0.016   5.381  13.030
    1STR  C05   5187   0.084   5.466  12.940
    1STR  C06   5188   0.083   5.608  12.961
    1STR  C07   5189   0.151   5.700  12.875
    1STR  N08   5190   0.151   5.840  12.900
    1STR  C09   5191   0.198   5.944  12.826
    1STR  O0A   5192   0.251   5.932  12.716
    1STR  O0B   5193   0.181   6.066  12.887
    1STR  C0C   5194   0.219   6.188  12.819
    1STR  C0D   5195   0.110   6.228  12.718
    1STR  C0E   5196   0.247   6.305  12.919
    1STR  O0F   5197   0.286   6.428  12.853
    1STR  C0G   5198   0.315   6.541  12.937
    1STR  C0H   5199   0.453   6.522  13.001
    1STR  C0I   5200   0.310   6.675  12.855
    1STR  O0J   5201   0.323   6.795  12.936
    1STR  C0K   5202   0.306   6.923  12.870
    1STR  C0M   5203   0.158   6.943  12.836
    1STR  C0N   5204   0.351   7.044  12.958
    1STR  O0O   5205   0.336   7.173  12.892
    1STR  C0P   5206   0.245   7.271  12.930
    1STR  O0Q   5207   0.161   7.261  13.018
    1STR  N0R   5208   0.269   7.381  12.857
    1STR  C0S   5209   0.223   7.515  12.839
    1STR  C0T   5210   0.319   7.592  12.770
    1STR  C0U   5211   0.297   7.727  12.741
    1STR  C0V   5212   0.178   7.792  12.776
    1STR  C0W   5213   0.174   7.942  12.752
    1STR  C0X   5214   0.072   7.719  12.838
    1STR  N0Y   5215  17.388   7.786  12.868
    1STR  BCK2  5216  17.329   7.897  12.813
    1STR  O10   5217  17.223   7.942  12.857
    1STR  C13   5218   0.099   7.581  12.873
    1STR  C14   5219   0.221   5.644  12.765
    1STR  C15   5220   0.227   5.506  12.746
    1STR  C16   5221   0.164   5.416  12.834
    1STR  C17   5222   0.193   5.268  12.813
    1STR  H1B   5223   0.007   5.419  13.123
    1STR  H1C   5224   0.029   5.648  13.045
    1STR  H1D   5225   0.109   5.872  12.985
    1STR  H1E   5226   0.312   6.170  12.764
    1STR  H1F   5227   0.015   6.247  12.768
    1STR  H1G   5228   0.137   6.318  12.664
    1STR  H1H   5229   0.094   6.149  12.644
    1STR  H1I   5230   0.326   6.272  12.987
    1STR  H1J   5231   0.159   6.323  12.979
    1STR  H1K   5232   0.239   6.548  13.015
    1STR  H1M   5233   0.531   6.511  12.926
    1STR  H1N   5234   0.457   6.435  13.066
    1STR  H1O   5235   0.480   6.608  13.063
    1STR  H1P   5236   0.387   6.673  12.778
    1STR  H1Q   5237   0.214   6.676  12.803
    1STR  H1R   5238   0.365   6.923  12.779
    1STR  H1S   5239   0.143   7.038  12.785
    1STR  H1T   5240   0.098   6.945  12.927
    1STR  H1U   5241   0.118   6.866  12.770
    1STR  H1V   5242   0.457   7.031  12.980
    1STR  H1W   5243   0.301   7.044  13.055
    1STR  H1X   5244   0.348   7.358  12.800
    1STR  H1Y   5245   0.414   7.549  12.741
    1STR  H1Z   5246   0.376   7.781  12.691
    1STR  H20   5247   0.092   7.971  12.687
    1STR  H21   5248   0.165   7.993  12.848
    1STR  H22   5249   0.265   7.977  12.704
    1STR  H23   5250  17.332   7.745  12.941
    1STR  H27   5251   0.024   7.522  12.925
    1STR  H28   5252   0.274   5.705  12.693
    1STR  H29   5253   0.285   5.468  12.662
    1STR  H2A   5254   0.201   5.217  12.909
    1STR  H2B   5255   0.287   5.253  12.761
    1STR  H2C   5256   0.114   5.222  12.754
    1STR  BCK1  5257  17.340   9.606  17.387
    1STR  O03   5258  17.438   9.534  17.393
    1STR  N04   5259  17.348   9.740  17.401
    1STR  C05   5260  17.247   9.830  17.438
    1STR  C06   5261  17.270   9.971  17.429
    1STR  C07   5262  17.173  10.067   0.033
    1STR  N08   5263  17.197  10.206   0.021
    1STR  C09   5264  17.116  10.311   0.049
    1STR  O0A   5265  17.002  10.302   0.094
    1STR  O0B   5266  17.174  10.431   0.022
    1STR  C0C   5267  17.101  10.553   0.046
    1STR  C0D   5268  17.115  10.592   0.195
    1STR  C0E   5269  17.150  10.665  17.393
    1STR  O0F   5270  17.075  10.785  17.414
    1STR  C0G   5271  17.111  10.897  17.332
    1STR  C0H   5272  17.052  10.879  17.191
    1STR  C0I   5273  17.059  11.028  17.398
    1STR  O0J   5274  17.104  11.144  17.326
    1STR  C0K   5275  17.067  11.271  17.381
    1STR  C0M   5276  17.154  11.303   0.063
    1STR  C0N   5277  17.085  11.381  17.273
    1STR  O0O   5278  17.033  11.508  17.314
    1STR  C0P   5279  17.108  11.621  17.317
    1STR  O0Q   5280  17.230  11.628  17.302
    1STR  N0R   5281  17.028  11.725  17.342
    1STR  C0S   5282  17.048  11.862  17.366
    1STR  C0T   5283  16.952  11.921   0.011
    1STR  C0U   5284  16.966  12.054   0.054
    1STR  C0V   5285  17.071  12.133   0.006
    1STR  C0W   5286  17.105  12.262   0.081
    1STR  C0X   5287  17.152  12.086  17.341
    1STR  N0Y   5288  17.231  12.178  17.270
    1STR  BCK2  5289  17.184  12.293  17.216
    1STR  O10   5290  17.256  12.373  17.158
    1STR  C13   5291  17.148  11.946  17.309
    1STR  C14   5292  17.054  10.017   0.089
    1STR  C15   5293  17.029   9.880   0.097
    1STR  C16   5294  17.122   9.786   0.051
    1STR  C17   5295  17.084   9.640   0.067
    1STR  H1B   5296   0.002   9.774  17.391
    1STR  H1C   5297  17.363  10.007  17.388
    1STR  H1D   5298  17.286  10.237  17.426
    1STR  H1E   5299  16.996  10.537   0.025
    1STR  H1F   5300  17.219  10.611   0.222
    1STR  H1G   5301  17.059  10.683   0.216
    1STR  H1H   5302  17.076  10.515   0.260
    1STR  H1I   5303  17.139  10.631  17.290
    1STR  H1J   5304  17.256  10.684  17.409
    1STR  H1K   5305  17.220  10.904  17.327
    1STR  H1M   5306  16.944  10.869  17.194
    1STR  H1N   5307  17.093  10.792  17.140
    1STR  H1O   5308  17.075  10.966  17.129
    1STR  H1P   5309  16.950  11.025  17.403
    1STR  H1Q   5310  17.095  11.030   0.061
    1STR  H1R   5311  16.961  11.269  17.410
    1STR  H1S   5312  17.128  11.401   0.105
    1STR  H1T   5313  17.259  11.307   0.036
    1STR  H1U   5314  17.143  11.230   0.143
    1STR  H1V   5315  17.030  11.352  17.183
    1STR  H1W   5316  17.189  11.388  17.242
    1STR  H1X   5317  16.934  11.691  17.353
    1STR  H1Y   5318  16.869  11.863   0.049
    1STR  H1Z   5319  16.897  12.093   0.128
    1STR  H20   5320  17.201  12.246   0.131
    1STR  H21   5321  17.116  12.349   0.017
    1STR  H22   5322  17.032  12.285   0.158
    1STR  H23   5323  17.329  12.158  17.253
    1STR  H27   5324  17.219  11.904  17.239
    1STR  H28   5325  16.976  10.080   0.128
    1STR  H29   5326  16.936   9.847   0.140
    1STR  H2A   5327  17.080   9.591  17.410
    1STR  H2B   5328  16.985   9.628   0.112
    1STR  H2C   5329  17.155   9.588   0.132
    1STR  BCK1  5330  17.414   9.621   4.350
    1STR  O03   5331   0.058   9.539   4.315
    1STR  N04   5332  17.435   9.747   4.399
    1STR  C05   5333   0.106   9.825   4.443
    1STR  C06   5334   0.095   9.968   4.444
    1STR  C07   5335   0.197  10.057   4.492
    1STR  N08   5336   0.179  10.198   4.495
    1STR  C09   5337   0.262  10.299   4.534
    1STR  O0A   5338   0.375  10.283   4.577
    1STR  O0B   5339   0.204  10.424   4.522
    1STR  C0C   5340   0.278  10.545   4.556
    1STR  C0D   5341   0.369  10.584   4.438
    1STR  C0E   5342   0.183  10.664   4.593
    1STR  O0F   5343   0.252  10.788   4.624
    1STR  C0G   5344   0.171  10.903   4.661
    1STR  C0H   5345   0.119  10.883   4.804
    1STR  C0I   5346   0.251  11.038   4.649
    1STR  O0J   5347   0.170  11.158   4.669
    1STR  C0K   5348   0.230  11.288   4.646
    1STR  C0M   5349   0.254  11.307   4.496
    1STR  C0N   5350   0.140  11.408   4.696
    1STR  O0O   5351   0.185  11.543   4.665
    1STR  C0P   5352   0.112  11.636   4.589
    1STR  O0Q   5353   0.012  11.609   4.523
    1STR  N0R   5354   0.165  11.759   4.599
    1STR  C0S   5355   0.150  11.893   4.548
    1STR  C0T   5356   0.247  11.979   4.601
    1STR  C0U   5357   0.257  12.111   4.559
    1STR  C0V   5358   0.171  12.166   4.462
    1STR  C0W   5359   0.208  12.306   4.416
    1STR  C0X   5360   0.062  12.090   4.409
    1STR  N0Y   5361  17.408  12.143   4.311
    1STR  BCK2  5362  17.363  12.265   4.259
    1STR  O10   5363  17.394  12.377   4.296
    1STR  C13   5364   0.056  11.950   4.454
    1STR  C14   5365   0.315   9.996   4.539
    1STR  C15   5366   0.329   9.856   4.542
    1STR  C16   5367   0.226   9.770   4.497
    1STR  C17   5368   0.249   9.622   4.516
    1STR  H1B   5369  17.349   9.798   4.403
    1STR  H1C   5370   0.004  10.013   4.407
    1STR  H1D   5371   0.092  10.234   4.462
    1STR  H1E   5372   0.341  10.525   4.643
    1STR  H1F   5373   0.312  10.604   4.347
    1STR  H1G   5374   0.426  10.674   4.461
    1STR  H1H   5375   0.441  10.505   4.416
    1STR  H1I   5376   0.122  10.633   4.678
    1STR  H1J   5377   0.114  10.682   4.510
    1STR  H1K   5378   0.087  10.908   4.592
    1STR  H1M   5379   0.201  10.871   4.875
    1STR  H1N   5380   0.054  10.795   4.813
    1STR  H1O   5381   0.059  10.969   4.835
    1STR  H1P   5382   0.334  11.037   4.719
    1STR  H1Q   5383   0.295  11.039   4.549
    1STR  H1R   5384   0.326  11.292   4.699
    1STR  H1S   5385   0.302  11.403   4.477
    1STR  H1T   5386   0.159  11.307   4.442
    1STR  H1U   5387   0.318  11.231   4.452
    1STR  H1V   5388   0.134  11.400   4.805
    1STR  H1W   5389   0.037  11.394   4.662
    1STR  H1X   5390   0.241  11.750   4.664
    1STR  H1Y   5391   0.318  11.944   4.674
    1STR  H1Z   5392   0.337  12.171   4.600
    1STR  H20   5393   0.195  12.316   4.308
    1STR  H21   5394   0.147  12.380   4.468
    1STR  H22   5395   0.313  12.327   4.436
    1STR  H23   5396  17.356  12.068   4.269
    1STR  H27   5397  17.420  11.885   4.415
    1STR  H28   5398   0.398  10.053   4.577
    1STR  H29   5399   0.421   9.814   4.581
    1STR  H2A   5400   0.159   9.572   4.550
    1STR  H2B   5401   0.326   9.603   4.591
    1STR  H2C   5402   0.282   9.576   4.422
    1STR  BCK1  5403  17.374   9.609   8.677
    1STR  O03   5404  17.272   9.555   8.635
    1STR  N04   5405  17.422   9.731   8.643
    1STR  C05   5406  17.387   9.823   8.542
    1STR  C06   5407  17.402   9.964   8.564
    1STR  C07   5408  17.369  10.062   8.464
    1STR  N08   5409  17.388  10.201   8.485
    1STR  C09   5410  17.359  10.307   8.406
    1STR  O0A   5411  17.304  10.298   8.296
    1STR  O0B   5412  17.395  10.427   8.460
    1STR  C0C   5413  17.366  10.549   8.389
    1STR  C0D   5414  17.219  10.590   8.414
    1STR  C0E   5415   0.023  10.664   8.428
    1STR  O0F   5416  17.434  10.785   8.355
    1STR  C0G   5417   0.079  10.898   8.383
    1STR  C0H   5418   0.214  10.880   8.312
    1STR  C0I   5419   0.009  11.029   8.338
    1STR  O0J   5420   0.083  11.146   8.378
    1STR  C0K   5421   0.024  11.275   8.350
    1STR  C0M   5422  17.347  11.301   8.445
    1STR  C0N   5423   0.128  11.389   8.366
    1STR  O0O   5424   0.074  11.517   8.328
    1STR  C0P   5425   0.053  11.622   8.414
    1STR  O0Q   5426   0.067  11.622   8.535
    1STR  N0R   5427   0.016  11.724   8.337
    1STR  C0S   5428  17.419  11.860   8.339
    1STR  C0T   5429  17.418  11.911   8.208
    1STR  C0U   5430  17.381  12.042   8.181
    1STR  C0V   5431  17.344  12.130   8.283
    1STR  C0W   5432  17.311  12.270   8.238
    1STR  C0X   5433  17.340  12.086   8.419
    1STR  N0Y   5434  17.297  12.175   8.521
    1STR  BCK2  5435  17.233  12.295   8.512
    1STR  O10   5436  17.208  12.362   8.611
    1STR  C13   5437  17.381  11.949   8.446
    1STR  C14   5438  17.319  10.012   8.341
    1STR  C15   5439  17.309   9.875   8.316
    1STR  C16   5440  17.347   9.780   8.412
    1STR  C17   5441  17.350   9.636   8.367
    1STR  H1B   5442   0.054   9.763   8.706
    1STR  H1C   5443  -0.002   9.999   8.659
    1STR  H1D   5444  17.430  10.230   8.572
    1STR  H1E   5445  17.378  10.532   8.281
    1STR  H1F   5446  17.201  10.609   8.520
    1STR  H1G   5447  17.194  10.681   8.359
    1STR  H1H   5448  17.150  10.512   8.381
    1STR  H1I   5449   0.124  10.631   8.407
    1STR  H1J   5450   0.016  10.683   8.535
    1STR  H1K   5451   0.094  10.905   8.491
    1STR  H1M   5452   0.201  10.869   8.205
    1STR  H1N   5453   0.268  10.792   8.348
    1STR  H1O   5454   0.278  10.966   8.329
    1STR  H1P   5455  17.435  11.028   8.230
    1STR  H1Q   5456  17.349  11.031   8.382
    1STR  H1R   5457  17.429  11.275   8.246
    1STR  H1S   5458  17.301  11.397   8.423
    1STR  H1T   5459  17.381  11.305   8.548
    1STR  H1U   5460  17.268  11.226   8.438
    1STR  H1V   5461   0.212  11.368   8.300
    1STR  H1W   5462   0.170  11.392   8.467
    1STR  H1X   5463   0.020  11.687   8.244
    1STR  H1Y   5464   0.005  11.849   8.124
    1STR  H1Z   5465  17.383  12.076   8.079
    1STR  H20   5466  17.204  12.287   8.248
    1STR  H21   5467  17.367  12.343   8.296
    1STR  H22   5468  17.336  12.287   8.134
    1STR  H23   5469  17.314  12.149   8.617
    1STR  H27   5470  17.381  11.911   8.547
    1STR  H28   5471  17.289  10.076   8.260
    1STR  H29   5472  17.274   9.842   8.220
    1STR  H2A   5473  17.433   9.582   8.414
    1STR  H2B   5474  17.364   9.629   8.259
    1STR  H2C   5475  17.256   9.587   8.392
    1STR  BCK1  5476  17.348   9.619  13.053
    1STR  O03   5477  17.387   9.527  13.123
    1STR  N04   5478  17.336   9.751  13.086
    1STR  C05   5479  17.324   9.829  13.204
    1STR  C06   5480  17.331   9.971  13.191
    1STR  C07   5481  17.309  10.062  13.299
    1STR  N08   5482  17.312  10.202  13.279
    1STR  C09   5483  17.283  10.304  13.363
    1STR  O0A   5484  17.249  10.291  13.481
    1STR  O0B   5485  17.295  10.427  13.303
    1STR  C0C   5486  17.270  10.549  13.377
    1STR  C0D   5487  17.396  10.588  13.456
    1STR  C0E   5488  17.225  10.664  13.283
    1STR  O0F   5489  17.197  10.785  13.355
    1STR  C0G   5490  17.155  10.899  13.277
    1STR  C0H   5491  17.007  10.880  13.237
    1STR  C0I   5492  17.174  11.031  13.357
    1STR  O0J   5493  17.144  11.148  13.278
    1STR  C0K   5494  17.167  11.277  13.338
    1STR  C0M   5495  17.318  11.305  13.345
    1STR  C0N   5496  17.097  11.389  13.254
    1STR  O0O   5497  17.108  11.523  13.308
    1STR  C0P   5498  17.152  11.630  13.232
    1STR  O0Q   5499  17.209  11.622  13.124
    1STR  N0R   5500  17.124  11.744  13.296
    1STR  C0S   5501  17.152  11.882  13.277
    1STR  C0T   5502  17.151  11.955  13.397
    1STR  C0U   5503  17.190  12.090  13.400
    1STR  C0V   5504  17.225  12.157  13.281
    1STR  C0W   5505  17.301  12.287  13.297
    1STR  C0X   5506  17.206  12.095  13.155
    1STR  N0Y   5507  17.229  12.169  13.035
    1STR  BCK2  5508  17.178  12.289  12.992
    1STR  O10   5509  17.212  12.337  12.884
    1STR  C13   5510  17.178  11.954  13.156
    1STR  C14   5511  17.283  10.005  13.425
    1STR  C15   5512  17.277   9.865  13.442
    1STR  C16   5513  17.296   9.777  13.334
    1STR  C17   5514  17.281   9.630  13.365
    1STR  H1B   5515  17.336   9.807  13.002
    1STR  H1C   5516  17.352  10.013  13.094
    1STR  H1D   5517  17.338  10.237  13.189
    1STR  H1E   5518  17.189  10.531  13.448
    1STR  H1F   5519   0.040  10.607  13.391
    1STR  H1G   5520  17.378  10.679  13.514
    1STR  H1H   5521  17.424  10.510  13.527
    1STR  H1I   5522  17.136  10.631  13.229
    1STR  H1J   5523  17.302  10.682  13.208
    1STR  H1K   5524  17.217  10.905  13.187
    1STR  H1M   5525  16.944  10.869  13.325
    1STR  H1N   5526  16.992  10.793  13.174
    1STR  H1O   5527  16.972  10.966  13.181
    1STR  H1P   5528  17.112  11.029  13.447
    1STR  H1Q   5529  17.278  11.033  13.391
    1STR  H1R   5530  17.125  11.278  13.439
    1STR  H1S   5531  17.337  11.403  13.390
    1STR  H1T   5532  17.361  11.307  13.245
    1STR  H1U   5533  17.372  11.232  13.404
    1STR  H1V   5534  16.990  11.366  13.250
    1STR  H1W   5535  17.131  11.385  13.151
    1STR  H1X   5536  17.079  11.721  13.383
    1STR  H1Y   5537  17.127  11.908  13.491
    1STR  H1Z   5538  17.198  12.139  13.496
    1STR  H20   5539  17.404  12.270  13.265
    1STR  H21   5540  17.260  12.369  13.237
    1STR  H22   5541  17.306  12.319  13.401
    1STR  H23   5542  17.293  12.129  12.969
    1STR  H27   5543  17.175  11.899  13.062
    1STR  H28   5544  17.266  10.064  13.513
    1STR  H29   5545  17.256   9.827  13.540
    1STR  H2A   5546  17.218   9.580  13.291
    1STR  H2B   5547  17.235   9.613  13.462
    1STR  H2C   5548  17.380   9.582  13.367
    1STR  BCK1  5549  17.415  13.983  17.384
    1STR  O03   5550   0.007  13.915  17.286
    1STR  N04   5551   0.027  14.104  17.421
    1STR  C05   5552   0.134  14.186  17.376
    1STR  C06   5553   0.125  14.328  17.392
    1STR  C07   5554   0.230  14.418  17.352
    1STR  N08   5555   0.219  14.559  17.372
    1STR  C09   5556   0.300  14.661  17.334
    1STR  O0A   5557   0.403  14.648  17.269
    1STR  O0B   5558   0.255  14.785  17.376
    1STR  C0C   5559   0.325  14.907  17.338
    1STR  C0D   5560   0.287  14.946  17.194
    1STR  C0E   5561   0.296  15.025  17.437
    1STR  O0F   5562   0.363  15.148  17.401
    1STR  C0G   5563   0.343  15.263   0.048
    1STR  C0H   5564   0.425  15.243   0.177
    1STR  C0I   5565   0.382  15.397  17.417
    1STR  O0J   5566   0.349  15.518   0.052
    1STR  C0K   5567   0.368  15.647  17.427
    1STR  C0M   5568   0.262  15.664  17.317
    1STR  C0N   5569   0.356  15.770   0.084
    1STR  O0O   5570   0.367  15.901   0.021
    1STR  C0P   5571   0.264  15.995   0.013
    1STR  O0Q   5572   0.148  15.976   0.046
    1STR  N0R   5573   0.312  16.111  17.404
    1STR  C0S   5574   0.272  16.244  17.368
    1STR  C0T   5575   0.384  16.326  17.347
    1STR  C0U   5576   0.372  16.459  17.308
    1STR  C0V   5577   0.246  16.519  17.287
    1STR  C0W   5578   0.250  16.667  17.254
    1STR  C0X   5579   0.126  16.444  17.304
    1STR  N0Y   5580  17.437  16.506  17.285
    1STR  BCK2  5581  17.391  16.621  17.225
    1STR  O10   5582  17.273  16.654  17.229
    1STR  C13   5583   0.143  16.305  17.347
    1STR  C14   5584   0.345  14.360  17.295
    1STR  C15   5585   0.358  14.221  17.283
    1STR  C16   5586   0.256  14.133  17.326
    1STR  C17   5587   0.288  13.985  17.323
    1STR  H1B   5588  17.413  14.145   0.055
    1STR  H1C   5589   0.036  14.370  17.435
    1STR  H1D   5590   0.139  14.593  17.422
    1STR  H1E   5591   0.432  14.887  17.341
    1STR  H1F   5592   0.180  14.965  17.185
    1STR  H1G   5593   0.339  15.036  17.163
    1STR  H1H   5594   0.313  14.867  17.123
    1STR  H1I   5595   0.326  14.993   0.096
    1STR  H1J   5596   0.188  15.043  17.441
    1STR  H1K   5597   0.237  15.269   0.073
    1STR  H1M   5598   0.531  15.231   0.154
    1STR  H1N   5599   0.393  15.156   0.233
    1STR  H1O   5600   0.414  15.329   0.243
    1STR  H1P   5601   0.488  15.396  17.393
    1STR  H1Q   5602   0.330  15.398  17.321
    1STR  H1R   5603   0.468  15.648  17.382
    1STR  H1S   5604   0.276  15.760  17.266
    1STR  H1T   5605   0.162  15.666  17.361
    1STR  H1U   5606   0.265  15.587  17.241
    1STR  H1V   5607   0.436  15.762   0.157
    1STR  H1W   5608   0.264  15.764   0.143
    1STR  H1X   5609   0.411  16.095  17.393
    1STR  H1Y   5610   0.484  16.288  17.362
    1STR  H1Z   5611   0.462  16.517  17.296
    1STR  H20   5612   0.181  16.696  17.175
    1STR  H21   5613   0.228  16.725  17.344
    1STR  H22   5614   0.349  16.697  17.218
    1STR  H23   5615  17.360  16.456  17.327
    1STR  H27   5616   0.056  16.243  17.364
    1STR  H28   5617   0.429  14.419  17.261
    1STR  H29   5618   0.449  14.181  17.242
    1STR  H2A   5619   0.247  13.935  17.411
    1STR  H2B   5620   0.395  13.968  17.323
    1STR  H2C   5621   0.247  13.939  17.233
    1STR  BCK1  5622  17.358  13.960   4.291
    1STR  O03   5623  17.413  13.890   4.375
    1STR  N04   5624  17.369  14.094   4.289
    1STR  C05   5625  17.268  14.188   4.260
    1STR  C06   5626  17.296  14.328   4.267
    1STR  C07   5627  17.194  14.427   4.249
    1STR  N08   5628  17.223  14.566   4.251
    1STR  C09   5629  17.142  14.672   4.229
    1STR  O0A   5630  17.022  14.664   4.204
    1STR  O0B   5631  17.206  14.791   4.237
    1STR  C0C   5632  17.132  14.913   4.218
    1STR  C0D   5633  17.063  14.953   4.350
    1STR  C0E   5634  17.223  15.026   4.165
    1STR  O0F   5635  17.147  15.146   4.142
    1STR  C0G   5636  17.221  15.258   4.092
    1STR  C0H   5637  17.247  15.240   3.942
    1STR  C0I   5638  17.141  15.389   4.120
    1STR  O0J   5639  17.218  15.505   4.083
    1STR  C0K   5640  17.157  15.633   4.110
    1STR  C0M   5641  17.165  15.664   4.260
    1STR  C0N   5642  17.230  15.743   4.028
    1STR  O0O   5643  17.162  15.869   4.032
    1STR  C0P   5644  17.217  15.983   4.083
    1STR  O0Q   5645  17.324  15.992   4.142
    1STR  N0R   5646  17.133  16.084   4.059
    1STR  C0S   5647  17.124  16.219   4.098
    1STR  C0T   5648  16.992  16.267   4.108
    1STR  C0U   5649  16.965  16.393   4.163
    1STR  C0V   5650  17.071  16.478   4.199
    1STR  C0W   5651  17.044  16.595   4.292
    1STR  C0X   5652  17.202  16.446   4.157
    1STR  N0Y   5653  17.294  16.551   4.146
    1STR  BCK2  5654  17.261  16.670   4.090
    1STR  O10   5655  17.341  16.762   4.078
    1STR  C13   5656  17.231  16.311   4.120
    1STR  C14   5657  17.062  14.380   4.228
    1STR  C15   5658  17.034  14.244   4.219
    1STR  C16   5659  17.134  14.147   4.232
    1STR  C17   5660  17.089  14.003   4.216
    1STR  H1B   5661   0.016  14.127   4.328
    1STR  H1C   5662  17.396  14.361   4.287
    1STR  H1D   5663  17.317  14.595   4.271
    1STR  H1E   5664  17.054  14.897   4.143
    1STR  H1F   5665  17.136  14.971   4.429
    1STR  H1G   5666  17.004  15.044   4.337
    1STR  H1H   5667  16.995  14.875   4.384
    1STR  H1I   5668  17.269  14.992   4.072
    1STR  H1J   5669  17.303  15.045   4.236
    1STR  H1K   5670  17.316  15.266   4.146
    1STR  H1M   5671  17.153  15.229   3.887
    1STR  H1N   5672  17.308  15.153   3.921
    1STR  H1O   5673  17.299  15.327   3.901
    1STR  H1P   5674  17.047  15.386   4.065
    1STR  H1Q   5675  17.116  15.391   4.226
    1STR  H1R   5676  17.053  15.630   4.077
    1STR  H1S   5677  17.120  15.762   4.281
    1STR  H1T   5678  17.268  15.668   4.293
    1STR  H1U   5679  17.112  15.591   4.321
    1STR  H1V   5680  17.234  15.713   3.924
    1STR  H1W   5681  17.334  15.753   4.060
    1STR  H1X   5682  17.053  16.047   4.010
    1STR  H1Y   5683  16.908  16.205   4.080
    1STR  H1Z   5684  16.863  16.423   4.181
    1STR  H20   5685  17.115  16.590   4.375
    1STR  H21   5686  17.055  16.693   4.245
    1STR  H22   5687  16.944  16.590   4.335
    1STR  H23   5688  17.391  16.539   4.169
    1STR  H27   5689  17.333  16.279   4.104
    1STR  H28   5690  16.977  14.445   4.217
    1STR  H29   5691  16.932  14.214   4.202
    1STR  H2A   5692  17.148  13.955   4.138
    1STR  H2B   5693  16.985  13.996   4.186
    1STR  H2C   5694  17.100  13.949   4.310
    1STR  BCK1  5695  17.383  13.981   8.725
    1STR  O03   5696   0.026  13.892   8.738
    1STR  N04   5697  17.389  14.109   8.771
    1STR  C05   5698   0.030  14.186   8.861
    1STR  C06   5699   0.023  14.329   8.853
    1STR  C07   5700   0.091  14.418   8.943
    1STR  N08   5701   0.077  14.559   8.934
    1STR  C09   5702   0.126  14.660   9.010
    1STR  O0A   5703   0.199  14.644   9.108
    1STR  O0B   5704   0.086  14.785   8.968
    1STR  C0C   5705   0.130  14.906   9.035
    1STR  C0D   5706   0.270  14.945   8.984
    1STR  C0E   5707   0.030  15.024   9.015
    1STR  O0F   5708   0.071  15.147   9.079
    1STR  C0G   5709  17.423  15.261   9.066
    1STR  C0H   5710  17.302  15.242   9.158
    1STR  C0I   5711   0.057  15.396   9.099
    1STR  O0J   5712  17.417  15.515   9.074
    1STR  C0K   5713   0.039  15.646   9.088
    1STR  C0M   5714   0.139  15.668   8.974
    1STR  C0N   5715  17.371  15.761   9.085
    1STR  O0O   5716  17.421  15.898   9.088
    1STR  C0P   5717  17.391  15.994   8.991
    1STR  O0Q   5718  17.341  15.970   8.882
    1STR  N0R   5719  17.424  16.117   9.035
    1STR  C0S   5720  17.428  16.252   8.987
    1STR  C0T   5721   0.059  16.336   9.074
    1STR  C0U   5722   0.085  16.470   9.040
    1STR  C0V   5723   0.040  16.526   8.919
    1STR  C0W   5724   0.099  16.661   8.885
    1STR  C0X   5725  17.393  16.453   8.831
    1STR  N0Y   5726  17.334  16.508   8.711
    1STR  BCK2  5727  17.301  16.632   8.656
    1STR  O10   5728  17.319  16.742   8.706
    1STR  C13   5729  17.374  16.313   8.867
    1STR  C14   5730   0.170  14.357   9.043
    1STR  C15   5731   0.179  14.217   9.053
    1STR  C16   5732   0.109  14.131   8.966
    1STR  C17   5733   0.121  13.983   8.994
    1STR  H1B   5734  17.318  14.165   8.727
    1STR  H1C   5735  17.402  14.374   8.776
    1STR  H1D   5736   0.021  14.595   8.859
    1STR  H1E   5737   0.137  14.886   9.142
    1STR  H1F   5738   0.270  14.964   8.877
    1STR  H1G   5739   0.306  15.035   9.034
    1STR  H1H   5740   0.343  14.866   9.004
    1STR  H1I   5741  17.373  14.992   9.053
    1STR  H1J   5742   0.017  15.042   8.908
    1STR  H1K   5743  17.389  15.267   8.962
    1STR  H1M   5744  17.333  15.231   9.262
    1STR  H1N   5745  17.243  15.154   9.132
    1STR  H1O   5746  17.235  15.328   9.153
    1STR  H1P   5747   0.091  15.395   9.202
    1STR  H1Q   5748   0.148  15.398   9.038
    1STR  H1R   5749   0.091  15.649   9.183
    1STR  H1S   5750   0.188  15.764   8.985
    1STR  H1T   5751   0.087  15.668   8.878
    1STR  H1U   5752   0.217  15.592   8.970
    1STR  H1V   5753  17.308  15.749   9.173
    1STR  H1W   5754  17.305  15.748   8.999
    1STR  H1X   5755   0.019  16.106   9.128
    1STR  H1Y   5756   0.099  16.300   9.167
    1STR  H1Z   5757   0.146  16.527   9.108
    1STR  H20   5758   0.135  16.662   8.782
    1STR  H21   5759   0.027  16.742   8.900
    1STR  H22   5760   0.185  16.683   8.949
    1STR  H23   5761  17.304  16.435   8.650
    1STR  H27   5762  17.317  16.248   8.802
    1STR  H28   5763   0.226  14.415   9.115
    1STR  H29   5764   0.241  14.176   9.132
    1STR  H2A   5765   0.025  13.934   8.985
    1STR  H2B   5766   0.157  13.964   9.095
    1STR  H2C   5767   0.192  13.937   8.925
    1STR  BCK1  5768  17.381  13.978  13.024
    1STR  O03   5769  17.322  13.920  12.934
    1STR  N04   5770   0.004  14.098  13.018
    1STR  C05   5771   0.036  14.185  12.912
    1STR  C06   5772   0.041  14.327  12.934
    1STR  C07   5773   0.074  14.421  12.831
    1STR  N08   5774   0.081  14.560  12.856
    1STR  C09   5775   0.100  14.665  12.772
    1STR  O0A   5776   0.111  14.654  12.650
    1STR  O0B   5777   0.103  14.786  12.836
    1STR  C0C   5778   0.116  14.909  12.760
    1STR  C0D   5779  17.418  14.949  12.703
    1STR  C0E   5780   0.177  15.024  12.844
    1STR  O0F   5781   0.191  15.146  12.768
    1STR  C0G   5782   0.247  15.260  12.838
    1STR  C0H   5783   0.399  15.241  12.851
    1STR  C0I   5784   0.214  15.393  12.762
    1STR  O0J   5785   0.255  15.512  12.834
    1STR  C0K   5786   0.217  15.639  12.778
    1STR  C0M   5787   0.066  15.662  12.797
    1STR  C0N   5788   0.292  15.759  12.845
    1STR  O0O   5789   0.261  15.886  12.784
    1STR  C0P   5790   0.190  15.988  12.846
    1STR  O0Q   5791   0.138  15.982  12.957
    1STR  N0R   5792   0.192  16.095  12.765
    1STR  C0S   5793   0.149  16.230  12.759
    1STR  C0T   5794   0.221  16.301  12.661
    1STR  C0U   5795   0.196  16.436  12.635
    1STR  C0V   5796   0.096  16.506  12.704
    1STR  C0W   5797   0.088  16.655  12.679
    1STR  C0X   5798   0.012  16.438  12.798
    1STR  N0Y   5799  17.344  16.509  12.859
    1STR  BCK2  5800  17.276  16.619  12.814
    1STR  O10   5801  17.190  16.674  12.882
    1STR  C13   5802   0.044  16.300  12.828
    1STR  C14   5803   0.101  14.367  12.703
    1STR  C15   5804   0.102  14.229  12.680
    1STR  C16   5805   0.075  14.138  12.784
    1STR  C17   5806   0.097  13.991  12.753
    1STR  H1B   5807   0.028  14.133  13.109
    1STR  H1C   5808   0.018  14.365  13.032
    1STR  H1D   5809   0.071  14.591  12.951
    1STR  H1E   5810   0.184  14.891  12.676
    1STR  H1F   5811  17.346  14.967  12.782
    1STR  H1G   5812  17.426  15.039  12.643
    1STR  H1H   5813  17.378  14.870  12.638
    1STR  H1I   5814   0.274  14.992  12.881
    1STR  H1J   5815   0.114  15.042  12.931
    1STR  H1K   5816   0.202  15.267  12.937
    1STR  H1M   5817   0.446  15.230  12.753
    1STR  H1N   5818   0.425  15.154  12.910
    1STR  H1O   5819   0.444  15.327  12.900
    1STR  H1P   5820   0.259  15.391  12.663
    1STR  H1Q   5821   0.106  15.394  12.746
    1STR  H1R   5822   0.241  15.639  12.671
    1STR  H1S   5823   0.037  15.758  12.754
    1STR  H1T   5824   0.041  15.665  12.903
    1STR  H1U   5825   0.005  15.586  12.749
    1STR  H1V   5826   0.400  15.742  12.832
    1STR  H1W   5827   0.276  15.761  12.952
    1STR  H1X   5828   0.249  16.066  12.687
    1STR  H1Y   5829   0.299  16.253  12.604
    1STR  H1Z   5830   0.256  16.487  12.562
    1STR  H20   5831  17.440  16.680  12.620
    1STR  H21   5832   0.085  16.709  12.774
    1STR  H22   5833   0.175  16.692  12.624
    1STR  H23   5834  17.311  16.476  12.948
    1STR  H27   5835  17.427  16.246  12.902
    1STR  H28   5836   0.125  14.429  12.618
    1STR  H29   5837   0.127  14.193  12.582
    1STR  H2A   5838   0.137  13.938  12.839
    1STR  H2B   5839   0.169  13.978  12.672
    1STR  H2C   5840   0.004  13.944  12.722
    1STR  BCK1  5841   4.243   0.893  17.399
    1STR  O03   5842   4.336   0.813  17.406
    1STR  N04   5843   4.261   1.025  17.416
    1STR  C05   5844   4.181   1.112   0.052
    1STR  C06   5845   4.198   1.253   0.041
    1STR  C07   5846   4.123   1.346   0.119
    1STR  N08   5847   4.140   1.486   0.102
    1STR  C09   5848   4.073   1.589   0.157
    1STR  O0A   5849   3.981   1.578   0.239
    1STR  O0B   5850   4.117   1.710   0.112
    1STR  C0C   5851   4.057   1.831   0.160
    1STR  C0D   5852   4.121   1.871   0.294
    1STR  C0E   5853   4.070   1.944   0.055
    1STR  O0F   5854   4.007   2.065   0.101
    1STR  C0G   5855   4.014   2.177   0.012
    1STR  C0H   5856   3.911   2.159  17.340
    1STR  C0I   5857   3.987   2.308   0.092
    1STR  O0J   5858   4.005   2.425   0.009
    1STR  C0K   5859   3.989   2.553   0.072
    1STR  C0M   5860   4.113   2.583   0.158
    1STR  C0N   5861   3.971   2.663  17.404
    1STR  O0O   5862   3.941   2.792   0.020
    1STR  C0P   5863   4.013   2.904  17.429
    1STR  O0Q   5864   4.120   2.906  17.370
    1STR  N0R   5865   3.948   3.011   0.037
    1STR  C0S   5866   3.977   3.149   0.044
    1STR  C0T   5867   3.917   3.214   0.154
    1STR  C0U   5868   3.947   3.348   0.183
    1STR  C0V   5869   4.029   3.423   0.097
    1STR  C0W   5870   4.087   3.553   0.150
    1STR  C0X   5871   4.071   3.369  17.413
    1STR  N0Y   5872   4.131   3.453  17.317
    1STR  BCK2  5873   4.079   3.569  17.268
    1STR  O10   5874   4.141   3.638  17.187
    1STR  C13   5875   4.053   3.228  17.392
    1STR  C14   5876   4.031   1.293   0.212
    1STR  C15   5877   4.014   1.155   0.226
    1STR  C16   5878   4.086   1.064   0.147
    1STR  C17   5879   4.060   0.916   0.174
    1STR  H1B   5880   4.347   1.061  17.377
    1STR  H1C   5881   4.271   1.292  17.411
    1STR  H1D   5882   4.211   1.518   0.039
    1STR  H1E   5883   3.950   1.815   0.176
    1STR  H1F   5884   4.228   1.889   0.284
    1STR  H1G   5885   4.075   1.962   0.334
    1STR  H1H   5886   4.107   1.793   0.369
    1STR  H1I   5887   4.024   1.910  17.403
    1STR  H1J   5888   4.176   1.963   0.034
    1STR  H1K   5889   4.114   2.184  17.410
    1STR  H1M   5890   3.810   2.149  17.380
    1STR  H1N   5891   3.931   2.072  17.278
    1STR  H1O   5892   3.911   2.246  17.273
    1STR  H1P   5893   3.887   2.306   0.134
    1STR  H1Q   5894   4.056   2.311   0.176
    1STR  H1R   5895   3.900   2.551   0.136
    1STR  H1S   5896   4.103   2.681   0.206
    1STR  H1T   5897   4.203   2.587   0.096
    1STR  H1U   5898   4.130   2.510   0.237
    1STR  H1V   5899   3.886   2.635  17.341
    1STR  H1W   5900   4.057   2.667  17.338
    1STR  H1X   5901   3.865   2.980   0.083
    1STR  H1Y   5902   3.854   3.160   0.222
    1STR  H1Z   5903   3.908   3.392   0.274
    1STR  H20   5904   4.192   3.535   0.174
    1STR  H21   5905   4.082   3.636   0.080
    1STR  H22   5906   4.039   3.584   0.243
    1STR  H23   5907   4.220   3.426  17.278
    1STR  H27   5908   4.095   3.180  17.305
    1STR  H28   5909   3.971   1.355   0.277
    1STR  H29   5910   3.943   1.119   0.299
    1STR  H2A   5911   4.027   0.865   0.083
    1STR  H2B   5912   3.980   0.901   0.247
    1STR  H2C   5913   4.150   0.868   0.213
    1STR  BCK1  5914   4.343   0.902   4.331
    1STR  O03   5915   4.415   0.825   4.268
    1STR  N04   5916   4.375   1.025   4.379
    1STR  C05   5917   4.493   1.105   4.390
    1STR  C06   5918   4.481   1.248   4.397
    1STR  C07   5919   4.593   1.337   4.413
    1STR  N08   5920   4.576   1.478   4.423
    1STR  C09   5921   4.666   1.579   4.433
    1STR  O0A   5922   4.788   1.564   4.434
    1STR  O0B   5923   4.608   1.704   4.443
    1STR  C0C   5924   4.688   1.826   4.449
    1STR  C0D   5925   4.733   1.864   4.307
    1STR  C0E   5926   4.611   1.945   4.516
    1STR  O0F   5927   4.687   2.068   4.522
    1STR  C0G   5928   4.624   2.183   4.584
    1STR  C0H   5929   4.624   2.163   4.736
    1STR  C0I   5930   4.694   2.318   4.545
    1STR  O0J   5931   4.626   2.439   4.592
    1STR  C0K   5932   4.675   2.569   4.548
    1STR  C0M   5933   4.646   2.586   4.398
    1STR  C0N   5934   4.609   2.690   4.624
    1STR  O0O   5935   4.643   2.824   4.576
    1STR  C0P   5936   4.551   2.916   4.523
    1STR  O0Q   5937   4.435   2.890   4.494
    1STR  N0R   5938   4.609   3.037   4.510
    1STR  C0S   5939   4.582   3.171   4.463
    1STR  C0T   5940   4.689   3.257   4.491
    1STR  C0U   5941   4.689   3.390   4.448
    1STR  C0V   5942   4.582   3.444   4.374
    1STR  C0W   5943   4.605   3.586   4.326
    1STR  C0X   5944   4.465   3.368   4.344
    1STR  N0Y   5945   4.354   3.419   4.266
    1STR  BCK2  5946   4.301   3.539   4.219
    1STR  O10   5947   4.334   3.653   4.251
    1STR  C13   5948   4.470   3.228   4.391
    1STR  C14   5949   4.720   1.276   4.421
    1STR  C15   5950   4.735   1.137   4.417
    1STR  C16   5951   4.624   1.051   4.405
    1STR  C17   5952   4.652   0.902   4.417
    1STR  H1B   5953   4.293   1.073   4.413
    1STR  H1C   5954   4.383   1.292   4.390
    1STR  H1D   5955   4.482   1.514   4.422
    1STR  H1E   5956   4.777   1.805   4.509
    1STR  H1F   5957   4.648   1.884   4.241
    1STR  H1G   5958   4.795   1.955   4.309
    1STR  H1H   5959   4.793   1.786   4.261
    1STR  H1I   5960   4.584   1.913   4.616
    1STR  H1J   5961   4.518   1.962   4.462
    1STR  H1K   5962   4.521   2.189   4.548
    1STR  H1M   5963   4.725   2.152   4.775
    1STR  H1N   5964   4.567   2.076   4.767
    1STR  H1O   5965   4.579   2.249   4.786
    1STR  H1P   5966   4.797   2.317   4.582
    1STR  H1Q   5967   4.702   2.319   4.437
    1STR  H1R   5968   4.783   2.572   4.564
    1STR  H1S   5969   4.685   2.682   4.363
    1STR  H1T   5970   4.538   2.587   4.381
    1STR  H1U   5971   4.691   2.509   4.336
    1STR  H1V   5972   4.640   2.684   4.728
    1STR  H1W   5973   4.500   2.678   4.627
    1STR  H1X   5974   4.701   3.027   4.548
    1STR  H1Y   5975   4.775   3.222   4.546
    1STR  H1Z   5976   4.776   3.450   4.471
    1STR  H20   5977   4.569   3.600   4.225
    1STR  H21   5978   4.557   3.657   4.394
    1STR  H22   5979   4.711   3.610   4.323
    1STR  H23   5980   4.295   3.343   4.237
    1STR  H27   5981   4.386   3.162   4.371
    1STR  H28   5982   4.811   1.334   4.432
    1STR  H29   5983   4.834   1.096   4.427
    1STR  H2A   5984   4.575   0.852   4.475
    1STR  H2B   5985   4.747   0.883   4.466
    1STR  H2C   5986   4.657   0.857   4.318
    1STR  BCK1  5987   4.300   0.882   8.678
    1STR  O03   5988   4.191   0.826   8.680
    1STR  N04   5989   4.327   1.008   8.636
    1STR  C05   5990   4.254   1.102   8.560
    1STR  C06   5991   4.275   1.243   8.579
    1STR  C07   5992   4.206   1.343   8.501
    1STR  N08   5993   4.232   1.482   8.517
    1STR  C09   5994   4.177   1.588   8.453
    1STR  O0A   5995   4.089   1.580   8.368
    1STR  O0B   5996   4.229   1.708   8.492
    1STR  C0C   5997   4.177   1.831   8.435
    1STR  C0D   5998   4.048   1.871   8.509
    1STR  C0E   5999   4.282   1.945   8.439
    1STR  O0F   6000   4.230   2.065   8.379
    1STR  C0G   6001   4.319   2.178   8.377
    1STR  C0H   6002   4.421   2.160   8.264
    1STR  C0I   6003   4.238   2.309   8.358
    1STR  O0J   6004   4.322   2.426   8.369
    1STR  C0K   6005   4.258   2.555   8.361
    1STR  C0M   6006   4.181   2.584   8.490
    1STR  C0N   6007   4.366   2.666   8.338
    1STR  O0O   6008   4.310   2.795   8.310
    1STR  C0P   6009   4.326   2.906   8.390
    1STR  O0Q   6010   4.375   2.909   8.502
    1STR  N0R   6011   4.273   3.008   8.322
    1STR  C0S   6012   4.233   3.142   8.341
    1STR  C0T   6013   4.142   3.180   8.240
    1STR  C0U   6014   4.066   3.296   8.253
    1STR  C0V   6015   4.086   3.382   8.361
    1STR  C0W   6016   3.974   3.479   8.394
    1STR  C0X   6017   4.201   3.367   8.443
    1STR  N0Y   6018   4.242   3.479   8.519
    1STR  BCK2  6019   4.219   3.609   8.487
    1STR  O10   6020   4.259   3.701   8.557
    1STR  C13   6021   4.268   3.239   8.440
    1STR  C14   6022   4.113   1.295   8.406
    1STR  C15   6023   4.094   1.159   8.384
    1STR  C16   6024   4.166   1.062   8.456
    1STR  C17   6025   4.149   0.919   8.409
    1STR  H1B   6026   4.416   1.041   8.670
    1STR  H1C   6027   4.345   1.276   8.654
    1STR  H1D   6028   4.301   1.510   8.583
    1STR  H1E   6029   4.152   1.814   8.330
    1STR  H1F   6030   4.066   1.890   8.615
    1STR  H1G   6031   4.005   1.961   8.466
    1STR  H1H   6032   3.972   1.793   8.502
    1STR  H1I   6033   4.370   1.911   8.385
    1STR  H1J   6034   4.312   1.964   8.541
    1STR  H1K   6035   4.370   2.185   8.473
    1STR  H1M   6036   4.372   2.149   8.167
    1STR  H1N   6037   4.484   2.073   8.279
    1STR  H1O   6038   4.487   2.246   8.258
    1STR  H1P   6039   4.187   2.308   8.261
    1STR  H1Q   6040   4.159   2.312   8.433
    1STR  H1R   6041   4.190   2.555   8.276
    1STR  H1S   6042   4.132   2.681   8.485
    1STR  H1T   6043   4.249   2.587   8.576
    1STR  H1U   6044   4.104   2.510   8.511
    1STR  H1V   6045   4.424   2.638   8.250
    1STR  H1W   6046   4.436   2.670   8.421
    1STR  H1X   6047   4.246   2.970   8.234
    1STR  H1Y   6048   4.122   3.116   8.156
    1STR  H1Z   6049   3.988   3.317   8.182
    1STR  H20   6050   3.975   3.506   8.500
    1STR  H21   6051   3.982   3.569   8.333
    1STR  H22   6052   3.878   3.433   8.375
    1STR  H23   6053   4.302   3.467   8.599
    1STR  H27   6054   4.345   3.216   8.512
    1STR  H28   6055   4.054   1.360   8.344
    1STR  H29   6056   4.024   1.128   8.308
    1STR  H2A   6057   4.244   0.867   8.413
    1STR  H2B   6058   4.114   0.915   8.306
    1STR  H2C   6059   4.076   0.868   8.471
    1STR  BCK1  6060   4.274   0.901  13.072
    1STR  O03   6061   4.336   0.809  13.124
    1STR  N04   6062   4.268   1.031  13.111
    1STR  C05   6063   4.296   1.108  13.227
    1STR  C06   6064   4.298   1.251  13.215
    1STR  C07   6065   4.313   1.340  13.325
    1STR  N08   6066   4.308   1.481  13.308
    1STR  C09   6067   4.310   1.583  13.397
    1STR  O0A   6068   4.319   1.568  13.519
    1STR  O0B   6069   4.300   1.706  13.338
    1STR  C0C   6070   4.302   1.827  13.417
    1STR  C0D   6071   4.447   1.867  13.448
    1STR  C0E   6072   4.227   1.944  13.345
    1STR  O0F   6073   4.227   2.066  13.422
    1STR  C0G   6074   4.160   2.180  13.363
    1STR  C0H   6075   4.008   2.161  13.376
    1STR  C0I   6076   4.205   2.313  13.431
    1STR  O0J   6077   4.150   2.431  13.367
    1STR  C0K   6078   4.193   2.561  13.414
    1STR  C0M   6079   4.337   2.587  13.370
    1STR  C0N   6080   4.100   2.674  13.357
    1STR  O0O   6081   4.132   2.810  13.395
    1STR  C0P   6082   4.149   2.912  13.304
    1STR  O0Q   6083   4.167   2.897  13.183
    1STR  N0R   6084   4.146   3.031  13.366
    1STR  C0S   6085   4.167   3.168  13.334
    1STR  C0T   6086   4.196   3.246  13.447
    1STR  C0U   6087   4.234   3.380  13.435
    1STR  C0V   6088   4.239   3.443  13.309
    1STR  C0W   6089   4.315   3.574  13.302
    1STR  C0X   6090   4.191   3.377  13.192
    1STR  N0Y   6091   4.188   3.445  13.066
    1STR  BCK2  6092   4.140   3.568  13.026
    1STR  O10   6093   4.155   3.606  12.910
    1STR  C13   6094   4.162   3.236  13.207
    1STR  C14   6095   4.331   1.281  13.452
    1STR  C15   6096   4.332   1.142  13.468
    1STR  C16   6097   4.313   1.055  13.358
    1STR  C17   6098   4.309   0.907  13.391
    1STR  H1B   6099   4.235   1.088  13.035
    1STR  H1C   6100   4.285   1.294  13.117
    1STR  H1D   6101   4.301   1.516  13.214
    1STR  H1E   6102   4.250   1.809  13.511
    1STR  H1F   6103   4.504   1.886  13.358
    1STR  H1G   6104   4.450   1.957  13.509
    1STR  H1H   6105   4.498   1.788  13.505
    1STR  H1I   6106   4.125   1.911  13.326
    1STR  H1J   6107   4.274   1.962  13.248
    1STR  H1K   6108   4.187   2.186  13.258
    1STR  H1M   6109   3.978   2.150  13.480
    1STR  H1N   6110   3.972   2.073  13.322
    1STR  H1O   6111   3.955   2.247  13.336
    1STR  H1P   6112   4.178   2.311  13.537
    1STR  H1Q   6113   4.314   2.315  13.428
    1STR  H1R   6114   4.187   2.563  13.523
    1STR  H1S   6115   4.372   2.684  13.406
    1STR  H1T   6116   4.344   2.588  13.261
    1STR  H1U   6117   4.407   2.512  13.407
    1STR  H1V   6118   3.998   2.654  13.393
    1STR  H1W   6119   4.094   2.665  13.248
    1STR  H1X   6120   4.130   3.013  13.464
    1STR  H1Y   6121   4.198   3.202  13.546
    1STR  H1Z   6122   4.266   3.432  13.524
    1STR  H20   6123   4.402   3.560  13.238
    1STR  H21   6124   4.255   3.656  13.263
    1STR  H22   6125   4.353   3.603  13.400
    1STR  H23   6126   4.229   3.395  12.989
    1STR  H27   6127   4.136   3.178  13.119
    1STR  H28   6128   4.344   1.340  13.542
    1STR  H29   6129   4.345   1.102  13.567
    1STR  H2A   6130   4.227   0.858  13.339
    1STR  H2B   6131   4.295   0.889  13.497
    1STR  H2C   6132   4.403   0.860  13.362
    1STR  BCK1  6133   4.322   5.262  17.377
    1STR  O03   6134   4.319   5.199  17.272
    1STR  N04   6135   4.382   5.382  17.401
    1STR  C05   6136   4.468   5.466  17.325
    1STR  C06   6137   4.464   5.608  17.345
    1STR  C07   6138   4.549   5.700  17.274
    1STR  N08   6139   4.545   5.840  17.298
    1STR  C09   6140   4.607   5.943  17.236
    1STR  O0A   6141   4.682   5.930  17.139
    1STR  O0B   6142   4.578   6.066  17.291
    1STR  C0C   6143   4.630   6.188  17.233
    1STR  C0D   6144   4.545   6.227  17.111
    1STR  C0E   6145   4.636   6.305  17.336
    1STR  O0F   6146   4.688   6.428  17.279
    1STR  C0G   6147   4.698   6.542  17.368
    1STR  C0H   6148   4.820   6.522   0.020
    1STR  C0I   6149   4.711   6.676  17.287
    1STR  O0J   6150   4.707   6.796  17.369
    1STR  C0K   6151   4.702   6.925  17.301
    1STR  C0M   6152   4.565   6.943  17.235
    1STR  C0N   6153   4.727   7.047  17.396
    1STR  O0O   6154   4.721   7.177  17.330
    1STR  C0P   6155   4.623   7.273  17.351
    1STR  O0Q   6156   4.523   7.259  17.420
    1STR  N0R   6157   4.657   7.385  17.285
    1STR  C0S   6158   4.613   7.519  17.260
    1STR  C0T   6159   4.718   7.598  17.209
    1STR  C0U   6160   4.699   7.732  17.176
    1STR  C0V   6161   4.574   7.795  17.189
    1STR  C0W   6162   4.572   7.945  17.163
    1STR  C0X   6163   4.460   7.721  17.234
    1STR  N0Y   6164   4.332   7.785  17.244
    1STR  BCK2  6165   4.277   7.898  17.187
    1STR  O10   6166   4.164   7.937  17.215
    1STR  C13   6167   4.484   7.582  17.272
    1STR  C14   6168   4.640   5.643  17.182
    1STR  C15   6169   4.649   5.504  17.165
    1STR  C16   6170   4.568   5.415  17.238
    1STR  C17   6171   4.599   5.267  17.225
    1STR  H1B   6172   4.355   5.421   0.050
    1STR  H1C   6173   4.393   5.649  17.415
    1STR  H1D   6174   4.486   5.873  17.373
    1STR  H1E   6175   4.732   6.169  17.198
    1STR  H1F   6176   4.441   6.246  17.139
    1STR  H1G   6177   4.583   6.317  17.064
    1STR  H1H   6178   4.545   6.149  17.035
    1STR  H1I   6179   4.699   6.273  17.419
    1STR  H1J   6180   4.537   6.323  17.376
    1STR  H1K   6181   4.607   6.548  17.428
    1STR  H1M   6182   4.912   6.511  17.403
    1STR  H1N   6183   4.809   6.435   0.084
    1STR  H1O   6184   4.832   6.608   0.086
    1STR  H1P   6185   4.803   6.674  17.228
    1STR  H1Q   6186   4.629   6.677  17.215
    1STR  H1R   6187   4.780   6.925  17.224
    1STR  H1S   6188   4.561   7.039  17.182
    1STR  H1T   6189   4.487   6.945  17.311
    1STR  H1U   6190   4.541   6.866  17.163
    1STR  H1V   6191   4.826   7.036  17.439
    1STR  H1W   6192   4.658   7.044   0.041
    1STR  H1X   6193   4.747   7.365  17.245
    1STR  H1Y   6194   4.817   7.558  17.197
    1STR  H1Z   6195   4.784   7.788  17.141
    1STR  H20   6196   4.492   7.976  17.096
    1STR  H21   6197   4.563   7.997  17.258
    1STR  H22   6198   4.664   7.978  17.116
    1STR  H23   6199   4.266   7.741  17.307
    1STR  H27   6200   4.402   7.522  17.311
    1STR  H28   6201   4.707   5.703  17.123
    1STR  H29   6202   4.723   5.465  17.096
    1STR  H2A   6203   4.588   5.216  17.320
    1STR  H2B   6204   4.701   5.251  17.192
    1STR  H2C   6205   4.533   5.221  17.152
    1STR  BCK1  6206   4.268   5.243   4.302
    1STR  O03   6207   4.366   5.172   4.325
    1STR  N04   6208   4.274   5.377   4.310
    1STR  C05   6209   4.168   5.469   4.321
    1STR  C06   6210   4.194   5.610   4.317
    1STR  C07   6211   4.091   5.707   4.337
    1STR  N08   6212   4.118   5.846   4.330
    1STR  C09   6213   4.034   5.951   4.338
    1STR  O0A   6214   3.912   5.943   4.357
    1STR  O0B   6215   4.097   6.071   4.324
    1STR  C0C   6216   4.020   6.193   4.333
    1STR  C0D   6217   4.002   6.233   4.480
    1STR  C0E   6218   4.088   6.306   4.251
    1STR  O0F   6219   4.009   6.426   4.256
    1STR  C0G   6220   4.062   6.538   4.184
    1STR  C0H   6221   4.035   6.520   4.034
    1STR  C0I   6222   3.997   6.668   4.237
    1STR  O0J   6223   4.056   6.784   4.177
    1STR  C0K   6224   4.008   6.911   4.222
    1STR  C0M   6225   4.067   6.943   4.360
    1STR  C0N   6226   4.049   7.021   4.120
    1STR  O0O   6227   3.987   7.148   4.149
    1STR  C0P   6228   4.058   7.261   4.171
    1STR  O0Q   6229   4.180   7.269   4.185
    1STR  N0R   6230   3.972   7.363   4.179
    1STR  C0S   6231   3.983   7.500   4.211
    1STR  C0T   6232   3.869   7.555   4.271
    1STR  C0U   6233   3.870   7.685   4.323
    1STR  C0V   6234   3.982   7.768   4.304
    1STR  C0W   6235   3.996   7.893   4.389
    1STR  C0X   6236   4.086   7.725   4.218
    1STR  N0Y   6237   4.174   7.822   4.168
    1STR  BCK2  6238   4.131   7.937   4.111
    1STR  O10   6239   4.209   8.023   4.069
    1STR  C13   6240   4.093   7.587   4.182
    1STR  C14   6241   3.961   5.659   4.365
    1STR  C15   6242   3.933   5.522   4.367
    1STR  C16   6243   4.033   5.427   4.344
    1STR  C17   6244   3.989   5.281   4.349
    1STR  H1B   6245   4.368   5.411   4.317
    1STR  H1C   6246   4.294   5.643   4.298
    1STR  H1D   6247   4.213   5.876   4.315
    1STR  H1E   6248   3.922   6.177   4.289
    1STR  H1F   6249   4.097   6.251   4.529
    1STR  H1G   6250   3.942   6.324   4.489
    1STR  H1H   6251   3.950   6.155   4.536
    1STR  H1I   6252   4.099   6.272   4.148
    1STR  H1J   6253   4.188   6.325   4.290
    1STR  H1K   6254   4.169   6.545   4.202
    1STR  H1M   6255   3.928   6.509   4.014
    1STR  H1N   6256   4.085   6.432   3.993
    1STR  H1O   6257   4.070   6.606   3.978
    1STR  H1P   6258   3.889   6.666   4.219
    1STR  H1Q   6259   4.010   6.670   4.345
    1STR  H1R   6260   3.899   6.909   4.228
    1STR  H1S   6261   4.032   7.041   4.395
    1STR  H1T   6262   4.176   6.947   4.356
    1STR  H1U   6263   4.039   6.871   4.436
    1STR  H1V   6264   4.015   6.991   4.021
    1STR  H1W   6265   4.157   7.030   4.113
    1STR  H1X   6266   3.879   7.328   4.167
    1STR  H1Y   6267   3.780   7.495   4.286
    1STR  H1Z   6268   3.785   7.722   4.378
    1STR  H20   6269   4.084   7.881   4.453
    1STR  H21   6270   4.010   7.984   4.332
    1STR  H22   6271   3.911   7.908   4.455
    1STR  H23   6272   4.273   7.806   4.165
    1STR  H27   6273   4.179   7.548   4.129
    1STR  H28   6274   3.878   5.723   4.385
    1STR  H29   6275   3.832   5.491   4.388
    1STR  H2A   6276   4.009   5.234   4.253
    1STR  H2B   6277   3.883   5.272   4.368
    1STR  H2C   6278   4.041   5.228   4.429
    1STR  BCK1  6279   4.324   5.261   8.719
    1STR  O03   6280   4.411   5.177   8.702
    1STR  N04   6281   4.339   5.388   8.767
    1STR  C05   6282   4.441   5.465   8.830
    1STR  C06   6283   4.431   5.609   8.828
    1STR  C07   6284   4.523   5.697   8.894
    1STR  N08   6285   4.506   5.839   8.891
    1STR  C09   6286   4.578   5.939   8.947
    1STR  O0A   6287   4.680   5.923   9.013
    1STR  O0B   6288   4.524   6.064   8.923
    1STR  C0C   6289   4.589   6.185   8.971
    1STR  C0D   6290   4.704   6.224   8.875
    1STR  C0E   6291   4.489   6.304   8.987
    1STR  O0F   6292   4.550   6.428   9.033
    1STR  C0G   6293   4.463   6.542   9.051
    1STR  C0H   6294   4.381   6.523   9.179
    1STR  C0I   6295   4.543   6.677   9.056
    1STR  O0J   6296   4.459   6.797   9.059
    1STR  C0K   6297   4.523   6.928   9.050
    1STR  C0M   6298   4.578   6.948   8.908
    1STR  C0N   6299   4.422   7.045   9.081
    1STR  O0O   6300   4.471   7.182   9.062
    1STR  C0P   6301   4.413   7.275   8.975
    1STR  O0Q   6302   4.329   7.249   8.890
    1STR  N0R   6303   4.461   7.399   8.999
    1STR  C0S   6304   4.453   7.533   8.948
    1STR  C0T   6305   4.542   7.619   9.015
    1STR  C0U   6306   4.559   7.751   8.975
    1STR  C0V   6307   4.486   7.806   8.867
    1STR  C0W   6308   4.532   7.944   8.824
    1STR  C0X   6309   4.385   7.732   8.800
    1STR  N0Y   6310   4.303   7.785   8.692
    1STR  BCK2  6311   4.263   7.908   8.638
    1STR  O10   6312   4.290   8.019   8.681
    1STR  C13   6313   4.373   7.592   8.842
    1STR  C14   6314   4.629   5.636   8.963
    1STR  C15   6315   4.642   5.496   8.968
    1STR  C16   6316   4.549   5.410   8.906
    1STR  C17   6317   4.568   5.262   8.929
    1STR  H1B   6318   4.255   5.441   8.753
    1STR  H1C   6319   4.349   5.653   8.773
    1STR  H1D   6320   4.427   5.875   8.841
    1STR  H1E   6321   4.632   6.165   9.069
    1STR  H1F   6322   4.667   6.244   8.775
    1STR  H1G   6323   4.755   6.314   8.911
    1STR  H1H   6324   4.779   6.146   8.869
    1STR  H1I   6325   4.411   6.272   9.057
    1STR  H1J   6326   4.439   6.322   8.891
    1STR  H1K   6327   4.395   6.548   8.965
    1STR  H1M   6328   4.445   6.511   9.266
    1STR  H1N   6329   4.316   6.435   9.174
    1STR  H1O   6330   4.316   6.608   9.197
    1STR  H1P   6331   4.610   6.676   9.142
    1STR  H1Q   6332   4.607   6.679   8.968
    1STR  H1R   6333   4.605   6.931   9.122
    1STR  H1S   6334   4.629   7.044   8.901
    1STR  H1T   6335   4.497   6.947   8.836
    1STR  H1U   6336   4.650   6.872   8.879
    1STR  H1V   6337   4.394   7.036   9.186
    1STR  H1W   6338   4.330   7.031   9.025
    1STR  H1X   6339   4.523   7.389   9.077
    1STR  H1Y   6340   4.602   7.584   9.097
    1STR  H1Z   6341   4.632   7.811   9.027
    1STR  H20   6342   4.536   7.951   8.715
    1STR  H21   6343   4.466   8.021   8.863
    1STR  H22   6344   4.633   7.965   8.860
    1STR  H23   6345   4.259   7.711   8.641
    1STR  H27   6346   4.303   7.526   8.793
    1STR  H28   6347   4.704   5.693   9.015
    1STR  H29   6348   4.724   5.454   9.024
    1STR  H2A   6349   4.473   5.212   8.947
    1STR  H2B   6350   4.631   5.243   9.016
    1STR  H2C   6351   4.617   5.216   8.842
    1STR  BCK1  6352   4.294   5.253  13.033
    1STR  O03   6353   4.205   5.199  12.969
    1STR  N04   6354   4.351   5.374  13.008
    1STR  C05   6355   4.342   5.464  12.900
    1STR  C06   6356   4.352   5.605  12.923
    1STR  C07   6357   4.345   5.701  12.816
    1STR  N08   6358   4.359   5.841  12.840
    1STR  C09   6359   4.348   5.946  12.756
    1STR  O0A   6360   4.317   5.937  12.637
    1STR  O0B   6361   4.373   6.066  12.815
    1STR  C0C   6362   4.359   6.189  12.740
    1STR  C0D   6363   4.210   6.229  12.734
    1STR  C0E   6364   4.445   6.304  12.799
    1STR  O0F   6365   4.433   6.425  12.722
    1STR  C0G   6366   4.509   6.539  12.768
    1STR  C0H   6367   4.656   6.520  12.728
    1STR  C0I   6368   4.451   6.671  12.709
    1STR  O0J   6369   4.515   6.788  12.763
    1STR  C0K   6370   4.462   6.916  12.722
    1STR  C0M   6371   4.327   6.941  12.791
    1STR  C0N   6372   4.558   7.033  12.759
    1STR  O0O   6373   4.511   7.160  12.710
    1STR  C0P   6374   4.469   7.264  12.790
    1STR  O0Q   6375   4.456   7.263  12.912
    1STR  N0R   6376   4.447   7.368  12.709
    1STR  C0S   6377   4.408   7.504  12.709
    1STR  C0T   6378   4.441   7.565  12.587
    1STR  C0U   6379   4.413   7.699  12.562
    1STR  C0V   6380   4.347   7.778  12.658
    1STR  C0W   6381   4.333   7.925  12.622
    1STR  C0X   6382   4.303   7.722  12.780
    1STR  N0Y   6383   4.227   7.801  12.871
    1STR  BCK2  6384   4.154   7.914  12.846
    1STR  O10   6385   4.099   7.977  12.936
    1STR  C13   6386   4.339   7.584  12.807
    1STR  C14   6387   4.324   5.650  12.686
    1STR  C15   6388   4.319   5.512  12.662
    1STR  C16   6389   4.333   5.419  12.766
    1STR  C17   6390   4.345   5.274  12.725
    1STR  H1B   6391   4.407   5.406  13.086
    1STR  H1C   6392   4.366   5.641  13.023
    1STR  H1D   6393   4.382   5.871  12.933
    1STR  H1E   6394   4.394   6.172  12.638
    1STR  H1F   6395   4.169   6.248  12.833
    1STR  H1G   6396   4.197   6.320  12.675
    1STR  H1H   6397   4.150   6.151  12.687
    1STR  H1I   6398   4.549   6.271  12.801
    1STR  H1J   6399   4.416   6.322  12.902
    1STR  H1K   6400   4.501   6.545  12.877
    1STR  H1M   6401   4.667   6.510  12.620
    1STR  H1N   6402   4.701   6.433  12.774
    1STR  H1O   6403   4.715   6.607  12.758
    1STR  H1P   6404   4.460   6.669  12.600
    1STR  H1Q   6405   4.344   6.672  12.730
    1STR  H1R   6406   4.449   6.916  12.614
    1STR  H1S   6407   4.286   7.037  12.760
    1STR  H1T   6408   4.339   6.945  12.899
    1STR  H1U   6409   4.252   6.866  12.768
    1STR  H1V   6410   4.655   7.014  12.712
    1STR  H1W   6411   4.578   7.036  12.866
    1STR  H1X   6412   4.472   7.334  12.618
    1STR  H1Y   6413   4.491   7.510  12.509
    1STR  H1Z   6414   4.443   7.742  12.468
    1STR  H20   6415   4.231   7.946  12.592
    1STR  H21   6416   4.361   7.988  12.707
    1STR  H22   6417   4.398   7.954  12.540
    1STR  H23   6418   4.224   7.773  12.968
    1STR  H27   6419   4.311   7.537  12.901
    1STR  H28   6420   4.315   5.713  12.600
    1STR  H29   6421   4.307   5.478  12.560
    1STR  H2A   6422   4.413   5.220  12.791
    1STR  H2B   6423   4.384   5.264  12.624
    1STR  H2C   6424   4.247   5.226  12.727
    1STR  BCK1  6425   4.268   9.618  17.401
    1STR  O03   6426   4.296   9.527   0.037
    1STR  N04   6427   4.255   9.750  17.429
    1STR  C05   6428   4.218   9.829   0.101
    1STR  C06   6429   4.228   9.972   0.089
    1STR  C07   6430   4.183  10.063   0.189
    1STR  N08   6431   4.191  10.203   0.169
    1STR  C09   6432   4.145  10.306   0.245
    1STR  O0A   6433   4.087  10.293   0.352
    1STR  O0B   6434   4.170  10.427   0.188
    1STR  C0C   6435   4.130  10.549   0.254
    1STR  C0D   6436   4.236  10.589   0.359
    1STR  C0E   6437   4.106  10.664   0.152
    1STR  O0F   6438   4.064  10.785   0.217
    1STR  C0G   6439   4.039  10.898   0.131
    1STR  C0H   6440   3.904  10.880   0.060
    1STR  C0I   6441   4.041  11.029   0.214
    1STR  O0J   6442   4.029  11.146   0.130
    1STR  C0K   6443   4.037  11.275   0.194
    1STR  C0M   6444   4.183  11.305   0.233
    1STR  C0N   6445   3.985  11.386   0.098
    1STR  O0O   6446   3.981  11.518   0.156
    1STR  C0P   6447   4.038  11.627   0.096
    1STR  O0Q   6448   4.118  11.624   0.003
    1STR  N0R   6449   3.996  11.739   0.156
    1STR  C0S   6450   4.025  11.877   0.147
    1STR  C0T   6451   4.003  11.947   0.267
    1STR  C0U   6452   4.040  12.082   0.279
    1STR  C0V   6453   4.094  12.152   0.170
    1STR  C0W   6454   4.166  12.282   0.200
    1STR  C0X   6455   4.097  12.093   0.041
    1STR  N0Y   6456   4.135  12.170  17.368
    1STR  BCK2  6457   4.083  12.288  17.322
    1STR  O10   6458   4.129  12.344  17.224
    1STR  C13   6459   4.071  11.951   0.033
    1STR  C14   6460   4.130  10.007   0.307
    1STR  C15   6461   4.121   9.868   0.323
    1STR  C16   6462   4.162   9.779   0.222
    1STR  C17   6463   4.142   9.632   0.251
    1STR  H1B   6464   4.277   9.805  17.348
    1STR  H1C   6465   4.270  10.013  17.438
    1STR  H1D   6466   4.235  10.237   0.086
    1STR  H1E   6467   4.035  10.532   0.306
    1STR  H1F   6468   4.333  10.608   0.312
    1STR  H1G   6469   4.207  10.680   0.411
    1STR  H1H   6470   4.249  10.511   0.434
    1STR  H1I   6471   4.031  10.630   0.081
    1STR  H1J   6472   4.198  10.682   0.096
    1STR  H1K   6473   4.119  10.905   0.057
    1STR  H1M   6474   3.823  10.869   0.132
    1STR  H1N   6475   3.902  10.792  17.435
    1STR  H1O   6476   3.881  10.966  17.438
    1STR  H1P   6477   3.961  11.027   0.288
    1STR  H1Q   6478   4.135  11.032   0.269
    1STR  H1R   6479   3.975  11.274   0.284
    1STR  H1S   6480   4.191  11.402   0.281
    1STR  H1T   6481   4.247  11.307   0.144
    1STR  H1U   6482   4.225  11.231   0.301
    1STR  H1V   6483   3.883  11.361   0.070
    1STR  H1W   6484   4.042  11.386   0.005
    1STR  H1X   6485   3.933  11.713   0.230
    1STR  H1Y   6486   3.964  11.897   0.354
    1STR  H1Z   6487   4.032  12.129   0.376
    1STR  H20   6488   4.273  12.264   0.189
    1STR  H21   6489   4.139  12.363   0.132
    1STR  H22   6490   4.150  12.315   0.302
    1STR  H23   6491   4.210  12.135  17.311
    1STR  H27   6492   4.085  11.899  17.380
    1STR  H28   6493   4.094  10.067   0.389
    1STR  H29   6494   4.078   9.830   0.415
    1STR  H2A   6495   4.094   9.582   0.167
    1STR  H2B   6496   4.079   9.615   0.338
    1STR  H2C   6497   4.238   9.584   0.271
    1STR  BCK1  6498   4.341   9.623   4.313
    1STR  O03   6499   4.390   9.552   4.226
    1STR  N04   6500   4.385   9.745   4.356
    1STR  C05   6501   4.500   9.825   4.332
    1STR  C06   6502   4.490   9.968   4.344
    1STR  C07   6503   4.600  10.058   4.326
    1STR  N08   6504   4.587  10.199   4.342
    1STR  C09   6505   4.674  10.301   4.322
    1STR  O0A   6506   4.789  10.286   4.281
    1STR  O0B   6507   4.622  10.425   4.352
    1STR  C0C   6508   4.699  10.547   4.331
    1STR  C0D   6509   4.692  10.585   4.182
    1STR  C0E   6510   4.649  10.665   4.420
    1STR  O0F   6511   4.723  10.789   4.400
    1STR  C0G   6512   4.684  10.903   4.480
    1STR  C0H   6513   4.737  10.883   4.623
    1STR  C0I   6514   4.737  11.038   4.419
    1STR  O0J   6515   4.689  11.159   4.486
    1STR  C0K   6516   4.721  11.288   4.427
    1STR  C0M   6517   4.642  11.305   4.297
    1STR  C0N   6518   4.687  11.411   4.519
    1STR  O0O   6519   4.708  11.543   4.461
    1STR  C0P   6520   4.606  11.636   4.434
    1STR  O0Q   6521   4.486  11.614   4.444
    1STR  N0R   6522   4.660  11.754   4.397
    1STR  C0S   6523   4.625  11.887   4.356
    1STR  C0T   6524   4.738  11.970   4.353
    1STR  C0U   6525   4.730  12.103   4.311
    1STR  C0V   6526   4.609  12.161   4.270
    1STR  C0W   6527   4.618  12.308   4.232
    1STR  C0X   6528   4.488  12.086   4.270
    1STR  N0Y   6529   4.362  12.148   4.235
    1STR  BCK2  6530   4.323  12.267   4.176
    1STR  O10   6531   4.205  12.300   4.169
    1STR  C13   6532   4.499  11.947   4.315
    1STR  C14   6533   4.724   9.999   4.293
    1STR  C15   6534   4.738   9.859   4.284
    1STR  C16   6535   4.629   9.772   4.306
    1STR  C17   6536   4.660   9.624   4.309
    1STR  H1B   6537   4.318   9.788   4.416
    1STR  H1C   6538   4.394  10.011   4.368
    1STR  H1D   6539   4.498  10.233   4.374
    1STR  H1E   6540   4.803  10.527   4.356
    1STR  H1F   6541   4.590  10.605   4.150
    1STR  H1G   6542   4.751  10.676   4.163
    1STR  H1H   6543   4.733  10.507   4.118
    1STR  H1I   6544   4.658  10.633   4.524
    1STR  H1J   6545   4.544  10.682   4.401
    1STR  H1K   6546   4.575  10.909   4.482
    1STR  H1M   6547   4.845  10.871   4.625
    1STR  H1N   6548   4.693  10.796   4.672
    1STR  H1O   6549   4.712  10.969   4.686
    1STR  H1P   6550   4.847  11.037   4.419
    1STR  H1Q   6551   4.707  11.039   4.315
    1STR  H1R   6552   4.828  11.290   4.405
    1STR  H1S   6553   4.667  11.400   4.250
    1STR  H1T   6554   4.535  11.306   4.318
    1STR  H1U   6555   4.662  11.228   4.223
    1STR  H1V   6556   4.751  11.404   4.607
    1STR  H1W   6557   4.585  11.402   4.558
    1STR  H1X   6558   4.759  11.740   4.406
    1STR  H1Y   6559   4.835  11.933   4.384
    1STR  H1Z   6560   4.821  12.161   4.313
    1STR  H20   6561   4.560  12.333   4.144
    1STR  H21   6562   4.587  12.370   4.316
    1STR  H22   6563   4.721  12.335   4.208
    1STR  H23   6564   4.281  12.095   4.261
    1STR  H27   6565   4.412  11.884   4.318
    1STR  H28   6566   4.813  10.057   4.276
    1STR  H29   6567   4.836   9.819   4.262
    1STR  H2A   6568   4.604   9.574   4.388
    1STR  H2B   6569   4.766   9.606   4.329
    1STR  H2C   6570   4.636   9.578   4.213
    1STR  BCK1  6571   4.308   9.599   8.671
    1STR  O03   6572   4.213   9.535   8.715
    1STR  N04   6573   4.309   9.730   8.635
    1STR  C05   6574   4.209   9.823   8.597
    1STR  C06   6575   4.235   9.964   8.608
    1STR  C07   6576   4.142  10.064   8.565
    1STR  N08   6577   4.171  10.203   8.571
    1STR  C09   6578   4.097  10.309   8.530
    1STR  O0A   6579   3.986  10.302   8.480
    1STR  O0B   6580   4.159  10.429   8.550
    1STR  C0C   6581   4.090  10.552   8.516
    1STR  C0D   6582   3.995  10.592   8.629
    1STR  C0E   6583   4.190  10.666   8.483
    1STR  O0F   6584   4.121  10.786   8.445
    1STR  C0G   6585   4.203  10.899   8.412
    1STR  C0H   6586   4.261  10.880   8.270
    1STR  C0I   6587   4.120  11.029   8.421
    1STR  O0J   6588   4.202  11.146   8.402
    1STR  C0K   6589   4.138  11.274   8.415
    1STR  C0M   6590   4.112  11.305   8.563
    1STR  C0N   6591   4.227  11.385   8.353
    1STR  O0O   6592   4.160  11.512   8.341
    1STR  C0P   6593   4.202  11.626   8.404
    1STR  O0Q   6594   4.291  11.634   8.488
    1STR  N0R   6595   4.125  11.727   8.361
    1STR  C0S   6596   4.103  11.860   8.399
    1STR  C0T   6597   3.971  11.904   8.373
    1STR  C0U   6598   3.924  12.026   8.425
    1STR  C0V   6599   4.012  12.111   8.493
    1STR  C0W   6600   3.955  12.218   8.585
    1STR  C0X   6601   4.151  12.088   8.485
    1STR  N0Y   6602   4.236  12.198   8.501
    1STR  BCK2  6603   4.208  12.319   8.448
    1STR  O10   6604   4.284  12.415   8.460
    1STR  C13   6605   4.196  11.955   8.452
    1STR  C14   6606   4.019  10.018   8.513
    1STR  C15   6607   3.993   9.881   8.499
    1STR  C16   6608   4.087   9.784   8.536
    1STR  C17   6609   4.051   9.642   8.501
    1STR  H1B   6610   4.402   9.769   8.641
    1STR  H1C   6611   4.329   9.997   8.650
    1STR  H1D   6612   4.259  10.232   8.610
    1STR  H1E   6613   4.031  10.535   8.425
    1STR  H1F   6614   4.048  10.611   8.722
    1STR  H1G   6615   3.940  10.683   8.604
    1STR  H1H   6616   3.921  10.514   8.648
    1STR  H1I   6617   4.255  10.632   8.402
    1STR  H1J   6618   4.254  10.685   8.569
    1STR  H1K   6619   4.285  10.906   8.484
    1STR  H1M   6620   4.181  10.869   8.196
    1STR  H1N   6621   4.325  10.793   8.263
    1STR  H1O   6622   4.321  10.967   8.242
    1STR  H1P   6623   4.039  11.027   8.348
    1STR  H1Q   6624   4.073  11.032   8.519
    1STR  H1R   6625   4.043  11.272   8.361
    1STR  H1S   6626   4.065  11.402   8.575
    1STR  H1T   6627   4.206  11.308   8.619
    1STR  H1U   6628   4.048  11.232   8.611
    1STR  H1V   6629   4.254  11.355   8.251
    1STR  H1W   6630   4.322  11.395   8.406
    1STR  H1X   6631   4.061  11.689   8.294
    1STR  H1Y   6632   3.901  11.841   8.321
    1STR  H1Z   6633   3.820  12.051   8.416
    1STR  H20   6634   4.001  12.206   8.684
    1STR  H21   6635   3.974  12.320   8.554
    1STR  H22   6636   3.848  12.207   8.599
    1STR  H23   6637   4.327  12.188   8.544
    1STR  H27   6638   4.300  11.928   8.462
    1STR  H28   6639   3.941  10.083   8.479
    1STR  H29   6640   3.899   9.851   8.455
    1STR  H2A   6641   4.137   9.592   8.456
    1STR  H2B   6642   3.969   9.637   8.430
    1STR  H2C   6643   4.019   9.588   8.590
    1STR  BCK1  6644   4.290   9.620  13.084
    1STR  O03   6645   4.367   9.530  13.113
    1STR  N04   6646   4.292   9.750  13.127
    1STR  C05   6647   4.354   9.826  13.230
    1STR  C06   6648   4.350   9.970  13.219
    1STR  C07   6649   4.400  10.058  13.321
    1STR  N08   6650   4.389  10.200  13.307
    1STR  C09   6651   4.421  10.301  13.392
    1STR  O0A   6652   4.471  10.285  13.503
    1STR  O0B   6653   4.391  10.425  13.341
    1STR  C0C   6654   4.420  10.546  13.416
    1STR  C0D   6655   4.567  10.585  13.396
    1STR  C0E   6656   4.326  10.664  13.374
    1STR  O0F   6657   4.352  10.787  13.446
    1STR  C0G   6658   4.269  10.901  13.414
    1STR  C0H   6659   4.131  10.882  13.479
    1STR  C0I   6660   4.335  11.035  13.462
    1STR  O0J   6661   4.261  11.153  13.421
    1STR  C0K   6662   4.318  11.284  13.449
    1STR  C0M   6663   4.440  11.307  13.358
    1STR  C0N   6664   4.213  11.398  13.425
    1STR  O0O   6665   4.259  11.535  13.442
    1STR  C0P   6666   4.247  11.633  13.344
    1STR  O0Q   6667   4.221  11.612  13.226
    1STR  N0R   6668   4.268  11.755  13.397
    1STR  C0S   6669   4.280  11.891  13.353
    1STR  C0T   6670   4.336  11.974  13.451
    1STR  C0U   6671   4.368  12.107  13.423
    1STR  C0V   6672   4.341  12.165  13.297
    1STR  C0W   6673   4.408  12.299  13.272
    1STR  C0X   6674   4.266  12.094  13.198
    1STR  N0Y   6675   4.222  12.150  13.072
    1STR  BCK2  6676   4.193  12.274  13.016
    1STR  O10   6677   4.204  12.383  13.070
    1STR  C13   6678   4.243  11.953  13.228
    1STR  C14   6679   4.458   9.998  13.434
    1STR  C15   6680   4.464   9.859  13.447
    1STR  C16   6681   4.412   9.772  13.348
    1STR  C17   6682   4.418   9.624  13.379
    1STR  H1B   6683   4.233   9.806  13.068
    1STR  H1C   6684   4.306  10.014  13.132
    1STR  H1D   6685   4.350  10.236  13.222
    1STR  H1E   6686   4.403  10.527  13.522
    1STR  H1F   6687   4.590  10.605  13.291
    1STR  H1G   6688   4.591  10.676  13.453
    1STR  H1H   6689   4.634  10.507  13.431
    1STR  H1I   6690   4.223  10.632  13.391
    1STR  H1J   6691   4.336  10.682  13.267
    1STR  H1K   6692   4.259  10.907  13.306
    1STR  H1M   6693   4.139  10.870  13.587
    1STR  H1N   6694   4.079  10.794  13.440
    1STR  H1O   6695   4.067  10.968  13.459
    1STR  H1P   6696   4.345  11.033  13.571
    1STR  H1Q   6697   4.436  11.037  13.422
    1STR  H1R   6698   4.350  11.287  13.554
    1STR  H1S   6699   4.485  11.404  13.380
    1STR  H1T   6700   4.409  11.308  13.254
    1STR  H1U   6701   4.518  11.233  13.371
    1STR  H1V   6702   4.131  11.383  13.496
    1STR  H1W   6703   4.167  11.386  13.326
    1STR  H1X   6704   4.285  11.742  13.495
    1STR  H1Y   6705   4.362  11.936  13.548
    1STR  H1Z   6706   4.419  12.164  13.499
    1STR  H20   6707   4.463  12.295  13.178
    1STR  H21   6708   4.337  12.381  13.270
    1STR  H22   6709   4.480  12.322  13.351
    1STR  H23   6710   4.201  12.078  13.006
    1STR  H27   6711   4.195  11.889  13.154
    1STR  H28   6712   4.499  10.056  13.515
    1STR  H29   6713   4.509   9.818  13.536
    1STR  H2A   6714   4.325   9.575  13.353
    1STR  H2B   6715   4.436   9.606  13.485
    1STR  H2C   6716   4.500   9.578  13.324
    1STR  BCK1  6717   4.308  13.980  17.380
    1STR  O03   6718   4.269  13.920  17.280
    1STR  N04   6719   4.372  14.100  17.385
    1STR  C05   6720   4.427  14.186  17.287
    1STR  C06   6721   4.428  14.328  17.309
    1STR  C07   6722   4.484  14.420  17.215
    1STR  N08   6723   4.486  14.560  17.240
    1STR  C09   6724   4.523  14.664  17.161
    1STR  O0A   6725   4.560  14.653  17.045
    1STR  O0B   6726   4.514  14.786  17.224
    1STR  C0C   6727   4.542  14.908  17.152
    1STR  C0D   6728   4.420  14.948  17.067
    1STR  C0E   6729   4.584  15.025  17.247
    1STR  O0F   6730   4.613  15.147  17.177
    1STR  C0G   6731   4.653  15.261  17.256
    1STR  C0H   6732   4.799  15.242  17.302
    1STR  C0I   6733   4.637  15.394  17.176
    1STR  O0J   6734   4.661  15.513  17.255
    1STR  C0K   6735   4.635  15.641  17.191
    1STR  C0M   6736   4.484  15.663  17.177
    1STR  C0N   6737   4.693  15.762  17.272
    1STR  O0O   6738   4.672  15.890  17.208
    1STR  C0P   6739   4.588  15.990  17.256
    1STR  O0Q   6740   4.514  15.981  17.353
    1STR  N0R   6741   4.604  16.099  17.179
    1STR  C0S   6742   4.559  16.233  17.165
    1STR  C0T   6743   4.647  16.308  17.086
    1STR  C0U   6744   4.624  16.443  17.058
    1STR  C0V   6745   4.510  16.509  17.106
    1STR  C0W   6746   4.504  16.659  17.082
    1STR  C0X   6747   4.411  16.439  17.180
    1STR  N0Y   6748   4.292  16.506  17.221
    1STR  BCK2  6749   4.229  16.617  17.170
    1STR  O10   6750   4.129  16.665  17.222
    1STR  C13   6751   4.440  16.300  17.213
    1STR  C14   6752   4.538  14.365  17.096
    1STR  C15   6753   4.543  14.227  17.076
    1STR  C16   6754   4.492  14.137  17.171
    1STR  C17   6755   4.519  13.989  17.147
    1STR  H1B   6756   4.376  14.136   0.039
    1STR  H1C   6757   4.385  14.366  17.399
    1STR  H1D   6758   4.456  14.592  17.331
    1STR  H1E   6759   4.627  14.890  17.085
    1STR  H1F   6760   4.333  14.967  17.129
    1STR  H1G   6761   4.440  15.039  17.010
    1STR  H1H   6762   4.395  14.870  16.995
    1STR  H1I   6763   4.671  14.992  17.304
    1STR  H1J   6764   4.504  15.042  17.319
    1STR  H1K   6765   4.588  15.267  17.344
    1STR  H1M   6766   4.866  15.231  17.216
    1STR  H1N   6767   4.811  15.154  17.365
    1STR  H1O   6768   4.833  15.328  17.359
    1STR  H1P   6769   4.703  15.392  17.089
    1STR  H1Q   6770   4.535  15.395  17.137
    1STR  H1R   6771   4.682  15.641  17.093
    1STR  H1S   6772   4.464  15.758  17.129
    1STR  H1T   6773   4.437  15.665  17.275
    1STR  H1U   6774   4.435  15.586  17.118
    1STR  H1V   6775   4.801  15.748  17.281
    1STR  H1W   6776   4.656  15.763  17.375
    1STR  H1X   6777   4.676  16.074  17.113
    1STR  H1Y   6778   4.737  16.264  17.046
    1STR  H1Z   6779   4.697  16.497  16.999
    1STR  H20   6780   4.421  16.687  17.018
    1STR  H21   6781   4.494  16.711  17.178
    1STR  H22   6782   4.595  16.696  17.035
    1STR  H23   6783   4.243  16.469  17.301
    1STR  H27   6784   4.371  16.243  17.274
    1STR  H28   6785   4.580  14.427  17.019
    1STR  H29   6786   4.589  14.190  16.985
    1STR  H2A   6787   4.539  13.937  17.240
    1STR  H2B   6788   4.605  13.975  17.082
    1STR  H2C   6789   4.433  13.943  17.098
    1STR  BCK1  6790   4.254  13.968   4.312
    1STR  O03   6791   4.351  13.894   4.310
    1STR  N04   6792   4.265  14.101   4.327
    1STR  C05   6793   4.169  14.191   4.379
    1STR  C06   6794   4.190  14.332   4.369
    1STR  C07   6795   4.101  14.427   4.427
    1STR  N08   6796   4.122  14.566   4.413
    1STR  C09   6797   4.045  14.670   4.452
    1STR  O0A   6798   3.938  14.661   4.511
    1STR  O0B   6799   4.099  14.790   4.417
    1STR  C0C   6800   4.030  14.912   4.451
    1STR  C0D   6801   4.064  14.952   4.596
    1STR  C0E   6802   4.066  15.025   4.352
    1STR  O0F   6803   3.994  15.145   4.383
    1STR  C0G   6804   4.019  15.257   4.297
    1STR  C0H   6805   3.943  15.239   4.165
    1STR  C0I   6806   3.976  15.388   4.369
    1STR  O0J   6807   4.011  15.504   4.292
    1STR  C0K   6808   3.982  15.632   4.351
    1STR  C0M   6809   4.085  15.663   4.461
    1STR  C0N   6810   3.986  15.742   4.242
    1STR  O0O   6811   3.942  15.869   4.290
    1STR  C0P   6812   4.017  15.982   4.280
    1STR  O0Q   6813   4.135  15.987   4.247
    1STR  N0R   6814   3.942  16.087   4.314
    1STR  C0S   6815   3.966  16.224   4.332
    1STR  C0T   6816   3.884  16.286   4.428
    1STR  C0U   6817   3.905  16.419   4.467
    1STR  C0V   6818   4.003  16.497   4.403
    1STR  C0W   6819   4.047  16.627   4.469
    1STR  C0X   6820   4.069  16.447   4.288
    1STR  N0Y   6821   4.141  16.536   4.207
    1STR  BCK2  6822   4.092  16.650   4.154
    1STR  O10   6823   4.161  16.726   4.087
    1STR  C13   6824   4.059  16.306   4.260
    1STR  C14   6825   3.990  14.376   4.498
    1STR  C15   6826   3.968  14.238   4.509
    1STR  C16   6827   4.055  14.145   4.450
    1STR  C17   6828   4.020  13.998   4.471
    1STR  H1B   6829   4.357  14.136   4.307
    1STR  H1C   6830   4.277  14.368   4.316
    1STR  H1D   6831   4.206  14.597   4.367
    1STR  H1E   6832   3.922  14.896   4.444
    1STR  H1F   6833   4.171  14.970   4.609
    1STR  H1G   6834   4.011  15.043   4.625
    1STR  H1H   6835   4.034  14.874   4.666
    1STR  H1I   6836   4.041  14.991   4.251
    1STR  H1J   6837   4.173  15.043   4.354
    1STR  H1K   6838   4.127  15.264   4.277
    1STR  H1M   6839   3.836  15.229   4.183
    1STR  H1N   6840   3.976  15.152   4.109
    1STR  H1O   6841   3.957  15.326   4.100
    1STR  H1P   6842   3.869  15.386   4.389
    1STR  H1Q   6843   4.025  15.390   4.467
    1STR  H1R   6844   3.881  15.629   4.394
    1STR  H1S   6845   4.065  15.760   4.506
    1STR  H1T   6846   4.186  15.667   4.420
    1STR  H1U   6847   4.085  15.590   4.542
    1STR  H1V   6848   3.918  15.713   4.161
    1STR  H1W   6849   4.085  15.748   4.197
    1STR  H1X   6850   3.851  16.054   4.340
    1STR  H1Y   6851   3.807  16.230   4.480
    1STR  H1Z   6852   3.847  16.460   4.548
    1STR  H20   6853   4.147  16.610   4.510
    1STR  H21   6854   4.053  16.711   4.402
    1STR  H22   6855   3.982  16.654   4.553
    1STR  H23   6856   4.236  16.513   4.181
    1STR  H27   6857   4.119  16.262   4.182
    1STR  H28   6858   3.918  14.438   4.548
    1STR  H29   6859   3.882  14.204   4.565
    1STR  H2A   6860   4.005  13.949   4.376
    1STR  H2B   6861   3.928  13.986   4.528
    1STR  H2C   6862   4.100  13.948   4.526
    1STR  BCK1  6863   4.338  13.981   8.703
    1STR  O03   6864   4.419  13.901   8.657
    1STR  N04   6865   4.364  14.106   8.752
    1STR  C05   6866   4.479  14.185   8.784
    1STR  C06   6867   4.467  14.328   8.787
    1STR  C07   6868   4.574  14.417   8.824
    1STR  N08   6869   4.556  14.558   8.829
    1STR  C09   6870   4.643  14.659   8.858
    1STR  O0A   6871   4.761  14.643   8.885
    1STR  O0B   6872   4.584  14.784   8.854
    1STR  C0C   6873   4.661  14.905   8.877
    1STR  C0D   6874   4.736  14.944   8.748
    1STR  C0E   6875   4.572  15.024   8.926
    1STR  O0F   6876   4.645  15.148   8.948
    1STR  C0G   6877   4.570  15.263   8.995
    1STR  C0H   6878   4.537  15.243   9.144
    1STR  C0I   6879   4.647  15.398   8.973
    1STR  O0J   6880   4.570  15.518   9.004
    1STR  C0K   6881   4.626  15.649   8.972
    1STR  C0M   6882   4.630  15.667   8.820
    1STR  C0N   6883   4.544  15.769   9.033
    1STR  O0O   6884   4.586  15.904   8.995
    1STR  C0P   6885   4.505  15.996   8.927
    1STR  O0Q   6886   4.397  15.969   8.874
    1STR  N0R   6887   4.560  16.118   8.928
    1STR  C0S   6888   4.540  16.252   8.878
    1STR  C0T   6889   4.642  16.338   8.922
    1STR  C0U   6890   4.648  16.471   8.879
    1STR  C0V   6891   4.554  16.525   8.790
    1STR  C0W   6892   4.585  16.666   8.743
    1STR  C0X   6893   4.441  16.449   8.746
    1STR  N0Y   6894   4.340  16.501   8.655
    1STR  BCK2  6895   4.292  16.623   8.605
    1STR  O10   6896   4.324  16.735   8.639
    1STR  C13   6897   4.439  16.310   8.792
    1STR  C14   6898   4.697  14.356   8.856
    1STR  C15   6899   4.711  14.216   8.856
    1STR  C16   6900   4.604  14.130   8.823
    1STR  C17   6901   4.629  13.982   8.840
    1STR  H1B   6902   4.278  14.156   8.768
    1STR  H1C   6903   4.372  14.372   8.761
    1STR  H1D   6904   4.465  14.594   8.808
    1STR  H1E   6905   4.735  14.885   8.955
    1STR  H1F   6906   4.668  14.964   8.666
    1STR  H1G   6907   4.796  15.034   8.764
    1STR  H1H   6908   4.805  14.865   8.717
    1STR  H1I   6909   4.524  14.993   9.019
    1STR  H1J   6910   4.493  15.042   8.854
    1STR  H1K   6911   4.477  15.269   8.938
    1STR  H1M   6912   4.628  15.231   9.203
    1STR  H1N   6913   4.474  15.156   9.162
    1STR  H1O   6914   4.482  15.329   9.183
    1STR  H1P   6915   4.739  15.397   9.031
    1STR  H1Q   6916   4.677  15.399   8.868
    1STR  H1R   6917   4.728  15.652   9.011
    1STR  H1S   6918   4.676  15.763   8.795
    1STR  H1T   6919   4.529  15.667   8.779
    1STR  H1U   6920   4.688  15.590   8.769
    1STR  H1V   6921   4.553  15.762   9.142
    1STR  H1W   6922   4.438  15.755   9.013
    1STR  H1X   6923   4.644  16.109   8.984
    1STR  H1Y   6924   4.720  16.304   8.989
    1STR  H1Z   6925   4.731  16.531   8.914
    1STR  H20   6926   4.563  16.677   8.637
    1STR  H21   6927   4.529  16.739   8.801
    1STR  H22   6928   4.691  16.688   8.754
    1STR  H23   6929   4.285  16.426   8.617
    1STR  H27   6930   4.360  16.244   8.760
    1STR  H28   6931   4.784  14.413   8.884
    1STR  H29   6932   4.807  14.175   8.884
    1STR  H2A   6933   4.543  13.932   8.884
    1STR  H2B   6934   4.714  13.963   8.905
    1STR  H2C   6935   4.652  13.936   8.743
    1STR  BCK1  6936   4.296  13.966  13.038
    1STR  O03   6937   4.188  13.913  13.013
    1STR  N04   6938   4.337  14.090  13.000
    1STR  C05   6939   4.286  14.182  12.906
    1STR  C06   6940   4.303  14.324  12.928
    1STR  C07   6941   4.256  14.422  12.835
    1STR  N08   6942   4.278  14.561  12.854
    1STR  C09   6943   4.238  14.667  12.780
    1STR  O0A   6944   4.170  14.659  12.678
    1STR  O0B   6945   4.281  14.787  12.829
    1STR  C0C   6946   4.242  14.910  12.762
    1STR  C0D   6947   4.100  14.950  12.807
    1STR  C0E   6948   4.344  15.024  12.788
    1STR  O0F   6949   4.306  15.144  12.719
    1STR  C0G   6950   4.393  15.257  12.736
    1STR  C0H   6951   4.518  15.239  12.647
    1STR  C0I   6952   4.318  15.389  12.700
    1STR  O0J   6953   4.398  15.505  12.731
    1STR  C0K   6954   4.336  15.634  12.710
    1STR  C0M   6955   4.232  15.661  12.820
    1STR  C0N   6956   4.443  15.746  12.714
    1STR  O0O   6957   4.388  15.875  12.683
    1STR  C0P   6958   4.380  15.980  12.770
    1STR  O0Q   6959   4.409  15.981  12.889
    1STR  N0R   6960   4.336  16.083  12.697
    1STR  C0S   6961   4.299  16.219  12.701
    1STR  C0T   6962   4.271  16.262  12.570
    1STR  C0U   6963   4.223  16.389  12.544
    1STR  C0V   6964   4.201  16.480  12.648
    1STR  C0W   6965   4.139  16.611  12.604
    1STR  C0X   6966   4.233  16.447  12.783
    1STR  N0Y   6967   4.217  16.544  12.886
    1STR  BCK2  6968   4.172  16.672  12.881
    1STR  O10   6969   4.169  16.744  12.980
    1STR  C13   6970   4.282  16.313  12.808
    1STR  C14   6971   4.188  14.374  12.721
    1STR  C15   6972   4.175  14.237  12.696
    1STR  C16   6973   4.227  14.141  12.784
    1STR  C17   6974   4.223  13.997  12.737
    1STR  H1B   6975   4.417  14.121  13.053
    1STR  H1C   6976   4.353  14.357  13.017
    1STR  H1D   6977   4.331  14.590  12.934
    1STR  H1E   6978   4.240  14.893  12.654
    1STR  H1F   6979   4.096  14.969  12.914
    1STR  H1G   6980   4.068  15.041  12.756
    1STR  H1H   6981   4.028  14.872  12.783
    1STR  H1I   6982   4.442  14.990  12.754
    1STR  H1J   6983   4.351  15.043  12.895
    1STR  H1K   6984   4.423  15.264  12.841
    1STR  H1M   6985   4.490  15.229  12.542
    1STR  H1N   6986   4.576  15.152  12.675
    1STR  H1O   6987   4.583  15.326  12.656
    1STR  H1P   6988   4.290  15.388  12.595
    1STR  H1Q   6989   4.225  15.390  12.757
    1STR  H1R   6990   4.288  15.634  12.612
    1STR  H1S   6991   4.184  15.757  12.804
    1STR  H1T   6992   4.280  15.664  12.918
    1STR  H1U   6993   4.153  15.586  12.823
    1STR  H1V   6994   4.518  15.724  12.637
    1STR  H1W   6995   4.498  15.748  12.808
    1STR  H1X   6996   4.327  16.043  12.606
    1STR  H1Y   6997   4.285  16.196  12.486
    1STR  H1Z   6998   4.201  16.416  12.442
    1STR  H20   6999   4.046  16.626  12.658
    1STR  H21   7000   4.209  16.693  12.622
    1STR  H22   7001   4.114  16.613  12.498
    1STR  H23   7002   4.246  16.519  12.979
    1STR  H27   7003   4.306  16.281  12.909
    1STR  H28   7004   4.146  14.438  12.645
    1STR  H29   7005   4.126  14.205  12.605
    1STR  H2A   7006   4.312  13.944  12.769
    1STR  H2B   7007   4.219  13.991  12.629
    1STR  H2C   7008   4.134  13.948  12.777
    1STR  BCK1  7009   8.629   0.900  17.421
    1STR  O03   7010   8.679   0.808   0.044
    1STR  N04   7011   8.619   1.031   0.016
    1STR  C05   7012   8.623   1.108   0.135
    1STR  C06   7013   8.628   1.251   0.122
    1STR  C07   7014   8.620   1.341   0.233
    1STR  N08   7015   8.620   1.482   0.213
    1STR  C09   7016   8.603   1.584   0.301
    1STR  O0A   7017   8.585   1.570   0.422
    1STR  O0B   7018   8.606   1.706   0.240
    1STR  C0C   7019   8.591   1.828   0.317
    1STR  C0D   7020   8.726   1.868   0.379
    1STR  C0E   7021   8.534   1.944   0.230
    1STR  O0F   7022   8.516   2.066   0.305
    1STR  C0G   7023   8.464   2.179   0.233
    1STR  C0H   7024   8.312   2.160   0.213
    1STR  C0I   7025   8.494   2.311   0.310
    1STR  O0J   7026   8.453   2.429   0.236
    1STR  C0K   7027   8.484   2.559   0.292
    1STR  C0M   7028   8.635   2.586   0.279
    1STR  C0N   7029   8.404   2.671   0.217
    1STR  O0O   7030   8.424   2.805   0.266
    1STR  C0P   7031   8.458   2.911   0.183
    1STR  O0Q   7032   8.501   2.900   0.069
    1STR  N0R   7033   8.440   3.027   0.248
    1STR  C0S   7034   8.465   3.164   0.223
    1STR  C0T   7035   8.477   3.239   0.342
    1STR  C0U   7036   8.516   3.374   0.338
    1STR  C0V   7037   8.539   3.440   0.216
    1STR  C0W   7038   8.617   3.570   0.223
    1STR  C0X   7039   8.509   3.376   0.092
    1STR  N0Y   7040   8.522   3.448  17.409
    1STR  BCK2  7041   8.471   3.568  17.367
    1STR  O10   7042   8.498   3.613  17.256
    1STR  C13   7043   8.480   3.235   0.099
    1STR  C14   7044   8.611   1.283   0.361
    1STR  C15   7045   8.608   1.144   0.377
    1STR  C16   7046   8.613   1.056   0.267
    1STR  C17   7047   8.602   0.909   0.299
    1STR  H1B   7048   8.605   1.087  17.374
    1STR  H1C   7049   8.636   1.294   0.023
    1STR  H1D   7050   8.633   1.517   0.120
    1STR  H1E   7051   8.520   1.810   0.398
    1STR  H1F   7052   8.801   1.887   0.302
    1STR  H1G   7053   8.716   1.958   0.439
    1STR  H1H   7054   8.764   1.789   0.445
    1STR  H1I   7055   8.438   1.911   0.189
    1STR  H1J   7056   8.600   1.962   0.146
    1STR  H1K   7057   8.513   2.185   0.136
    1STR  H1M   7058   8.261   2.149   0.309
    1STR  H1N   7059   8.289   2.073   0.153
    1STR  H1O   7060   8.269   2.247   0.162
    1STR  H1P   7061   8.444   2.310   0.407
    1STR  H1Q   7062   8.601   2.314   0.330
    1STR  H1R   7063   8.456   2.559   0.397
    1STR  H1S   7064   8.660   2.683   0.321
    1STR  H1T   7065   8.664   2.588   0.174
    1STR  H1U   7066   8.696   2.512   0.330
    1STR  H1V   7067   8.298   2.649   0.228
    1STR  H1W   7068   8.423   2.665   0.110
    1STR  H1X   7069   8.405   3.005   0.340
    1STR  H1Y   7070   8.463   3.193   0.438
    1STR  H1Z   7071   8.534   3.424   0.432
    1STR  H20   7072   8.715   3.553   0.178
    1STR  H21   7073   8.568   3.652   0.170
    1STR  H22   7074   8.634   3.601   0.326
    1STR  H23   7075   8.578   3.403  17.339
    1STR  H27   7076   8.468   3.178   0.007
    1STR  H28   7077   8.606   1.343   0.451
    1STR  H29   7078   8.600   1.105   0.477
    1STR  H2A   7079   8.531   0.859   0.233
    1STR  H2B   7080   8.568   0.892   0.401
    1STR  H2C   7081   8.700   0.861   0.289
    1STR  BCK1  7082   8.690   0.903   4.300
    1STR  O03   7083   8.709   0.836   4.199
    1STR  N04   7084   8.745   1.023   4.332
    1STR  C05   7085   8.846   1.106   4.276
    1STR  C06   7086   8.839   1.248   4.293
    1STR  C07   7087   8.938   1.339   4.241
    1STR  N08   7088   8.929   1.479   4.262
    1STR  C09   7089   9.004   1.582   4.215
    1STR  O0A   7090   9.098   1.569   4.137
    1STR  O0B   7091   8.964   1.705   4.262
    1STR  C0C   7092   9.028   1.827   4.216
    1STR  C0D   7093   8.971   1.866   4.078
    1STR  C0E   7094   9.012   1.945   4.317
    1STR  O0F   7095   9.075   2.068   4.273
    1STR  C0G   7096   9.066   2.183   4.362
    1STR  C0H   7097   9.164   2.163   4.478
    1STR  C0I   7098   9.095   2.317   4.286
    1STR  O0J   7099   9.073   2.437   4.365
    1STR  C0K   7100   9.083   2.566   4.298
    1STR  C0M   7101   8.964   2.584   4.203
    1STR  C0N   7102   9.085   2.689   4.396
    1STR  O0O   7103   9.090   2.820   4.331
    1STR  C0P   7104   8.988   2.914   4.334
    1STR  O0Q   7105   8.876   2.897   4.382
    1STR  N0R   7106   9.031   3.029   4.277
    1STR  C0S   7107   8.989   3.162   4.246
    1STR  C0T   7108   9.099   3.243   4.214
    1STR  C0U   7109   9.084   3.377   4.177
    1STR  C0V   7110   8.957   3.438   4.168
    1STR  C0W   7111   8.959   3.587   4.138
    1STR  C0X   7112   8.839   3.363   4.196
    1STR  N0Y   7113   8.709   3.426   4.188
    1STR  BCK2  7114   8.660   3.540   4.128
    1STR  O10   7115   8.543   3.574   4.141
    1STR  C13   7116   8.859   3.224   4.237
    1STR  C14   7117   9.045   1.281   4.170
    1STR  C15   7118   9.056   1.142   4.155
    1STR  C16   7119   8.961   1.054   4.211
    1STR  C17   7120   8.993   0.906   4.204
    1STR  H1B   7121   8.701   1.064   4.413
    1STR  H1C   7122   8.756   1.290   4.347
    1STR  H1D   7123   8.856   1.513   4.323
    1STR  H1E   7124   9.135   1.808   4.204
    1STR  H1F   7125   8.864   1.886   4.083
    1STR  H1G   7126   9.020   1.957   4.040
    1STR  H1H   7127   8.988   1.788   4.004
    1STR  H1I   7128   9.055   1.913   4.412
    1STR  H1J   7129   8.906   1.963   4.335
    1STR  H1K   7130   8.964   2.189   4.401
    1STR  H1M   7131   9.267   2.151   4.442
    1STR  H1N   7132   9.141   2.075   4.539
    1STR  H1O   7133   9.162   2.249   4.546
    1STR  H1P   7134   9.198   2.315   4.248
    1STR  H1Q   7135   9.031   2.317   4.198
    1STR  H1R   7136   9.176   2.567   4.240
    1STR  H1S   7137   8.971   2.679   4.151
    1STR  H1T   7138   8.871   2.586   4.261
    1STR  H1U   7139   8.956   2.507   4.128
    1STR  H1V   7140   9.174   2.680   4.458
    1STR  H1W   7141   9.001   2.684   4.465
    1STR  H1X   7142   9.128   3.011   4.255
    1STR  H1Y   7143   9.200   3.204   4.218
    1STR  H1Z   7144   9.173   3.434   4.156
    1STR  H20   7145   8.885   3.617   4.065
    1STR  H21   7146   8.944   3.642   4.231
    1STR  H22   7147   9.055   3.617   4.097
    1STR  H23   7148   8.636   3.378   4.238
    1STR  H27   7149   8.773   3.163   4.262
    1STR  H28   7150   9.123   1.340   4.126
    1STR  H29   7151   9.142   1.102   4.103
    1STR  H2A   7152   8.963   0.855   4.295
    1STR  H2B   7153   9.100   0.889   4.191
    1STR  H2C   7154   8.942   0.860   4.119
    1STR  BCK1  7155   8.634   0.880   8.661
    1STR  O03   7156   8.723   0.810   8.707
    1STR  N04   7157   8.641   1.014   8.660
    1STR  C05   7158   8.536   1.108   8.645
    1STR  C06   7159   8.565   1.248   8.646
    1STR  C07   7160   8.461   1.347   8.641
    1STR  N08   7161   8.490   1.486   8.640
    1STR  C09   7162   8.407   1.592   8.629
    1STR  O0A   7163   8.284   1.584   8.620
    1STR  O0B   7164   8.471   1.711   8.629
    1STR  C0C   7165   8.395   1.833   8.620
    1STR  C0D   7166   8.345   1.873   8.760
    1STR  C0E   7167   8.478   1.946   8.556
    1STR  O0F   7168   8.400   2.066   8.543
    1STR  C0G   7169   8.467   2.178   8.484
    1STR  C0H   7170   8.473   2.160   8.331
    1STR  C0I   7171   8.392   2.308   8.522
    1STR  O0J   7172   8.463   2.425   8.476
    1STR  C0K   7173   8.406   2.552   8.510
    1STR  C0M   7174   8.434   2.584   8.657
    1STR  C0N   7175   8.468   2.662   8.419
    1STR  O0O   7176   8.401   2.788   8.432
    1STR  C0P   7177   8.463   2.902   8.473
    1STR  O0Q   7178   8.578   2.911   8.516
    1STR  N0R   7179   8.377   3.003   8.461
    1STR  C0S   7180   8.376   3.139   8.499
    1STR  C0T   7181   8.248   3.190   8.530
    1STR  C0U   7182   8.233   3.318   8.585
    1STR  C0V   7183   8.344   3.402   8.600
    1STR  C0W   7184   8.334   3.523   8.691
    1STR  C0X   7185   8.467   3.366   8.539
    1STR  N0Y   7186   8.558   3.468   8.511
    1STR  BCK2  7187   8.522   3.585   8.454
    1STR  O10   7188   8.602   3.674   8.430
    1STR  C13   7189   8.487   3.229   8.501
    1STR  C14   7190   8.328   1.300   8.639
    1STR  C15   7191   8.299   1.164   8.635
    1STR  C16   7192   8.400   1.067   8.635
    1STR  C17   7193   8.354   0.923   8.626
    1STR  H1B   7194   8.733   1.048   8.684
    1STR  H1C   7195   8.667   1.281   8.651
    1STR  H1D   7196   8.586   1.515   8.646
    1STR  H1E   7197   8.308   1.817   8.556
    1STR  H1F   7198   8.427   1.891   8.829
    1STR  H1G   7199   8.284   1.964   8.756
    1STR  H1H   7200   8.282   1.795   8.803
    1STR  H1I   7201   8.512   1.912   8.458
    1STR  H1J   7202   8.568   1.965   8.615
    1STR  H1K   7203   8.568   2.185   8.524
    1STR  H1M   7204   8.373   2.149   8.289
    1STR  H1N   7205   8.530   2.072   8.302
    1STR  H1O   7206   8.520   2.246   8.284
    1STR  H1P   7207   8.291   2.306   8.481
    1STR  H1Q   7208   8.381   2.311   8.630
    1STR  H1R   7209   8.298   2.549   8.492
    1STR  H1S   7210   8.392   2.681   8.684
    1STR  H1T   7211   8.541   2.588   8.677
    1STR  H1U   7212   8.390   2.511   8.725
    1STR  H1V   7213   8.457   2.632   8.315
    1STR  H1W   7214   8.575   2.672   8.436
    1STR  H1X   7215   8.290   2.967   8.426
    1STR  H1Y   7216   8.160   3.129   8.518
    1STR  H1Z   7217   8.136   3.350   8.618
    1STR  H20   7218   8.413   3.515   8.767
    1STR  H21   7219   8.348   3.618   8.640
    1STR  H22   7220   8.239   3.526   8.744
    1STR  H23   7221   8.657   3.454   8.525
    1STR  H27   7222   8.584   3.194   8.469
    1STR  H28   7223   8.243   1.365   8.640
    1STR  H29   7224   8.195   1.134   8.632
    1STR  H2A   7225   8.399   0.875   8.539
    1STR  H2B   7226   8.246   0.915   8.615
    1STR  H2C   7227   8.381   0.869   8.717
    1STR  BCK1  7228   8.671   0.900  13.084
    1STR  O03   7229   8.757   0.813  13.086
    1STR  N04   7230   8.681   1.028  13.131
    1STR  C05   7231   8.770   1.105  13.211
    1STR  C06   7232   8.762   1.249  13.205
    1STR  C07   7233   8.840   1.337  13.287
    1STR  N08   7234   8.825   1.479  13.280
    1STR  C09   7235   8.884   1.579  13.350
    1STR  O0A   7236   8.969   1.563  13.436
    1STR  O0B   7237   8.837   1.704  13.314
    1STR  C0C   7238   8.890   1.825  13.374
    1STR  C0D   7239   9.023   1.864  13.306
    1STR  C0E   7240   8.789   1.944  13.368
    1STR  O0F   7241   8.838   2.067  13.426
    1STR  C0G   7242   8.749   2.182  13.425
    1STR  C0H   7243   8.641   2.162  13.533
    1STR  C0I   7244   8.827   2.316  13.447
    1STR  O0J   7245   8.744   2.435  13.433
    1STR  C0K   7246   8.807   2.567  13.438
    1STR  C0M   7247   8.891   2.588  13.312
    1STR  C0N   7248   8.701   2.683  13.449
    1STR  O0O   7249   8.752   2.820  13.443
    1STR  C0P   7250   8.710   2.915  13.349
    1STR  O0Q   7251   8.646   2.890  13.248
    1STR  N0R   7252   8.750   3.038  13.386
    1STR  C0S   7253   8.750   3.173  13.336
    1STR  C0T   7254   8.828   3.258  13.416
    1STR  C0U   7255   8.851   3.391  13.379
    1STR  C0V   7256   8.795   3.446  13.262
    1STR  C0W   7257   8.849   3.583  13.224
    1STR  C0X   7258   8.702   3.373  13.182
    1STR  N0Y   7259   8.634   3.427  13.066
    1STR  BCK2  7260   8.598   3.550  13.012
    1STR  O10   7261   8.619   3.661  13.059
    1STR  C13   7262   8.685   3.232  13.221
    1STR  C14   7263   8.931   1.276  13.376
    1STR  C15   7264   8.942   1.136  13.384
    1STR  C16   7265   8.862   1.051  13.306
    1STR  C17   7266   8.877   0.902  13.332
    1STR  H1B   7267   8.603   1.083  13.098
    1STR  H1C   7268   8.692   1.293  13.136
    1STR  H1D   7269   8.759   1.515  13.214
    1STR  H1E   7270   8.911   1.805  13.480
    1STR  H1F   7271   9.008   1.884  13.200
    1STR  H1G   7272   9.065   1.954  13.351
    1STR  H1H   7273   9.097   1.786  13.316
    1STR  H1I   7274   8.698   1.912  13.420
    1STR  H1J   7275   8.761   1.962  13.264
    1STR  H1K   7276   8.702   2.188  13.327
    1STR  H1M   7277   8.686   2.151  13.632
    1STR  H1N   7278   8.579   2.075  13.514
    1STR  H1O   7279   8.575   2.248  13.536
    1STR  H1P   7280   8.874   2.315  13.546
    1STR  H1Q   7281   8.908   2.318  13.375
    1STR  H1R   7282   8.872   2.570  13.526
    1STR  H1S   7283   8.942   2.684  13.316
    1STR  H1T   7284   8.828   2.588  13.224
    1STR  H1U   7285   8.969   2.512  13.299
    1STR  H1V   7286   8.651   2.672  13.545
    1STR  H1W   7287   8.624   2.669  13.374
    1STR  H1X   7288   8.796   3.028  13.474
    1STR  H1Y   7289   8.876   3.222  13.505
    1STR  H1Z   7290   8.917   3.449  13.441
    1STR  H20   7291   8.873   3.585  13.118
    1STR  H21   7292   8.778   3.662  13.248
    1STR  H22   7293   8.942   3.604  13.278
    1STR  H23   7294   8.598   3.353  13.009
    1STR  H27   7295   8.622   3.168  13.162
    1STR  H28   7296   8.995   1.334  13.441
    1STR  H29   7297   9.012   1.095  13.455
    1STR  H2A   7298   8.780   0.853  13.334
    1STR  H2B   7299   8.923   0.884  13.429
    1STR  H2C   7300   8.940   0.857  13.256
    1STR  BCK1  7301   8.657   5.256  17.387
    1STR  O03   7302   8.585   5.200  17.306
    1STR  N04   7303   8.719   5.377  17.374
    1STR  C05   7304   8.736   5.465  17.265
    1STR  C06   7305   8.743   5.606  17.288
    1STR  C07   7306   8.760   5.701  17.181
    1STR  N08   7307   8.770   5.840  17.207
    1STR  C09   7308   8.777   5.945  17.121
    1STR  O0A   7309   8.773   5.935  16.999
    1STR  O0B   7310   8.790   6.066  17.184
    1STR  C0C   7311   8.792   6.189  17.107
    1STR  C0D   7312   8.648   6.229  17.069
    1STR  C0E   7313   8.864   6.304  17.183
    1STR  O0F   7314   8.868   6.426  17.106
    1STR  C0G   7315   8.933   6.539  17.167
    1STR  C0H   7316   9.085   6.521  17.160
    1STR  C0I   7317   8.889   6.672  17.097
    1STR  O0J   7318   8.940   6.790  17.163
    1STR  C0K   7319   8.895   6.918  17.112
    1STR  C0M   7320   8.749   6.942  17.150
    1STR  C0N   7321   8.980   7.037  17.168
    1STR  O0O   7322   8.942   7.164  17.111
    1STR  C0P   7323   8.882   7.266  17.181
    1STR  O0Q   7324   8.844   7.263  17.297
    1STR  N0R   7325   8.875   7.372  17.099
    1STR  C0S   7326   8.833   7.507  17.096
    1STR  C0T   7327   8.892   7.576  16.988
    1STR  C0U   7328   8.866   7.710  16.963
    1STR  C0V   7329   8.778   7.783  17.044
    1STR  C0W   7330   8.769   7.932  17.015
    1STR  C0X   7331   8.706   7.719  17.149
    1STR  N0Y   7332   8.608   7.793  17.221
    1STR  BCK2  7333   8.537   7.903  17.183
    1STR  O10   7334   8.461   7.961  17.260
    1STR  C13   7335   8.739   7.581  17.177
    1STR  C14   7336   8.770   5.648  17.051
    1STR  C15   7337   8.769   5.510  17.027
    1STR  C16   7338   8.757   5.418  17.133
    1STR  C17   7339   8.776   5.272  17.098
    1STR  H1B   7340   8.756   5.410   0.022
    1STR  H1C   7341   8.733   5.643  17.388
    1STR  H1D   7342   8.773   5.871  17.302
    1STR  H1E   7343   8.848   6.171  17.015
    1STR  H1F   7344   8.587   6.247  17.157
    1STR  H1G   7345   8.648   6.319  17.009
    1STR  H1H   7346   8.600   6.151  17.010
    1STR  H1I   7347   8.965   6.271  17.207
    1STR  H1J   7348   8.813   6.322  17.278
    1STR  H1K   7349   8.901   6.546  17.271
    1STR  H1M   7350   9.118   6.510  17.056
    1STR  H1N   7351   9.119   6.433  17.215
    1STR  H1O   7352   9.136   6.607  17.202
    1STR  H1P   7353   8.922   6.670  16.993
    1STR  H1Q   7354   8.780   6.673  17.095
    1STR  H1R   7355   8.906   6.917  17.003
    1STR  H1S   7356   8.714   7.038  17.111
    1STR  H1T   7357   8.738   6.945  17.259
    1STR  H1U   7358   8.681   6.866  17.111
    1STR  H1V   7359   9.084   7.019  17.141
    1STR  H1W   7360   8.977   7.040  17.277
    1STR  H1X   7361   8.920   7.342  17.014
    1STR  H1Y   7362   8.961   7.526  16.922
    1STR  H1Z   7363   8.917   7.759  16.881
    1STR  H20   7364   8.676   7.956  16.964
    1STR  H21   7365   8.775   7.989  17.109
    1STR  H22   7366   8.850   7.967  16.952
    1STR  H23   7367   8.585   7.762  17.314
    1STR  H27   7368   8.692   7.529  17.259
    1STR  H28   7369   8.781   5.711  16.964
    1STR  H29   7370   8.780   5.475  16.926
    1STR  H2A   7371   8.827   5.219  17.178
    1STR  H2B   7372   8.836   5.260  17.008
    1STR  H2C   7373   8.679   5.225  17.079
    1STR  BCK1  7374   8.608   5.257   4.312
    1STR  O03   7375   8.666   5.170   4.377
    1STR  N04   7376   8.619   5.389   4.338
    1STR  C05   7377   8.555   5.471   4.433
    1STR  C06   7378   8.569   5.613   4.421
    1STR  C07   7379   8.504   5.705   4.509
    1STR  N08   7380   8.517   5.845   4.491
    1STR  C09   7381   8.456   5.948   4.554
    1STR  O0A   7382   8.376   5.936   4.646
    1STR  O0B   7383   8.494   6.069   4.503
    1STR  C0C   7384   8.441   6.191   4.559
    1STR  C0D   7385   8.522   6.230   4.684
    1STR  C0E   7386   8.440   6.304   4.454
    1STR  O0F   7387   8.384   6.425   4.508
    1STR  C0G   7388   8.379   6.538   4.419
    1STR  C0H   7389   8.261   6.519   4.321
    1STR  C0I   7390   8.363   6.668   4.500
    1STR  O0J   7391   8.369   6.785   4.416
    1STR  C0K   7392   8.363   6.913   4.481
    1STR  C0M   7393   8.497   6.944   4.549
    1STR  C0N   7394   8.330   7.024   4.376
    1STR  O0O   7395   8.310   7.154   4.434
    1STR  C0P   7396   8.378   7.265   4.392
    1STR  O0Q   7397   8.476   7.265   4.318
    1STR  N0R   7398   8.322   7.374   4.445
    1STR  C0S   7399   8.351   7.512   4.446
    1STR  C0T   7400   8.306   7.579   4.561
    1STR  C0U   7401   8.339   7.713   4.584
    1STR  C0V   7402   8.411   7.787   4.488
    1STR  C0W   7403   8.476   7.917   4.532
    1STR  C0X   7404   8.437   7.730   4.360
    1STR  N0Y   7405   8.489   7.812   4.257
    1STR  BCK2  7406   8.437   7.928   4.209
    1STR  O10   7407   8.494   7.993   4.121
    1STR  C13   7408   8.416   7.589   4.344
    1STR  C14   7409   8.426   5.650   4.613
    1STR  C15   7410   8.411   5.511   4.627
    1STR  C16   7411   8.474   5.421   4.539
    1STR  C17   7412   8.450   5.274   4.565
    1STR  H1B   7413   8.681   5.436   4.274
    1STR  H1C   7414   8.630   5.653   4.342
    1STR  H1D   7415   8.579   5.877   4.419
    1STR  H1E   7416   8.337   6.174   4.590
    1STR  H1F   7417   8.627   6.249   4.659
    1STR  H1G   7418   8.482   6.321   4.729
    1STR  H1H   7419   8.519   6.152   4.760
    1STR  H1I   7420   8.382   6.270   4.368
    1STR  H1J   7421   8.542   6.322   4.419
    1STR  H1K   7422   8.472   6.544   4.363
    1STR  H1M   7423   8.167   6.509   4.374
    1STR  H1N   7424   8.274   6.432   4.257
    1STR  H1O   7425   8.253   6.606   4.255
    1STR  H1P   7426   8.269   6.666   4.556
    1STR  H1Q   7427   8.443   6.671   4.575
    1STR  H1R   7428   8.283   6.912   4.556
    1STR  H1S   7429   8.494   7.041   4.598
    1STR  H1T   7430   8.577   6.947   4.476
    1STR  H1U   7431   8.524   6.871   4.625
    1STR  H1V   7432   8.238   6.997   4.326
    1STR  H1W   7433   8.407   7.026   4.299
    1STR  H1X   7434   8.245   7.345   4.503
    1STR  H1Y   7435   8.251   7.527   4.638
    1STR  H1Z   7436   8.313   7.759   4.678
    1STR  H20   7437   8.583   7.899   4.543
    1STR  H21   7438   8.463   7.998   4.461
    1STR  H22   7439   8.439   7.950   4.629
    1STR  H23   7440   8.573   7.782   4.210
    1STR  H27   7441   8.447   7.539   4.253
    1STR  H28   7442   8.374   5.711   4.685
    1STR  H29   7443   8.351   5.474   4.709
    1STR  H2A   7444   8.414   5.223   4.476
    1STR  H2B   7445   8.375   5.258   4.642
    1STR  H2C   7446   8.543   5.226   4.598
    1STR  BCK1  7447   8.703   5.262   8.684
    1STR  O03   7448   8.768   5.188   8.610
    1STR  N04   7449   8.740   5.385   8.730
    1STR  C05   7450   8.858   5.465   8.728
    1STR  C06   7451   8.847   5.608   8.737
    1STR  C07   7452   8.959   5.697   8.740
    1STR  N08   7453   8.943   5.838   8.752
    1STR  C09   7454   9.034   5.940   8.751
    1STR  O0A   7455   9.155   5.925   8.735
    1STR  O0B   7456   8.977   6.064   8.769
    1STR  C0C   7457   9.057   6.186   8.764
    1STR  C0D   7458   9.083   6.225   8.617
    1STR  C0E   7459   8.990   6.305   8.841
    1STR  O0F   7460   9.066   6.428   8.837
    1STR  C0G   7461   9.011   6.543   8.907
    1STR  C0H   7462   9.031   6.523   9.058
    1STR  C0I   7463   9.076   6.678   8.859
    1STR  O0J   7464   9.014   6.799   8.914
    1STR  C0K   7465   9.057   6.929   8.863
    1STR  C0M   7466   9.009   6.946   8.719
    1STR  C0N   7467   9.003   7.050   8.947
    1STR  O0O   7468   9.032   7.184   8.895
    1STR  C0P   7469   8.936   7.276   8.852
    1STR  O0Q   7470   8.816   7.251   8.837
    1STR  N0R   7471   8.992   7.396   8.830
    1STR  C0S   7472   8.961   7.530   8.785
    1STR  C0T   7473   9.071   7.615   8.803
    1STR  C0U   7474   9.067   7.748   8.760
    1STR  C0V   7475   8.954   7.803   8.697
    1STR  C0W   7476   8.972   7.946   8.650
    1STR  C0X   7477   8.835   7.726   8.677
    1STR  N0Y   7478   8.719   7.777   8.607
    1STR  BCK2  7479   8.663   7.897   8.563
    1STR  O10   7480   8.696   8.011   8.593
    1STR  C13   7481   8.843   7.587   8.723
    1STR  C14   7482   9.087   5.637   8.732
    1STR  C15   7483   9.101   5.498   8.727
    1STR  C16   7484   8.990   5.411   8.728
    1STR  C17   7485   9.019   5.263   8.736
    1STR  H1B   7486   8.663   5.431   8.775
    1STR  H1C   7487   8.748   5.651   8.742
    1STR  H1D   7488   8.850   5.874   8.764
    1STR  H1E   7489   9.153   6.166   8.812
    1STR  H1F   7490   8.990   6.244   8.564
    1STR  H1G   7491   9.144   6.315   8.612
    1STR  H1H   7492   9.136   6.146   8.564
    1STR  H1I   7493   8.976   6.273   8.944
    1STR  H1J   7494   8.890   6.322   8.800
    1STR  H1K   7495   8.904   6.549   8.885
    1STR  H1M   7496   9.137   6.511   9.082
    1STR  H1N   7497   8.979   6.436   9.096
    1STR  H1O   7498   8.994   6.609   9.114
    1STR  H1P   7499   9.182   6.677   8.882
    1STR  H1Q   7500   9.069   6.679   8.750
    1STR  H1R   7501   9.167   6.931   8.865
    1STR  H1S   7502   9.043   7.041   8.679
    1STR  H1T   7503   8.900   6.946   8.716
    1STR  H1U   7504   9.045   6.869   8.652
    1STR  H1V   7505   9.048   7.044   9.047
    1STR  H1W   7506   8.895   7.040   8.964
    1STR  H1X   7507   9.088   7.385   8.857
    1STR  H1Y   7508   9.162   7.581   8.849
    1STR  H1Z   7509   9.155   7.808   8.776
    1STR  H20   7510   8.927   7.962   8.552
    1STR  H21   7511   8.928   8.015   8.722
    1STR  H22   7512   9.077   7.971   8.639
    1STR  H23   7513   8.656   7.702   8.583
    1STR  H27   7514   8.759   7.521   8.711
    1STR  H28   7515   9.178   5.695   8.733
    1STR  H29   7516   9.201   5.457   8.724
    1STR  H2A   7517   8.949   5.213   8.803
    1STR  H2B   7518   9.120   5.244   8.775
    1STR  H2C   7519   9.013   5.217   8.637
    1STR  BCK1  7520   8.663   5.240  13.037
    1STR  O03   7521   8.557   5.182  13.055
    1STR  N04   7522   8.680   5.368  12.994
    1STR  C05   7523   8.595   5.462  12.932
    1STR  C06   7524   8.619   5.603  12.948
    1STR  C07   7525   8.539   5.703  12.882
    1STR  N08   7526   8.567   5.842  12.895
    1STR  C09   7527   8.504   5.949  12.839
    1STR  O0A   7528   8.405   5.941  12.766
    1STR  O0B   7529   8.560   6.069  12.871
    1STR  C0C   7530   8.501   6.191  12.822
    1STR  C0D   7531   8.383   6.231  12.913
    1STR  C0E   7532   8.605   6.306  12.812
    1STR  O0F   7533   8.546   6.426  12.760
    1STR  C0G   7534   8.633   6.539  12.745
    1STR  C0H   7535   8.720   6.520  12.619
    1STR  C0I   7536   8.550   6.670  12.737
    1STR  O0J   7537   8.635   6.787  12.736
    1STR  C0K   7538   8.570   6.916  12.735
    1STR  C0M   7539   8.512   6.945  12.874
    1STR  C0N   7540   8.671   7.027  12.696
    1STR  O0O   7541   8.611   7.155  12.671
    1STR  C0P   7542   8.638   7.268  12.742
    1STR  O0Q   7543   8.705   7.275  12.845
    1STR  N0R   7544   8.576   7.370  12.682
    1STR  C0S   7545   8.541   7.503  12.712
    1STR  C0T   7546   8.422   7.542  12.649
    1STR  C0U   7547   8.354   7.658  12.689
    1STR  C0V   7548   8.411   7.742  12.785
    1STR  C0W   7549   8.319   7.833  12.865
    1STR  C0X   7550   8.548   7.728  12.817
    1STR  N0Y   7551   8.614   7.843  12.862
    1STR  BCK2  7552   8.586   7.968  12.817
    1STR  O10   7553   8.644   8.067  12.859
    1STR  C13   7554   8.609   7.600  12.793
    1STR  C14   7555   8.432   5.657  12.803
    1STR  C15   7556   8.410   5.520  12.783
    1STR  C16   7557   8.492   5.423  12.842
    1STR  C17   7558   8.468   5.281  12.799
    1STR  H1B   7559   8.772   5.403  13.016
    1STR  H1C   7560   8.700   5.636  13.011
    1STR  H1D   7561   8.644   5.871  12.952
    1STR  H1E   7562   8.462   6.175  12.721
    1STR  H1F   7563   8.415   6.250  13.015
    1STR  H1G   7564   8.335   6.322  12.876
    1STR  H1H   7565   8.307   6.153  12.915
    1STR  H1I   7566   8.685   6.272  12.746
    1STR  H1J   7567   8.649   6.325  12.910
    1STR  H1K   7568   8.697   6.546  12.833
    1STR  H1M   7569   8.658   6.510  12.530
    1STR  H1N   7570   8.784   6.433  12.626
    1STR  H1O   7571   8.785   6.607  12.604
    1STR  H1P   7572   8.487   6.668  12.648
    1STR  H1Q   7573   8.483   6.673  12.822
    1STR  H1R   7574   8.489   6.914  12.661
    1STR  H1S   7575   8.463   7.043  12.876
    1STR  H1T   7576   8.591   6.948  12.949
    1STR  H1U   7577   8.438   6.872  12.906
    1STR  H1V   7578   8.719   6.997  12.602
    1STR  H1W   7579   8.752   7.035  12.769
    1STR  H1X   7580   8.532   7.332  12.600
    1STR  H1Y   7581   8.375   7.479  12.575
    1STR  H1Z   7582   8.256   7.679  12.650
    1STR  H20   7583   8.370   7.903  12.931
    1STR  H21   7584   8.262   7.769  12.933
    1STR  H22   7585   8.249   7.888  12.802
    1STR  H23   7586   8.695   7.837  12.923
    1STR  H27   7587   8.707   7.577  12.833
    1STR  H28   7588   8.365   5.722  12.751
    1STR  H29   7589   8.329   5.490  12.718
    1STR  H2A   7590   8.562   5.229  12.784
    1STR  H2B   7591   8.414   5.276  12.704
    1STR  H2C   7592   8.407   5.229  12.873
    1STR  BCK1  7593   8.638   9.620  17.438
    1STR  O03   7594   8.708   9.529   0.041
    1STR  N04   7595   8.636   9.750   0.038
    1STR  C05   7596   8.678   9.827   0.150
    1STR  C06   7597   8.677   9.970   0.138
    1STR  C07   7598   8.706  10.059   0.247
    1STR  N08   7599   8.699  10.201   0.231
    1STR  C09   7600   8.713  10.302   0.320
    1STR  O0A   7601   8.738  10.287   0.439
    1STR  O0B   7602   8.694  10.425   0.263
    1STR  C0C   7603   8.707  10.547   0.341
    1STR  C0D   7604   8.855  10.586   0.353
    1STR  C0E   7605   8.624  10.664   0.280
    1STR  O0F   7606   8.634  10.786   0.356
    1STR  C0G   7607   8.560  10.900   0.307
    1STR  C0H   7608   8.411  10.881   0.340
    1STR  C0I   7609   8.613  11.034   0.368
    1STR  O0J   7610   8.550  11.152   0.312
    1STR  C0K   7611   8.599  11.282   0.353
    1STR  C0M   7612   8.737  11.307   0.290
    1STR  C0N   7613   8.500  11.395   0.307
    1STR  O0O   7614   8.538  11.532   0.338
    1STR  C0P   7615   8.544  11.633   0.243
    1STR  O0Q   7616   8.545  11.616   0.122
    1STR  N0R   7617   8.550  11.753   0.303
    1STR  C0S   7618   8.567  11.890   0.266
    1STR  C0T   7619   8.608  11.969   0.375
    1STR  C0U   7620   8.644  12.103   0.357
    1STR  C0V   7621   8.637  12.165   0.231
    1STR  C0W   7622   8.710  12.297   0.216
    1STR  C0X   7623   8.579  12.097   0.120
    1STR  N0Y   7624   8.565  12.163  17.433
    1STR  BCK2  7625   8.520  12.287  17.394
    1STR  O10   7626   8.527  12.323  17.277
    1STR  C13   7627   8.551  11.956   0.139
    1STR  C14   7628   8.740  10.000   0.370
    1STR  C15   7629   8.743   9.860   0.385
    1STR  C16   7630   8.711   9.774   0.278
    1STR  C17   7631   8.711   9.626   0.311
    1STR  H1B   7632   8.592   9.807  17.408
    1STR  H1C   7633   8.652  10.014   0.043
    1STR  H1D   7634   8.680  10.236   0.139
    1STR  H1E   7635   8.668  10.528   0.442
    1STR  H1F   7636   8.900  10.606   0.256
    1STR  H1G   7637   8.866  10.677   0.414
    1STR  H1H   7638   8.913  10.508   0.402
    1STR  H1I   7639   8.520  10.631   0.275
    1STR  H1J   7640   8.657  10.682   0.178
    1STR  H1K   7641   8.573  10.906   0.199
    1STR  H1M   7642   8.395  10.870   0.447
    1STR  H1N   7643   8.368  10.794   0.291
    1STR  H1O   7644   8.353  10.967   0.307
    1STR  H1P   7645   8.600  11.032   0.477
    1STR  H1Q   7646   8.721  11.036   0.351
    1STR  H1R   7647   8.608  11.284   0.462
    1STR  H1S   7648   8.776  11.404   0.321
    1STR  H1T   7649   8.729  11.308   0.181
    1STR  H1U   7650   8.811  11.233   0.318
    1STR  H1V   7651   8.405  11.378   0.358
    1STR  H1W   7652   8.479  11.385   0.201
    1STR  H1X   7653   8.547  11.737   0.402
    1STR  H1Y   7654   8.618  11.927   0.474
    1STR  H1Z   7655   8.683  12.156   0.443
    1STR  H20   7656   8.788  12.285   0.140
    1STR  H21   7657   8.645  12.379   0.188
    1STR  H22   7658   8.762  12.324   0.309
    1STR  H23   7659   8.595  12.110  17.353
    1STR  H27   7660   8.517  11.897   0.055
    1STR  H28   7661   8.764  10.058   0.457
    1STR  H29   7662   8.769   9.820   0.482
    1STR  H2A   7663   8.624   9.576   0.269
    1STR  H2B   7664   8.709   9.608   0.418
    1STR  H2C   7665   8.802   9.579   0.271
    1STR  BCK1  7666   8.676   9.622   4.298
    1STR  O03   7667   8.660   9.560   4.193
    1STR  N04   7668   8.739   9.742   4.314
    1STR  C05   7669   8.814   9.826   4.229
    1STR  C06   7670   8.812   9.968   4.249
    1STR  C07   7671   8.887  10.060   4.169
    1STR  N08   7672   8.885  10.200   4.194
    1STR  C09   7673   8.938  10.303   4.124
    1STR  O0A   7674   9.000  10.291   4.018
    1STR  O0B   7675   8.916  10.426   4.183
    1STR  C0C   7676   8.960  10.548   4.118
    1STR  C0D   7677   8.859  10.588   4.009
    1STR  C0E   7678   8.980  10.665   4.220
    1STR  O0F   7679   9.024  10.788   4.157
    1STR  C0G   7680   9.046  10.902   4.243
    1STR  C0H   7681   9.178  10.882   4.319
    1STR  C0I   7682   9.047  11.035   4.162
    1STR  O0J   7683   9.054  11.155   4.243
    1STR  C0K   7684   9.041  11.283   4.176
    1STR  C0M   7685   8.897  11.303   4.129
    1STR  C0N   7686   9.079  11.405   4.267
    1STR  O0O   7687   9.068  11.534   4.201
    1STR  C0P   7688   8.974  11.632   4.233
    1STR  O0Q   7689   8.883  11.620   4.314
    1STR  N0R   7690   9.001  11.743   4.162
    1STR  C0S   7691   8.956  11.877   4.141
    1STR  C0T   7692   9.056  11.954   4.080
    1STR  C0U   7693   9.035  12.089   4.049
    1STR  C0V   7694   8.913  12.153   4.075
    1STR  C0W   7695   8.910  12.303   4.051
    1STR  C0X   7696   8.804  12.080   4.131
    1STR  N0Y   7697   8.678  12.145   4.153
    1STR  BCK2  7698   8.620  12.257   4.097
    1STR  O10   7699   8.511  12.299   4.134
    1STR  C13   7700   8.830  11.941   4.167
    1STR  C14   7701   8.965  10.004   4.065
    1STR  C15   7702   8.973   9.865   4.047
    1STR  C16   7703   8.902   9.776   4.130
    1STR  C17   7704   8.932   9.628   4.112
    1STR  H1B   7705   8.723   9.780   4.406
    1STR  H1C   7706   8.751  10.008   4.329
    1STR  H1D   7707   8.837  10.233   4.275
    1STR  H1E   7708   9.057  10.530   4.070
    1STR  H1F   7709   8.760  10.606   4.051
    1STR  H1G   7710   8.891  10.678   3.957
    1STR  H1H   7711   8.850  10.509   3.934
    1STR  H1I   7712   9.053  10.633   4.294
    1STR  H1J   7713   8.886  10.683   4.273
    1STR  H1K   7714   8.963  10.908   4.315
    1STR  H1M   7715   9.262  10.871   4.250
    1STR  H1N   7716   9.177  10.795   4.384
    1STR  H1O   7717   9.199  10.968   4.383
    1STR  H1P   7718   9.130  11.034   4.091
    1STR  H1Q   7719   8.957  11.036   4.101
    1STR  H1R   7720   9.109  11.283   4.090
    1STR  H1S   7721   8.886  11.398   4.078
    1STR  H1T   7722   8.829  11.305   4.215
    1STR  H1U   7723   8.863  11.226   4.061
    1STR  H1V   7724   9.183  11.393   4.298
    1STR  H1W   7725   9.022  11.404   4.360
    1STR  H1X   7726   9.085  11.721   4.112
    1STR  H1Y   7727   9.153  11.913   4.057
    1STR  H1Z   7728   9.117  12.144   4.005
    1STR  H20   7729   8.828  12.334   3.987
    1STR  H21   7730   8.902  12.354   4.147
    1STR  H22   7731   9.001  12.337   4.003
    1STR  H23   7732   8.618  12.104   4.222
    1STR  H27   7733   8.752  11.882   4.214
    1STR  H28   7734   9.024  10.064   3.998
    1STR  H29   7735   9.036   9.827   3.969
    1STR  H2A   7736   8.932   9.577   4.208
    1STR  H2B   7737   9.029   9.613   4.067
    1STR  H2C   7738   8.857   9.582   4.047
    1STR  BCK1  7739   8.623   9.605   8.665
    1STR  O03   7740   8.722   9.533   8.675
    1STR  N04   7741   8.630   9.738   8.676
    1STR  C05   7742   8.526   9.829   8.704
    1STR  C06   7743   8.550   9.970   8.697
    1STR  C07   7744   8.451  10.067   8.731
    1STR  N08   7745   8.476  10.206   8.721
    1STR  C09   7746   8.393  10.311   8.742
    1STR  O0A   7747   8.276  10.302   8.776
    1STR  O0B   7748   8.454  10.431   8.719
    1STR  C0C   7749   8.379  10.553   8.738
    1STR  C0D   7750   8.381  10.593   8.887
    1STR  C0E   7751   8.435  10.665   8.649
    1STR  O0F   7752   8.358  10.785   8.663
    1STR  C0G   7753   8.401  10.898   8.585
    1STR  C0H   7754   8.354  10.879   8.440
    1STR  C0I   7755   8.344  11.028   8.647
    1STR  O0J   7756   8.394  11.144   8.579
    1STR  C0K   7757   8.353  11.271   8.630
    1STR  C0M   7758   8.430  11.303   8.759
    1STR  C0N   7759   8.379  11.381   8.524
    1STR  O0O   7760   8.323  11.508   8.561
    1STR  C0P   7761   8.398  11.621   8.571
    1STR  O0Q   7762   8.520  11.628   8.567
    1STR  N0R   7763   8.315  11.724   8.590
    1STR  C0S   7764   8.332  11.861   8.617
    1STR  C0T   7765   8.228  11.919   8.693
    1STR  C0U   7766   8.238  12.051   8.740
    1STR  C0V   7767   8.347  12.131   8.703
    1STR  C0W   7768   8.373  12.259   8.782
    1STR  C0X   7769   8.437  12.086   8.604
    1STR  N0Y   7770   8.520  12.179   8.541
    1STR  BCK2  7771   8.474  12.294   8.486
    1STR  O10   7772   8.549  12.376   8.434
    1STR  C13   7773   8.436  11.946   8.571
    1STR  C14   7774   8.327  10.018   8.777
    1STR  C15   7775   8.301   9.881   8.783
    1STR  C16   7776   8.397   9.786   8.746
    1STR  C17   7777   8.356   9.640   8.758
    1STR  H1B   7778   8.725   9.773   8.673
    1STR  H1C   7779   8.647  10.005   8.664
    1STR  H1D   7780   8.568  10.236   8.694
    1STR  H1E   7781   8.275  10.537   8.708
    1STR  H1F   7782   8.482  10.611   8.923
    1STR  H1G   7783   8.322  10.683   8.903
    1STR  H1H   7784   8.336  10.515   8.949
    1STR  H1I   7785   8.433  10.631   8.545
    1STR  H1J   7786   8.540  10.684   8.674
    1STR  H1K   7787   8.510  10.905   8.588
    1STR  H1M   7788   8.246  10.869   8.434
    1STR  H1N   7789   8.399  10.792   8.392
    1STR  H1O   7790   8.382  10.966   8.380
    1STR  H1P   7791   8.235  11.025   8.642
    1STR  H1Q   7792   8.371  11.030   8.752
    1STR  H1R   7793   8.245  11.269   8.650
    1STR  H1S   7794   8.400  11.401   8.799
    1STR  H1T   7795   8.537  11.307   8.740
    1STR  H1U   7796   8.412  11.230   8.838
    1STR  H1V   7797   8.332  11.352   8.430
    1STR  H1W   7798   8.486  11.389   8.502
    1STR  H1X   7799   8.220  11.690   8.592
    1STR  H1Y   7800   8.142  11.860   8.723
    1STR  H1Z   7801   8.162  12.089   8.807
    1STR  H20   7802   8.466  12.244   8.838
    1STR  H21   7803   8.386  12.347   8.720
    1STR  H22   7804   8.295  12.279   8.855
    1STR  H23   7805   8.618  12.161   8.529
    1STR  H27   7806   8.513  11.905   8.506
    1STR  H28   7807   8.246  10.081   8.809
    1STR  H29   7808   8.204   9.848   8.819
    1STR  H2A   7809   8.361   9.592   8.661
    1STR  H2B   7810   8.254   9.630   8.794
    1STR  H2C   7811   8.421   9.588   8.829
    1STR  BCK1  7812   8.690   9.621  13.073
    1STR  O03   7813   8.776   9.538  13.045
    1STR  N04   7814   8.709   9.747  13.123
    1STR  C05   7815   8.817   9.825  13.174
    1STR  C06   7816   8.806   9.968  13.174
    1STR  C07   7817   8.905  10.057  13.229
    1STR  N08   7818   8.887  10.198  13.230
    1STR  C09   7819   8.966  10.299  13.276
    1STR  O0A   7820   9.076  10.283  13.328
    1STR  O0B   7821   8.910  10.424  13.259
    1STR  C0C   7822   8.981  10.545  13.298
    1STR  C0D   7823   9.081  10.584  13.188
    1STR  C0E   7824   8.883  10.664  13.327
    1STR  O0F   7825   8.950  10.788  13.364
    1STR  C0G   7826   8.866  10.903  13.394
    1STR  C0H   7827   8.802  10.883  13.532
    1STR  C0I   7828   8.946  11.038  13.388
    1STR  O0J   7829   8.864  11.157  13.402
    1STR  C0K   7830   8.925  11.288  13.384
    1STR  C0M   7831   8.962  11.307  13.237
    1STR  C0N   7832   8.831  11.407  13.428
    1STR  O0O   7833   8.877  11.543  13.401
    1STR  C0P   7834   8.810  11.636  13.321
    1STR  O0Q   7835   8.716  11.609  13.247
    1STR  N0R   7836   8.862  11.759  13.336
    1STR  C0S   7837   8.849  11.893  13.285
    1STR  C0T   7838   8.943  11.979  13.343
    1STR  C0U   7839   8.956  12.112  13.301
    1STR  C0V   7840   8.875  12.166  13.200
    1STR  C0W   7841   8.915  12.305  13.155
    1STR  C0X   7842   8.768  12.091  13.141
    1STR  N0Y   7843   8.679  12.144  13.040
    1STR  BCK2  7844   8.636  12.266  12.987
    1STR  O10   7845   8.665  12.378  13.027
    1STR  C13   7846   8.761  11.951  13.186
    1STR  C14   7847   9.019   9.996  13.285
    1STR  C15   7848   9.033   9.856  13.288
    1STR  C16   7849   8.933   9.770  13.236
    1STR  C17   7850   8.955   9.622  13.257
    1STR  H1B   7851   8.623   9.799  13.120
    1STR  H1C   7852   8.718  10.013  13.130
    1STR  H1D   7853   8.803  10.235  13.190
    1STR  H1E   7854   9.036  10.525  13.390
    1STR  H1F   7855   9.032  10.604  13.094
    1STR  H1G   7856   9.136  10.674  13.217
    1STR  H1H   7857   9.155  10.505  13.172
    1STR  H1I   7858   8.816  10.633  13.407
    1STR  H1J   7859   8.821  10.682  13.239
    1STR  H1K   7860   8.788  10.908  13.318
    1STR  H1M   7861   8.877  10.871  13.610
    1STR  H1N   7862   8.737  10.795  13.536
    1STR  H1O   7863   8.740  10.969  13.559
    1STR  H1P   7864   9.024  11.037  13.465
    1STR  H1Q   7865   8.998  11.039  13.293
    1STR  H1R   7866   9.016  11.292  13.445
    1STR  H1S   7867   9.011  11.404  13.222
    1STR  H1T   7868   8.872  11.307  13.175
    1STR  H1U   7869   9.029  11.231  13.199
    1STR  H1V   7870   8.816  11.399  13.536
    1STR  H1W   7871   8.731  11.393  13.385
    1STR  H1X   7872   8.933  11.750  13.406
    1STR  H1Y   7873   9.011  11.944  13.420
    1STR  H1Z   7874   9.034  12.171  13.347
    1STR  H20   7875   8.908  12.314  13.046
    1STR  H21   7876   8.852  12.381  13.202
    1STR  H22   7877   9.019  12.326  13.181
    1STR  H23   7878   8.630  12.069  12.994
    1STR  H27   7879   8.686  11.886  13.143
    1STR  H28   7880   9.100  10.053  13.328
    1STR  H29   7881   9.121   9.814  13.334
    1STR  H2A   7882   8.862   9.572  13.285
    1STR  H2B   7883   9.027   9.603  13.337
    1STR  H2C   7884   8.994   9.576  13.166
    1STR  BCK1  7885   8.654  13.970  17.395
    1STR  O03   7886   8.555  13.918  17.345
    1STR  N04   7887   8.706  14.092  17.365
    1STR  C05   7888   8.681  14.183  17.260
    1STR  C06   7889   8.693  14.325  17.283
    1STR  C07   7890   8.670  14.422  17.180
    1STR  N08   7891   8.688  14.561  17.202
    1STR  C09   7892   8.665  14.666  17.120
    1STR  O0A   7893   8.619  14.658  17.007
    1STR  O0B   7894   8.697  14.787  17.177
    1STR  C0C   7895   8.673  14.909  17.104
    1STR  C0D   7896   8.525  14.950  17.117
    1STR  C0E   7897   8.767  15.024  17.150
    1STR  O0F   7898   8.745  15.145  17.076
    1STR  C0G   7899   8.826  15.258  17.111
    1STR  C0H   7900   8.967  15.240  17.051
    1STR  C0I   7901   8.761  15.390  17.060
    1STR  O0J   7902   8.831  15.507  17.106
    1STR  C0K   7903   8.774  15.635  17.073
    1STR  C0M   7904   8.649  15.661  17.158
    1STR  C0N   7905   8.876  15.751  17.097
    1STR  O0O   7906   8.824  15.878  17.054
    1STR  C0P   7907   8.794  15.982  17.138
    1STR  O0Q   7908   8.798  15.983  17.260
    1STR  N0R   7909   8.762  16.085  17.059
    1STR  C0S   7910   8.725  16.222  17.061
    1STR  C0T   7911   8.738  16.277  16.932
    1STR  C0U   7912   8.707  16.410  16.906
    1STR  C0V   7913   8.658  16.494  17.007
    1STR  C0W   7914   8.636  16.638  16.965
    1STR  C0X   7915   8.636  16.444  17.139
    1STR  N0Y   7916   8.579  16.529  17.237
    1STR  BCK2  7917   8.510  16.645  17.222
    1STR  O10   7918   8.472  16.711  17.318
    1STR  C13   7919   8.674  16.306  17.165
    1STR  C14   7920   8.631  14.372  17.053
    1STR  C15   7921   8.623  14.234  17.028
    1STR  C16   7922   8.652  14.140  17.128
    1STR  C17   7923   8.659  13.995  17.085
    1STR  H1B   7924   8.773  14.124  17.434
    1STR  H1C   7925   8.721  14.359  17.381
    1STR  H1D   7926   8.723  14.590  17.292
    1STR  H1E   7927   8.695  14.892  16.998
    1STR  H1F   7928   8.498  14.968  17.221
    1STR  H1G   7929   8.504  15.040  17.060
    1STR  H1H   7930   8.459  14.872  17.078
    1STR  H1I   7931   8.870  14.991  17.139
    1STR  H1J   7932   8.751  15.043  17.257
    1STR  H1K   7933   8.833  15.265  17.220
    1STR  H1M   7934   8.963  15.229  16.943
    1STR  H1N   7935   9.018  15.153  17.092
    1STR  H1O   7936   9.029  15.326  17.074
    1STR  H1P   7937   8.756  15.389  16.951
    1STR  H1Q   7938   8.658  15.391  17.095
    1STR  H1R   7939   8.747  15.635  16.967
    1STR  H1S   7940   8.605  15.757  17.132
    1STR  H1T   7941   8.676  15.665  17.264
    1STR  H1U   7942   8.572  15.586  17.145
    1STR  H1V   7943   8.965  15.730  17.037
    1STR  H1W   7944   8.909  15.754  17.201
    1STR  H1X   7945   8.774  16.049  16.966
    1STR  H1Y   7946   8.775  16.218  16.850
    1STR  H1Z   7947   8.720  16.447  16.806
    1STR  H20   7948   8.529  16.656  16.956
    1STR  H21   7949   8.680  16.706  17.038
    1STR  H22   7950   8.682  16.661  16.869
    1STR  H23   7951   8.589  16.502  17.334
    1STR  H27   7952   8.663  16.264  17.264
    1STR  H28   7953   8.609  14.435  16.970
    1STR  H29   7954   8.597  14.201  16.929
    1STR  H2A   7955   8.736  13.941  17.139
    1STR  H2B   7956   8.683  13.987  16.979
    1STR  H2C   7957   8.563  13.947  17.101
    1STR  BCK1  7958   8.628  13.979   4.328
    1STR  O03   7959   8.663  13.887   4.401
    1STR  N04   7960   8.615  14.110   4.359
    1STR  C05   7961   8.594  14.189   4.476
    1STR  C06   7962   8.602  14.331   4.463
    1STR  C07   7963   8.571  14.422   4.569
    1STR  N08   7964   8.575  14.563   4.549
    1STR  C09   7965   8.540  14.665   4.630
    1STR  O0A   7966   8.497  14.652   4.744
    1STR  O0B   7967   8.557  14.787   4.571
    1STR  C0C   7968   8.526  14.909   4.643
    1STR  C0D   7969   8.645  14.949   4.732
    1STR  C0E   7970   8.489  15.024   4.545
    1STR  O0F   7971   8.455  15.145   4.614
    1STR  C0G   7972   8.419  15.258   4.533
    1STR  C0H   7973   8.276  15.240   4.481
    1STR  C0I   7974   8.433  15.390   4.614
    1STR  O0J   7975   8.409  15.507   4.533
    1STR  C0K   7976   8.426  15.637   4.595
    1STR  C0M   7977   8.576  15.665   4.614
    1STR  C0N   7978   8.363  15.748   4.506
    1STR  O0O   7979   8.368  15.881   4.562
    1STR  C0P   7980   8.418  15.989   4.492
    1STR  O0Q   7981   8.485  15.983   4.389
    1STR  N0R   7982   8.384  16.102   4.555
    1STR  C0S   7983   8.413  16.240   4.539
    1STR  C0T   7984   8.404  16.312   4.660
    1STR  C0U   7985   8.442  16.447   4.666
    1STR  C0V   7986   8.485  16.515   4.550
    1STR  C0W   7987   8.560  16.645   4.571
    1STR  C0X   7988   8.474  16.454   4.422
    1STR  N0Y   7989   8.503  16.529   4.305
    1STR  BCK2  7990   8.451  16.648   4.260
    1STR  O10   7991   8.491  16.700   4.157
    1STR  C13   7992   8.446  16.313   4.420
    1STR  C14   7993   8.535  14.365   4.693
    1STR  C15   7994   8.527  14.226   4.709
    1STR  C16   7995   8.555  14.138   4.603
    1STR  C17   7996   8.538  13.990   4.633
    1STR  H1B   7997   8.623  14.166   4.276
    1STR  H1C   7998   8.631  14.373   4.368
    1STR  H1D   7999   8.609  14.597   4.461
    1STR  H1E   8000   8.439  14.891   4.707
    1STR  H1F   8001   8.735  14.967   4.673
    1STR  H1G   8002   8.622  15.039   4.788
    1STR  H1H   8003   8.668  14.871   4.804
    1STR  H1I   8004   8.404  14.990   4.484
    1STR  H1J   8005   8.572  15.042   4.477
    1STR  H1K   8006   8.489  15.265   4.448
    1STR  H1M   8007   8.205  15.229   4.563
    1STR  H1N   8008   8.266  15.153   4.417
    1STR  H1O   8009   8.245  15.326   4.422
    1STR  H1P   8010   8.363  15.388   4.699
    1STR  H1Q   8011   8.533  15.393   4.657
    1STR  H1R   8012   8.376  15.636   4.692
    1STR  H1S   8013   8.591  15.762   4.661
    1STR  H1T   8014   8.627  15.667   4.518
    1STR  H1U   8015   8.626  15.591   4.677
    1STR  H1V   8016   8.257  15.724   4.493
    1STR  H1W   8017   8.406  15.745   4.406
    1STR  H1X   8018   8.331  16.078   4.636
    1STR  H1Y   8019   8.374  16.264   4.751
    1STR  H1Z   8020   8.444  16.495   4.762
    1STR  H20   8021   8.665  16.627   4.548
    1STR  H21   8022   8.524  16.727   4.508
    1STR  H22   8023   8.556  16.678   4.675
    1STR  H23   8024   8.572  16.491   4.242
    1STR  H27   8025   8.450  16.259   4.327
    1STR  H28   8026   8.510  14.425   4.779
    1STR  H29   8027   8.498  14.188   4.805
    1STR  H2A   8028   8.480  13.941   4.556
    1STR  H2B   8029   8.485  13.974   4.727
    1STR  H2C   8030   8.636  13.943   4.643
    1STR  BCK1  8031   8.698  13.983   8.667
    1STR  O03   8032   8.736  13.914   8.573
    1STR  N04   8033   8.747  14.104   8.706
    1STR  C05   8034   8.857  14.186   8.670
    1STR  C06   8035   8.848  14.328   8.684
    1STR  C07   8036   8.955  14.418   8.653
    1STR  N08   8037   8.943  14.559   8.671
    1STR  C09   8038   9.027  14.661   8.640
    1STR  O0A   8039   9.135  14.647   8.584
    1STR  O0B   8040   8.979  14.785   8.677
    1STR  C0C   8041   9.052  14.907   8.646
    1STR  C0D   8042   9.026  14.946   8.499
    1STR  C0E   8043   9.015  15.025   8.741
    1STR  O0F   8044   9.085  15.149   8.711
    1STR  C0G   8045   9.057  15.263   8.796
    1STR  C0H   8046   9.128  15.243   8.931
    1STR  C0I   8047   9.102  15.398   8.729
    1STR  O0J   8048   9.064  15.518   8.801
    1STR  C0K   8049   9.087  15.647   8.737
    1STR  C0M   8050   8.991  15.665   8.619
    1STR  C0N   8051   9.066  15.770   8.834
    1STR  O0O   8052   9.081  15.902   8.772
    1STR  C0P   8053   8.979  15.995   8.757
    1STR  O0Q   8054   8.860  15.975   8.782
    1STR  N0R   8055   9.029  16.112   8.712
    1STR  C0S   8056   8.991  16.245   8.674
    1STR  C0T   8057   9.104  16.327   8.660
    1STR  C0U   8058   9.093  16.461   8.620
    1STR  C0V   8059   8.969  16.520   8.591
    1STR  C0W   8060   8.974  16.668   8.556
    1STR  C0X   8061   8.848  16.445   8.602
    1STR  N0Y   8062   8.719  16.506   8.577
    1STR  BCK2  8063   8.676  16.623   8.516
    1STR  O10   8064   8.558  16.655   8.516
    1STR  C13   8065   8.863  16.306   8.646
    1STR  C14   8066   9.074  14.359   8.605
    1STR  C15   8067   9.087  14.220   8.594
    1STR  C16   8068   8.983  14.133   8.629
    1STR  C17   8069   9.014  13.984   8.628
    1STR  H1B   8070   8.687  14.147   8.776
    1STR  H1C   8071   8.756  14.371   8.720
    1STR  H1D   8072   8.859  14.593   8.714
    1STR  H1E   8073   9.159  14.887   8.657
    1STR  H1F   8074   8.920  14.965   8.481
    1STR  H1G   8075   9.081  15.036   8.472
    1STR  H1H   8076   9.058  14.867   8.430
    1STR  H1I   8077   9.037  14.993   8.843
    1STR  H1J   8078   8.908  15.043   8.736
    1STR  H1K   8079   8.950  15.269   8.812
    1STR  H1M   8080   9.236  15.232   8.918
    1STR  H1N   8081   9.092  15.156   8.985
    1STR  H1O   8082   9.112  15.329   8.996
    1STR  H1P   8083   9.210  15.396   8.714
    1STR  H1Q   8084   9.058  15.398   8.629
    1STR  H1R   8085   9.191  15.649   8.702
    1STR  H1S   8086   9.010  15.760   8.570
    1STR  H1T   8087   8.888  15.666   8.655
    1STR  H1U   8088   9.001  15.587   8.544
    1STR  H1V   8089   9.141  15.763   8.913
    1STR  H1W   8090   8.970  15.763   8.885
    1STR  H1X   8091   9.129  16.097   8.709
    1STR  H1Y   8092   9.203  16.290   8.681
    1STR  H1Z   8093   9.184  16.519   8.613
    1STR  H20   8094   8.909  16.695   8.474
    1STR  H21   8095   8.949  16.727   8.644
    1STR  H22   8096   9.075  16.696   8.524
    1STR  H23   8097   8.640  16.455   8.612
    1STR  H27   8098   8.775  16.244   8.657
    1STR  H28   8099   9.160  14.418   8.577
    1STR  H29   8100   9.182  14.180   8.560
    1STR  H2A   8101   8.967  13.934   8.713
    1STR  H2B   8102   9.121  13.967   8.635
    1STR  H2C   8103   8.979  13.939   8.535
    1STR  BCK1  8104   8.657  13.959  13.003
    1STR  O03   8105   8.622  13.895  13.102
    1STR  N04   8106   8.659  14.094  13.001
    1STR  C05   8107   8.557  14.187  12.971
    1STR  C06   8108   8.583  14.327  12.980
    1STR  C07   8109   8.483  14.426  12.951
    1STR  N08   8110   8.512  14.565  12.955
    1STR  C09   8111   8.433  14.671  12.926
    1STR  O0A   8112   8.316  14.663  12.891
    1STR  O0B   8113   8.497  14.790  12.938
    1STR  C0C   8114   8.425  14.913  12.913
    1STR  C0D   8115   8.345  14.953  13.039
    1STR  C0E   8116   8.520  15.026  12.868
    1STR  O0F   8117   8.446  15.146  12.839
    1STR  C0G   8118   8.524  15.259  12.795
    1STR  C0H   8119   8.562  15.240  12.647
    1STR  C0I   8120   8.442  15.389  12.816
    1STR  O0J   8121   8.521  15.506  12.786
    1STR  C0K   8122   8.459  15.633  12.807
    1STR  C0M   8123   8.454  15.664  12.957
    1STR  C0N   8124   8.539  15.744  12.733
    1STR  O0O   8125   8.470  15.870  12.730
    1STR  C0P   8126   8.521  15.984  12.786
    1STR  O0Q   8127   8.621  15.992  12.856
    1STR  N0R   8128   8.439  16.085  12.755
    1STR  C0S   8129   8.425  16.219  12.794
    1STR  C0T   8130   8.292  16.266  12.790
    1STR  C0U   8131   8.257  16.390  12.845
    1STR  C0V   8132   8.357  16.475  12.894
    1STR  C0W   8133   8.319  16.590  12.987
    1STR  C0X   8134   8.493  16.447  12.865
    1STR  N0Y   8135   8.583  16.554  12.864
    1STR  BCK2  8136   8.552  16.674  12.809
    1STR  O10   8137   8.631  16.767  12.806
    1STR  C13   8138   8.528  16.312  12.828
    1STR  C14   8139   8.354  14.379  12.918
    1STR  C15   8140   8.327  14.242  12.908
    1STR  C16   8141   8.426  14.146  12.931
    1STR  C17   8142   8.385  14.002  12.908
    1STR  H1B   8143   8.748  14.132  13.030
    1STR  H1C   8144   8.681  14.360  13.008
    1STR  H1D   8145   8.605  14.594  12.982
    1STR  H1E   8146   8.354  14.897  12.832
    1STR  H1F   8147   8.411  14.971  13.124
    1STR  H1G   8148   8.287  15.043  13.021
    1STR  H1H   8149   8.275  14.875  13.067
    1STR  H1I   8150   8.573  14.992  12.779
    1STR  H1J   8151   8.594  15.045  12.945
    1STR  H1K   8152   8.614  15.266  12.856
    1STR  H1M   8153   8.473  15.230  12.585
    1STR  H1N   8154   8.625  15.153  12.631
    1STR  H1O   8155   8.618  15.326  12.611
    1STR  H1P   8156   8.353  15.387  12.754
    1STR  H1Q   8157   8.409  15.391  12.919
    1STR  H1R   8158   8.358  15.631  12.766
    1STR  H1S   8159   8.408  15.762  12.975
    1STR  H1T   8160   8.554  15.668  13.000
    1STR  H1U   8161   8.396  15.591  13.014
    1STR  H1V   8162   8.551  15.714  12.629
    1STR  H1W   8163   8.640  15.754  12.773
    1STR  H1X   8164   8.365  16.048  12.698
    1STR  H1Y   8165   8.212  16.203  12.752
    1STR  H1Z   8166   8.154  16.419  12.852
    1STR  H20   8167   8.383  16.585  13.075
    1STR  H21   8168   8.331  16.689  12.943
    1STR  H22   8169   8.217  16.580  13.022
    1STR  H23   8170   8.678  16.542  12.894
    1STR  H27   8171   8.631  16.282  12.822
    1STR  H28   8172   8.271  14.444  12.898
    1STR  H29   8173   8.227  14.212  12.880
    1STR  H2A   8174   8.454  13.954  12.838
    1STR  H2B   8175   8.286  13.994  12.865
    1STR  H2C   8176   8.384  13.948  13.003
    1STR  BCK1  8177  13.017   0.900   0.005
    1STR  O03   8178  13.100   0.811   0.024
    1STR  N04   8179  13.022   1.029   0.050
    1STR  C05   8180  13.096   1.106   0.145
    1STR  C06   8181  13.090   1.249   0.136
    1STR  C07   8182  13.152   1.338   0.231
    1STR  N08   8183  13.139   1.479   0.220
    1STR  C09   8184  13.182   1.580   0.300
    1STR  O0A   8185  13.247   1.564   0.403
    1STR  O0B   8186  13.145   1.705   0.254
    1STR  C0C   8187  13.184   1.826   0.324
    1STR  C0D   8188  13.327   1.865   0.285
    1STR  C0E   8189  13.085   1.944   0.296
    1STR  O0F   8190  13.121   2.067   0.364
    1STR  C0G   8191  13.035   2.181   0.343
    1STR  C0H   8192  12.906   2.162   0.425
    1STR  C0I   8193  13.106   2.315   0.382
    1STR  O0J   8194  13.028   2.434   0.351
    1STR  C0K   8195  13.088   2.565   0.370
    1STR  C0M   8196  13.197   2.588   0.265
    1STR  C0N   8197  12.981   2.680   0.359
    1STR  O0O   8198  13.030   2.817   0.368
    1STR  C0P   8199  13.006   2.914   0.270
    1STR  O0Q   8200  12.966   2.891   0.157
    1STR  N0R   8201  13.035   3.037   0.318
    1STR  C0S   8202  13.042   3.171   0.271
    1STR  C0T   8203  13.108   3.256   0.362
    1STR  C0U   8204  13.136   3.389   0.330
    1STR  C0V   8205  13.098   3.446   0.207
    1STR  C0W   8206  13.160   3.580   0.176
    1STR  C0X   8207  13.015   3.373   0.115
    1STR  N0Y   8208  12.962   3.429  17.433
    1STR  BCK2  8209  12.930   3.552  17.377
    1STR  O10   8210  12.945   3.662  17.429
    1STR  C13   8211  12.994   3.233   0.149
    1STR  C14   8212  13.224   1.277   0.336
    1STR  C15   8213  13.232   1.138   0.347
    1STR  C16   8214  13.168   1.052   0.255
    1STR  C17   8215  13.178   0.903   0.285
    1STR  H1B   8216  12.955   1.085  17.441
    1STR  H1C   8217  13.036   1.294   0.055
    1STR  H1D   8218  13.089   1.516   0.141
    1STR  H1E   8219  13.182   1.806   0.432
    1STR  H1F   8220  13.336   1.885   0.179
    1STR  H1G   8221  13.359   1.955   0.338
    1STR  H1H   8222  13.398   1.786   0.311
    1STR  H1I   8223  12.986   1.912   0.327
    1STR  H1J   8224  13.081   1.962   0.189
    1STR  H1K   8225  13.010   2.187   0.237
    1STR  H1M   8226  12.928   2.150   0.531
    1STR  H1N   8227  12.849   2.074   0.394
    1STR  H1O   8228  12.840   2.248   0.414
    1STR  H1P   8229  13.130   2.314   0.488
    1STR  H1Q   8230  13.201   2.318   0.329
    1STR  H1R   8231  13.133   2.568   0.470
    1STR  H1S   8232  13.245   2.684   0.280
    1STR  H1T   8233  13.153   2.588   0.165
    1STR  H1U   8234  13.275   2.513   0.267
    1STR  H1V   8235  12.910   2.667   0.441
    1STR  H1W   8236  12.922   2.667   0.268
    1STR  H1X   8237  13.063   3.025   0.413
    1STR  H1Y   8238  13.143   3.218   0.457
    1STR  H1Z   8239  13.194   3.446   0.401
    1STR  H20   8240  13.204   3.579   0.077
    1STR  H21   8241  13.088   3.661   0.184
    1STR  H22   8242  13.241   3.603   0.246
    1STR  H23   8243  12.935   3.356  17.369
    1STR  H27   8244  12.941   3.169   0.081
    1STR  H28   8245  13.274   1.335   0.412
    1STR  H29   8246  13.287   1.096   0.431
    1STR  H2A   8247  13.082   0.854   0.269
    1STR  H2B   8248  13.206   0.885   0.388
    1STR  H2C   8249  13.253   0.857   0.221
    1STR  BCK1  8250  13.023   0.898   4.302
    1STR  O03   8251  12.972   0.839   4.207
    1STR  N04   8252  13.087   1.018   4.300
    1STR  C05   8253  13.128   1.105   4.197
    1STR  C06   8254  13.132   1.247   4.219
    1STR  C07   8255  13.173   1.340   4.119
    1STR  N08   8256  13.179   1.480   4.144
    1STR  C09   8257  13.204   1.584   4.061
    1STR  O0A   8258  13.226   1.574   3.941
    1STR  O0B   8259  13.203   1.706   4.125
    1STR  C0C   8260  13.222   1.829   4.050
    1STR  C0D   8261  13.090   1.868   3.983
    1STR  C0E   8262  13.276   1.944   4.140
    1STR  O0F   8263  13.296   2.067   4.065
    1STR  C0G   8264  13.346   2.180   4.139
    1STR  C0H   8265  13.497   2.161   4.164
    1STR  C0I   8266  13.319   2.313   4.061
    1STR  O0J   8267  13.354   2.432   4.136
    1STR  C0K   8268  13.321   2.560   4.077
    1STR  C0M   8269  13.169   2.582   4.083
    1STR  C0N   8270  13.390   2.680   4.149
    1STR  O0O   8271  13.362   2.808   4.087
    1STR  C0P   8272  13.286   2.908   4.144
    1STR  O0Q   8273  13.225   2.901   4.250
    1STR  N0R   8274  13.294   3.016   4.065
    1STR  C0S   8275  13.250   3.151   4.056
    1STR  C0T   8276  13.328   3.224   3.965
    1STR  C0U   8277  13.303   3.359   3.938
    1STR  C0V   8278  13.197   3.427   4.000
    1STR  C0W   8279  13.190   3.577   3.975
    1STR  C0X   8280  13.107   3.358   4.086
    1STR  N0Y   8281  12.995   3.428   4.139
    1STR  BCK2  8282  12.928   3.537   4.092
    1STR  O10   8283  12.836   3.590   4.154
    1STR  C13   8284  13.139   3.219   4.117
    1STR  C14   8285  13.211   1.286   3.994
    1STR  C15   8286  13.214   1.148   3.972
    1STR  C16   8287  13.178   1.057   4.073
    1STR  C17   8288  13.202   0.910   4.044
    1STR  H1B   8289  13.103   1.054   4.393
    1STR  H1C   8290  13.101   1.285   4.315
    1STR  H1D   8291  13.161   1.511   4.238
    1STR  H1E   8292  13.297   1.811   3.972
    1STR  H1F   8293  13.011   1.887   4.056
    1STR  H1G   8294  13.102   1.959   3.923
    1STR  H1H   8295  13.055   1.790   3.915
    1STR  H1I   8296  13.369   1.912   4.185
    1STR  H1J   8297  13.206   1.962   4.221
    1STR  H1K   8298  13.293   2.187   4.234
    1STR  H1M   8299  13.551   2.150   4.071
    1STR  H1N   8300  13.518   2.074   4.226
    1STR  H1O   8301  13.538   2.248   4.217
    1STR  H1P   8302  13.373   2.311   3.966
    1STR  H1Q   8303  13.213   2.314   4.036
    1STR  H1R   8304  13.354   2.560   3.973
    1STR  H1S   8305  13.143   2.678   4.038
    1STR  H1T   8306  13.135   2.585   4.187
    1STR  H1U   8307  13.112   2.506   4.031
    1STR  H1V   8308  13.498   2.664   4.145
    1STR  H1W   8309  13.365   2.682   4.256
    1STR  H1X   8310  13.356   2.989   3.991
    1STR  H1Y   8311  13.411   3.178   3.914
    1STR  H1Z   8312  13.369   3.411   3.870
    1STR  H20   8313  13.104   3.602   3.913
    1STR  H21   8314  13.183   3.629   4.070
    1STR  H22   8315  13.279   3.614   3.924
    1STR  H23   8316  12.955   3.393   4.225
    1STR  H27   8317  13.077   3.164   4.186
    1STR  H28   8318  13.243   1.348   3.911
    1STR  H29   8319  13.247   1.111   3.876
    1STR  H2A   8320  13.234   0.858   4.134
    1STR  H2B   8321  13.280   0.897   3.969
    1STR  H2C   8322  13.111   0.863   4.006
    1STR  BCK1  8323  12.968   0.891   8.677
    1STR  O03   8324  13.063   0.814   8.673
    1STR  N04   8325  12.982   1.023   8.694
    1STR  C05   8326  12.895   1.111   8.760
    1STR  C06   8327  12.914   1.253   8.749
    1STR  C07   8328  12.833   1.347   8.819
    1STR  N08   8329  12.852   1.486   8.804
    1STR  C09   8330  12.780   1.590   8.853
    1STR  O0A   8331  12.682   1.579   8.926
    1STR  O0B   8332  12.829   1.710   8.811
    1STR  C0C   8333  12.765   1.832   8.855
    1STR  C0D   8334  12.818   1.871   8.994
    1STR  C0E   8335  12.787   1.945   8.751
    1STR  O0F   8336  12.720   2.065   8.792
    1STR  C0G   8337  12.734   2.177   8.703
    1STR  C0H   8338  12.641   2.159   8.583
    1STR  C0I   8339  12.701   2.308   8.780
    1STR  O0J   8340  12.725   2.424   8.699
    1STR  C0K   8341  12.705   2.552   8.762
    1STR  C0M   8342  12.821   2.583   8.857
    1STR  C0N   8343  12.694   2.662   8.652
    1STR  O0O   8344  12.659   2.791   8.706
    1STR  C0P   8345  12.733   2.903   8.683
    1STR  O0Q   8346  12.845   2.907   8.634
    1STR  N0R   8347  12.664   3.009   8.726
    1STR  C0S   8348  12.691   3.147   8.738
    1STR  C0T   8349  12.623   3.211   8.843
    1STR  C0U   8350  12.649   3.345   8.875
    1STR  C0V   8351  12.738   3.421   8.797
    1STR  C0W   8352  12.791   3.551   8.856
    1STR  C0X   8353  12.789   3.368   8.676
    1STR  N0Y   8354  12.854   3.454   8.586
    1STR  BCK2  8355  12.803   3.569   8.535
    1STR  O10   8356  12.868   3.641   8.459
    1STR  C13   8357  12.774   3.227   8.653
    1STR  C14   8358  12.734   1.294   8.905
    1STR  C15   8359  12.714   1.156   8.918
    1STR  C16   8360  12.792   1.064   8.846
    1STR  C17   8361  12.763   0.917   8.872
    1STR  H1B   8362  13.072   1.058   8.663
    1STR  H1C   8363  12.993   1.290   8.685
    1STR  H1D   8364  12.928   1.517   8.747
    1STR  H1E   8365  12.657   1.815   8.862
    1STR  H1F   8366  12.925   1.890   8.992
    1STR  H1G   8367  12.769   1.962   9.029
    1STR  H1H   8368  12.798   1.793   9.067
    1STR  H1I   8369  12.749   1.911   8.655
    1STR  H1J   8370  12.894   1.963   8.739
    1STR  H1K   8371  12.838   2.184   8.669
    1STR  H1M   8372  12.537   2.149   8.614
    1STR  H1N   8373  12.666   2.072   8.523
    1STR  H1O   8374  12.646   2.246   8.516
    1STR  H1P   8375  12.597   2.306   8.814
    1STR  H1Q   8376  12.763   2.310   8.870
    1STR  H1R   8377  12.611   2.550   8.818
    1STR  H1S   8378  12.807   2.681   8.904
    1STR  H1T   8379  12.916   2.587   8.802
    1STR  H1U   8380  12.832   2.510   8.937
    1STR  H1V   8381  12.616   2.634   8.582
    1STR  H1W   8382  12.786   2.667   8.594
    1STR  H1X   8383  12.577   2.978   8.765
    1STR  H1Y   8384  12.554   3.156   8.905
    1STR  H1Z   8385  12.603   3.387   8.963
    1STR  H20   8386  12.894   3.534   8.886
    1STR  H21   8387  12.791   3.634   8.786
    1STR  H22   8388  12.736   3.581   8.945
    1STR  H23   8389  12.945   3.429   8.551
    1STR  H27   8390  12.823   3.180   8.568
    1STR  H28   8391  12.669   1.356   8.964
    1STR  H29   8392  12.637   1.121   8.985
    1STR  H2A   8393  12.736   0.867   8.779
    1STR  H2B   8394  12.679   0.903   8.939
    1STR  H2C   8395  12.850   0.868   8.917
    1STR  BCK1  8396  13.062   0.901  13.055
    1STR  O03   8397  13.137   0.824  12.999
    1STR  N04   8398  13.091   1.026  13.104
    1STR  C05   8399  13.209   1.105  13.123
    1STR  C06   8400  13.197   1.248  13.129
    1STR  C07   8401  13.307   1.337  13.153
    1STR  N08   8402  13.290   1.478  13.161
    1STR  C09   8403  13.379   1.579  13.178
    1STR  O0A   8404  13.500   1.563  13.189
    1STR  O0B   8405  13.320   1.704  13.183
    1STR  C0C   8406  13.399   1.825  13.195
    1STR  C0D   8407  13.457   1.864  13.058
    1STR  C0E   8408  13.318   1.944  13.256
    1STR  O0F   8409  13.393   2.068  13.268
    1STR  C0G   8410  13.324   2.183  13.325
    1STR  C0H   8411  13.312   2.163  13.477
    1STR  C0I   8412  13.398   2.318  13.292
    1STR  O0J   8413  13.326   2.438  13.333
    1STR  C0K   8414  13.378   2.569  13.293
    1STR  C0M   8415  13.362   2.587  13.142
    1STR  C0N   8416  13.305   2.690  13.364
    1STR  O0O   8417  13.342   2.824  13.320
    1STR  C0P   8418  13.255   2.916  13.261
    1STR  O0Q   8419  13.141   2.890  13.223
    1STR  N0R   8420  13.312   3.038  13.254
    1STR  C0S   8421  13.287   3.171  13.205
    1STR  C0T   8422  13.392   3.257  13.239
    1STR  C0U   8423  13.395   3.390  13.196
    1STR  C0V   8424  13.293   3.445  13.116
    1STR  C0W   8425  13.319   3.586  13.068
    1STR  C0X   8426  13.177   3.368  13.081
    1STR  N0Y   8427  13.070   3.419  12.998
    1STR  BCK2  8428  13.019   3.540  12.949
    1STR  O10   8429  13.051   3.654  12.982
    1STR  C13   8430  13.179   3.229  13.127
    1STR  C14   8431  13.433   1.276  13.170
    1STR  C15   8432  13.448   1.136  13.168
    1STR  C16   8433  13.338   1.050  13.148
    1STR  C17   8434  13.365   0.902  13.161
    1STR  H1B   8435  13.008   1.074  13.132
    1STR  H1C   8436  13.099   1.292  13.114
    1STR  H1D   8437  13.196   1.514  13.152
    1STR  H1E   8438  13.483   1.805  13.263
    1STR  H1F   8439  13.377   1.884  12.986
    1STR  H1G   8440  13.518   1.954  13.065
    1STR  H1H   8441  13.520   1.786  13.018
    1STR  H1I   8442  13.282   1.913  13.354
    1STR  H1J   8443  13.230   1.962  13.195
    1STR  H1K   8444  13.225   2.189  13.281
    1STR  H1M   8445  13.410   2.151  13.524
    1STR  H1N   8446  13.252   2.076  13.503
    1STR  H1O   8447  13.263   2.249  13.523
    1STR  H1P   8448  13.497   2.317  13.338
    1STR  H1Q   8449  13.414   2.319  13.185
    1STR  H1R   8450  13.484   2.572  13.319
    1STR  H1S   8451  13.403   2.682  13.111
    1STR  H1T   8452  13.256   2.587  13.116
    1STR  H1U   8453  13.412   2.510  13.084
    1STR  H1V   8454  13.329   2.683  13.471
    1STR  H1W   8455  13.197   2.677  13.359
    1STR  H1X   8456  13.401   3.028  13.299
    1STR  H1Y   8457  13.476   3.223  13.299
    1STR  H1Z   8458  13.480   3.450  13.223
    1STR  H20   8459  13.287   3.599  12.965
    1STR  H21   8460  13.268   3.658  13.132
    1STR  H22   8461  13.425   3.609  13.070
    1STR  H23   8462  13.012   3.344  12.965
    1STR  H27   8463  13.097   3.163  13.103
    1STR  H28   8464  13.523   1.334  13.188
    1STR  H29   8465  13.546   1.095  13.184
    1STR  H2A   8466  13.284   0.852  13.214
    1STR  H2B   8467  13.457   0.883  13.217
    1STR  H2C   8468  13.376   0.857  13.063
    1STR  BCK1  8469  13.018   5.243  17.399
    1STR  O03   8470  12.908   5.189  17.391
    1STR  N04   8471  13.051   5.368  17.357
    1STR  C05   8472  12.986   5.462  17.274
    1STR  C06   8473  13.005   5.603  17.294
    1STR  C07   8474  12.945   5.702  17.210
    1STR  N08   8475  12.969   5.841  17.227
    1STR  C09   8476  12.919   5.947  17.159
    1STR  O0A   8477  12.838   5.940  17.067
    1STR  O0B   8478  12.968   6.067  17.202
    1STR  C0C   8479  12.921   6.190  17.141
    1STR  C0D   8480  12.786   6.231  17.204
    1STR  C0E   8481  13.025   6.304  17.153
    1STR  O0F   8482  12.978   6.424  17.089
    1STR  C0G   8483  13.067   6.537  17.095
    1STR  C0H   8484  13.178   6.519  16.990
    1STR  C0I   8485  12.988   6.668  17.070
    1STR  O0J   8486  13.071   6.785  17.089
    1STR  C0K   8487  13.008   6.913  17.077
    1STR  C0M   8488  12.919   6.942  17.199
    1STR  C0N   8489  13.116   7.025  17.065
    1STR  O0O   8490  13.060   7.154  17.039
    1STR  C0P   8491  13.068   7.262  17.122
    1STR  O0Q   8492  13.113   7.264  17.237
    1STR  N0R   8493  13.018   7.364  17.054
    1STR  C0S   8494  12.980   7.499  17.062
    1STR  C0T   8495  12.919   7.537  16.942
    1STR  C0U   8496  12.853   7.659  16.929
    1STR  C0V   8497  12.850   7.749  17.036
    1STR  C0W   8498  12.751   7.863  17.020
    1STR  C0X   8499  12.930   7.728  17.151
    1STR  N0Y   8500  12.947   7.834  17.244
    1STR  BCK2  8501  12.923   7.967  17.227
    1STR  O10   8502  12.943   8.049  17.316
    1STR  C13   8503  12.991   7.597  17.167
    1STR  C14   8504  12.860   5.655  17.107
    1STR  C15   8505  12.843   5.518  17.083
    1STR  C16   8506  12.908   5.422  17.162
    1STR  C17   8507  12.897   5.279  17.115
    1STR  H1B   8508  13.137   5.401  17.398
    1STR  H1C   8509  13.068   5.636  17.375
    1STR  H1D   8510  13.032   5.870  17.299
    1STR  H1E   8511  12.905   6.173  17.034
    1STR  H1F   8512  12.796   6.249  17.311
    1STR  H1G   8513  12.747   6.321  17.158
    1STR  H1H   8514  12.711   6.153  17.190
    1STR  H1I   8515  13.118   6.270  17.106
    1STR  H1J   8516  13.047   6.323  17.258
    1STR  H1K   8517  13.111   6.544  17.195
    1STR  H1M   8518  13.137   6.509  16.890
    1STR  H1N   8519  13.240   6.432  17.010
    1STR  H1O   8520  13.245   6.606  16.990
    1STR  H1P   8521  12.946   6.668  16.969
    1STR  H1Q   8522  12.903   6.670  17.138
    1STR  H1R   8523  12.947   6.914  16.986
    1STR  H1S   8524  12.870   7.038  17.189
    1STR  H1T   8525  12.979   6.945  17.290
    1STR  H1U   8526  12.841   6.868  17.213
    1STR  H1V   8527  13.180   7.001  16.980
    1STR  H1W   8528  13.182   7.026  17.152
    1STR  H1X   8529  12.995   7.323  16.965
    1STR  H1Y   8530  12.915   7.470  16.857
    1STR  H1Z   8531  12.800   7.681  16.838
    1STR  H20   8532  12.706   7.887  17.116
    1STR  H21   8533  12.802   7.949  16.977
    1STR  H22   8534  12.669   7.835  16.955
    1STR  H23   8535  12.989   7.814  17.334
    1STR  H27   8536  13.044   7.572  17.257
    1STR  H28   8537  12.808   5.719  17.039
    1STR  H29   8538  12.781   5.487  17.001
    1STR  H2A   8539  12.991   5.225  17.130
    1STR  H2B   8540  12.874   5.273  17.009
    1STR  H2C   8541  12.817   5.228  17.169
    1STR  BCK1  8542  12.991   5.260   4.348
    1STR  O03   8543  13.048   5.168   4.405
    1STR  N04   8544  12.984   5.391   4.385
    1STR  C05   8545  13.003   5.468   4.503
    1STR  C06   8546  13.006   5.611   4.490
    1STR  C07   8547  13.013   5.700   4.601
    1STR  N08   8548  13.010   5.841   4.583
    1STR  C09   8549  13.004   5.943   4.673
    1STR  O0A   8550  13.002   5.929   4.794
    1STR  O0B   8551  12.999   6.066   4.612
    1STR  C0C   8552  12.994   6.188   4.691
    1STR  C0D   8553  13.136   6.227   4.735
    1STR  C0E   8554  12.926   6.304   4.613
    1STR  O0F   8555  12.919   6.426   4.690
    1STR  C0G   8556  12.857   6.539   4.626
    1STR  C0H   8557  12.705   6.521   4.626
    1STR  C0I   8558  12.897   6.672   4.697
    1STR  O0J   8559  12.847   6.790   4.629
    1STR  C0K   8560  12.885   6.920   4.680
    1STR  C0M   8561  13.033   6.946   4.647
    1STR  C0N   8562  12.797   7.032   4.615
    1STR  O0O   8563  12.825   7.168   4.658
    1STR  C0P   8564  12.849   7.272   4.569
    1STR  O0Q   8565  12.876   7.259   4.451
    1STR  N0R   8566  12.840   7.390   4.633
    1STR  C0S   8567  12.863   7.527   4.604
    1STR  C0T   8568  12.885   7.604   4.719
    1STR  C0U   8569  12.924   7.738   4.710
    1STR  C0V   8570  12.936   7.802   4.585
    1STR  C0W   8571  13.012   7.933   4.583
    1STR  C0X   8572  12.894   7.737   4.466
    1STR  N0Y   8573  12.898   7.806   4.340
    1STR  BCK2  8574  12.849   7.928   4.299
    1STR  O10   8575  12.868   7.968   4.185
    1STR  C13   8576  12.865   7.595   4.477
    1STR  C14   8577  13.021   5.642   4.729
    1STR  C15   8578  13.020   5.503   4.745
    1STR  C16   8579  13.010   5.415   4.635
    1STR  C17   8580  13.003   5.267   4.668
    1STR  H1B   8581  12.958   5.447   4.306
    1STR  H1C   8582  13.001   5.654   4.391
    1STR  H1D   8583  13.011   5.876   4.489
    1STR  H1E   8584  12.935   6.169   4.781
    1STR  H1F   8585  13.201   6.246   4.649
    1STR  H1G   8586  13.135   6.318   4.796
    1STR  H1H   8587  13.183   6.149   4.795
    1STR  H1I   8588  12.826   6.271   4.585
    1STR  H1J   8589  12.980   6.322   4.520
    1STR  H1K   8590  12.893   6.546   4.523
    1STR  H1M   8591  12.666   6.510   4.727
    1STR  H1N   8592  12.673   6.433   4.569
    1STR  H1O   8593  12.655   6.607   4.581
    1STR  H1P   8594  12.861   6.671   4.800
    1STR  H1Q   8595  13.006   6.675   4.703
    1STR  H1R   8596  12.871   6.921   4.788
    1STR  H1S   8597  13.064   7.044   4.686
    1STR  H1T   8598  13.049   6.948   4.539
    1STR  H1U   8599  13.100   6.872   4.690
    1STR  H1V   8600  12.693   7.012   4.642
    1STR  H1W   8601  12.801   7.025   4.507
    1STR  H1X   8602  12.816   7.370   4.729
    1STR  H1Y   8603  12.881   7.559   4.817
    1STR  H1Z   8604  12.950   7.789   4.801
    1STR  H20   8605  13.104   7.918   4.526
    1STR  H21   8606  12.956   8.015   4.539
    1STR  H22   8607  13.044   7.962   4.684
    1STR  H23   8608  12.945   7.758   4.265
    1STR  H27   8609  12.845   7.538   4.388
    1STR  H28   8610  13.027   5.701   4.820
    1STR  H29   8611  13.025   5.463   4.846
    1STR  H2A   8612  12.925   5.218   4.611
    1STR  H2B   8613  12.981   5.250   4.773
    1STR  H2C   8614  13.099   5.220   4.646
    1STR  BCK1  8615  13.045   5.263   8.658
    1STR  O03   8616  13.051   5.198   8.554
    1STR  N04   8617  13.104   5.383   8.685
    1STR  C05   8618  13.196   5.466   8.617
    1STR  C06   8619  13.191   5.608   8.635
    1STR  C07   8620  13.281   5.699   8.571
    1STR  N08   8621  13.275   5.840   8.594
    1STR  C09   8622  13.343   5.943   8.537
    1STR  O0A   8623  13.426   5.930   8.448
    1STR  O0B   8624  13.309   6.065   8.590
    1STR  C0C   8625  13.366   6.188   8.536
    1STR  C0D   8626  13.291   6.227   8.407
    1STR  C0E   8627  13.364   6.305   8.639
    1STR  O0F   8628  13.420   6.428   8.587
    1STR  C0G   8629  13.423   6.542   8.676
    1STR  C0H   8630  13.536   6.523   8.778
    1STR  C0I   8631  13.442   6.676   8.597
    1STR  O0J   8632  13.431   6.797   8.678
    1STR  C0K   8633  13.432   6.925   8.609
    1STR  C0M   8634  13.301   6.944   8.532
    1STR  C0N   8635  13.448   7.048   8.706
    1STR  O0O   8636  13.447   7.178   8.640
    1STR  C0P   8637  13.347   7.274   8.654
    1STR  O0Q   8638  13.242   7.258   8.716
    1STR  N0R   8639  13.385   7.387   8.592
    1STR  C0S   8640  13.341   7.520   8.564
    1STR  C0T   8641  13.448   7.600   8.521
    1STR  C0U   8642  13.430   7.734   8.486
    1STR  C0V   8643  13.304   7.796   8.491
    1STR  C0W   8644  13.304   7.946   8.464
    1STR  C0X   8645  13.188   7.722   8.529
    1STR  N0Y   8646  13.059   7.785   8.533
    1STR  BCK2  8647  13.007   7.898   8.474
    1STR  O10   8648  12.892   7.935   8.496
    1STR  C13   8649  13.211   7.583   8.569
    1STR  C14   8650  13.379   5.642   8.486
    1STR  C15   8651  13.389   5.503   8.471
    1STR  C16   8652  13.302   5.415   8.537
    1STR  C17   8653  13.333   5.267   8.526
    1STR  H1B   8654  13.070   5.422   8.771
    1STR  H1C   8655  13.115   5.649   8.699
    1STR  H1D   8656  13.211   5.873   8.664
    1STR  H1E   8657  13.471   6.169   8.510
    1STR  H1F   8658  13.186   6.246   8.426
    1STR  H1G   8659  13.334   6.317   8.363
    1STR  H1H   8660  13.298   6.148   8.332
    1STR  H1I   8661  13.420   6.273   8.727
    1STR  H1J   8662  13.261   6.323   8.671
    1STR  H1K   8663  13.327   6.549   8.728
    1STR  H1M   8664  13.633   6.511   8.729
    1STR  H1N   8665  13.521   6.435   8.841
    1STR  H1O   8666  13.543   6.609   8.845
    1STR  H1P   8667  13.538   6.675   8.546
    1STR  H1Q   8668  13.367   6.677   8.518
    1STR  H1R   8669  13.517   6.926   8.540
    1STR  H1S   8670  13.302   7.039   8.479
    1STR  H1T   8671  13.217   6.946   8.602
    1STR  H1U   8672  13.283   6.866   8.458
    1STR  H1V   8673  13.544   7.038   8.757
    1STR  H1W   8674  13.373   7.044   8.786
    1STR  H1X   8675  13.477   7.368   8.559
    1STR  H1Y   8676  13.548   7.560   8.515
    1STR  H1Z   8677  13.518   7.791   8.457
    1STR  H20   8678  13.226   7.977   8.395
    1STR  H21   8679  13.293   7.999   8.558
    1STR  H22   8680  13.397   7.977   8.418
    1STR  H23   8681  12.990   7.740   8.591
    1STR  H27   8682  13.128   7.522   8.602
    1STR  H28   8683  13.451   5.702   8.433
    1STR  H29   8684  13.468   5.464   8.408
    1STR  H2A   8685  13.315   5.216   8.621
    1STR  H2B   8686  13.438   5.250   8.501
    1STR  H2C   8687  13.273   5.220   8.449
    1STR  BCK1  8688  12.991   5.242  13.021
    1STR  O03   8689  13.087   5.171  13.052
    1STR  N04   8690  12.996   5.376  13.026
    1STR  C05   8691  12.890   5.468  13.027
    1STR  C06   8692  12.917   5.609  13.025
    1STR  C07   8693  12.814   5.707  13.035
    1STR  N08   8694  12.841   5.846  13.030
    1STR  C09   8695  12.757   5.951  13.032
    1STR  O0A   8696  12.635   5.943  13.040
    1STR  O0B   8697  12.821   6.071  13.022
    1STR  C0C   8698  12.744   6.193  13.025
    1STR  C0D   8699  12.713   6.233  13.170
    1STR  C0E   8700  12.818   6.306  12.949
    1STR  O0F   8701  12.739   6.426  12.947
    1STR  C0G   8702  12.798   6.538  12.880
    1STR  C0H   8703  12.783   6.520  12.728
    1STR  C0I   8704  12.728   6.668  12.927
    1STR  O0J   8705  12.792   6.784  12.872
    1STR  C0K   8706  12.741   6.912  12.913
    1STR  C0M   8707  12.788   6.944  13.056
    1STR  C0N   8708  12.790   7.022  12.815
    1STR  O0O   8709  12.725   7.148  12.838
    1STR  C0P   8710  12.794   7.262  12.868
    1STR  O0Q   8711  12.913   7.270  12.893
    1STR  N0R   8712  12.707   7.363  12.868
    1STR  C0S   8713  12.714   7.499  12.903
    1STR  C0T   8714  12.594   7.553  12.953
    1STR  C0U   8715  12.589   7.682  13.006
    1STR  C0V   8716  12.702   7.765  13.000
    1STR  C0W   8717  12.707   7.890  13.088
    1STR  C0X   8718  12.813   7.725  12.923
    1STR  N0Y   8719  12.903   7.824  12.880
    1STR  BCK2  8720  12.862   7.940  12.823
    1STR  O10   8721  12.941   8.027  12.788
    1STR  C13   8722  12.825   7.588  12.886
    1STR  C14   8723  12.682   5.659  13.052
    1STR  C15   8724  12.653   5.523  13.052
    1STR  C16   8725  12.754   5.427  13.038
    1STR  C17   8726  12.709   5.282  13.038
    1STR  H1B   8727  13.090   5.410  13.040
    1STR  H1C   8728  13.019   5.642  13.015
    1STR  H1D   8729  12.937   5.875  13.023
    1STR  H1E   8730  12.649   6.177  12.972
    1STR  H1F   8731  12.804   6.251  13.227
    1STR  H1G   8732  12.653   6.324  13.173
    1STR  H1H   8733  12.657   6.155  13.221
    1STR  H1I   8734  12.838   6.272  12.848
    1STR  H1J   8735  12.915   6.325  12.996
    1STR  H1K   8736  12.903   6.545  12.906
    1STR  H1M   8737  12.678   6.509  12.699
    1STR  H1N   8738  12.836   6.432  12.691
    1STR  H1O   8739  12.823   6.606  12.675
    1STR  H1P   8740  12.623   6.666  12.900
    1STR  H1Q   8741  12.732   6.670  13.036
    1STR  H1R   8742  12.632   6.909  12.910
    1STR  H1S   8743  12.751   7.041  13.088
    1STR  H1T   8744  12.897   6.947  13.061
    1STR  H1U   8745  12.754   6.871  13.129
    1STR  H1V   8746  12.764   6.991  12.714
    1STR  H1W   8747  12.898   7.031  12.817
    1STR  H1X   8748  12.616   7.328  12.847
    1STR  H1Y   8749  12.504   7.493  12.957
    1STR  H1Z   8750  12.498   7.717  13.053
    1STR  H20   8751  12.791   7.878  13.157
    1STR  H21   8752  12.722   7.982  13.033
    1STR  H22   8753  12.618   7.900  13.149
    1STR  H23   8754  13.003   7.809  12.884
    1STR  H27   8755  12.915   7.550  12.840
    1STR  H28   8756  12.597   5.724  13.065
    1STR  H29   8757  12.550   5.492  13.064
    1STR  H2A   8758  12.738   5.234  12.944
    1STR  H2B   8759  12.601   5.273  13.046
    1STR  H2C   8760  12.752   5.228  13.122
    1STR  BCK1  8761  13.039   9.621   0.001
    1STR  O03   8762  13.127   9.536  17.430
    1STR  N04   8763  13.052   9.748   0.050
    1STR  C05   8764  13.150   9.825   0.119
    1STR  C06   8765  13.140   9.969   0.115
    1STR  C07   8766  13.227  10.057   0.188
    1STR  N08   8767  13.211  10.199   0.184
    1STR  C09   8768  13.278  10.299   0.245
    1STR  O0A   8769  13.375  10.283   0.319
    1STR  O0B   8770  13.227  10.424   0.216
    1STR  C0C   8771  13.288  10.545   0.269
    1STR  C0D   8772  13.410  10.584   0.183
    1STR  C0E   8773  13.187  10.664   0.277
    1STR  O0F   8774  13.243  10.788   0.327
    1STR  C0G   8775  13.155  10.902   0.338
    1STR  C0H   8776  13.063  10.882   0.459
    1STR  C0I   8777  13.235  11.037   0.350
    1STR  O0J   8778  13.151  11.156   0.346
    1STR  C0K   8779  13.215  11.287   0.343
    1STR  C0M   8780  13.281  11.308   0.206
    1STR  C0N   8781  13.112  11.405   0.366
    1STR  O0O   8782  13.161  11.541   0.352
    1STR  C0P   8783  13.109  11.635   0.262
    1STR  O0Q   8784  13.033  11.609   0.170
    1STR  N0R   8785  13.154  11.759   0.291
    1STR  C0S   8786  13.149  11.893   0.240
    1STR  C0T   8787  13.234  11.978   0.312
    1STR  C0U   8788  13.254  12.111   0.273
    1STR  C0V   8789  13.188  12.167   0.161
    1STR  C0W   8790  13.236  12.304   0.120
    1STR  C0X   8791  13.089  12.092   0.089
    1STR  N0Y   8792  13.012  12.146  17.419
    1STR  BCK2  8793  12.974  12.268  17.364
    1STR  O10   8794  12.999  12.380  17.408
    1STR  C13   8795  13.076  11.952   0.130
    1STR  C14   8796  13.329   9.996   0.265
    1STR  C15   8797  13.340   9.856   0.271
    1STR  C16   8798  13.252   9.771   0.202
    1STR  C17   8799  13.270   9.622   0.227
    1STR  H1B   8800  12.969   9.802   0.029
    1STR  H1C   8801  13.063  10.013   0.055
    1STR  H1D   8802  13.137  10.235   0.127
    1STR  H1E   8803  13.323  10.525   0.371
    1STR  H1F   8804  13.382  10.604   0.080
    1STR  H1G   8805  13.458  10.674   0.223
    1STR  H1H   8806  13.486  10.506   0.183
    1STR  H1I   8807  13.104  10.632   0.340
    1STR  H1J   8808  13.145  10.682   0.177
    1STR  H1K   8809  13.095  10.908   0.247
    1STR  H1M   8810  13.120  10.871   0.551
    1STR  H1N   8811  12.999  10.795   0.449
    1STR  H1O   8812  12.997  10.968   0.472
    1STR  H1P   8813  13.294  11.036   0.441
    1STR  H1Q   8814  13.306  11.039   0.268
    1STR  H1R   8815  13.291  11.291   0.421
    1STR  H1S   8816  13.332  11.404   0.203
    1STR  H1T   8817  13.207  11.308   0.127
    1STR  H1U   8818  13.356  11.232   0.183
    1STR  H1V   8819  13.074  11.395   0.468
    1STR  H1W   8820  13.024  11.390   0.303
    1STR  H1X   8821  13.211  11.749   0.374
    1STR  H1Y   8822  13.290  11.943   0.398
    1STR  H1Z   8823  13.325  12.170   0.329
    1STR  H20   8824  13.248  12.309   0.012
    1STR  H21   8825  13.168  12.382   0.154
    1STR  H22   8826  13.334  12.325   0.163
    1STR  H23   8827  12.971  12.072  17.365
    1STR  H27   8828  13.008  11.887   0.077
    1STR  H28   8829  13.399  10.053   0.322
    1STR  H29   8830  13.418   9.815   0.333
    1STR  H2A   8831  13.173   9.573   0.238
    1STR  H2B   8832  13.326   9.603   0.318
    1STR  H2C   8833  13.324   9.577   0.144
    1STR  BCK1  8834  13.015   9.614   4.311
    1STR  O03   8835  12.932   9.559   4.239
    1STR  N04   8836  13.074   9.735   4.291
    1STR  C05   8837  13.075   9.824   4.181
    1STR  C06   8838  13.084   9.966   4.204
    1STR  C07   8839  13.086  10.061   4.097
    1STR  N08   8840  13.099  10.201   4.121
    1STR  C09   8841  13.094  10.306   4.036
    1STR  O0A   8842  13.074  10.296   3.915
    1STR  O0B   8843  13.115  10.426   4.097
    1STR  C0C   8844  13.107  10.549   4.021
    1STR  C0D   8845  12.959  10.589   4.002
    1STR  C0E   8846  13.188  10.664   4.086
    1STR  O0F   8847  13.182  10.786   4.009
    1STR  C0G   8848  13.254  10.899   4.061
    1STR  C0H   8849  13.404  10.880   4.034
    1STR  C0I   8850  13.202  11.031   3.998
    1STR  O0J   8851  13.261  11.149   4.057
    1STR  C0K   8852  13.211  11.277   4.012
    1STR  C0M   8853  13.071  11.302   4.069
    1STR  C0N   8854  13.303  11.394   4.056
    1STR  O0O   8855  13.260  11.522   4.004
    1STR  C0P   8856  13.210  11.625   4.080
    1STR  O0Q   8857  13.188  11.623   4.200
    1STR  N0R   8858  13.193  11.730   3.998
    1STR  C0S   8859  13.153  11.865   3.998
    1STR  C0T   8860  13.197  11.929   3.880
    1STR  C0U   8861  13.170  12.064   3.856
    1STR  C0V   8862  13.095  12.140   3.946
    1STR  C0W   8863  13.084  12.288   3.914
    1STR  C0X   8864  13.039  12.080   4.063
    1STR  N0Y   8865  12.954  12.158   4.147
    1STR  BCK2  8866  12.881  12.268   4.116
    1STR  O10   8867  12.817  12.330   4.201
    1STR  C13   8868  13.074  11.942   4.090
    1STR  C14   8869  13.077  10.009   3.966
    1STR  C15   8870  13.074   9.872   3.941
    1STR  C16   8871  13.077   9.779   4.047
    1STR  C17   8872  13.092   9.633   4.008
    1STR  H1B   8873  13.123   9.768   4.372
    1STR  H1C   8874  13.089  10.002   4.305
    1STR  H1D   8875  13.114  10.231   4.216
    1STR  H1E   8876  13.150  10.532   3.922
    1STR  H1F   8877  12.911  10.608   4.098
    1STR  H1G   8878  12.951  10.680   3.942
    1STR  H1H   8879  12.903  10.511   3.950
    1STR  H1I   8880  13.291  10.631   4.097
    1STR  H1J   8881  13.150  10.682   4.187
    1STR  H1K   8882  13.237  10.906   4.169
    1STR  H1M   8883  13.424  10.870   3.927
    1STR  H1N   8884  13.445  10.793   4.084
    1STR  H1O   8885  13.461  10.967   4.069
    1STR  H1P   8886  13.220  11.030   3.890
    1STR  H1Q   8887  13.094  11.032   4.010
    1STR  H1R   8888  13.206  11.276   3.902
    1STR  H1S   8889  13.032  11.398   4.035
    1STR  H1T   8890  13.074  11.305   4.178
    1STR  H1U   8891  12.998  11.226   4.040
    1STR  H1V   8892  13.403  11.376   4.016
    1STR  H1W   8893  13.315  11.398   4.164
    1STR  H1X   8894  13.226  11.697   3.909
    1STR  H1Y   8895  13.255  11.876   3.807
    1STR  H1Z   8896  13.208  12.109   3.766
    1STR  H20   8897  12.985  12.311   3.875
    1STR  H21   8898  13.102  12.348   4.004
    1STR  H22   8899  13.157  12.320   3.840
    1STR  H23   8900  12.943  12.129   4.243
    1STR  H27   8901  13.038  11.893   4.180
    1STR  H28   8902  13.075  10.072   3.878
    1STR  H29   8903  13.071   9.837   3.839
    1STR  H2A   8904  13.154   9.580   4.080
    1STR  H2B   8905  13.140   9.623   3.911
    1STR  H2C   8906  12.994   9.585   4.002
    1STR  BCK1  8907  12.987   9.617   8.676
    1STR  O03   8908  13.013   9.527   8.755
    1STR  N04   8909  12.976   9.750   8.703
    1STR  C05   8910  12.929   9.829   8.811
    1STR  C06   8911  12.940   9.972   8.799
    1STR  C07   8912  12.888  10.064   8.895
    1STR  N08   8913  12.897  10.204   8.875
    1STR  C09   8914  12.845  10.306   8.947
    1STR  O0A   8915  12.779  10.294   9.049
    1STR  O0B   8916  12.875  10.428   8.892
    1STR  C0C   8917  12.830  10.550   8.955
    1STR  C0D   8918  12.927  10.590   9.067
    1STR  C0E   8919  12.815  10.664   8.851
    1STR  O0F   8920  12.767  10.785   8.911
    1STR  C0G   8921  12.749  10.898   8.824
    1STR  C0H   8922  12.620  10.880   8.742
    1STR  C0I   8923  12.745  11.029   8.907
    1STR  O0J   8924  12.739  11.146   8.822
    1STR  C0K   8925  12.742  11.275   8.887
    1STR  C0M   8926  12.884  11.304   8.937
    1STR  C0N   8927  12.697  11.385   8.787
    1STR  O0O   8928  12.687  11.517   8.845
    1STR  C0P   8929  12.749  11.626   8.792
    1STR  O0Q   8930  12.836  11.625   8.706
    1STR  N0R   8931  12.701  11.737   8.850
    1STR  C0S   8932  12.731  11.875   8.844
    1STR  C0T   8933  12.700  11.944   8.963
    1STR  C0U   8934  12.736  12.079   8.979
    1STR  C0V   8935  12.797  12.150   8.874
    1STR  C0W   8936  12.866  12.280   8.910
    1STR  C0X   8937  12.808  12.092   8.745
    1STR  N0Y   8938  12.851  12.171   8.636
    1STR  BCK2  8939  12.799  12.288   8.589
    1STR  O10   8940  12.850  12.348   8.495
    1STR  C13   8941  12.784  11.951   8.735
    1STR  C14   8942  12.824  10.008   9.008
    1STR  C15   8943  12.813   9.869   9.024
    1STR  C16   8944  12.863   9.779   8.927
    1STR  C17   8945  12.841   9.632   8.955
    1STR  H1B   8946  13.009   9.804   8.626
    1STR  H1C   8947  12.990  10.013   8.712
    1STR  H1D   8948  12.949  10.237   8.796
    1STR  H1E   8949  12.731  10.533   8.999
    1STR  H1F   8950  13.027  10.608   9.029
    1STR  H1G   8951  12.893  10.680   9.117
    1STR  H1H   8952  12.934  10.512   9.143
    1STR  H1I   8953  12.746  10.630   8.773
    1STR  H1J   8954  12.911  10.682   8.802
    1STR  H1K   8955  12.835  10.904   8.756
    1STR  H1M   8956  12.533  10.869   8.808
    1STR  H1N   8957  12.624  10.792   8.678
    1STR  H1O   8958  12.603  10.966   8.678
    1STR  H1P   8959  12.659  11.027   8.974
    1STR  H1Q   8960  12.833  11.032   8.970
    1STR  H1R   8961  12.672  11.274   8.972
    1STR  H1S   8962  12.888  11.402   8.986
    1STR  H1T   8963  12.955  11.307   8.854
    1STR  H1U   8964  12.920  11.231   9.009
    1STR  H1V   8965  12.598  11.360   8.750
    1STR  H1W   8966  12.762  11.386   8.700
    1STR  H1X   8967  12.633  11.710   8.918
    1STR  H1Y   8968  12.654  11.893   9.047
    1STR  H1Z   8969  12.721  12.125   9.076
    1STR  H20   8970  12.974  12.262   8.908
    1STR  H21   8971  12.844  12.361   8.841
    1STR  H22   8972  12.842  12.313   9.011
    1STR  H23   8973  12.930  12.138   8.583
    1STR  H27   8974  12.804  11.899   8.642
    1STR  H28   8975  12.782  10.068   9.086
    1STR  H29   8976  12.763   9.831   9.112
    1STR  H2A   8977  12.798   9.582   8.868
    1STR  H2B   8978  12.772   9.616   9.037
    1STR  H2C   8979  12.936   9.585   8.982
    1STR  BCK1  8980  13.062   9.623  13.037
    1STR  O03   8981  13.118   9.550  12.955
    1STR  N04   8982  13.104   9.745  13.081
    1STR  C05   8983  13.220   9.825  13.065
    1STR  C06   8984  13.210   9.968  13.077
    1STR  C07   8985  13.321  10.058  13.066
    1STR  N08   8986  13.307  10.199  13.081
    1STR  C09   8987  13.396  10.300  13.068
    1STR  O0A   8988  13.514  10.286  13.037
    1STR  O0B   8989  13.341  10.425  13.094
    1STR  C0C   8990  13.420  10.546  13.079
    1STR  C0D   8991  13.426  10.585  12.930
    1STR  C0E   8992  13.364  10.665  13.164
    1STR  O0F   8993  13.438  10.789  13.150
    1STR  C0G   8994  13.393  10.903  13.227
    1STR  C0H   8995  13.434  10.883  13.374
    1STR  C0I   8996  13.451  11.038  13.170
    1STR  O0J   8997  13.398  11.159  13.233
    1STR  C0K   8998  13.434  11.288  13.176
    1STR  C0M   8999  13.366  11.306  13.040
    1STR  C0N   9000  13.392  11.411  13.267
    1STR  O0O   9001  13.416  11.543  13.210
    1STR  C0P   9002  13.316  11.636  13.177
    1STR  O0Q   9003  13.196  11.613  13.178
    1STR  N0R   9004  13.371  11.755  13.147
    1STR  C0S   9005  13.336  11.888  13.105
    1STR  C0T   9006  13.447  11.974  13.111
    1STR  C0U   9007  13.440  12.107  13.070
    1STR  C0V   9008  13.321  12.162  13.018
    1STR  C0W   9009  13.333  12.306  12.973
    1STR  C0X   9010  13.201  12.085  13.009
    1STR  N0Y   9011  13.079  12.135  12.949
    1STR  BCK2  9012  13.020  12.255  12.908
    1STR  O10   9013  13.052  12.369  12.940
    1STR  C13   9014  13.213  11.946  13.054
    1STR  C14   9015  13.447   9.998  13.043
    1STR  C15   9016  13.461   9.858  13.036
    1STR  C16   9017  13.351   9.772  13.050
    1STR  C17   9018  13.382   9.623  13.055
    1STR  H1B   9019  13.033   9.789  13.136
    1STR  H1C   9020  13.112  10.011  13.093
    1STR  H1D   9021  13.216  10.234  13.106
    1STR  H1E   9022  13.522  10.526  13.113
    1STR  H1F   9023  13.327  10.605  12.889
    1STR  H1G   9024  13.486  10.675  12.916
    1STR  H1H   9025  13.472  10.506  12.870
    1STR  H1I   9026  13.363  10.633  13.268
    1STR  H1J   9027  13.260  10.682  13.136
    1STR  H1K   9028  13.285  10.909  13.219
    1STR  H1M   9029  13.542  10.872  13.384
    1STR  H1N   9030  13.387  10.796  13.418
    1STR  H1O   9031  13.404  10.969  13.434
    1STR  H1P   9032  13.560  11.037  13.179
    1STR  H1Q   9033  13.430  11.039  13.064
    1STR  H1R   9034  13.543  11.291  13.164
    1STR  H1S   9035  13.395  11.401  12.996
    1STR  H1T   9036  13.258  11.306  13.052
    1STR  H1U   9037  13.393  11.228  12.969
    1STR  H1V   9038  13.449  11.404  13.359
    1STR  H1W   9039  13.287  11.401  13.297
    1STR  H1X   9040  13.470  11.743  13.163
    1STR  H1Y   9041  13.543  11.939  13.148
    1STR  H1Z   9042  13.529  12.167  13.076
    1STR  H20   9043  13.279  12.324  12.881
    1STR  H21   9044  13.297  12.373  13.052
    1STR  H22   9045  13.437  12.332  12.952
    1STR  H23   9046  13.014  12.060  12.932
    1STR  H27   9047  13.128  11.880  13.050
    1STR  H28   9048  13.537  10.056  13.033
    1STR  H29   9049  13.560   9.818  13.021
    1STR  H2A   9050  13.320   9.573  13.129
    1STR  H2B   9051  13.486   9.605  13.082
    1STR  H2C   9052  13.364   9.578  12.957
    1STR  BCK1  9053  13.026  13.959  17.394
    1STR  O03   9054  12.926  13.898  17.429
    1STR  N04   9055  13.033  14.089  17.354
    1STR  C05   9056  12.938  14.183  17.307
    1STR  C06   9057  12.963  14.324  17.320
    1STR  C07   9058  12.875  14.424  17.268
    1STR  N08   9059  12.903  14.563  17.276
    1STR  C09   9060  12.833  14.669  17.230
    1STR  O0A   9061  12.726  14.662  17.171
    1STR  O0B   9062  12.894  14.789  17.254
    1STR  C0C   9063  12.828  14.912  17.214
    1STR  C0D   9064  12.723  14.952  17.319
    1STR  C0E   9065  12.930  15.026  17.189
    1STR  O0F   9066  12.864  15.146  17.146
    1STR  C0G   9067  12.949  15.259  17.120
    1STR  C0H   9068  13.018  15.240  16.984
    1STR  C0I   9069  12.866  15.390  17.122
    1STR  O0J   9070  12.949  15.507  17.110
    1STR  C0K   9071  12.884  15.635  17.118
    1STR  C0M   9072  12.846  15.665  17.263
    1STR  C0N   9073  12.978  15.746  17.063
    1STR  O0O   9074  12.913  15.873  17.046
    1STR  C0P   9075  12.949  15.987  17.114
    1STR  O0Q   9076  13.029  15.994  17.206
    1STR  N0R   9077  12.877  16.088  17.064
    1STR  C0S   9078  12.849  16.221  17.100
    1STR  C0T   9079  12.721  16.264  17.061
    1STR  C0U   9080  12.666  16.383  17.110
    1STR  C0V   9081  12.744  16.468  17.189
    1STR  C0W   9082  12.675  16.570  17.279
    1STR  C0X   9083  12.884  16.448  17.195
    1STR  N0Y   9084  12.964  16.560  17.221
    1STR  BCK2  9085  12.938  16.682  17.169
    1STR  O10   9086  13.009  16.780  17.192
    1STR  C13   9087  12.935  16.317  17.164
    1STR  C14   9088  12.757  14.377  17.205
    1STR  C15   9089  12.732  14.241  17.188
    1STR  C16   9090  12.822  14.144  17.234
    1STR  C17   9091  12.791  14.001  17.195
    1STR  H1B   9092  13.126  14.126  17.364
    1STR  H1C   9093  13.053  14.356  17.370
    1STR  H1D   9094  12.988  14.591  17.322
    1STR  H1E   9095  12.777  14.895  17.119
    1STR  H1F   9096  12.769  14.971  17.416
    1STR  H1G   9097  12.671  15.043  17.289
    1STR  H1H   9098  12.648  14.874  17.332
    1STR  H1I   9099  13.001  14.992  17.114
    1STR  H1J   9100  12.987  15.045  17.281
    1STR  H1K   9101  13.025  15.266  17.199
    1STR  H1M   9102  12.945  15.229  16.903
    1STR  H1N   9103  13.083  15.153  16.981
    1STR  H1O   9104  13.080  15.327  16.960
    1STR  H1P   9105  12.791  15.388  17.043
    1STR  H1Q   9106  12.811  15.392  17.216
    1STR  H1R   9107  12.794  15.633  17.056
    1STR  H1S   9108  12.798  15.763  17.271
    1STR  H1T   9109  12.935  15.668  17.326
    1STR  H1U   9110  12.778  15.592  17.306
    1STR  H1V   9111  13.013  15.716  16.964
    1STR  H1W   9112  13.068  15.755  17.125
    1STR  H1X   9113  12.821  16.051  16.990
    1STR  H1Y   9114  12.658  16.201  17.000
    1STR  H1Z   9115  12.563  16.407  17.090
    1STR  H20   9116  12.700  16.545  17.382
    1STR  H21   9117  12.704  16.673  17.264
    1STR  H22   9118  12.567  16.564  17.270
    1STR  H23   9119  13.051  16.552  17.271
    1STR  H27   9120  13.037  16.291  17.185
    1STR  H28   9121  12.682  14.442  17.164
    1STR  H29   9122  12.643  14.211  17.136
    1STR  H2A   9123  12.881  13.951  17.161
    1STR  H2B   9124  12.719  13.997  17.113
    1STR  H2C   9125  12.747  13.948  17.279
    1STR  BCK1  9126  13.005  13.980   4.362
    1STR  O03   9127  13.080  13.890   4.397
    1STR  N04   9128  13.005  14.110   4.404
    1STR  C05   9129  13.060  14.187   4.511
    1STR  C06   9130  13.057  14.330   4.500
    1STR  C07   9131  13.099  14.419   4.604
    1STR  N08   9132  13.090  14.560   4.590
    1STR  C09   9133  13.115  14.661   4.677
    1STR  O0A   9134  13.156  14.646   4.792
    1STR  O0B   9135  13.089  14.785   4.623
    1STR  C0C   9136  13.112  14.907   4.700
    1STR  C0D   9137  13.261  14.946   4.692
    1STR  C0E   9138  13.022  15.024   4.651
    1STR  O0F   9139  13.042  15.147   4.725
    1STR  C0G   9140  12.962  15.261   4.686
    1STR  C0H   9141  12.819  15.241   4.738
    1STR  C0I   9142  13.023  15.394   4.739
    1STR  O0J   9143  12.953  15.513   4.692
    1STR  C0K   9144  13.008  15.643   4.725
    1STR  C0M   9145  13.136  15.667   4.644
    1STR  C0N   9146  12.904  15.757   4.692
    1STR  O0O   9147  12.948  15.894   4.715
    1STR  C0P   9148  12.943  15.993   4.618
    1STR  O0Q   9149  12.928  15.973   4.498
    1STR  N0R   9150  12.959  16.115   4.674
    1STR  C0S   9151  12.973  16.250   4.632
    1STR  C0T   9152  13.024  16.333   4.733
    1STR  C0U   9153  13.057  16.466   4.707
    1STR  C0V   9154  13.037  16.524   4.580
    1STR  C0W   9155  13.107  16.658   4.560
    1STR  C0X   9156  12.968  16.454   4.477
    1STR  N0Y   9157  12.930  16.511   4.350
    1STR  BCK2  9158  12.905  16.634   4.293
    1STR  O10   9159  12.918  16.744   4.345
    1STR  C13   9160  12.943  16.313   4.505
    1STR  C14   9161  13.149  14.359   4.722
    1STR  C15   9162  13.154  14.219   4.735
    1STR  C16   9163  13.109  14.133   4.633
    1STR  C17   9164  13.113  13.985   4.665
    1STR  H1B   9165  12.951  14.167   4.341
    1STR  H1C   9166  13.020  14.374   4.409
    1STR  H1D   9167  13.058  14.596   4.502
    1STR  H1E   9168  13.087  14.887   4.804
    1STR  H1F   9169  13.292  14.965   4.590
    1STR  H1G   9170  13.280  15.036   4.750
    1STR  H1H   9171  13.325  14.867   4.733
    1STR  H1I   9172  12.918  14.992   4.659
    1STR  H1J   9173  13.041  15.042   4.545
    1STR  H1K   9174  12.960  15.267   4.577
    1STR  H1M   9175  12.818  15.230   4.847
    1STR  H1N   9176  12.770  15.154   4.696
    1STR  H1O   9177  12.757  15.327   4.713
    1STR  H1P   9178  13.025  15.393   4.848
    1STR  H1Q   9179  13.128  15.397   4.708
    1STR  H1R   9180  13.030  15.646   4.832
    1STR  H1S   9181  13.179  15.764   4.670
    1STR  H1T   9182  13.114  15.668   4.538
    1STR  H1U   9183  13.213  15.593   4.663
    1STR  H1V   9184  12.817  15.741   4.756
    1STR  H1W   9185  12.868  15.746   4.590
    1STR  H1X   9186  12.968  16.100   4.773
    1STR  H1Y   9187  13.044  16.294   4.832
    1STR  H1Z   9188  13.104  16.522   4.787
    1STR  H20   9189  13.170  16.653   4.471
    1STR  H21   9190  13.037  16.740   4.551
    1STR  H22   9191  13.173  16.681   4.644
    1STR  H23   9192  12.911  16.438   4.283
    1STR  H27   9193  12.900  16.250   4.429
    1STR  H28   9194  13.184  14.417   4.806
    1STR  H29   9195  13.192  14.179   4.828
    1STR  H2A   9196  13.022  13.935   4.633
    1STR  H2B   9197  13.123  13.967   4.772
    1STR  H2C   9198  13.199  13.938   4.616
    1STR  BCK1  9199  13.031  13.981   8.659
    1STR  O03   9200  13.001  13.920   8.557
    1STR  N04   9201  13.094  14.101   8.669
    1STR  C05   9202  13.158  14.186   8.575
    1STR  C06   9203  13.158  14.328   8.596
    1STR  C07   9204  13.221  14.420   8.507
    1STR  N08   9205  13.222  14.560   8.532
    1STR  C09   9206  13.265  14.664   8.456
    1STR  O0A   9207  13.312  14.652   8.343
    1STR  O0B   9208  13.251  14.786   8.518
    1STR  C0C   9209  13.286  14.908   8.448
    1STR  C0D   9210  13.171  14.948   8.353
    1STR  C0E   9211  13.319  15.025   8.546
    1STR  O0F   9212  13.354  15.147   8.479
    1STR  C0G   9213  13.387  15.261   8.561
    1STR  C0H   9214  13.529  15.242   8.618
    1STR  C0I   9215  13.378  15.394   8.480
    1STR  O0J   9216  13.395  15.514   8.560
    1STR  C0K   9217  13.375  15.642   8.495
    1STR  C0M   9218  13.225  15.663   8.468
    1STR  C0N   9219  13.425  15.763   8.580
    1STR  O0O   9220  13.407  15.892   8.515
    1STR  C0P   9221  13.319  15.991   8.557
    1STR  O0Q   9222  13.238  15.981   8.648
    1STR  N0R   9223  13.340  16.100   8.482
    1STR  C0S   9224  13.295  16.234   8.466
    1STR  C0T   9225  13.387  16.311   8.393
    1STR  C0U   9226  13.365  16.445   8.364
    1STR  C0V   9227  13.248  16.511   8.404
    1STR  C0W   9228  13.243  16.661   8.380
    1STR  C0X   9229  13.144  16.439   8.471
    1STR  N0Y   9230  13.022  16.506   8.505
    1STR  BCK2  9231  12.962  16.616   8.451
    1STR  O10   9232  12.858  16.663   8.498
    1STR  C13   9233  13.172  16.300   8.505
    1STR  C14   9234  13.285  14.365   8.393
    1STR  C15   9235  13.291  14.226   8.373
    1STR  C16   9236  13.232  14.136   8.464
    1STR  C17   9237  13.260  13.989   8.443
    1STR  H1B   9238  13.091  14.138   8.762
    1STR  H1C   9239  13.107  14.367   8.683
    1STR  H1D   9240  13.185  14.592   8.620
    1STR  H1E   9241  13.375  14.890   8.388
    1STR  H1F   9242  13.078  14.967   8.408
    1STR  H1G   9243  13.196  15.038   8.298
    1STR  H1H   9244  13.151  14.870   8.280
    1STR  H1I   9245  13.401  14.992   8.610
    1STR  H1J   9246  13.233  15.043   8.612
    1STR  H1K   9247  13.315  15.268   8.643
    1STR  H1M   9248  13.602  15.231   8.539
    1STR  H1N   9249  13.536  15.154   8.683
    1STR  H1O   9250  13.558  15.328   8.678
    1STR  H1P   9251  13.451  15.393   8.399
    1STR  H1Q   9252  13.280  15.395   8.432
    1STR  H1R   9253  13.430  15.642   8.400
    1STR  H1S   9254  13.208  15.758   8.418
    1STR  H1T   9255  13.170  15.665   8.562
    1STR  H1U   9256  13.182  15.586   8.405
    1STR  H1V   9257  13.532  15.750   8.597
    1STR  H1W   9258  13.380  15.763   8.679
    1STR  H1X   9259  13.417  16.076   8.422
    1STR  H1Y   9260  13.480  16.267   8.359
    1STR  H1Z   9261  13.442  16.500   8.311
    1STR  H20   9262  13.161  16.690   8.316
    1STR  H21   9263  13.234  16.712   8.476
    1STR  H22   9264  13.334  16.697   8.333
    1STR  H23   9265  12.969  16.466   8.581
    1STR  H27   9266  13.100  16.242   8.560
    1STR  H28   9267  13.334  14.426   8.319
    1STR  H29   9268  13.344  14.189   8.287
    1STR  H2A   9269  13.273  13.937   8.538
    1STR  H2B   9270  13.351  13.974   8.385
    1STR  H2C   9271  13.178  13.943   8.387
    1STR  BCK1  9272  12.978  13.967  13.029
    1STR  O03   9273  13.076  13.894  13.029
    1STR  N04   9274  12.987  14.100  13.043
    1STR  C05   9275  12.887  14.190  13.086
    1STR  C06   9276  12.909  14.331  13.077
    1STR  C07   9277  12.815  14.427  13.126
    1STR  N08   9278  12.838  14.566  13.113
    1STR  C09   9279  12.759  14.671  13.145
    1STR  O0A   9280  12.647  14.661  13.195
    1STR  O0B   9281  12.815  14.790  13.115
    1STR  C0C   9282  12.744  14.912  13.144
    1STR  C0D   9283  12.765  14.952  13.291
    1STR  C0E   9284  12.788  15.025  13.048
    1STR  O0F   9285  12.714  15.145  13.073
    1STR  C0G   9286  12.746  15.257  12.989
    1STR  C0H   9287  12.680  15.239  12.852
    1STR  C0I   9288  12.697  15.388  13.058
    1STR  O0J   9289  12.738  15.504  12.984
    1STR  C0K   9290  12.704  15.631  13.040
    1STR  C0M   9291  12.798  15.663  13.158
    1STR  C0N   9292  12.717  15.741  12.931
    1STR  O0O   9293  12.667  15.869  12.975
    1STR  C0P   9294  12.743  15.982  12.973
    1STR  O0Q   9295  12.863  15.988  12.951
    1STR  N0R   9296  12.665  16.086  13.002
    1STR  C0S   9297  12.686  16.223  13.024
    1STR  C0T   9298  12.595  16.283  13.113
    1STR  C0U   9299  12.612  16.416  13.155
    1STR  C0V   9300  12.715  16.495  13.100
    1STR  C0W   9301  12.753  16.624  13.172
    1STR  C0X   9302  12.791  16.446  12.991
    1STR  N0Y   9303  12.868  16.537  12.916
    1STR  BCK2  9304  12.819  16.651  12.862
    1STR  O10   9305  12.891  16.730  12.800
    1STR  C13   9306  12.784  16.306  12.961
    1STR  C14   9307  12.699  14.376  13.188
    1STR  C15   9308  12.675  14.239  13.197
    1STR  C16   9309  12.766  14.145  13.147
    1STR  C17   9310  12.729  13.999  13.165
    1STR  H1B   9311  13.080  14.135  13.030
    1STR  H1C   9312  13.000  14.367  13.031
    1STR  H1D   9313  12.925  14.597  13.074
    1STR  H1E   9314  12.637  14.896  13.127
    1STR  H1F   9315  12.871  14.970  13.313
    1STR  H1G   9316  12.710  15.043  13.315
    1STR  H1H   9317  12.730  14.874  13.358
    1STR  H1I   9318  12.771  14.991  12.945
    1STR  H1J   9319  12.895  15.044  13.059
    1STR  H1K   9320  12.854  15.264  12.978
    1STR  H1M   9321  12.572  15.229  12.860
    1STR  H1N   9322  12.718  15.152  12.799
    1STR  H1O   9323  12.700  15.326  12.788
    1STR  H1P   9324  12.589  15.386  13.068
    1STR  H1Q   9325  12.738  15.390  13.159
    1STR  H1R   9326  12.600  15.629  13.075
    1STR  H1S   9327  12.774  15.761  13.201
    1STR  H1T   9328  12.902  15.667  13.125
    1STR  H1U   9329  12.791  15.590  13.238
    1STR  H1V   9330  12.656  15.712  12.845
    1STR  H1W   9331  12.819  15.748  12.895
    1STR  H1X   9332  12.572  16.052  13.019
    1STR  H1Y   9333  12.515  16.226  13.157
    1STR  H1Z   9334  12.548  16.456  13.231
    1STR  H20   9335  12.851  16.608  13.219
    1STR  H21   9336  12.762  16.710  13.106
    1STR  H22   9337  12.683  16.648  13.252
    1STR  H23   9338  12.964  16.516  12.896
    1STR  H27   9339  12.851  16.263  12.888
    1STR  H28   9340  12.623  14.440  13.231
    1STR  H29   9341  12.584  14.206  13.246
    1STR  H2A   9342  12.721  13.950  13.068
    1STR  H2B   9343  12.633  13.987  13.214
    1STR  H2C   9344  12.804  13.948  13.226
    1STR  BCK1  9345   0.036  17.431   0.909
    1STR  O03   9346   0.081  17.342   0.838
    1STR  N04   9347  17.416  17.417   1.030
    1STR  C05   9348  17.374  17.307   1.108
    1STR  C06   9349  17.371  17.322   1.250
    1STR  C07   9350  17.326  17.220   1.338
    1STR  N08   9351  17.323  17.241   1.478
    1STR  C09   9352  17.290  17.157   1.579
    1STR  O0A   9353  17.257  17.040   1.566
    1STR  O0B   9354  17.298  17.218   1.701
    1STR  C0C   9355  17.272  17.144   1.822
    1STR  C0D   9356  17.397  17.064   1.864
    1STR  C0E   9357  17.225  17.238   1.936
    1STR  O0F   9358  17.197  17.164   2.055
    1STR  C0G   9359  17.156  17.242   2.168
    1STR  C0H   9360  17.008  17.282   2.154
    1STR  C0I   9361  17.178  17.159   2.297
    1STR  O0J   9362  17.148  17.239   2.412
    1STR  C0K   9363  17.164  17.176   2.539
    1STR  C0M   9364  17.313  17.174   2.578
    1STR  C0N   9365  17.081  17.255   2.641
    1STR  O0O   9366  17.080  17.191   2.769
    1STR  C0P   9367  17.154  17.239   2.870
    1STR  O0Q   9368  17.230  17.335   2.864
    1STR  N0R   9369  17.132  17.165   2.979
    1STR  C0S   9370  17.185  17.169   3.108
    1STR  C0T   9371  17.138  17.073   3.200
    1STR  C0U   9372  17.190  17.069   3.330
    1STR  C0V   9373  17.289  17.158   3.373
    1STR  C0W   9374  17.342  17.139   3.513
    1STR  C0X   9375  17.338  17.258   3.283
    1STR  N0Y   9376   0.003  17.347   3.309
    1STR  BCK2  9377   0.053  17.405   3.419
    1STR  O10   9378   0.002  17.407   3.530
    1STR  C13   9379  17.283  17.262   3.152
    1STR  C14   9380  17.284  17.099   1.279
    1STR  C15   9381  17.283  17.082   1.140
    1STR  C16   9382  17.324  17.186   1.054
    1STR  C17   9383  17.304  17.162   0.905
    1STR  H1B   9384  17.404   0.066   1.075
    1STR  H1C   9385  17.405  17.415   1.293
    1STR  H1D   9386  17.348  17.331   1.513
    1STR  H1E   9387  17.190  17.073   1.803
    1STR  H1F   9388   0.041  17.130   1.884
    1STR  H1G   9389  17.378  17.007   1.954
    1STR  H1H   9390  17.427  16.994   1.786
    1STR  H1I   9391  17.136  17.292   1.903
    1STR  H1J   9392  17.302  17.312   1.956
    1STR  H1K   9393  17.218  17.331   2.176
    1STR  H1M   9394  16.944  17.194   2.145
    1STR  H1N   9395  16.991  17.345   2.067
    1STR  H1O   9396  16.975  17.338   2.241
    1STR  H1P   9397  17.116  17.070   2.296
    1STR  H1Q   9398  17.282  17.126   2.301
    1STR  H1R   9399  17.125  17.074   2.535
    1STR  H1S   9400  17.327  17.127   2.675
    1STR  H1T   9401  17.352  17.276   2.585
    1STR  H1U   9402  17.374  17.120   2.506
    1STR  H1V   9403  16.977  17.261   2.607
    1STR  H1W   9404  17.115  17.359   2.648
    1STR  H1X   9405  17.064  17.093   2.959
    1STR  H1Y   9406  17.064  17.001   3.171
    1STR  H1Z   9407  17.153  16.993   3.398
    1STR  H20   9408   0.010  17.148   3.514
    1STR  H21   9409  17.299  17.214   3.579
    1STR  H22   9410  17.318  17.041   3.554
    1STR  H23   9411   0.045  17.384   3.225
    1STR  H27   9412  17.319  17.336   3.083
    1STR  H28   9413  17.250  17.015   1.338
    1STR  H29   9414  17.247  16.989   1.100
    1STR  H2A   9415  17.271  17.253   0.855
    1STR  H2B   9416  17.229  17.085   0.887
    1STR  H2C   9417  17.398  17.128   0.860
    1STR  BCK1  9418   0.054   0.013   5.251
    1STR  O03   9419   0.074   0.116   5.186
    1STR  N04   9420   0.092  17.429   5.378
    1STR  C05   9421   0.183   0.051   5.466
    1STR  C06   9422   0.161   0.038   5.607
    1STR  C07   9423   0.252   0.090   5.704
    1STR  N08   9424   0.231   0.071   5.843
    1STR  C09   9425   0.307   0.109   5.948
    1STR  O0A   9426   0.412   0.172   5.939
    1STR  O0B   9427   0.255   0.070   6.067
    1STR  C0C   9428   0.323   0.105   6.189
    1STR  C0D   9429   0.284   0.248   6.230
    1STR  C0E   9430   0.292   0.004   6.300
    1STR  O0F   9431   0.365   0.038   6.418
    1STR  C0G   9432   0.343  17.393   6.531
    1STR  C0H   9433   0.426  17.264   6.515
    1STR  C0I   9434   0.383   0.029   6.658
    1STR  O0J   9435   0.351  17.390   6.773
    1STR  C0K   9436   0.383   0.008   6.899
    1STR  C0M   9437   0.274   0.109   6.939
    1STR  C0N   9438   0.392  17.332   7.000
    1STR  O0O   9439   0.441  17.377   7.126
    1STR  C0P   9440   0.359  17.395   7.230
    1STR  O0Q   9441   0.237  17.378   7.228
    1STR  N0R   9442   0.430  17.435   7.335
    1STR  C0S   9443   0.392   0.030   7.465
    1STR  C0T   9444   0.489   0.092   7.546
    1STR  C0U   9445   0.456   0.138   7.675
    1STR  C0V   9446   0.326   0.121   7.726
    1STR  C0W   9447   0.290   0.186   7.859
    1STR  C0X   9448   0.231   0.047   7.651
    1STR  N0Y   9449   0.109   0.011   7.707
    1STR  BCK2  9450   0.097  17.392   7.825
    1STR  O10   9451  17.427  17.358   7.868
    1STR  C13   9452   0.263   0.007   7.520
    1STR  C14   9453   0.364   0.160   5.655
    1STR  C15   9454   0.388   0.172   5.518
    1STR  C16   9455   0.301   0.116   5.423
    1STR  C17   9456   0.347   0.122   5.279
    1STR  H1B   9457   0.040  17.352   5.418
    1STR  H1C   9458   0.073  17.426   5.642
    1STR  H1D   9459   0.150   0.021   5.872
    1STR  H1E   9460   0.431   0.102   6.172
    1STR  H1F   9461   0.177   0.257   6.249
    1STR  H1G   9462   0.337   0.278   6.321
    1STR  H1H   9463   0.311   0.320   6.153
    1STR  H1I   9464   0.321  17.344   6.266
    1STR  H1J   9465   0.185   0.002   6.320
    1STR  H1K   9466   0.237  17.368   6.539
    1STR  H1M   9467   0.532  17.286   6.506
    1STR  H1N   9468   0.396  17.206   6.429
    1STR  H1O   9469   0.413  17.200   6.603
    1STR  H1P   9470   0.489   0.053   6.656
    1STR  H1Q   9471   0.329   0.124   6.661
    1STR  H1R   9472   0.480   0.057   6.894
    1STR  H1S   9473   0.295   0.153   7.036
    1STR  H1T   9474   0.176   0.061   6.947
    1STR  H1U   9475   0.265   0.191   6.868
    1STR  H1V   9476   0.462  17.257   6.963
    1STR  H1W   9477   0.296  17.280   7.010
    1STR  H1X   9478   0.527   0.003   7.311
    1STR  H1Y   9479   0.590   0.107   7.511
    1STR  H1Z   9480   0.531   0.189   7.734
    1STR  H20   9481   0.187   0.223   7.855
    1STR  H21   9482   0.298   0.116   7.942
    1STR  H22   9483   0.354   0.272   7.880
    1STR  H23   9484   0.025   0.014   7.651
    1STR  H27   9485   0.188  17.395   7.462
    1STR  H28   9486   0.438   0.205   5.719
    1STR  H29   9487   0.477   0.224   5.485
    1STR  H2A   9488   0.329   0.027   5.229
    1STR  H2B   9489   0.453   0.144   5.271
    1STR  H2C   9490   0.294   0.202   5.227
    1STR  BCK1  9491   0.026   0.049   9.627
    1STR  O03   9492  17.396  -0.000   9.540
    1STR  N04   9493  17.432   0.079   9.755
    1STR  C05   9494  17.313   0.089   9.829
    1STR  C06   9495  17.325   0.086   9.972
    1STR  C07   9496  17.214   0.105  10.060
    1STR  N08   9497  17.232   0.106  10.200
    1STR  C09   9498  17.145   0.128  10.301
    1STR  O0A   9499  17.026   0.151  10.286
    1STR  O0B   9500  17.206   0.122  10.423
    1STR  C0C   9501  17.129   0.142  10.543
    1STR  C0D   9502  17.062   0.010  10.585
    1STR  C0E   9503  17.219   0.196  10.657
    1STR  O0F   9504  17.143   0.218  10.776
    1STR  C0G   9505  17.217   0.266  10.889
    1STR  C0H   9506  17.245   0.416  10.875
    1STR  C0I   9507  17.137   0.237  11.018
    1STR  O0J   9508  17.214   0.274  11.133
    1STR  C0K   9509  17.152   0.251  11.260
    1STR  C0M   9510  17.164   0.103  11.298
    1STR  C0N   9511  17.223   0.341  11.364
    1STR  O0O   9512  17.160   0.334  11.492
    1STR  C0P   9513  17.218   0.267  11.593
    1STR  O0Q   9514  17.322   0.202  11.584
    1STR  N0R   9515  17.145   0.281  11.703
    1STR  C0S   9516  17.160   0.231  11.833
    1STR  C0T   9517  17.058   0.257  11.926
    1STR  C0U   9518  17.064   0.205  12.056
    1STR  C0V   9519  17.173   0.126  12.098
    1STR  C0W   9520  17.164   0.064  12.237
    1STR  C0X   9521  17.281   0.102  12.009
    1STR  N0Y   9522  17.393   0.023  12.037
    1STR  BCK2  9523   0.026   0.005  12.148
    1STR  O10   9524   0.012   0.065  12.254
    1STR  C13   9525  17.272   0.155  11.877
    1STR  C14   9526  17.087   0.123  10.000
    1STR  C15   9527  17.073   0.126   9.861
    1STR  C16   9528  17.183   0.111   9.775
    1STR  C17   9529  17.155   0.125   9.627
    1STR  H1B   9530   0.075   0.097   9.809
    1STR  H1C   9531  17.422   0.071  10.015
    1STR  H1D   9532  17.325   0.088  10.236
    1STR  H1E   9533  17.051   0.216  10.525
    1STR  H1F   9534  17.135  17.372  10.605
    1STR  H1G   9535  17.002   0.023  10.675
    1STR  H1H   9536  16.994  17.414  10.507
    1STR  H1I   9537  17.265   0.289  10.623
    1STR  H1J   9538  17.300   0.126  10.676
    1STR  H1K   9539  17.312   0.212  10.897
    1STR  H1M   9540  17.152   0.473  10.865
    1STR  H1N   9541  17.306   0.439  10.788
    1STR  H1O   9542  17.297   0.455  10.962
    1STR  H1P   9543  17.042   0.291  11.016
    1STR  H1Q   9544  17.113   0.131  11.022
    1STR  H1R   9545  17.047   0.281  11.256
    1STR  H1S   9546  17.118   0.084  11.395
    1STR  H1T   9547  17.269   0.073  11.306
    1STR  H1U   9548  17.115   0.037  11.227
    1STR  H1V   9549  17.218   0.445  11.331
    1STR  H1W   9550  17.329   0.318  11.369
    1STR  H1X   9551  17.064   0.338  11.685
    1STR  H1Y   9552  16.971   0.316  11.898
    1STR  H1Z   9553  16.982   0.224  12.124
    1STR  H20   9554  17.207  17.404  12.238
    1STR  H21   9555  17.218   0.126  12.308
    1STR  H22   9556  17.061   0.055  12.271
    1STR  H23   9557  17.433  17.419  11.956
    1STR  H27   9558  17.353   0.135  11.808
    1STR  H28   9559  16.998   0.137  10.059
    1STR  H29   9560  16.974   0.142   9.820
    1STR  H2A   9561  17.231   0.185   9.577
    1STR  H2B   9562  17.059   0.174   9.609
    1STR  H2C   9563  17.151   0.026   9.580
    1STR  BCK1  9564   0.065   0.008  13.987
    1STR  O03   9565   0.169  17.425  13.926
    1STR  N04   9566   0.025  17.395  14.105
    1STR  C05   9567   0.079  17.294  14.187
    1STR  C06   9568   0.063  17.306  14.329
    1STR  C07   9569   0.113  17.207  14.420
    1STR  N08   9570   0.092  17.221  14.559
    1STR  C09   9571   0.137  17.146  14.662
    1STR  O0A   9572   0.210  17.048  14.650
    1STR  O0B   9573   0.092  17.191  14.782
    1STR  C0C   9574   0.134  17.126  14.903
    1STR  C0D   9575   0.272  17.178  14.946
    1STR  C0E   9576   0.030  17.147  15.015
    1STR  O0F   9577   0.070  17.078  15.133
    1STR  C0G   9578  17.424  17.094  15.246
    1STR  C0H   9579  17.303  17.001  15.232
    1STR  C0I   9580   0.064  17.062  15.373
    1STR  O0J   9581  17.421  17.090  15.486
    1STR  C0K   9582   0.039  17.063  15.613
    1STR  C0M   9583   0.132  17.178  15.655
    1STR  C0N   9584  17.361  17.047  15.711
    1STR  O0O   9585  17.408  17.004  15.838
    1STR  C0P   9586  17.419  17.089  15.940
    1STR  O0Q   9587  17.390  17.208  15.939
    1STR  N0R   9588   0.026  17.021  16.043
    1STR  C0S   9589   0.057  17.056  16.174
    1STR  C0T   9590   0.103  16.950  16.255
    1STR  C0U   9591   0.140  16.973  16.387
    1STR  C0V   9592   0.131  17.102  16.443
    1STR  C0W   9593   0.179  17.116  16.585
    1STR  C0X   9594   0.083  17.211  16.365
    1STR  N0Y   9595   0.067  17.341  16.415
    1STR  BCK2  9596   0.104  17.395  16.531
    1STR  O10   9597   0.071   0.070  16.560
    1STR  C13   9598   0.046  17.186  16.230
    1STR  C14   9599   0.181  17.097  14.364
    1STR  C15   9600   0.194  17.082  14.226
    1STR  C16   9601   0.141  17.177  14.136
    1STR  C17   9602   0.146  17.142  13.989
    1STR  H1B   9603  17.385   0.002  14.142
    1STR  H1C   9604   0.012  17.392  14.368
    1STR  H1D   9605   0.035  17.297  14.591
    1STR  H1E   9606   0.140  17.018  14.885
    1STR  H1F   9607   0.271  17.285  14.965
    1STR  H1G   9608   0.306  17.127  15.036
    1STR  H1H   9609   0.347  17.158  14.868
    1STR  H1I   9610  17.373  17.110  14.981
    1STR  H1J   9611   0.018  17.254  15.035
    1STR  H1K   9612  17.391  17.198  15.253
    1STR  H1M   9613  17.333  16.897  15.224
    1STR  H1N   9614  17.241  17.025  15.146
    1STR  H1O   9615  17.238  17.009  15.320
    1STR  H1P   9616   0.096  16.958  15.373
    1STR  H1Q   9617   0.154  17.124  15.376
    1STR  H1R   9618   0.095  16.969  15.610
    1STR  H1S   9619   0.177  17.159  15.752
    1STR  H1T   9620   0.076  17.272  15.664
    1STR  H1U   9621   0.213  17.194  15.584
    1STR  H1V   9622  17.294  16.969  15.674
    1STR  H1W   9623  17.302  17.138  15.718
    1STR  H1X   9624   0.041  16.925  16.016
    1STR  H1Y   9625   0.112  16.850  16.216
    1STR  H1Z   9626   0.175  16.891  16.447
    1STR  H20   9627   0.269  17.177  16.582
    1STR  H21   9628   0.101  17.163  16.646
    1STR  H22   9629   0.204  17.021  16.631
    1STR  H23   9630   0.017  17.407  16.357
    1STR  H27   9631   0.011  17.267  16.168
    1STR  H28   9632   0.223  17.019  14.425
    1STR  H29   9633   0.244  16.994  14.188
    1STR  H2A   9634   0.057  17.177  13.937
    1STR  H2B   9635   0.153  17.035  13.974
    1STR  H2C   9636   0.234  17.187  13.943
    1STR  BCK1  9637   0.079   4.382   0.897
    1STR  O03   9638   0.010   4.441   0.815
    1STR  N04   9639   0.088   4.407   1.029
    1STR  C05   9640   0.084   4.522   1.110
    1STR  C06   9641   0.081   4.503   1.252
    1STR  C07   9642   0.088   4.610   1.345
    1STR  N08   9643   0.089   4.586   1.484
    1STR  C09   9644   0.103   4.671   1.587
    1STR  O0A   9645   0.115   4.793   1.577
    1STR  O0B   9646   0.101   4.607   1.707
    1STR  C0C   9647   0.113   4.683   1.829
    1STR  C0D   9648  17.416   4.738   1.870
    1STR  C0E   9649   0.175   4.596   1.940
    1STR  O0F   9650   0.192   4.674   2.058
    1STR  C0G   9651   0.246   4.604   2.170
    1STR  C0H   9652   0.399   4.591   2.155
    1STR  C0I   9653   0.210   4.682   2.298
    1STR  O0J   9654   0.253   4.609   2.412
    1STR  C0K   9655   0.226   4.669   2.538
    1STR  C0M   9656   0.080   4.644   2.578
    1STR  C0N   9657   0.324   4.607   2.640
    1STR  O0O   9658   0.315   4.673   2.766
    1STR  C0P   9659   0.252   4.614   2.869
    1STR  O0Q   9660   0.194   4.506   2.864
    1STR  N0R   9661   0.262   4.693   2.976
    1STR  C0S   9662   0.215   4.677   3.107
    1STR  C0T   9663   0.228   4.787   3.194
    1STR  C0U   9664   0.180   4.781   3.326
    1STR  C0V   9665   0.120   4.663   3.375
    1STR  C0W   9666   0.059   4.664   3.514
    1STR  C0X   9667   0.114   4.549   3.292
    1STR  N0Y   9668   0.063   4.428   3.338
    1STR  BCK2  9669   0.093   4.371   3.455
    1STR  O10   9670   0.039   4.267   3.489
    1STR  C13   9671   0.158   4.558   3.158
    1STR  C14   9672   0.094   4.741   1.292
    1STR  C15   9673   0.097   4.763   1.153
    1STR  C16   9674   0.094   4.656   1.062
    1STR  C17   9675   0.105   4.693   0.916
    1STR  H1B   9676   0.100   4.321   1.080
    1STR  H1C   9677   0.075   4.402   1.291
    1STR  H1D   9678   0.080   4.491   1.516
    1STR  H1E   9679   0.181   4.767   1.812
    1STR  H1F   9680  17.344   4.658   1.889
    1STR  H1G   9681  17.424   4.798   1.961
    1STR  H1H   9682  17.375   4.803   1.793
    1STR  H1I   9683   0.272   4.558   1.905
    1STR  H1J   9684   0.112   4.510   1.959
    1STR  H1K   9685   0.201   4.505   2.178
    1STR  H1M   9686   0.446   4.688   2.146
    1STR  H1N   9687   0.427   4.531   2.068
    1STR  H1O   9688   0.442   4.541   2.242
    1STR  H1P   9689   0.256   4.781   2.296
    1STR  H1Q   9690   0.102   4.697   2.301
    1STR  H1R   9691   0.246   4.777   2.533
    1STR  H1S   9692   0.057   4.688   2.675
    1STR  H1T   9693   0.060   4.537   2.586
    1STR  H1U   9694   0.009   4.686   2.507
    1STR  H1V   9695   0.426   4.620   2.604
    1STR  H1W   9696   0.309   4.500   2.648
    1STR  H1X   9697   0.312   4.777   2.954
    1STR  H1Y   9698   0.273   4.880   3.160
    1STR  H1Z   9699   0.188   4.868   3.389
    1STR  H20   9700  17.403   4.612   3.513
    1STR  H21   9701   0.125   4.614   3.586
    1STR  H22   9702   0.041   4.766   3.549
    1STR  H23   9703   0.005   4.372   3.278
    1STR  H27   9704   0.150   4.470   3.095
    1STR  H28   9705   0.099   4.829   1.354
    1STR  H29   9706   0.104   4.864   1.118
    1STR  H2A   9707   0.183   4.635   0.867
    1STR  H2B   9708   0.129   4.798   0.902
    1STR  H2C   9709   0.009   4.675   0.866
    1STR  BCK1  9710   0.016   4.368   5.269
    1STR  O03   9711   0.008   4.275   5.189
    1STR  N04   9712  17.400   4.376   5.392
    1STR  C05   9713  17.310   4.298   5.468
    1STR  C06   9714  17.316   4.309   5.611
    1STR  C07   9715  17.227   4.241   5.698
    1STR  N08   9716  17.235   4.258   5.838
    1STR  C09   9717  17.162   4.204   5.939
    1STR  O0A   9718  17.072   4.122   5.924
    1STR  O0B   9719  17.202   4.249   6.061
    1STR  C0C   9720  17.139   4.201   6.182
    1STR  C0D   9721  17.202   4.066   6.223
    1STR  C0E   9722  17.150   4.305   6.296
    1STR  O0F   9723  17.086   4.258   6.415
    1STR  C0G   9724  17.094   4.345   6.529
    1STR  C0H   9725  16.991   4.458   6.514
    1STR  C0I   9726  17.068   4.264   6.658
    1STR  O0J   9727  17.085   4.347   6.773
    1STR  C0K   9728  17.065   4.285   6.900
    1STR  C0M   9729  17.190   4.204   6.938
    1STR  C0N   9730  17.038   4.396   7.003
    1STR  O0O   9731  17.004   4.342   7.131
    1STR  C0P   9732  17.093   4.344   7.232
    1STR  O0Q   9733  17.209   4.386   7.224
    1STR  N0R   9734  17.037   4.295   7.342
    1STR  C0S   9735  17.087   4.272   7.471
    1STR  C0T   9736  16.999   4.214   7.565
    1STR  C0U   9737  17.044   4.184   7.695
    1STR  C0V   9738  17.177   4.210   7.734
    1STR  C0W   9739  17.217   4.164   7.873
    1STR  C0X   9740  17.267   4.272   7.643
    1STR  N0Y   9741  17.402   4.299   7.667
    1STR  BCK2  9742   0.033   4.331   7.777
    1STR  O10   9743  17.428   4.359   7.888
    1STR  C13   9744  17.219   4.302   7.513
    1STR  C14   9745  17.130   4.157   5.638
    1STR  C15   9746  17.121   4.146   5.498
    1STR  C16   9747  17.207   4.217   5.413
    1STR  C17   9748  17.179   4.206   5.264
    1STR  H1B   9749  17.437   4.455   5.442
    1STR  H1C   9750  17.392   4.372   5.654
    1STR  H1D   9751  17.304   4.321   5.874
    1STR  H1E   9752  17.032   4.185   6.162
    1STR  H1F   9753  17.308   4.077   6.243
    1STR  H1G   9754  17.155   4.028   6.314
    1STR  H1H   9755  17.189   3.991   6.146
    1STR  H1I   9756  17.104   4.398   6.263
    1STR  H1J   9757  17.255   4.326   6.315
    1STR  H1K   9758  17.194   4.387   6.536
    1STR  H1M   9759  16.890   4.419   6.505
    1STR  H1N   9760  17.010   4.521   6.427
    1STR  H1O   9761  16.993   4.523   6.602
    1STR  H1P   9762  16.967   4.222   6.656
    1STR  H1Q   9763  17.138   4.180   6.661
    1STR  H1R   9764  16.978   4.219   6.896
    1STR  H1S   9765  17.177   4.156   7.035
    1STR  H1T   9766  17.278   4.268   6.945
    1STR  H1U   9767  17.213   4.125   6.866
    1STR  H1V   9768  16.952   4.455   6.970
    1STR  H1W   9769  17.121   4.466   7.009
    1STR  H1X   9770  16.941   4.269   7.325
    1STR  H1Y   9771  16.897   4.191   7.540
    1STR  H1Z   9772  16.976   4.139   7.765
    1STR  H20   9773  17.319   4.125   7.875
    1STR  H21   9774  17.210   4.248   7.942
    1STR  H22   9775  17.152   4.085   7.911
    1STR  H23   9776   0.017   4.305   7.583
    1STR  H27   9777  17.287   4.348   7.443
    1STR  H28   9778  17.058   4.101   5.696
    1STR  H29   9779  17.043   4.083   5.457
    1STR  H2A   9780  17.192   4.302   5.215
    1STR  H2B   9781  17.077   4.173   5.245
    1STR  H2C   9782  17.246   4.132   5.219
    1STR  BCK1  9783   0.055   4.384   9.616
    1STR  O03   9784   0.135   4.458   9.559
    1STR  N04   9785   0.070   4.327   9.738
    1STR  C05   9786   0.179   4.318   9.826
    1STR  C06   9787   0.155   4.316   9.967
    1STR  C07   9788   0.260   4.304  10.062
    1STR  N08   9789   0.233   4.298  10.201
    1STR  C09   9790   0.318   4.289  10.305
    1STR  O0A   9791   0.441   4.286  10.297
    1STR  O0B   9792   0.253   4.282  10.424
    1STR  C0C   9793   0.330   4.276  10.546
    1STR  C0D   9794   0.373   4.417  10.588
    1STR  C0E   9795   0.249   4.206  10.658
    1STR  O0F   9796   0.329   4.196  10.776
    1STR  C0G   9797   0.264   4.137  10.888
    1STR  C0H   9798   0.265   3.984  10.874
    1STR  C0I   9799   0.339   4.180  11.016
    1STR  O0J   9800   0.268   4.131  11.129
    1STR  C0K   9801   0.324   4.160  11.256
    1STR  C0M   9802   0.289   4.303  11.298
    1STR  C0N   9803   0.267   4.055  11.354
    1STR  O0O   9804   0.331   4.061  11.481
    1STR  C0P   9805   0.273   4.122  11.585
    1STR  O0Q   9806   0.164   4.178  11.584
    1STR  N0R   9807   0.356   4.114  11.689
    1STR  C0S   9808   0.349   4.171  11.816
    1STR  C0T   9809   0.470   4.177  11.888
    1STR  C0U   9810   0.478   4.249  12.008
    1STR  C0V   9811   0.363   4.310  12.062
    1STR  C0W   9812   0.380   4.405  12.179
    1STR  C0X   9813   0.237   4.285  12.002
    1STR  N0Y   9814   0.119   4.315  12.070
    1STR  BCK2  9815   0.095   4.273  12.194
    1STR  O10   9816  17.427   4.293  12.247
    1STR  C13   9817   0.232   4.223  11.875
    1STR  C14   9818   0.392   4.296  10.011
    1STR  C15   9819   0.417   4.294   9.874
    1STR  C16   9820   0.313   4.300   9.781
    1STR  C17   9821   0.350   4.280   9.635
    1STR  H1B   9822  17.423   4.289   9.773
    1STR  H1C   9823   0.054   4.325  10.002
    1STR  H1D   9824   0.138   4.300  10.231
    1STR  H1E   9825   0.419   4.215  10.530
    1STR  H1F   9826   0.288   4.482  10.607
    1STR  H1G   9827   0.434   4.414  10.679
    1STR  H1H   9828   0.435   4.464  10.511
    1STR  H1I   9829   0.220   4.107  10.623
    1STR  H1J   9830   0.158   4.262  10.678
    1STR  H1K   9831   0.162   4.173  10.896
    1STR  H1M   9832   0.366   3.945  10.865
    1STR  H1N   9833   0.208   3.950  10.787
    1STR  H1O   9834   0.219   3.937  10.961
    1STR  H1P   9835   0.441   4.142  11.015
    1STR  H1Q   9836   0.345   4.289  11.019
    1STR  H1R   9837   0.433   4.147  11.253
    1STR  H1S   9838   0.331   4.327  11.396
    1STR  H1T   9839   0.181   4.316  11.306
    1STR  H1U   9840   0.326   4.378  11.228
    1STR  H1V   9841   0.285   3.955  11.314
    1STR  H1W   9842   0.158   4.065  11.363
    1STR  H1X   9843   0.439   4.064  11.664
    1STR  H1Y   9844   0.560   4.132  11.850
    1STR  H1Z   9845   0.572   4.258  12.059
    1STR  H20   9846   0.293   4.470  12.191
    1STR  H21   9847   0.398   4.350  12.271
    1STR  H22   9848   0.465   4.470  12.163
    1STR  H23   9849   0.039   4.350  12.019
    1STR  H27   9850   0.136   4.211  11.826
    1STR  H28   9851   0.479   4.288  10.075
    1STR  H29   9852   0.519   4.284   9.840
    1STR  H2A   9853   0.273   4.223   9.583
    1STR  H2B   9854   0.443   4.224   9.626
    1STR  H2C   9855   0.365   4.376   9.586
    1STR  BCK1  9856   0.053   4.411  13.985
    1STR  O03   9857  17.408   4.406  13.897
    1STR  N04   9858   0.037   4.448  14.114
    1STR  C05   9859  17.379   4.515  14.190
    1STR  C06   9860  17.388   4.504  14.333
    1STR  C07   9861  17.302   4.575  14.422
    1STR  N08   9862  17.319   4.564  14.562
    1STR  C09   9863  17.258   4.629  14.663
    1STR  O0A   9864  17.169   4.712  14.650
    1STR  O0B   9865  17.306   4.590  14.784
    1STR  C0C   9866  17.253   4.647  14.905
    1STR  C0D   9867  17.125   4.572  14.947
    1STR  C0E   9868  17.359   4.644  15.018
    1STR  O0F   9869  17.307   4.704  15.137
    1STR  C0G   9870  17.395   4.704  15.250
    1STR  C0H   9871   0.059   4.816  15.235
    1STR  C0I   9872  17.312   4.722  15.378
    1STR  O0J   9873  17.396   4.713  15.493
    1STR  C0K   9874  17.332   4.727  15.620
    1STR  C0M   9875  17.263   4.595  15.658
    1STR  C0N   9876  17.440   4.766  15.723
    1STR  O0O   9877  17.383   4.795  15.850
    1STR  C0P   9878  17.395   4.708  15.952
    1STR  O0Q   9879   0.007   4.597  15.944
    1STR  N0R   9880  17.341   4.761  16.062
    1STR  C0S   9881  17.328   4.711  16.192
    1STR  C0T   9882  17.252   4.787  16.283
    1STR  C0U   9883  17.230   4.740  16.414
    1STR  C0V   9884  17.284   4.618  16.458
    1STR  C0W   9885  17.243   4.569  16.596
    1STR  C0X   9886  17.368   4.543  16.371
    1STR  N0Y   9887  17.429   4.421  16.403
    1STR  BCK2  9888   0.046   4.376  16.515
    1STR  O10   9889   0.061   4.441  16.619
    1STR  C13   9890  17.387   4.591  16.238
    1STR  C14   9891  17.204   4.658  14.364
    1STR  C15   9892  17.192   4.670  14.225
    1STR  C16   9893  17.278   4.601  14.137
    1STR  C17   9894  17.260   4.630  13.990
    1STR  H1B   9895   0.115   4.416  14.169
    1STR  H1C   9896   0.023   4.440  14.375
    1STR  H1D   9897  17.388   4.500  14.596
    1STR  H1E   9898  17.227   4.752  14.888
    1STR  H1F   9899  17.145   4.466  14.966
    1STR  H1G   9900  17.083   4.615  15.038
    1STR  H1H   9901  17.049   4.578  14.869
    1STR  H1I   9902   0.007   4.698  14.984
    1STR  H1J   9903  17.389   4.541  15.037
    1STR  H1K   9904   0.006   4.607  15.257
    1STR  H1M   9905   0.011   4.914  15.226
    1STR  H1N   9906   0.123   4.802  15.148
    1STR  H1O   9907   0.124   4.820  15.322
    1STR  H1P   9908  17.261   4.819  15.376
    1STR  H1Q   9909  17.234   4.646  15.382
    1STR  H1R   9910  17.259   4.808  15.615
    1STR  H1S   9911  17.214   4.604  15.755
    1STR  H1T   9912  17.335   4.514  15.666
    1STR  H1U   9913  17.186   4.566  15.587
    1STR  H1V   9914   0.051   4.856  15.689
    1STR  H1W   9915   0.077   4.689  15.729
    1STR  H1X   9916  17.303   4.852  16.043
    1STR  H1Y   9917  17.207   4.880  16.254
    1STR  H1Z   9918  17.169   4.798  16.481
    1STR  H20   9919  17.233   4.460  16.597
    1STR  H21   9920  17.318   4.598  16.670
    1STR  H22   9921  17.148   4.611  16.626
    1STR  H23   9922   0.001   4.359  16.324
    1STR  H27   9923   0.008   4.533  16.171
    1STR  H28   9924  17.134   4.715  14.423
    1STR  H29   9925  17.116   4.735  14.186
    1STR  H2A   9926  17.356   4.646  13.941
    1STR  H2B   9927  17.200   4.719  13.973
    1STR  H2C   9928  17.208   4.546  13.942
    1STR  BCK1  9929   0.051   8.712   0.910
    1STR  O03   9930   0.126   8.641   0.843
    1STR  N04   9931  17.434   8.682   1.028
    1STR  C05   9932  17.428   8.566   1.108
    1STR  C06   9933  17.420   8.581   1.250
    1STR  C07   9934  17.410   8.470   1.339
    1STR  N08   9935  17.399   8.490   1.479
    1STR  C09   9936  17.397   8.401   1.580
    1STR  O0A   9937  17.406   8.280   1.567
    1STR  O0B   9938  17.384   8.462   1.701
    1STR  C0C   9939  17.384   8.384   1.822
    1STR  C0D   9940   0.088   8.352   1.864
    1STR  C0E   9941  17.308   8.457   1.935
    1STR  O0F   9942  17.306   8.377   2.055
    1STR  C0G   9943  17.241   8.436   2.167
    1STR  C0H   9944  17.089   8.423   2.153
    1STR  C0I   9945  17.291   8.366   2.296
    1STR  O0J   9946  17.235   8.432   2.410
    1STR  C0K   9947  17.271   8.378   2.537
    1STR  C0M   9948  17.411   8.427   2.577
    1STR  C0N   9949  17.164   8.425   2.638
    1STR  O0O   9950  17.183   8.364   2.765
    1STR  C0P   9951  17.238   8.432   2.866
    1STR  O0Q   9952  17.276   8.548   2.862
    1STR  N0R   9953  17.242   8.352   2.973
    1STR  C0S   9954  17.290   8.372   3.103
    1STR  C0T   9955  17.276   8.264   3.191
    1STR  C0U   9956  17.323   8.274   3.323
    1STR  C0V   9957  17.385   8.392   3.369
    1STR  C0W   9958  17.435   8.389   3.511
    1STR  C0X   9959  17.401   8.503   3.282
    1STR  N0Y   9960   0.033   8.620   3.312
    1STR  BCK2  9961   0.071   8.681   3.426
    1STR  O10   9962   0.007   8.682   3.530
    1STR  C13   9963  17.352   8.491   3.149
    1STR  C14   9964  17.410   8.341   1.281
    1STR  C15   9965  17.414   8.324   1.142
    1STR  C16   9966  17.419   8.435   1.055
    1STR  C17   9967  17.408   8.405   0.906
    1STR  H1B   9968  17.391   8.764   1.070
    1STR  H1C   9969  17.422   8.681   1.291
    1STR  H1D   9970  17.392   8.584   1.512
    1STR  H1E   9971  17.332   8.289   1.804
    1STR  H1F   9972   0.145   8.443   1.884
    1STR  H1G   9973   0.090   8.292   1.955
    1STR  H1H   9974   0.141   8.296   1.787
    1STR  H1I   9975  17.206   8.477   1.902
    1STR  H1J   9976  17.355   8.553   1.956
    1STR  H1K   9977  17.269   8.542   2.175
    1STR  H1M   9978  17.059   8.319   2.145
    1STR  H1N   9979  17.050   8.477   2.067
    1STR  H1O   9980  17.038   8.464   2.241
    1STR  H1P   9981  17.262   8.261   2.295
    1STR  H1Q   9982  17.399   8.370   2.299
    1STR  H1R   9983  17.269   8.269   2.533
    1STR  H1S   9984   0.000   8.387   2.674
    1STR  H1T   9985  17.414   8.536   2.585
    1STR  H1U   9986   0.048   8.397   2.506
    1STR  H1V   9987  17.065   8.395   2.602
    1STR  H1W   9988  17.161   8.534   2.645
    1STR  H1X   9989  17.203   8.262   2.951
    1STR  H1Y   9990  17.231   8.171   3.160
    1STR  H1Z   9991  17.312   8.189   3.389
    1STR  H20   9992   0.099   8.418   3.512
    1STR  H21   9993  17.375   8.458   3.570
    1STR  H22   9994  17.427   8.291   3.558
    1STR  H23   9995   0.053   8.677   3.232
    1STR  H27   9996  17.363   8.574   3.082
    1STR  H28   9997  17.404   8.252   1.340
    1STR  H29   9998  17.411   8.224   1.102
    1STR  H2A   9999  17.349   8.481   0.856
    1STR  H2B  10000  17.359   8.309   0.889
    1STR  H2C  10001   0.067   8.401   0.861
    1STR  BCK1 10002   0.066   8.727   5.251
    1STR  O03  10003   0.039   8.823   5.179
    1STR  N04  10004   0.097   8.730   5.383
    1STR  C05  10005   0.158   8.823   5.468
    1STR  C06  10006   0.143   8.806   5.610
    1STR  C07  10007   0.208   8.889   5.705
    1STR  N08  10008   0.195   8.865   5.844
    1STR  C09  10009   0.253   8.928   5.948
    1STR  O0A  10010   0.329   9.023   5.940
    1STR  O0B  10011   0.217   8.874   6.067
    1STR  C0C  10012   0.268   8.930   6.189
    1STR  C0D  10013   0.182   9.051   6.231
    1STR  C0E  10014   0.274   8.824   6.300
    1STR  O0F  10015   0.330   8.881   6.419
    1STR  C0G  10016   0.338   8.793   6.531
    1STR  C0H  10017   0.460   8.700   6.516
    1STR  C0I  10018   0.350   8.879   6.658
    1STR  O0J  10019   0.347   8.794   6.773
    1STR  C0K  10020   0.357   8.859   6.899
    1STR  C0M  10021   0.220   8.916   6.938
    1STR  C0N  10022   0.406   8.754   7.000
    1STR  O0O  10023   0.435   8.814   7.126
    1STR  C0P  10024   0.351   8.801   7.229
    1STR  O0Q  10025   0.244   8.742   7.226
    1STR  N0R  10026   0.403   8.863   7.335
    1STR  C0S  10027   0.356   8.879   7.466
    1STR  C0T  10028   0.426   8.967   7.550
    1STR  C0U  10029   0.382   8.993   7.681
    1STR  C0V  10030   0.268   8.929   7.732
    1STR  C0W  10031   0.216   8.968   7.869
    1STR  C0X  10032   0.202   8.831   7.653
    1STR  N0Y  10033   0.098   8.755   7.704
    1STR  BCK2 10034   0.104   8.690   7.820
    1STR  O10  10035   0.009   8.623   7.860
    1STR  C13  10036   0.243   8.811   7.519
    1STR  C14  10037   0.287   8.995   5.655
    1STR  C15  10038   0.304   9.013   5.517
    1STR  C16  10039   0.243   8.928   5.424
    1STR  C17  10040   0.279   8.953   5.279
    1STR  H1B  10041   0.065   8.646   5.428
    1STR  H1C  10042   0.081   8.725   5.646
    1STR  H1D  10043   0.136   8.790   5.874
    1STR  H1E  10044   0.371   8.965   6.173
    1STR  H1F  10045   0.079   9.023   6.250
    1STR  H1G  10046   0.221   9.097   6.322
    1STR  H1H  10047   0.182   9.128   6.154
    1STR  H1I  10048   0.334   8.740   6.266
    1STR  H1J  10049   0.174   8.786   6.320
    1STR  H1K  10050   0.247   8.734   6.539
    1STR  H1M  10051   0.552   8.758   6.506
    1STR  H1N  10052   0.452   8.635   6.429
    1STR  H1O  10053   0.470   8.636   6.603
    1STR  H1P  10054   0.442   8.938   6.656
    1STR  H1Q  10055   0.267   8.950   6.661
    1STR  H1R  10056   0.431   8.939   6.894
    1STR  H1S  10057   0.225   8.966   7.036
    1STR  H1T  10058   0.145   8.837   6.947
    1STR  H1U  10059   0.183   8.990   6.867
    1STR  H1V  10060   0.498   8.709   6.964
    1STR  H1W  10061   0.334   8.672   7.010
    1STR  H1X  10062   0.491   8.906   7.312
    1STR  H1Y  10063   0.515   9.018   7.515
    1STR  H1Z  10064   0.436   9.064   7.742
    1STR  H20  10065   0.107   8.970   7.869
    1STR  H21  10066   0.249   8.897   7.945
    1STR  H22  10067   0.250   9.067   7.898
    1STR  H23  10068   0.017   8.734   7.647
    1STR  H27  10069   0.190   8.739   7.459
    1STR  H28  10070   0.339   9.064   5.718
    1STR  H29  10071   0.367   9.094   5.484
    1STR  H2A  10072   0.310   8.860   5.231
    1STR  H2B  10073   0.361   9.024   5.269
    1STR  H2C  10074   0.194   8.996   5.226
    1STR  BCK1 10075   0.015   8.756   9.627
    1STR  O03  10076  17.404   8.684   9.542
    1STR  N04  10077  17.412   8.780   9.754
    1STR  C05  10078  17.295   8.752   9.829
    1STR  C06  10079  17.306   8.756   9.971
    1STR  C07  10080  17.195   8.739  10.059
    1STR  N08  10081  17.211   8.747  10.199
    1STR  C09  10082  17.121   8.738  10.300
    1STR  O0A  10083  17.001   8.719  10.285
    1STR  O0B  10084  17.179   8.755  10.422
    1STR  C0C  10085  17.100   8.747  10.542
    1STR  C0D  10086  17.081   8.600  10.584
    1STR  C0E  10087  17.166   8.829  10.656
    1STR  O0F  10088  17.087   8.823  10.776
    1STR  C0G  10089  17.140   8.893  10.889
    1STR  C0H  10090  17.114   9.044  10.874
    1STR  C0I  10091  17.074   8.838  11.018
    1STR  O0J  10092  17.134   8.900  11.133
    1STR  C0K  10093  17.084   8.857  11.260
    1STR  C0M  10094  17.146   8.722  11.298
    1STR  C0N  10095  17.120   8.966  11.363
    1STR  O0O  10096  17.064   8.938  11.492
    1STR  C0P  10097  17.141   8.894  11.592
    1STR  O0Q  10098  17.261   8.868  11.583
    1STR  N0R  10099  17.067   8.882  11.703
    1STR  C0S  10100  17.099   8.839  11.832
    1STR  C0T  10101  16.994   8.832  11.926
    1STR  C0U  10102  17.017   8.784  12.056
    1STR  C0V  10103  17.145   8.741  12.096
    1STR  C0W  10104  17.157   8.680  12.235
    1STR  C0X  10105  17.255   8.752  12.006
    1STR  N0Y  10106  17.386   8.710  12.032
    1STR  BCK2 10107   0.022   8.710  12.143
    1STR  O10  10108  17.433   8.760  12.251
    1STR  C13  10109  17.229   8.800  11.875
    1STR  C14  10110  17.069   8.715   9.999
    1STR  C15  10111  17.055   8.712   9.859
    1STR  C16  10112  17.165   8.732   9.773
    1STR  C17  10113  17.135   8.736   9.625
    1STR  H1B  10114   0.043   8.825   9.807
    1STR  H1C  10115  17.403   8.772  10.015
    1STR  H1D  10116  17.303   8.763  10.235
    1STR  H1E  10117  17.001   8.791  10.523
    1STR  H1F  10118  17.177   8.551  10.604
    1STR  H1G  10119  17.021   8.592  10.674
    1STR  H1H  10120  17.030   8.543  10.506
    1STR  H1I  10121  17.177   8.932  10.623
    1STR  H1J  10122  17.266   8.790  10.676
    1STR  H1K  10123  17.247   8.875  10.896
    1STR  H1M  10124  17.007   9.065  10.865
    1STR  H1N  10125  17.164   9.087  10.787
    1STR  H1O  10126  17.150   9.098  10.962
    1STR  H1P  10127  16.967   8.857  11.016
    1STR  H1Q  10128  17.088   8.730  11.021
    1STR  H1R  10129  16.975   8.849  11.256
    1STR  H1S  10130  17.109   8.688  11.395
    1STR  H1T  10131  17.254   8.730  11.305
    1STR  H1U  10132  17.122   8.644  11.226
    1STR  H1V  10133  17.079   9.062  11.330
    1STR  H1W  10134  17.228   8.981  11.368
    1STR  H1X  10135  16.972   8.910  11.685
    1STR  H1Y  10136  16.894   8.861  11.899
    1STR  H1Z  10137  16.934   8.777  12.125
    1STR  H20  10138  17.228   8.597  12.236
    1STR  H21  10139  17.189   8.755  12.306
    1STR  H22  10140  17.062   8.640  12.270
    1STR  H23  10141  17.436   8.683  11.950
    1STR  H27  10142  17.311   8.807  11.806
    1STR  H28  10143  16.979   8.701  10.057
    1STR  H29  10144  16.957   8.696   9.818
    1STR  H2A  10145  17.190   8.816   9.576
    1STR  H2B  10146  17.029   8.755   9.607
    1STR  H2C  10147  17.160   8.641   9.579
    1STR  BCK1 10148   0.064   8.739  13.984
    1STR  O03  10149   0.170   8.754  13.925
    1STR  N04  10150   0.043   8.677  14.102
    1STR  C05  10151   0.128   8.603  14.186
    1STR  C06  10152   0.108   8.610  14.328
    1STR  C07  10153   0.188   8.537  14.420
    1STR  N08  10154   0.163   8.544  14.559
    1STR  C09  10155   0.231   8.490  14.662
    1STR  O0A  10156   0.333   8.423  14.652
    1STR  O0B  10157   0.173   8.518  14.782
    1STR  C0C  10158   0.234   8.471  14.903
    1STR  C0D  10159   0.346   8.567  14.946
    1STR  C0E  10160   0.128   8.456  15.014
    1STR  O0F  10161   0.190   8.404  15.131
    1STR  C0G  10162   0.104   8.390  15.244
    1STR  C0H  10163   0.022   8.260  15.231
    1STR  C0I  10164   0.190   8.388  15.371
    1STR  O0J  10165   0.102   8.388  15.482
    1STR  C0K  10166   0.164   8.380  15.610
    1STR  C0M  10167   0.212   8.519  15.653
    1STR  C0N  10168   0.055   8.325  15.703
    1STR  O0O  10169   0.109   8.300  15.831
    1STR  C0P  10170   0.091   8.384  15.933
    1STR  O0Q  10171   0.026   8.488  15.932
    1STR  N0R  10172   0.159   8.335  16.034
    1STR  C0S  10173   0.181   8.376  16.165
    1STR  C0T  10174   0.266   8.290  16.238
    1STR  C0U  10175   0.301   8.321  16.369
    1STR  C0V  10176   0.251   8.437  16.430
    1STR  C0W  10177   0.302   8.463  16.569
    1STR  C0X  10178   0.162   8.524  16.362
    1STR  N0Y  10179   0.103   8.638  16.420
    1STR  BCK2 10180   0.117   8.689  16.543
    1STR  O10  10181   0.049   8.785  16.579
    1STR  C13  10182   0.129   8.492  16.227
    1STR  C14  10183   0.291   8.457  14.366
    1STR  C15  10184   0.310   8.445  14.228
    1STR  C16  10185   0.227   8.514  14.138
    1STR  C17  10186   0.245   8.481  13.991
    1STR  H1B  10187  17.390   8.693  14.138
    1STR  H1C  10188   0.030   8.674  14.366
    1STR  H1D  10189   0.084   8.597  14.590
    1STR  H1E  10190   0.277   8.372  14.886
    1STR  H1F  10191   0.308   8.668  14.965
    1STR  H1G  10192   0.395   8.532  15.037
    1STR  H1H  10193   0.423   8.575  14.869
    1STR  H1I  10194   0.050   8.388  14.980
    1STR  H1J  10195   0.081   8.552  15.035
    1STR  H1K  10196   0.037   8.476  15.251
    1STR  H1M  10197   0.087   8.173  15.223
    1STR  H1N  10198  17.396   8.261  15.145
    1STR  H1O  10199  17.399   8.246  15.319
    1STR  H1P  10200   0.255   8.300  15.372
    1STR  H1Q  10201   0.255   8.476  15.373
    1STR  H1R  10202   0.247   8.310  15.608
    1STR  H1S  10203   0.262   8.515  15.751
    1STR  H1T  10204   0.129   8.589  15.663
    1STR  H1U  10205   0.284   8.562  15.584
    1STR  H1V  10206   0.019   8.230  15.664
    1STR  H1W  10207  17.408   8.391  15.708
    1STR  H1X  10208   0.203   8.249  16.006
    1STR  H1Y  10209   0.306   8.200  16.194
    1STR  H1Z  10210   0.367   8.255  16.422
    1STR  H20  10211   0.352   8.559  16.569
    1STR  H21  10212   0.218   8.460  16.638
    1STR  H22  10213   0.375   8.389  16.602
    1STR  H23  10214   0.036   8.689  16.366
    1STR  H27  10215   0.063   8.556  16.171
    1STR  H28  10216   0.358   8.400  14.428
    1STR  H29  10217   0.387   8.380  14.192
    1STR  H2A  10218   0.149   8.482  13.938
    1STR  H2B  10219   0.287   8.382  13.978
    1STR  H2C  10220   0.312   8.552  13.944
    1STR  BCK1 10221   0.072  13.114   0.901
    1STR  O03  10222  17.436  13.154   0.814
    1STR  N04  10223   0.075  13.147   1.031
    1STR  C05  10224   0.029  13.255   1.110
    1STR  C06  10225   0.031  13.238   1.252
    1STR  C07  10226  17.438  13.342   1.344
    1STR  N08  10227   0.007  13.321   1.483
    1STR  C09  10228  17.430  13.407   1.586
    1STR  O0A  10229  17.400  13.525   1.574
    1STR  O0B  10230   0.011  13.347   1.706
    1STR  C0C  10231  17.436  13.423   1.827
    1STR  C0D  10232  17.288  13.427   1.869
    1STR  C0E  10233   0.084  13.362   1.939
    1STR  O0F  10234   0.073  13.441   2.058
    1STR  C0G  10235   0.147  13.394   2.170
    1STR  C0H  10236   0.295  13.434   2.155
    1STR  C0I  10237   0.086  13.455   2.297
    1STR  O0J  10238   0.153  13.401   2.412
    1STR  C0K  10239   0.106  13.448   2.538
    1STR  C0M  10240  17.418  13.374   2.578
    1STR  C0N  10241   0.219  13.424   2.639
    1STR  O0O  10242   0.188  13.482   2.766
    1STR  C0P  10243   0.150  13.404   2.868
    1STR  O0Q  10244   0.133  13.283   2.863
    1STR  N0R  10245   0.132  13.480   2.976
    1STR  C0S  10246   0.094  13.448   3.107
    1STR  C0T  10247   0.069  13.554   3.196
    1STR  C0U  10248   0.026  13.530   3.327
    1STR  C0V  10249   0.012  13.398   3.375
    1STR  C0W  10250  17.394  13.376   3.514
    1STR  C0X  10251   0.045  13.289   3.290
    1STR  N0Y  10252   0.039  13.158   3.336
    1STR  BCK2 10253   0.084  13.118   3.454
    1STR  O10  10254   0.045  13.013   3.503
    1STR  C13  10255   0.082  13.315   3.156
    1STR  C14  10256  17.399  13.466   1.289
    1STR  C15  10257  17.395  13.485   1.150
    1STR  C16  10258  17.430  13.383   1.060
    1STR  C17  10259  17.428  13.419   0.913
    1STR  H1B  10260   0.122  13.076   1.084
    1STR  H1C  10261   0.061  13.142   1.292
    1STR  H1D  10262   0.031  13.229   1.516
    1STR  H1E  10263   0.031  13.525   1.810
    1STR  H1F  10264  17.248  13.327   1.887
    1STR  H1G  10265  17.275  13.486   1.960
    1STR  H1H  10266  17.227  13.474   1.791
    1STR  H1I  10267   0.187  13.360   1.905
    1STR  H1J  10268   0.054  13.259   1.958
    1STR  H1K  10269   0.138  13.285   2.177
    1STR  H1M  10270   0.306  13.542   2.146
    1STR  H1N  10271   0.342  13.388   2.068
    1STR  H1O  10272   0.352  13.402   2.242
    1STR  H1P  10273   0.095  13.563   2.295
    1STR  H1Q  10274  17.420  13.431   2.301
    1STR  H1R  10275   0.087  13.556   2.533
    1STR  H1S  10276  17.381  13.408   2.675
    1STR  H1T  10277  17.435  13.267   2.586
    1STR  H1U  10278  17.337  13.389   2.507
    1STR  H1V  10279   0.311  13.471   2.604
    1STR  H1W  10280   0.242  13.318   2.647
    1STR  H1X  10281   0.149  13.577   2.955
    1STR  H1Y  10282   0.079  13.657   3.163
    1STR  H1Z  10283   0.004  13.613   3.392
    1STR  H20  10284  17.321  13.294   3.511
    1STR  H21  10285   0.032  13.350   3.585
    1STR  H22  10286  17.342  13.464   3.551
    1STR  H23  10287  17.436  13.087   3.279
    1STR  H27  10288   0.104  13.231   3.091
    1STR  H28  10289  17.372  13.550   1.349
    1STR  H29  10290  17.365  13.582   1.113
    1STR  H2A  10291   0.079  13.387   0.864
    1STR  H2B  10292  17.420  13.527   0.899
    1STR  H2C  10293  17.341  13.374   0.865
    1STR  BCK1 10294   0.027  13.075   5.269
    1STR  O03  10295   0.052  12.981   5.195
    1STR  N04  10296  17.407  13.070   5.391
    1STR  C05  10297  17.345  12.970   5.468
    1STR  C06  10298  17.346  12.984   5.610
    1STR  C07  10299  17.282  12.892   5.698
    1STR  N08  10300  17.283  12.912   5.838
    1STR  C09  10301  17.233  12.837   5.939
    1STR  O0A  10302  17.176  12.729   5.925
    1STR  O0B  10303  17.254  12.894   6.061
    1STR  C0C  10304  17.212  12.827   6.182
    1STR  C0D  10305  17.317  12.723   6.223
    1STR  C0E  10306  17.187  12.929   6.296
    1STR  O0F  10307  17.143  12.863   6.415
    1STR  C0G  10308  17.120  12.947   6.529
    1STR  C0H  10309  16.984  13.018   6.514
    1STR  C0I  10310  17.124  12.862   6.658
    1STR  O0J  10311  17.111  12.947   6.772
    1STR  C0K  10312  17.114  12.881   6.899
    1STR  C0M  10313  17.259  12.848   6.938
    1STR  C0N  10314  17.050  12.976   7.003
    1STR  O0O  10315  17.036  12.914   7.131
    1STR  C0P  10316  17.119  12.945   7.232
    1STR  O0Q  10317  17.213  13.023   7.224
    1STR  N0R  10318  17.082  12.878   7.341
    1STR  C0S  10319  17.135  12.873   7.470
    1STR  C0T  10320  17.071  12.789   7.563
    1STR  C0U  10321  17.121  12.775   7.694
    1STR  C0V  10322  17.238  12.842   7.734
    1STR  C0W  10323  17.289  12.812   7.874
    1STR  C0X  10324  17.304  12.929   7.643
    1STR  N0Y  10325  17.425  12.996   7.668
    1STR  BCK2 10326   0.045  13.046   7.777
    1STR  O10  10327  17.435  13.057   7.889
    1STR  C13  10328  17.251  12.943   7.513
    1STR  C14  10329  17.216  12.782   5.639
    1STR  C15  10330  17.212  12.767   5.499
    1STR  C16  10331  17.272  12.860   5.413
    1STR  C17  10332  17.249  12.841   5.265
    1STR  H1B  10333  17.414  13.159   5.437
    1STR  H1C  10334  17.397  13.068   5.653
    1STR  H1D  10335  17.327  12.995   5.873
    1STR  H1E  10336  17.117  12.775   6.163
    1STR  H1F  10337  17.414  12.769   6.244
    1STR  H1G  10338  17.286  12.670   6.314
    1STR  H1H  10339  17.331  12.647   6.146
    1STR  H1I  10340  17.111  13.000   6.263
    1STR  H1J  10341  17.278  12.985   6.316
    1STR  H1K  10342  17.200  13.021   6.536
    1STR  H1M  10343  16.903  12.946   6.505
    1STR  H1N  10344  16.981  13.084   6.427
    1STR  H1O  10345  16.964  13.080   6.602
    1STR  H1P  10346  17.044  12.788   6.656
    1STR  H1Q  10347  17.218  12.807   6.661
    1STR  H1R  10348  17.054  12.790   6.896
    1STR  H1S  10349  17.263  12.798   7.035
    1STR  H1T  10350  17.319  12.938   6.945
    1STR  H1U  10351  17.307  12.781   6.866
    1STR  H1V  10352  16.950  13.003   6.969
    1STR  H1W  10353  17.105  13.070   7.009
    1STR  H1X  10354  17.000  12.822   7.322
    1STR  H1Y  10355  16.982  12.734   7.537
    1STR  H1Z  10356  17.070  12.710   7.763
    1STR  H20  10357  17.397  12.803   7.875
    1STR  H21  10358  17.259  12.891   7.942
    1STR  H22  10359  17.248  12.719   7.913
    1STR  H23  10360   0.034  13.022   7.584
    1STR  H27  10361  17.301  13.008   7.443
    1STR  H28  10362  17.166  12.706   5.697
    1STR  H29  10363  17.158  12.682   5.458
    1STR  H2A  10364  17.233  12.937   5.215
    1STR  H2B  10365  17.161  12.780   5.246
    1STR  H2C  10366  17.334  12.790   5.219
    1STR  BCK1 10367   0.053  13.099   9.612
    1STR  O03  10368   0.098  13.195   9.551
    1STR  N04  10369   0.085  13.059   9.737
    1STR  C05  10370   0.188  13.095   9.826
    1STR  C06  10371   0.164  13.086   9.967
    1STR  C07  10372   0.265  13.115  10.063
    1STR  N08  10373   0.241  13.100  10.202
    1STR  C09  10374   0.323  13.121  10.307
    1STR  O0A  10375   0.439  13.160  10.299
    1STR  O0B  10376   0.264  13.093  10.426
    1STR  C0C  10377   0.338  13.113  10.548
    1STR  C0D  10378   0.331  13.262  10.590
    1STR  C0E  10379   0.286  13.021  10.660
    1STR  O0F  10380   0.365  13.039  10.778
    1STR  C0G  10381   0.325  12.960  10.890
    1STR  C0H  10382   0.378  12.817  10.875
    1STR  C0I  10383   0.380  13.026  11.018
    1STR  O0J  10384   0.332  12.956  11.132
    1STR  C0K  10385   0.375  13.005  11.259
    1STR  C0M  10386   0.291  13.127  11.299
    1STR  C0N  10387   0.359  12.889  11.360
    1STR  O0O  10388   0.418  12.922  11.486
    1STR  C0P  10389   0.341  12.957  11.590
    1STR  O0Q  10390   0.219  12.968  11.588
    1STR  N0R  10391   0.420  12.981  11.695
    1STR  C0S  10392   0.390  13.026  11.824
    1STR  C0T  10393   0.499  13.068  11.904
    1STR  C0U  10394   0.478  13.127  12.030
    1STR  C0V  10395   0.347  13.140  12.080
    1STR  C0W  10396   0.325  13.222  12.207
    1STR  C0X  10397   0.239  13.083  12.010
    1STR  N0Y  10398   0.113  13.073  12.067
    1STR  BCK2 10399   0.091  13.019  12.187
    1STR  O10  10400  17.418  13.008  12.232
    1STR  C13  10401   0.260  13.032  11.879
    1STR  C14  10402   0.391  13.157  10.014
    1STR  C15  10403   0.417  13.163   9.877
    1STR  C16  10404   0.319  13.129   9.783
    1STR  C17  10405   0.364  13.124   9.638
    1STR  H1B  10406   0.018  12.993   9.774
    1STR  H1C  10407   0.067  13.056  10.002
    1STR  H1D  10408   0.150  13.069  10.232
    1STR  H1E  10409   0.443  13.087  10.532
    1STR  H1F  10410   0.229  13.293  10.609
    1STR  H1G  10411   0.389  13.279  10.681
    1STR  H1H  10412   0.373  13.326  10.512
    1STR  H1I  10413   0.293  12.917  10.625
    1STR  H1J  10414   0.181  13.042  10.680
    1STR  H1K  10415   0.216  12.959  10.898
    1STR  H1M  10416   0.486  12.816  10.866
    1STR  H1N  10417   0.336  12.766  10.788
    1STR  H1O  10418   0.352  12.757  10.962
    1STR  H1P  10419   0.489  13.027  11.016
    1STR  H1Q  10420   0.348  13.131  11.021
    1STR  H1R  10421   0.481  13.032  11.255
    1STR  H1S  10422   0.322  13.166  11.396
    1STR  H1T  10423   0.185  13.101  11.307
    1STR  H1U  10424   0.300  13.209  11.228
    1STR  H1V  10425   0.411  12.801  11.322
    1STR  H1W  10426   0.255  12.860  11.370
    1STR  H1X  10427   0.516  12.966  11.671
    1STR  H1Y  10428   0.600  13.059  11.868
    1STR  H1Z  10429   0.562  13.163  12.086
    1STR  H20  10430   0.234  13.282  12.197
    1STR  H21  10431   0.314  13.159  12.295
    1STR  H22  10432   0.407  13.291  12.225
    1STR  H23  10433   0.030  13.090  12.012
    1STR  H27  10434   0.176  12.994  11.824
    1STR  H28  10435   0.473  13.183  10.078
    1STR  H29  10436   0.515  13.192   9.844
    1STR  H2A  10437   0.320  13.039   9.587
    1STR  H2B  10438   0.472  13.114   9.630
    1STR  H2C  10439   0.337  13.217   9.587
    1STR  BCK1 10440   0.036  13.133  13.986
    1STR  O03  10441  17.397  13.099  13.898
    1STR  N04  10442   0.009  13.166  14.114
    1STR  C05  10443  17.333  13.199  14.190
    1STR  C06  10444  17.345  13.193  14.332
    1STR  C07  10445  17.240  13.233  14.421
    1STR  N08  10446  17.259  13.229  14.561
    1STR  C09  10447  17.179  13.269  14.662
    1STR  O0A  10448  17.067  13.317  14.648
    1STR  O0B  10449  17.237  13.250  14.783
    1STR  C0C  10450  17.166  13.286  14.904
    1STR  C0D  10451  17.072  13.171  14.945
    1STR  C0E  10452  17.266  13.319  15.017
    1STR  O0F  10453  17.197  13.357  15.137
    1STR  C0G  10454  17.280  13.388  15.250
    1STR  C0H  10455  17.339  13.529  15.235
    1STR  C0I  10456  17.195  13.377  15.378
    1STR  O0J  10457  17.278  13.397  15.493
    1STR  C0K  10458  17.213  13.388  15.620
    1STR  C0M  10459  17.193  13.240  15.658
    1STR  C0N  10460  17.301  13.461  15.723
    1STR  O0O  10461  17.238  13.467  15.851
    1STR  C0P  10462  17.280  13.389  15.953
    1STR  O0Q  10463  17.367  13.303  15.944
    1STR  N0R  10464  17.212  13.420  16.063
    1STR  C0S  10465  17.217  13.368  16.193
    1STR  C0T  10466  17.121  13.414  16.285
    1STR  C0U  10467  17.116  13.362  16.416
    1STR  C0V  10468  17.207  13.263  16.458
    1STR  C0W  10469  17.185  13.204  16.597
    1STR  C0X  10470  17.309  13.219  16.370
    1STR  N0Y  10471  17.404  13.120  16.399
    1STR  BCK2 10472   0.033  13.092  16.511
    1STR  O10  10473   0.030  13.157  16.615
    1STR  C13  10474  17.311  13.271  16.238
    1STR  C14  10475  17.120  13.277  14.362
    1STR  C15  10476  17.106  13.283  14.222
    1STR  C16  10477  17.211  13.247  14.136
    1STR  C17  10478  17.185  13.267  13.988
    1STR  H1B  10479   0.093  13.165  14.169
    1STR  H1C  10480  17.437  13.157  14.375
    1STR  H1D  10481  17.345  13.192  14.596
    1STR  H1E  10482  17.107  13.375  14.886
    1STR  H1F  10483  17.127  13.079  14.965
    1STR  H1G  10484  17.017  13.197  15.036
    1STR  H1H  10485  16.998  13.151  14.868
    1STR  H1I  10486  17.331  13.400  14.984
    1STR  H1J  10487  17.330  13.233  15.037
    1STR  H1K  10488  17.361  13.314  15.257
    1STR  H1M  10489  17.260  13.604  15.225
    1STR  H1N  10490  17.404  13.538  15.148
    1STR  H1O  10491  17.399  13.555  15.322
    1STR  H1P  10492  17.114  13.450  15.376
    1STR  H1Q  10493  17.149  13.278  15.382
    1STR  H1R  10494  17.116  13.439  15.616
    1STR  H1S  10495  17.144  13.231  15.755
    1STR  H1T  10496  17.289  13.188  15.666
    1STR  H1U  10497  17.131  13.186  15.587
    1STR  H1V  10498  17.318  13.563  15.690
    1STR  H1W  10499  17.400  13.415  15.729
    1STR  H1X  10500  17.145  13.492  16.045
    1STR  H1Y  10501  17.048  13.489  16.257
    1STR  H1Z  10502  17.040  13.398  16.484
    1STR  H20  10503  17.209  13.098  16.598
    1STR  H21  10504  17.249  13.255  16.669
    1STR  H22  10505  17.082  13.215  16.629
    1STR  H23  10506  17.434  13.067  16.320
    1STR  H27  10507  17.386  13.236  16.170
    1STR  H28  10508  17.035  13.309  14.420
    1STR  H29  10509  17.012  13.319  14.182
    1STR  H2A  10510  17.271  13.311  13.939
    1STR  H2B  10511  17.101  13.333  13.970
    1STR  H2C  10512  17.162  13.171  13.941
    1STR  BCK1 10513   4.422   0.000   0.908
    1STR  O03  10514   4.517  17.397   0.845
    1STR  N04  10515   4.373  17.396   1.026
    1STR  C05  10516   4.405  17.285   1.108
    1STR  C06  10517   4.392  17.298   1.249
    1STR  C07  10518   4.419  17.191   1.340
    1STR  N08  10519   4.402  17.208   1.479
    1STR  C09  10520   4.430  17.124   1.581
    1STR  O0A  10521   4.480  17.013   1.569
    1STR  O0B  10522   4.396  17.178   1.702
    1STR  C0C  10523   4.423  17.105   1.823
    1STR  C0D  10524   4.570  17.125   1.865
    1STR  C0E  10525   4.326  17.148   1.935
    1STR  O0F  10526   4.351  17.072   2.054
    1STR  C0G  10527   4.270  17.106   2.166
    1STR  C0H  10528   4.132  17.041   2.153
    1STR  C0I  10529   4.341  17.057   2.294
    1STR  O0J  10530   4.266  17.101   2.408
    1STR  C0K  10531   4.318  17.062   2.535
    1STR  C0M  10532   4.433  17.156   2.576
    1STR  C0N  10533   4.200  17.070   2.634
    1STR  O0O  10534   4.238  17.019   2.760
    1STR  C0P  10535   4.266  17.100   2.863
    1STR  O0Q  10536   4.263  17.223   2.860
    1STR  N0R  10537   4.298  17.024   2.967
    1STR  C0S  10538   4.337  17.055   3.097
    1STR  C0T  10539   4.361  16.944   3.181
    1STR  C0U  10540   4.402  16.963   3.313
    1STR  C0V  10541   4.420  17.092   3.365
    1STR  C0W  10542   4.469  17.101   3.507
    1STR  C0X  10543   4.395  17.207   3.284
    1STR  N0Y  10544   4.404  17.339   3.330
    1STR  BCK2 10545   4.449  17.388   3.446
    1STR  O10  10546   4.435   0.066   3.473
    1STR  C13  10547   4.354  17.186   3.150
    1STR  C14  10548   4.462  17.069   1.283
    1STR  C15  10549   4.472  17.053   1.144
    1STR  C16  10550   4.440  17.157   1.056
    1STR  C17  10551   4.439  17.124   0.908
    1STR  H1B  10552   4.306   0.019   1.065
    1STR  H1C  10553   4.361  17.393   1.290
    1STR  H1D  10554   4.363  17.294   1.512
    1STR  H1E  10555   4.406  16.998   1.805
    1STR  H1F  10556   4.591  17.230   1.885
    1STR  H1G  10557   4.592  17.069   1.956
    1STR  H1H  10558   4.638  17.090   1.788
    1STR  H1I  10559   4.224  17.132   1.901
    1STR  H1J  10560   4.338  17.254   1.955
    1STR  H1K  10561   4.260  17.214   2.174
    1STR  H1M  10562   4.139  16.932   2.144
    1STR  H1N  10563   4.077  17.078   2.066
    1STR  H1O  10564   4.070  17.062   2.241
    1STR  H1P  10565   4.350  16.948   2.294
    1STR  H1Q  10566   4.442  17.098   2.298
    1STR  H1R  10567   4.353  16.959   2.532
    1STR  H1S  10568   4.473  17.127   2.673
    1STR  H1T  10569   4.398  17.259   2.584
    1STR  H1U  10570   4.516  17.154   2.505
    1STR  H1V  10571   4.118  17.009   2.597
    1STR  H1W  10572   4.161  17.172   2.641
    1STR  H1X  10573   4.292  16.927   2.942
    1STR  H1Y  10574   4.348  16.843   3.145
    1STR  H1Z  10575   4.420  16.877   3.375
    1STR  H20  10576   4.569  17.142   3.504
    1STR  H21  10577   4.402  17.164   3.565
    1STR  H22  10578   4.474  17.004   3.557
    1STR  H23  10579   4.368  17.411   3.270
    1STR  H27  10580   4.335  17.271   3.086
    1STR  H28  10581   4.487  16.983   1.343
    1STR  H29  10582   4.502  16.957   1.105
    1STR  H2A  10583   4.359  17.177   0.857
    1STR  H2B  10584   4.423  17.018   0.892
    1STR  H2C  10585   4.534  17.151   0.862
    1STR  BCK1 10586   4.448   0.018   5.254
    1STR  O03  10587   4.373   0.079   5.179
    1STR  N04  10588   4.452   0.034   5.388
    1STR  C05  10589   4.477   0.145   5.471
    1STR  C06  10590   4.469   0.125   5.612
    1STR  C07  10591   4.500   0.228   5.706
    1STR  N08  10592   4.495   0.203   5.845
    1STR  C09  10593   4.527   0.282   5.949
    1STR  O0A  10594   4.566   0.398   5.939
    1STR  O0B  10595   4.512   0.220   6.068
    1STR  C0C  10596   4.540   0.291   6.189
    1STR  C0D  10597   4.418   0.374   6.231
    1STR  C0E  10598   4.582   0.192   6.300
    1STR  O0F  10599   4.615   0.265   6.419
    1STR  C0G  10600   4.653   0.185   6.531
    1STR  C0H  10601   4.799   0.140   6.515
    1STR  C0I  10602   4.634   0.269   6.658
    1STR  O0J  10603   4.661   0.188   6.772
    1STR  C0K  10604   4.647   0.253   6.898
    1STR  C0M  10605   4.499   0.260   6.938
    1STR  C0N  10606   4.730   0.172   7.000
    1STR  O0O  10607   4.736   0.238   7.126
    1STR  C0P  10608   4.662   0.195   7.229
    1STR  O0Q  10609   4.582   0.102   7.225
    1STR  N0R  10610   4.688   0.270   7.336
    1STR  C0S  10611   4.639   0.266   7.467
    1STR  C0T  10612   4.675   0.372   7.553
    1STR  C0U  10613   4.627   0.377   7.685
    1STR  C0V  10614   4.543   0.275   7.734
    1STR  C0W  10615   4.483   0.291   7.873
    1STR  C0X  10616   4.512   0.164   7.652
    1STR  N0Y  10617   4.438   0.057   7.700
    1STR  BCK2 10618   4.459  17.435   7.816
    1STR  O10  10619   4.389  17.342   7.852
    1STR  C13  10620   4.557   0.162   7.518
    1STR  C14  10621   4.535   0.354   5.654
    1STR  C15  10622   4.544   0.376   5.516
    1STR  C16  10623   4.517   0.273   5.424
    1STR  C17  10624   4.536   0.308   5.277
    1STR  H1B  10625   4.435  17.387   5.435
    1STR  H1C  10626   4.441   0.028   5.650
    1STR  H1D  10627   4.466   0.112   5.876
    1STR  H1E  10628   4.625   0.358   6.173
    1STR  H1F  10629   4.330   0.311   6.249
    1STR  H1G  10630   4.438   0.431   6.322
    1STR  H1H  10631   4.391   0.446   6.153
    1STR  H1I  10632   4.668   0.135   6.266
    1STR  H1J  10633   4.501   0.122   6.320
    1STR  H1K  10634   4.587   0.098   6.538
    1STR  H1M  10635   4.866   0.225   6.506
    1STR  H1N  10636   4.814   0.076   6.428
    1STR  H1O  10637   4.831   0.082   6.603
    1STR  H1P  10638   4.700   0.356   6.656
    1STR  H1Q  10639   4.532   0.307   6.661
    1STR  H1R  10640   4.689   0.354   6.894
    1STR  H1S  10641   4.487   0.308   7.035
    1STR  H1T  10642   4.456   0.160   6.946
    1STR  H1U  10643   4.439   0.316   6.867
    1STR  H1V  10644   4.832   0.162   6.964
    1STR  H1W  10645   4.691   0.070   7.009
    1STR  H1X  10646   4.755   0.342   7.313
    1STR  H1Y  10647   4.739   0.451   7.518
    1STR  H1Z  10648   4.653   0.460   7.748
    1STR  H20  10649   4.379   0.259   7.873
    1STR  H21  10650   4.537   0.230   7.946
    1STR  H22  10651   4.485   0.395   7.907
    1STR  H23  10652   4.369   0.013   7.641
    1STR  H27  10653   4.531   0.078   7.456
    1STR  H28  10654   4.558   0.439   5.716
    1STR  H29  10655   4.573   0.474   5.481
    1STR  H2A  10656   4.604   0.237   5.230
    1STR  H2B  10657   4.579   0.407   5.265
    1STR  H2C  10658   4.440   0.307   5.226
    1STR  BCK1 10659   4.372   0.018   9.628
    1STR  O03  10660   4.346  17.371   9.546
    1STR  N04  10661   4.321   0.033   9.752
    1STR  C05  10662   4.218  17.413   9.828
    1STR  C06  10663   4.226  17.421   9.971
    1STR  C07  10664   4.125  17.371  10.058
    1STR  N08  10665   4.137  17.386  10.199
    1STR  C09  10666   4.055  17.348  10.299
    1STR  O0A  10667   3.949  17.288  10.284
    1STR  O0B  10668   4.103  17.383  10.421
    1STR  C0C  10669   4.031  17.349  10.542
    1STR  C0D  10670   4.064  17.204  10.583
    1STR  C0E  10671   4.065   0.008  10.656
    1STR  O0F  10672   3.993  17.416  10.775
    1STR  C0G  10673   4.019   0.060  10.889
    1STR  C0H  10674   3.942   0.192  10.874
    1STR  C0I  10675   3.976  17.426  11.018
    1STR  O0J  10676   4.010   0.064  11.133
    1STR  C0K  10677   3.978   0.007  11.260
    1STR  C0M  10678   4.083  17.341  11.298
    1STR  C0N  10679   3.974   0.122  11.363
    1STR  O0O  10680   3.931   0.076  11.491
    1STR  C0P  10681   4.019   0.060  11.592
    1STR  O0Q  10682   4.140   0.076  11.583
    1STR  N0R  10683   3.954   0.024  11.702
    1STR  C0S  10684   3.998  17.432  11.831
    1STR  C0T  10685   3.901  17.393  11.926
    1STR  C0U  10686   3.939  17.355  12.055
    1STR  C0V  10687   4.075  17.354  12.095
    1STR  C0W  10688   4.105  17.301  12.233
    1STR  C0X  10689   4.174  17.398  12.003
    1STR  N0Y  10690   4.312  17.397  12.028
    1STR  BCK2 10691   4.387  17.417  12.138
    1STR  O10  10692   4.348   0.015  12.247
    1STR  C13  10693   4.134  17.435  11.873
    1STR  C14  10694   4.014  17.309   9.998
    1STR  C15  10695   4.002  17.300   9.858
    1STR  C16  10696   4.101  17.353   9.773
    1STR  C17  10697   4.071  17.348   9.624
    1STR  H1B  10698   4.374   0.102   9.804
    1STR  H1C  10699   4.313   0.028  10.014
    1STR  H1D  10700   4.219  17.432  10.234
    1STR  H1E  10701   3.924  17.356  10.522
    1STR  H1F  10702   4.171  17.191  10.603
    1STR  H1G  10703   4.010  17.177  10.674
    1STR  H1H  10704   4.036  17.133  10.506
    1STR  H1I  10705   4.040   0.109  10.623
    1STR  H1J  10706   4.172   0.006  10.676
    1STR  H1K  10707   4.126   0.079  10.896
    1STR  H1M  10708   3.835   0.175  10.865
    1STR  H1N  10709   3.975   0.250  10.787
    1STR  H1O  10710   3.958   0.256  10.961
    1STR  H1P  10711   3.869  17.406  11.016
    1STR  H1Q  10712   4.026  17.329  11.021
    1STR  H1R  10713   3.879  17.402  11.256
    1STR  H1S  10714   4.060  17.297  11.395
    1STR  H1T  10715   4.182  17.386  11.305
    1STR  H1U  10716   4.088  17.259  11.226
    1STR  H1V  10717   3.904   0.198  11.330
    1STR  H1W  10718   4.071   0.172  11.368
    1STR  H1X  10719   3.855   0.018  11.685
    1STR  H1Y  10720   3.797  17.390  11.900
    1STR  H1Z  10721   3.863  17.323  12.125
    1STR  H20  10722   4.198  17.244  12.235
    1STR  H21  10723   4.114  17.384  12.303
    1STR  H22  10724   4.026  17.235  12.270
    1STR  H23  10725   4.368  17.390  11.944
    1STR  H27  10726   4.209   0.027  11.803
    1STR  H28  10727   3.933  17.267  10.056
    1STR  H29  10728   3.914  17.254   9.817
    1STR  H2A  10729   4.101  17.440   9.575
    1STR  H2B  10730   3.965  17.335   9.605
    1STR  H2C  10731   4.123  17.264   9.579
    1STR  BCK1 10732   4.419   0.025  13.980
    1STR  O03  10733   4.514   0.078  13.923
    1STR  N04  10734   4.420  17.402  14.099
    1STR  C05  10735   4.524  17.366  14.186
    1STR  C06  10736   4.501  17.368  14.327
    1STR  C07  10737   4.602  17.331  14.421
    1STR  N08  10738   4.574  17.330  14.560
    1STR  C09  10739   4.656  17.302  14.664
    1STR  O0A  10740   4.775  17.274  14.655
    1STR  O0B  10741   4.591  17.310  14.783
    1STR  C0C  10742   4.664  17.287  14.905
    1STR  C0D  10743   4.737  17.415  14.947
    1STR  C0E  10744   4.570  17.236  15.016
    1STR  O0F  10745   4.646  17.209  15.134
    1STR  C0G  10746   4.570  17.165  15.247
    1STR  C0H  10747   4.538  17.016  15.233
    1STR  C0I  10748   4.652  17.193  15.374
    1STR  O0J  10749   4.571  17.161  15.487
    1STR  C0K  10750   4.631  17.176  15.614
    1STR  C0M  10751   4.629  17.324  15.657
    1STR  C0N  10752   4.550  17.087  15.710
    1STR  O0O  10753   4.611  17.077  15.837
    1STR  C0P  10754   4.565  17.147  15.942
    1STR  O0Q  10755   4.470  17.225  15.941
    1STR  N0R  10756   4.641  17.116  16.046
    1STR  C0S  10757   4.650  17.168  16.174
    1STR  C0T  10758   4.765  17.133  16.246
    1STR  C0U  10759   4.797  17.198  16.366
    1STR  C0V  10760   4.712  17.297  16.417
    1STR  C0W  10761   4.773  17.391  16.519
    1STR  C0X  10762   4.583  17.315  16.360
    1STR  N0Y  10763   4.483  17.389  16.424
    1STR  BCK2 10764   4.462  17.395  16.555
    1STR  O10  10765   4.361   0.007  16.600
    1STR  C13  10766   4.556  17.256  16.235
    1STR  C14  10767   4.727  17.292  14.369
    1STR  C15  10768   4.750  17.286  14.232
    1STR  C16  10769   4.649  17.318  14.139
    1STR  C17  10770   4.680  17.291  13.993
    1STR  H1B  10771   4.327  17.384  14.134
    1STR  H1C  10772   4.405  17.400  14.364
    1STR  H1D  10773   4.481  17.353  14.590
    1STR  H1E  10774   4.739  17.208  14.888
    1STR  H1F  10775   4.668   0.057  14.967
    1STR  H1G  10776   4.795  17.399  15.038
    1STR  H1H  10777   4.807   0.008  14.870
    1STR  H1I  10778   4.520  17.146  14.982
    1STR  H1J  10779   4.493  17.311  15.037
    1STR  H1K  10780   4.478  17.223  15.254
    1STR  H1M  10781   4.628  16.956  15.224
    1STR  H1N  10782   4.475  16.995  15.146
    1STR  H1O  10783   4.483  16.980  15.321
    1STR  H1P  10784   4.744  17.133  15.374
    1STR  H1Q  10785   4.682  17.298  15.377
    1STR  H1R  10786   4.734  17.139  15.612
    1STR  H1S  10787   4.675  17.337  15.755
    1STR  H1T  10788   4.526  17.360  15.665
    1STR  H1U  10789   4.682  17.388  15.587
    1STR  H1V  10790   4.546  16.986  15.669
    1STR  H1W  10791   4.446  17.121  15.716
    1STR  H1X  10792   4.711  17.050  16.018
    1STR  H1Y  10793   4.835  17.061  16.207
    1STR  H1Z  10794   4.891  17.177  16.414
    1STR  H20  10795   4.719   0.045  16.523
    1STR  H21  10796   4.778  17.345  16.618
    1STR  H22  10797   4.874  17.416  16.490
    1STR  H23  10798   4.407  17.426  16.369
    1STR  H27  10799   4.463  17.277  16.184
    1STR  H28  10800   4.810  17.264  14.432
    1STR  H29  10801   4.847  17.253  14.197
    1STR  H2A  10802   4.591  17.256  13.941
    1STR  H2B  10803   4.756  17.213  13.983
    1STR  H2C  10804   4.718  17.381  13.945
    1STR  BCK1 10805   4.421   4.406   0.904
    1STR  O03  10806   4.337   4.419   0.815
    1STR  N04  10807   4.413   4.443   1.033
    1STR  C05  10808   4.332   4.529   1.110
    1STR  C06  10809   4.338   4.515   1.252
    1STR  C07  10810   4.271   4.602   1.343
    1STR  N08  10811   4.285   4.587   1.482
    1STR  C09  10812   4.240   4.663   1.584
    1STR  O0A  10813   4.171   4.764   1.572
    1STR  O0B  10814   4.279   4.614   1.705
    1STR  C0C  10815   4.239   4.681   1.826
    1STR  C0D  10816   4.098   4.634   1.868
    1STR  C0E  10817   4.342   4.654   1.938
    1STR  O0F  10818   4.304   4.724   2.057
    1STR  C0G  10819   4.390   4.705   2.170
    1STR  C0H  10820   4.516   4.793   2.155
    1STR  C0I  10821   4.313   4.741   2.298
    1STR  O0J  10822   4.393   4.714   2.413
    1STR  C0K  10823   4.333   4.742   2.539
    1STR  C0M  10824   4.237   4.628   2.578
    1STR  C0N  10825   4.447   4.757   2.642
    1STR  O0O  10826   4.398   4.798   2.769
    1STR  C0P  10827   4.390   4.711   2.871
    1STR  O0Q  10828   4.417   4.592   2.864
    1STR  N0R  10829   4.349   4.775   2.981
    1STR  C0S  10830   4.326   4.730   3.111
    1STR  C0T  10831   4.266   4.820   3.202
    1STR  C0U  10832   4.235   4.780   3.333
    1STR  C0V  10833   4.263   4.649   3.377
    1STR  C0W  10834   4.213   4.610   3.515
    1STR  C0X  10835   4.331   4.559   3.291
    1STR  N0Y  10836   4.367   4.427   3.324
    1STR  BCK2 10837   4.413   4.372   3.437
    1STR  O10  10838   4.435   4.431   3.542
    1STR  C13  10839   4.359   4.600   3.158
    1STR  C14  10840   4.192   4.704   1.286
    1STR  C15  10841   4.182   4.719   1.147
    1STR  C16  10842   4.252   4.635   1.058
    1STR  C17  10843   4.239   4.667   0.911
    1STR  H1B  10844   4.482   4.394   1.087
    1STR  H1C  10845   4.399   4.436   1.294
    1STR  H1D  10846   4.339   4.509   1.516
    1STR  H1E  10847   4.236   4.789   1.809
    1STR  H1F  10848   4.095   4.527   1.887
    1STR  H1G  10849   4.066   4.685   1.958
    1STR  H1H  10850   4.025   4.657   1.790
    1STR  H1I  10851   4.440   4.688   1.904
    1STR  H1J  10852   4.349   4.547   1.958
    1STR  H1K  10853   4.419   4.600   2.177
    1STR  H1M  10854   4.489   4.898   2.146
    1STR  H1N  10855   4.575   4.766   2.068
    1STR  H1O  10856   4.580   4.783   2.242
    1STR  H1P  10857   4.284   4.847   2.296
    1STR  H1Q  10858   4.220   4.683   2.301
    1STR  H1R  10859   4.279   4.837   2.535
    1STR  H1S  10860   4.192   4.647   2.675
    1STR  H1T  10861   4.291   4.533   2.586
    1STR  H1U  10862   4.156   4.615   2.507
    1STR  H1V  10863   4.517   4.833   2.608
    1STR  H1W  10864   4.506   4.665   2.649
    1STR  H1X  10865   4.331   4.872   2.961
    1STR  H1Y  10866   4.241   4.921   3.172
    1STR  H1Z  10867   4.187   4.850   3.399
    1STR  H20  10868   4.181   4.506   3.517
    1STR  H21  10869   4.291   4.624   3.590
    1STR  H22  10870   4.127   4.671   3.545
    1STR  H23  10871   4.368   4.364   3.245
    1STR  H27  10872   4.408   4.531   3.092
    1STR  H28  10873   4.136   4.775   1.346
    1STR  H29  10874   4.121   4.800   1.108
    1STR  H2A  10875   4.336   4.664   0.862
    1STR  H2B  10876   4.198   4.767   0.895
    1STR  H2C  10877   4.171   4.596   0.863
    1STR  BCK1 10878   4.402   4.350   5.269
    1STR  O03  10879   4.459   4.267   5.199
    1STR  N04  10880   4.342   4.331   5.389
    1STR  C05  10881   4.314   4.217   5.468
    1STR  C06  10882   4.309   4.232   5.610
    1STR  C07  10883   4.277   4.125   5.699
    1STR  N08  10884   4.271   4.146   5.838
    1STR  C09  10885   4.249   4.059   5.940
    1STR  O0A  10886   4.232   3.938   5.926
    1STR  O0B  10887   4.249   4.121   6.061
    1STR  C0C  10888   4.233   4.044   6.182
    1STR  C0D  10889   4.367   3.982   6.224
    1STR  C0E  10890   4.174   4.131   6.295
    1STR  O0F  10891   4.155   4.054   6.415
    1STR  C0G  10892   4.105   4.126   6.528
    1STR  C0H  10893   3.953   4.146   6.514
    1STR  C0I  10894   4.138   4.047   6.657
    1STR  O0J  10895   4.097   4.122   6.771
    1STR  C0K  10896   4.122   4.062   6.898
    1STR  C0M  10897   4.269   4.080   6.937
    1STR  C0N  10898   4.028   4.130   7.000
    1STR  O0O  10899   4.035   4.066   7.128
    1STR  C0P  10900   4.102   4.123   7.229
    1STR  O0Q  10901   4.165   4.228   7.223
    1STR  N0R  10902   4.090   4.045   7.337
    1STR  C0S  10903   4.142   4.056   7.466
    1STR  C0T  10904   4.107   3.954   7.557
    1STR  C0U  10905   4.157   3.955   7.688
    1STR  C0V  10906   4.243   4.057   7.731
    1STR  C0W  10907   4.295   4.044   7.872
    1STR  C0X  10908   4.281   4.162   7.643
    1STR  N0Y  10909   4.375   4.263   7.670
    1STR  BCK2 10910   4.419   4.324   7.781
    1STR  O10  10911   4.365   4.322   7.891
    1STR  C13  10912   4.228   4.160   7.511
    1STR  C14  10913   4.251   3.999   5.640
    1STR  C15  10914   4.251   3.983   5.501
    1STR  C16  10915   4.279   4.090   5.414
    1STR  C17  10916   4.262   4.064   5.265
    1STR  H1B  10917   4.319   4.418   5.433
    1STR  H1C  10918   4.331   4.329   5.652
    1STR  H1D  10919   4.284   4.239   5.873
    1STR  H1E  10920   4.161   3.963   6.163
    1STR  H1F  10921   4.442   4.059   6.244
    1STR  H1G  10922   4.356   3.922   6.315
    1STR  H1H  10923   4.406   3.916   6.147
    1STR  H1I  10924   4.079   4.173   6.262
    1STR  H1J  10925   4.241   4.215   6.315
    1STR  H1K  10926   4.154   4.223   6.536
    1STR  H1M  10927   3.901   4.050   6.505
    1STR  H1N  10928   3.927   4.206   6.427
    1STR  H1O  10929   3.913   4.197   6.601
    1STR  H1P  10930   4.088   3.950   6.655
    1STR  H1Q  10931   4.245   4.027   6.660
    1STR  H1R  10932   4.097   3.956   6.895
    1STR  H1S  10933   4.290   4.035   7.035
    1STR  H1T  10934   4.295   4.186   6.945
    1STR  H1U  10935   4.337   4.034   6.866
    1STR  H1V  10936   3.925   4.122   6.966
    1STR  H1W  10937   4.048   4.237   7.007
    1STR  H1X  10938   4.033   3.965   7.316
    1STR  H1Y  10939   4.042   3.873   7.527
    1STR  H1Z  10940   4.129   3.875   7.755
    1STR  H20  10941   4.402   4.062   7.874
    1STR  H21  10942   4.245   4.116   7.937
    1STR  H22  10943   4.279   3.945   7.915
    1STR  H23  10944   4.412   4.306   7.587
    1STR  H27  10945   4.255   4.238   7.443
    1STR  H28  10946   4.227   3.912   5.699
    1STR  H29  10947   4.227   3.886   5.460
    1STR  H2A  10948   4.219   4.150   5.215
    1STR  H2B  10949   4.196   3.979   5.248
    1STR  H2C  10950   4.359   4.041   5.220
    1STR  BCK1 10951   4.417   4.371   9.611
    1STR  O03  10952   4.421   4.473   9.543
    1STR  N04  10953   4.455   4.356   9.740
    1STR  C05  10954   4.535   4.432   9.827
    1STR  C06  10955   4.516   4.417   9.968
    1STR  C07  10956   4.598   4.482  10.065
    1STR  N08  10957   4.580   4.461  10.203
    1STR  C09  10958   4.651   4.509  10.308
    1STR  O0A  10959   4.746   4.585  10.300
    1STR  O0B  10960   4.604   4.463  10.427
    1STR  C0C  10961   4.666   4.508  10.549
    1STR  C0D  10962   4.609   4.644  10.591
    1STR  C0E  10963   4.649   4.402  10.660
    1STR  O0F  10964   4.717   4.446  10.779
    1STR  C0G  10965   4.706   4.359  10.891
    1STR  C0H  10966   4.805   4.242  10.876
    1STR  C0I  10967   4.736   4.440  11.018
    1STR  O0J  10968   4.715   4.357  11.133
    1STR  C0K  10969   4.738   4.419  11.259
    1STR  C0M  10970   4.617   4.504  11.299
    1STR  C0N  10971   4.763   4.305  11.360
    1STR  O0O  10972   4.806   4.357  11.486
    1STR  C0P  10973   4.721   4.363  11.590
    1STR  O0Q  10974   4.603   4.330  11.587
    1STR  N0R  10975   4.786   4.413  11.695
    1STR  C0S  10976   4.743   4.441  11.825
    1STR  C0T  10977   4.831   4.514  11.908
    1STR  C0U  10978   4.793   4.553  12.037
    1STR  C0V  10979   4.667   4.517  12.089
    1STR  C0W  10980   4.624   4.572  12.224
    1STR  C0X  10981   4.583   4.433  12.012
    1STR  N0Y  10982   4.466   4.380  12.066
    1STR  BCK2 10983   4.461   4.317  12.183
    1STR  O10  10984   4.356   4.271  12.226
    1STR  C13  10985   4.619   4.400  11.879
    1STR  C14  10986   4.699   4.567  10.015
    1STR  C15  10987   4.721   4.583   9.878
    1STR  C16  10988   4.643   4.514   9.784
    1STR  C17  10989   4.687   4.528   9.639
    1STR  H1B  10990   4.413   4.275   9.781
    1STR  H1C  10991   4.437   4.352  10.003
    1STR  H1D  10992   4.506   4.400  10.233
    1STR  H1E  10993   4.774   4.519  10.533
    1STR  H1F  10994   4.502   4.639  10.609
    1STR  H1G  10995   4.657   4.681  10.681
    1STR  H1H  10996   4.626   4.719  10.513
    1STR  H1I  10997   4.691   4.308  10.626
    1STR  H1J  10998   4.543   4.387  10.680
    1STR  H1K  10999   4.604   4.320  10.899
    1STR  H1M  11000   4.908   4.278  10.866
    1STR  H1N  11001   4.783   4.180  10.789
    1STR  H1O  11002   4.801   4.177  10.963
    1STR  H1P  11003   4.838   4.477  11.016
    1STR  H1Q  11004   4.670   4.527  11.022
    1STR  H1R  11005   4.828   4.481  11.254
    1STR  H1S  11006   4.632   4.551  11.396
    1STR  H1T  11007   4.527   4.443  11.307
    1STR  H1U  11008   4.597   4.584  11.228
    1STR  H1V  11009   4.843   4.241  11.323
    1STR  H1W  11010   4.676   4.241  11.370
    1STR  H1X  11011   4.881   4.434  11.672
    1STR  H1Y  11012   4.929   4.543  11.872
    1STR  H1Z  11013   4.861   4.611  12.097
    1STR  H20  11014   4.517   4.595  12.222
    1STR  H21  11015   4.642   4.500  12.303
    1STR  H22  11016   4.677   4.664  12.248
    1STR  H23  11017   4.382   4.375  12.010
    1STR  H27  11018   4.551   4.339  11.821
    1STR  H28  11019   4.766   4.623  10.079
    1STR  H29  11020   4.802   4.647   9.845
    1STR  H2A  11021   4.687   4.431   9.590
    1STR  H2B  11022   4.787   4.568   9.631
    1STR  H2C  11023   4.620   4.597   9.587
    1STR  BCK1 11024   4.381   4.405  13.987
    1STR  O03  11025   4.317   4.347  13.900
    1STR  N04  11026   4.343   4.433  14.114
    1STR  C05  11027   4.224   4.428  14.189
    1STR  C06  11028   4.235   4.428  14.331
    1STR  C07  11029   4.123   4.433  14.419
    1STR  N08  11030   4.141   4.437  14.560
    1STR  C09  11031   4.052   4.447  14.660
    1STR  O0A  11032   3.930   4.454  14.645
    1STR  O0B  11033   4.112   4.450  14.782
    1STR  C0C  11034   4.033   4.459  14.903
    1STR  C0D  11035   3.984   4.320  14.944
    1STR  C0E  11036   4.115   4.525  15.016
    1STR  O0F  11037   4.037   4.537  15.136
    1STR  C0G  11038   4.104   4.594  15.249
    1STR  C0H  11039   4.111   4.747  15.234
    1STR  C0I  11040   4.028   4.554  15.378
    1STR  O0J  11041   4.099   4.602  15.493
    1STR  C0K  11042   4.041   4.571  15.620
    1STR  C0M  11043   4.073   4.425  15.658
    1STR  C0N  11044   4.100   4.669  15.724
    1STR  O0O  11045   4.039   4.654  15.852
    1STR  C0P  11046   4.105   4.594  15.953
    1STR  O0Q  11047   4.216   4.544  15.944
    1STR  N0R  11048   4.030   4.599  16.063
    1STR  C0S  11049   4.053   4.550  16.193
    1STR  C0T  11050   3.948   4.564  16.286
    1STR  C0U  11051   3.960   4.513  16.416
    1STR  C0V  11052   4.078   4.447  16.458
    1STR  C0W  11053   4.077   4.385  16.596
    1STR  C0X  11054   4.188   4.437  16.368
    1STR  N0Y  11055   4.308   4.371  16.395
    1STR  BCK2 11056   4.383   4.359  16.506
    1STR  O10  11057   4.364   4.417  16.613
    1STR  C13  11058   4.172   4.488  16.236
    1STR  C14  11059   3.995   4.435  14.360
    1STR  C15  11060   3.981   4.435  14.220
    1STR  C16  11061   4.092   4.434  14.134
    1STR  C17  11062   4.063   4.444  13.986
    1STR  H1B  11063   4.423   4.461  14.168
    1STR  H1C  11064   4.334   4.425  14.375
    1STR  H1D  11065   4.235   4.432  14.595
    1STR  H1E  11066   3.946   4.523  14.884
    1STR  H1F  11067   4.066   4.252  14.964
    1STR  H1G  11068   3.923   4.325  15.035
    1STR  H1H  11069   3.921   4.275  14.867
    1STR  H1I  11070   4.148   4.623  14.983
    1STR  H1J  11071   4.205   4.466  15.036
    1STR  H1K  11072   4.205   4.553  15.257
    1STR  H1M  11073   4.011   4.790  15.225
    1STR  H1N  11074   4.169   4.777  15.148
    1STR  H1O  11075   4.158   4.792  15.322
    1STR  H1P  11076   3.927   4.595  15.376
    1STR  H1Q  11077   4.019   4.446  15.382
    1STR  H1R  11078   3.933   4.586  15.616
    1STR  H1S  11079   4.030   4.400  15.755
    1STR  H1T  11080   4.181   4.409  15.665
    1STR  H1U  11081   4.033   4.354  15.586
    1STR  H1V  11082   4.080   4.772  15.691
    1STR  H1W  11083   4.208   4.660  15.729
    1STR  H1X  11084   3.943   4.645  16.046
    1STR  H1Y  11085   3.855   4.612  16.259
    1STR  H1Z  11086   3.878   4.523  16.485
    1STR  H20  11087   4.131   4.290  16.597
    1STR  H21  11088   4.124   4.453  16.667
    1STR  H22  11089   3.976   4.364  16.631
    1STR  H23  11090   4.353   4.332  16.314
    1STR  H27  11091   4.254   4.478  16.167
    1STR  H28  11092   3.905   4.438  14.418
    1STR  H29  11093   3.881   4.439  14.179
    1STR  H2A  11094   4.132   4.513  13.937
    1STR  H2B  11095   3.962   4.482  13.968
    1STR  H2C  11096   4.070   4.346  13.940
    1STR  BCK1 11097   4.425   8.732   0.906
    1STR  O03  11098   4.532   8.724   0.846
    1STR  N04  11099   4.392   8.675   1.024
    1STR  C05  11100   4.459   8.583   1.107
    1STR  C06  11101   4.441   8.593   1.248
    1STR  C07  11102   4.503   8.503   1.340
    1STR  N08  11103   4.481   8.514   1.479
    1STR  C09  11104   4.535   8.446   1.582
    1STR  O0A  11105   4.621   8.359   1.571
    1STR  O0B  11106   4.485   8.486   1.702
    1STR  C0C  11107   4.535   8.427   1.823
    1STR  C0D  11108   4.665   8.496   1.866
    1STR  C0E  11109   4.428   8.434   1.934
    1STR  O0F  11110   4.478   8.371   2.052
    1STR  C0G  11111   4.391   8.375   2.165
    1STR  C0H  11112   4.282   8.267   2.152
    1STR  C0I  11113   4.474   8.354   2.292
    1STR  O0J  11114   4.388   8.372   2.405
    1STR  C0K  11115   4.448   8.352   2.532
    1STR  C0M  11116   4.525   8.478   2.574
    1STR  C0N  11117   4.333   8.321   2.628
    1STR  O0O  11118   4.384   8.285   2.755
    1STR  C0P  11119   4.383   8.371   2.857
    1STR  O0Q  11120   4.339   8.485   2.857
    1STR  N0R  11121   4.439   8.309   2.960
    1STR  C0S  11122   4.466   8.346   3.091
    1STR  C0T  11123   4.526   8.246   3.169
    1STR  C0U  11124   4.560   8.271   3.302
    1STR  C0V  11125   4.535   8.396   3.360
    1STR  C0W  11126   4.582   8.413   3.502
    1STR  C0X  11127   4.472   8.499   3.285
    1STR  N0Y  11128   4.441   8.626   3.338
    1STR  BCK2 11129   4.470   8.680   3.456
    1STR  O10  11130   4.425   8.790   3.487
    1STR  C13  11131   4.439   8.472   3.150
    1STR  C14  11132   4.586   8.403   1.285
    1STR  C15  11133   4.601   8.389   1.146
    1STR  C16  11134   4.536   8.475   1.057
    1STR  C17  11135   4.546   8.441   0.910
    1STR  H1B  11136   4.305   8.711   1.061
    1STR  H1C  11137   4.379   8.672   1.288
    1STR  H1D  11138   4.415   8.583   1.511
    1STR  H1E  11139   4.555   8.321   1.806
    1STR  H1F  11140   4.650   8.602   1.885
    1STR  H1G  11141   4.705   8.451   1.957
    1STR  H1H  11142   4.742   8.487   1.789
    1STR  H1I  11143   4.337   8.385   1.900
    1STR  H1J  11144   4.403   8.538   1.955
    1STR  H1K  11145   4.344   8.474   2.172
    1STR  H1M  11146   4.327   8.167   2.144
    1STR  H1N  11147   4.218   8.282   2.065
    1STR  H1O  11148   4.218   8.266   2.240
    1STR  H1P  11149   4.519   8.255   2.292
    1STR  H1Q  11150   4.556   8.427   2.295
    1STR  H1R  11151   4.516   8.266   2.530
    1STR  H1S  11152   4.573   8.464   2.671
    1STR  H1T  11153   4.458   8.564   2.583
    1STR  H1U  11154   4.604   8.505   2.504
    1STR  H1V  11155   4.276   8.235   2.591
    1STR  H1W  11156   4.262   8.404   2.635
    1STR  H1X  11157   4.467   8.216   2.932
    1STR  H1Y  11158   4.548   8.148   3.128
    1STR  H1Z  11159   4.607   8.192   3.360
    1STR  H20  11160   4.662   8.487   3.499
    1STR  H21  11161   4.500   8.445   3.566
    1STR  H22  11162   4.623   8.321   3.545
    1STR  H23  11163   4.384   8.687   3.281
    1STR  H27  11164   4.392   8.549   3.090
    1STR  H28  11165   4.639   8.331   1.346
    1STR  H29  11166   4.663   8.308   1.109
    1STR  H2A  11167   4.453   8.463   0.858
    1STR  H2B  11168   4.566   8.335   0.895
    1STR  H2C  11169   4.627   8.496   0.863
    1STR  BCK1 11170   4.435   8.745   5.259
    1STR  O03  11171   4.367   8.801   5.173
    1STR  N04  11172   4.444   8.775   5.390
    1STR  C05  11173   4.424   8.889   5.470
    1STR  C06  11174   4.423   8.870   5.612
    1STR  C07  11175   4.414   8.979   5.704
    1STR  N08  11176   4.418   8.955   5.844
    1STR  C09  11177   4.421   9.042   5.947
    1STR  O0A  11178   4.417   9.164   5.936
    1STR  O0B  11179   4.428   8.979   6.066
    1STR  C0C  11180   4.430   9.055   6.188
    1STR  C0D  11181   4.286   9.092   6.229
    1STR  C0E  11182   4.502   8.977   6.299
    1STR  O0F  11183   4.509   9.057   6.418
    1STR  C0G  11184   4.571   8.995   6.530
    1STR  C0H  11185   4.724   9.002   6.515
    1STR  C0I  11186   4.525   9.067   6.658
    1STR  O0J  11187   4.578   9.001   6.772
    1STR  C0K  11188   4.543   9.057   6.898
    1STR  C0M  11189   4.401   9.012   6.938
    1STR  C0N  11190   4.648   9.009   7.000
    1STR  O0O  11191   4.630   9.072   7.126
    1STR  C0P  11192   4.576   9.005   7.229
    1STR  O0Q  11193   4.534   8.890   7.224
    1STR  N0R  11194   4.575   9.084   7.336
    1STR  C0S  11195   4.531   9.061   7.467
    1STR  C0T  11196   4.529   9.172   7.554
    1STR  C0U  11197   4.482   9.159   7.687
    1STR  C0V  11198   4.439   9.034   7.735
    1STR  C0W  11199   4.379   9.026   7.874
    1STR  C0X  11200   4.448   8.920   7.652
    1STR  N0Y  11201   4.413   8.793   7.697
    1STR  BCK2 11202   4.448   8.740   7.814
    1STR  O10  11203   4.405   8.632   7.849
    1STR  C13  11204   4.491   8.935   7.518
    1STR  C14  11205   4.402   9.108   5.650
    1STR  C15  11206   4.402   9.129   5.512
    1STR  C16  11207   4.414   9.023   5.421
    1STR  C17  11208   4.420   9.061   5.275
    1STR  H1B  11209   4.473   8.694   5.442
    1STR  H1C  11210   4.431   8.770   5.651
    1STR  H1D  11211   4.422   8.860   5.876
    1STR  H1E  11212   4.486   9.148   6.172
    1STR  H1F  11213   4.226   9.003   6.248
    1STR  H1G  11214   4.286   9.152   6.321
    1STR  H1H  11215   4.236   9.151   6.152
    1STR  H1I  11216   4.603   8.953   6.265
    1STR  H1J  11217   4.451   8.883   6.319
    1STR  H1K  11218   4.539   8.891   6.538
    1STR  H1M  11219   4.758   9.105   6.506
    1STR  H1N  11220   4.760   8.947   6.428
    1STR  H1O  11221   4.773   8.959   6.602
    1STR  H1P  11222   4.557   9.171   6.655
    1STR  H1Q  11223   4.416   9.068   6.661
    1STR  H1R  11224   4.548   9.166   6.893
    1STR  H1S  11225   4.373   9.053   7.035
    1STR  H1T  11226   4.395   8.903   6.946
    1STR  H1U  11227   4.326   9.044   6.867
    1STR  H1V  11228   4.748   9.035   6.964
    1STR  H1W  11229   4.647   8.900   7.008
    1STR  H1X  11230   4.613   9.174   7.315
    1STR  H1Y  11231   4.560   9.270   7.521
    1STR  H1Z  11232   4.478   9.246   7.750
    1STR  H20  11233   4.290   8.962   7.873
    1STR  H21  11234   4.450   8.985   7.946
    1STR  H22  11235   4.347   9.124   7.910
    1STR  H23  11236   4.361   8.731   7.637
    1STR  H27  11237   4.494   8.848   7.454
    1STR  H28  11238   4.395   9.196   5.712
    1STR  H29  11239   4.395   9.231   5.476
    1STR  H2A  11240   4.504   9.012   5.226
    1STR  H2B  11241   4.433   9.168   5.261
    1STR  H2C  11242   4.326   9.033   5.226
    1STR  BCK1 11243   4.379   8.722   9.628
    1STR  O03  11244   4.383   8.627   9.550
    1STR  N04  11245   4.322   8.726   9.751
    1STR  C05  11246   4.242   8.638   9.828
    1STR  C06  11247   4.246   8.650   9.970
    1STR  C07  11248   4.165   8.572  10.058
    1STR  N08  11249   4.170   8.591  10.198
    1STR  C09  11250   4.106   8.528  10.299
    1STR  O0A  11251   4.027   8.435  10.284
    1STR  O0B  11252   4.139   8.579  10.421
    1STR  C0C  11253   4.083   8.522  10.542
    1STR  C0D  11254   4.163   8.397  10.583
    1STR  C0E  11255   4.080   8.627  10.656
    1STR  O0F  11256   4.023   8.571  10.775
    1STR  C0G  11257   4.019   8.659  10.889
    1STR  C0H  11258   3.902   8.757  10.874
    1STR  C0I  11259   4.004   8.575  11.018
    1STR  O0J  11260   4.010   8.660  11.133
    1STR  C0K  11261   3.999   8.596  11.260
    1STR  C0M  11262   4.133   8.532  11.298
    1STR  C0N  11263   3.956   8.702  11.363
    1STR  O0O  11264   3.930   8.644  11.491
    1STR  C0P  11265   4.018   8.658  11.592
    1STR  O0Q  11266   4.127   8.714  11.584
    1STR  N0R  11267   3.968   8.600  11.702
    1STR  C0S  11268   4.020   8.585  11.831
    1STR  C0T  11269   3.940   8.516  11.925
    1STR  C0U  11270   3.988   8.492  12.055
    1STR  C0V  11271   4.116   8.534  12.095
    1STR  C0W  11272   4.161   8.494  12.234
    1STR  C0X  11273   4.198   8.606  12.003
    1STR  N0Y  11274   4.329   8.649  12.027
    1STR  BCK2 11275   4.397   8.688  12.137
    1STR  O10  11276   4.350   8.710  12.248
    1STR  C13  11277   4.148   8.630  11.873
    1STR  C14  11278   4.079   8.478   9.998
    1STR  C15  11279   4.071   8.465   9.859
    1STR  C16  11280   4.149   8.545   9.773
    1STR  C17  11281   4.122   8.531   9.624
    1STR  H1B  11282   4.348   8.810   9.800
    1STR  H1C  11283   4.313   8.723  10.014
    1STR  H1D  11284   4.231   8.662  10.234
    1STR  H1E  11285   3.979   8.492  10.522
    1STR  H1F  11286   4.267   8.422  10.604
    1STR  H1G  11287   4.121   8.353  10.674
    1STR  H1H  11288   4.161   8.321  10.506
    1STR  H1I  11289   4.022   8.713  10.623
    1STR  H1J  11290   4.181   8.662  10.676
    1STR  H1K  11291   4.113   8.714  10.896
    1STR  H1M  11292   3.807   8.705  10.865
    1STR  H1N  11293   3.912   8.822  10.787
    1STR  H1O  11294   3.895   8.822  10.962
    1STR  H1P  11295   3.910   8.520  11.016
    1STR  H1Q  11296   4.084   8.501  11.021
    1STR  H1R  11297   3.921   8.519  11.256
    1STR  H1S  11298   4.127   8.483  11.395
    1STR  H1T  11299   4.212   8.608  11.305
    1STR  H1U  11300   4.166   8.457  11.226
    1STR  H1V  11301   3.864   8.750  11.330
    1STR  H1W  11302   4.030   8.782  11.369
    1STR  H1X  11303   3.877   8.562  11.684
    1STR  H1Y  11304   3.842   8.480  11.899
    1STR  H1Z  11305   3.925   8.438  12.124
    1STR  H20  11306   4.266   8.466  12.235
    1STR  H21  11307   4.146   8.577  12.302
    1STR  H22  11308   4.105   8.409  12.272
    1STR  H23  11309   4.383   8.662  11.943
    1STR  H27  11310   4.209   8.684  11.803
    1STR  H28  11311   4.015   8.413  10.056
    1STR  H29  11312   4.002   8.393   9.817
    1STR  H2A  11313   4.124   8.628   9.575
    1STR  H2B  11314   4.024   8.487   9.606
    1STR  H2C  11315   4.197   8.465   9.579
    1STR  BCK1 11316   4.414   8.743  13.975
    1STR  O03  11317   4.482   8.827  13.916
    1STR  N04  11318   4.436   8.691  14.098
    1STR  C05  11319   4.545   8.699  14.186
    1STR  C06  11320   4.521   8.695  14.327
    1STR  C07  11321   4.626   8.698  14.423
    1STR  N08  11322   4.600   8.689  14.561
    1STR  C09  11323   4.685   8.691  14.666
    1STR  O0A  11324   4.807   8.705  14.658
    1STR  O0B  11325   4.621   8.676  14.785
    1STR  C0C  11326   4.698   8.680  14.907
    1STR  C0D  11327   4.722   8.826  14.949
    1STR  C0E  11328   4.627   8.601  15.019
    1STR  O0F  11329   4.708   8.601  15.137
    1STR  C0G  11330   4.652   8.534  15.249
    1STR  C0H  11331   4.673   8.382  15.235
    1STR  C0I  11332   4.720   8.586  15.377
    1STR  O0J  11333   4.657   8.528  15.491
    1STR  C0K  11334   4.709   8.565  15.618
    1STR  C0M  11335   4.654   8.703  15.659
    1STR  C0N  11336   4.668   8.455  15.717
    1STR  O0O  11337   4.731   8.471  15.843
    1STR  C0P  11338   4.665   8.524  15.947
    1STR  O0Q  11339   4.549   8.563  15.946
    1STR  N0R  11340   4.748   8.529  16.051
    1STR  C0S  11341   4.732   8.583  16.179
    1STR  C0T  11342   4.849   8.604  16.255
    1STR  C0U  11343   4.844   8.672  16.377
    1STR  C0V  11344   4.720   8.715  16.429
    1STR  C0W  11345   4.720   8.808  16.550
    1STR  C0X  11346   4.600   8.676  16.365
    1STR  N0Y  11347   4.478   8.689  16.429
    1STR  BCK2 11348   4.453   8.639  16.549
    1STR  O10  11349   4.340   8.642  16.597
    1STR  C13  11350   4.607   8.616  16.237
    1STR  C14  11351   4.758   8.709  14.373
    1STR  C15  11352   4.784   8.710  14.235
    1STR  C16  11353   4.680   8.701  14.142
    1STR  C17  11354   4.721   8.686  13.997
    1STR  H1B  11355   4.355   8.641  14.133
    1STR  H1C  11356   4.419   8.689  14.362
    1STR  H1D  11357   4.504   8.678  14.591
    1STR  H1E  11358   4.795   8.632  14.891
    1STR  H1F  11359   4.629   8.879  14.968
    1STR  H1G  11360   4.783   8.831  15.040
    1STR  H1H  11361   4.777   8.881  14.872
    1STR  H1I  11362   4.611   8.498  14.984
    1STR  H1J  11363   4.529   8.644  15.039
    1STR  H1K  11364   4.545   8.556  15.257
    1STR  H1M  11365   4.778   8.357  15.225
    1STR  H1N  11366   4.621   8.341  15.148
    1STR  H1O  11367   4.634   8.329  15.322
    1STR  H1P  11368   4.826   8.563  15.375
    1STR  H1Q  11369   4.711   8.695  15.380
    1STR  H1R  11370   4.818   8.568  15.614
    1STR  H1S  11371   4.693   8.733  15.756
    1STR  H1T  11372   4.545   8.700  15.667
    1STR  H1U  11373   4.681   8.781  15.588
    1STR  H1V  11374   4.699   8.358  15.678
    1STR  H1W  11375   4.559   8.449  15.726
    1STR  H1X  11376   4.838   8.492  16.027
    1STR  H1Y  11377   4.945   8.572  16.218
    1STR  H1Z  11378   4.935   8.693  16.431
    1STR  H20  11379   4.631   8.870  16.551
    1STR  H21  11380   4.726   8.752  16.643
    1STR  H22  11381   4.806   8.874  16.547
    1STR  H23  11382   4.396   8.718  16.376
    1STR  H27  11383   4.515   8.593  16.185
    1STR  H28  11384   4.844   8.715  14.436
    1STR  H29  11385   4.886   8.715  14.202
    1STR  H2A  11386   4.655   8.617  13.944
    1STR  H2B  11387   4.822   8.645  13.988
    1STR  H2C  11388   4.720   8.783  13.947
    1STR  BCK1 11389   4.406  13.133   0.905
    1STR  O03  11390   4.323  13.117   0.817
    1STR  N04  11391   4.386  13.169   1.034
    1STR  C05  11392   4.280  13.223   1.110
    1STR  C06  11393   4.290  13.214   1.252
    1STR  C07  11394   4.196  13.274   1.341
    1STR  N08  11395   4.214  13.266   1.481
    1STR  C09  11396   4.144  13.322   1.583
    1STR  O0A  11397   4.046  13.393   1.569
    1STR  O0B  11398   4.197  13.290   1.704
    1STR  C0C  11399   4.137  13.340   1.825
    1STR  C0D  11400   4.020  13.248   1.866
    1STR  C0E  11401   4.242  13.350   1.938
    1STR  O0F  11402   4.182  13.403   2.057
    1STR  C0G  11403   4.270  13.415   2.170
    1STR  C0H  11404   4.357  13.540   2.155
    1STR  C0I  11405   4.184  13.422   2.298
    1STR  O0J  11406   4.270  13.424   2.413
    1STR  C0K  11407   4.204  13.429   2.540
    1STR  C0M  11408   4.153  13.289   2.578
    1STR  C0N  11409   4.306  13.482   2.643
    1STR  O0O  11410   4.246  13.503   2.771
    1STR  C0P  11411   4.270  13.418   2.872
    1STR  O0Q  11412   4.336  13.315   2.864
    1STR  N0R  11413   4.209  13.463   2.982
    1STR  C0S  11414   4.203  13.412   3.113
    1STR  C0T  11415   4.118  13.477   3.204
    1STR  C0U  11416   4.103  13.427   3.335
    1STR  C0V  11417   4.172  13.313   3.378
    1STR  C0W  11418   4.138  13.259   3.516
    1STR  C0X  11419   4.264  13.249   3.290
    1STR  N0Y  11420   4.338  13.135   3.321
    1STR  BCK2 11421   4.401  13.097   3.434
    1STR  O10  11422   4.410  13.163   3.537
    1STR  C13  11423   4.276  13.299   3.158
    1STR  C14  11424   4.087  13.343   1.283
    1STR  C15  11425   4.075  13.353   1.144
    1STR  C16  11426   4.169  13.296   1.057
    1STR  C17  11427   4.148  13.321   0.909
    1STR  H1B  11428   4.468  13.148   1.089
    1STR  H1C  11429   4.373  13.160   1.295
    1STR  H1D  11430   4.291  13.211   1.516
    1STR  H1E  11431   4.097  13.440   1.807
    1STR  H1F  11432   4.054  13.146   1.886
    1STR  H1G  11433   3.972  13.285   1.957
    1STR  H1H  11434   3.943  13.244   1.789
    1STR  H1I  11435   4.322  13.416   1.904
    1STR  H1J  11436   4.285  13.252   1.957
    1STR  H1K  11437   4.333  13.326   2.177
    1STR  H1M  11438   4.296  13.630   2.146
    1STR  H1N  11439   4.423  13.535   2.068
    1STR  H1O  11440   4.422  13.553   2.242
    1STR  H1P  11441   4.121  13.511   2.296
    1STR  H1Q  11442   4.118  13.336   2.302
    1STR  H1R  11443   4.121  13.500   2.536
    1STR  H1S  11444   4.104  13.291   2.675
    1STR  H1T  11445   4.236  13.218   2.586
    1STR  H1U  11446   4.081  13.250   2.507
    1STR  H1V  11447   4.345  13.578   2.609
    1STR  H1W  11448   4.393  13.416   2.649
    1STR  H1X  11449   4.159  13.548   2.964
    1STR  H1Y  11450   4.062  13.564   3.175
    1STR  H1Z  11451   4.035  13.477   3.402
    1STR  H20  11452   4.141  13.150   3.517
    1STR  H21  11453   4.209  13.297   3.590
    1STR  H22  11454   4.038  13.289   3.547
    1STR  H23  11455   4.357  13.075   3.243
    1STR  H27  11456   4.344  13.249   3.091
    1STR  H28  11457   4.011  13.391   1.342
    1STR  H29  11458   3.991  13.408   1.104
    1STR  H2A  11459   4.241  13.348   0.860
    1STR  H2B  11460   4.078  13.403   0.892
    1STR  H2C  11461   4.107  13.232   0.862
    1STR  BCK1 11462   4.416  13.074   5.269
    1STR  O03  11463   4.500  13.013   5.204
    1STR  N04  11464   4.361  13.039   5.387
    1STR  C05  11465   4.370  12.923   5.468
    1STR  C06  11466   4.360  12.938   5.609
    1STR  C07  11467   4.364  12.827   5.699
    1STR  N08  11468   4.351  12.846   5.839
    1STR  C09  11469   4.360  12.758   5.941
    1STR  O0A  11470   4.386  12.638   5.928
    1STR  O0B  11471   4.339  12.817   6.061
    1STR  C0C  11472   4.349  12.739   6.182
    1STR  C0D  11473   4.497  12.727   6.225
    1STR  C0E  11474   4.264  12.802   6.295
    1STR  O0F  11475   4.272  12.722   6.414
    1STR  C0G  11476   4.201  12.773   6.527
    1STR  C0H  11477   4.051  12.739   6.513
    1STR  C0I  11478   4.259  12.710   6.655
    1STR  O0J  11479   4.195  12.768   6.769
    1STR  C0K  11480   4.238  12.719   6.896
    1STR  C0M  11481   4.370  12.786   6.936
    1STR  C0N  11482   4.125  12.752   6.996
    1STR  O0O  11483   4.152  12.693   7.123
    1STR  C0P  11484   4.197  12.767   7.224
    1STR  O0Q  11485   4.220  12.888   7.221
    1STR  N0R  11486   4.213  12.688   7.330
    1STR  C0S  11487   4.260  12.711   7.459
    1STR  C0T  11488   4.260  12.600   7.545
    1STR  C0U  11489   4.305  12.612   7.677
    1STR  C0V  11490   4.351  12.736   7.726
    1STR  C0W  11491   4.396  12.738   7.870
    1STR  C0X  11492   4.350  12.851   7.643
    1STR  N0Y  11493   4.385  12.979   7.687
    1STR  BCK2 11494   4.433  13.019   7.805
    1STR  O10  11495   4.427  13.137   7.838
    1STR  C13  11496   4.305  12.836   7.509
    1STR  C14  11497   4.381  12.699   5.642
    1STR  C15  11498   4.387  12.682   5.503
    1STR  C16  11499   4.378  12.792   5.415
    1STR  C17  11500   4.370  12.760   5.267
    1STR  H1B  11501   4.309  13.114   5.428
    1STR  H1C  11502   4.349  13.037   5.651
    1STR  H1D  11503   4.331  12.938   5.872
    1STR  H1E  11504   4.310  12.639   6.164
    1STR  H1F  11505   4.541  12.825   6.244
    1STR  H1G  11506   4.507  12.668   6.315
    1STR  H1H  11507   4.556  12.679   6.147
    1STR  H1I  11508   4.160  12.808   6.262
    1STR  H1J  11509   4.298  12.903   6.315
    1STR  H1K  11510   4.214  12.881   6.534
    1STR  H1M  11511   4.035  12.632   6.504
    1STR  H1N  11512   4.006  12.787   6.427
    1STR  H1O  11513   3.996  12.773   6.601
    1STR  H1P  11514   4.245  12.602   6.654
    1STR  H1Q  11515   4.367  12.728   6.659
    1STR  H1R  11516   4.250  12.611   6.893
    1STR  H1S  11517   4.404  12.750   7.034
    1STR  H1T  11518   4.358  12.894   6.945
    1STR  H1U  11519   4.450  12.767   6.866
    1STR  H1V  11520   4.031  12.709   6.960
    1STR  H1W  11521   4.108  12.859   7.003
    1STR  H1X  11522   4.186  12.594   7.307
    1STR  H1Y  11523   4.225  12.503   7.512
    1STR  H1Z  11524   4.304  12.526   7.741
    1STR  H20  11525   4.502  12.765   7.872
    1STR  H21  11526   4.337  12.812   7.924
    1STR  H22  11527   4.386  12.643   7.921
    1STR  H23  11528   4.362  13.057   7.626
    1STR  H27  11529   4.304  12.922   7.444
    1STR  H28  11530   4.386  12.609   5.701
    1STR  H29  11531   4.396  12.582   5.463
    1STR  H2A  11532   4.302  12.828   5.216
    1STR  H2B  11533   4.334  12.659   5.250
    1STR  H2C  11534   4.469  12.768   5.221
    1STR  BCK1 11535   4.438  13.089   9.612
    1STR  O03  11536   4.385  13.172   9.540
    1STR  N04  11537   4.455  13.099   9.745
    1STR  C05  11538   4.504  13.201   9.830
    1STR  C06  11539   4.492  13.182   9.971
    1STR  C07  11540   4.544  13.274  10.066
    1STR  N08  11541   4.535  13.249  10.205
    1STR  C09  11542   4.583  13.320  10.309
    1STR  O0A  11543   4.647  13.424  10.300
    1STR  O0B  11544   4.555  13.261  10.428
    1STR  C0C  11545   4.598  13.325  10.550
    1STR  C0D  11546   4.496  13.433  10.591
    1STR  C0E  11547   4.617  13.220  10.660
    1STR  O0F  11548   4.666  13.284  10.779
    1STR  C0G  11549   4.686  13.198  10.891
    1STR  C0H  11550   4.819  13.122  10.876
    1STR  C0I  11551   4.685  13.284  11.018
    1STR  O0J  11552   4.694  13.199  11.133
    1STR  C0K  11553   4.695  13.266  11.259
    1STR  C0M  11554   4.552  13.304  11.298
    1STR  C0N  11555   4.758  13.168  11.360
    1STR  O0O  11556   4.778  13.231  11.486
    1STR  C0P  11557   4.697  13.206  11.589
    1STR  O0Q  11558   4.599  13.133  11.586
    1STR  N0R  11559   4.740  13.275  11.696
    1STR  C0S  11560   4.691  13.283  11.826
    1STR  C0T  11561   4.749  13.379  11.911
    1STR  C0U  11562   4.702  13.397  12.043
    1STR  C0V  11563   4.598  13.317  12.093
    1STR  C0W  11564   4.542  13.347  12.231
    1STR  C0X  11565   4.545  13.213  12.013
    1STR  N0Y  11566   4.451  13.123  12.063
    1STR  BCK2 11567   4.463  13.059  12.179
    1STR  O10  11568   4.377  12.981  12.217
    1STR  C13  11569   4.589  13.200  11.879
    1STR  C14  11570   4.608  13.390  10.015
    1STR  C15  11571   4.622  13.410   9.877
    1STR  C16  11572   4.573  13.317   9.784
    1STR  C17  11573   4.602  13.346   9.639
    1STR  H1B  11574   4.425  13.016   9.792
    1STR  H1C  11575   4.442  13.094  10.008
    1STR  H1D  11576   4.486  13.167  10.235
    1STR  H1E  11577   4.695  13.372  10.534
    1STR  H1F  11578   4.397  13.390  10.610
    1STR  H1G  11579   4.528  13.483  10.682
    1STR  H1H  11580   4.486  13.509  10.514
    1STR  H1I  11581   4.689  13.145  10.626
    1STR  H1J  11582   4.523  13.168  10.681
    1STR  H1K  11583   4.603  13.127  10.899
    1STR  H1M  11584   4.902  13.191  10.866
    1STR  H1N  11585   4.819  13.056  10.789
    1STR  H1O  11586   4.837  13.059  10.963
    1STR  H1P  11587   4.769  13.355  11.016
    1STR  H1Q  11588   4.594  13.343  11.021
    1STR  H1R  11589   4.758  13.355  11.254
    1STR  H1S  11590   4.550  13.354  11.395
    1STR  H1T  11591   4.488  13.216  11.306
    1STR  H1U  11592   4.505  13.372  11.227
    1STR  H1V  11593   4.855  13.136  11.324
    1STR  H1W  11594   4.698  13.077  11.369
    1STR  H1X  11595   4.821  13.329  11.673
    1STR  H1Y  11596   4.829  13.442  11.876
    1STR  H1Z  11597   4.746  13.473  12.105
    1STR  H20  11598   4.434  13.336  12.231
    1STR  H21  11599   4.583  13.279  12.306
    1STR  H22  11600   4.564  13.449  12.262
    1STR  H23  11601   4.374  13.094  12.005
    1STR  H27  11602   4.545  13.122  11.818
    1STR  H28  11603   4.649  13.466  10.078
    1STR  H29  11604   4.673  13.499   9.844
    1STR  H2A  11605   4.651  13.261   9.592
    1STR  H2B  11606   4.669  13.432   9.627
    1STR  H2C  11607   4.510  13.371   9.586
    1STR  BCK1 11608   4.373  13.109  13.987
    1STR  O03  11609   4.330  13.031  13.903
    1STR  N04  11610   4.327  13.130  14.113
    1STR  C05  11611   4.214  13.090  14.188
    1STR  C06  11612   4.224  13.095  14.331
    1STR  C07  11613   4.115  13.065  14.418
    1STR  N08  11614   4.130  13.076  14.559
    1STR  C09  11615   4.042  13.056  14.659
    1STR  O0A  11616   3.925  13.020  14.644
    1STR  O0B  11617   4.097  13.080  14.781
    1STR  C0C  11618   4.019  13.061  14.902
    1STR  C0D  11619   4.021  12.913  14.944
    1STR  C0E  11620   4.074  13.151  15.016
    1STR  O0F  11621   3.996  13.135  15.135
    1STR  C0G  11622   4.039  13.212  15.249
    1STR  C0H  11623   3.993  13.358  15.234
    1STR  C0I  11624   3.982  13.149  15.378
    1STR  O0J  11625   4.032  13.218  15.493
    1STR  C0K  11626   3.988  13.169  15.620
    1STR  C0M  11627   4.068  13.043  15.658
    1STR  C0N  11628   4.010  13.281  15.723
    1STR  O0O  11629   3.958  13.246  15.852
    1STR  C0P  11630   4.040  13.212  15.952
    1STR  O0Q  11631   4.162  13.202  15.943
    1STR  N0R  11632   3.969  13.191  16.063
    1STR  C0S  11633   4.006  13.151  16.192
    1STR  C0T  11634   3.903  13.132  16.286
    1STR  C0U  11635   3.932  13.087  16.416
    1STR  C0V  11636   4.064  13.060  16.456
    1STR  C0W  11637   4.084  13.002  16.595
    1STR  C0X  11638   4.171  13.084  16.365
    1STR  N0Y  11639   4.306  13.057  16.391
    1STR  BCK2 11640   4.383  13.064  16.501
    1STR  O10  11641   4.350  13.111  16.609
    1STR  C13  11642   4.140  13.128  16.234
    1STR  C14  11643   3.994  13.026  14.358
    1STR  C15  11644   3.980  13.021  14.219
    1STR  C16  11645   4.087  13.054  14.133
    1STR  C17  11646   4.057  13.054  13.985
    1STR  H1B  11647   4.392  13.185  14.166
    1STR  H1C  11648   4.318  13.124  14.375
    1STR  H1D  11649   4.220  13.103  14.595
    1STR  H1E  11650   3.916  13.091  14.883
    1STR  H1F  11651   4.122  12.878  14.964
    1STR  H1G  11652   3.962  12.898  15.034
    1STR  H1H  11653   3.977  12.850  14.866
    1STR  H1I  11654   4.071  13.255  14.983
    1STR  H1J  11655   4.178  13.126  15.036
    1STR  H1K  11656   4.148  13.208  15.256
    1STR  H1M  11657   3.885  13.364  15.225
    1STR  H1N  11658   4.037  13.406  15.147
    1STR  H1O  11659   4.023  13.416  15.322
    1STR  H1P  11660   3.873  13.153  15.376
    1STR  H1Q  11661   4.010  13.043  15.381
    1STR  H1R  11662   3.882  13.146  15.616
    1STR  H1S  11663   4.036  13.005  15.755
    1STR  H1T  11664   4.174  13.065  15.665
    1STR  H1U  11665   4.055  12.962  15.586
    1STR  H1V  11666   3.957  13.371  15.690
    1STR  H1W  11667   4.115  13.310  15.728
    1STR  H1X  11668   3.871  13.205  16.045
    1STR  H1Y  11669   3.800  13.149  16.260
    1STR  H1Z  11670   3.851  13.071  16.485
    1STR  H20  11671   4.164  12.928  16.596
    1STR  H21  11672   4.108  13.081  16.665
    1STR  H22  11673   3.994  12.952  16.630
    1STR  H23  11674   4.360  13.036  16.308
    1STR  H27  11675   4.220  13.145  16.164
    1STR  H28  11676   3.906  13.001  14.416
    1STR  H29  11677   3.885  12.992  14.177
    1STR  H2A  11678   4.103  13.140  13.935
    1STR  H2B  11679   3.950  13.061  13.966
    1STR  H2C  11680   4.093  12.962  13.939
    1STR  BCK1 11681   8.782   0.022   0.902
    1STR  O03  11682   8.886   0.051   0.844
    1STR  N04  11683   8.769  17.398   1.021
    1STR  C05  11684   8.863  17.338   1.106
    1STR  C06  11685   8.842  17.344   1.247
    1STR  C07  11686   8.932  17.283   1.340
    1STR  N08  11687   8.906  17.287   1.479
    1STR  C09  11688   8.979  17.243   1.583
    1STR  O0A  11689   9.090  17.190   1.573
    1STR  O0B  11690   8.918  17.263   1.702
    1STR  C0C  11691   8.985  17.225   1.823
    1STR  C0D  11692   9.083  17.335   1.866
    1STR  C0E  11693   8.882  17.195   1.934
    1STR  O0F  11694   8.951  17.152   2.051
    1STR  C0G  11695   8.867  17.127   2.164
    1STR  C0H  11696   8.803  16.987   2.152
    1STR  C0I  11697   8.953  17.136   2.291
    1STR  O0J  11698   8.866  17.125   2.402
    1STR  C0K  11699   8.927  17.125   2.529
    1STR  C0M  11700   8.957  17.269   2.574
    1STR  C0N  11701   8.825  17.055   2.621
    1STR  O0O  11702   8.879  17.035   2.749
    1STR  C0P  11703   8.851  17.116   2.850
    1STR  O0Q  11704   8.775  17.213   2.849
    1STR  N0R  11705   8.923  17.074   2.952
    1STR  C0S  11706   8.944  17.121   3.080
    1STR  C0T  11707   9.044  17.051   3.150
    1STR  C0U  11708   9.084  17.093   3.276
    1STR  C0V  11709   9.022  17.204   3.336
    1STR  C0W  11710   9.077  17.242   3.469
    1STR  C0X  11711   8.912  17.270   3.274
    1STR  N0Y  11712   8.837  17.370   3.339
    1STR  BCK2 11713   8.837  17.411   3.466
    1STR  O10  11714   8.755   0.052   3.506
    1STR  C13  11715   8.877  17.229   3.143
    1STR  C14  11716   9.045  17.217   1.287
    1STR  C15  11717   9.065  17.207   1.149
    1STR  C16  11718   8.974  17.263   1.058
    1STR  C17  11719   8.997  17.231   0.912
    1STR  H1B  11720   8.675  17.402   1.056
    1STR  H1C  11721   8.756  17.396   1.285
    1STR  H1D  11722   8.820  17.329   1.510
    1STR  H1E  11723   9.041  17.132   1.806
    1STR  H1F  11724   9.032  17.429   1.886
    1STR  H1G  11725   9.136  17.306   1.957
    1STR  H1H  11726   9.159  17.353   1.790
    1STR  H1I  11727   8.813  17.118   1.900
    1STR  H1J  11728   8.823  17.284   1.955
    1STR  H1K  11729   8.790  17.203   2.171
    1STR  H1M  11730   8.878  16.909   2.143
    1STR  H1N  11731   8.737  16.980   2.065
    1STR  H1O  11732   8.742  16.965   2.239
    1STR  H1P  11733   9.029  17.058   2.292
    1STR  H1Q  11734   9.006  17.232   2.293
    1STR  H1R  11735   9.019  17.066   2.528
    1STR  H1S  11736   9.006  17.270   2.671
    1STR  H1T  11737   8.865  17.327   2.583
    1STR  H1U  11738   9.023  17.321   2.505
    1STR  H1V  11739   8.801  16.957   2.580
    1STR  H1W  11740   8.730  17.110   2.625
    1STR  H1X  11741   8.976  16.994   2.924
    1STR  H1Y  11742   9.093  16.965   3.107
    1STR  H1Z  11743   9.163  17.040   3.327
    1STR  H20  11744   9.096  17.349   3.472
    1STR  H21  11745   8.999  17.208   3.536
    1STR  H22  11746   9.170  17.191   3.494
    1STR  H23  11747   8.763  17.414   3.286
    1STR  H27  11748   8.797  17.279   3.090
    1STR  H28  11749   9.119  17.170   1.349
    1STR  H29  11750   9.151  17.153   1.113
    1STR  H2A  11751   8.902  17.219   0.859
    1STR  H2B  11752   9.052  17.139   0.899
    1STR  H2C  11753   9.054  17.311   0.864
    1STR  BCK1 11754   8.788   0.038   5.262
    1STR  O03  11755   8.708   0.069   5.175
    1STR  N04  11756   8.787   0.074   5.393
    1STR  C05  11757   8.727   0.175   5.471
    1STR  C06  11758   8.731   0.159   5.613
    1STR  C07  11759   8.684   0.258   5.703
    1STR  N08  11760   8.695   0.239   5.843
    1STR  C09  11761   8.667   0.322   5.945
    1STR  O0A  11762   8.622   0.436   5.933
    1STR  O0B  11763   8.695   0.266   6.065
    1STR  C0C  11764   8.670   0.339   6.187
    1STR  C0D  11765   8.523   0.324   6.228
    1STR  C0E  11766   8.765   0.291   6.299
    1STR  O0F  11767   8.744   0.368   6.418
    1STR  C0G  11768   8.824   0.331   6.530
    1STR  C0H  11769   8.965   0.390   6.515
    1STR  C0I  11770   8.756   0.383   6.658
    1STR  O0J  11771   8.828   0.339   6.773
    1STR  C0K  11772   8.776   0.379   6.899
    1STR  C0M  11773   8.658   0.288   6.938
    1STR  C0N  11774   8.891   0.370   7.001
    1STR  O0O  11775   8.852   0.421   7.128
    1STR  C0P  11776   8.825   0.339   7.231
    1STR  O0Q  11777   8.826   0.216   7.224
    1STR  N0R  11778   8.798   0.411   7.340
    1STR  C0S  11779   8.766   0.372   7.470
    1STR  C0T  11780   8.726   0.473   7.560
    1STR  C0U  11781   8.688   0.440   7.691
    1STR  C0V  11782   8.689   0.307   7.737
    1STR  C0W  11783   8.631   0.281   7.875
    1STR  C0X  11784   8.737   0.204   7.651
    1STR  N0Y  11785   8.746   0.068   7.684
    1STR  BCK2 11786   8.775   0.003   7.797
    1STR  O10  11787   8.798   0.053   7.906
    1STR  C13  11788   8.772   0.239   7.518
    1STR  C14  11789   8.628   0.375   5.648
    1STR  C15  11790   8.622   0.393   5.509
    1STR  C16  11791   8.671   0.296   5.420
    1STR  C17  11792   8.665   0.331   5.273
    1STR  H1B  11793   8.844   0.011   5.446
    1STR  H1C  11794   8.773   0.068   5.653
    1STR  H1D  11795   8.731   0.151   5.876
    1STR  H1E  11796   8.691   0.445   6.170
    1STR  H1F  11797   8.497   0.220   6.247
    1STR  H1G  11798   8.502   0.381   6.319
    1STR  H1H  11799   8.456   0.362   6.151
    1STR  H1I  11800   8.868   0.303   6.265
    1STR  H1J  11801   8.749   0.185   6.318
    1STR  H1K  11802   8.829   0.222   6.538
    1STR  H1M  11803   8.962   0.498   6.506
    1STR  H1N  11804   9.017   0.350   6.428
    1STR  H1O  11805   9.026   0.366   6.602
    1STR  H1P  11806   8.750   0.492   6.656
    1STR  H1Q  11807   8.653   0.346   6.661
    1STR  H1R  11808   8.743   0.483   6.894
    1STR  H1S  11809   8.617   0.317   7.035
    1STR  H1T  11810   8.690   0.184   6.946
    1STR  H1U  11811   8.576   0.293   6.867
    1STR  H1V  11812   8.975   0.429   6.967
    1STR  H1W  11813   8.928   0.267   7.009
    1STR  H1X  11814   8.801   0.509   7.320
    1STR  H1Y  11815   8.723   0.576   7.530
    1STR  H1Z  11816   8.655   0.519   7.757
    1STR  H20  11817   8.576   0.187   7.876
    1STR  H21  11818   8.710   0.277   7.949
    1STR  H22  11819   8.561   0.359   7.905
    1STR  H23  11820   8.740   0.007   7.604
    1STR  H27  11821   8.805   0.161   7.452
    1STR  H28  11822   8.590   0.455   5.708
    1STR  H29  11823   8.580   0.485   5.471
    1STR  H2A  11824   8.759   0.310   5.223
    1STR  H2B  11825   8.644   0.437   5.257
    1STR  H2C  11826   8.584   0.275   5.225
    1STR  BCK1 11827   8.753  17.432   9.629
    1STR  O03  11828   8.789  17.341   9.555
    1STR  N04  11829   8.693  17.422   9.750
    1STR  C05  11830   8.642  17.315   9.828
    1STR  C06  11831   8.641  17.330   9.970
    1STR  C07  11832   8.589  17.231  10.058
    1STR  N08  11833   8.587  17.252  10.198
    1STR  C09  11834   8.547  17.171  10.299
    1STR  O0A  11835   8.504  17.057  10.285
    1STR  O0B  11836   8.561  17.231  10.421
    1STR  C0C  11837   8.528  17.159  10.542
    1STR  C0D  11838   8.646  17.069  10.584
    1STR  C0E  11839   8.489  17.256  10.656
    1STR  O0F  11840   8.455  17.185  10.775
    1STR  C0G  11841   8.421  17.266  10.888
    1STR  C0H  11842   8.277  17.318  10.874
    1STR  C0I  11843   8.436  17.182  11.017
    1STR  O0J  11844   8.412  17.264  11.132
    1STR  C0K  11845   8.423  17.200  11.259
    1STR  C0M  11846   8.571  17.186  11.298
    1STR  C0N  11847   8.347  17.285  11.362
    1STR  O0O  11848   8.341  17.222  11.490
    1STR  C0P  11849   8.418  17.264  11.591
    1STR  O0Q  11850   8.501  17.354  11.584
    1STR  N0R  11851   8.391  17.192  11.700
    1STR  C0S  11852   8.444  17.193  11.829
    1STR  C0T  11853   8.391  17.101  11.921
    1STR  C0U  11854   8.442  17.092  12.052
    1STR  C0V  11855   8.549  17.174  12.093
    1STR  C0W  11856   8.602  17.150  12.233
    1STR  C0X  11857   8.604  17.269  12.003
    1STR  N0Y  11858   8.716  17.351  12.028
    1STR  BCK2 11859   8.770  17.405  12.139
    1STR  O10  11860   8.718  17.412  12.250
    1STR  C13  11861   8.550  17.277  11.872
    1STR  C14  11862   8.537  17.113   9.999
    1STR  C15  11863   8.535  17.098   9.860
    1STR  C16  11864   8.583  17.198   9.773
    1STR  C17  11865   8.562  17.175   9.625
    1STR  H1B  11866   8.689   0.071   9.795
    1STR  H1C  11867   8.682  17.420  10.013
    1STR  H1D  11868   8.620  17.340  10.233
    1STR  H1E  11869   8.441  17.095  10.523
    1STR  H1F  11870   8.735  17.128  10.604
    1STR  H1G  11871   8.622  17.013  10.674
    1STR  H1H  11872   8.670  16.997  10.506
    1STR  H1I  11873   8.405  17.318  10.623
    1STR  H1J  11874   8.573  17.324  10.676
    1STR  H1K  11875   8.490  17.350  10.896
    1STR  H1M  11876   8.206  17.236  10.865
    1STR  H1N  11877   8.264  17.383  10.787
    1STR  H1O  11878   8.248  17.377  10.961
    1STR  H1P  11879   8.366  17.098  11.016
    1STR  H1Q  11880   8.536  17.140  11.021
    1STR  H1R  11881   8.376  17.101  11.255
    1STR  H1S  11882   8.582  17.138  11.395
    1STR  H1T  11883   8.619  17.284  11.305
    1STR  H1U  11884   8.628  17.126  11.226
    1STR  H1V  11885   8.244  17.299  11.328
    1STR  H1W  11886   8.389  17.386  11.369
    1STR  H1X  11887   8.318  17.125  11.681
    1STR  H1Y  11888   8.310  17.034  11.894
    1STR  H1Z  11889   8.400  17.020  12.120
    1STR  H20  11890   8.711  17.153  12.234
    1STR  H21  11891   8.563  17.226  12.300
    1STR  H22  11892   8.572  17.053  12.272
    1STR  H23  11893   8.762  17.383  11.945
    1STR  H27  11894   8.591  17.348  11.803
    1STR  H28  11895   8.496  17.033  10.057
    1STR  H29  11896   8.492  17.007   9.819
    1STR  H2A  11897   8.535  17.268   9.575
    1STR  H2B  11898   8.482  17.104   9.607
    1STR  H2C  11899   8.653  17.135   9.580
    1STR  BCK1 11900   8.773   0.016  13.972
    1STR  O03  11901   8.803   0.116  13.908
    1STR  N04  11902   8.809  17.425  14.098
    1STR  C05  11903   8.906   0.037  14.186
    1STR  C06  11904   8.883   0.026  14.327
    1STR  C07  11905   8.979   0.069  14.424
    1STR  N08  11906   8.956   0.052  14.563
    1STR  C09  11907   9.035   0.083  14.668
    1STR  O0A  11908   9.145   0.138  14.659
    1STR  O0B  11909   8.980   0.048  14.787
    1STR  C0C  11910   9.051   0.078  14.909
    1STR  C0D  11911   9.024   0.224  14.950
    1STR  C0E  11912   9.011  17.420  15.020
    1STR  O0F  11913   9.087   0.008  15.138
    1STR  C0G  11914   9.058  17.365  15.251
    1STR  C0H  11915   9.129  17.229  15.235
    1STR  C0I  11916   9.104  17.438  15.378
    1STR  O0J  11917   9.066  17.361  15.493
    1STR  C0K  11918   9.102  17.416  15.619
    1STR  C0M  11919   9.002   0.086  15.659
    1STR  C0N  11920   9.102  17.300  15.720
    1STR  O0O  11921   9.155  17.340  15.846
    1STR  C0P  11922   9.074  17.365  15.950
    1STR  O0Q  11923   8.952  17.358  15.948
    1STR  N0R  11924   9.148  17.399  16.055
    1STR  C0S  11925   9.113  17.438  16.185
    1STR  C0T  11926   9.215   0.052  16.266
    1STR  C0U  11927   9.186   0.104  16.393
    1STR  C0V  11928   9.055   0.098  16.445
    1STR  C0W  11929   9.024   0.170  16.575
    1STR  C0X  11930   8.955   0.030  16.371
    1STR  N0Y  11931   8.831   0.004  16.427
    1STR  BCK2 11932   8.814  17.387  16.546
    1STR  O10  11933   8.703  17.362  16.590
    1STR  C13  11934   8.983  17.426  16.240
    1STR  C14  11935   9.097   0.129  14.375
    1STR  C15  11936   9.122   0.139  14.238
    1STR  C16  11937   9.030   0.091  14.143
    1STR  C17  11938   9.076   0.093  13.999
    1STR  H1B  11939   8.751  17.352  14.136
    1STR  H1C  11940   8.791  17.422  14.362
    1STR  H1D  11941   8.871   0.009  14.592
    1STR  H1E  11942   9.158   0.066  14.892
    1STR  H1F  11943   8.918   0.242  14.969
    1STR  H1G  11944   9.079   0.249  15.041
    1STR  H1H  11945   9.056   0.294  14.873
    1STR  H1I  11946   9.032  17.318  14.986
    1STR  H1J  11947   8.905  17.427  15.040
    1STR  H1K  11948   8.950  17.349  15.259
    1STR  H1M  11949   9.237  17.243  15.226
    1STR  H1N  11950   9.095  17.174  15.148
    1STR  H1O  11951   9.111  17.166  15.323
    1STR  H1P  11952   9.212   0.012  15.376
    1STR  H1Q  11953   9.059   0.097  15.382
    1STR  H1R  11954   9.203   0.017  15.615
    1STR  H1S  11955   9.027   0.128  15.756
    1STR  H1T  11956   8.901   0.046  15.667
    1STR  H1U  11957   9.000   0.168  15.588
    1STR  H1V  11958   9.166  17.220  15.683
    1STR  H1W  11959   9.002  17.256  15.730
    1STR  H1X  11960   9.246  17.399  16.031
    1STR  H1Y  11961   9.317   0.058  16.230
    1STR  H1Z  11962   9.265   0.149  16.452
    1STR  H20  11963   8.925   0.215  16.570
    1STR  H21  11964   9.026   0.102  16.660
    1STR  H22  11965   9.095   0.250  16.594
    1STR  H23  11966   8.747   0.013  16.371
    1STR  H27  11967   8.904  17.379  16.183
    1STR  H28  11968   9.175   0.167  14.438
    1STR  H29  11969   9.215   0.182  14.205
    1STR  H2A  11970   9.047   0.001  13.948
    1STR  H2B  11971   9.184   0.102  13.991
    1STR  H2C  11972   9.033   0.179  13.947
    1STR  BCK1 11973   8.750   4.411   0.906
    1STR  O03  11974   8.676   4.368   0.819
    1STR  N04  11975   8.718   4.442   1.034
    1STR  C05  11976   8.600   4.461   1.109
    1STR  C06  11977   8.612   4.457   1.252
    1STR  C07  11978   8.503   4.484   1.340
    1STR  N08  11979   8.522   4.483   1.480
    1STR  C09  11980   8.437   4.512   1.581
    1STR  O0A  11981   8.319   4.545   1.567
    1STR  O0B  11982   8.496   4.501   1.703
    1STR  C0C  11983   8.422   4.527   1.824
    1STR  C0D  11984   8.344   4.401   1.865
    1STR  C0E  11985   8.516   4.574   1.937
    1STR  O0F  11986   8.442   4.602   2.056
    1STR  C0G  11987   8.520   4.643   2.169
    1STR  C0H  11988   8.560   4.791   2.155
    1STR  C0I  11989   8.438   4.621   2.298
    1STR  O0J  11990   8.517   4.652   2.413
    1STR  C0K  11991   8.454   4.635   2.540
    1STR  C0M  11992   8.454   4.486   2.578
    1STR  C0N  11993   8.532   4.718   2.644
    1STR  O0O  11994   8.469   4.716   2.772
    1STR  C0P  11995   8.521   4.644   2.873
    1STR  O0Q  11996   8.619   4.571   2.864
    1STR  N0R  11997   8.449   4.665   2.983
    1STR  C0S  11998   8.460   4.614   3.113
    1STR  C0T  11999   8.360   4.648   3.206
    1STR  C0U  12000   8.362   4.596   3.336
    1STR  C0V  12001   8.464   4.508   3.378
    1STR  C0W  12002   8.451   4.447   3.517
    1STR  C0X  12003   8.571   4.477   3.289
    1STR  N0Y  12004   8.677   4.390   3.318
    1STR  BCK2 12005   8.748   4.368   3.429
    1STR  O10  12006   8.739   4.430   3.535
    1STR  C13  12007   8.566   4.530   3.157
    1STR  C14  12008   8.378   4.512   1.281
    1STR  C15  12009   8.363   4.516   1.141
    1STR  C16  12010   8.472   4.493   1.055
    1STR  C17  12011   8.445   4.509   0.907
    1STR  H1B  12012   8.802   4.452   1.089
    1STR  H1C  12013   8.708   4.434   1.295
    1STR  H1D  12014   8.612   4.458   1.516
    1STR  H1E  12015   8.351   4.608   1.805
    1STR  H1F  12016   8.410   4.317   1.885
    1STR  H1G  12017   8.286   4.420   1.956
    1STR  H1H  12018   8.273   4.371   1.788
    1STR  H1I  12019   8.570   4.663   1.904
    1STR  H1J  12020   8.591   4.497   1.957
    1STR  H1K  12021   8.610   4.582   2.177
    1STR  H1M  12022   8.472   4.855   2.145
    1STR  H1N  12023   8.623   4.809   2.068
    1STR  H1O  12024   8.616   4.825   2.242
    1STR  H1P  12025   8.348   4.683   2.296
    1STR  H1Q  12026   8.405   4.517   2.302
    1STR  H1R  12027   8.351   4.672   2.536
    1STR  H1S  12028   8.406   4.470   2.675
    1STR  H1T  12029   8.555   4.447   2.586
    1STR  H1U  12030   8.399   4.424   2.507
    1STR  H1V  12031   8.535   4.822   2.611
    1STR  H1W  12032   8.636   4.686   2.649
    1STR  H1X  12033   8.373   4.729   2.965
    1STR  H1Y  12034   8.278   4.713   3.178
    1STR  H1Z  12035   8.282   4.621   3.404
    1STR  H20  12036   8.486   4.344   3.518
    1STR  H21  12037   8.508   4.505   3.589
    1STR  H22  12038   8.347   4.446   3.550
    1STR  H23  12039   8.713   4.342   3.237
    1STR  H27  12040   8.645   4.504   3.089
    1STR  H28  12041   8.290   4.533   1.339
    1STR  H29  12042   8.266   4.540   1.101
    1STR  H2A  12043   8.525   4.564   0.858
    1STR  H2B  12044   8.353   4.565   0.889
    1STR  H2C  12045   8.433   4.411   0.860
    1STR  BCK1 12046   8.784   4.365   5.267
    1STR  O03  12047   8.885   4.334   5.206
    1STR  N04  12048   8.741   4.315   5.385
    1STR  C05  12049   8.786   4.210   5.467
    1STR  C06  12050   8.771   4.222   5.609
    1STR  C07  12051   8.813   4.120   5.700
    1STR  N08  12052   8.793   4.135   5.839
    1STR  C09  12053   8.832   4.056   5.941
    1STR  O0A  12054   8.897   3.952   5.930
    1STR  O0B  12055   8.791   4.105   6.062
    1STR  C0C  12056   8.827   4.036   6.183
    1STR  C0D  12057   8.970   4.076   6.225
    1STR  C0E  12058   8.725   4.066   6.295
    1STR  O0F  12059   8.760   3.994   6.413
    1STR  C0G  12060   8.676   4.017   6.526
    1STR  C0H  12061   8.547   3.934   6.513
    1STR  C0I  12062   8.753   3.978   6.654
    1STR  O0J  12063   8.673   4.012   6.767
    1STR  C0K  12064   8.728   3.981   6.894
    1STR  C0M  12065   8.830   4.088   6.935
    1STR  C0N  12066   8.610   3.974   6.992
    1STR  O0O  12067   8.653   3.927   7.119
    1STR  C0P  12068   8.671   4.011   7.221
    1STR  O0Q  12069   8.652   4.132   7.220
    1STR  N0R  12070   8.713   3.940   7.325
    1STR  C0S  12071   8.747   3.973   7.455
    1STR  C0T  12072   8.784   3.865   7.537
    1STR  C0U  12073   8.822   3.887   7.670
    1STR  C0V  12074   8.824   4.016   7.724
    1STR  C0W  12075   8.872   4.028   7.866
    1STR  C0X  12076   8.784   4.128   7.645
    1STR  N0Y  12077   8.778   4.260   7.693
    1STR  BCK2 12078   8.818   4.312   7.809
    1STR  O10  12079   8.793   4.428   7.837
    1STR  C13  12080   8.746   4.104   7.510
    1STR  C14  12081   8.871   4.004   5.644
    1STR  C15  12082   8.883   3.989   5.505
    1STR  C16  12083   8.838   4.088   5.416
    1STR  C17  12084   8.841   4.054   5.268
    1STR  H1B  12085   8.665   4.368   5.424
    1STR  H1C  12086   8.728   4.312   5.649
    1STR  H1D  12087   8.743   4.215   5.871
    1STR  H1E  12088   8.825   3.928   6.165
    1STR  H1F  12089   8.977   4.183   6.245
    1STR  H1G  12090   8.999   4.023   6.316
    1STR  H1H  12091   9.042   4.050   6.148
    1STR  H1I  12092   8.626   4.037   6.261
    1STR  H1J  12093   8.723   4.173   6.315
    1STR  H1K  12094   8.651   4.123   6.533
    1STR  H1M  12095   8.569   3.827   6.504
    1STR  H1N  12096   8.488   3.963   6.426
    1STR  H1O  12097   8.483   3.947   6.600
    1STR  H1P  12098   8.776   3.872   6.653
    1STR  H1Q  12099   8.848   4.032   6.657
    1STR  H1R  12100   8.776   3.883   6.891
    1STR  H1S  12101   8.874   4.065   7.033
    1STR  H1T  12102   8.782   4.186   6.944
    1STR  H1U  12103   8.912   4.097   6.865
    1STR  H1V  12104   8.536   3.902   6.955
    1STR  H1W  12105   8.558   4.070   6.999
    1STR  H1X  12106   8.720   3.843   7.299
    1STR  H1Y  12107   8.784   3.764   7.500
    1STR  H1Z  12108   8.851   3.802   7.731
    1STR  H20  12109   8.967   4.081   7.863
    1STR  H21  12110   8.798   4.082   7.925
    1STR  H22  12111   8.888   3.932   7.914
    1STR  H23  12112   8.733   4.328   7.634
    1STR  H27  12113   8.717   4.187   7.448
    1STR  H28  12114   8.907   3.922   5.704
    1STR  H29  12115   8.926   3.897   5.467
    1STR  H2A  12116   8.755   4.096   5.217
    1STR  H2B  12117   8.839   3.946   5.253
    1STR  H2C  12118   8.932   4.092   5.222
    1STR  BCK1 12119   8.802   4.380   9.616
    1STR  O03  12120   8.732   4.441   9.536
    1STR  N04  12121   8.810   4.402   9.749
    1STR  C05  12122   8.817   4.516   9.831
    1STR  C06  12123   8.812   4.497   9.972
    1STR  C07  12124   8.828   4.603  10.065
    1STR  N08  12125   8.827   4.578  10.204
    1STR  C09  12126   8.848   4.662  10.308
    1STR  O0A  12127   8.871   4.782  10.298
    1STR  O0B  12128   8.841   4.598  10.427
    1STR  C0C  12129   8.860   4.672  10.549
    1STR  C0D  12130   8.727   4.739  10.590
    1STR  C0E  12131   8.914   4.581  10.660
    1STR  O0F  12132   8.937   4.657  10.778
    1STR  C0G  12133   8.985   4.583  10.890
    1STR  C0H  12134   9.136   4.557  10.875
    1STR  C0I  12135   8.955   4.664  11.018
    1STR  O0J  12136   8.993   4.587  11.132
    1STR  C0K  12137   8.971   4.650  11.258
    1STR  C0M  12138   8.823   4.636  11.298
    1STR  C0N  12139   9.063   4.580  11.360
    1STR  O0O  12140   9.060   4.646  11.486
    1STR  C0P  12141   8.992   4.593  11.589
    1STR  O0Q  12142   8.926   4.490  11.584
    1STR  N0R  12143   9.009   4.671  11.696
    1STR  C0S  12144   8.961   4.659  11.827
    1STR  C0T  12145   8.982   4.768  11.913
    1STR  C0U  12146   8.934   4.766  12.045
    1STR  C0V  12147   8.865   4.654  12.095
    1STR  C0W  12148   8.804   4.660  12.234
    1STR  C0X  12149   8.849   4.540  12.012
    1STR  N0Y  12150   8.789   4.424  12.059
    1STR  BCK2 12151   8.815   4.365  12.175
    1STR  O10  12152   8.756   4.264  12.210
    1STR  C13  12153   8.894   4.545  11.878
    1STR  C14  12154   8.846   4.733  10.013
    1STR  C15  12155   8.851   4.755   9.874
    1STR  C16  12156   8.838   4.649   9.783
    1STR  C17  12157   8.852   4.685   9.637
    1STR  H1B  12158   8.811   4.314   9.799
    1STR  H1C  12159   8.798   4.397  10.011
    1STR  H1D  12160   8.810   4.485  10.236
    1STR  H1E  12161   8.934   4.751  10.533
    1STR  H1F  12162   8.649   4.665  10.609
    1STR  H1G  12163   8.740   4.797  10.681
    1STR  H1H  12164   8.691   4.807  10.513
    1STR  H1I  12165   9.007   4.535  10.625
    1STR  H1J  12166   8.843   4.500  10.680
    1STR  H1K  12167   8.932   4.488  10.898
    1STR  H1M  12168   9.191   4.650  10.866
    1STR  H1N  12169   9.159   4.496  10.788
    1STR  H1O  12170   9.175   4.504  10.963
    1STR  H1P  12171   9.009   4.759  11.016
    1STR  H1Q  12172   8.849   4.687  11.021
    1STR  H1R  12173   8.999   4.755  11.254
    1STR  H1S  12174   8.804   4.682  11.395
    1STR  H1T  12175   8.794   4.531  11.306
    1STR  H1U  12176   8.756   4.684  11.227
    1STR  H1V  12177   9.166   4.584  11.324
    1STR  H1W  12178   9.039   4.474  11.368
    1STR  H1X  12179   9.065   4.750  11.674
    1STR  H1Y  12180   9.035   4.856  11.880
    1STR  H1Z  12181   8.949   4.852  12.109
    1STR  H20  12182   8.704   4.616  12.233
    1STR  H21  12183   8.865   4.606  12.306
    1STR  H22  12184   8.793   4.763  12.268
    1STR  H23  12185   8.726   4.372  11.999
    1STR  H27  12186   8.879   4.458  11.815
    1STR  H28  12187   8.858   4.820  10.075
    1STR  H29  12188   8.867   4.856   9.839
    1STR  H2A  12189   8.927   4.623   9.589
    1STR  H2B  12190   8.883   4.789   9.623
    1STR  H2C  12191   8.757   4.674   9.586
    1STR  BCK1 12192   8.734   4.371  13.988
    1STR  O03  12193   8.719   4.280  13.907
    1STR  N04  12194   8.680   4.382  14.112
    1STR  C05  12195   8.585   4.311  14.188
    1STR  C06  12196   8.592   4.321  14.330
    1STR  C07  12197   8.497   4.259  14.418
    1STR  N08  12198   8.507   4.276  14.558
    1STR  C09  12199   8.430   4.227  14.659
    1STR  O0A  12200   8.333   4.154  14.644
    1STR  O0B  12201   8.473   4.269  14.781
    1STR  C0C  12202   8.407   4.226  14.902
    1STR  C0D  12203   8.458   4.087  14.943
    1STR  C0E  12204   8.427   4.329  15.016
    1STR  O0F  12205   8.359   4.287  15.135
    1STR  C0G  12206   8.374   4.374  15.249
    1STR  C0H  12207   8.281   4.495  15.234
    1STR  C0I  12208   8.341   4.295  15.378
    1STR  O0J  12209   8.365   4.377  15.493
    1STR  C0K  12210   8.340   4.316  15.620
    1STR  C0M  12211   8.458   4.225  15.658
    1STR  C0N  12212   8.322   4.429  15.723
    1STR  O0O  12213   8.285   4.378  15.852
    1STR  C0P  12214   8.374   4.374  15.952
    1STR  O0Q  12215   8.492   4.406  15.943
    1STR  N0R  12216   8.314   4.329  16.063
    1STR  C0S  12217   8.362   4.303  16.192
    1STR  C0T  12218   8.271   4.251  16.286
    1STR  C0U  12219   8.313   4.218  16.415
    1STR  C0V  12220   8.447   4.233  16.455
    1STR  C0W  12221   8.484   4.184  16.593
    1STR  C0X  12222   8.541   4.289  16.363
    1STR  N0Y  12223   8.678   4.305  16.387
    1STR  BCK2 12224   8.751   4.333  16.497
    1STR  O10  12225   8.707   4.366  16.607
    1STR  C13  12226   8.496   4.322  16.233
    1STR  C14  12227   8.394   4.184  14.358
    1STR  C15  12228   8.384   4.174  14.218
    1STR  C16  12229   8.476   4.238  14.133
    1STR  C17  12230   8.447   4.229  13.984
    1STR  H1B  12231   8.723   4.458  14.162
    1STR  H1C  12232   8.672   4.378  14.374
    1STR  H1D  12233   8.581   4.332  14.594
    1STR  H1E  12234   8.299   4.219  14.882
    1STR  H1F  12235   8.565   4.088  14.963
    1STR  H1G  12236   8.408   4.052  15.034
    1STR  H1H  12237   8.439   4.013  14.866
    1STR  H1I  12238   8.389   4.425  14.983
    1STR  H1J  12239   8.533   4.341  15.036
    1STR  H1K  12240   8.477   4.407  15.256
    1STR  H1M  12241   8.176   4.464  15.225
    1STR  H1N  12242   8.305   4.556  15.147
    1STR  H1O  12243   8.288   4.560  15.321
    1STR  H1P  12244   8.238   4.261  15.376
    1STR  H1Q  12245   8.404   4.205  15.381
    1STR  H1R  12246   8.248   4.258  15.616
    1STR  H1S  12247   8.442   4.178  15.755
    1STR  H1T  12248   8.551   4.282  15.665
    1STR  H1U  12249   8.474   4.145  15.586
    1STR  H1V  12250   8.242   4.495  15.690
    1STR  H1W  12251   8.411   4.492  15.729
    1STR  H1X  12252   8.216   4.310  16.045
    1STR  H1Y  12253   8.167   4.235  16.260
    1STR  H1Z  12254   8.241   4.177  16.485
    1STR  H20  12255   8.583   4.139  16.595
    1STR  H21  12256   8.483   4.268  16.663
    1STR  H22  12257   8.414   4.110  16.631
    1STR  H23  12258   8.734   4.305  16.304
    1STR  H27  12259   8.567   4.363  16.163
    1STR  H28  12260   8.319   4.133  14.416
    1STR  H29  12261   8.302   4.117  14.177
    1STR  H2A  12262   8.467   4.324  13.935
    1STR  H2B  12263   8.343   4.204  13.965
    1STR  H2C  12264   8.508   4.151  13.939
    1STR  BCK1 12265   8.776   8.745   0.898
    1STR  O03  12266   8.863   8.811   0.840
    1STR  N04  12267   8.786   8.685   1.018
    1STR  C05  12268   8.894   8.665   1.106
    1STR  C06  12269   8.871   8.665   1.247
    1STR  C07  12270   8.975   8.643   1.342
    1STR  N08  12271   8.948   8.639   1.480
    1STR  C09  12272   9.031   8.623   1.585
    1STR  O0A  12273   9.153   8.610   1.576
    1STR  O0B  12274   8.966   8.621   1.704
    1STR  C0C  12275   9.042   8.609   1.826
    1STR  C0D  12276   9.097   8.746   1.868
    1STR  C0E  12277   8.956   8.546   1.937
    1STR  O0F  12278   9.034   8.529   2.055
    1STR  C0G  12279   8.965   8.476   2.168
    1STR  C0H  12280   8.953   8.323   2.154
    1STR  C0I  12281   9.043   8.513   2.295
    1STR  O0J  12282   8.967   8.470   2.408
    1STR  C0K  12283   9.026   8.493   2.536
    1STR  C0M  12284   9.003   8.639   2.578
    1STR  C0N  12285   8.959   8.394   2.633
    1STR  O0O  12286   9.023   8.392   2.760
    1STR  C0P  12287   8.970   8.457   2.864
    1STR  O0Q  12288   8.867   8.524   2.863
    1STR  N0R  12289   9.052   8.441   2.968
    1STR  C0S  12290   9.052   8.499   3.094
    1STR  C0T  12291   9.174   8.496   3.165
    1STR  C0U  12292   9.190   8.571   3.282
    1STR  C0V  12293   9.083   8.645   3.335
    1STR  C0W  12294   9.111   8.745   3.445
    1STR  C0X  12295   8.954   8.627   3.280
    1STR  N0Y  12296   8.841   8.668   3.350
    1STR  BCK2 12297   8.819   8.633   3.477
    1STR  O10  12298   8.713   8.660   3.532
    1STR  C13  12299   8.940   8.562   3.155
    1STR  C14  12300   9.105   8.623   1.291
    1STR  C15  12301   9.129   8.619   1.153
    1STR  C16  12302   9.025   8.636   1.060
    1STR  C17  12303   9.061   8.612   0.915
    1STR  H1B  12304   8.696   8.654   1.053
    1STR  H1C  12305   8.770   8.683   1.283
    1STR  H1D  12306   8.852   8.649   1.511
    1STR  H1E  12307   9.126   8.541   1.809
    1STR  H1F  12308   9.017   8.817   1.887
    1STR  H1G  12309   9.157   8.738   1.959
    1STR  H1H  12310   9.162   8.788   1.791
    1STR  H1I  12311   8.918   8.449   1.903
    1STR  H1J  12312   8.869   8.609   1.957
    1STR  H1K  12313   8.866   8.521   2.175
    1STR  H1M  12314   9.051   8.276   2.145
    1STR  H1N  12315   8.894   8.294   2.067
    1STR  H1O  12316   8.903   8.280   2.241
    1STR  H1P  12317   9.141   8.467   2.295
    1STR  H1Q  12318   9.058   8.621   2.299
    1STR  H1R  12319   9.133   8.472   2.533
    1STR  H1S  12320   9.047   8.660   2.676
    1STR  H1T  12321   8.896   8.661   2.586
    1STR  H1U  12322   9.046   8.711   2.508
    1STR  H1V  12323   8.968   8.293   2.592
    1STR  H1W  12324   8.852   8.413   2.641
    1STR  H1X  12325   9.129   8.382   2.943
    1STR  H1Y  12326   9.258   8.441   3.127
    1STR  H1Z  12327   9.287   8.573   3.331
    1STR  H20  12328   9.035   8.824   3.445
    1STR  H21  12329   9.113   8.698   3.543
    1STR  H22  12330   9.207   8.793   3.429
    1STR  H23  12331   8.761   8.705   3.301
    1STR  H27  12332   8.843   8.557   3.107
    1STR  H28  12333   9.191   8.608   1.354
    1STR  H29  12334   9.230   8.600   1.119
    1STR  H2A  12335   8.978   8.564   0.862
    1STR  H2B  12336   9.147   8.547   0.905
    1STR  H2C  12337   9.084   8.707   0.866
    1STR  BCK1 12338   8.776   8.769   5.265
    1STR  O03  12339   8.691   8.772   5.176
    1STR  N04  12340   8.763   8.806   5.394
    1STR  C05  12341   8.671   8.881   5.470
    1STR  C06  12342   8.679   8.869   5.613
    1STR  C07  12343   8.600   8.947   5.702
    1STR  N08  12344   8.616   8.934   5.842
    1STR  C09  12345   8.560   9.003   5.944
    1STR  O0A  12346   8.479   9.094   5.931
    1STR  O0B  12347   8.606   8.961   6.065
    1STR  C0C  12348   8.557   9.022   6.186
    1STR  C0D  12349   8.424   8.957   6.227
    1STR  C0E  12350   8.662   9.009   6.298
    1STR  O0F  12351   8.616   9.073   6.417
    1STR  C0G  12352   8.704   9.066   6.530
    1STR  C0H  12353   8.816   9.170   6.515
    1STR  C0I  12354   8.622   9.092   6.658
    1STR  O0J  12355   8.706   9.075   6.773
    1STR  C0K  12356   8.642   9.095   6.899
    1STR  C0M  12357   8.563   8.969   6.938
    1STR  C0N  12358   8.753   9.125   7.002
    1STR  O0O  12359   8.699   9.159   7.130
    1STR  C0P  12360   8.704   9.071   7.232
    1STR  O0Q  12361   8.746   8.956   7.224
    1STR  N0R  12362   8.654   9.129   7.341
    1STR  C0S  12363   8.638   9.080   7.472
    1STR  C0T  12364   8.567   9.162   7.563
    1STR  C0U  12365   8.541   9.118   7.693
    1STR  C0V  12366   8.586   8.991   7.738
    1STR  C0W  12367   8.541   8.946   7.875
    1STR  C0X  12368   8.664   8.910   7.651
    1STR  N0Y  12369   8.715   8.784   7.683
    1STR  BCK2 12370   8.769   8.736   7.796
    1STR  O10  12371   8.788   8.799   7.899
    1STR  C13  12372   8.687   8.956   7.518
    1STR  C14  12373   8.508   9.037   5.645
    1STR  C15  12374   8.497   9.051   5.506
    1STR  C16  12375   8.578   8.976   5.418
    1STR  C17  12376   8.561   9.006   5.270
    1STR  H1B  12377   8.838   8.768   5.448
    1STR  H1C  12378   8.749   8.799   5.655
    1STR  H1D  12379   8.680   8.864   5.876
    1STR  H1E  12380   8.540   9.128   6.168
    1STR  H1F  12381   8.435   8.850   6.246
    1STR  H1G  12382   8.385   9.003   6.318
    1STR  H1H  12383   8.348   8.970   6.150
    1STR  H1I  12384   8.755   9.056   6.264
    1STR  H1J  12385   8.684   8.904   6.318
    1STR  H1K  12386   8.746   8.966   6.537
    1STR  H1M  12387   8.776   9.271   6.506
    1STR  H1N  12388   8.879   9.151   6.428
    1STR  H1O  12389   8.882   9.169   6.602
    1STR  H1P  12390   8.579   9.192   6.656
    1STR  H1Q  12391   8.538   9.022   6.662
    1STR  H1R  12392   8.576   9.181   6.895
    1STR  H1S  12393   8.515   8.982   7.035
    1STR  H1T  12394   8.628   8.882   6.946
    1STR  H1U  12395   8.484   8.946   6.867
    1STR  H1V  12396   8.812   9.210   6.968
    1STR  H1W  12397   8.824   9.041   7.009
    1STR  H1X  12398   8.624   9.222   7.322
    1STR  H1Y  12399   8.530   9.259   7.533
    1STR  H1Z  12400   8.485   9.181   7.760
    1STR  H20  12401   8.523   8.839   7.877
    1STR  H21  12402   8.617   8.970   7.950
    1STR  H22  12403   8.449   8.995   7.905
    1STR  H23  12404   8.723   8.721   7.605
    1STR  H27  12405   8.743   8.893   7.451
    1STR  H28  12406   8.444   9.100   5.704
    1STR  H29  12407   8.427   9.122   5.467
    1STR  H2A  12408   8.658   9.014   5.221
    1STR  H2B  12409   8.509   9.099   5.254
    1STR  H2C  12410   8.503   8.926   5.223
    1STR  BCK1 12411   8.768   8.711   9.629
    1STR  O03  12412   8.835   8.634   9.561
    1STR  N04  12413   8.709   8.685   9.748
    1STR  C05  12414   8.695   8.569   9.828
    1STR  C06  12415   8.688   8.585   9.970
    1STR  C07  12416   8.670   8.475  10.059
    1STR  N08  12417   8.660   8.495  10.199
    1STR  C09  12418   8.651   8.406  10.300
    1STR  O0A  12419   8.650   8.284  10.287
    1STR  O0B  12420   8.642   8.468  10.421
    1STR  C0C  12421   8.636   8.389  10.542
    1STR  C0D  12422   8.778   8.346  10.584
    1STR  C0E  12423   8.566   8.469  10.655
    1STR  O0F  12424   8.558   8.389  10.775
    1STR  C0G  12425   8.498   8.454  10.888
    1STR  C0H  12426   8.345   8.453  10.874
    1STR  C0I  12427   8.542   8.380  11.016
    1STR  O0J  12428   8.492   8.450  11.130
    1STR  C0K  12429   8.524   8.393  11.257
    1STR  C0M  12430   8.667   8.430  11.297
    1STR  C0N  12431   8.421   8.448  11.359
    1STR  O0O  12432   8.436   8.386  11.486
    1STR  C0P  12433   8.495   8.450  11.587
    1STR  O0Q  12434   8.543   8.563  11.582
    1STR  N0R  12435   8.493   8.371  11.694
    1STR  C0S  12436   8.542   8.387  11.824
    1STR  C0T  12437   8.520   8.281  11.913
    1STR  C0U  12438   8.568   8.288  12.045
    1STR  C0V  12439   8.640   8.400  12.090
    1STR  C0W  12440   8.691   8.393  12.232
    1STR  C0X  12441   8.665   8.509  12.002
    1STR  N0Y  12442   8.747   8.620  12.031
    1STR  BCK2 12443   8.785   8.683  12.144
    1STR  O10  12444   8.727   8.679  12.252
    1STR  C13  12445   8.614   8.501  11.870
    1STR  C14  12446   8.659   8.346  10.001
    1STR  C15  12447   8.662   8.329   9.861
    1STR  C16  12448   8.676   8.439   9.774
    1STR  C17  12449   8.662   8.410   9.626
    1STR  H1B  12450   8.674   8.769   9.791
    1STR  H1C  12451   8.698   8.683  10.012
    1STR  H1D  12452   8.661   8.589  10.232
    1STR  H1E  12453   8.576   8.300  10.524
    1STR  H1F  12454   8.842   8.432  10.604
    1STR  H1G  12455   8.775   8.286  10.675
    1STR  H1H  12456   8.825   8.286  10.507
    1STR  H1I  12457   8.467   8.497  10.622
    1STR  H1J  12458   8.622   8.560  10.676
    1STR  H1K  12459   8.535   8.556  10.895
    1STR  H1M  12460   8.307   8.352  10.865
    1STR  H1N  12461   8.312   8.510  10.787
    1STR  H1O  12462   8.299   8.499  10.961
    1STR  H1P  12463   8.505   8.277  11.015
    1STR  H1Q  12464   8.651   8.375  11.020
    1STR  H1R  12465   8.513   8.284  11.254
    1STR  H1S  12466   8.693   8.388  11.394
    1STR  H1T  12467   8.679   8.539  11.305
    1STR  H1U  12468   8.741   8.394  11.226
    1STR  H1V  12469   8.320   8.427  11.324
    1STR  H1W  12470   8.427   8.557  11.366
    1STR  H1X  12471   8.447   8.284  11.673
    1STR  H1Y  12472   8.467   8.192  11.883
    1STR  H1Z  12473   8.551   8.205  12.111
    1STR  H20  12474   8.796   8.420  12.234
    1STR  H21  12475   8.633   8.461  12.294
    1STR  H22  12476   8.682   8.294  12.276
    1STR  H23  12477   8.778   8.670  11.949
    1STR  H27  12478   8.632   8.583  11.802
    1STR  H28  12479   8.646   8.257  10.060
    1STR  H29  12480   8.651   8.230   9.822
    1STR  H2A  12481   8.609   8.491   9.575
    1STR  H2B  12482   8.607   8.318   9.609
    1STR  H2C  12483   8.761   8.399   9.581
    1STR  BCK1 12484   8.781   8.728  13.971
    1STR  O03  12485   8.768   8.828  13.900
    1STR  N04  12486   8.816   8.724  14.101
    1STR  C05  12487   8.885   8.812  14.188
    1STR  C06  12488   8.868   8.795  14.329
    1STR  C07  12489   8.940   8.872  14.425
    1STR  N08  12490   8.926   8.849  14.564
    1STR  C09  12491   8.989   8.906  14.668
    1STR  O0A  12492   9.073   8.995  14.660
    1STR  O0B  12493   8.949   8.855  14.787
    1STR  C0C  12494   9.004   8.907  14.909
    1STR  C0D  12495   8.929   9.035  14.951
    1STR  C0E  12496   9.001   8.801  15.020
    1STR  O0F  12497   9.062   8.853  15.139
    1STR  C0G  12498   9.063   8.765  15.251
    1STR  C0H  12499   9.177   8.662  15.236
    1STR  C0I  12500   9.082   8.849  15.378
    1STR  O0J  12501   9.072   8.764  15.493
    1STR  C0K  12502   9.087   8.829  15.619
    1STR  C0M  12503   8.955   8.898  15.659
    1STR  C0N  12504   9.127   8.720  15.720
    1STR  O0O  12505   9.162   8.777  15.846
    1STR  C0P  12506   9.077   8.771  15.950
    1STR  O0Q  12507   8.965   8.721  15.947
    1STR  N0R  12508   9.134   8.829  16.055
    1STR  C0S  12509   9.088   8.850  16.186
    1STR  C0T  12510   9.166   8.933  16.269
    1STR  C0U  12511   9.123   8.963  16.400
    1STR  C0V  12512   9.004   8.909  16.451
    1STR  C0W  12513   8.955   8.955  16.588
    1STR  C0X  12514   8.930   8.817  16.373
    1STR  N0Y  12515   8.821   8.749  16.425
    1STR  BCK2 12516   8.823   8.684  16.541
    1STR  O10  12517   8.725   8.624  16.582
    1STR  C13  12518   8.970   8.792  16.239
    1STR  C14  12519   9.028   8.971  14.375
    1STR  C15  12520   9.047   8.988  14.238
    1STR  C16  12521   8.979   8.909  14.144
    1STR  C17  12522   9.019   8.930  13.999
    1STR  H1B  12523   8.782   8.640  14.145
    1STR  H1C  12524   8.799   8.720  14.365
    1STR  H1D  12525   8.860   8.779  14.594
    1STR  H1E  12526   9.109   8.933  14.893
    1STR  H1F  12527   8.823   9.015  14.969
    1STR  H1G  12528   8.971   9.077  15.042
    1STR  H1H  12529   8.935   9.112  14.873
    1STR  H1I  12530   9.055   8.713  14.986
    1STR  H1J  12531   8.898   8.771  15.040
    1STR  H1K  12532   8.967   8.713  15.259
    1STR  H1M  12533   9.274   8.712  15.226
    1STR  H1N  12534   9.164   8.598  15.149
    1STR  H1O  12535   9.182   8.597  15.323
    1STR  H1P  12536   9.178   8.900  15.376
    1STR  H1Q  12537   9.005   8.927  15.381
    1STR  H1R  12538   9.168   8.903  15.614
    1STR  H1S  12539   8.964   8.946  15.756
    1STR  H1T  12540   8.874   8.825  15.666
    1STR  H1U  12541   8.925   8.974  15.587
    1STR  H1V  12542   9.215   8.667  15.684
    1STR  H1W  12543   9.049   8.645  15.730
    1STR  H1X  12544   9.225   8.864  16.032
    1STR  H1Y  12545   9.258   8.976  16.234
    1STR  H1Z  12546   9.183   9.030  16.461
    1STR  H20  12547   8.846   8.965  16.587
    1STR  H21  12548   8.982   8.883  16.665
    1STR  H22  12549   8.996   9.052  16.615
    1STR  H23  12550   8.739   8.734  16.369
    1STR  H27  12551   8.911   8.724  16.180
    1STR  H28  12552   9.086   9.035  14.439
    1STR  H29  12553   9.118   9.063  14.205
    1STR  H2A  12554   9.038   8.834  13.951
    1STR  H2B  12555   9.110   8.989  13.990
    1STR  H2C  12556   8.941   8.984  13.946
    1STR  BCK1 12557   8.737  13.119   0.907
    1STR  O03  12558   8.680  13.052   0.821
    1STR  N04  12559   8.696  13.145   1.033
    1STR  C05  12560   8.577  13.126   1.109
    1STR  C06  12561   8.589  13.128   1.251
    1STR  C07  12562   8.477  13.119   1.339
    1STR  N08  12563   8.494  13.126   1.479
    1STR  C09  12564   8.403  13.125   1.580
    1STR  O0A  12565   8.282  13.116   1.565
    1STR  O0B  12566   8.463  13.136   1.702
    1STR  C0C  12567   8.383  13.135   1.822
    1STR  C0D  12568   8.352  12.990   1.864
    1STR  C0E  12569   8.455  13.211   1.936
    1STR  O0F  12570   8.376  13.212   2.056
    1STR  C0G  12571   8.435  13.277   2.169
    1STR  C0H  12572   8.421  13.430   2.154
    1STR  C0I  12573   8.365  13.228   2.298
    1STR  O0J  12574   8.429  13.285   2.413
    1STR  C0K  12575   8.376  13.246   2.540
    1STR  C0M  12576   8.427  13.106   2.578
    1STR  C0N  12577   8.421  13.352   2.643
    1STR  O0O  12578   8.363  13.329   2.772
    1STR  C0P  12579   8.436  13.278   2.872
    1STR  O0Q  12580   8.553  13.242   2.863
    1STR  N0R  12581   8.362  13.273   2.983
    1STR  C0S  12582   8.390  13.227   3.113
    1STR  C0T  12583   8.284  13.228   3.206
    1STR  C0U  12584   8.304  13.178   3.336
    1STR  C0V  12585   8.428  13.127   3.377
    1STR  C0W  12586   8.435  13.065   3.515
    1STR  C0X  12587   8.538  13.129   3.287
    1STR  N0Y  12588   8.666  13.078   3.313
    1STR  BCK2 12589   8.742  13.073   3.424
    1STR  O10  12590   8.716  13.126   3.532
    1STR  C13  12591   8.516  13.179   3.155
    1STR  C14  12592   8.350  13.106   1.279
    1STR  C15  12593   8.335  13.104   1.139
    1STR  C16  12594   8.446  13.116   1.054
    1STR  C17  12595   8.416  13.122   0.905
    1STR  H1B  12596   8.771  13.184   1.087
    1STR  H1C  12597   8.687  13.137   1.295
    1STR  H1D  12598   8.587  13.134   1.515
    1STR  H1E  12599   8.288  13.186   1.804
    1STR  H1F  12600   8.444  12.934   1.884
    1STR  H1G  12601   8.291  12.988   1.954
    1STR  H1H  12602   8.297  12.937   1.786
    1STR  H1I  12603   8.475  13.313   1.903
    1STR  H1J  12604   8.552  13.164   1.956
    1STR  H1K  12605   8.541  13.250   2.176
    1STR  H1M  12606   8.317  13.459   2.145
    1STR  H1N  12607   8.475  13.468   2.067
    1STR  H1O  12608   8.462  13.481   2.242
    1STR  H1P  12609   8.260  13.256   2.296
    1STR  H1Q  12610   8.370  13.119   2.301
    1STR  H1R  12611   8.267  13.247   2.536
    1STR  H1S  12612   8.388  13.076   2.675
    1STR  H1T  12613   8.536  13.105   2.585
    1STR  H1U  12614   8.397  13.030   2.506
    1STR  H1V  12615   8.389  13.451   2.611
    1STR  H1W  12616   8.530  13.357   2.649
    1STR  H1X  12617   8.269  13.308   2.966
    1STR  H1Y  12618   8.187  13.265   3.179
    1STR  H1Z  12619   8.220  13.178   3.405
    1STR  H20  12620   8.500  12.977   3.516
    1STR  H21  12621   8.473  13.138   3.587
    1STR  H22  12622   8.337  13.032   3.550
    1STR  H23  12623   8.715  13.047   3.231
    1STR  H27  12624   8.599  13.179   3.086
    1STR  H28  12625   8.259  13.098   1.337
    1STR  H29  12626   8.236  13.095   1.098
    1STR  H2A  12627   8.477  13.198   0.856
    1STR  H2B  12628   8.312  13.149   0.887
    1STR  H2C  12629   8.435  13.025   0.859
    1STR  BCK1 12630   8.784  13.096   5.265
    1STR  O03  12631   8.892  13.102   5.206
    1STR  N04  12632   8.759  13.036   5.383
    1STR  C05  12633   8.837  12.955   5.467
    1STR  C06  12634   8.818  12.963   5.608
    1STR  C07  12635   8.892  12.883   5.700
    1STR  N08  12636   8.868  12.892   5.839
    1STR  C09  12637   8.931  12.832   5.942
    1STR  O0A  12638   9.027  12.757   5.932
    1STR  O0B  12639   8.875  12.864   6.061
    1STR  C0C  12640   8.932  12.813   6.183
    1STR  C0D  12641   9.052  12.899   6.226
    1STR  C0E  12642   8.826  12.806   6.294
    1STR  O0F  12643   8.883  12.749   6.412
    1STR  C0G  12644   8.796  12.742   6.524
    1STR  C0H  12645   8.704  12.620   6.512
    1STR  C0I  12646   8.882  12.733   6.651
    1STR  O0J  12647   8.794  12.740   6.763
    1STR  C0K  12648   8.855  12.728   6.891
    1STR  C0M  12649   8.915  12.863   6.934
    1STR  C0N  12650   8.744  12.682   6.985
    1STR  O0O  12651   8.797  12.652   7.113
    1STR  C0P  12652   8.786  12.738   7.215
    1STR  O0Q  12653   8.728  12.846   7.214
    1STR  N0R  12654   8.850  12.683   7.317
    1STR  C0S  12655   8.874  12.722   7.447
    1STR  C0T  12656   8.948  12.630   7.522
    1STR  C0U  12657   8.982  12.658   7.655
    1STR  C0V  12658   8.942  12.778   7.715
    1STR  C0W  12659   8.990  12.799   7.856
    1STR  C0X  12660   8.863  12.873   7.644
    1STR  N0Y  12661   8.815  12.992   7.700
    1STR  BCK2 12662   8.835  13.046   7.821
    1STR  O10  12663   8.776  13.148   7.855
    1STR  C13  12664   8.830  12.843   7.508
    1STR  C14  12665   8.988  12.795   5.646
    1STR  C15  12666   9.005  12.782   5.507
    1STR  C16  12667   8.928  12.858   5.417
    1STR  C17  12668   8.943  12.824   5.270
    1STR  H1B  12669   8.668  13.060   5.419
    1STR  H1C  12670   8.746  13.033   5.646
    1STR  H1D  12671   8.793  12.951   5.871
    1STR  H1E  12672   8.967  12.711   6.166
    1STR  H1F  12673   9.022  13.002   6.245
    1STR  H1G  12674   9.098  12.860   6.317
    1STR  H1H  12675   9.129  12.900   6.149
    1STR  H1I  12676   8.742  12.745   6.260
    1STR  H1J  12677   8.787  12.906   6.315
    1STR  H1K  12678   8.737  12.834   6.531
    1STR  H1M  12679   8.761  12.528   6.504
    1STR  H1N  12680   8.638  12.627   6.425
    1STR  H1O  12681   8.639  12.611   6.599
    1STR  H1P  12682   8.940  12.641   6.652
    1STR  H1Q  12683   8.953  12.816   6.654
    1STR  H1R  12684   8.933  12.651   6.889
    1STR  H1S  12685   8.964  12.855   7.031
    1STR  H1T  12686   8.838  12.939   6.943
    1STR  H1U  12687   8.990  12.899   6.864
    1STR  H1V  12688   8.699  12.590   6.947
    1STR  H1W  12689   8.663  12.755   6.991
    1STR  H1X  12690   8.888  12.595   7.288
    1STR  H1Y  12691   8.982  12.537   7.480
    1STR  H1Z  12692   9.041  12.586   7.710
    1STR  H20  12693   9.054  12.888   7.854
    1STR  H21  12694   8.905  12.812   7.923
    1STR  H22  12695   9.050  12.717   7.893
    1STR  H23  12696   8.752  13.048   7.644
    1STR  H27  12697   8.772  12.913   7.450
    1STR  H28  12698   9.050  12.731   5.707
    1STR  H29  12699   9.077  12.711   5.471
    1STR  H2A  12700   8.848  12.834   5.218
    1STR  H2B  12701   8.977  12.721   5.257
    1STR  H2C  12702   9.016  12.890   5.224
    1STR  BCK1 12703   8.793  13.110   9.620
    1STR  O03  12704   8.720  13.158   9.533
    1STR  N04  12705   8.799  13.143   9.751
    1STR  C05  12706   8.762  13.254   9.830
    1STR  C06  12707   8.763  13.236   9.972
    1STR  C07  12708   8.740  13.342  10.064
    1STR  N08  12709   8.747  13.320  10.203
    1STR  C09  12710   8.737  13.407  10.306
    1STR  O0A  12711   8.717  13.528  10.295
    1STR  O0B  12712   8.753  13.345  10.426
    1STR  C0C  12713   8.744  13.422  10.547
    1STR  C0D  12714   8.597  13.439  10.589
    1STR  C0E  12715   8.827  13.355  10.659
    1STR  O0F  12716   8.822  13.434  10.778
    1STR  C0G  12717   8.893  13.381  10.890
    1STR  C0H  12718   9.043  13.408  10.875
    1STR  C0I  12719   8.837  13.446  11.017
    1STR  O0J  12720   8.899  13.387  11.132
    1STR  C0K  12721   8.856  13.438  11.258
    1STR  C0M  12722   8.722  13.375  11.298
    1STR  C0N  12723   8.967  13.404  11.359
    1STR  O0O  12724   8.941  13.465  11.486
    1STR  C0P  12725   8.896  13.391  11.589
    1STR  O0Q  12726   8.869  13.271  11.583
    1STR  N0R  12727   8.885  13.468  11.696
    1STR  C0S  12728   8.845  13.439  11.827
    1STR  C0T  12729   8.827  13.548  11.915
    1STR  C0U  12730   8.783  13.528  12.047
    1STR  C0V  12731   8.758  13.398  12.095
    1STR  C0W  12732   8.699  13.382  12.234
    1STR  C0X  12733   8.782  13.287  12.011
    1STR  N0Y  12734   8.763  13.157  12.057
    1STR  BCK2 12735   8.804  13.110  12.174
    1STR  O10  12736   8.768  12.999  12.213
    1STR  C13  12737   8.822  13.309  11.877
    1STR  C14  12738   8.711  13.469  10.009
    1STR  C15  12739   8.708  13.489   9.871
    1STR  C16  12740   8.734  13.384   9.781
    1STR  C17  12741   8.735  13.422   9.634
    1STR  H1B  12742   8.839  13.067   9.803
    1STR  H1C  12743   8.785  13.138  10.012
    1STR  H1D  12744   8.763  13.227  10.236
    1STR  H1E  12745   8.787  13.521  10.531
    1STR  H1F  12746   8.549  13.342  10.608
    1STR  H1G  12747   8.589  13.498  10.680
    1STR  H1H  12748   8.540  13.490  10.512
    1STR  H1I  12749   8.930  13.344  10.625
    1STR  H1J  12750   8.788  13.254  10.678
    1STR  H1K  12751   8.875  13.273  10.897
    1STR  H1M  12752   9.063  13.515  10.866
    1STR  H1N  12753   9.086  13.358  10.788
    1STR  H1O  12754   9.098  13.372  10.962
    1STR  H1P  12755   8.855  13.554  11.015
    1STR  H1Q  12756   8.729  13.432  11.021
    1STR  H1R  12757   8.847  13.547  11.253
    1STR  H1S  12758   8.689  13.412  11.395
    1STR  H1T  12759   8.731  13.266  11.306
    1STR  H1U  12760   8.643  13.397  11.227
    1STR  H1V  12761   9.062  13.444  11.324
    1STR  H1W  12762   8.981  13.296  11.367
    1STR  H1X  12763   8.910  13.563  11.675
    1STR  H1Y  12764   8.846  13.649  11.882
    1STR  H1Z  12765   8.768  13.614  12.111
    1STR  H20  12766   8.619  13.307  12.233
    1STR  H21  12767   8.775  13.350  12.305
    1STR  H22  12768   8.654  13.475  12.271
    1STR  H23  12769   8.718  13.089  11.997
    1STR  H27  12770   8.837  13.223  11.813
    1STR  H28  12771   8.691  13.555  10.070
    1STR  H29  12772   8.687  13.588   9.834
    1STR  H2A  12773   8.824  13.383   9.585
    1STR  H2B  12774   8.735  13.530   9.620
    1STR  H2C  12775   8.645  13.383   9.585
    1STR  BCK1 12776   8.744  13.077  13.989
    1STR  O03  12777   8.760  12.982  13.912
    1STR  N04  12778   8.685  13.076  14.111
    1STR  C05  12779   8.615  12.980  14.188
    1STR  C06  12780   8.618  12.994  14.330
    1STR  C07  12781   8.547  12.906  14.418
    1STR  N08  12782   8.549  12.926  14.558
    1STR  C09  12783   8.494  12.855  14.659
    1STR  O0A  12784   8.428  12.753  14.644
    1STR  O0B  12785   8.520  12.910  14.781
    1STR  C0C  12786   8.472  12.847  14.902
    1STR  C0D  12787   8.568  12.734  14.943
    1STR  C0E  12788   8.455  12.950  15.016
    1STR  O0F  12789   8.406  12.888  15.135
    1STR  C0G  12790   8.390  12.974  15.249
    1STR  C0H  12791   8.261  13.056  15.234
    1STR  C0I  12792   8.387  12.889  15.378
    1STR  O0J  12793   8.381  12.974  15.493
    1STR  C0K  12794   8.379  12.909  15.620
    1STR  C0M  12795   8.520  12.864  15.658
    1STR  C0N  12796   8.322  13.009  15.723
    1STR  O0O  12797   8.304  12.948  15.851
    1STR  C0P  12798   8.389  12.972  15.952
    1STR  O0Q  12799   8.489  13.042  15.944
    1STR  N0R  12800   8.347  12.909  16.062
    1STR  C0S  12801   8.400  12.899  16.191
    1STR  C0T  12802   8.329  12.821  16.284
    1STR  C0U  12803   8.379  12.803  16.414
    1STR  C0V  12804   8.501  12.861  16.455
    1STR  C0W  12805   8.550  12.827  16.594
    1STR  C0X  12806   8.574  12.943  16.363
    1STR  N0Y  12807   8.699  13.001  16.388
    1STR  BCK2 12808   8.762  13.046  16.497
    1STR  O10  12809   8.713  13.063  16.608
    1STR  C13  12810   8.521  12.960  16.233
    1STR  C14  12811   8.473  12.802  14.358
    1STR  C15  12812   8.467  12.788  14.219
    1STR  C16  12813   8.534  12.877  14.133
    1STR  C17  12814   8.510  12.859  13.984
    1STR  H1B  12815   8.700  13.163  14.158
    1STR  H1C  12816   8.675  13.073  14.373
    1STR  H1D  12817   8.600  13.005  14.593
    1STR  H1E  12818   8.373  12.803  14.883
    1STR  H1F  12819   8.668  12.772  14.963
    1STR  H1G  12820   8.533  12.684  15.034
    1STR  H1H  12821   8.576  12.658  14.866
    1STR  H1I  12822   8.386  13.028  14.983
    1STR  H1J  12823   8.551  12.998  15.036
    1STR  H1K  12824   8.476  13.041  15.256
    1STR  H1M  12825   8.174  12.991  15.225
    1STR  H1N  12826   8.263  13.122  15.147
    1STR  H1O  12827   8.245  13.119  15.322
    1STR  H1P  12828   8.301  12.822  15.376
    1STR  H1Q  12829   8.476  12.827  15.381
    1STR  H1R  12830   8.312  12.823  15.616
    1STR  H1S  12831   8.521  12.814  15.755
    1STR  H1T  12832   8.588  12.949  15.665
    1STR  H1U  12833   8.563  12.793  15.586
    1STR  H1V  12834   8.225  13.044  15.690
    1STR  H1W  12835   8.385  13.098  15.729
    1STR  H1X  12836   8.261  12.859  16.043
    1STR  H1Y  12837   8.237  12.773  16.258
    1STR  H1Z  12838   8.324  12.742  16.484
    1STR  H20  12839   8.658  12.810  16.595
    1STR  H21  12840   8.526  12.908  16.662
    1STR  H22  12841   8.503  12.737  16.633
    1STR  H23  12842   8.750  13.021  16.303
    1STR  H27  12843   8.575  13.022  16.163
    1STR  H28  12844   8.417  12.730  14.416
    1STR  H29  12845   8.407  12.708  14.178
    1STR  H2A  12846   8.501  12.955  13.935
    1STR  H2B  12847   8.417  12.804  13.966
    1STR  H2C  12848   8.591  12.803  13.939
    1STR  BCK1 12849  13.133   0.021   0.893
    1STR  O03  12850  13.187   0.113   0.833
    1STR  N04  12851  13.161  17.416   1.017
    1STR  C05  12852  13.268   0.001   1.106
    1STR  C06  12853  13.244  17.434   1.247
    1STR  C07  12854  13.347   0.013   1.343
    1STR  N08  12855  13.322   0.001   1.482
    1STR  C09  12856  13.406   0.014   1.587
    1STR  O0A  12857  13.524   0.044   1.579
    1STR  O0B  12858  13.344  17.431   1.706
    1STR  C0C  12859  13.420   0.005   1.828
    1STR  C0D  12860  13.425   0.154   1.870
    1STR  C0E  12861  13.360  17.357   1.939
    1STR  O0F  12862  13.440  17.369   2.058
    1STR  C0G  12863  13.394  17.294   2.170
    1STR  C0H  12864  13.435  17.147   2.155
    1STR  C0I  12865  13.454  17.355   2.298
    1STR  O0J  12866  13.400  17.289   2.412
    1STR  C0K  12867  13.448  17.334   2.539
    1STR  C0M  12868  13.374   0.023   2.579
    1STR  C0N  12869  13.422  17.220   2.639
    1STR  O0O  12870  13.483  17.247   2.765
    1STR  C0P  12871  13.410  17.289   2.869
    1STR  O0Q  12872  13.289  17.310   2.868
    1STR  N0R  12873  13.490  17.305   2.974
    1STR  C0S  12874  13.465  17.354   3.103
    1STR  C0T  12875  13.577  17.388   3.182
    1STR  C0U  12876  13.561   0.011   3.306
    1STR  C0V  12877  13.432   0.036   3.357
    1STR  C0W  12878  13.417   0.124   3.480
    1STR  C0X  12879  13.320  17.425   3.288
    1STR  N0Y  12880  13.194  17.425   3.347
    1STR  BCK2 12881  13.170  17.371   3.467
    1STR  O10  12882  13.056  17.367   3.512
    1STR  C13  12883  13.336  17.370   3.159
    1STR  C14  12884  13.476   0.044   1.294
    1STR  C15  12885  13.502   0.048   1.156
    1STR  C16  12886  13.401   0.023   1.062
    1STR  C17  12887  13.445   0.014   0.918
    1STR  H1B  12888  13.089  17.356   1.053
    1STR  H1C  12889  13.144  17.413   1.282
    1STR  H1D  12890  13.229  17.417   1.511
    1STR  H1E  12891  13.522  17.411   1.811
    1STR  H1F  12892  13.325   0.193   1.889
    1STR  H1G  12893  13.484   0.166   1.960
    1STR  H1H  12894  13.471   0.215   1.792
    1STR  H1I  12895  13.358  17.254   1.905
    1STR  H1J  12896  13.257  17.387   1.960
    1STR  H1K  12897  13.285  17.302   2.178
    1STR  H1M  12898  13.543  17.136   2.146
    1STR  H1N  12899  13.389  17.100   2.068
    1STR  H1O  12900  13.404  17.089   2.242
    1STR  H1P  12901  13.563  17.347   2.296
    1STR  H1Q  12902  13.431   0.022   2.301
    1STR  H1R  12903  13.555  17.352   2.534
    1STR  H1S  12904  13.408   0.059   2.676
    1STR  H1T  12905  13.266   0.006   2.587
    1STR  H1U  12906  13.390   0.104   2.508
    1STR  H1V  12907  13.466  17.128   2.601
    1STR  H1W  12908  13.315  17.199   2.649
    1STR  H1X  12909  13.585  17.282   2.951
    1STR  H1Y  12910  13.678  17.371   3.146
    1STR  H1Z  12911  13.648   0.042   3.362
    1STR  H20  12912  13.334   0.194   3.465
    1STR  H21  12913  13.397   0.067   3.570
    1STR  H22  12914  13.507   0.184   3.498
    1STR  H23  12915  13.112   0.008   3.293
    1STR  H27  12916  13.249  17.338   3.104
    1STR  H28  12917  13.561   0.062   1.357
    1STR  H29  12918  13.603   0.068   1.124
    1STR  H2A  12919  13.392  17.375   0.866
    1STR  H2B  12920  13.551  17.432   0.910
    1STR  H2C  12921  13.428   0.109   0.867
    1STR  BCK1 12922  13.120   0.053   5.266
    1STR  O03  12923  13.039   0.027   5.178
    1STR  N04  12924  13.095   0.088   5.395
    1STR  C05  12925  12.983   0.129   5.470
    1STR  C06  12926  12.994   0.122   5.612
    1STR  C07  12927  12.893   0.169   5.701
    1STR  N08  12928  12.911   0.164   5.841
    1STR  C09  12929  12.835   0.210   5.942
    1STR  O0A  12930  12.727   0.268   5.928
    1STR  O0B  12931  12.891   0.187   6.064
    1STR  C0C  12932  12.824   0.227   6.184
    1STR  C0D  12933  12.721   0.121   6.226
    1STR  C0E  12934  12.927   0.253   6.297
    1STR  O0F  12935  12.861   0.296   6.417
    1STR  C0G  12936  12.946   0.320   6.530
    1STR  C0H  12937  13.016   0.456   6.515
    1STR  C0I  12938  12.861   0.316   6.658
    1STR  O0J  12939  12.945   0.329   6.773
    1STR  C0K  12940  12.879   0.325   6.900
    1STR  C0M  12941  12.847   0.180   6.938
    1STR  C0N  12942  12.973   0.391   7.003
    1STR  O0O  12943  12.911   0.403   7.131
    1STR  C0P  12944  12.946   0.322   7.232
    1STR  O0Q  12945  13.025   0.229   7.224
    1STR  N0R  12946  12.880   0.358   7.343
    1STR  C0S  12947  12.881   0.306   7.473
    1STR  C0T  12948  12.789   0.360   7.565
    1STR  C0U  12949  12.780   0.309   7.695
    1STR  C0V  12950  12.863   0.203   7.738
    1STR  C0W  12951  12.837   0.146   7.876
    1STR  C0X  12952  12.961   0.152   7.650
    1STR  N0Y  12953  13.049   0.046   7.680
    1STR  BCK2 12954  13.116   0.014   7.792
    1STR  O10  12955  13.117   0.079   7.896
    1STR  C13  12956  12.967   0.203   7.518
    1STR  C14  12957  12.776   0.223   5.642
    1STR  C15  12958  12.763   0.231   5.503
    1STR  C16  12959  12.864   0.187   5.416
    1STR  C17  12960  12.840   0.209   5.268
    1STR  H1B  12961  13.179   0.079   5.449
    1STR  H1C  12962  13.083   0.079   5.655
    1STR  H1D  12963  12.995   0.120   5.876
    1STR  H1E  12964  12.772   0.322   6.166
    1STR  H1F  12965  12.768   0.025   6.245
    1STR  H1G  12966  12.668   0.151   6.317
    1STR  H1H  12967  12.646   0.107   6.148
    1STR  H1I  12968  12.998   0.328   6.264
    1STR  H1J  12969  12.983   0.161   6.317
    1STR  H1K  12970  13.020   0.240   6.537
    1STR  H1M  12971  12.944   0.537   6.506
    1STR  H1N  12972  13.082   0.459   6.428
    1STR  H1O  12973  13.078   0.477   6.602
    1STR  H1P  12974  12.786   0.395   6.656
    1STR  H1Q  12975  12.806   0.221   6.662
    1STR  H1R  12976  12.787   0.384   6.896
    1STR  H1S  12977  12.798   0.175   7.035
    1STR  H1T  12978  12.938   0.120   6.946
    1STR  H1U  12979  12.781   0.131   6.867
    1STR  H1V  12980  12.999   0.491   6.970
    1STR  H1W  12981  13.068   0.337   7.009
    1STR  H1X  12982  12.820   0.436   7.324
    1STR  H1Y  12983  12.722   0.440   7.536
    1STR  H1Z  12984  12.706   0.350   7.763
    1STR  H20  12985  12.852   0.038   7.877
    1STR  H21  12986  12.903   0.192   7.949
    1STR  H22  12987  12.734   0.164   7.909
    1STR  H23  12988  13.075  17.431   7.601
    1STR  H27  12989  13.040   0.162   7.450
    1STR  H28  12990  12.694   0.261   5.701
    1STR  H29  12991  12.672   0.274   5.463
    1STR  H2A  12992  12.929   0.247   5.219
    1STR  H2B  12993  12.761   0.281   5.251
    1STR  H2C  12994  12.810   0.115   5.221
    1STR  BCK1 12995  13.140  17.438   9.628
    1STR  O03  12996  13.231  17.387   9.564
    1STR  N04  12997  13.089  17.396   9.746
    1STR  C05  12998  13.112  17.283   9.827
    1STR  C06  12999  13.100  17.297   9.969
    1STR  C07  13000  13.118  17.188  10.059
    1STR  N08  13001  13.102  17.206  10.199
    1STR  C09  13002  13.123  17.120  10.301
    1STR  O0A  13003  13.165  17.005  10.289
    1STR  O0B  13004  13.094  17.176  10.421
    1STR  C0C  13005  13.115  17.101  10.543
    1STR  C0D  13006  13.263  17.109  10.585
    1STR  C0E  13007  13.022  17.151  10.655
    1STR  O0F  13008  13.041  17.074  10.774
    1STR  C0G  13009  12.963  17.114  10.887
    1STR  C0H  13010  12.819  17.061  10.873
    1STR  C0I  13011  13.030  17.060  11.015
    1STR  O0J  13012  12.959  17.109  11.128
    1STR  C0K  13013  13.007  17.067  11.255
    1STR  C0M  13014  13.129  17.150  11.296
    1STR  C0N  13015  12.891  17.084  11.355
    1STR  O0O  13016  12.924  17.030  11.481
    1STR  C0P  13017  12.959  17.109  11.583
    1STR  O0Q  13018  12.966  17.231  11.581
    1STR  N0R  13019  12.985  17.031  11.688
    1STR  C0S  13020  13.027  17.059  11.818
    1STR  C0T  13021  13.041  16.948  11.903
    1STR  C0U  13022  13.085  16.964  12.035
    1STR  C0V  13023  13.113  17.092  12.085
    1STR  C0W  13024  13.162  17.099  12.228
    1STR  C0X  13025  13.097  17.208  12.004
    1STR  N0Y  13026  13.116  17.339  12.049
    1STR  BCK2 13027  13.163  17.385  12.165
    1STR  O10  13028  13.155   0.064  12.192
    1STR  C13  13029  13.054  17.189  11.869
    1STR  C14  13030  13.151  17.063  10.002
    1STR  C15  13031  13.160  17.046   9.864
    1STR  C16  13032  13.137  17.154   9.775
    1STR  C17  13033  13.133  17.121   9.627
    1STR  H1B  13034  13.027   0.025   9.786
    1STR  H1C  13035  13.076  17.394  10.010
    1STR  H1D  13036  13.071  17.295  10.232
    1STR  H1E  13037  13.089  16.996  10.525
    1STR  H1F  13038  13.293  17.212  10.605
    1STR  H1G  13039  13.280  17.051  10.676
    1STR  H1H  13040  13.328  17.068  10.508
    1STR  H1I  13041  12.918  17.144  10.622
    1STR  H1J  13042  13.043  17.257  10.675
    1STR  H1K  13043  12.962  17.223  10.894
    1STR  H1M  13044  12.818  16.952  10.865
    1STR  H1N  13045  12.768  17.102  10.786
    1STR  H1O  13046  12.760  17.088  10.961
    1STR  H1P  13047  13.030  16.951  11.014
    1STR  H1Q  13048  13.134  17.092  11.018
    1STR  H1R  13049  13.033  16.961  11.252
    1STR  H1S  13050  13.167  17.119  11.393
    1STR  H1T  13051  13.103  17.256  11.304
    1STR  H1U  13052  13.211  17.142  11.225
    1STR  H1V  13053  12.803  17.030  11.318
    1STR  H1W  13054  12.860  17.189  11.362
    1STR  H1X  13055  12.971  16.935  11.664
    1STR  H1Y  13056  13.020  16.848  11.868
    1STR  H1Z  13057  13.096  16.878  12.098
    1STR  H20  13058  13.264  17.134  12.226
    1STR  H21  13059  13.098  17.166  12.284
    1STR  H22  13060  13.160  17.002  12.278
    1STR  H23  13061  13.085  17.414  11.988
    1STR  H27  13062  13.042  17.275  11.805
    1STR  H28  13063  13.169  16.975  10.062
    1STR  H29  13064  13.182  16.948   9.825
    1STR  H2A  13065  13.057  17.180   9.576
    1STR  H2B  13066  13.109  17.016   9.611
    1STR  H2C  13067  13.230  17.140   9.582
    1STR  BCK1 13068  13.170   0.017  13.973
    1STR  O03  13069  13.093   0.077  13.900
    1STR  N04  13070  13.173   0.029  14.107
    1STR  C05  13071  13.209   0.136  14.191
    1STR  C06  13072  13.199   0.117  14.332
    1STR  C07  13073  13.238   0.216  14.426
    1STR  N08  13074  13.231   0.191  14.565
    1STR  C09  13075  13.270   0.268  14.669
    1STR  O0A  13076  13.318   0.380  14.660
    1STR  O0B  13077  13.249   0.206  14.788
    1STR  C0C  13078  13.283   0.275  14.910
    1STR  C0D  13079  13.168   0.368  14.951
    1STR  C0E  13080  13.317   0.173  15.020
    1STR  O0F  13081  13.356   0.243  15.139
    1STR  C0G  13082  13.387   0.160  15.251
    1STR  C0H  13083  13.529   0.103  15.235
    1STR  C0I  13084  13.375   0.246  15.378
    1STR  O0J  13085  13.395   0.163  15.492
    1STR  C0K  13086  13.387   0.229  15.619
    1STR  C0M  13087  13.240   0.247  15.658
    1STR  C0N  13088  13.463   0.141  15.720
    1STR  O0O  13089  13.474   0.206  15.846
    1STR  C0P  13090  13.396   0.170  15.949
    1STR  O0Q  13091  13.309   0.084  15.945
    1STR  N0R  13092  13.430   0.243  16.056
    1STR  C0S  13093  13.380   0.243  16.187
    1STR  C0T  13094  13.425   0.345  16.272
    1STR  C0U  13095  13.377   0.355  16.404
    1STR  C0V  13096  13.285   0.262  16.454
    1STR  C0W  13097  13.226   0.283  16.593
    1STR  C0X  13098  13.245   0.153  16.372
    1STR  N0Y  13099  13.163   0.052  16.421
    1STR  BCK2 13100  13.180  17.429  16.537
    1STR  O10  13101  13.103  17.341  16.573
    1STR  C13  13102  13.290   0.147  16.238
    1STR  C14  13103  13.284   0.339  14.374
    1STR  C15  13104  13.295   0.360  14.237
    1STR  C16  13105  13.260   0.261  14.144
    1STR  C17  13106  13.282   0.294  13.998
    1STR  H1B  13107  13.144  17.384  14.153
    1STR  H1C  13108  13.162   0.023  14.369
    1STR  H1D  13109  13.195   0.103  14.596
    1STR  H1E  13110  13.373   0.335  14.894
    1STR  H1F  13111  13.076   0.313  14.970
    1STR  H1G  13112  13.193   0.423  15.042
    1STR  H1H  13113  13.148   0.442  14.874
    1STR  H1I  13114  13.398   0.109  14.986
    1STR  H1J  13115  13.230   0.109  15.040
    1STR  H1K  13116  13.315   0.079  15.259
    1STR  H1M  13117  13.603   0.183  15.226
    1STR  H1N  13118  13.538   0.038  15.149
    1STR  H1O  13119  13.556   0.043  15.323
    1STR  H1P  13120  13.448   0.327  15.376
    1STR  H1Q  13121  13.277   0.292  15.381
    1STR  H1R  13122  13.437   0.326  15.614
    1STR  H1S  13123  13.231   0.297  15.755
    1STR  H1T  13124  13.189   0.151  15.666
    1STR  H1U  13125  13.185   0.309  15.587
    1STR  H1V  13126  13.564   0.122  15.684
    1STR  H1W  13127  13.416   0.042  15.729
    1STR  H1X  13128  13.502   0.308  16.033
    1STR  H1Y  13129  13.496   0.419  16.238
    1STR  H1Z  13130  13.411   0.437  16.467
    1STR  H20  13131  13.120   0.259  16.593
    1STR  H21  13132  13.276   0.219  16.666
    1STR  H22  13133  13.236   0.386  16.625
    1STR  H23  13134  13.091   0.013  16.362
    1STR  H27  13135  13.257   0.065  16.177
    1STR  H28  13136  13.315   0.421  14.437
    1STR  H29  13137  13.333   0.455  14.202
    1STR  H2A  13138  13.345   0.218  13.951
    1STR  H2B  13139  13.333   0.389  13.985
    1STR  H2C  13140  13.187   0.301  13.946
    1STR  BCK1 13141  13.092   4.382   0.908
    1STR  O03  13142  13.059   4.298   0.825
    1STR  N04  13143  13.043   4.400   1.032
    1STR  C05  13144  12.935   4.347   1.108
    1STR  C06  13145  12.944   4.354   1.251
    1STR  C07  13146  12.840   4.311   1.338
    1STR  N08  13147  12.853   4.325   1.479
    1STR  C09  13148  12.768   4.293   1.579
    1STR  O0A  13149  12.657   4.242   1.564
    1STR  O0B  13150  12.819   4.325   1.701
    1STR  C0C  13151  12.745   4.296   1.822
    1STR  C0D  13152  12.766   4.150   1.863
    1STR  C0E  13153  12.787   4.392   1.936
    1STR  O0F  13154  12.712   4.366   2.055
    1STR  C0G  13155  12.745   4.448   2.169
    1STR  C0H  13156  12.680   4.586   2.154
    1STR  C0I  13157  12.696   4.378   2.298
    1STR  O0J  13158  12.737   4.453   2.412
    1STR  C0K  13159  12.700   4.398   2.540
    1STR  C0M  13160  12.795   4.284   2.578
    1STR  C0N  13161  12.706   4.513   2.643
    1STR  O0O  13162  12.659   4.471   2.771
    1STR  C0P  13163  12.745   4.448   2.872
    1STR  O0Q  13164  12.868   4.454   2.862
    1STR  N0R  13165  12.677   4.417   2.982
    1STR  C0S  13166  12.719   4.383   3.111
    1STR  C0T  13167  12.619   4.351   3.205
    1STR  C0U  13168  12.654   4.310   3.335
    1STR  C0V  13169  12.789   4.299   3.375
    1STR  C0W  13170  12.815   4.244   3.514
    1STR  C0X  13171  12.892   4.335   3.284
    1STR  N0Y  13172  13.030   4.325   3.309
    1STR  BCK2 13173  13.105   4.339   3.418
    1STR  O10  13174  13.069   4.379   3.528
    1STR  C13  13175  12.855   4.376   3.153
    1STR  C14  13176  12.724   4.258   1.278
    1STR  C15  13177  12.712   4.250   1.138
    1STR  C16  13178  12.814   4.296   1.053
    1STR  C17  13179  12.784   4.293   0.904
    1STR  H1B  13180  13.100   4.464   1.084
    1STR  H1C  13181  13.034   4.394   1.295
    1STR  H1D  13182  12.938   4.364   1.514
    1STR  H1E  13183  12.639   4.312   1.803
    1STR  H1F  13184  12.871   4.128   1.883
    1STR  H1G  13185  12.709   4.126   1.954
    1STR  H1H  13186  12.731   4.081   1.786
    1STR  H1I  13187  12.770   4.495   1.903
    1STR  H1J  13188  12.893   4.382   1.956
    1STR  H1K  13189  12.853   4.458   2.176
    1STR  H1M  13190  12.571   4.578   2.145
    1STR  H1N  13191  12.717   4.641   2.067
    1STR  H1O  13192  12.701   4.648   2.242
    1STR  H1P  13193  12.588   4.367   2.296
    1STR  H1Q  13194  12.738   4.277   2.301
    1STR  H1R  13195  12.597   4.362   2.536
    1STR  H1S  13196  12.769   4.242   2.675
    1STR  H1T  13197  12.898   4.320   2.585
    1STR  H1U  13198  12.793   4.202   2.506
    1STR  H1V  13199  12.642   4.595   2.610
    1STR  H1W  13200  12.807   4.555   2.648
    1STR  H1X  13201  12.578   4.420   2.965
    1STR  H1Y  13202  12.515   4.356   3.179
    1STR  H1Z  13203  12.576   4.285   3.405
    1STR  H20  13204  12.904   4.180   3.515
    1STR  H21  13205  12.830   4.326   3.583
    1STR  H22  13206  12.732   4.184   3.550
    1STR  H23  13207  13.085   4.313   3.225
    1STR  H27  13208  12.932   4.402   3.083
    1STR  H28  13209  12.640   4.222   1.336
    1STR  H29  13210  12.621   4.211   1.097
    1STR  H2A  13211  12.821   4.383   0.855
    1STR  H2B  13212  12.677   4.287   0.886
    1STR  H2C  13213  12.830   4.205   0.859
    1STR  BCK1 13214  13.140   4.384   5.261
    1STR  O03  13215  13.239   4.428   5.203
    1STR  N04  13216  13.136   4.320   5.380
    1STR  C05  13217  13.237   4.275   5.466
    1STR  C06  13218  13.215   4.278   5.607
    1STR  C07  13219  13.311   4.232   5.701
    1STR  N08  13220  13.285   4.233   5.840
    1STR  C09  13221  13.363   4.199   5.944
    1STR  O0A  13222  13.480   4.161   5.934
    1STR  O0B  13223  13.300   4.211   6.063
    1STR  C0C  13224  13.371   4.182   6.184
    1STR  C0D  13225  13.454   4.305   6.227
    1STR  C0E  13226  13.273   4.139   6.295
    1STR  O0F  13227  13.347   4.106   6.413
    1STR  C0G  13228  13.268   4.069   6.525
    1STR  C0H  13229  13.222   3.923   6.512
    1STR  C0I  13230  13.351   4.090   6.653
    1STR  O0J  13231  13.267   4.066   6.764
    1STR  C0K  13232  13.328   4.075   6.892
    1STR  C0M  13233  13.338   4.222   6.936
    1STR  C0N  13234  13.238   3.993   6.986
    1STR  O0O  13235  13.296   3.978   7.114
    1STR  C0P  13236  13.256   4.052   7.217
    1STR  O0Q  13237  13.170   4.139   7.216
    1STR  N0R  13238  13.330   4.016   7.321
    1STR  C0S  13239  13.345   4.067   7.449
    1STR  C0T  13240  13.455   4.016   7.520
    1STR  C0U  13241  13.493   4.075   7.641
    1STR  C0V  13242  13.420   4.182   7.694
    1STR  C0W  13243  13.489   4.261   7.803
    1STR  C0X  13244  13.295   4.218   7.637
    1STR  N0Y  13245  13.204   4.302   7.702
    1STR  BCK2 13246  13.188   4.316   7.833
    1STR  O10  13247  13.095   4.381   7.879
    1STR  C13  13248  13.261   4.164   7.511
    1STR  C14  13249  13.433   4.183   5.649
    1STR  C15  13250  13.455   4.175   5.511
    1STR  C16  13251  13.357   4.216   5.419
    1STR  C17  13252  13.385   4.187   5.273
    1STR  H1B  13253  13.042   4.311   5.415
    1STR  H1C  13254  13.122   4.318   5.644
    1STR  H1D  13255  13.194   4.263   5.870
    1STR  H1E  13256  13.439   4.098   6.167
    1STR  H1F  13257  13.391   4.391   6.246
    1STR  H1G  13258  13.510   4.283   6.318
    1STR  H1H  13259  13.526   4.332   6.150
    1STR  H1I  13260  13.216   4.053   6.261
    1STR  H1J  13261  13.203   4.220   6.316
    1STR  H1K  13262  13.180   4.134   6.533
    1STR  H1M  13263  13.308   3.855   6.504
    1STR  H1N  13264  13.159   3.907   6.426
    1STR  H1O  13265  13.165   3.892   6.600
    1STR  H1P  13266  13.437   4.022   6.653
    1STR  H1Q  13267  13.390   4.192   6.655
    1STR  H1R  13268  13.427   4.029   6.890
    1STR  H1S  13269  13.386   4.231   7.033
    1STR  H1T  13270  13.239   4.267   6.944
    1STR  H1U  13271  13.396   4.282   6.866
    1STR  H1V  13272  13.226   3.892   6.945
    1STR  H1W  13273  13.137   4.035   6.991
    1STR  H1X  13274  13.393   3.943   7.293
    1STR  H1Y  13275  13.516   3.937   7.480
    1STR  H1Z  13276  13.584   4.042   7.690
    1STR  H20  13277  13.452   4.363   7.809
    1STR  H21  13278  13.482   4.210   7.898
    1STR  H22  13279  13.595   4.269   7.781
    1STR  H23  13280  13.130   4.344   7.648
    1STR  H27  13281  13.172   4.197   7.459
    1STR  H28  13282  13.513   4.147   5.711
    1STR  H29  13283  13.548   4.134   5.475
    1STR  H2A  13284  13.293   4.161   5.220
    1STR  H2B  13285  13.453   4.103   5.261
    1STR  H2C  13286  13.431   4.274   5.225
    1STR  BCK1 13287  13.144   4.403   9.623
    1STR  O03  13288  13.061   4.423   9.535
    1STR  N04  13289  13.139   4.440   9.753
    1STR  C05  13290  13.065   4.532   9.831
    1STR  C06  13291  13.071   4.517   9.973
    1STR  C07  13292  13.011   4.610  10.063
    1STR  N08  13293  13.024   4.593  10.203
    1STR  C09  13294  12.985   4.672  10.305
    1STR  O0A  13295  12.924   4.778  10.292
    1STR  O0B  13296  13.020   4.620  10.425
    1STR  C0C  13297  12.986   4.690  10.546
    1STR  C0D  13298  12.841   4.655  10.588
    1STR  C0E  13299  13.086   4.655  10.658
    1STR  O0F  13300  13.054   4.727  10.778
    1STR  C0G  13301  13.139   4.702  10.890
    1STR  C0H  13302  13.271   4.779  10.875
    1STR  C0I  13303  13.064   4.744  11.018
    1STR  O0J  13304  13.142   4.710  11.133
    1STR  C0K  13305  13.085   4.743  11.259
    1STR  C0M  13306  12.980   4.637  11.298
    1STR  C0N  13307  13.200   4.749  11.362
    1STR  O0O  13308  13.154   4.794  11.489
    1STR  C0P  13309  13.139   4.708  11.591
    1STR  O0Q  13310  13.156   4.587  11.584
    1STR  N0R  13311  13.103   4.776  11.700
    1STR  C0S  13312  13.077   4.733  11.831
    1STR  C0T  13313  13.024   4.828  11.921
    1STR  C0U  13314  12.990   4.790  12.052
    1STR  C0V  13315  13.008   4.658  12.097
    1STR  C0W  13316  12.954   4.623  12.235
    1STR  C0X  13317  13.068   4.562  12.011
    1STR  N0Y  13318  13.094   4.428  12.044
    1STR  BCK2 13319  13.134   4.369  12.157
    1STR  O10  13320  13.158   4.425  12.263
    1STR  C13  13321  13.099   4.601  11.878
    1STR  C14  13322  12.940   4.718  10.006
    1STR  C15  13323  12.932   4.734   9.868
    1STR  C16  13324  12.994   4.644   9.779
    1STR  C17  13325  12.983   4.678   9.632
    1STR  H1B  13326  13.204   4.385   9.807
    1STR  H1C  13327  13.124   4.433  10.014
    1STR  H1D  13328  13.071   4.511  10.236
    1STR  H1E  13329  12.992   4.797  10.529
    1STR  H1F  13330  12.830   4.548  10.607
    1STR  H1G  13331  12.813   4.708  10.679
    1STR  H1H  13332  12.770   4.684  10.510
    1STR  H1I  13333  13.186   4.680  10.624
    1STR  H1J  13334  13.084   4.548  10.678
    1STR  H1K  13335  13.159   4.594  10.898
    1STR  H1M  13336  13.253   4.886  10.866
    1STR  H1N  13337  13.328   4.746  10.788
    1STR  H1O  13338  13.335   4.763  10.962
    1STR  H1P  13339  13.044   4.851  11.016
    1STR  H1Q  13340  12.968   4.694  11.021
    1STR  H1R  13341  13.038   4.842  11.255
    1STR  H1S  13342  12.936   4.660  11.395
    1STR  H1T  13343  13.026   4.538  11.306
    1STR  H1U  13344  12.898   4.631  11.227
    1STR  H1V  13345  13.275   4.819  11.327
    1STR  H1W  13346  13.250   4.652  11.369
    1STR  H1X  13347  13.093   4.874  11.681
    1STR  H1Y  13348  13.007   4.930  11.891
    1STR  H1Z  13349  12.947   4.864  12.118
    1STR  H20  13350  12.913   4.522  12.236
    1STR  H21  13351  13.032   4.631  12.310
    1STR  H22  13352  12.873   4.691  12.264
    1STR  H23  13353  13.093   4.366  11.965
    1STR  H27  13354  13.143   4.528  11.812
    1STR  H28  13355  12.891   4.793  10.067
    1STR  H29  13356  12.878   4.820   9.829
    1STR  H2A  13357  13.080   4.668   9.582
    1STR  H2B  13358  12.950   4.781   9.616
    1STR  H2C  13359  12.911   4.612   9.584
    1STR  BCK1 13360  13.119   4.350  13.989
    1STR  O03  13361  13.167   4.263  13.918
    1STR  N04  13362  13.058   4.335  14.109
    1STR  C05  13363  13.021   4.223  14.188
    1STR  C06  13364  13.018   4.238  14.330
    1STR  C07  13365  12.978   4.134  14.418
    1STR  N08  13366  12.973   4.155  14.558
    1STR  C09  13367  12.945   4.070  14.660
    1STR  O0A  13368  12.918   3.951  14.646
    1STR  O0B  13369  12.950   4.131  14.781
    1STR  C0C  13370  12.927   4.055  14.902
    1STR  C0D  13371  13.056   3.983  14.944
    1STR  C0E  13372  12.876   4.147  15.016
    1STR  O0F  13373  12.851   4.072  15.135
    1STR  C0G  13374  12.806   4.148  15.248
    1STR  C0H  13375  12.657   4.180  15.234
    1STR  C0I  13376  12.833   4.066  15.377
    1STR  O0J  13377  12.798   4.145  15.492
    1STR  C0K  13378  12.818   4.083  15.619
    1STR  C0M  13379  12.967   4.089  15.658
    1STR  C0N  13380  12.730   4.158  15.721
    1STR  O0O  13381  12.733   4.094  15.849
    1STR  C0P  13382  12.804   4.145  15.950
    1STR  O0Q  13383  12.875   4.244  15.943
    1STR  N0R  13384  12.786   4.069  16.058
    1STR  C0S  13385  12.838   4.076  16.188
    1STR  C0T  13386  12.796   3.978  16.279
    1STR  C0U  13387  12.847   3.976  16.410
    1STR  C0V  13388  12.942   4.070  16.452
    1STR  C0W  13389  12.995   4.053  16.593
    1STR  C0X  13390  12.986   4.172  16.363
    1STR  N0Y  13391  13.087   4.266  16.389
    1STR  BCK2 13392  13.136   4.324  16.500
    1STR  O10  13393  13.084   4.325  16.610
    1STR  C13  13394  12.933   4.173  16.231
    1STR  C14  13395  12.942   4.011  14.360
    1STR  C15  13396  12.941   3.994  14.220
    1STR  C16  13397  12.977   4.099  14.134
    1STR  C17  13398  12.958   4.074  13.985
    1STR  H1B  13399  13.042   4.423  14.154
    1STR  H1C  13400  13.048   4.333  14.372
    1STR  H1D  13401  12.994   4.247  14.593
    1STR  H1E  13402  12.849   3.981  14.883
    1STR  H1F  13403  13.137   4.053  14.964
    1STR  H1G  13404  13.040   3.924  15.034
    1STR  H1H  13405  13.089   3.914  14.866
    1STR  H1I  13406  12.784   4.197  14.982
    1STR  H1J  13407  12.949   4.226  15.035
    1STR  H1K  13408  12.864   4.240  15.256
    1STR  H1M  13409  12.597   4.089  15.225
    1STR  H1N  13410  12.636   4.243  15.147
    1STR  H1O  13411  12.621   4.234  15.321
    1STR  H1P  13412  12.775   3.974  15.375
    1STR  H1Q  13413  12.938   4.038  15.381
    1STR  H1R  13414  12.785   3.979  15.615
    1STR  H1S  13415  12.984   4.042  15.755
    1STR  H1T  13416  13.001   4.192  15.665
    1STR  H1U  13417  13.031   4.037  15.586
    1STR  H1V  13418  12.627   4.158  15.687
    1STR  H1W  13419  12.759   4.263  15.728
    1STR  H1X  13420  12.722   3.994  16.039
    1STR  H1Y  13421  12.725   3.902  16.250
    1STR  H1Z  13422  12.813   3.899  16.478
    1STR  H20  13423  13.102   4.065  16.595
    1STR  H21  13424  12.948   4.127  16.659
    1STR  H22  13425  12.973   3.955  16.634
    1STR  H23  13426  13.128   4.305  16.305
    1STR  H27  13427  12.965   4.249  16.163
    1STR  H28  13428  12.911   3.926  14.418
    1STR  H29  13429  12.910   3.899  14.180
    1STR  H2A  13430  12.921   4.164  13.935
    1STR  H2B  13431  12.886   3.995  13.967
    1STR  H2C  13432  13.053   4.045  13.940
    1STR  BCK1 13433  13.135   8.733   0.891
    1STR  O03  13434  13.149   8.835   0.825
    1STR  N04  13435  13.173   8.712   1.019
    1STR  C05  13436  13.260   8.779   1.107
    1STR  C06  13437  13.240   8.765   1.248
    1STR  C07  13438  13.328   8.823   1.344
    1STR  N08  13439  13.308   8.802   1.483
    1STR  C09  13440  13.382   8.844   1.588
    1STR  O0A  13441  13.483   8.913   1.580
    1STR  O0B  13442  13.332   8.802   1.707
    1STR  C0C  13443  13.397   8.842   1.829
    1STR  C0D  13444  13.351   8.982   1.870
    1STR  C0E  13445  13.372   8.738   1.940
    1STR  O0F  13446  13.442   8.776   2.058
    1STR  C0G  13447  13.425   8.690   2.171
    1STR  C0H  13448  13.514   8.566   2.156
    1STR  C0I  13449  13.461   8.769   2.298
    1STR  O0J  13450  13.433   8.688   2.413
    1STR  C0K  13451  13.462   8.747   2.539
    1STR  C0M  13452  13.348   8.843   2.579
    1STR  C0N  13453  13.477   8.632   2.640
    1STR  O0O  13454  13.524   8.680   2.766
    1STR  C0P  13455  13.440   8.693   2.870
    1STR  O0Q  13456  13.320   8.670   2.868
    1STR  N0R  13457  13.509   8.737   2.975
    1STR  C0S  13458  13.469   8.770   3.105
    1STR  C0T  13459  13.563   8.836   3.187
    1STR  C0U  13460  13.528   8.880   3.316
    1STR  C0V  13461  13.399   8.855   3.367
    1STR  C0W  13462  13.360   8.916   3.501
    1STR  C0X  13463  13.308   8.777   3.292
    1STR  N0Y  13464  13.188   8.734   3.346
    1STR  BCK2 13465  13.178   8.674   3.464
    1STR  O10  13466  13.070   8.636   3.508
    1STR  C13  13467  13.342   8.740   3.159
    1STR  C14  13468  13.436   8.899   1.295
    1STR  C15  13469  13.459   8.912   1.158
    1STR  C16  13470  13.375   8.851   1.064
    1STR  C17  13471  13.420   8.860   0.919
    1STR  H1B  13472  13.125   8.633   1.059
    1STR  H1C  13473  13.155   8.708   1.283
    1STR  H1D  13474  13.229   8.748   1.513
    1STR  H1E  13475  13.506   8.844   1.813
    1STR  H1F  13476  13.244   8.986   1.889
    1STR  H1G  13477  13.402   9.015   1.961
    1STR  H1H  13478  13.374   9.056   1.793
    1STR  H1I  13479  13.405   8.640   1.906
    1STR  H1J  13480  13.265   8.731   1.960
    1STR  H1K  13481  13.320   8.660   2.179
    1STR  H1M  13482  13.619   8.593   2.146
    1STR  H1N  13483  13.487   8.506   2.069
    1STR  H1O  13484  13.504   8.501   2.243
    1STR  H1P  13485  13.566   8.798   2.296
    1STR  H1Q  13486  13.402   8.861   2.301
    1STR  H1R  13487  13.556   8.802   2.534
    1STR  H1S  13488  13.367   8.888   2.676
    1STR  H1T  13489  13.253   8.790   2.587
    1STR  H1U  13490  13.335   8.924   2.508
    1STR  H1V  13491  13.551   8.561   2.603
    1STR  H1W  13492  13.384   8.576   2.650
    1STR  H1X  13493  13.606   8.751   2.952
    1STR  H1Y  13494  13.663   8.856   3.151
    1STR  H1Z  13495  13.600   8.933   3.375
    1STR  H20  13496  13.256   8.948   3.498
    1STR  H21  13497  13.373   8.846   3.582
    1STR  H22  13498  13.420   9.005   3.523
    1STR  H23  13499  13.104   8.734   3.291
    1STR  H27  13500  13.270   8.684   3.101
    1STR  H28  13501  13.507   8.948   1.359
    1STR  H29  13502  13.545   8.968   1.126
    1STR  H2A  13503  13.409   8.764   0.869
    1STR  H2B  13504  13.525   8.889   0.911
    1STR  H2C  13505  13.362   8.936   0.867
    1STR  BCK1 13506  13.104   8.767   5.267
    1STR  O03  13507  13.036   8.715   5.179
    1STR  N04  13508  13.069   8.797   5.394
    1STR  C05  13509  12.949   8.801   5.469
    1STR  C06  13510  12.961   8.799   5.612
    1STR  C07  13511  12.849   8.813   5.700
    1STR  N08  13512  12.868   8.815   5.840
    1STR  C09  13513  12.779   8.833   5.940
    1STR  O0A  13514  12.659   8.850   5.926
    1STR  O0B  13515  12.840   8.830   6.062
    1STR  C0C  13516  12.762   8.846   6.183
    1STR  C0D  13517  12.701   8.711   6.225
    1STR  C0E  13518  12.850   8.905   6.297
    1STR  O0F  13519  12.773   8.923   6.416
    1STR  C0G  13520  12.844   8.974   6.529
    1STR  C0H  13521  12.864   9.126   6.515
    1STR  C0I  13522  12.765   8.941   6.658
    1STR  O0J  13523  12.840   8.982   6.773
    1STR  C0K  13524  12.780   8.956   6.900
    1STR  C0M  13525  12.799   8.809   6.938
    1STR  C0N  13526  12.846   9.050   7.004
    1STR  O0O  13527  12.784   9.039   7.132
    1STR  C0P  13528  12.845   8.975   7.233
    1STR  O0Q  13529  12.951   8.915   7.224
    1STR  N0R  13530  12.771   8.986   7.343
    1STR  C0S  13531  12.789   8.936   7.473
    1STR  C0T  13532  12.685   8.957   7.566
    1STR  C0U  13533  12.694   8.906   7.696
    1STR  C0V  13534  12.806   8.831   7.738
    1STR  C0W  13535  12.801   8.769   7.876
    1STR  C0X  13536  12.915   8.813   7.648
    1STR  N0Y  13537  13.031   8.739   7.676
    1STR  BCK2 13538  13.105   8.723   7.787
    1STR  O10  13539  13.089   8.782   7.894
    1STR  C13  13540  12.904   8.865   7.517
    1STR  C14  13541  12.722   8.825   5.640
    1STR  C15  13542  12.707   8.827   5.501
    1STR  C16  13543  12.818   8.817   5.414
    1STR  C17  13544  12.789   8.830   5.266
    1STR  H1B  13545  13.150   8.818   5.448
    1STR  H1C  13546  13.059   8.788   5.655
    1STR  H1D  13547  12.961   8.802   5.875
    1STR  H1E  13548  12.681   8.917   6.165
    1STR  H1F  13549  12.778   8.636   6.244
    1STR  H1G  13550  12.641   8.722   6.315
    1STR  H1H  13551  12.636   8.672   6.147
    1STR  H1I  13552  12.891   9.000   6.263
    1STR  H1J  13553  12.934   8.838   6.316
    1STR  H1K  13554  12.941   8.925   6.537
    1STR  H1M  13555  12.768   9.177   6.505
    1STR  H1N  13556  12.924   9.152   6.428
    1STR  H1O  13557  12.915   9.167   6.602
    1STR  H1P  13558  12.668   8.990   6.656
    1STR  H1Q  13559  12.747   8.834   6.662
    1STR  H1R  13560  12.673   8.980   6.896
    1STR  H1S  13561  12.754   8.787   7.035
    1STR  H1T  13562  12.905   8.784   6.945
    1STR  H1U  13563  12.754   8.740   6.866
    1STR  H1V  13564  12.836   9.153   6.971
    1STR  H1W  13565  12.953   9.031   7.009
    1STR  H1X  13566  12.688   9.039   7.326
    1STR  H1Y  13567  12.597   9.012   7.538
    1STR  H1Z  13568  12.612   8.921   7.765
    1STR  H20  13569  12.848   8.671   7.877
    1STR  H21  13570  12.852   8.834   7.948
    1STR  H22  13571  12.698   8.756   7.911
    1STR  H23  13572  13.073   8.696   7.595
    1STR  H27  13573  12.985   8.849   7.448
    1STR  H28  13574  12.632   8.835   5.698
    1STR  H29  13575  12.608   8.838   5.460
    1STR  H2A  13576  12.863   8.893   5.217
    1STR  H2B  13577  12.692   8.875   5.248
    1STR  H2C  13578  12.789   8.731   5.220
    1STR  BCK1 13579  13.145   8.729   9.627
    1STR  O03  13580  13.250   8.712   9.566
    1STR  N04  13581  13.108   8.675   9.744
    1STR  C05  13582  13.167   8.577   9.827
    1STR  C06  13583  13.150   8.588   9.969
    1STR  C07  13584  13.205   8.493  10.060
    1STR  N08  13585  13.183   8.505  10.199
    1STR  C09  13586  13.232   8.433  10.302
    1STR  O0A  13587  13.310   8.339  10.291
    1STR  O0B  13588  13.185   8.476  10.422
    1STR  C0C  13589  13.230   8.413  10.543
    1STR  C0D  13590  13.366   8.472  10.586
    1STR  C0E  13591  13.125   8.429  10.654
    1STR  O0F  13592  13.169   8.362  10.773
    1STR  C0G  13593  13.082   8.374  10.885
    1STR  C0H  13594  12.965   8.275  10.872
    1STR  C0I  13595  13.163   8.346  11.013
    1STR  O0J  13596  13.079   8.370  11.125
    1STR  C0K  13597  13.138   8.346  11.253
    1STR  C0M  13598  13.225   8.465  11.295
    1STR  C0N  13599  13.021   8.324  11.350
    1STR  O0O  13600  13.069   8.283  11.477
    1STR  C0P  13601  13.076   8.369  11.579
    1STR  O0Q  13602  13.041   8.487  11.578
    1STR  N0R  13603  13.127   8.303  11.682
    1STR  C0S  13604  13.156   8.339  11.813
    1STR  C0T  13605  13.207   8.235  11.893
    1STR  C0U  13606  13.243   8.259  12.026
    1STR  C0V  13607  13.228   8.386  12.082
    1STR  C0W  13608  13.275   8.402  12.224
    1STR  C0X  13609  13.174   8.494  12.005
    1STR  N0Y  13610  13.152   8.623  12.056
    1STR  BCK2 13611  13.186   8.677  12.173
    1STR  O10  13612  13.148   8.790  12.203
    1STR  C13  13613  13.139   8.468  11.870
    1STR  C14  13614  13.279   8.386  10.005
    1STR  C15  13615  13.293   8.371   9.866
    1STR  C16  13616  13.235   8.463   9.777
    1STR  C17  13617  13.242   8.429   9.629
    1STR  H1B  13618  13.025   8.718   9.782
    1STR  H1C  13619  13.095   8.672  10.008
    1STR  H1D  13620  13.123   8.579  10.231
    1STR  H1E  13621  13.242   8.306  10.526
    1STR  H1F  13622  13.359   8.579  10.605
    1STR  H1G  13623  13.402   8.424  10.677
    1STR  H1H  13624  13.441   8.456  10.509
    1STR  H1I  13625  13.030   8.387  10.621
    1STR  H1J  13626  13.108   8.535  10.675
    1STR  H1K  13627  13.044   8.476  10.893
    1STR  H1M  13628  13.001   8.172  10.864
    1STR  H1N  13629  12.903   8.296  10.786
    1STR  H1O  13630  12.900   8.280  10.960
    1STR  H1P  13631  13.200   8.243  11.013
    1STR  H1Q  13632  13.251   8.412  11.016
    1STR  H1R  13633  13.198   8.255  11.250
    1STR  H1S  13634  13.271   8.448  11.392
    1STR  H1T  13635  13.165   8.556  11.304
    1STR  H1U  13636  13.306   8.485  11.224
    1STR  H1V  13637  12.958   8.243  11.313
    1STR  H1W  13638  12.957   8.412  11.357
    1STR  H1X  13639  13.146   8.208  11.655
    1STR  H1Y  13640  13.221   8.135  11.853
    1STR  H1Z  13641  13.282   8.178  12.085
    1STR  H20  13642  13.361   8.467  12.221
    1STR  H21  13643  13.196   8.443  12.286
    1STR  H22  13644  13.306   8.307  12.269
    1STR  H23  13645  13.100   8.687  11.998
    1STR  H27  13646  13.099   8.547  11.809
    1STR  H28  13647  13.325   8.310  10.065
    1STR  H29  13648  13.347   8.286   9.828
    1STR  H2A  13649  13.151   8.459   9.577
    1STR  H2B  13650  13.253   8.321   9.614
    1STR  H2C  13651  13.327   8.478   9.583
    1STR  BCK1 13652  13.156   8.742  13.978
    1STR  O03  13653  13.090   8.802  13.894
    1STR  N04  13654  13.167   8.770  14.109
    1STR  C05  13655  13.157   8.885  14.190
    1STR  C06  13656  13.154   8.866  14.332
    1STR  C07  13657  13.155   8.974  14.425
    1STR  N08  13658  13.157   8.950  14.564
    1STR  C09  13659  13.167   9.036  14.667
    1STR  O0A  13660  13.173   9.158  14.657
    1STR  O0B  13661  13.169   8.972  14.787
    1STR  C0C  13662  13.177   9.048  14.908
    1STR  C0D  13663  13.037   9.096  14.950
    1STR  C0E  13664  13.243   8.965  15.019
    1STR  O0F  13665  13.256   9.043  15.138
    1STR  C0G  13666  13.313   8.976  15.250
    1STR  C0H  13667  13.466   8.971  15.235
    1STR  C0I  13668  13.273   9.052  15.378
    1STR  O0J  13669  13.320   8.981  15.492
    1STR  C0K  13670  13.290   9.040  15.618
    1STR  C0M  13671  13.145   9.007  15.658
    1STR  C0N  13672  13.391   8.984  15.720
    1STR  O0O  13673  13.379   9.048  15.846
    1STR  C0P  13674  13.319   8.987  15.949
    1STR  O0Q  13675  13.267   8.876  15.944
    1STR  N0R  13676  13.325   9.065  16.056
    1STR  C0S  13677  13.279   9.047  16.187
    1STR  C0T  13678  13.286   9.158  16.274
    1STR  C0U  13679  13.238   9.148  16.406
    1STR  C0V  13680  13.185   9.028  16.455
    1STR  C0W  13681  13.124   9.026  16.595
    1STR  C0X  13682  13.184   8.913  16.372
    1STR  N0Y  13683  13.139   8.790  16.418
    1STR  BCK2 13684  13.171   8.734  16.534
    1STR  O10  13685  13.122   8.628  16.568
    1STR  C13  13686  13.228   8.925  16.238
    1STR  C14  13687  13.154   9.105  14.371
    1STR  C15  13688  13.156   9.126  14.233
    1STR  C16  13689  13.159   9.019  14.142
    1STR  C17  13690  13.168   9.057  13.996
    1STR  H1B  13691  13.187   8.686  14.161
    1STR  H1C  13692  13.154   8.765  14.371
    1STR  H1D  13693  13.153   8.855  14.596
    1STR  H1E  13694  13.240   9.136  14.892
    1STR  H1F  13695  12.969   9.013  14.968
    1STR  H1G  13696  13.041   9.156  15.041
    1STR  H1H  13697  12.992   9.159  14.873
    1STR  H1I  13698  13.341   8.932  14.985
    1STR  H1J  13699  13.184   8.875  15.039
    1STR  H1K  13700  13.273   8.875  15.258
    1STR  H1M  13701  13.509   9.071  15.226
    1STR  H1N  13702  13.497   8.913  15.148
    1STR  H1O  13703  13.512   8.924  15.322
    1STR  H1P  13704  13.314   9.154  15.376
    1STR  H1Q  13705  13.164   9.062  15.381
    1STR  H1R  13706  13.304   9.149  15.613
    1STR  H1S  13707  13.120   9.050  15.755
    1STR  H1T  13708  13.131   8.899  15.666
    1STR  H1U  13709  13.072   9.046  15.587
    1STR  H1V  13710  13.492   9.002  15.684
    1STR  H1W  13711  13.381   8.875  15.728
    1STR  H1X  13712  13.370   9.152  16.034
    1STR  H1Y  13713  13.326   9.252  16.241
    1STR  H1Z  13714  13.242   9.235  16.470
    1STR  H20  13715  13.031   8.969  16.594
    1STR  H21  13716  13.192   8.979  16.666
    1STR  H22  13717  13.101   9.126  16.630
    1STR  H23  13718  13.084   8.731  16.357
    1STR  H27  13719  13.224   8.837  16.175
    1STR  H28  13720  13.154   9.193  14.433
    1STR  H29  13721  13.158   9.228  14.197
    1STR  H2A  13722  13.248   9.002  13.947
    1STR  H2B  13723  13.188   9.163  13.982
    1STR  H2C  13724  13.073   9.036  13.946
    1STR  BCK1 13725  13.097  13.085   0.908
    1STR  O03  13726  13.094  12.991   0.829
    1STR  N04  13727  13.041  13.092   1.031
    1STR  C05  13728  12.954  13.010   1.108
    1STR  C06  13729  12.959  13.022   1.250
    1STR  C07  13730  12.873  12.950   1.338
    1STR  N08  13731  12.880  12.968   1.478
    1STR  C09  13732  12.811  12.910   1.579
    1STR  O0A  13733  12.724  12.824   1.564
    1STR  O0B  13734  12.848  12.957   1.701
    1STR  C0C  13735  12.787  12.905   1.822
    1STR  C0D  13736  12.857  12.775   1.863
    1STR  C0E  13737  12.793  13.010   1.936
    1STR  O0F  13738  12.732  12.960   2.055
    1STR  C0G  13739  12.735  13.047   2.169
    1STR  C0H  13740  12.626  13.155   2.154
    1STR  C0I  13741  12.714  12.965   2.298
    1STR  O0J  13742  12.726  13.049   2.413
    1STR  C0K  13743  12.710  12.986   2.540
    1STR  C0M  13744  12.839  12.911   2.578
    1STR  C0N  13745  12.676  13.095   2.643
    1STR  O0O  13746  12.646  13.040   2.771
    1STR  C0P  13747  12.734  13.047   2.872
    1STR  O0Q  13748  12.847  13.094   2.864
    1STR  N0R  13749  12.680  12.994   2.982
    1STR  C0S  13750  12.731  12.974   3.111
    1STR  C0T  13751  12.647  12.912   3.205
    1STR  C0U  13752  12.692  12.884   3.335
    1STR  C0V  13753  12.824  12.916   3.375
    1STR  C0W  13754  12.866  12.872   3.513
    1STR  C0X  13755  12.910  12.982   3.283
    1STR  N0Y  13756  13.045  13.014   3.307
    1STR  BCK2 13757  13.114  13.050   3.417
    1STR  O10  13758  13.068  13.075   3.528
    1STR  C13  13759  12.862  13.010   3.153
    1STR  C14  13760  12.780  12.862   1.278
    1STR  C15  13761  12.772  12.850   1.138
    1STR  C16  13762  12.855  12.924   1.053
    1STR  C17  13763  12.827  12.912   0.904
    1STR  H1B  13764  13.073  13.173   1.081
    1STR  H1C  13765  13.032  13.089   1.294
    1STR  H1D  13766  12.947  13.034   1.514
    1STR  H1E  13767  12.682  12.884   1.802
    1STR  H1F  13768  12.963  12.790   1.883
    1STR  H1G  13769  12.812  12.734   1.954
    1STR  H1H  13770  12.848  12.699   1.786
    1STR  H1I  13771  12.743  13.101   1.903
    1STR  H1J  13772  12.897  13.037   1.956
    1STR  H1K  13773  12.833  13.095   2.176
    1STR  H1M  13774  12.527  13.110   2.145
    1STR  H1N  13775  12.642  13.219   2.067
    1STR  H1O  13776  12.625  13.220   2.242
    1STR  H1P  13777  12.615  12.918   2.296
    1STR  H1Q  13778  12.787  12.885   2.301
    1STR  H1R  13779  12.626  12.916   2.536
    1STR  H1S  13780  12.828  12.863   2.675
    1STR  H1T  13781  12.923  12.980   2.585
    1STR  H1U  13782  12.865  12.834   2.506
    1STR  H1V  13783  12.588  13.151   2.610
    1STR  H1W  13784  12.757  13.169   2.649
    1STR  H1X  13785  12.586  12.963   2.964
    1STR  H1Y  13786  12.546  12.883   3.179
    1STR  H1Z  13787  12.626  12.835   3.405
    1STR  H20  13788  12.969  12.837   3.515
    1STR  H21  13789  12.856  12.956   3.582
    1STR  H22  13790  12.804  12.791   3.551
    1STR  H23  13791  13.099  13.023   3.223
    1STR  H27  13792  12.928  13.059   3.083
    1STR  H28  13793  12.711  12.802   1.336
    1STR  H29  13794  12.697  12.783   1.097
    1STR  H2A  13795  12.836  13.008   0.855
    1STR  H2B  13796  12.727  12.875   0.885
    1STR  H2C  13797  12.897  12.842   0.859
    1STR  BCK1 13798  13.135  13.104   5.256
    1STR  O03  13799  13.210  13.182   5.198
    1STR  N04  13800  13.152  13.049   5.378
    1STR  C05  13801  13.262  13.046   5.466
    1STR  C06  13802  13.238  13.044   5.607
    1STR  C07  13803  13.343  13.037   5.702
    1STR  N08  13804  13.316  13.030   5.841
    1STR  C09  13805  13.401  13.025   5.946
    1STR  O0A  13806  13.524  13.028   5.937
    1STR  O0B  13807  13.337  13.015   6.065
    1STR  C0C  13808  13.414  13.012   6.187
    1STR  C0D  13809  13.450  13.156   6.229
    1STR  C0E  13810  13.337  12.939   6.298
    1STR  O0F  13811  13.417  12.933   6.416
    1STR  C0G  13812  13.355  12.870   6.529
    1STR  C0H  13813  13.364  12.717   6.514
    1STR  C0I  13814  13.428  12.918   6.656
    1STR  O0J  13815  13.359  12.864   6.770
    1STR  C0K  13816  13.415  12.897   6.897
    1STR  C0M  13817  13.371  13.038   6.938
    1STR  C0N  13818  13.363  12.790   6.995
    1STR  O0O  13819  13.427  12.799   7.121
    1STR  C0P  13820  13.366  12.857   7.225
    1STR  O0Q  13821  13.254  12.907   7.224
    1STR  N0R  13822  13.449  12.855   7.329
    1STR  C0S  13823  13.439  12.911   7.456
    1STR  C0T  13824  13.558  12.923   7.530
    1STR  C0U  13825  13.561  12.993   7.652
    1STR  C0V  13826  13.443  13.047   7.705
    1STR  C0W  13827  13.453  13.140   7.825
    1STR  C0X  13828  13.319  13.017   7.643
    1STR  N0Y  13829  13.199  13.040   7.709
    1STR  BCK2 13830  13.174  12.994   7.832
    1STR  O10  13831  13.064  13.008   7.884
    1STR  C13  13832  13.318  12.956   7.516
    1STR  C14  13833  13.475  13.036   5.652
    1STR  C15  13834  13.501  13.035   5.514
    1STR  C16  13835  13.396  13.036   5.421
    1STR  C17  13836  13.435  13.017   5.276
    1STR  H1B  13837  13.068  13.006   5.413
    1STR  H1C  13838  13.136  13.047   5.642
    1STR  H1D  13839  13.221  13.027   5.871
    1STR  H1E  13840  13.506  12.957   6.170
    1STR  H1F  13841  13.361  13.216   6.248
    1STR  H1G  13842  13.510  13.156   6.320
    1STR  H1H  13843  13.509  13.206   6.151
    1STR  H1I  13844  13.312  12.838   6.264
    1STR  H1J  13845  13.242  12.990   6.318
    1STR  H1K  13846  13.251  12.901   6.536
    1STR  H1M  13847  13.467  12.684   6.505
    1STR  H1N  13848  13.309  12.681   6.427
    1STR  H1O  13849  13.321  12.668   6.601
    1STR  H1P  13850  13.532  12.885   6.655
    1STR  H1Q  13851  13.428  13.027   6.659
    1STR  H1R  13852  13.524  12.890   6.893
    1STR  H1S  13853  13.413  13.065   7.036
    1STR  H1T  13854  13.263  13.045   6.946
    1STR  H1U  13855  13.405  13.114   6.868
    1STR  H1V  13856  13.386  12.691   6.955
    1STR  H1W  13857  13.254  12.794   7.004
    1STR  H1X  13858  13.535  12.809   7.305
    1STR  H1Y  13859  13.651  12.883   7.492
    1STR  H1Z  13860  13.655  13.007   7.703
    1STR  H20  13861  13.363  13.200   7.837
    1STR  H21  13862  13.472  13.084   7.916
    1STR  H22  13863  13.536  13.209   7.811
    1STR  H23  13864  13.118  13.073   7.659
    1STR  H27  13865  13.224  12.940   7.465
    1STR  H28  13866  13.562  13.034   5.715
    1STR  H29  13867  13.603  13.031   5.481
    1STR  H2A  13868  13.362  12.956   5.223
    1STR  H2B  13869  13.531  12.967   5.267
    1STR  H2C  13870  13.444  13.114   5.227
    1STR  BCK1 13871  13.130  13.132   9.625
    1STR  O03  13872  13.046  13.123   9.537
    1STR  N04  13873  13.112  13.168   9.754
    1STR  C05  13874  13.011  13.231   9.830
    1STR  C06  13875  13.021  13.221   9.973
    1STR  C07  13876  12.932  13.288  10.062
    1STR  N08  13877  12.949  13.278  10.202
    1STR  C09  13878  12.885  13.339  10.303
    1STR  O0A  13879  12.792  13.418  10.290
    1STR  O0B  13880  12.935  13.303  10.424
    1STR  C0C  13881  12.879  13.357  10.545
    1STR  C0D  13882  12.755  13.275  10.587
    1STR  C0E  13883  12.984  13.359  10.658
    1STR  O0F  13884  12.930  13.416  10.777
    1STR  C0G  13885  13.018  13.421  10.890
    1STR  C0H  13886  13.116  13.539  10.875
    1STR  C0I  13887  12.933  13.435  11.018
    1STR  O0J  13888  13.018  13.430  11.133
    1STR  C0K  13889  12.953  13.441  11.260
    1STR  C0M  13890  12.891  13.306  11.298
    1STR  C0N  13891  13.059  13.485  11.363
    1STR  O0O  13892  13.001  13.511  11.490
    1STR  C0P  13893  13.017  13.425  11.592
    1STR  O0Q  13894  13.075  13.317  11.584
    1STR  N0R  13895  12.961  13.475  11.702
    1STR  C0S  13896  12.951  13.424  11.832
    1STR  C0T  13897  12.871  13.496  11.924
    1STR  C0U  13898  12.851  13.448  12.054
    1STR  C0V  13899  12.912  13.329  12.098
    1STR  C0W  13900  12.873  13.278  12.236
    1STR  C0X  13901  12.999  13.258  12.010
    1STR  N0Y  13902  13.065  13.139  12.042
    1STR  BCK2 13903  13.125  13.097  12.155
    1STR  O10  13904  13.137  13.162  12.258
    1STR  C13  13905  13.015  13.307  11.878
    1STR  C14  13906  12.829  13.365  10.004
    1STR  C15  13907  12.817  13.376   9.865
    1STR  C16  13908  12.907  13.312   9.777
    1STR  C17  13909  12.887  13.339   9.629
    1STR  H1B  13910  13.192  13.141   9.809
    1STR  H1C  13911  13.099  13.160  10.015
    1STR  H1D  13912  13.021  13.217  10.236
    1STR  H1E  13913  12.848  13.460  10.528
    1STR  H1F  13914  12.780  13.171  10.606
    1STR  H1G  13915  12.710  13.316  10.677
    1STR  H1H  13916  12.678  13.278  10.509
    1STR  H1I  13917  13.070  13.417  10.624
    1STR  H1J  13918  13.020  13.258  10.677
    1STR  H1K  13919  13.073  13.327  10.897
    1STR  H1M  13920  13.062  13.633  10.866
    1STR  H1N  13921  13.180  13.528  10.788
    1STR  H1O  13922  13.181  13.546  10.962
    1STR  H1P  13923  12.878  13.529  11.016
    1STR  H1Q  13924  12.860  13.355  11.022
    1STR  H1R  13925  12.876  13.518  11.255
    1STR  H1S  13926  12.842  13.312  11.395
    1STR  H1T  13927  12.967  13.228  11.306
    1STR  H1U  13928  12.816  13.272  11.227
    1STR  H1V  13929  13.106  13.578  11.329
    1STR  H1W  13930  13.140  13.412  11.369
    1STR  H1X  13931  12.918  13.564  11.683
    1STR  H1Y  13932  12.821  13.587  11.894
    1STR  H1Z  13933  12.787  13.504  12.121
    1STR  H20  13934  12.868  13.169  12.237
    1STR  H21  13935  12.946  13.310  12.310
    1STR  H22  13936  12.776  13.315  12.267
    1STR  H23  13937  13.079  13.077  11.964
    1STR  H27  13938  13.079  13.252  11.811
    1STR  H28  13939  12.757  13.419  10.063
    1STR  H29  13940  12.738  13.438   9.825
    1STR  H2A  13941  12.982  13.360   9.580
    1STR  H2B  13942  12.823  13.426   9.613
    1STR  H2C  13943  12.839  13.254   9.582
    1STR  BCK1 13944  13.133  13.073  13.989
    1STR  O03  13945  13.211  13.005  13.923
    1STR  N04  13946  13.077  13.041  14.108
    1STR  C05  13947  13.076  12.925  14.188
    1STR  C06  13948  13.068  12.940  14.330
    1STR  C07  13949  13.063  12.828  14.419
    1STR  N08  13950  13.051  12.848  14.559
    1STR  C09  13951  13.053  12.759  14.660
    1STR  O0A  13952  13.069  12.638  14.648
    1STR  O0B  13953  13.037  12.819  14.781
    1STR  C0C  13954  13.041  12.741  14.902
    1STR  C0D  13955  13.187  12.717  14.944
    1STR  C0E  13956  12.961  12.810  15.015
    1STR  O0F  13957  12.963  12.731  15.134
    1STR  C0G  13958  12.896  12.787  15.247
    1STR  C0H  13959  12.744  12.766  15.233
    1STR  C0I  13960  12.949  12.719  15.376
    1STR  O0J  13961  12.890  12.782  15.489
    1STR  C0K  13962  12.929  12.730  15.616
    1STR  C0M  13963  13.066  12.786  15.657
    1STR  C0N  13964  12.819  12.771  15.717
    1STR  O0O  13965  12.841  12.711  15.844
    1STR  C0P  13966  12.892  12.781  15.945
    1STR  O0Q  13967  12.925  12.899  15.941
    1STR  N0R  13968  12.902  12.701  16.051
    1STR  C0S  13969  12.951  12.722  16.180
    1STR  C0T  13970  12.942  12.612  16.268
    1STR  C0U  13971  12.988  12.622  16.399
    1STR  C0V  13972  13.045  12.742  16.446
    1STR  C0W  13973  13.089  12.743  16.590
    1STR  C0X  13974  13.056  12.855  16.360
    1STR  N0Y  13975  13.104  12.980  16.402
    1STR  BCK2 13976  13.153  13.013  16.521
    1STR  O10  13977  13.126  13.121  16.572
    1STR  C13  13978  13.007  12.843  16.227
    1STR  C14  13979  13.069  12.700  14.361
    1STR  C15  13980  13.074  12.683  14.222
    1STR  C16  13981  13.074  12.793  14.135
    1STR  C17  13982  13.064  12.762  13.986
    1STR  H1B  13983  13.031  13.120  14.149
    1STR  H1C  13984  13.064  13.039  14.371
    1STR  H1D  13985  13.039  12.942  14.592
    1STR  H1E  13986  12.994  12.644  14.884
    1STR  H1F  13987  13.239  12.811  14.964
    1STR  H1G  13988  13.192  12.657  15.035
    1STR  H1H  13989  13.242  12.664  14.867
    1STR  H1I  13990  12.859  12.826  14.982
    1STR  H1J  13991  13.004  12.909  15.035
    1STR  H1K  13992  12.918  12.893  15.255
    1STR  H1M  13993  12.720  12.660  15.224
    1STR  H1N  13994  12.703  12.817  15.147
    1STR  H1O  13995  12.692  12.804  15.321
    1STR  H1P  13996  12.926  12.613  15.374
    1STR  H1Q  13997  13.058  12.729  15.379
    1STR  H1R  13998  12.932  12.621  15.613
    1STR  H1S  13999  13.097  12.748  15.754
    1STR  H1T  14000  13.063  12.895  15.665
    1STR  H1U  14001  13.144  12.760  15.586
    1STR  H1V  14002  12.722  12.737  15.681
    1STR  H1W  14003  12.811  12.880  15.724
    1STR  H1X  14004  12.866  12.610  16.029
    1STR  H1Y  14005  12.898  12.519  16.236
    1STR  H1Z  14006  12.979  12.538  16.465
    1STR  H20  14007  13.196  12.765  16.595
    1STR  H21  14008  13.033  12.819  16.645
    1STR  H22  14009  13.074  12.648  16.641
    1STR  H23  14010  13.086  13.059  16.342
    1STR  H27  14011  13.013  12.928  16.161
    1STR  H28  14012  13.068  12.610  14.421
    1STR  H29  14013  13.075  12.582  14.183
    1STR  H2A  14014  13.001  12.836  13.936
    1STR  H2B  14015  13.020  12.664  13.969
    1STR  H2C  14016  13.163  12.763  13.941
    1HEX  C01  14017   0.278  17.358  16.792
    1HEX  C02  14018   0.211  17.322  16.926
    1HEX  C03  14019   0.062  17.303  16.909
    1HEX  O04  14020   0.014  17.194  16.876
    1HEX  O05  14021  17.434  17.415  16.935
    1HEX  C06  14022  17.293  17.412  16.944
    1HEX  C07  14023  17.250  17.397  17.093
    1HEX  C08  14024  17.276   0.094  17.163
    1HEX  O09  14025  17.215   0.218  17.123
    1HEX  C0A  14026  17.197   0.315  17.219
    1HEX  O0B  14027  17.170   0.293  17.337
    1HEX  C0C  14028  17.221   0.459  17.171
    1HEX  C0D  14029  17.246   0.563  17.284
    1HEX  C0F  14030  17.100  17.352  17.099
    1HEX  O0G  14031  17.091  17.206  17.094
    1HEX  C0H  14032  17.081  17.141  16.976
    1HEX  O0I  14033  17.033  17.194  16.876
    1HEX  C0J  14034  17.139  16.996  16.964
    1HEX  C0K  14035  17.190  16.903  17.083
    1HEX  C0N  14036  17.327  17.278  17.165
    1HEX  O0O  14037   0.025  17.285  17.201
    1HEX  C0P  14038   0.078  17.370  17.302
    1HEX  C0Q  14039   0.038  17.355   0.013
    1HEX  C0R  14040   0.080  17.215   0.063
    1HEX  O0S  14041   0.222  17.194   0.048
    1HEX  C0T  14042   0.307  17.195   0.155
    1HEX  O0U  14043   0.273  17.211   0.272
    1HEX  C0V  14044   0.453  17.167   0.119
    1HEX  C0W  14045   0.549  17.289   0.122
    1HEX  C0Y  14046   0.120   0.023   0.089
    1HEX  O0Z  14047   0.080   0.019   0.224
    1HEX  C10  14048   0.160   0.054   0.324
    1HEX  O11  14049   0.272   0.104   0.315
    1HEX  C12  14050   0.091   0.023   0.457
    1HEX  C13  14051   0.170   0.056   0.585
    1HEX  C15  14052  17.326  17.389   0.038
    1HEX  O16  14053  17.263  17.360   0.163
    1HEX  C17  14054  17.157  17.275   0.163
    1HEX  O18  14055  17.145  17.177   0.091
    1HEX  C19  14056  17.046  17.312   0.263
    1HEX  C1A  14057  16.916  17.371   0.197
    1HEX  H1D  14058   0.338  17.275  16.758
    1HEX  H1E  14059   0.205  17.382  16.715
    1HEX  H1F  14060   0.226  17.402  16.999
    1HEX  H1G  14061   0.253  17.231  16.969
    1HEX  H1H  14062  17.252  17.335  16.880
    1HEX  H1I  14063  17.255   0.066  16.903
    1HEX  H1J  14064  17.381   0.118  17.149
    1HEX  H1K  14065  17.260   0.082  17.269
    1HEX  H1M  14066  17.138   0.491  17.107
    1HEX  H1N  14067  17.309   0.457  17.107
    1HEX  H1O  14068  17.320   0.529  17.356
    1HEX  H1P  14069  17.155   0.583  17.341
    1HEX  H1R  14070  17.040  17.401  17.022
    1HEX  H1S  14071  17.055  17.385  17.193
    1HEX  H1T  14072  17.222  17.010  16.895
    1HEX  H1U  14073  17.063  16.943  16.906
    1HEX  H1V  14074  17.166  16.799  17.058
    1HEX  H1W  14075  17.136  16.925  17.175
    1HEX  H1Y  14076  17.327  17.196  17.093
    1HEX  H1Z  14077  17.270  17.232  17.245
    1HEX  H20  14078   0.077   0.033  17.271
    1HEX  H21  14079   0.185  17.345  17.296
    1HEX  H22  14080   0.028  17.138   0.006
    1HEX  H23  14081   0.048  17.201   0.167
    1HEX  H24  14082   0.455  17.120   0.021
    1HEX  H25  14083   0.489  17.093   0.190
    1HEX  H26  14084   0.509  17.374   0.066
    1HEX  H27  14085   0.646  17.263   0.080
    1HEX  H29  14086   0.102   0.123   0.049
    1HEX  H2A  14087   0.228   0.006   0.079
    1HEX  H2B  14088   0.068  17.357   0.455
    1HEX  H2C  14089  17.437   0.077   0.456
    1HEX  H2D  14090   0.205   0.159   0.582
    1HEX  H2E  14091   0.259  17.433   0.592
    1HEX  H2G  14092  17.262  17.349  17.401
    1HEX  H2H  14093  17.314   0.057   0.029
    1HEX  H2I  14094  17.088  17.379   0.338
    1HEX  H2J  14095  17.020  17.220   0.316
    1HEX  H2K  14096  16.926  17.379   0.089
    1HEX  H2M  14097  16.896   0.032   0.234
    1STR  S00  14098   0.212   0.014  16.652
    1STR  S0E  14099  17.339   0.713  17.336
    1STR  S0M  14100  17.295  16.759  17.154
    1STR  S0X  14101   0.721  17.350   0.091
    1STR  S14  14102   0.096   0.022   0.749
    1STR  S1B  14103  16.760  17.421   0.109
    1HEX  C01  14104   0.252  17.295   3.666
    1HEX  C02  14105   0.208  17.296   3.813
    1HEX  C03  14106   0.057  17.292   3.823
    1HEX  O04  14107  17.435  17.187   3.801
    1HEX  O05  14108   0.003  17.411   3.857
    1HEX  C06  14109  17.302  17.427   3.864
    1HEX  C07  14110  17.250  17.417   4.011
    1HEX  C08  14111  17.283   0.111   4.087
    1HEX  O09  14112  17.228   0.241   4.052
    1HEX  C0A  14113  17.216   0.337   4.153
    1HEX  O0B  14114  17.192   0.311   4.270
    1HEX  C0C  14115  17.238   0.484   4.109
    1HEX  C0D  14116  17.265   0.591   4.222
    1HEX  C0F  14117  17.096  17.390   4.010
    1HEX  O0G  14118  17.072  17.250   3.984
    1HEX  C0H  14119  17.042  17.206   3.861
    1HEX  O0I  14120  16.992  17.275   3.773
    1HEX  C0J  14121  17.085  17.061   3.830
    1HEX  C0K  14122  17.099  16.958   3.946
    1HEX  C0N  14123  17.312  17.290   4.082
    1HEX  O0O  14124   0.010  17.279   4.120
    1HEX  C0P  14125   0.077  17.364   4.213
    1HEX  C0Q  14126   0.046  17.355   4.367
    1HEX  C0R  14127   0.097  17.218   4.419
    1HEX  O0S  14128   0.240  17.204   4.402
    1HEX  C0T  14129   0.327  17.209   4.507
    1HEX  O0U  14130   0.294  17.223   4.625
    1HEX  C0V  14131   0.474  17.184   4.468
    1HEX  C0W  14132   0.569  17.308   4.463
    1HEX  C0Y  14133   0.127   0.028   4.435
    1HEX  O0Z  14134   0.087   0.029   4.571
    1HEX  C10  14135   0.168   0.062   4.670
    1HEX  O11  14136   0.282   0.107   4.660
    1HEX  C12  14137   0.100   0.032   4.803
    1HEX  C13  14138   0.180   0.065   4.929
    1HEX  C15  14139  17.335  17.383   4.398
    1HEX  O16  14140  17.284  17.354   4.528
    1HEX  C17  14141  17.186  17.263   4.540
    1HEX  O18  14142  17.170  17.165   4.468
    1HEX  C19  14143  17.088  17.294   4.653
    1HEX  C1A  14144  16.964  17.374   4.603
    1HEX  H1D  14145   0.200  17.217   3.610
    1HEX  H1E  14146   0.229  17.389   3.617
    1HEX  H1F  14147   0.244  17.385   3.865
    1HEX  H1G  14148   0.247  17.209   3.866
    1HEX  H1H  14149  17.254  17.353   3.799
    1HEX  H1I  14150  17.275   0.083   3.820
    1HEX  H1J  14151  17.388   0.130   4.074
    1HEX  H1K  14152  17.264   0.094   4.192
    1HEX  H1M  14153  17.153   0.515   4.047
    1HEX  H1N  14154  17.324   0.482   4.043
    1HEX  H1O  14155  17.339   0.555   4.295
    1HEX  H1P  14156  17.174   0.611   4.279
    1HEX  H1R  14157  17.043   0.015   3.940
    1HEX  H1S  14158  17.054  17.412   4.108
    1HEX  H1T  14159  17.182  17.070   3.782
    1HEX  H1U  14160  17.018  17.023   3.753
    1HEX  H1V  14161  17.054  16.862   3.920
    1HEX  H1W  14162  17.052  16.992   4.038
    1HEX  H1Y  14163  17.304  17.209   4.009
    1HEX  H1Z  14164  17.246  17.247   4.157
    1HEX  H20  14165   0.081   0.026   4.179
    1HEX  H21  14166   0.181  17.333   4.201
    1HEX  H22  14167   0.047  17.137   4.365
    1HEX  H23  14168   0.068  17.205   4.524
    1HEX  H24  14169   0.473  17.133   4.373
    1HEX  H25  14170   0.512  17.113   4.541
    1HEX  H26  14171   0.522  17.396   4.419
    1HEX  H27  14172   0.662  17.288   4.409
    1HEX  H29  14173   0.104   0.126   4.392
    1HEX  H2A  14174   0.234   0.014   4.425
    1HEX  H2B  14175   0.076  17.366   4.801
    1HEX  H2C  14176   0.006   0.086   4.803
    1HEX  H2D  14177   0.207   0.171   4.931
    1HEX  H2E  14178   0.274   0.010   4.930
    1HEX  H2G  14179  17.269  17.337   4.327
    1HEX  H2H  14180  17.317   0.050   4.387
    1HEX  H2I  14181  17.140  17.346   4.733
    1HEX  H2J  14182  17.055  17.199   4.693
    1HEX  H2K  14183  16.944  17.360   4.497
    1HEX  H2M  14184  16.977   0.041   4.619
    1STR  S00  14185   0.193  17.382   3.517
    1STR  S0E  14186  17.336   0.747   4.296
    1STR  S0M  14187  17.188  16.812   4.017
    1STR  S0X  14188   0.737  17.371   4.415
    1STR  S14  14189   0.083   0.029   5.080
    1STR  S1B  14190  16.812  17.428   4.514
    1HEX  C01  14191   0.252  17.261   8.039
    1HEX  C02  14192   0.200  17.283   8.182
    1HEX  C03  14193   0.048  17.281   8.180
    1HEX  O04  14194  17.427  17.178   8.154
    1HEX  O05  14195  17.434  17.400   8.212
    1HEX  C06  14196  17.292  17.411   8.227
    1HEX  C07  14197  17.251  17.401   8.377
    1HEX  C08  14198  17.281   0.099   8.446
    1HEX  O09  14199  17.220   0.225   8.407
    1HEX  C0A  14200  17.205   0.323   8.504
    1HEX  O0B  14201  17.183   0.300   8.623
    1HEX  C0C  14202  17.223   0.468   8.455
    1HEX  C0D  14203  17.245   0.577   8.566
    1HEX  C0F  14204  17.099  17.358   8.388
    1HEX  O0G  14205  17.084  17.214   8.403
    1HEX  C0H  14206  17.073  17.133   8.295
    1HEX  O0I  14207  17.030  17.174   8.188
    1HEX  C0J  14208  17.123  16.984   8.305
    1HEX  C0K  14209  17.156  16.902   8.439
    1HEX  C0N  14210  17.328  17.281   8.447
    1HEX  O0O  14211   0.027  17.287   8.478
    1HEX  C0P  14212   0.081  17.370   8.581
    1HEX  C0Q  14213   0.040  17.355   8.732
    1HEX  C0R  14214   0.081  17.214   8.782
    1HEX  O0S  14215   0.223  17.194   8.768
    1HEX  C0T  14216   0.307  17.197   8.875
    1HEX  O0U  14217   0.273  17.213   8.992
    1HEX  C0V  14218   0.453  17.170   8.839
    1HEX  C0W  14219   0.545  17.294   8.835
    1HEX  C0Y  14220   0.122   0.023   8.807
    1HEX  O0Z  14221   0.081   0.021   8.942
    1HEX  C10  14222   0.161   0.058   9.042
    1HEX  O11  14223   0.273   0.108   9.031
    1HEX  C12  14224   0.092   0.030   9.174
    1HEX  C13  14225   0.169   0.071   9.301
    1HEX  C15  14226  17.328  17.389   8.760
    1HEX  O16  14227  17.271  17.354   8.886
    1HEX  C17  14228  17.174  17.260   8.890
    1HEX  O18  14229  17.164  17.166   8.811
    1HEX  C19  14230  17.070  17.283   9.000
    1HEX  C1A  14231  16.933  17.331   8.944
    1HEX  H1D  14232   0.208  17.172   7.995
    1HEX  H1E  14233   0.221  17.343   7.974
    1HEX  H1F  14234   0.235  17.377   8.224
    1HEX  H1G  14235   0.233  17.203   8.248
    1HEX  H1H  14236  17.242  17.338   8.165
    1HEX  H1I  14237  17.262   0.068   8.186
    1HEX  H1J  14238  17.386   0.121   8.428
    1HEX  H1K  14239  17.267   0.087   8.552
    1HEX  H1M  14240  17.139   0.497   8.392
    1HEX  H1N  14241  17.311   0.469   8.391
    1HEX  H1O  14242  17.316   0.544   8.642
    1HEX  H1P  14243  17.153   0.600   8.619
    1HEX  H1R  14244  17.041  17.399   8.305
    1HEX  H1S  14245  17.056  17.405   8.477
    1HEX  H1T  14246  17.212  16.985   8.243
    1HEX  H1U  14247  17.050  16.930   8.245
    1HEX  H1V  14248  17.139  16.796   8.418
    1HEX  H1W  14249  17.087  16.929   8.519
    1HEX  H1Y  14250  17.323  17.198   8.377
    1HEX  H1Z  14251  17.274  17.235   8.530
    1HEX  H20  14252   0.080   0.033   8.550
    1HEX  H21  14253   0.186  17.344   8.575
    1HEX  H22  14254   0.029  17.137   8.725
    1HEX  H23  14255   0.049  17.200   8.885
    1HEX  H24  14256   0.455  17.118   8.743
    1HEX  H25  14257   0.492  17.099   8.913
    1HEX  H26  14258   0.497  17.379   8.785
    1HEX  H27  14259   0.638  17.272   8.782
    1HEX  H29  14260   0.103   0.123   8.767
    1HEX  H2A  14261   0.229   0.006   8.797
    1HEX  H2B  14262   0.072  17.363   9.176
    1HEX  H2C  14263  17.436   0.080   9.171
    1HEX  H2D  14264   0.200   0.176   9.294
    1HEX  H2E  14265   0.261   0.012   9.309
    1HEX  H2G  14266  17.260  17.352   8.684
    1HEX  H2H  14267  17.316   0.057   8.755
    1HEX  H2I  14268  17.111  17.353   9.073
    1HEX  H2J  14269  17.057  17.188   9.052
    1HEX  H2K  14270  16.935  17.344   8.836
    1HEX  H2M  14271  16.905  17.427   8.987
    1STR  S00  14272   0.210  17.269   7.864
    1STR  S0E  14273  17.317   0.733   8.632
    1STR  S0M  14274  17.233  16.764   8.549
    1STR  S0X  14275   0.715  17.355   8.793
    1STR  S14  14276   0.091   0.061   9.466
    1STR  S1B  14277  16.774  17.334   8.852
    1HEX  C01  14278   0.241  17.300  12.372
    1HEX  C02  14279   0.202  17.296  12.520
    1HEX  C03  14280   0.051  17.288  12.532
    1HEX  O04  14281  17.430  17.185  12.504
    1HEX  O05  14282  17.436  17.405  12.573
    1HEX  C06  14283  17.295  17.417  12.584
    1HEX  C07  14284  17.249  17.405  12.731
    1HEX  C08  14285  17.280   0.101  12.803
    1HEX  O09  14286  17.219   0.225  12.764
    1HEX  C0A  14287  17.198   0.321  12.861
    1HEX  O0B  14288  17.169   0.296  12.978
    1HEX  C0C  14289  17.219   0.466  12.815
    1HEX  C0D  14290  17.236   0.572  12.929
    1HEX  C0F  14291  17.096  17.371  12.735
    1HEX  O0G  14292  17.077  17.228  12.719
    1HEX  C0H  14293  17.051  17.175  12.599
    1HEX  O0I  14294  17.003  17.239  12.505
    1HEX  C0J  14295  17.094  17.027  12.577
    1HEX  C0K  14296  17.116  16.926  12.696
    1HEX  C0N  14297  17.318  17.281  12.802
    1HEX  O0O  14298   0.016  17.280  12.840
    1HEX  C0P  14299   0.075  17.365  12.939
    1HEX  C0Q  14300   0.040  17.354  13.091
    1HEX  C0R  14301   0.086  17.215  13.143
    1HEX  O0S  14302   0.228  17.196  13.125
    1HEX  C0T  14303   0.315  17.199  13.230
    1HEX  O0U  14304   0.283  17.217  13.347
    1HEX  C0V  14305   0.460  17.169  13.191
    1HEX  C0W  14306   0.558  17.290  13.186
    1HEX  C0Y  14307   0.122   0.024  13.163
    1HEX  O0Z  14308   0.084   0.022  13.299
    1HEX  C10  14309   0.166   0.058  13.397
    1HEX  O11  14310   0.278   0.108  13.384
    1HEX  C12  14311   0.101   0.028  13.531
    1HEX  C13  14312   0.183   0.064  13.656
    1HEX  C15  14313  17.328  17.386  13.119
    1HEX  O16  14314  17.269  17.359  13.247
    1HEX  C17  14315  17.162  17.275  13.253
    1HEX  O18  14316  17.143  17.180  13.178
    1HEX  C19  14317  17.061  17.310  13.363
    1HEX  C1A  14318  16.930  17.377  13.312
    1HEX  H1D  14319   0.189  17.222  12.316
    1HEX  H1E  14320   0.214  17.396  12.327
    1HEX  H1F  14321   0.237  17.384  12.573
    1HEX  H1G  14322   0.244  17.209  12.570
    1HEX  H1H  14323  17.246  17.345  12.519
    1HEX  H1I  14324  17.268   0.074  12.543
    1HEX  H1J  14325  17.385   0.123  12.786
    1HEX  H1K  14326  17.266   0.087  12.909
    1HEX  H1M  14327  17.138   0.495  12.748
    1HEX  H1N  14328  17.310   0.466  12.755
    1HEX  H1O  14329  17.312   0.542  13.001
    1HEX  H1P  14330  17.144   0.584  12.986
    1HEX  H1R  14331  17.040  17.430  12.663
    1HEX  H1S  14332  17.055  17.399  12.832
    1HEX  H1T  14333  17.188  17.036  12.523
    1HEX  H1U  14334  17.023  16.986  12.505
    1HEX  H1V  14335  17.074  16.829  12.671
    1HEX  H1W  14336  17.066  16.960  12.787
    1HEX  H1Y  14337  17.314  17.200  12.730
    1HEX  H1Z  14338  17.256  17.237  12.880
    1HEX  H20  14339   0.076   0.028  12.906
    1HEX  H21  14340   0.181  17.338  12.929
    1HEX  H22  14341   0.033  17.136  13.088
    1HEX  H23  14342   0.056  17.202  13.247
    1HEX  H24  14343   0.459  17.117  13.095
    1HEX  H25  14344   0.497  17.097  13.264
    1HEX  H26  14345   0.514  17.377  13.137
    1HEX  H27  14346   0.651  17.265  13.134
    1HEX  H29  14347   0.101   0.123  13.122
    1HEX  H2A  14348   0.229   0.008  13.151
    1HEX  H2B  14349   0.078  17.362  13.532
    1HEX  H2C  14350   0.006   0.082  13.533
    1HEX  H2D  14351   0.218   0.167  13.652
    1HEX  H2E  14352   0.272   0.000  13.664
    1HEX  H2G  14353  17.263  17.343  13.045
    1HEX  H2H  14354  17.314   0.053  13.108
    1HEX  H2I  14355  17.111  17.369  13.441
    1HEX  H2J  14356  17.035  17.215  13.411
    1HEX  H2K  14357  16.920  17.373  13.204
    1HEX  H2M  14358  16.925   0.042  13.342
    1STR  S00  14359   0.164  17.396  12.238
    1STR  S0E  14360  17.297   0.737  12.983
    1STR  S0M  14361  17.197  16.769  12.759
    1STR  S0X  14362   0.732  17.332  13.139
    1STR  S14  14363   0.114   0.036  13.823
    1STR  S1B  14364  16.772   0.004  13.242
    1HEX  C01  14365   0.249   4.213  16.738
    1HEX  C02  14366   0.202   4.215  16.884
    1HEX  C03  14367   0.050   4.214  16.891
    1HEX  O04  14368  17.426   4.114  16.857
    1HEX  O05  14369  17.439   4.331  16.934
    1HEX  C06  14370  17.298   4.348  16.943
    1HEX  C07  14371  17.249   4.338  17.090
    1HEX  C08  14372  17.283   4.471  17.166
    1HEX  O09  14373  17.228   4.600  17.129
    1HEX  C0A  14374  17.217   4.697  17.228
    1HEX  O0B  14375  17.195   4.674  17.346
    1HEX  C0C  14376  17.239   4.843  17.180
    1HEX  C0D  14377  17.271   4.951  17.290
    1HEX  C0F  14378  17.095   4.310  17.092
    1HEX  O0G  14379  17.070   4.170  17.067
    1HEX  C0H  14380  17.039   4.126  16.944
    1HEX  O0I  14381  16.990   4.196  16.856
    1HEX  C0J  14382  17.078   3.980  16.914
    1HEX  C0K  14383  17.086   3.876  17.030
    1HEX  C0N  14384  17.312   4.209  17.159
    1HEX  O0O  14385   0.010   4.200  17.197
    1HEX  C0P  14386   0.075   4.283  17.293
    1HEX  C0Q  14387   0.043   4.274   0.006
    1HEX  C0R  14388   0.092   4.136   0.059
    1HEX  O0S  14389   0.235   4.122   0.044
    1HEX  C0T  14390   0.320   4.126   0.151
    1HEX  O0U  14391   0.286   4.139   0.268
    1HEX  C0V  14392   0.468   4.100   0.114
    1HEX  C0W  14393   0.564   4.224   0.117
    1HEX  C0Y  14394   0.124   4.386   0.075
    1HEX  O0Z  14395   0.087   4.385   0.212
    1HEX  C10  14396   0.170   4.423   0.308
    1HEX  O11  14397   0.282   4.472   0.293
    1HEX  C12  14398   0.107   4.394   0.444
    1HEX  C13  14399   0.196   4.428   0.565
    1HEX  C15  14400  17.332   4.302   0.038
    1HEX  O16  14401  17.282   4.274   0.169
    1HEX  C17  14402  17.182   4.185   0.184
    1HEX  O18  14403  17.157   4.092   0.108
    1HEX  C19  14404  17.097   4.210   0.308
    1HEX  C1A  14405  16.965   4.286   0.275
    1HEX  H1D  14406   0.190   4.144  16.678
    1HEX  H1E  14407   0.242   4.311  16.693
    1HEX  H1F  14408   0.239   4.303  16.937
    1HEX  H1G  14409   0.238   4.127  16.938
    1HEX  H1H  14410  17.247   4.277  16.878
    1HEX  H1I  14411  17.273   4.446  16.901
    1HEX  H1J  14412  17.389   4.490  17.152
    1HEX  H1K  14413  17.265   4.455  17.271
    1HEX  H1M  14414  17.154   4.874  17.120
    1HEX  H1N  14415  17.324   4.839  17.112
    1HEX  H1O  14416  17.344   4.915  17.363
    1HEX  H1P  14417  17.181   4.975  17.347
    1HEX  H1R  14418  17.042   4.375  17.023
    1HEX  H1S  14419  17.054   4.333  17.190
    1HEX  H1T  14420  17.176   3.986  16.868
    1HEX  H1U  14421  17.011   3.944  16.835
    1HEX  H1V  14422  17.040   3.781  17.002
    1HEX  H1W  14423  17.037   3.911  17.121
    1HEX  H1Y  14424  17.305   4.130  17.085
    1HEX  H1Z  14425  17.248   4.166  17.235
    1HEX  H20  14426   0.079   4.386  17.260
    1HEX  H21  14427   0.179   4.253  17.282
    1HEX  H22  14428   0.043   4.056   0.005
    1HEX  H23  14429   0.062   4.124   0.164
    1HEX  H24  14430   0.469   4.052   0.017
    1HEX  H25  14431   0.504   4.026   0.186
    1HEX  H26  14432   0.519   4.311   0.070
    1HEX  H27  14433   0.659   4.203   0.068
    1HEX  H29  14434   0.101   4.484   0.034
    1HEX  H2A  14435   0.231   4.372   0.062
    1HEX  H2B  14436   0.082   4.288   0.444
    1HEX  H2C  14437   0.014   4.450   0.448
    1HEX  H2D  14438   0.224   4.533   0.563
    1HEX  H2E  14439   0.288   4.371   0.560
    1HEX  H2G  14440  17.265   4.255  17.407
    1HEX  H2H  14441  17.314   4.408   0.027
    1HEX  H2I  14442  17.156   4.263   0.383
    1HEX  H2J  14443  17.072   4.113   0.350
    1HEX  H2K  14444  16.935   4.276   0.171
    1HEX  H2M  14445  16.975   4.393   0.295
    1STR  S00  14446   0.181   4.318  16.606
    1STR  S0E  14447  17.352   5.108  17.348
    1STR  S0M  14448  17.163   3.728  17.109
    1STR  S0X  14449   0.734   4.287   0.082
    1STR  S14  14450   0.125   4.389   0.729
    1STR  S1B  14451  16.801   4.335   0.209
    1HEX  C01  14452   0.260   4.209   3.674
    1HEX  C02  14453   0.203   4.209   3.817
    1HEX  C03  14454   0.052   4.205   3.814
    1HEX  O04  14455  17.432   4.101   3.786
    1HEX  O05  14456  17.435   4.323   3.849
    1HEX  C06  14457  17.293   4.330   3.865
    1HEX  C07  14458  17.253   4.319   4.015
    1HEX  C08  14459  17.283   4.457   4.083
    1HEX  O09  14460  17.222   4.583   4.046
    1HEX  C0A  14461  17.204   4.678   4.145
    1HEX  O0B  14462  17.176   4.653   4.261
    1HEX  C0C  14463  17.225   4.825   4.100
    1HEX  C0D  14464  17.253   4.929   4.215
    1HEX  C0F  14465  17.103   4.275   4.028
    1HEX  O0G  14466  17.090   4.130   4.043
    1HEX  C0H  14467  17.080   4.049   3.934
    1HEX  O0I  14468  17.039   4.090   3.826
    1HEX  C0J  14469  17.132   3.901   3.944
    1HEX  C0K  14470  17.170   3.819   4.077
    1HEX  C0N  14471  17.332   4.200   4.085
    1HEX  O0O  14472   0.031   4.209   4.118
    1HEX  C0P  14473   0.082   4.291   4.223
    1HEX  C0Q  14474   0.039   4.275   4.373
    1HEX  C0R  14475   0.079   4.134   4.422
    1HEX  O0S  14476   0.221   4.113   4.409
    1HEX  C0T  14477   0.305   4.115   4.516
    1HEX  O0U  14478   0.270   4.130   4.633
    1HEX  C0V  14479   0.451   4.089   4.479
    1HEX  C0W  14480   0.542   4.215   4.482
    1HEX  C0Y  14481   0.120   4.382   4.450
    1HEX  O0Z  14482   0.078   4.378   4.585
    1HEX  C10  14483   0.157   4.415   4.686
    1HEX  O11  14484   0.269   4.466   4.677
    1HEX  C12  14485   0.087   4.384   4.818
    1HEX  C13  14486   0.163   4.419   4.947
    1HEX  C15  14487  17.327   4.309   4.398
    1HEX  O16  14488  17.263   4.277   4.522
    1HEX  C17  14489  17.161   4.188   4.522
    1HEX  O18  14490  17.153   4.091   4.447
    1HEX  C19  14491  17.049   4.222   4.620
    1HEX  C1A  14492  16.918   4.274   4.553
    1HEX  H1D  14493   0.212   4.132   3.614
    1HEX  H1E  14494   0.242   4.305   3.625
    1HEX  H1F  14495   0.236   4.297   3.873
    1HEX  H1G  14496   0.237   4.121   3.871
    1HEX  H1H  14497  17.244   4.255   3.804
    1HEX  H1I  14498  17.260   4.426   3.824
    1HEX  H1J  14499  17.388   4.479   4.065
    1HEX  H1K  14500  17.271   4.445   4.190
    1HEX  H1M  14501  17.141   4.857   4.040
    1HEX  H1N  14502  17.312   4.824   4.034
    1HEX  H1O  14503  17.322   4.889   4.290
    1HEX  H1P  14504  17.162   4.955   4.268
    1HEX  H1R  14505  17.042   4.314   3.946
    1HEX  H1S  14506  17.059   4.320   4.118
    1HEX  H1T  14507  17.219   3.902   3.879
    1HEX  H1U  14508  17.057   3.845   3.888
    1HEX  H1V  14509  17.155   3.713   4.057
    1HEX  H1W  14510  17.102   3.845   4.158
    1HEX  H1Y  14511  17.330   4.118   4.014
    1HEX  H1Z  14512  17.280   4.153   4.168
    1HEX  H20  14513   0.081   4.395   4.193
    1HEX  H21  14514   0.188   4.266   4.218
    1HEX  H22  14515   0.027   4.057   4.365
    1HEX  H23  14516   0.047   4.119   4.526
    1HEX  H24  14517   0.454   4.041   4.382
    1HEX  H25  14518   0.489   4.016   4.551
    1HEX  H26  14519   0.499   4.297   4.426
    1HEX  H27  14520   0.642   4.195   4.441
    1HEX  H29  14521   0.103   4.482   4.410
    1HEX  H2A  14522   0.228   4.365   4.441
    1HEX  H2B  14523   0.064   4.277   4.816
    1HEX  H2C  14524  17.432   4.436   4.815
    1HEX  H2D  14525   0.196   4.523   4.943
    1HEX  H2E  14526   0.253   4.358   4.955
    1HEX  H2G  14527  17.261   4.273   4.321
    1HEX  H2H  14528  17.315   4.417   4.392
    1HEX  H2I  14529  17.087   4.292   4.694
    1HEX  H2J  14530  17.027   4.130   4.675
    1HEX  H2K  14531  16.932   4.290   4.446
    1HEX  H2M  14532  16.889   4.371   4.595
    1STR  S00  14533   0.237   4.316   3.529
    1STR  S0E  14534  17.346   5.070   4.289
    1STR  S0M  14535  17.254   3.681   4.184
    1STR  S0X  14536   0.709   4.283   4.448
    1STR  S14  14537   0.083   4.393   5.110
    1STR  S1B  14538  16.762   4.310   4.459
    1HEX  C01  14539   0.241   4.213   8.017
    1HEX  C02  14540   0.200   4.213   8.165
    1HEX  C03  14541   0.049   4.209   8.176
    1HEX  O04  14542  17.427   4.106   8.148
    1HEX  O05  14543  17.437   4.327   8.215
    1HEX  C06  14544  17.296   4.342   8.226
    1HEX  C07  14545  17.249   4.332   8.373
    1HEX  C08  14546  17.281   4.467   8.447
    1HEX  O09  14547  17.224   4.595   8.411
    1HEX  C0A  14548  17.209   4.691   8.511
    1HEX  O0B  14549  17.183   4.665   8.628
    1HEX  C0C  14550  17.230   4.838   8.467
    1HEX  C0D  14551  17.251   4.944   8.581
    1HEX  C0F  14552  17.095   4.299   8.377
    1HEX  O0G  14553  17.073   4.157   8.362
    1HEX  C0H  14554  17.045   4.102   8.242
    1HEX  O0I  14555  16.999   4.165   8.147
    1HEX  C0J  14556  17.083   3.953   8.224
    1HEX  C0K  14557  17.100   3.855   8.346
    1HEX  C0N  14558  17.316   4.206   8.443
    1HEX  O0O  14559   0.014   4.201   8.479
    1HEX  C0P  14560   0.077   4.286   8.575
    1HEX  C0Q  14561   0.045   4.275   8.728
    1HEX  C0R  14562   0.094   4.137   8.780
    1HEX  O0S  14563   0.237   4.122   8.762
    1HEX  C0T  14564   0.324   4.127   8.866
    1HEX  O0U  14565   0.293   4.143   8.984
    1HEX  C0V  14566   0.471   4.100   8.826
    1HEX  C0W  14567   0.567   4.223   8.818
    1HEX  C0Y  14568   0.126   4.387   8.799
    1HEX  O0Z  14569   0.086   4.387   8.934
    1HEX  C10  14570   0.168   4.422   9.033
    1HEX  O11  14571   0.281   4.469   9.022
    1HEX  C12  14572   0.101   4.393   9.166
    1HEX  C13  14573   0.181   4.431   9.292
    1HEX  C15  14574  17.333   4.305   8.759
    1HEX  O16  14575  17.280   4.274   8.888
    1HEX  C17  14576  17.181   4.182   8.897
    1HEX  O18  14577  17.166   4.087   8.822
    1HEX  C19  14578  17.083   4.209   9.011
    1HEX  C1A  14579  16.951   4.277   8.965
    1HEX  H1D  14580   0.188   4.135   7.962
    1HEX  H1E  14581   0.216   4.308   7.970
    1HEX  H1F  14582   0.237   4.302   8.216
    1HEX  H1G  14583   0.241   4.126   8.217
    1HEX  H1H  14584  17.246   4.268   8.163
    1HEX  H1I  14585  17.268   4.438   8.182
    1HEX  H1J  14586  17.387   4.488   8.430
    1HEX  H1K  14587  17.267   4.452   8.552
    1HEX  H1M  14588  17.147   4.868   8.403
    1HEX  H1N  14589  17.318   4.838   8.404
    1HEX  H1O  14590  17.326   4.912   8.654
    1HEX  H1P  14591  17.159   4.960   8.638
    1HEX  H1R  14592  17.040   4.359   8.303
    1HEX  H1S  14593  17.054   4.329   8.473
    1HEX  H1T  14594  17.178   3.956   8.170
    1HEX  H1U  14595  17.011   3.912   8.153
    1HEX  H1V  14596  17.060   3.757   8.322
    1HEX  H1W  14597  17.046   3.891   8.434
    1HEX  H1Y  14598  17.309   4.126   8.370
    1HEX  H1Z  14599  17.253   4.162   8.520
    1HEX  H20  14600   0.079   4.388   8.542
    1HEX  H21  14601   0.182   4.257   8.564
    1HEX  H22  14602   0.043   4.057   8.727
    1HEX  H23  14603   0.066   4.125   8.885
    1HEX  H24  14604   0.469   4.047   8.732
    1HEX  H25  14605   0.510   4.029   8.900
    1HEX  H26  14606   0.520   4.310   8.774
    1HEX  H27  14607   0.659   4.201   8.763
    1HEX  H29  14608   0.104   4.485   8.756
    1HEX  H2A  14609   0.233   4.373   8.787
    1HEX  H2B  14610   0.078   4.287   9.167
    1HEX  H2C  14611   0.006   4.447   9.165
    1HEX  H2D  14612   0.210   4.536   9.290
    1HEX  H2E  14613   0.272   4.373   9.298
    1HEX  H2G  14614  17.267   4.262   8.687
    1HEX  H2H  14615  17.317   4.412   8.750
    1HEX  H2I  14616  17.133   4.266   9.089
    1HEX  H2J  14617  17.059   4.112   9.055
    1HEX  H2K  14618  16.936   4.270   8.857
    1HEX  H2M  14619  16.951   4.383   8.991
    1STR  S00  14620   0.173   4.296   7.871
    1STR  S0E  14621  17.312   5.104   8.654
    1STR  S0M  14622  17.170   3.697   8.417
    1STR  S0X  14623   0.736   4.276   8.764
    1STR  S14  14624   0.089   4.414   9.449
    1STR  S1B  14625  16.791   4.320   8.884
    1HEX  C01  14626   0.233   4.211  12.413
    1HEX  C02  14627   0.187   4.191  12.557
    1HEX  C03  14628   0.036   4.195  12.558
    1HEX  O04  14629  17.410   4.094  12.534
    1HEX  O05  14630  17.428   4.318  12.583
    1HEX  C06  14631  17.287   4.337  12.591
    1HEX  C07  14632  17.240   4.330  12.739
    1HEX  C08  14633  17.275   4.465  12.809
    1HEX  O09  14634  17.219   4.592  12.770
    1HEX  C0A  14635  17.206   4.691  12.865
    1HEX  O0B  14636  17.184   4.670  12.984
    1HEX  C0C  14637  17.226   4.835  12.814
    1HEX  C0D  14638  17.252   4.944  12.924
    1HEX  C0F  14639  17.086   4.301  12.743
    1HEX  O0G  14640  17.061   4.158  12.734
    1HEX  C0H  14641  17.036   4.099  12.616
    1HEX  O0I  14642  16.992   4.160  12.518
    1HEX  C0J  14643  17.074   3.950  12.603
    1HEX  C0K  14644  17.077   3.852  12.727
    1HEX  C0N  14645  17.304   4.205  12.813
    1HEX  O0O  14646   0.004   4.197  12.847
    1HEX  C0P  14647   0.070   4.284  12.940
    1HEX  C0Q  14648   0.039   4.275  13.093
    1HEX  C0R  14649   0.085   4.136  13.144
    1HEX  O0S  14650   0.227   4.117  13.128
    1HEX  C0T  14651   0.312   4.120  13.234
    1HEX  O0U  14652   0.279   4.138  13.351
    1HEX  C0V  14653   0.458   4.090  13.197
    1HEX  C0W  14654   0.555   4.212  13.190
    1HEX  C0Y  14655   0.123   4.385  13.162
    1HEX  O0Z  14656   0.085   4.385  13.298
    1HEX  C10  14657   0.167   4.423  13.396
    1HEX  O11  14658   0.279   4.472  13.383
    1HEX  C12  14659   0.101   4.395  13.530
    1HEX  C13  14660   0.182   4.435  13.654
    1HEX  C15  14661  17.329   4.308  13.125
    1HEX  O16  14662  17.276   4.274  13.253
    1HEX  C17  14663  17.181   4.179  13.262
    1HEX  O18  14664  17.167   4.086  13.183
    1HEX  C19  14665  17.086   4.200  13.379
    1HEX  C1A  14666  16.947   4.257  13.336
    1HEX  H1D  14667   0.187   4.137  12.347
    1HEX  H1E  14668   0.197   4.308  12.377
    1HEX  H1F  14669   0.225   4.268  12.624
    1HEX  H1G  14670   0.218   4.094  12.596
    1HEX  H1H  14671  17.236   4.266  12.527
    1HEX  H1I  14672  17.263   4.435  12.548
    1HEX  H1J  14673  17.381   4.484  12.791
    1HEX  H1K  14674  17.262   4.453  12.916
    1HEX  H1M  14675  17.142   4.864  12.751
    1HEX  H1N  14676  17.314   4.832  12.750
    1HEX  H1O  14677  17.326   4.912  12.997
    1HEX  H1P  14678  17.161   4.966  12.980
    1HEX  H1R  14679  17.033   4.358  12.667
    1HEX  H1S  14680  17.045   4.335  12.838
    1HEX  H1T  14681  17.174   3.951  12.558
    1HEX  H1U  14682  17.009   3.910  12.525
    1HEX  H1V  14683  17.039   3.754  12.697
    1HEX  H1W  14684  17.015   3.888  12.809
    1HEX  H1Y  14685  17.294   4.121  12.744
    1HEX  H1Z  14686  17.242   4.164  12.892
    1HEX  H20  14687   0.072   4.386  12.905
    1HEX  H21  14688   0.174   4.253  12.927
    1HEX  H22  14689   0.033   4.058  13.089
    1HEX  H23  14690   0.055   4.123  13.248
    1HEX  H24  14691   0.458   4.037  13.102
    1HEX  H25  14692   0.496   4.020  13.271
    1HEX  H26  14693   0.504   4.302  13.156
    1HEX  H27  14694   0.638   4.193  13.123
    1HEX  H29  14695   0.103   4.484  13.120
    1HEX  H2A  14696   0.230   4.368  13.150
    1HEX  H2B  14697   0.079   4.288  13.533
    1HEX  H2C  14698   0.005   4.446  13.530
    1HEX  H2D  14699   0.211   4.540  13.648
    1HEX  H2E  14700   0.274   4.377  13.659
    1HEX  H2G  14701  17.260   4.270  13.053
    1HEX  H2H  14702  17.315   4.416  13.118
    1HEX  H2I  14703  17.134   4.264  13.453
    1HEX  H2J  14704  17.071   4.103  13.426
    1HEX  H2K  14705  16.935   4.259  13.227
    1HEX  H2M  14706  16.933   4.359  13.371
    1STR  S00  14707   0.167   4.133  12.263
    1STR  S0E  14708  17.330   5.103  12.976
    1STR  S0M  14709  17.123   3.711  12.841
    1STR  S0X  14710   0.729   4.267  13.159
    1STR  S14  14711   0.109   4.424  13.822
    1STR  S1B  14712  16.784   4.264  13.254
    1HEX  C01  14713   0.269   8.662  16.818
    1HEX  C02  14714   0.201   8.605  16.943
    1HEX  C03  14715   0.054   8.583  16.914
    1HEX  O04  14716   0.010   8.475  16.875
    1HEX  O05  14717  17.424   8.694  16.940
    1HEX  C06  14718  17.284   8.690  16.948
    1HEX  C07  14719  17.244   8.675  17.097
    1HEX  C08  14720  17.270   8.813  17.166
    1HEX  O09  14721  17.210   8.937  17.124
    1HEX  C0A  14722  17.194   9.036  17.219
    1HEX  O0B  14723  17.168   9.015  17.338
    1HEX  C0C  14724  17.218   9.179  17.169
    1HEX  C0D  14725  17.239   9.285  17.282
    1HEX  C0F  14726  17.094   8.628  17.106
    1HEX  O0G  14727  17.087   8.482  17.107
    1HEX  C0H  14728  17.083   8.411  16.991
    1HEX  O0I  14729  17.037   8.459  16.888
    1HEX  C0J  14730  17.144   8.267  16.987
    1HEX  C0K  14731  17.195   8.178  17.110
    1HEX  C0N  14732  17.323   8.558  17.169
    1HEX  O0O  14733   0.022   8.565  17.202
    1HEX  C0P  14734   0.076   8.651  17.303
    1HEX  C0Q  14735   0.038   8.636   0.014
    1HEX  C0R  14736   0.082   8.495   0.064
    1HEX  O0S  14737   0.224   8.476   0.048
    1HEX  C0T  14738   0.309   8.477   0.154
    1HEX  O0U  14739   0.276   8.493   0.271
    1HEX  C0V  14740   0.455   8.446   0.116
    1HEX  C0W  14741   0.553   8.567   0.117
    1HEX  C0Y  14742   0.121   8.744   0.088
    1HEX  O0Z  14743   0.081   8.741   0.224
    1HEX  C10  14744   0.163   8.776   0.323
    1HEX  O11  14745   0.275   8.825   0.312
    1HEX  C12  14746   0.096   8.745   0.456
    1HEX  C13  14747   0.177   8.778   0.583
    1HEX  C15  14748  17.326   8.670   0.040
    1HEX  O16  14749  17.264   8.640   0.166
    1HEX  C17  14750  17.156   8.558   0.167
    1HEX  O18  14751  17.140   8.462   0.092
    1HEX  C19  14752  17.048   8.595   0.270
    1HEX  C1A  14753  16.918   8.657   0.210
    1HEX  H1D  14754   0.347   8.592  16.788
    1HEX  H1E  14755   0.200   8.674  16.735
    1HEX  H1F  14756   0.208   8.674  17.026
    1HEX  H1G  14757   0.244   8.510  16.976
    1HEX  H1H  14758  17.243   8.611  16.884
    1HEX  H1I  14759  17.245   8.783  16.906
    1HEX  H1J  14760  17.375   8.837  17.150
    1HEX  H1K  14761  17.256   8.802  17.272
    1HEX  H1M  14762  17.136   9.209  17.104
    1HEX  H1N  14763  17.308   9.177  17.108
    1HEX  H1O  14764  17.316   9.254  17.353
    1HEX  H1P  14765  17.148   9.301  17.339
    1HEX  H1R  14766  17.034   8.673  17.026
    1HEX  H1S  14767  17.050   8.665  17.198
    1HEX  H1T  14768  17.228   8.280  16.918
    1HEX  H1U  14769  17.071   8.211  16.929
    1HEX  H1V  14770  17.177   8.073  17.087
    1HEX  H1W  14771  17.136   8.201  17.199
    1HEX  H1Y  14772  17.324   8.476  17.097
    1HEX  H1Z  14773  17.268   8.511  17.250
    1HEX  H20  14774   0.074   8.754  17.271
    1HEX  H21  14775   0.183   8.626  17.296
    1HEX  H22  14776   0.029   8.418   0.007
    1HEX  H23  14777   0.051   8.481   0.168
    1HEX  H24  14778   0.455   8.398   0.019
    1HEX  H25  14779   0.490   8.372   0.188
    1HEX  H26  14780   0.512   8.653   0.063
    1HEX  H27  14781   0.648   8.541   0.071
    1HEX  H29  14782   0.102   8.844   0.048
    1HEX  H2A  14783   0.228   8.727   0.077
    1HEX  H2B  14784   0.072   8.639   0.454
    1HEX  H2C  14785   0.001   8.799   0.456
    1HEX  H2D  14786   0.212   8.881   0.579
    1HEX  H2E  14787   0.264   8.714   0.590
    1HEX  H2G  14788  17.261   8.630  17.404
    1HEX  H2H  14789  17.314   8.777   0.032
    1HEX  H2I  14790  17.093   8.660   0.346
    1HEX  H2J  14791  17.023   8.503   0.322
    1HEX  H2K  14792  16.922   8.660   0.101
    1HEX  H2M  14793  16.905   8.760   0.243
    1STR  S00  14794   0.192   8.758  16.683
    1STR  S0E  14795  17.319   9.443  17.330
    1STR  S0M  14796  17.293   8.034  17.192
    1STR  S0X  14797   0.727   8.618   0.082
    1STR  S14  14798   0.106   8.743   0.748
    1STR  S1B  14799  16.761   8.712   0.127
    1HEX  C01  14800   0.270   8.592   3.682
    1HEX  C02  14801   0.216   8.587   3.826
    1HEX  C03  14802   0.064   8.579   3.829
    1HEX  O04  14803   0.007   8.472   3.808
    1HEX  O05  14804   0.006   8.697   3.858
    1HEX  C06  14805  17.305   8.708   3.864
    1HEX  C07  14806  17.252   8.699   4.010
    1HEX  C08  14807  17.284   8.833   4.087
    1HEX  O09  14808  17.230   8.962   4.052
    1HEX  C0A  14809  17.219   9.059   4.151
    1HEX  O0B  14810  17.196   9.034   4.270
    1HEX  C0C  14811  17.240   9.205   4.106
    1HEX  C0D  14812  17.271   9.313   4.219
    1HEX  C0F  14813  17.098   8.671   4.010
    1HEX  O0G  14814  17.074   8.531   3.984
    1HEX  C0H  14815  17.049   8.486   3.861
    1HEX  O0I  14816  16.999   8.554   3.772
    1HEX  C0J  14817  17.096   8.343   3.831
    1HEX  C0K  14818  17.127   8.244   3.948
    1HEX  C0N  14819  17.313   8.571   4.082
    1HEX  O0O  14820   0.011   8.560   4.120
    1HEX  C0P  14821   0.077   8.644   4.214
    1HEX  C0Q  14822   0.046   8.635   4.367
    1HEX  C0R  14823   0.096   8.498   4.420
    1HEX  O0S  14824   0.239   8.484   4.403
    1HEX  C0T  14825   0.325   8.489   4.509
    1HEX  O0U  14826   0.292   8.502   4.627
    1HEX  C0V  14827   0.472   8.465   4.471
    1HEX  C0W  14828   0.568   8.589   4.469
    1HEX  C0Y  14829   0.126   8.749   4.435
    1HEX  O0Z  14830   0.088   8.749   4.571
    1HEX  C10  14831   0.170   8.782   4.669
    1HEX  O11  14832   0.283   8.829   4.657
    1HEX  C12  14833   0.104   8.753   4.803
    1HEX  C13  14834   0.188   8.783   4.927
    1HEX  C15  14835  17.335   8.663   4.398
    1HEX  O16  14836  17.284   8.636   4.529
    1HEX  C17  14837  17.184   8.548   4.544
    1HEX  O18  14838  17.162   8.451   4.471
    1HEX  C19  14839  17.092   8.579   4.661
    1HEX  C1A  14840  16.968   8.663   4.619
    1HEX  H1D  14841   0.254   8.498   3.631
    1HEX  H1E  14842   0.224   8.672   3.623
    1HEX  H1F  14843   0.246   8.676   3.882
    1HEX  H1G  14844   0.255   8.501   3.880
    1HEX  H1H  14845  17.260   8.633   3.799
    1HEX  H1I  14846  17.276   8.803   3.819
    1HEX  H1J  14847  17.390   8.852   4.074
    1HEX  H1K  14848  17.265   8.816   4.192
    1HEX  H1M  14849  17.155   9.237   4.046
    1HEX  H1N  14850  17.326   9.203   4.039
    1HEX  H1O  14851  17.344   9.276   4.291
    1HEX  H1P  14852  17.180   9.335   4.275
    1HEX  H1R  14853  17.045   8.736   3.939
    1HEX  H1S  14854  17.056   8.694   4.107
    1HEX  H1T  14855  17.189   8.356   3.774
    1HEX  H1U  14856  17.025   8.300   3.760
    1HEX  H1V  14857  17.091   8.143   3.923
    1HEX  H1W  14858  17.078   8.274   4.040
    1HEX  H1Y  14859  17.306   8.490   4.009
    1HEX  H1Z  14860  17.247   8.529   4.157
    1HEX  H20  14861   0.081   8.746   4.179
    1HEX  H21  14862   0.181   8.613   4.202
    1HEX  H22  14863   0.046   8.418   4.366
    1HEX  H23  14864   0.067   8.485   4.524
    1HEX  H24  14865   0.473   8.415   4.374
    1HEX  H25  14866   0.510   8.392   4.543
    1HEX  H26  14867   0.522   8.676   4.424
    1HEX  H27  14868   0.662   8.569   4.417
    1HEX  H29  14869   0.103   8.846   4.392
    1HEX  H2A  14870   0.234   8.734   4.423
    1HEX  H2B  14871   0.078   8.647   4.800
    1HEX  H2C  14872   0.010   8.808   4.805
    1HEX  H2D  14873   0.215   8.889   4.929
    1HEX  H2E  14874   0.282   8.727   4.923
    1HEX  H2G  14875  17.268   8.616   4.329
    1HEX  H2H  14876  17.316   8.770   4.386
    1HEX  H2I  14877  17.149   8.628   4.740
    1HEX  H2J  14878  17.059   8.484   4.702
    1HEX  H2K  14879  16.939   8.646   4.515
    1HEX  H2M  14880  16.986   8.770   4.631
    1STR  S00  14881   0.206   8.680   3.535
    1STR  S0E  14882  17.348   9.468   4.288
    1STR  S0M  14883  17.232   8.108   4.018
    1STR  S0X  14884   0.737   8.654   4.426
    1STR  S14  14885   0.101   8.735   5.081
    1STR  S1B  14886  16.813   8.724   4.542
    1HEX  C01  14887   0.253   8.558   8.035
    1HEX  C02  14888   0.201   8.568   8.179
    1HEX  C03  14889   0.049   8.565   8.178
    1HEX  O04  14890  17.429   8.461   8.152
    1HEX  O05  14891  17.433   8.683   8.211
    1HEX  C06  14892  17.292   8.693   8.226
    1HEX  C07  14893  17.250   8.683   8.376
    1HEX  C08  14894  17.283   8.821   8.444
    1HEX  O09  14895  17.222   8.946   8.407
    1HEX  C0A  14896  17.204   9.042   8.505
    1HEX  O0B  14897  17.179   9.017   8.623
    1HEX  C0C  14898  17.222   9.188   8.459
    1HEX  C0D  14899  17.244   9.294   8.572
    1HEX  C0F  14900  17.098   8.644   8.389
    1HEX  O0G  14901  17.080   8.500   8.402
    1HEX  C0H  14902  17.062   8.421   8.294
    1HEX  O0I  14903  17.020   8.465   8.187
    1HEX  C0J  14904  17.105   8.271   8.303
    1HEX  C0K  14905  17.127   8.184   8.436
    1HEX  C0N  14906  17.326   8.562   8.446
    1HEX  O0O  14907   0.025   8.566   8.478
    1HEX  C0P  14908   0.079   8.649   8.581
    1HEX  C0Q  14909   0.038   8.635   8.732
    1HEX  C0R  14910   0.080   8.494   8.782
    1HEX  O0S  14911   0.222   8.474   8.768
    1HEX  C0T  14912   0.305   8.476   8.875
    1HEX  O0U  14913   0.271   8.491   8.992
    1HEX  C0V  14914   0.452   8.450   8.838
    1HEX  C0W  14915   0.543   8.576   8.837
    1HEX  C0Y  14916   0.121   8.742   8.808
    1HEX  O0Z  14917   0.079   8.739   8.943
    1HEX  C10  14918   0.158   8.777   9.044
    1HEX  O11  14919   0.270   8.827   9.035
    1HEX  C12  14920   0.088   8.747   9.176
    1HEX  C13  14921   0.164   8.787   9.304
    1HEX  C15  14922  17.327   8.669   8.759
    1HEX  O16  14923  17.267   8.636   8.884
    1HEX  C17  14924  17.170   8.542   8.887
    1HEX  O18  14925  17.165   8.444   8.813
    1HEX  C19  14926  17.060   8.570   8.990
    1HEX  C1A  14927  16.926   8.618   8.927
    1HEX  H1D  14928   0.202   8.478   7.981
    1HEX  H1E  14929   0.231   8.650   7.979
    1HEX  H1F  14930   0.235   8.659   8.228
    1HEX  H1G  14931   0.235   8.484   8.238
    1HEX  H1H  14932  17.242   8.617   8.165
    1HEX  H1I  14933  17.260   8.788   8.184
    1HEX  H1J  14934  17.388   8.841   8.425
    1HEX  H1K  14935  17.272   8.808   8.551
    1HEX  H1M  14936  17.139   9.218   8.396
    1HEX  H1N  14937  17.311   9.189   8.396
    1HEX  H1O  14938  17.314   9.259   8.648
    1HEX  H1P  14939  17.151   9.317   8.625
    1HEX  H1R  14940  17.040   8.687   8.307
    1HEX  H1S  14941  17.056   8.690   8.478
    1HEX  H1T  14942  17.197   8.268   8.244
    1HEX  H1U  14943  17.032   8.221   8.239
    1HEX  H1V  14944  17.106   8.080   8.410
    1HEX  H1W  14945  17.056   8.212   8.513
    1HEX  H1Y  14946  17.321   8.480   8.374
    1HEX  H1Z  14947  17.272   8.516   8.528
    1HEX  H20  14948   0.080   8.753   8.550
    1HEX  H21  14949   0.185   8.623   8.575
    1HEX  H22  14950   0.027   8.418   8.724
    1HEX  H23  14951   0.047   8.480   8.885
    1HEX  H24  14952   0.454   8.401   8.741
    1HEX  H25  14953   0.491   8.378   8.911
    1HEX  H26  14954   0.499   8.658   8.780
    1HEX  H27  14955   0.642   8.555   8.796
    1HEX  H29  14956   0.103   8.842   8.768
    1HEX  H2A  14957   0.228   8.725   8.798
    1HEX  H2B  14958   0.067   8.640   9.177
    1HEX  H2C  14959  17.432   8.798   9.172
    1HEX  H2D  14960   0.196   8.891   9.298
    1HEX  H2E  14961   0.255   8.727   9.313
    1HEX  H2G  14962  17.260   8.632   8.683
    1HEX  H2H  14963  17.315   8.777   8.753
    1HEX  H2I  14964  17.099   8.640   9.064
    1HEX  H2J  14965  17.042   8.477   9.044
    1HEX  H2K  14966  16.936   8.636   8.820
    1HEX  H2M  14967  16.895   8.713   8.972
    1STR  S00  14968   0.249   8.606   7.861
    1STR  S0E  14969  17.320   9.444   8.649
    1STR  S0M  14970  17.196   8.058   8.563
    1STR  S0X  14971   0.708   8.640   8.790
    1STR  S14  14972   0.083   8.771   9.468
    1STR  S1B  14973  16.767   8.642   8.836
    1HEX  C01  14974   0.239   8.579  12.371
    1HEX  C02  14975   0.201   8.576  12.520
    1HEX  C03  14976   0.050   8.569  12.532
    1HEX  O04  14977  17.429   8.465  12.505
    1HEX  O05  14978  17.436   8.685  12.573
    1HEX  C06  14979  17.295   8.697  12.585
    1HEX  C07  14980  17.250   8.685  12.733
    1HEX  C08  14981  17.279   8.821  12.805
    1HEX  O09  14982  17.219   8.947  12.767
    1HEX  C0A  14983  17.201   9.043  12.865
    1HEX  O0B  14984  17.174   9.019  12.983
    1HEX  C0C  14985  17.222   9.189  12.820
    1HEX  C0D  14986  17.240   9.296  12.934
    1HEX  C0F  14987  17.098   8.645  12.737
    1HEX  O0G  14988  17.084   8.501  12.724
    1HEX  C0H  14989  17.059   8.443  12.604
    1HEX  O0I  14990  17.005   8.503  12.512
    1HEX  C0J  14991  17.111   8.298  12.582
    1HEX  C0K  14992  17.146   8.196  12.698
    1HEX  C0N  14993  17.322   8.562  12.803
    1HEX  O0O  14994   0.020   8.562  12.839
    1HEX  C0P  14995   0.078   8.648  12.938
    1HEX  C0Q  14996   0.042   8.635  13.090
    1HEX  C0R  14997   0.089   8.496  13.142
    1HEX  O0S  14998   0.232   8.478  13.123
    1HEX  C0T  14999   0.319   8.482  13.228
    1HEX  O0U  15000   0.288   8.500  13.345
    1HEX  C0V  15001   0.465   8.453  13.188
    1HEX  C0W  15002   0.562   8.574  13.181
    1HEX  C0Y  15003   0.123   8.746  13.162
    1HEX  O0Z  15004   0.085   8.743  13.298
    1HEX  C10  15005   0.168   8.780  13.396
    1HEX  O11  15006   0.280   8.829  13.383
    1HEX  C12  15007   0.102   8.751  13.530
    1HEX  C13  15008   0.185   8.788  13.654
    1HEX  C15  15009  17.330   8.666  13.119
    1HEX  O16  15010  17.274   8.637  13.248
    1HEX  C17  15011  17.169   8.551  13.256
    1HEX  O18  15012  17.150   8.457  13.179
    1HEX  C19  15013  17.071   8.581  13.370
    1HEX  C1A  15014  16.938   8.648  13.324
    1HEX  H1D  15015   0.188   8.500  12.316
    1HEX  H1E  15016   0.209   8.673  12.326
    1HEX  H1F  15017   0.237   8.664  12.572
    1HEX  H1G  15018   0.243   8.489  12.570
    1HEX  H1H  15019  17.245   8.625  12.520
    1HEX  H1I  15020  17.267   8.794  12.544
    1HEX  H1J  15021  17.384   8.844  12.789
    1HEX  H1K  15022  17.264   8.807  12.911
    1HEX  H1M  15023  17.140   9.218  12.754
    1HEX  H1N  15024  17.312   9.190  12.759
    1HEX  H1O  15025  17.316   9.267  13.007
    1HEX  H1P  15026  17.148   9.310  12.990
    1HEX  H1R  15027  17.040   8.701  12.663
    1HEX  H1S  15028  17.055   8.674  12.833
    1HEX  H1T  15029  17.202   8.313  12.523
    1HEX  H1U  15030  17.040   8.253  12.513
    1HEX  H1V  15031  17.109   8.096  12.671
    1HEX  H1W  15032  17.095   8.223  12.790
    1HEX  H1Y  15033  17.318   8.481  12.731
    1HEX  H1Z  15034  17.262   8.517  12.882
    1HEX  H20  15035   0.078   8.751  12.906
    1HEX  H21  15036   0.184   8.622  12.929
    1HEX  H22  15037   0.037   8.417  13.087
    1HEX  H23  15038   0.060   8.483  13.246
    1HEX  H24  15039   0.462   8.400  13.093
    1HEX  H25  15040   0.502   8.382  13.262
    1HEX  H26  15041   0.516   8.661  13.135
    1HEX  H27  15042   0.654   8.551  13.127
    1HEX  H29  15043   0.102   8.844  13.121
    1HEX  H2A  15044   0.231   8.730  13.150
    1HEX  H2B  15045   0.079   8.644  13.531
    1HEX  H2C  15046   0.008   8.804  13.531
    1HEX  H2D  15047   0.218   8.892  13.651
    1HEX  H2E  15048   0.274   8.726  13.662
    1HEX  H2G  15049  17.264   8.623  13.046
    1HEX  H2H  15050  17.315   8.773  13.110
    1HEX  H2I  15051  17.122   8.639  13.446
    1HEX  H2J  15052  17.048   8.485  13.415
    1HEX  H2K  15053  16.923   8.642  13.216
    1HEX  H2M  15054  16.935   8.754  13.352
    1STR  S00  15055   0.162   8.669  12.233
    1STR  S0E  15056  17.298   9.460  12.998
    1STR  S0M  15057  17.240   8.042  12.756
    1STR  S0X  15058   0.734   8.618  13.129
    1STR  S14  15059   0.110   8.767  13.819
    1STR  S1B  15060  16.776   8.708  13.256
    1HEX  C01  15061   0.243  12.938  16.734
    1HEX  C02  15062   0.200  12.937  16.881
    1HEX  C03  15063   0.049  12.933  16.892
    1HEX  O04  15064  17.426  12.832  16.861
    1HEX  O05  15065  17.437  13.050  16.934
    1HEX  C06  15066  17.296  13.066  16.944
    1HEX  C07  15067  17.248  13.056  17.091
    1HEX  C08  15068  17.282  13.190  17.165
    1HEX  O09  15069  17.226  13.317  17.128
    1HEX  C0A  15070  17.214  13.415  17.225
    1HEX  O0B  15071  17.192  13.392  17.344
    1HEX  C0C  15072  17.235  13.560  17.176
    1HEX  C0D  15073  17.265  13.669  17.286
    1HEX  C0F  15074  17.094  13.028  17.094
    1HEX  O0G  15075  17.068  12.888  17.073
    1HEX  C0H  15076  17.037  12.840  16.951
    1HEX  O0I  15077  16.991  12.909  16.860
    1HEX  C0J  15078  17.073  12.692  16.926
    1HEX  C0K  15079  17.075  12.591  17.045
    1HEX  C0N  15080  17.312  12.928  17.160
    1HEX  O0O  15081   0.011  12.920  17.198
    1HEX  C0P  15082   0.075  13.004  17.294
    1HEX  C0Q  15083   0.042  12.994   0.007
    1HEX  C0R  15084   0.090  12.856   0.060
    1HEX  O0S  15085   0.232  12.839   0.045
    1HEX  C0T  15086   0.317  12.843   0.152
    1HEX  O0U  15087   0.282  12.858   0.269
    1HEX  C0V  15088   0.464  12.816   0.116
    1HEX  C0W  15089   0.560  12.938   0.117
    1HEX  C0Y  15090   0.123  13.105   0.077
    1HEX  O0Z  15091   0.087  13.104   0.214
    1HEX  C10  15092   0.169  13.143   0.310
    1HEX  O11  15093   0.281  13.193   0.296
    1HEX  C12  15094   0.106  13.115   0.446
    1HEX  C13  15095   0.192  13.152   0.568
    1HEX  C15  15096  17.331  13.023   0.038
    1HEX  O16  15097  17.281  12.993   0.169
    1HEX  C17  15098  17.182  12.902   0.183
    1HEX  O18  15099  17.159  12.809   0.106
    1HEX  C19  15100  17.096  12.925   0.306
    1HEX  C1A  15101  16.960  12.993   0.274
    1HEX  H1D  15102   0.189  12.863  16.677
    1HEX  H1E  15103   0.221  13.035  16.688
    1HEX  H1F  15104   0.238  13.024  16.934
    1HEX  H1G  15105   0.240  12.849  16.932
    1HEX  H1H  15106  17.246  12.994  16.879
    1HEX  H1I  15107  17.271  13.163  16.902
    1HEX  H1J  15108  17.388  13.209  17.150
    1HEX  H1K  15109  17.266  13.174  17.271
    1HEX  H1M  15110  17.150  13.590  17.115
    1HEX  H1N  15111  17.321  13.557  17.109
    1HEX  H1O  15112  17.339  13.634  17.358
    1HEX  H1P  15113  17.175  13.692  17.343
    1HEX  H1R  15114  17.041  13.092  17.024
    1HEX  H1S  15115  17.054  13.054  17.192
    1HEX  H1T  15116  17.172  12.694  16.882
    1HEX  H1U  15117  17.007  12.657  16.847
    1HEX  H1V  15118  17.030  12.496  17.017
    1HEX  H1W  15119  17.023  12.628  17.133
    1HEX  H1Y  15120  17.305  12.848  17.086
    1HEX  H1Z  15121  17.248  12.885  17.236
    1HEX  H20  15122   0.078  13.106  17.261
    1HEX  H21  15123   0.179  12.973  17.284
    1HEX  H22  15124   0.039  12.776   0.005
    1HEX  H23  15125   0.059  12.843   0.164
    1HEX  H24  15126   0.465  12.767   0.019
    1HEX  H25  15127   0.500  12.742   0.188
    1HEX  H26  15128   0.515  13.026   0.071
    1HEX  H27  15129   0.654  12.916   0.065
    1HEX  H29  15130   0.101  13.204   0.036
    1HEX  H2A  15131   0.231  13.090   0.065
    1HEX  H2B  15132   0.083  13.009   0.448
    1HEX  H2C  15133   0.012  13.169   0.449
    1HEX  H2D  15134   0.221  13.257   0.563
    1HEX  H2E  15135   0.285  13.094   0.567
    1HEX  H2G  15136  17.264  12.978  17.407
    1HEX  H2H  15137  17.314  13.130   0.029
    1HEX  H2I  15138  17.153  12.981   0.380
    1HEX  H2J  15139  17.076  12.827   0.350
    1HEX  H2K  15140  16.934  12.987   0.168
    1HEX  H2M  15141  16.962  13.099   0.300
    1STR  S00  15142   0.170  13.039  16.601
    1STR  S0E  15143  17.346  13.827  17.339
    1STR  S0M  15144  17.135  12.441  17.136
    1STR  S0X  15145   0.732  12.999   0.086
    1STR  S14  15146   0.125  13.126   0.736
    1STR  S1B  15147  16.793  13.024   0.206
    1HEX  C01  15148   0.260  12.931   3.670
    1HEX  C02  15149   0.205  12.931   3.813
    1HEX  C03  15150   0.053  12.925   3.812
    1HEX  O04  15151  17.434  12.821   3.784
    1HEX  O05  15152  17.436  13.042   3.849
    1HEX  C06  15153  17.295  13.049   3.865
    1HEX  C07  15154  17.254  13.036   4.015
    1HEX  C08  15155  17.282  13.175   4.083
    1HEX  O09  15156  17.220  13.298   4.043
    1HEX  C0A  15157  17.200  13.395   4.140
    1HEX  O0B  15158  17.171  13.371   4.257
    1HEX  C0C  15159  17.223  13.540   4.093
    1HEX  C0D  15160  17.250  13.643   4.208
    1HEX  C0F  15161  17.104  12.990   4.027
    1HEX  O0G  15162  17.094  12.845   4.038
    1HEX  C0H  15163  17.087  12.766   3.928
    1HEX  O0I  15164  17.044  12.808   3.821
    1HEX  C0J  15165  17.143  12.619   3.935
    1HEX  C0K  15166  17.189  12.537   4.065
    1HEX  C0N  15167  17.334  12.919   4.085
    1HEX  O0O  15168   0.032  12.929   4.118
    1HEX  C0P  15169   0.082  13.011   4.223
    1HEX  C0Q  15170   0.039  12.995   4.373
    1HEX  C0R  15171   0.080  12.854   4.423
    1HEX  O0S  15172   0.222  12.833   4.409
    1HEX  C0T  15173   0.305  12.835   4.516
    1HEX  O0U  15174   0.271  12.851   4.633
    1HEX  C0V  15175   0.451  12.807   4.480
    1HEX  C0W  15176   0.545  12.931   4.483
    1HEX  C0Y  15177   0.120  13.102   4.450
    1HEX  O0Z  15178   0.079  13.098   4.585
    1HEX  C10  15179   0.158  13.134   4.685
    1HEX  O11  15180   0.270  13.185   4.677
    1HEX  C12  15181   0.089  13.103   4.818
    1HEX  C13  15182   0.167  13.137   4.946
    1HEX  C15  15183  17.327  13.029   4.397
    1HEX  O16  15184  17.263  12.999   4.522
    1HEX  C17  15185  17.157  12.913   4.521
    1HEX  O18  15186  17.147  12.816   4.448
    1HEX  C19  15187  17.046  12.949   4.620
    1HEX  C1A  15188  16.916  13.006   4.553
    1HEX  H1D  15189   0.206  12.860   3.607
    1HEX  H1E  15190   0.252  13.030   3.625
    1HEX  H1F  15191   0.238  13.019   3.869
    1HEX  H1G  15192   0.240  12.843   3.868
    1HEX  H1H  15193  17.245  12.975   3.802
    1HEX  H1I  15194  17.262  13.145   3.824
    1HEX  H1J  15195  17.387  13.198   4.065
    1HEX  H1K  15196  17.269  13.163   4.189
    1HEX  H1M  15197  17.139  13.572   4.032
    1HEX  H1N  15198  17.310  13.538   4.029
    1HEX  H1O  15199  17.322  13.606   4.281
    1HEX  H1P  15200  17.159  13.665   4.264
    1HEX  H1R  15201  17.043  13.030   3.945
    1HEX  H1S  15202  17.059  13.034   4.116
    1HEX  H1T  15203  17.227  12.624   3.867
    1HEX  H1U  15204  17.067  12.562   3.880
    1HEX  H1V  15205  17.175  12.430   4.045
    1HEX  H1W  15206  17.124  12.560   4.150
    1HEX  H1Y  15207  17.333  12.836   4.014
    1HEX  H1Z  15208  17.281  12.871   4.167
    1HEX  H20  15209   0.081  13.115   4.193
    1HEX  H21  15210   0.189  12.987   4.218
    1HEX  H22  15211   0.028  12.777   4.365
    1HEX  H23  15212   0.047  12.839   4.526
    1HEX  H24  15213   0.454  12.760   4.382
    1HEX  H25  15214   0.488  12.733   4.551
    1HEX  H26  15215   0.505  13.014   4.426
    1HEX  H27  15216   0.643  12.906   4.442
    1HEX  H29  15217   0.103  13.202   4.410
    1HEX  H2A  15218   0.228  13.085   4.441
    1HEX  H2B  15219   0.066  12.997   4.815
    1HEX  H2C  15220  17.434  13.157   4.816
    1HEX  H2D  15221   0.201  13.240   4.943
    1HEX  H2E  15222   0.256  13.074   4.953
    1HEX  H2G  15223  17.262  12.991   4.320
    1HEX  H2H  15224  17.315  13.137   4.390
    1HEX  H2I  15225  17.087  13.018   4.695
    1HEX  H2J  15226  17.022  12.858   4.674
    1HEX  H2K  15227  16.928  13.017   4.446
    1HEX  H2M  15228  16.892  13.105   4.593
    1STR  S00  15229   0.217  13.043   3.533
    1STR  S0E  15230  17.348  13.788   4.262
    1STR  S0M  15231  17.281  12.398   4.163
    1STR  S0X  15232   0.716  12.996   4.457
    1STR  S14  15233   0.090  13.105   5.110
    1STR  S1B  15234  16.761  13.051   4.462
    1HEX  C01  15235   0.245  12.931   8.022
    1HEX  C02  15236   0.202  12.934   8.169
    1HEX  C03  15237   0.051  12.930   8.180
    1HEX  O04  15238  17.429  12.826   8.157
    1HEX  O05  15239  17.439  13.049   8.215
    1HEX  C06  15240  17.297  13.065   8.226
    1HEX  C07  15241  17.250  13.057   8.373
    1HEX  C08  15242  17.285  13.192   8.447
    1HEX  O09  15243  17.229  13.320   8.412
    1HEX  C0A  15244  17.214  13.416   8.513
    1HEX  O0B  15245  17.189  13.389   8.630
    1HEX  C0C  15246  17.235  13.563   8.469
    1HEX  C0D  15247  17.260  13.669   8.583
    1HEX  C0F  15248  17.096  13.029   8.378
    1HEX  O0G  15249  17.068  12.888   8.367
    1HEX  C0H  15250  17.045  12.830   8.248
    1HEX  O0I  15251  17.005  12.891   8.149
    1HEX  C0J  15252  17.080  12.680   8.237
    1HEX  C0K  15253  17.093  12.591   8.366
    1HEX  C0N  15254  17.314  12.930   8.443
    1HEX  O0O  15255   0.013  12.921   8.479
    1HEX  C0P  15256   0.078  13.005   8.574
    1HEX  C0Q  15257   0.046  12.996   8.727
    1HEX  C0R  15258   0.096  12.858   8.780
    1HEX  O0S  15259   0.239  12.843   8.762
    1HEX  C0T  15260   0.326  12.849   8.866
    1HEX  O0U  15261   0.294  12.864   8.984
    1HEX  C0V  15262   0.473  12.823   8.827
    1HEX  C0W  15263   0.569  12.947   8.821
    1HEX  C0Y  15264   0.127  13.108   8.797
    1HEX  O0Z  15265   0.087  13.109   8.932
    1HEX  C10  15266   0.168  13.142   9.031
    1HEX  O11  15267   0.281  13.189   9.021
    1HEX  C12  15268   0.099  13.113   9.164
    1HEX  C13  15269   0.179  13.148   9.291
    1HEX  C15  15270  17.335  13.025   8.759
    1HEX  O16  15271  17.283  12.994   8.888
    1HEX  C17  15272  17.186  12.902   8.898
    1HEX  O18  15273  17.172  12.805   8.824
    1HEX  C19  15274  17.086  12.930   9.010
    1HEX  C1A  15275  16.959  13.005   8.960
    1HEX  H1D  15276   0.189  12.855   7.966
    1HEX  H1E  15277   0.224  13.027   7.974
    1HEX  H1F  15278   0.239  13.023   8.220
    1HEX  H1G  15279   0.242  12.847   8.223
    1HEX  H1H  15280  17.247  12.991   8.163
    1HEX  H1I  15281  17.270  13.161   8.182
    1HEX  H1J  15282  17.390  13.211   8.429
    1HEX  H1K  15283  17.271  13.176   8.552
    1HEX  H1M  15284  17.151  13.593   8.406
    1HEX  H1N  15285  17.322  13.562   8.404
    1HEX  H1O  15286  17.334  13.635   8.655
    1HEX  H1P  15287  17.168  13.688   8.640
    1HEX  H1R  15288  17.042  13.088   8.303
    1HEX  H1S  15289  17.055  13.062   8.474
    1HEX  H1T  15290  17.175  12.678   8.185
    1HEX  H1U  15291  17.007  12.637   8.168
    1HEX  H1V  15292  17.058  12.489   8.345
    1HEX  H1W  15293  17.033  12.629   8.448
    1HEX  H1Y  15294  17.306  12.849   8.370
    1HEX  H1Z  15295  17.251  12.886   8.520
    1HEX  H20  15296   0.081  13.108   8.540
    1HEX  H21  15297   0.182  12.975   8.562
    1HEX  H22  15298   0.045  12.778   8.726
    1HEX  H23  15299   0.068  12.845   8.884
    1HEX  H24  15300   0.472  12.771   8.732
    1HEX  H25  15301   0.512  12.752   8.900
    1HEX  H26  15302   0.521  13.034   8.776
    1HEX  H27  15303   0.661  12.926   8.766
    1HEX  H29  15304   0.105  13.206   8.754
    1HEX  H2A  15305   0.235  13.094   8.786
    1HEX  H2B  15306   0.076  13.007   9.163
    1HEX  H2C  15307   0.005  13.167   9.163
    1HEX  H2D  15308   0.206  13.254   9.291
    1HEX  H2E  15309   0.272  13.092   9.294
    1HEX  H2G  15310  17.268  12.982   8.687
    1HEX  H2H  15311  17.318  13.132   8.750
    1HEX  H2I  15312  17.136  12.984   9.091
    1HEX  H2J  15313  17.057  12.833   9.051
    1HEX  H2K  15314  16.943  12.994   8.853
    1HEX  H2M  15315  16.966  13.112   8.981
    1STR  S00  15316   0.185  13.015   7.873
    1STR  S0E  15317  17.327  13.827   8.657
    1STR  S0M  15318  17.162  12.451   8.468
    1STR  S0X  15319   0.737  13.006   8.769
    1STR  S14  15320   0.081  13.121   9.442
    1STR  S1B  15321  16.806  13.052   8.871
    1HEX  C01  15322   0.248  12.899  12.402
    1HEX  C02  15323   0.196  12.917  12.546
    1HEX  C03  15324   0.045  12.919  12.544
    1HEX  O04  15325  17.421  12.817  12.519
    1HEX  O05  15326  17.434  13.040  12.575
    1HEX  C06  15327  17.292  13.056  12.587
    1HEX  C07  15328  17.247  13.047  12.735
    1HEX  C08  15329  17.281  13.184  12.805
    1HEX  O09  15330  17.222  13.309  12.767
    1HEX  C0A  15331  17.206  13.407  12.863
    1HEX  O0B  15332  17.184  13.384  12.982
    1HEX  C0C  15333  17.224  13.552  12.814
    1HEX  C0D  15334  17.247  13.660  12.925
    1HEX  C0F  15335  17.094  13.015  12.744
    1HEX  O0G  15336  17.071  12.871  12.746
    1HEX  C0H  15337  17.046  12.803  12.632
    1HEX  O0I  15338  17.001  12.857  12.531
    1HEX  C0J  15339  17.083  12.653  12.628
    1HEX  C0K  15340  17.090  12.556  12.754
    1HEX  C0N  15341  17.317  12.924  12.807
    1HEX  O0O  15342   0.016  12.922  12.841
    1HEX  C0P  15343   0.076  13.006  12.939
    1HEX  C0Q  15344   0.039  12.995  13.091
    1HEX  C0R  15345   0.084  12.855  13.142
    1HEX  O0S  15346   0.226  12.836  13.127
    1HEX  C0T  15347   0.310  12.839  13.234
    1HEX  O0U  15348   0.277  12.857  13.351
    1HEX  C0V  15349   0.457  12.810  13.197
    1HEX  C0W  15350   0.552  12.933  13.187
    1HEX  C0Y  15351   0.122  13.104  13.164
    1HEX  O0Z  15352   0.082  13.102  13.300
    1HEX  C10  15353   0.163  13.140  13.399
    1HEX  O11  15354   0.274  13.191  13.387
    1HEX  C12  15355   0.095  13.112  13.532
    1HEX  C13  15356   0.174  13.153  13.658
    1HEX  C15  15357  17.328  13.028  13.121
    1HEX  O16  15358  17.273  12.994  13.248
    1HEX  C17  15359  17.178  12.898  13.255
    1HEX  O18  15360  17.168  12.803  13.178
    1HEX  C19  15361  17.077  12.921  13.367
    1HEX  C1A  15362  16.939  12.971  13.315
    1HEX  H1D  15363   0.216  12.802  12.363
    1HEX  H1E  15364   0.204  12.973  12.336
    1HEX  H1F  15365   0.233  13.009  12.591
    1HEX  H1G  15366   0.228  12.835  12.610
    1HEX  H1H  15367  17.241  12.983  12.524
    1HEX  H1I  15368  17.265  13.152  12.544
    1HEX  H1J  15369  17.386  13.204  12.786
    1HEX  H1K  15370  17.269  13.171  12.911
    1HEX  H1M  15371  17.140  13.580  12.751
    1HEX  H1N  15372  17.312  13.552  12.750
    1HEX  H1O  15373  17.320  13.628  12.999
    1HEX  H1P  15374  17.155  13.683  12.979
    1HEX  H1R  15375  17.039  13.066  12.665
    1HEX  H1S  15376  17.053  13.055  12.837
    1HEX  H1T  15377  17.180  12.651  12.577
    1HEX  H1U  15378  17.014  12.610  12.555
    1HEX  H1V  15379  17.058  12.456  12.725
    1HEX  H1W  15380  17.025  12.590  12.834
    1HEX  H1Y  15381  17.309  12.841  12.736
    1HEX  H1Z  15382  17.258  12.880  12.887
    1HEX  H20  15383   0.077  13.109  12.907
    1HEX  H21  15384   0.181  12.978  12.930
    1HEX  H22  15385   0.032  12.777  13.086
    1HEX  H23  15386   0.052  12.841  13.246
    1HEX  H24  15387   0.457  12.754  13.104
    1HEX  H25  15388   0.496  12.742  13.273
    1HEX  H26  15389   0.498  13.023  13.157
    1HEX  H27  15390   0.629  12.915  13.112
    1HEX  H29  15391   0.102  13.203  13.123
    1HEX  H2A  15392   0.229  13.087  13.153
    1HEX  H2B  15393   0.074  13.005  13.535
    1HEX  H2C  15394  -0.001  13.163  13.530
    1HEX  H2D  15395   0.204  13.258  13.651
    1HEX  H2E  15396   0.265  13.095  13.665
    1HEX  H2G  15397  17.260  12.990  13.047
    1HEX  H2H  15398  17.315  13.136  13.114
    1HEX  H2I  15399  17.120  12.990  13.440
    1HEX  H2J  15400  17.063  12.826  13.418
    1HEX  H2K  15401  16.936  12.983  13.207
    1HEX  H2M  15402  16.914  13.069  13.358
    1STR  S00  15403   0.183  12.882  12.234
    1STR  S0E  15404  17.321  13.818  12.984
    1STR  S0M  15405  17.141  12.427  12.882
    1STR  S0X  15406   0.724  12.988  13.148
    1STR  S14  15407   0.097  13.144  13.824
    1STR  S1B  15408  16.779  12.975  13.226
    1HEX  C01  15409   4.592  17.301  16.779
    1HEX  C02  15410   4.548  17.273  16.923
    1HEX  C03  15411   4.397  17.269  16.923
    1HEX  O04  15412   4.336  17.167  16.890
    1HEX  O05  15413   4.346  17.389  16.953
    1HEX  C06  15414   4.206  17.408  16.955
    1HEX  C07  15415   4.157  17.399  17.101
    1HEX  C08  15416   4.189   0.096  17.170
    1HEX  O09  15417   4.129   0.220  17.128
    1HEX  C0A  15418   4.113   0.318  17.223
    1HEX  O0B  15419   4.086   0.297  17.341
    1HEX  C0C  15420   4.136   0.462  17.173
    1HEX  C0D  15421   4.154   0.568  17.285
    1HEX  C0F  15422   4.005  17.364  17.101
    1HEX  O0G  15423   3.988  17.220  17.085
    1HEX  C0H  15424   3.968  17.166  16.964
    1HEX  O0I  15425   3.918  17.228  16.870
    1HEX  C0J  15426   4.020  17.021  16.940
    1HEX  C0K  15427   4.053  16.919  17.056
    1HEX  C0N  15428   4.224  17.277  17.177
    1HEX  O0O  15429   4.364  17.273  17.211
    1HEX  C0P  15430   4.430  17.362  17.301
    1HEX  C0Q  15431   4.400  17.355   0.014
    1HEX  C0R  15432   4.445  17.215   0.065
    1HEX  O0S  15433   4.587  17.195   0.047
    1HEX  C0T  15434   4.674  17.197   0.152
    1HEX  O0U  15435   4.642  17.214   0.270
    1HEX  C0V  15436   4.819  17.167   0.113
    1HEX  C0W  15437   4.917  17.288   0.110
    1HEX  C0Y  15438   4.485   0.024   0.084
    1HEX  O0Z  15439   4.446   0.024   0.220
    1HEX  C10  15440   4.528   0.058   0.319
    1HEX  O11  15441   4.641   0.105   0.308
    1HEX  C12  15442   4.461   0.028   0.452
    1HEX  C13  15443   4.542   0.062   0.579
    1HEX  C15  15444   4.250  17.389   0.046
    1HEX  O16  15445   4.197  17.354   0.174
    1HEX  C17  15446   4.101  17.259   0.181
    1HEX  O18  15447   4.085  17.168   0.101
    1HEX  C19  15448   4.006  17.279   0.299
    1HEX  C1A  15449   3.868  17.337   0.258
    1HEX  H1D  15450   4.558  17.221  16.712
    1HEX  H1E  15451   4.549  17.393  16.741
    1HEX  H1F  15452   4.580  17.352  16.991
    1HEX  H1G  15453   4.586  17.179  16.961
    1HEX  H1H  15454   4.157  17.337  16.888
    1HEX  H1I  15455   4.184   0.066  16.911
    1HEX  H1J  15456   4.293   0.117  17.152
    1HEX  H1K  15457   4.176   0.085  17.277
    1HEX  H1M  15458   4.055   0.491  17.106
    1HEX  H1N  15459   4.227   0.460  17.113
    1HEX  H1O  15460   4.231   0.540  17.357
    1HEX  H1P  15461   4.062   0.583  17.342
    1HEX  H1R  15462   3.951  17.422  17.026
    1HEX  H1S  15463   3.960  17.393  17.197
    1HEX  H1T  15464   4.112  17.036  16.883
    1HEX  H1U  15465   3.951  16.977  16.869
    1HEX  H1V  15466   4.013  16.820  17.030
    1HEX  H1W  15467   4.004  16.948  17.149
    1HEX  H1Y  15468   4.218  17.193  17.108
    1HEX  H1Z  15469   4.162  17.237  17.256
    1HEX  H20  15470   4.429   0.024  17.265
    1HEX  H21  15471   4.534  17.334  17.288
    1HEX  H22  15472   4.392  17.137   0.011
    1HEX  H23  15473   4.416  17.202   0.170
    1HEX  H24  15474   4.818  17.117   0.017
    1HEX  H25  15475   4.856  17.094   0.186
    1HEX  H26  15476   4.873  17.375   0.060
    1HEX  H27  15477   5.010  17.263   0.060
    1HEX  H29  15478   4.465   0.123   0.042
    1HEX  H2A  15479   4.592   0.007   0.072
    1HEX  H2B  15480   4.437  17.361   0.451
    1HEX  H2C  15481   4.366   0.082   0.452
    1HEX  H2D  15482   4.577   0.165   0.575
    1HEX  H2E  15483   4.630  17.438   0.587
    1HEX  H2G  15484   4.182  17.351  17.413
    1HEX  H2H  15485   4.237   0.056   0.040
    1HEX  H2I  15486   4.055  17.341   0.374
    1HEX  H2J  15487   3.991  17.181   0.345
    1HEX  H2K  15488   3.854  17.337   0.150
    1HEX  H2M  15489   3.857   0.000   0.291
    1STR  S00  15490   4.519   0.011  16.707
    1STR  S0E  15491   4.219   0.732  17.336
    1STR  S0M  15492   4.143  16.764  17.114
    1STR  S0X  15493   5.091  17.332   0.067
    1STR  S14  15494   4.473   0.029   0.745
    1STR  S1B  15495   3.704  17.347   0.178
    1HEX  C01  15496   4.634  17.336   3.700
    1HEX  C02  15497   4.572  17.317   3.839
    1HEX  C03  15498   4.421  17.304   3.831
    1HEX  O04  15499   4.367  17.197   3.803
    1HEX  O05  15500   4.358  17.420   3.858
    1HEX  C06  15501   4.216  17.426   3.865
    1HEX  C07  15502   4.167  17.416   4.012
    1HEX  C08  15503   4.201   0.111   4.086
    1HEX  O09  15504   4.147   0.240   4.050
    1HEX  C0A  15505   4.137   0.338   4.149
    1HEX  O0B  15506   4.115   0.314   4.268
    1HEX  C0C  15507   4.160   0.484   4.102
    1HEX  C0D  15508   4.192   0.592   4.213
    1HEX  C0F  15509   4.013  17.388   4.014
    1HEX  O0G  15510   3.987  17.247   3.996
    1HEX  C0H  15511   3.958  17.196   3.875
    1HEX  O0I  15512   3.914  17.263   3.781
    1HEX  C0J  15513   3.992  17.047   3.854
    1HEX  C0K  15514   3.994  16.948   3.975
    1HEX  C0N  15515   4.230  17.289   4.082
    1HEX  O0O  15516   4.368  17.279   4.120
    1HEX  C0P  15517   4.433  17.363   4.216
    1HEX  C0Q  15518   4.399  17.354   4.369
    1HEX  C0R  15519   4.450  17.217   4.423
    1HEX  O0S  15520   4.594  17.203   4.405
    1HEX  C0T  15521   4.680  17.208   4.511
    1HEX  O0U  15522   4.647  17.221   4.629
    1HEX  C0V  15523   4.828  17.183   4.473
    1HEX  C0W  15524   4.924  17.306   4.474
    1HEX  C0Y  15525   4.480   0.027   4.437
    1HEX  O0Z  15526   4.443   0.027   4.573
    1HEX  C10  15527   4.528   0.062   4.669
    1HEX  O11  15528   4.640   0.109   4.653
    1HEX  C12  15529   4.466   0.033   4.804
    1HEX  C13  15530   4.555   0.066   4.924
    1HEX  C15  15531   4.247  17.384   4.398
    1HEX  O16  15532   4.187  17.355   4.525
    1HEX  C17  15533   4.077  17.275   4.527
    1HEX  O18  15534   4.060  17.177   4.455
    1HEX  C19  15535   3.969  17.316   4.629
    1HEX  C1A  15536   3.838  17.377   4.567
    1HEX  H1D  15537   4.672  17.241   3.663
    1HEX  H1E  15538   4.562  17.373   3.628
    1HEX  H1F  15539   4.594  17.403   3.903
    1HEX  H1G  15540   4.611  17.229   3.889
    1HEX  H1H  15541   4.172  17.348   3.802
    1HEX  H1I  15542   4.184   0.080   3.820
    1HEX  H1J  15543   4.307   0.129   4.072
    1HEX  H1K  15544   4.183   0.095   4.192
    1HEX  H1M  15545   4.075   0.515   4.042
    1HEX  H1N  15546   4.246   0.480   4.035
    1HEX  H1O  15547   4.265   0.555   4.285
    1HEX  H1P  15548   4.103   0.616   4.270
    1HEX  H1R  15549   3.959   0.010   3.942
    1HEX  H1S  15550   3.972  17.415   4.112
    1HEX  H1T  15551   4.091  17.047   3.809
    1HEX  H1U  15552   3.925  17.011   3.775
    1HEX  H1V  15553   3.949  16.852   3.947
    1HEX  H1W  15554   3.939  16.986   4.061
    1HEX  H1Y  15555   4.224  17.209   4.008
    1HEX  H1Z  15556   4.166  17.244   4.157
    1HEX  H20  15557   4.436   0.026   4.182
    1HEX  H21  15558   4.537  17.333   4.205
    1HEX  H22  15559   4.400  17.136   4.369
    1HEX  H23  15560   4.421  17.205   4.527
    1HEX  H24  15561   4.828  17.134   4.375
    1HEX  H25  15562   4.865  17.109   4.544
    1HEX  H26  15563   4.880  17.394   4.429
    1HEX  H27  15564   5.020  17.286   4.425
    1HEX  H29  15565   4.457   0.125   4.394
    1HEX  H2A  15566   4.588   0.013   4.424
    1HEX  H2B  15567   4.441  17.367   4.804
    1HEX  H2C  15568   4.372   0.088   4.810
    1HEX  H2D  15569   4.583   0.171   4.923
    1HEX  H2E  15570   4.648   0.009   4.919
    1HEX  H2G  15571   4.183  17.341   4.324
    1HEX  H2H  15572   4.232   0.051   4.388
    1HEX  H2I  15573   4.014  17.382   4.703
    1HEX  H2J  15574   3.943  17.225   4.683
    1HEX  H2K  15575   3.844  17.382   4.458
    1HEX  H2M  15576   3.823   0.039   4.602
    1STR  S00  15577   4.574  17.431   3.557
    1STR  S0E  15578   4.273   0.748   4.276
    1STR  S0M  15579   4.050  16.798   4.069
    1STR  S0X  15580   5.095  17.371   4.437
    1STR  S14  15581   4.481   0.020   5.084
    1STR  S1B  15582   3.681  17.430   4.483
    1HEX  C01  15583   4.619  17.288   8.034
    1HEX  C02  15584   4.564  17.289   8.177
    1HEX  C03  15585   4.413  17.285   8.175
    1HEX  O04  15586   4.353  17.181   8.147
    1HEX  O05  15587   4.356  17.403   8.208
    1HEX  C06  15588   4.215  17.411   8.225
    1HEX  C07  15589   4.174  17.398   8.374
    1HEX  C08  15590   4.202   0.097   8.444
    1HEX  O09  15591   4.141   0.223   8.407
    1HEX  C0A  15592   4.125   0.319   8.506
    1HEX  O0B  15593   4.101   0.293   8.624
    1HEX  C0C  15594   4.144   0.465   8.461
    1HEX  C0D  15595   4.169   0.571   8.575
    1HEX  C0F  15596   4.025  17.351   8.385
    1HEX  O0G  15597   4.015  17.205   8.396
    1HEX  C0H  15598   4.009  17.127   8.285
    1HEX  O0I  15599   3.964  17.170   8.179
    1HEX  C0J  15600   4.065  16.981   8.290
    1HEX  C0K  15601   4.113  16.897   8.418
    1HEX  C0N  15602   4.254  17.281   8.445
    1HEX  O0O  15603   4.393  17.290   8.477
    1HEX  C0P  15604   4.445  17.372   8.581
    1HEX  C0Q  15605   4.403  17.356   8.731
    1HEX  C0R  15606   4.443  17.214   8.780
    1HEX  O0S  15607   4.585  17.193   8.767
    1HEX  C0T  15608   4.667  17.194   8.875
    1HEX  O0U  15609   4.632  17.209   8.992
    1HEX  C0V  15610   4.814  17.169   8.840
    1HEX  C0W  15611   4.903  17.296   8.840
    1HEX  C0Y  15612   4.485   0.023   8.809
    1HEX  O0Z  15613   4.444   0.018   8.943
    1HEX  C10  15614   4.521   0.055   9.045
    1HEX  O11  15615   4.632   0.106   9.038
    1HEX  C12  15616   4.449   0.025   9.176
    1HEX  C13  15617   4.523   0.062   9.306
    1HEX  C15  15618   4.252  17.390   8.758
    1HEX  O16  15619   4.199  17.363   8.888
    1HEX  C17  15620   4.103  17.269   8.902
    1HEX  O18  15621   4.086  17.173   8.829
    1HEX  C19  15622   4.010  17.297   9.019
    1HEX  C1A  15623   3.886  17.382   8.977
    1HEX  H1D  15624   4.572  17.209   7.975
    1HEX  H1E  15625   4.597  17.382   7.984
    1HEX  H1F  15626   4.598  17.376   8.233
    1HEX  H1G  15627   4.598  17.201   8.232
    1HEX  H1H  15628   4.165  17.337   8.162
    1HEX  H1I  15629   4.183   0.068   8.184
    1HEX  H1J  15630   4.307   0.119   8.428
    1HEX  H1K  15631   4.187   0.083   8.550
    1HEX  H1M  15632   4.060   0.496   8.400
    1HEX  H1N  15633   4.231   0.466   8.396
    1HEX  H1O  15634   4.238   0.533   8.651
    1HEX  H1P  15635   4.077   0.596   8.627
    1HEX  H1R  15636   3.964  17.392   8.304
    1HEX  H1S  15637   3.980  17.394   8.475
    1HEX  H1T  15638   4.149  16.987   8.221
    1HEX  H1U  15639   3.990  16.924   8.235
    1HEX  H1V  15640   4.100  16.791   8.396
    1HEX  H1W  15641   4.050  16.919   8.503
    1HEX  H1Y  15642   4.252  17.198   8.375
    1HEX  H1Z  15643   4.201  17.235   8.528
    1HEX  H20  15644   4.444   0.036   8.551
    1HEX  H21  15645   4.551  17.347   8.575
    1HEX  H22  15646   4.391  17.138   8.722
    1HEX  H23  15647   4.410  17.199   8.883
    1HEX  H24  15648   4.817  17.121   8.742
    1HEX  H25  15649   4.852  17.097   8.912
    1HEX  H26  15650   4.859  17.378   8.784
    1HEX  H27  15651   5.003  17.277   8.799
    1HEX  H29  15652   4.467   0.123   8.769
    1HEX  H2A  15653   4.593   0.006   8.799
    1HEX  H2B  15654   4.427  17.358   9.175
    1HEX  H2C  15655   4.353   0.077   9.171
    1HEX  H2D  15656   4.555   0.166   9.302
    1HEX  H2E  15657   4.613   0.001   9.315
    1HEX  H2G  15658   4.184  17.347   8.687
    1HEX  H2H  15659   4.239   0.057   8.749
    1HEX  H2I  15660   4.066  17.345   9.100
    1HEX  H2J  15661   3.977  17.201   9.057
    1HEX  H2K  15662   3.857  17.365   8.873
    1HEX  H2M  15663   3.905   0.048   8.988
    1STR  S00  15664   4.609  17.380   7.879
    1STR  S0E  15665   4.255   0.713   8.655
    1STR  S0M  15666   4.207  16.757   8.512
    1STR  S0X  15667   5.067  17.366   8.799
    1STR  S14  15668   4.440   0.039   9.469
    1STR  S1B  15669   3.733   0.004   8.898
    1HEX  C01  15670   4.599  17.295  12.375
    1HEX  C02  15671   4.559  17.294  12.523
    1HEX  C03  15672   4.407  17.290  12.534
    1HEX  O04  15673   4.344  17.188  12.506
    1HEX  O05  15674   4.355  17.408  12.575
    1HEX  C06  15675   4.215  17.423  12.587
    1HEX  C07  15676   4.170  17.415  12.735
    1HEX  C08  15677   4.208   0.110  12.806
    1HEX  O09  15678   4.147   0.236  12.770
    1HEX  C0A  15679   4.127   0.330  12.869
    1HEX  O0B  15680   4.097   0.303  12.985
    1HEX  C0C  15681   4.147   0.477  12.825
    1HEX  C0D  15682   4.166   0.582  12.940
    1HEX  C0F  15683   4.015  17.391  12.743
    1HEX  O0G  15684   3.987  17.250  12.732
    1HEX  C0H  15685   3.961  17.193  12.614
    1HEX  O0I  15686   3.917  17.253  12.517
    1HEX  C0J  15687   3.997  17.043  12.603
    1HEX  C0K  15688   4.020  16.957  12.732
    1HEX  C0N  15689   4.234  17.288  12.803
    1HEX  O0O  15690   4.373  17.281  12.839
    1HEX  C0P  15691   4.436  17.364  12.937
    1HEX  C0Q  15692   4.402  17.354  13.089
    1HEX  C0R  15693   4.451  17.216  13.142
    1HEX  O0S  15694   4.594  17.200  13.123
    1HEX  C0T  15695   4.682  17.205  13.227
    1HEX  O0U  15696   4.651  17.222  13.344
    1HEX  C0V  15697   4.828  17.177  13.187
    1HEX  C0W  15698   4.925  17.299  13.178
    1HEX  C0Y  15699   4.483   0.025  13.160
    1HEX  O0Z  15700   4.444   0.024  13.296
    1HEX  C10  15701   4.527   0.061  13.394
    1HEX  O11  15702   4.639   0.109  13.381
    1HEX  C12  15703   4.461   0.032  13.528
    1HEX  C13  15704   4.543   0.071  13.653
    1HEX  C15  15705   4.250  17.384  13.119
    1HEX  O16  15706   4.192  17.349  13.245
    1HEX  C17  15707   4.090  17.260  13.247
    1HEX  O18  15708   4.080  17.164  13.171
    1HEX  C19  15709   3.982  17.289  13.351
    1HEX  C1A  15710   3.847  17.337  13.289
    1HEX  H1D  15711   4.547  17.217  12.320
    1HEX  H1E  15712   4.571  17.390  12.328
    1HEX  H1F  15713   4.596  17.382  12.575
    1HEX  H1G  15714   4.599  17.207  12.574
    1HEX  H1H  15715   4.164  17.349  12.526
    1HEX  H1I  15716   4.187   0.079  12.542
    1HEX  H1J  15717   4.312   0.129  12.785
    1HEX  H1K  15718   4.198   0.096  12.912
    1HEX  H1M  15719   4.064   0.506  12.760
    1HEX  H1N  15720   4.236   0.478  12.763
    1HEX  H1O  15721   4.242   0.550  13.013
    1HEX  H1P  15722   4.074   0.596  12.997
    1HEX  H1R  15723   3.961   0.011  12.669
    1HEX  H1S  15724   3.977  17.424  12.840
    1HEX  H1T  15725   4.088  17.042  12.544
    1HEX  H1U  15726   3.921  16.998  12.540
    1HEX  H1V  15727   3.989  16.854  12.716
    1HEX  H1W  15728   3.963  16.995  12.817
    1HEX  H1Y  15729   4.227  17.208  12.729
    1HEX  H1Z  15730   4.172  17.242  12.880
    1HEX  H20  15731   4.438   0.027  12.904
    1HEX  H21  15732   4.540  17.335  12.926
    1HEX  H22  15733   4.399  17.136  13.088
    1HEX  H23  15734   4.423  17.203  13.246
    1HEX  H24  15735   4.826  17.124  13.092
    1HEX  H25  15736   4.867  17.106  13.260
    1HEX  H26  15737   4.878  17.386  13.133
    1HEX  H27  15738   5.016  17.277  13.122
    1HEX  H29  15739   4.461   0.124  13.118
    1HEX  H2A  15740   4.590   0.010  13.149
    1HEX  H2B  15741   4.439  17.365  13.530
    1HEX  H2C  15742   4.366   0.085  13.528
    1HEX  H2D  15743   4.573   0.175  13.649
    1HEX  H2E  15744   4.634   0.011  13.659
    1HEX  H2G  15745   4.184  17.346  13.044
    1HEX  H2H  15746   4.235   0.052  13.114
    1HEX  H2I  15747   4.022  17.360  13.423
    1HEX  H2J  15748   3.965  17.196  13.406
    1HEX  H2K  15749   3.857  17.354  13.182
    1HEX  H2M  15750   3.817  17.433  13.333
    1STR  S00  15751   4.527  17.380  12.231
    1STR  S0E  15752   4.226   0.744  13.010
    1STR  S0M  15753   4.104  16.832  12.841
    1STR  S0X  15754   5.095  17.349  13.124
    1STR  S14  15755   4.458   0.055  13.814
    1STR  S1B  15756   3.688  17.360  13.199
    1HEX  C01  15757   4.598   4.219  16.732
    1HEX  C02  15758   4.559   4.216  16.880
    1HEX  C03  15759   4.408   4.211  16.892
    1HEX  O04  15760   4.345   4.108  16.863
    1HEX  O05  15761   4.355   4.327  16.934
    1HEX  C06  15762   4.214   4.342  16.945
    1HEX  C07  15763   4.168   4.332  17.092
    1HEX  C08  15764   4.202   4.467  17.165
    1HEX  O09  15765   4.144   4.594  17.127
    1HEX  C0A  15766   4.130   4.692  17.223
    1HEX  O0B  15767   4.107   4.669  17.342
    1HEX  C0C  15768   4.151   4.836  17.174
    1HEX  C0D  15769   4.178   4.945  17.283
    1HEX  C0F  15770   4.014   4.304  17.097
    1HEX  O0G  15771   3.988   4.162  17.083
    1HEX  C0H  15772   3.958   4.108  16.964
    1HEX  O0I  15773   3.914   4.173  16.869
    1HEX  C0J  15774   3.992   3.958  16.947
    1HEX  C0K  15775   3.994   3.860  17.070
    1HEX  C0N  15776   4.233   4.206  17.162
    1HEX  O0O  15777   4.372   4.200  17.199
    1HEX  C0P  15778   4.434   4.284  17.297
    1HEX  C0Q  15779   4.399   4.274   0.010
    1HEX  C0R  15780   4.446   4.136   0.062
    1HEX  O0S  15781   4.588   4.118   0.047
    1HEX  C0T  15782   4.673   4.121   0.153
    1HEX  O0U  15783   4.640   4.139   0.270
    1HEX  C0V  15784   4.820   4.092   0.116
    1HEX  C0W  15785   4.917   4.214   0.113
    1HEX  C0Y  15786   4.481   4.385   0.081
    1HEX  O0Z  15787   4.444   4.384   0.217
    1HEX  C10  15788   4.526   4.422   0.314
    1HEX  O11  15789   4.637   4.473   0.299
    1HEX  C12  15790   4.462   4.394   0.449
    1HEX  C13  15791   4.546   4.434   0.571
    1HEX  C15  15792   4.248   4.305   0.039
    1HEX  O16  15793   4.191   4.278   0.168
    1HEX  C17  15794   4.087   4.191   0.177
    1HEX  O18  15795   4.069   4.096   0.102
    1HEX  C19  15796   3.989   4.223   0.290
    1HEX  C1A  15797   3.856   4.290   0.244
    1HEX  H1D  15798   4.547   4.141  16.676
    1HEX  H1E  15799   4.570   4.314  16.686
    1HEX  H1F  15800   4.596   4.303  16.933
    1HEX  H1G  15801   4.600   4.128  16.930
    1HEX  H1H  15802   4.164   4.270  16.881
    1HEX  H1I  15803   4.188   4.439  16.903
    1HEX  H1J  15804   4.307   4.487  17.148
    1HEX  H1K  15805   4.187   4.453  17.271
    1HEX  H1M  15806   4.066   4.866  17.111
    1HEX  H1N  15807   4.238   4.834  17.108
    1HEX  H1O  15808   4.252   4.912  17.356
    1HEX  H1P  15809   4.087   4.967  17.340
    1HEX  H1R  15810   3.959   4.364  17.025
    1HEX  H1S  15811   3.974   4.334  17.194
    1HEX  H1T  15812   4.092   3.957  16.902
    1HEX  H1U  15813   3.926   3.921  16.869
    1HEX  H1V  15814   3.952   3.763  17.042
    1HEX  H1W  15815   3.935   3.898  17.153
    1HEX  H1Y  15816   4.227   4.126  17.088
    1HEX  H1Z  15817   4.171   4.162  17.239
    1HEX  H20  15818   4.437   4.387  17.264
    1HEX  H21  15819   4.538   4.255  17.288
    1HEX  H22  15820   4.394   4.056   0.007
    1HEX  H23  15821   4.415   4.123   0.166
    1HEX  H24  15822   4.820   4.040   0.021
    1HEX  H25  15823   4.856   4.020   0.190
    1HEX  H26  15824   4.869   4.303   0.073
    1HEX  H27  15825   5.005   4.192   0.053
    1HEX  H29  15826   4.460   4.483   0.039
    1HEX  H2A  15827   4.588   4.369   0.068
    1HEX  H2B  15828   4.441   4.288   0.452
    1HEX  H2C  15829   4.367   4.446   0.451
    1HEX  H2D  15830   4.575   4.539   0.565
    1HEX  H2E  15831   4.638   4.376   0.574
    1HEX  H2G  15832   4.182   4.262  17.406
    1HEX  H2H  15833   4.233   4.412   0.028
    1HEX  H2I  15834   4.040   4.281   0.367
    1HEX  H2J  15835   3.966   4.127   0.337
    1HEX  H2K  15836   3.843   4.285   0.136
    1HEX  H2M  15837   3.853   4.395   0.272
    1STR  S00  15838   4.523   4.314  16.596
    1STR  S0E  15839   4.256   5.105  17.335
    1STR  S0M  15840   4.044   3.714  17.173
    1STR  S0X  15841   5.090   4.271   0.084
    1STR  S14  15842   4.476   4.420   0.740
    1STR  S1B  15843   3.696   4.350   0.175
    1HEX  C01  15844   4.615   4.209   3.660
    1HEX  C02  15845   4.564   4.212   3.805
    1HEX  C03  15846   4.412   4.206   3.809
    1HEX  O04  15847   4.353   4.103   3.778
    1HEX  O05  15848   4.356   4.322   3.850
    1HEX  C06  15849   4.215   4.330   3.864
    1HEX  C07  15850   4.174   4.316   4.014
    1HEX  C08  15851   4.201   4.454   4.083
    1HEX  O09  15852   4.138   4.577   4.042
    1HEX  C0A  15853   4.119   4.674   4.138
    1HEX  O0B  15854   4.091   4.651   4.255
    1HEX  C0C  15855   4.140   4.818   4.090
    1HEX  C0D  15856   4.164   4.923   4.203
    1HEX  C0F  15857   4.025   4.269   4.024
    1HEX  O0G  15858   4.015   4.123   4.030
    1HEX  C0H  15859   4.009   4.049   3.918
    1HEX  O0I  15860   3.963   4.094   3.813
    1HEX  C0J  15861   4.067   3.903   3.919
    1HEX  C0K  15862   4.117   3.817   4.045
    1HEX  C0N  15863   4.254   4.199   4.084
    1HEX  O0O  15864   4.392   4.207   4.117
    1HEX  C0P  15865   4.444   4.291   4.220
    1HEX  C0Q  15866   4.403   4.275   4.371
    1HEX  C0R  15867   4.445   4.134   4.420
    1HEX  O0S  15868   4.587   4.114   4.407
    1HEX  C0T  15869   4.670   4.115   4.514
    1HEX  O0U  15870   4.635   4.131   4.631
    1HEX  C0V  15871   4.816   4.086   4.478
    1HEX  C0W  15872   4.912   4.208   4.480
    1HEX  C0Y  15873   4.485   4.383   4.447
    1HEX  O0Z  15874   4.444   4.378   4.583
    1HEX  C10  15875   4.523   4.415   4.683
    1HEX  O11  15876   4.635   4.466   4.674
    1HEX  C12  15877   4.454   4.385   4.815
    1HEX  C13  15878   4.533   4.417   4.944
    1HEX  C15  15879   4.252   4.307   4.399
    1HEX  O16  15880   4.199   4.277   4.528
    1HEX  C17  15881   4.102   4.184   4.541
    1HEX  O18  15882   4.079   4.093   4.462
    1HEX  C19  15883   4.016   4.204   4.665
    1HEX  C1A  15884   3.880   4.274   4.635
    1HEX  H1D  15885   4.552   4.147   3.597
    1HEX  H1E  15886   4.619   4.309   3.617
    1HEX  H1F  15887   4.598   4.302   3.857
    1HEX  H1G  15888   4.601   4.127   3.861
    1HEX  H1H  15889   4.165   4.257   3.801
    1HEX  H1I  15890   4.184   4.427   3.825
    1HEX  H1J  15891   4.306   4.478   4.066
    1HEX  H1K  15892   4.188   4.442   4.189
    1HEX  H1M  15893   4.057   4.849   4.026
    1HEX  H1N  15894   4.229   4.817   4.027
    1HEX  H1O  15895   4.239   4.890   4.275
    1HEX  H1P  15896   4.073   4.941   4.260
    1HEX  H1R  15897   3.964   4.312   3.943
    1HEX  H1S  15898   3.980   4.310   4.115
    1HEX  H1T  15899   4.150   3.911   3.849
    1HEX  H1U  15900   3.992   3.846   3.863
    1HEX  H1V  15901   4.102   3.711   4.022
    1HEX  H1W  15902   4.056   3.839   4.132
    1HEX  H1Y  15903   4.253   4.116   4.013
    1HEX  H1Z  15904   4.200   4.152   4.166
    1HEX  H20  15905   4.442   4.395   4.190
    1HEX  H21  15906   4.550   4.267   4.214
    1HEX  H22  15907   4.393   4.057   4.362
    1HEX  H23  15908   4.412   4.119   4.523
    1HEX  H24  15909   4.817   4.038   4.381
    1HEX  H25  15910   4.851   4.012   4.550
    1HEX  H26  15911   4.871   4.293   4.425
    1HEX  H27  15912   5.008   4.182   4.436
    1HEX  H29  15913   4.465   4.482   4.408
    1HEX  H2A  15914   4.592   4.366   4.437
    1HEX  H2B  15915   4.430   4.278   4.813
    1HEX  H2C  15916   4.360   4.439   4.814
    1HEX  H2D  15917   4.568   4.520   4.941
    1HEX  H2E  15918   4.621   4.353   4.951
    1HEX  H2G  15919   4.184   4.265   4.326
    1HEX  H2H  15920   4.237   4.414   4.390
    1HEX  H2I  15921   4.073   4.258   4.741
    1HEX  H2J  15922   3.996   4.106   4.707
    1HEX  H2K  15923   3.852   4.267   4.530
    1HEX  H2M  15924   3.885   4.381   4.658
    1STR  S00  15925   4.547   4.315   3.528
    1STR  S0E  15926   4.252   5.077   4.252
    1STR  S0M  15927   4.213   3.675   4.133
    1STR  S0X  15928   5.084   4.265   4.449
    1STR  S14  15929   4.460   4.382   5.108
    1STR  S1B  15930   3.714   4.310   4.568
    1HEX  C01  15931   4.618   4.221   8.031
    1HEX  C02  15932   4.571   4.220   8.178
    1HEX  C03  15933   4.420   4.214   8.186
    1HEX  O04  15934   4.360   4.109   8.165
    1HEX  O05  15935   4.365   4.334   8.218
    1HEX  C06  15936   4.223   4.348   8.225
    1HEX  C07  15937   4.173   4.340   8.372
    1HEX  C08  15938   4.208   4.475   8.447
    1HEX  O09  15939   4.152   4.603   8.412
    1HEX  C0A  15940   4.137   4.699   8.512
    1HEX  O0B  15941   4.110   4.673   8.629
    1HEX  C0C  15942   4.159   4.846   8.468
    1HEX  C0D  15943   4.188   4.952   8.582
    1HEX  C0F  15944   4.018   4.316   8.375
    1HEX  O0G  15945   3.991   4.176   8.356
    1HEX  C0H  15946   3.972   4.125   8.234
    1HEX  O0I  15947   3.928   4.189   8.138
    1HEX  C0J  15948   4.017   3.979   8.215
    1HEX  C0K  15949   4.054   3.891   8.339
    1HEX  C0N  15950   4.233   4.212   8.442
    1HEX  O0O  15951   4.371   4.200   8.481
    1HEX  C0P  15952   4.435   4.284   8.577
    1HEX  C0Q  15953   4.401   4.275   8.730
    1HEX  C0R  15954   4.453   4.138   8.783
    1HEX  O0S  15955   4.596   4.124   8.764
    1HEX  C0T  15956   4.684   4.130   8.869
    1HEX  O0U  15957   4.653   4.145   8.987
    1HEX  C0V  15958   4.831   4.105   8.829
    1HEX  C0W  15959   4.928   4.229   8.825
    1HEX  C0Y  15960   4.482   4.388   8.798
    1HEX  O0Z  15961   4.442   4.389   8.933
    1HEX  C10  15962   4.525   4.422   9.031
    1HEX  O11  15963   4.638   4.468   9.020
    1HEX  C12  15964   4.459   4.392   9.165
    1HEX  C13  15965   4.543   4.424   9.290
    1HEX  C15  15966   4.249   4.304   8.759
    1HEX  O16  15967   4.187   4.272   8.884
    1HEX  C17  15968   4.079   4.190   8.883
    1HEX  O18  15969   4.065   4.093   8.809
    1HEX  C19  15970   3.967   4.230   8.981
    1HEX  C1A  15971   3.837   4.284   8.912
    1HEX  H1D  15972   4.576   4.138   7.976
    1HEX  H1E  15973   4.589   4.313   7.981
    1HEX  H1F  15974   4.606   4.308   8.231
    1HEX  H1G  15975   4.610   4.133   8.231
    1HEX  H1H  15976   4.176   4.274   8.161
    1HEX  H1I  15977   4.196   4.444   8.181
    1HEX  H1J  15978   4.313   4.493   8.431
    1HEX  H1K  15979   4.193   4.458   8.552
    1HEX  H1M  15980   4.075   4.877   8.407
    1HEX  H1N  15981   4.246   4.844   8.402
    1HEX  H1O  15982   4.261   4.915   8.654
    1HEX  H1P  15983   4.097   4.973   8.639
    1HEX  H1R  15984   3.965   4.379   8.302
    1HEX  H1S  15985   3.977   4.343   8.472
    1HEX  H1T  15986   4.106   3.986   8.151
    1HEX  H1U  15987   3.941   3.930   8.154
    1HEX  H1V  15988   4.027   3.787   8.321
    1HEX  H1W  15989   4.001   3.923   8.428
    1HEX  H1Y  15990   4.226   4.132   8.369
    1HEX  H1Z  15991   4.167   4.167   8.517
    1HEX  H20  15992   4.439   4.386   8.543
    1HEX  H21  15993   4.539   4.253   8.566
    1HEX  H22  15994   4.403   4.057   8.729
    1HEX  H23  15995   4.425   4.125   8.887
    1HEX  H24  15996   4.830   4.055   8.733
    1HEX  H25  15997   4.870   4.033   8.901
    1HEX  H26  15998   4.881   4.317   8.781
    1HEX  H27  15999   5.021   4.209   8.772
    1HEX  H29  16000   4.459   4.486   8.755
    1HEX  H2A  16001   4.589   4.374   8.787
    1HEX  H2B  16002   4.435   4.286   9.163
    1HEX  H2C  16003   4.365   4.447   9.167
    1HEX  H2D  16004   4.569   4.530   9.291
    1HEX  H2E  16005   4.636   4.368   9.287
    1HEX  H2G  16006   4.185   4.264   8.683
    1HEX  H2H  16007   4.234   4.411   8.751
    1HEX  H2I  16008   4.008   4.300   9.053
    1HEX  H2J  16009   3.942   4.140   9.037
    1HEX  H2K  16010   3.851   4.297   8.805
    1HEX  H2M  16011   3.811   4.382   8.953
    1STR  S00  16012   4.557   4.308   7.883
    1STR  S0E  16013   4.261   5.108   8.653
    1STR  S0M  16014   4.159   3.764   8.425
    1STR  S0X  16015   5.096   4.292   8.779
    1STR  S14  16016   4.448   4.383   9.441
    1STR  S1B  16017   3.682   4.327   8.820
    1HEX  C01  16018   4.611   4.186  12.397
    1HEX  C02  16019   4.560   4.205  12.540
    1HEX  C03  16020   4.408   4.203  12.540
    1HEX  O04  16021   4.347   4.100  12.514
    1HEX  O05  16022   4.354   4.323  12.572
    1HEX  C06  16023   4.212   4.334  12.586
    1HEX  C07  16024   4.170   4.324  12.735
    1HEX  C08  16025   4.203   4.462  12.804
    1HEX  O09  16026   4.142   4.587  12.767
    1HEX  C0A  16027   4.125   4.684  12.864
    1HEX  O0B  16028   4.103   4.659  12.983
    1HEX  C0C  16029   4.142   4.829  12.817
    1HEX  C0D  16030   4.164   4.937  12.929
    1HEX  C0F  16031   4.017   4.288  12.747
    1HEX  O0G  16032   3.997   4.144  12.756
    1HEX  C0H  16033   3.977   4.069  12.646
    1HEX  O0I  16034   3.936   4.117  12.540
    1HEX  C0J  16035   4.015   3.918  12.652
    1HEX  C0K  16036   4.031   3.829  12.783
    1HEX  C0N  16037   4.243   4.203  12.806
    1HEX  O0O  16038   4.382   4.205  12.838
    1HEX  C0P  16039   4.440   4.289  12.939
    1HEX  C0Q  16040   4.401   4.276  13.090
    1HEX  C0R  16041   4.442   4.135  13.140
    1HEX  O0S  16042   4.584   4.114  13.127
    1HEX  C0T  16043   4.667   4.116  13.234
    1HEX  O0U  16044   4.632   4.132  13.351
    1HEX  C0V  16045   4.814   4.089  13.199
    1HEX  C0W  16046   4.905   4.215  13.196
    1HEX  C0Y  16047   4.484   4.383  13.165
    1HEX  O0Z  16048   4.443   4.381  13.301
    1HEX  C10  16049   4.522   4.418  13.401
    1HEX  O11  16050   4.634   4.469  13.392
    1HEX  C12  16051   4.452   4.389  13.534
    1HEX  C13  16052   4.527   4.430  13.661
    1HEX  C15  16053   4.251   4.310  13.119
    1HEX  O16  16054   4.196   4.281  13.247
    1HEX  C17  16055   4.105   4.183  13.259
    1HEX  O18  16056   4.097   4.084  13.187
    1HEX  C19  16057   4.004   4.208  13.371
    1HEX  C1A  16058   3.877   4.283  13.321
    1HEX  H1D  16059   4.561   4.102  12.349
    1HEX  H1E  16060   4.588   4.273  12.336
    1HEX  H1F  16061   4.595   4.298  12.584
    1HEX  H1G  16062   4.594   4.124  12.605
    1HEX  H1H  16063   4.162   4.259  12.524
    1HEX  H1I  16064   4.182   4.430  12.543
    1HEX  H1J  16065   4.308   4.483  12.785
    1HEX  H1K  16066   4.191   4.449  12.910
    1HEX  H1M  16067   4.058   4.858  12.754
    1HEX  H1N  16068   4.230   4.830  12.753
    1HEX  H1O  16069   4.235   4.903  13.004
    1HEX  H1P  16070   4.071   4.960  12.982
    1HEX  H1R  16071   3.960   4.334  12.665
    1HEX  H1S  16072   3.976   4.333  12.837
    1HEX  H1T  16073   4.109   3.913  12.595
    1HEX  H1U  16074   3.943   3.871  12.585
    1HEX  H1V  16075   4.007   3.726  12.756
    1HEX  H1W  16076   3.960   3.858  12.860
    1HEX  H1Y  16077   4.237   4.120  12.735
    1HEX  H1Z  16078   4.187   4.158  12.887
    1HEX  H20  16079   4.440   4.392  12.907
    1HEX  H21  16080   4.545   4.261  12.931
    1HEX  H22  16081   4.390   4.058  13.083
    1HEX  H23  16082   4.410   4.120  13.244
    1HEX  H24  16083   4.816   4.039  13.102
    1HEX  H25  16084   4.852   4.018  13.272
    1HEX  H26  16085   4.860   4.297  13.141
    1HEX  H27  16086   5.002   4.193  13.152
    1HEX  H29  16087   4.466   4.483  13.125
    1HEX  H2A  16088   4.591   4.366  13.155
    1HEX  H2B  16089   4.430   4.283  13.535
    1HEX  H2C  16090   4.356   4.441  13.529
    1HEX  H2D  16091   4.558   4.534  13.655
    1HEX  H2E  16092   4.618   4.370  13.671
    1HEX  H2G  16093   4.182   4.269  13.047
    1HEX  H2H  16094   4.237   4.418  13.110
    1HEX  H2I  16095   4.054   4.262  13.452
    1HEX  H2J  16096   3.976   4.111  13.411
    1HEX  H2K  16097   3.861   4.273  13.214
    1HEX  H2M  16098   3.883   4.389  13.343
    1STR  S00  16099   4.590   4.210  12.219
    1STR  S0E  16100   4.237   5.091  12.999
    1STR  S0M  16101   4.092   3.699  12.910
    1STR  S0X  16102   5.072   4.273  13.149
    1STR  S14  16103   4.446   4.417  13.826
    1STR  S1B  16104   3.723   4.328  13.232
    1HEX  C01  16105   4.599   8.561  16.767
    1HEX  C02  16106   4.555   8.550  16.912
    1HEX  C03  16107   4.404   8.553  16.913
    1HEX  O04  16108   4.339   8.452  16.888
    1HEX  O05  16109   4.355   8.676  16.939
    1HEX  C06  16110   4.214   8.693  16.949
    1HEX  C07  16111   4.166   8.681  17.096
    1HEX  C08  16112   4.194   8.818  17.167
    1HEX  O09  16113   4.135   8.944  17.128
    1HEX  C0A  16114   4.118   9.041  17.224
    1HEX  O0B  16115   4.092   9.018  17.342
    1HEX  C0C  16116   4.139   9.187  17.177
    1HEX  C0D  16117   4.156   9.294  17.291
    1HEX  C0F  16118   4.015   8.640  17.098
    1HEX  O0G  16119   4.002   8.495  17.087
    1HEX  C0H  16120   3.985   8.435  16.967
    1HEX  O0I  16121   3.933   8.492  16.872
    1HEX  C0J  16122   4.041   8.290  16.948
    1HEX  C0K  16123   4.085   8.191  17.064
    1HEX  C0N  16124   4.237   8.560  17.171
    1HEX  O0O  16125   4.376   8.559  17.205
    1HEX  C0P  16126   4.436   8.647  17.300
    1HEX  C0Q  16127   4.402   8.635   0.012
    1HEX  C0R  16128   4.448   8.496   0.063
    1HEX  O0S  16129   4.590   8.477   0.045
    1HEX  C0T  16130   4.677   8.480   0.149
    1HEX  O0U  16131   4.646   8.498   0.267
    1HEX  C0V  16132   4.823   8.450   0.110
    1HEX  C0W  16133   4.920   8.571   0.104
    1HEX  C0Y  16134   4.485   8.745   0.084
    1HEX  O0Z  16135   4.446   8.744   0.219
    1HEX  C10  16136   4.528   8.779   0.317
    1HEX  O11  16137   4.640   8.828   0.305
    1HEX  C12  16138   4.462   8.750   0.451
    1HEX  C13  16139   4.545   8.786   0.576
    1HEX  C15  16140   4.251   8.668   0.043
    1HEX  O16  16141   4.196   8.633   0.170
    1HEX  C17  16142   4.099   8.538   0.175
    1HEX  O18  16143   4.087   8.445   0.096
    1HEX  C19  16144   3.999   8.560   0.288
    1HEX  C1A  16145   3.861   8.611   0.238
    1HEX  H1D  16146   4.562   8.475  16.709
    1HEX  H1E  16147   4.551   8.648  16.721
    1HEX  H1F  16148   4.593   8.632  16.974
    1HEX  H1G  16149   4.587   8.457  16.958
    1HEX  H1H  16150   4.164   8.623  16.882
    1HEX  H1I  16151   4.189   8.791  16.908
    1HEX  H1J  16152   4.299   8.841  17.152
    1HEX  H1K  16153   4.179   8.805  17.273
    1HEX  H1M  16154   4.057   9.215  17.111
    1HEX  H1N  16155   4.229   9.187  17.117
    1HEX  H1O  16156   4.232   9.265  17.364
    1HEX  H1P  16157   4.064   9.307  17.347
    1HEX  H1R  16158   3.958   8.694  17.021
    1HEX  H1S  16159   3.970   8.671  17.192
    1HEX  H1T  16160   4.127   8.305  16.884
    1HEX  H1U  16161   3.968   8.241  16.883
    1HEX  H1V  16162   4.054   8.089  17.038
    1HEX  H1W  16163   4.034   8.215  17.157
    1HEX  H1Y  16164   4.232   8.476  17.103
    1HEX  H1Z  16165   4.176   8.518  17.250
    1HEX  H20  16166   4.435   8.749  17.267
    1HEX  H21  16167   4.542   8.620  17.290
    1HEX  H22  16168   4.395   8.418   0.008
    1HEX  H23  16169   4.419   8.483   0.168
    1HEX  H24  16170   4.821   8.398   0.015
    1HEX  H25  16171   4.860   8.378   0.183
    1HEX  H26  16172   4.875   8.658   0.057
    1HEX  H27  16173   5.012   8.547   0.051
    1HEX  H29  16174   4.464   8.844   0.042
    1HEX  H2A  16175   4.592   8.729   0.072
    1HEX  H2B  16176   4.439   8.644   0.452
    1HEX  H2C  16177   4.368   8.804   0.452
    1HEX  H2D  16178   4.579   8.889   0.572
    1HEX  H2E  16179   4.633   8.723   0.583
    1HEX  H2G  16180   4.183   8.630  17.409
    1HEX  H2H  16181   4.237   8.776   0.037
    1HEX  H2I  16182   4.042   8.628   0.362
    1HEX  H2J  16183   3.985   8.465   0.338
    1HEX  H2K  16184   3.856   8.621   0.129
    1HEX  H2M  16185   3.837   8.710   0.279
    1STR  S00  16186   4.534   8.498  16.609
    1STR  S0E  16187   4.217   9.458  17.349
    1STR  S0M  16188   4.184   8.040  17.126
    1STR  S0X  16189   5.093   8.614   0.054
    1STR  S14  16190   4.474   8.759   0.742
    1STR  S1B  16191   3.699   8.616   0.150
    1HEX  C01  16192   4.636   8.649   3.723
    1HEX  C02  16193   4.566   8.607   3.853
    1HEX  C03  16194   4.417   8.592   3.831
    1HEX  O04  16195   4.368   8.487   3.790
    1HEX  O05  16196   4.352   8.705   3.861
    1HEX  C06  16197   4.211   8.708   3.865
    1HEX  C07  16198   4.163   8.697   4.012
    1HEX  C08  16199   4.197   8.831   4.087
    1HEX  O09  16200   4.143   8.959   4.050
    1HEX  C0A  16201   4.134   9.058   4.147
    1HEX  O0B  16202   4.112   9.035   4.266
    1HEX  C0C  16203   4.157   9.202   4.098
    1HEX  C0D  16204   4.188   9.311   4.208
    1HEX  C0F  16205   4.009   8.668   4.015
    1HEX  O0G  16206   3.985   8.528   3.990
    1HEX  C0H  16207   3.956   8.483   3.867
    1HEX  O0I  16208   3.909   8.553   3.777
    1HEX  C0J  16209   3.994   8.337   3.838
    1HEX  C0K  16210   4.000   8.234   3.955
    1HEX  C0N  16211   4.228   8.569   4.081
    1HEX  O0O  16212   4.366   8.560   4.120
    1HEX  C0P  16213   4.431   8.644   4.216
    1HEX  C0Q  16214   4.398   8.634   4.369
    1HEX  C0R  16215   4.448   8.497   4.422
    1HEX  O0S  16216   4.591   8.482   4.406
    1HEX  C0T  16217   4.677   8.485   4.512
    1HEX  O0U  16218   4.643   8.500   4.629
    1HEX  C0V  16219   4.824   8.459   4.475
    1HEX  C0W  16220   4.922   8.581   4.477
    1HEX  C0Y  16221   4.480   8.746   4.438
    1HEX  O0Z  16222   4.443   8.745   4.575
    1HEX  C10  16223   4.528   8.782   4.670
    1HEX  O11  16224   4.640   8.831   4.654
    1HEX  C12  16225   4.466   8.754   4.806
    1HEX  C13  16226   4.555   8.789   4.927
    1HEX  C15  16227   4.246   8.664   4.398
    1HEX  O16  16228   4.187   8.637   4.526
    1HEX  C17  16229   4.077   8.557   4.531
    1HEX  O18  16230   4.058   8.461   4.457
    1HEX  C19  16231   3.975   8.596   4.638
    1HEX  C1A  16232   3.843   8.660   4.584
    1HEX  H1D  16233   4.704   8.571   3.691
    1HEX  H1E  16234   4.565   8.667   3.642
    1HEX  H1F  16235   4.581   8.682   3.930
    1HEX  H1G  16236   4.605   8.513   3.891
    1HEX  H1H  16237   4.169   8.630   3.801
    1HEX  H1I  16238   4.177   8.802   3.820
    1HEX  H1J  16239   4.303   8.849   4.074
    1HEX  H1K  16240   4.178   8.815   4.192
    1HEX  H1M  16241   4.072   9.233   4.037
    1HEX  H1N  16242   4.243   9.198   4.031
    1HEX  H1O  16243   4.262   9.275   4.280
    1HEX  H1P  16244   4.099   9.335   4.265
    1HEX  H1R  16245   3.955   8.733   3.946
    1HEX  H1S  16246   3.969   8.691   4.113
    1HEX  H1T  16247   4.093   8.342   3.793
    1HEX  H1U  16248   3.928   8.301   3.759
    1HEX  H1V  16249   3.953   8.140   3.927
    1HEX  H1W  16250   3.950   8.270   4.045
    1HEX  H1Y  16251   4.222   8.490   4.006
    1HEX  H1Z  16252   4.163   8.524   4.156
    1HEX  H20  16253   4.434   8.747   4.183
    1HEX  H21  16254   4.535   8.614   4.205
    1HEX  H22  16255   4.398   8.417   4.368
    1HEX  H23  16256   4.418   8.484   4.526
    1HEX  H24  16257   4.825   8.411   4.377
    1HEX  H25  16258   4.861   8.385   4.546
    1HEX  H26  16259   4.878   8.670   4.431
    1HEX  H27  16260   5.016   8.560   4.428
    1HEX  H29  16261   4.457   8.845   4.396
    1HEX  H2A  16262   4.587   8.732   4.425
    1HEX  H2B  16263   4.442   8.648   4.808
    1HEX  H2C  16264   4.372   8.808   4.811
    1HEX  H2D  16265   4.583   8.894   4.924
    1HEX  H2E  16266   4.647   8.732   4.923
    1HEX  H2G  16267   4.182   8.620   4.324
    1HEX  H2H  16268   4.231   8.771   4.387
    1HEX  H2I  16269   4.023   8.658   4.713
    1HEX  H2J  16270   3.949   8.503   4.690
    1HEX  H2K  16271   3.840   8.660   4.475
    1HEX  H2M  16272   3.835   8.764   4.615
    1STR  S00  16273   4.568   8.745   3.583
    1STR  S0E  16274   4.270   9.468   4.265
    1STR  S0M  16275   4.072   8.085   4.038
    1STR  S0X  16276   5.093   8.644   4.444
    1STR  S14  16277   4.486   8.755   5.093
    1STR  S1B  16278   3.684   8.723   4.510
    1HEX  C01  16279   4.621   8.570   8.033
    1HEX  C02  16280   4.564   8.570   8.176
    1HEX  C03  16281   4.412   8.565   8.173
    1HEX  O04  16282   4.353   8.461   8.146
    1HEX  O05  16283   4.355   8.683   8.208
    1HEX  C06  16284   4.214   8.690   8.225
    1HEX  C07  16285   4.174   8.678   8.375
    1HEX  C08  16286   4.203   8.817   8.443
    1HEX  O09  16287   4.142   8.942   8.405
    1HEX  C0A  16288   4.124   9.038   8.504
    1HEX  O0B  16289   4.098   9.013   8.621
    1HEX  C0C  16290   4.145   9.184   8.459
    1HEX  C0D  16291   4.174   9.288   8.572
    1HEX  C0F  16292   4.024   8.633   8.388
    1HEX  O0G  16293   4.012   8.488   8.401
    1HEX  C0H  16294   4.004   8.407   8.293
    1HEX  O0I  16295   3.961   8.448   8.185
    1HEX  C0J  16296   4.057   8.260   8.302
    1HEX  C0K  16297   4.099   8.177   8.434
    1HEX  C0N  16298   4.254   8.561   8.445
    1HEX  O0O  16299   4.392   8.569   8.477
    1HEX  C0P  16300   4.444   8.652   8.581
    1HEX  C0Q  16301   4.403   8.636   8.731
    1HEX  C0R  16302   4.443   8.494   8.781
    1HEX  O0S  16303   4.584   8.473   8.767
    1HEX  C0T  16304   4.666   8.474   8.875
    1HEX  O0U  16305   4.631   8.488   8.992
    1HEX  C0V  16306   4.813   8.447   8.840
    1HEX  C0W  16307   4.904   8.573   8.843
    1HEX  C0Y  16308   4.485   8.742   8.809
    1HEX  O0Z  16309   4.443   8.738   8.944
    1HEX  C10  16310   4.521   8.775   9.045
    1HEX  O11  16311   4.633   8.826   9.038
    1HEX  C12  16312   4.449   8.744   9.176
    1HEX  C13  16313   4.525   8.778   9.306
    1HEX  C15  16314   4.251   8.669   8.759
    1HEX  O16  16315   4.199   8.642   8.889
    1HEX  C17  16316   4.102   8.550   8.904
    1HEX  O18  16317   4.080   8.456   8.827
    1HEX  C19  16318   4.014   8.575   9.025
    1HEX  C1A  16319   3.886   8.656   8.991
    1HEX  H1D  16320   4.572   8.495   7.972
    1HEX  H1E  16321   4.605   8.667   7.985
    1HEX  H1F  16322   4.597   8.657   8.232
    1HEX  H1G  16323   4.598   8.482   8.230
    1HEX  H1H  16324   4.164   8.615   8.163
    1HEX  H1I  16325   4.181   8.786   8.184
    1HEX  H1J  16326   4.308   8.839   8.426
    1HEX  H1K  16327   4.190   8.804   8.549
    1HEX  H1M  16328   4.060   9.216   8.399
    1HEX  H1N  16329   4.231   9.183   8.392
    1HEX  H1O  16330   4.243   9.249   8.647
    1HEX  H1P  16331   4.083   9.315   8.627
    1HEX  H1R  16332   3.963   8.672   8.305
    1HEX  H1S  16333   3.980   8.678   8.477
    1HEX  H1T  16334   4.143   8.262   8.235
    1HEX  H1U  16335   3.982   8.203   8.246
    1HEX  H1V  16336   4.085   8.071   8.413
    1HEX  H1W  16337   4.031   8.202   8.516
    1HEX  H1Y  16338   4.251   8.478   8.375
    1HEX  H1Z  16339   4.201   8.515   8.528
    1HEX  H20  16340   4.443   8.756   8.551
    1HEX  H21  16341   4.550   8.627   8.576
    1HEX  H22  16342   4.390   8.418   8.722
    1HEX  H23  16343   4.409   8.479   8.884
    1HEX  H24  16344   4.816   8.400   8.742
    1HEX  H25  16345   4.850   8.374   8.912
    1HEX  H26  16346   4.861   8.656   8.787
    1HEX  H27  16347   5.003   8.553   8.801
    1HEX  H29  16348   4.467   8.843   8.770
    1HEX  H2A  16349   4.592   8.725   8.799
    1HEX  H2B  16350   4.426   8.637   9.174
    1HEX  H2C  16351   4.355   8.797   9.173
    1HEX  H2D  16352   4.558   8.882   9.304
    1HEX  H2E  16353   4.614   8.716   9.315
    1HEX  H2G  16354   4.183   8.627   8.687
    1HEX  H2H  16355   4.238   8.777   8.749
    1HEX  H2I  16356   4.073   8.623   9.103
    1HEX  H2J  16357   3.985   8.477   9.064
    1HEX  H2K  16358   3.854   8.642   8.888
    1HEX  H2M  16359   3.902   8.763   9.005
    1STR  S00  16360   4.589   8.680   7.892
    1STR  S0E  16361   4.271   9.430   8.642
    1STR  S0M  16362   4.186   8.040   8.538
    1STR  S0X  16363   5.071   8.640   8.813
    1STR  S14  16364   4.445   8.749   9.469
    1STR  S1B  16365   3.727   8.715   8.922
    1HEX  C01  16366   4.602   8.572  12.379
    1HEX  C02  16367   4.560   8.573  12.527
    1HEX  C03  16368   4.409   8.569  12.537
    1HEX  O04  16369   4.347   8.466  12.510
    1HEX  O05  16370   4.357   8.687  12.575
    1HEX  C06  16371   4.216   8.703  12.586
    1HEX  C07  16372   4.168   8.694  12.734
    1HEX  C08  16373   4.202   8.829  12.807
    1HEX  O09  16374   4.145   8.957  12.772
    1HEX  C0A  16375   4.130   9.053  12.871
    1HEX  O0B  16376   4.103   9.027  12.988
    1HEX  C0C  16377   4.152   9.200  12.828
    1HEX  C0D  16378   4.175   9.306  12.943
    1HEX  C0F  16379   4.014   8.663  12.737
    1HEX  O0G  16380   3.991   8.521  12.723
    1HEX  C0H  16381   3.963   8.465  12.604
    1HEX  O0I  16382   3.918   8.527  12.508
    1HEX  C0J  16383   4.001   8.316  12.589
    1HEX  C0K  16384   4.013   8.221  12.713
    1HEX  C0N  16385   4.234   8.567  12.803
    1HEX  O0O  16386   4.373   8.560  12.839
    1HEX  C0P  16387   4.436   8.645  12.936
    1HEX  C0Q  16388   4.402   8.635  13.089
    1HEX  C0R  16389   4.452   8.498  13.142
    1HEX  O0S  16390   4.595   8.482  13.123
    1HEX  C0T  16391   4.684   8.488  13.226
    1HEX  O0U  16392   4.653   8.504  13.344
    1HEX  C0V  16393   4.830   8.462  13.186
    1HEX  C0W  16394   4.927   8.584  13.179
    1HEX  C0Y  16395   4.483   8.747  13.159
    1HEX  O0Z  16396   4.443   8.747  13.295
    1HEX  C10  16397   4.525   8.781  13.393
    1HEX  O11  16398   4.638   8.829  13.381
    1HEX  C12  16399   4.459   8.753  13.527
    1HEX  C13  16400   4.540   8.791  13.652
    1HEX  C15  16401   4.250   8.665  13.118
    1HEX  O16  16402   4.190   8.631  13.244
    1HEX  C17  16403   4.086   8.543  13.244
    1HEX  O18  16404   4.077   8.446  13.169
    1HEX  C19  16405   3.975   8.576  13.343
    1HEX  C1A  16406   3.842   8.626  13.276
    1HEX  H1D  16407   4.548   8.495  12.324
    1HEX  H1E  16408   4.578   8.667  12.332
    1HEX  H1F  16409   4.597   8.662  12.578
    1HEX  H1G  16410   4.600   8.487  12.580
    1HEX  H1H  16411   4.165   8.629  12.523
    1HEX  H1I  16412   4.189   8.799  12.543
    1HEX  H1J  16413   4.307   8.848  12.790
    1HEX  H1K  16414   4.188   8.814  12.913
    1HEX  H1M  16415   4.069   9.230  12.764
    1HEX  H1N  16416   4.240   9.199  12.765
    1HEX  H1O  16417   4.249   9.273  13.015
    1HEX  H1P  16418   4.083   9.323  12.999
    1HEX  H1R  16419   3.960   8.722  12.663
    1HEX  H1S  16420   3.973   8.693  12.834
    1HEX  H1T  16421   4.098   8.318  12.538
    1HEX  H1U  16422   3.932   8.274  12.516
    1HEX  H1V  16423   3.973   8.122  12.690
    1HEX  H1W  16424   3.957   8.259  12.799
    1HEX  H1Y  16425   4.228   8.487  12.729
    1HEX  H1Z  16426   4.172   8.522  12.879
    1HEX  H20  16427   4.438   8.748  12.903
    1HEX  H21  16428   4.540   8.616  12.926
    1HEX  H22  16429   4.401   8.417  13.089
    1HEX  H23  16430   4.425   8.485  13.247
    1HEX  H24  16431   4.828   8.409  13.091
    1HEX  H25  16432   4.869   8.391  13.259
    1HEX  H26  16433   4.880   8.672  13.134
    1HEX  H27  16434   5.019   8.563  13.123
    1HEX  H29  16435   4.461   8.845  13.116
    1HEX  H2A  16436   4.590   8.732  13.148
    1HEX  H2B  16437   4.436   8.646  13.527
    1HEX  H2C  16438   4.364   8.806  13.526
    1HEX  H2D  16439   4.568   8.896  13.650
    1HEX  H2E  16440   4.632   8.733  13.657
    1HEX  H2G  16441   4.185   8.626  13.042
    1HEX  H2H  16442   4.235   8.772  13.112
    1HEX  H2I  16443   4.013   8.648  13.416
    1HEX  H2J  16444   3.954   8.485  13.399
    1HEX  H2K  16445   3.856   8.644  13.170
    1HEX  H2M  16446   3.810   8.721  13.320
    1STR  S00  16447   4.536   8.654  12.231
    1STR  S0E  16448   4.238   9.465  13.016
    1STR  S0M  16449   4.079   8.066  12.794
    1STR  S0X  16450   5.096   8.640  13.125
    1STR  S14  16451   4.445   8.771  13.807
    1STR  S1B  16452   3.685   8.655  13.183
    1HEX  C01  16453   4.597  12.937  16.732
    1HEX  C02  16454   4.558  12.935  16.881
    1HEX  C03  16455   4.407  12.929  16.893
    1HEX  O04  16456   4.345  12.826  16.865
    1HEX  O05  16457   4.353  13.046  16.933
    1HEX  C06  16458   4.212  13.058  16.946
    1HEX  C07  16459   4.168  13.049  17.095
    1HEX  C08  16460   4.202  13.185  17.165
    1HEX  O09  16461   4.142  13.311  17.127
    1HEX  C0A  16462   4.128  13.409  17.223
    1HEX  O0B  16463   4.105  13.386  17.342
    1HEX  C0C  16464   4.146  13.553  17.173
    1HEX  C0D  16465   4.171  13.662  17.283
    1HEX  C0F  16466   4.015  13.018  17.103
    1HEX  O0G  16467   3.991  12.875  17.098
    1HEX  C0H  16468   3.960  12.813  16.983
    1HEX  O0I  16469   3.913  12.871  16.885
    1HEX  C0J  16470   3.996  12.662  16.973
    1HEX  C0K  16471   4.000  12.565  17.098
    1HEX  C0N  16472   4.237  12.925  17.164
    1HEX  O0O  16473   4.376  12.922  17.199
    1HEX  C0P  16474   4.436  13.006  17.298
    1HEX  C0Q  16475   4.400  12.995   0.010
    1HEX  C0R  16476   4.445  12.855   0.062
    1HEX  O0S  16477   4.587  12.836   0.047
    1HEX  C0T  16478   4.671  12.840   0.153
    1HEX  O0U  16479   4.638  12.858   0.270
    1HEX  C0V  16480   4.818  12.810   0.117
    1HEX  C0W  16481   4.914  12.932   0.108
    1HEX  C0Y  16482   4.482  13.104   0.082
    1HEX  O0Z  16483   4.444  13.103   0.218
    1HEX  C10  16484   4.524  13.141   0.316
    1HEX  O11  16485   4.636  13.192   0.304
    1HEX  C12  16486   4.458  13.113   0.451
    1HEX  C13  16487   4.539  13.154   0.575
    1HEX  C15  16488   4.249  13.027   0.039
    1HEX  O16  16489   4.194  12.998   0.168
    1HEX  C17  16490   4.095  12.907   0.178
    1HEX  O18  16491   4.080  12.810   0.104
    1HEX  C19  16492   3.998  12.934   0.293
    1HEX  C1A  16493   3.864  13.000   0.248
    1HEX  H1D  16494   4.546  12.858  16.678
    1HEX  H1E  16495   4.568  13.032  16.686
    1HEX  H1F  16496   4.594  13.024  16.933
    1HEX  H1G  16497   4.599  12.848  16.931
    1HEX  H1H  16498   4.161  12.984  16.884
    1HEX  H1I  16499   4.183  13.154  16.903
    1HEX  H1J  16500   4.307  13.205  17.146
    1HEX  H1K  16501   4.190  13.172  17.271
    1HEX  H1M  16502   4.062  13.582  17.110
    1HEX  H1N  16503   4.234  13.552  17.109
    1HEX  H1O  16504   4.244  13.630  17.357
    1HEX  H1P  16505   4.079  13.684  17.338
    1HEX  H1R  16506   3.959  13.073  17.027
    1HEX  H1S  16507   3.975  13.054  17.198
    1HEX  H1T  16508   4.094  12.661  16.925
    1HEX  H1U  16509   3.929  12.622  16.897
    1HEX  H1V  16510   3.964  12.466  17.069
    1HEX  H1W  16511   3.937  12.600  17.179
    1HEX  H1Y  16512   4.231  12.844  17.091
    1HEX  H1Z  16513   4.177  12.880  17.243
    1HEX  H20  16514   4.438  13.109  17.265
    1HEX  H21  16515   4.541  12.978  17.289
    1HEX  H22  16516   4.393  12.777   0.006
    1HEX  H23  16517   4.413  12.842   0.165
    1HEX  H24  16518   4.818  12.755   0.023
    1HEX  H25  16519   4.856  12.741   0.192
    1HEX  H26  16520   4.861  13.022   0.076
    1HEX  H27  16521   4.994  12.913   0.037
    1HEX  H29  16522   4.462  13.204   0.041
    1HEX  H2A  16523   4.589  13.088   0.071
    1HEX  H2B  16524   4.437  13.006   0.453
    1HEX  H2C  16525   4.362  13.164   0.450
    1HEX  H2D  16526   4.568  13.259   0.568
    1HEX  H2E  16527   4.630  13.096   0.581
    1HEX  H2G  16528   4.181  12.986  17.407
    1HEX  H2H  16529   4.234  13.135   0.030
    1HEX  H2I  16530   4.048  12.992   0.370
    1HEX  H2J  16531   3.975  12.837   0.338
    1HEX  H2K  16532   3.849  12.995   0.140
    1HEX  H2M  16533   3.862  13.106   0.275
    1STR  S00  16534   4.524  13.026  16.592
    1STR  S0E  16535   4.246  13.822  17.338
    1STR  S0M  16536   4.049  12.428  17.217
    1STR  S0X  16537   5.087  12.986   0.075
    1STR  S14  16538   4.464  13.145   0.742
    1STR  S1B  16539   3.702  13.049   0.175
    1HEX  C01  16540   4.609  12.936   3.655
    1HEX  C02  16541   4.564  12.935   3.802
    1HEX  C03  16542   4.413  12.928   3.810
    1HEX  O04  16543   4.353  12.824   3.780
    1HEX  O05  16544   4.357  13.043   3.850
    1HEX  C06  16545   4.216  13.052   3.864
    1HEX  C07  16546   4.174  13.037   4.013
    1HEX  C08  16547   4.199  13.175   4.083
    1HEX  O09  16548   4.136  13.298   4.042
    1HEX  C0A  16549   4.117  13.395   4.138
    1HEX  O0B  16550   4.090  13.372   4.256
    1HEX  C0C  16551   4.138  13.539   4.089
    1HEX  C0D  16552   4.158  13.645   4.203
    1HEX  C0F  16553   4.024  12.991   4.020
    1HEX  O0G  16554   4.015  12.845   4.020
    1HEX  C0H  16555   4.007  12.776   3.904
    1HEX  O0I  16556   3.959  12.825   3.802
    1HEX  C0J  16557   4.066  12.630   3.897
    1HEX  C0K  16558   4.121  12.541   4.018
    1HEX  C0N  16559   4.252  12.919   4.084
    1HEX  O0O  16560   4.390  12.925   4.117
    1HEX  C0P  16561   4.443  13.010   4.219
    1HEX  C0Q  16562   4.403  12.995   4.370
    1HEX  C0R  16563   4.446  12.854   4.420
    1HEX  O0S  16564   4.588  12.834   4.405
    1HEX  C0T  16565   4.672  12.836   4.512
    1HEX  O0U  16566   4.638  12.853   4.629
    1HEX  C0V  16567   4.818  12.806   4.475
    1HEX  C0W  16568   4.915  12.928   4.474
    1HEX  C0Y  16569   4.485  13.103   4.446
    1HEX  O0Z  16570   4.445  13.099   4.581
    1HEX  C10  16571   4.525  13.136   4.681
    1HEX  O11  16572   4.637  13.187   4.670
    1HEX  C12  16573   4.457  13.106   4.814
    1HEX  C13  16574   4.538  13.139   4.940
    1HEX  C15  16575   4.252  13.027   4.398
    1HEX  O16  16576   4.198  12.995   4.527
    1HEX  C17  16577   4.102  12.901   4.538
    1HEX  O18  16578   4.083  12.809   4.460
    1HEX  C19  16579   4.012  12.921   4.660
    1HEX  C1A  16580   3.874  12.983   4.625
    1HEX  H1D  16581   4.553  12.864   3.596
    1HEX  H1E  16582   4.594  13.034   3.610
    1HEX  H1F  16583   4.598  13.024   3.855
    1HEX  H1G  16584   4.604  12.849   3.855
    1HEX  H1H  16585   4.166  12.980   3.799
    1HEX  H1I  16586   4.185  13.149   3.825
    1HEX  H1J  16587   4.304  13.199   4.067
    1HEX  H1K  16588   4.185  13.162   4.189
    1HEX  H1M  16589   4.056  13.569   4.024
    1HEX  H1N  16590   4.228  13.539   4.028
    1HEX  H1O  16591   4.234  13.615   4.275
    1HEX  H1P  16592   4.066  13.660   4.260
    1HEX  H1R  16593   3.964  13.037   3.942
    1HEX  H1S  16594   3.979  13.027   4.113
    1HEX  H1T  16595   4.147  12.642   3.826
    1HEX  H1U  16596   3.990  12.575   3.842
    1HEX  H1V  16597   4.101  12.436   3.993
    1HEX  H1W  16598   4.064  12.561   4.109
    1HEX  H1Y  16599   4.251  12.837   4.012
    1HEX  H1Z  16600   4.196  12.873   4.165
    1HEX  H20  16601   4.441  13.114   4.188
    1HEX  H21  16602   4.549  12.986   4.213
    1HEX  H22  16603   4.393  12.777   4.364
    1HEX  H23  16604   4.415  12.840   4.524
    1HEX  H24  16605   4.818  12.756   4.378
    1HEX  H25  16606   4.854  12.733   4.548
    1HEX  H26  16607   4.872  13.013   4.422
    1HEX  H27  16608   5.009  12.902   4.427
    1HEX  H29  16609   4.465  13.203   4.406
    1HEX  H2A  16610   4.592  13.087   4.435
    1HEX  H2B  16611   4.433  13.000   4.812
    1HEX  H2C  16612   4.363  13.161   4.814
    1HEX  H2D  16613   4.574  13.242   4.937
    1HEX  H2E  16614   4.626  13.075   4.948
    1HEX  H2G  16615   4.184  12.985   4.325
    1HEX  H2H  16616   4.237  13.134   4.390
    1HEX  H2I  16617   4.065  12.980   4.735
    1HEX  H2J  16618   3.996  12.823   4.704
    1HEX  H2K  16619   3.853  12.981   4.518
    1HEX  H2M  16620   3.869  13.088   4.655
    1STR  S00  16621   4.537  13.039   3.524
    1STR  S0E  16622   4.230  13.807   4.251
    1STR  S0M  16623   4.226  12.401   4.097
    1STR  S0X  16624   5.089  12.975   4.437
    1STR  S14  16625   4.469  13.105   5.106
    1STR  S1B  16626   3.707  13.001   4.553
    1HEX  C01  16627   4.633  12.957   8.050
    1HEX  C02  16628   4.575  12.951   8.192
    1HEX  C03  16629   4.424  12.941   8.190
    1HEX  O04  16630   4.368  12.835   8.164
    1HEX  O05  16631   4.364  13.059   8.219
    1HEX  C06  16632   4.222  13.068   8.224
    1HEX  C07  16633   4.170  13.058   8.370
    1HEX  C08  16634   4.202  13.192   8.447
    1HEX  O09  16635   4.149  13.322   8.411
    1HEX  C0A  16636   4.138  13.419   8.510
    1HEX  O0B  16637   4.113  13.394   8.628
    1HEX  C0C  16638   4.161  13.565   8.465
    1HEX  C0D  16639   4.192  13.672   8.577
    1HEX  C0F  16640   4.017  13.030   8.370
    1HEX  O0G  16641   3.993  12.890   8.343
    1HEX  C0H  16642   3.967  12.846   8.219
    1HEX  O0I  16643   3.917  12.916   8.131
    1HEX  C0J  16644   4.011  12.702   8.189
    1HEX  C0K  16645   4.036  12.601   8.305
    1HEX  C0N  16646   4.232  12.930   8.441
    1HEX  O0O  16647   4.369  12.919   8.481
    1HEX  C0P  16648   4.434  13.004   8.576
    1HEX  C0Q  16649   4.400  12.995   8.729
    1HEX  C0R  16650   4.452  12.858   8.783
    1HEX  O0S  16651   4.595  12.844   8.765
    1HEX  C0T  16652   4.682  12.849   8.870
    1HEX  O0U  16653   4.650  12.863   8.988
    1HEX  C0V  16654   4.829  12.825   8.831
    1HEX  C0W  16655   4.926  12.948   8.831
    1HEX  C0Y  16656   4.481  13.108   8.797
    1HEX  O0Z  16657   4.443  13.108   8.933
    1HEX  C10  16658   4.527  13.142   9.029
    1HEX  O11  16659   4.640  13.189   9.015
    1HEX  C12  16660   4.464  13.113   9.164
    1HEX  C13  16661   4.552  13.144   9.286
    1HEX  C15  16662   4.248  13.024   8.758
    1HEX  O16  16663   4.187  12.994   8.884
    1HEX  C17  16664   4.077  12.914   8.885
    1HEX  O18  16665   4.061  12.817   8.811
    1HEX  C19  16666   3.968  12.955   8.985
    1HEX  C1A  16667   3.837  13.014   8.920
    1HEX  H1D  16668   4.639  12.858   8.006
    1HEX  H1E  16669   4.572  13.019   7.985
    1HEX  H1F  16670   4.603  13.040   8.249
    1HEX  H1G  16671   4.614  12.865   8.247
    1HEX  H1H  16672   4.178  12.992   8.160
    1HEX  H1I  16673   4.192  13.163   8.180
    1HEX  H1J  16674   4.308  13.211   8.435
    1HEX  H1K  16675   4.183  13.176   8.552
    1HEX  H1M  16676   4.076  13.597   8.404
    1HEX  H1N  16677   4.247  13.562   8.398
    1HEX  H1O  16678   4.265  13.636   8.649
    1HEX  H1P  16679   4.102  13.696   8.634
    1HEX  H1R  16680   3.963  13.095   8.300
    1HEX  H1S  16681   3.974  13.052   8.468
    1HEX  H1T  16682   4.106  12.714   8.135
    1HEX  H1U  16683   3.941  12.662   8.116
    1HEX  H1V  16684   3.996  12.503   8.279
    1HEX  H1W  16685   3.987  12.632   8.397
    1HEX  H1Y  16686   4.226  12.850   8.367
    1HEX  H1Z  16687   4.166  12.886   8.515
    1HEX  H20  16688   4.438  13.106   8.542
    1HEX  H21  16689   4.538  12.973   8.565
    1HEX  H22  16690   4.402  12.777   8.729
    1HEX  H23  16691   4.423  12.846   8.887
    1HEX  H24  16692   4.830  12.776   8.734
    1HEX  H25  16693   4.867  12.751   8.902
    1HEX  H26  16694   4.881  13.036   8.786
    1HEX  H27  16695   5.021  12.928   8.781
    1HEX  H29  16696   4.458  13.206   8.754
    1HEX  H2A  16697   4.588  13.094   8.785
    1HEX  H2B  16698   4.438  13.007   9.163
    1HEX  H2C  16699   4.370  13.168   9.169
    1HEX  H2D  16700   4.579  13.250   9.286
    1HEX  H2E  16701   4.645  13.088   9.280
    1HEX  H2G  16702   4.185  12.982   8.683
    1HEX  H2H  16703   4.233  13.131   8.748
    1HEX  H2I  16704   4.011  13.023   9.058
    1HEX  H2J  16705   3.942  12.865   9.040
    1HEX  H2K  16706   3.847  13.022   8.811
    1HEX  H2M  16707   3.818  13.114   8.957
    1STR  S00  16708   4.572  13.046   7.903
    1STR  S0E  16709   4.270  13.829   8.643
    1STR  S0M  16710   4.136  12.461   8.373
    1STR  S0X  16711   5.096  13.013   8.791
    1STR  S14  16712   4.470  13.095   9.441
    1STR  S1B  16713   3.681  13.064   8.832
    1HEX  C01  16714   4.615  12.924  12.395
    1HEX  C02  16715   4.562  12.929  12.538
    1HEX  C03  16716   4.410  12.925  12.537
    1HEX  O04  16717   4.350  12.821  12.511
    1HEX  O05  16718   4.354  13.044  12.570
    1HEX  C06  16719   4.213  13.052  12.585
    1HEX  C07  16720   4.172  13.042  12.735
    1HEX  C08  16721   4.203  13.180  12.804
    1HEX  O09  16722   4.142  13.305  12.767
    1HEX  C0A  16723   4.125  13.401  12.866
    1HEX  O0B  16724   4.102  13.376  12.984
    1HEX  C0C  16725   4.143  13.548  12.820
    1HEX  C0D  16726   4.165  13.653  12.934
    1HEX  C0F  16727   4.020  13.002  12.748
    1HEX  O0G  16728   4.003  12.857  12.760
    1HEX  C0H  16729   3.989  12.778  12.652
    1HEX  O0I  16730   3.948  12.822  12.544
    1HEX  C0J  16731   4.033  12.628  12.661
    1HEX  C0K  16732   4.060  12.545  12.795
    1HEX  C0N  16733   4.248  12.922  12.805
    1HEX  O0O  16734   4.387  12.927  12.837
    1HEX  C0P  16735   4.442  13.010  12.940
    1HEX  C0Q  16736   4.403  12.996  13.091
    1HEX  C0R  16737   4.443  12.855  13.140
    1HEX  O0S  16738   4.584  12.833  13.127
    1HEX  C0T  16739   4.667  12.835  13.235
    1HEX  O0U  16740   4.632  12.850  13.351
    1HEX  C0V  16741   4.814  12.810  13.199
    1HEX  C0W  16742   4.904  12.936  13.199
    1HEX  C0Y  16743   4.485  13.103  13.167
    1HEX  O0Z  16744   4.444  13.099  13.302
    1HEX  C10  16745   4.521  13.137  13.404
    1HEX  O11  16746   4.633  13.188  13.396
    1HEX  C12  16747   4.449  13.107  13.535
    1HEX  C13  16748   4.523  13.145  13.664
    1HEX  C15  16749   4.252  13.031  13.118
    1HEX  O16  16750   4.198  13.003  13.248
    1HEX  C17  16751   4.104  12.908  13.261
    1HEX  O18  16752   4.091  12.810  13.187
    1HEX  C19  16753   4.007  12.935  13.374
    1HEX  C1A  16754   3.884  13.018  13.327
    1HEX  H1D  16755   4.566  12.844  12.338
    1HEX  H1E  16756   4.593  13.016  12.342
    1HEX  H1F  16757   4.596  13.018  12.591
    1HEX  H1G  16758   4.596  12.843  12.596
    1HEX  H1H  16759   4.163  12.977  12.524
    1HEX  H1I  16760   4.180  13.148  12.544
    1HEX  H1J  16761   4.308  13.201  12.786
    1HEX  H1K  16762   4.190  13.166  12.910
    1HEX  H1M  16763   4.058  13.577  12.758
    1HEX  H1N  16764   4.231  13.549  12.756
    1HEX  H1O  16765   4.235  13.618  13.010
    1HEX  H1P  16766   4.072  13.677  12.986
    1HEX  H1R  16767   3.961  13.044  12.666
    1HEX  H1S  16768   3.977  13.047  12.837
    1HEX  H1T  16769   4.124  12.626  12.600
    1HEX  H1U  16770   3.959  12.576  12.600
    1HEX  H1V  16771   4.040  12.439  12.774
    1HEX  H1W  16772   3.991  12.574  12.873
    1HEX  H1Y  16773   4.243  12.840  12.735
    1HEX  H1Z  16774   4.194  12.877  12.888
    1HEX  H20  16775   4.442  13.114  12.909
    1HEX  H21  16776   4.548  12.984  12.933
    1HEX  H22  16777   4.390  12.778  13.082
    1HEX  H23  16778   4.410  12.840  13.243
    1HEX  H24  16779   4.816  12.761  13.102
    1HEX  H25  16780   4.852  12.738  13.272
    1HEX  H26  16781   4.859  13.018  13.142
    1HEX  H27  16782   5.003  12.916  13.157
    1HEX  H29  16783   4.467  13.203  13.127
    1HEX  H2A  16784   4.593  13.086  13.158
    1HEX  H2B  16785   4.427  13.000  13.535
    1HEX  H2C  16786   4.354  13.159  13.530
    1HEX  H2D  16787   4.555  13.249  13.660
    1HEX  H2E  16788   4.613  13.085  13.674
    1HEX  H2G  16789   4.183  12.989  13.047
    1HEX  H2H  16790   4.239  13.138  13.109
    1HEX  H2I  16791   4.060  12.984  13.456
    1HEX  H2J  16792   3.974  12.838  13.412
    1HEX  H2K  16793   3.860  13.001  13.222
    1HEX  H2M  16794   3.900  13.124  13.340
    1STR  S00  16795   4.612  12.988  12.226
    1STR  S0E  16796   4.245  13.800  13.013
    1STR  S0M  16797   4.132  12.407  12.908
    1STR  S0X  16798   5.068  13.004  13.152
    1STR  S14  16799   4.441  13.127  13.828
    1STR  S1B  16800   3.733  13.076  13.240
    1HEX  C01  16801   8.971  17.260  16.761
    1HEX  C02  16802   8.919  17.281  16.904
    1HEX  C03  16803   8.768  17.282  16.903
    1HEX  O04  16804   8.704  17.181  16.876
    1HEX  O05  16805   8.717  17.404  16.934
    1HEX  C06  16806   8.576  17.420  16.945
    1HEX  C07  16807   8.529  17.411  17.093
    1HEX  C08  16808   8.564   0.106  17.165
    1HEX  O09  16809   8.505   0.232  17.128
    1HEX  C0A  16810   8.484   0.327  17.227
    1HEX  O0B  16811   8.456   0.300  17.343
    1HEX  C0C  16812   8.503   0.473  17.182
    1HEX  C0D  16813   8.521   0.579  17.297
    1HEX  C0F  16814   8.375  17.384  17.099
    1HEX  O0G  16815   8.349  17.242  17.086
    1HEX  C0H  16816   8.321  17.187  16.968
    1HEX  O0I  16817   8.275  17.249  16.872
    1HEX  C0J  16818   8.359  17.038  16.953
    1HEX  C0K  16819   8.370  16.945  17.079
    1HEX  C0N  16820   8.594  17.285  17.164
    1HEX  O0O  16821   8.733  17.280  17.200
    1HEX  C0P  16822   8.795  17.364  17.297
    1HEX  C0Q  16823   8.761  17.354   0.010
    1HEX  C0R  16824   8.810  17.215   0.062
    1HEX  O0S  16825   8.952  17.198   0.043
    1HEX  C0T  16826   9.040  17.203   0.147
    1HEX  O0U  16827   9.009  17.221   0.265
    1HEX  C0V  16828   9.186  17.174   0.108
    1HEX  C0W  16829   9.283  17.296   0.100
    1HEX  C0Y  16830   8.843   0.025   0.081
    1HEX  O0Z  16831   8.805   0.024   0.217
    1HEX  C10  16832   8.887   0.060   0.315
    1HEX  O11  16833   8.999   0.109   0.302
    1HEX  C12  16834   8.822   0.031   0.449
    1HEX  C13  16835   8.904   0.069   0.573
    1HEX  C15  16836   8.610  17.385   0.040
    1HEX  O16  16837   8.553  17.351   0.166
    1HEX  C17  16838   8.454  17.258   0.170
    1HEX  O18  16839   8.444  17.163   0.094
    1HEX  C19  16840   8.348  17.285   0.277
    1HEX  C1A  16841   8.211  17.334   0.219
    1HEX  H1D  16842   8.931  17.167  16.719
    1HEX  H1E  16843   8.935  17.339  16.695
    1HEX  H1F  16844   8.956  17.374  16.947
    1HEX  H1G  16845   8.951  17.200  16.969
    1HEX  H1H  16846   8.525  17.347  16.881
    1HEX  H1I  16847   8.549   0.077  16.902
    1HEX  H1J  16848   8.669   0.126  17.146
    1HEX  H1K  16849   8.552   0.092  17.271
    1HEX  H1M  16850   8.421   0.502  17.117
    1HEX  H1N  16851   8.593   0.475  17.121
    1HEX  H1O  16852   8.597   0.548  17.370
    1HEX  H1P  16853   8.429   0.592  17.354
    1HEX  H1R  16854   8.321   0.003  17.025
    1HEX  H1S  16855   8.335  17.416  17.195
    1HEX  H1T  16856   8.455  17.039  16.902
    1HEX  H1U  16857   8.289  16.996  16.881
    1HEX  H1V  16858   8.332  16.845  17.057
    1HEX  H1W  16859   8.313  16.983  17.163
    1HEX  H1Y  16860   8.586  17.204  17.092
    1HEX  H1Z  16861   8.531  17.242  17.241
    1HEX  H20  16862   8.797   0.027  17.264
    1HEX  H21  16863   8.900  17.336  17.287
    1HEX  H22  16864   8.758  17.136   0.008
    1HEX  H23  16865   8.781  17.203   0.166
    1HEX  H24  16866   9.184  17.121   0.013
    1HEX  H25  16867   9.224  17.103   0.181
    1HEX  H26  16868   9.237  17.383   0.054
    1HEX  H27  16869   9.375  17.273   0.045
    1HEX  H29  16870   8.822   0.123   0.039
    1HEX  H2A  16871   8.950   0.010   0.069
    1HEX  H2B  16872   8.799  17.365   0.450
    1HEX  H2C  16873   8.727   0.084   0.449
    1HEX  H2D  16874   8.936   0.173   0.569
    1HEX  H2E  16875   8.994   0.008   0.581
    1HEX  H2G  16876   8.544  17.346  17.405
    1HEX  H2H  16877   8.595   0.052   0.033
    1HEX  H2I  16878   8.388  17.355   0.350
    1HEX  H2J  16879   8.332  17.191   0.330
    1HEX  H2K  16880   8.219  17.350   0.111
    1HEX  H2M  16881   8.183  17.430   0.262
    1STR  S00  16882   8.917  17.256  16.588
    1STR  S0E  16883   8.581   0.742  17.363
    1STR  S0M  16884   8.436  16.799  17.175
    1STR  S0X  16885   9.454  17.342   0.046
    1STR  S14  16886   8.826   0.051   0.737
    1STR  S1B  16887   8.050  17.356   0.132
    1HEX  C01  16888   8.979  17.367   3.747
    1HEX  C02  16889   8.910  17.319   3.874
    1HEX  C03  16890   8.763  17.301   3.845
    1HEX  O04  16891   8.716  17.193   3.807
    1HEX  O05  16892   8.698  17.415   3.868
    1HEX  C06  16893   8.557  17.417   3.872
    1HEX  C07  16894   8.514  17.408   4.021
    1HEX  C08  16895   8.550   0.105   4.091
    1HEX  O09  16896   8.496   0.233   4.052
    1HEX  C0A  16897   8.488   0.333   4.147
    1HEX  O0B  16898   8.467   0.313   4.267
    1HEX  C0C  16899   8.512   0.477   4.095
    1HEX  C0D  16900   8.542   0.587   4.204
    1HEX  C0F  16901   8.362  17.375   4.029
    1HEX  O0G  16902   8.339  17.232   4.025
    1HEX  C0H  16903   8.320  17.167   3.909
    1HEX  O0I  16904   8.281  17.223   3.806
    1HEX  C0J  16905   8.358  17.016   3.903
    1HEX  C0K  16906   8.364  16.921   4.030
    1HEX  C0N  16907   8.584  17.284   4.092
    1HEX  O0O  16908   8.723  17.278   4.127
    1HEX  C0P  16909   8.788  17.364   4.220
    1HEX  C0Q  16910   8.757  17.355   4.373
    1HEX  C0R  16911   8.805  17.217   4.425
    1HEX  O0S  16912   8.948  17.200   4.408
    1HEX  C0T  16913   9.034  17.203   4.514
    1HEX  O0U  16914   9.001  17.218   4.631
    1HEX  C0V  16915   9.181  17.174   4.476
    1HEX  C0W  16916   9.278  17.296   4.476
    1HEX  C0Y  16917   8.841   0.026   4.441
    1HEX  O0Z  16918   8.804   0.026   4.577
    1HEX  C10  16919   8.888   0.063   4.673
    1HEX  O11  16920   9.000   0.111   4.658
    1HEX  C12  16921   8.825   0.035   4.809
    1HEX  C13  16922   8.911   0.073   4.930
    1HEX  C15  16923   8.607  17.388   4.404
    1HEX  O16  16924   8.549  17.359   4.532
    1HEX  C17  16925   8.444  17.274   4.538
    1HEX  O18  16926   8.426  17.179   4.463
    1HEX  C19  16927   8.342  17.308   4.648
    1HEX  C1A  16928   8.211  17.375   4.597
    1HEX  H1D  16929   9.045  17.287   3.718
    1HEX  H1E  16930   8.909  17.386   3.665
    1HEX  H1F  16931   8.920  17.392   3.953
    1HEX  H1G  16932   8.950  17.225   3.911
    1HEX  H1H  16933   8.515  17.338   3.810
    1HEX  H1I  16934   8.524   0.071   3.827
    1HEX  H1J  16935   8.656   0.123   4.073
    1HEX  H1K  16936   8.537   0.093   4.197
    1HEX  H1M  16937   8.428   0.507   4.033
    1HEX  H1N  16938   8.599   0.472   4.030
    1HEX  H1O  16939   8.616   0.554   4.276
    1HEX  H1P  16940   8.452   0.611   4.261
    1HEX  H1R  16941   8.306  17.428   3.951
    1HEX  H1S  16942   8.321  17.413   4.122
    1HEX  H1T  16943   8.455  17.015   3.854
    1HEX  H1U  16944   8.290  16.974   3.829
    1HEX  H1V  16945   8.331  16.821   4.001
    1HEX  H1W  16946   8.299  16.955   4.110
    1HEX  H1Y  16947   8.578  17.203   4.019
    1HEX  H1Z  16948   8.524  17.239   4.170
    1HEX  H20  16949   8.790   0.027   4.186
    1HEX  H21  16950   8.893  17.335   4.208
    1HEX  H22  16951   8.754  17.137   4.370
    1HEX  H23  16952   8.776  17.204   4.529
    1HEX  H24  16953   9.181  17.125   4.379
    1HEX  H25  16954   9.217  17.101   4.548
    1HEX  H26  16955   9.233  17.385   4.432
    1HEX  H27  16956   9.370  17.274   4.422
    1HEX  H29  16957   8.820   0.125   4.399
    1HEX  H2A  16958   8.948   0.010   4.428
    1HEX  H2B  16959   8.803  17.368   4.811
    1HEX  H2C  16960   8.730   0.087   4.812
    1HEX  H2D  16961   8.939   0.178   4.925
    1HEX  H2E  16962   9.003   0.016   4.930
    1HEX  H2G  16963   8.540  17.347   4.331
    1HEX  H2H  16964   8.593   0.055   4.394
    1HEX  H2I  16965   8.392  17.367   4.725
    1HEX  H2J  16966   8.317  17.213   4.695
    1HEX  H2K  16967   8.201  17.371   4.489
    1HEX  H2M  16968   8.207   0.040   4.626
    1STR  S00  16969   8.898   0.030   3.618
    1STR  S0E  16970   8.622   0.746   4.257
    1STR  S0M  16971   8.415  16.786   4.152
    1STR  S0X  16972   9.451  17.355   4.446
    1STR  S14  16973   8.842   0.052   5.098
    1STR  S1B  16974   8.053   0.001   4.526
    1HEX  C01  16975   8.979  17.288   8.023
    1HEX  C02  16976   8.926  17.292   8.168
    1HEX  C03  16977   8.774  17.287   8.170
    1HEX  O04  16978   8.714  17.184   8.138
    1HEX  O05  16979   8.719  17.402   8.211
    1HEX  C06  16980   8.578  17.412   8.223
    1HEX  C07  16981   8.534  17.397   8.372
    1HEX  C08  16982   8.560   0.094   8.443
    1HEX  O09  16983   8.498   0.218   8.403
    1HEX  C0A  16984   8.480   0.314   8.499
    1HEX  O0B  16985   8.452   0.291   8.617
    1HEX  C0C  16986   8.502   0.459   8.452
    1HEX  C0D  16987   8.527   0.563   8.565
    1HEX  C0F  16988   8.384  17.352   8.379
    1HEX  O0G  16989   8.375  17.206   8.376
    1HEX  C0H  16990   8.364  17.139   8.259
    1HEX  O0I  16991   8.315  17.191   8.159
    1HEX  C0J  16992   8.422  16.994   8.249
    1HEX  C0K  16993   8.475  16.902   8.369
    1HEX  C0N  16994   8.611  17.279   8.443
    1HEX  O0O  16995   8.750  17.285   8.478
    1HEX  C0P  16996   8.802  17.369   8.580
    1HEX  C0Q  16997   8.762  17.355   8.731
    1HEX  C0R  16998   8.804  17.214   8.781
    1HEX  O0S  16999   8.945  17.193   8.767
    1HEX  C0T  17000   9.028  17.194   8.875
    1HEX  O0U  17001   8.993  17.210   8.992
    1HEX  C0V  17002   9.175  17.167   8.840
    1HEX  C0W  17003   9.269  17.290   8.843
    1HEX  C0Y  17004   8.844   0.022   8.807
    1HEX  O0Z  17005   8.804   0.018   8.943
    1HEX  C10  17006   8.882   0.054   9.044
    1HEX  O11  17007   8.994   0.104   9.035
    1HEX  C12  17008   8.812   0.024   9.176
    1HEX  C13  17009   8.889   0.056   9.305
    1HEX  C15  17010   8.611  17.387   8.758
    1HEX  O16  17011   8.558  17.359   8.888
    1HEX  C17  17012   8.462  17.266   8.903
    1HEX  O18  17013   8.441  17.173   8.826
    1HEX  C19  17014   8.376  17.287   9.027
    1HEX  C1A  17015   8.243  17.362   8.996
    1HEX  H1D  17016   8.913  17.230   7.958
    1HEX  H1E  17017   8.991  17.387   7.981
    1HEX  H1F  17018   8.960  17.381   8.220
    1HEX  H1G  17019   8.962  17.206   8.224
    1HEX  H1H  17020   8.528  17.340   8.158
    1HEX  H1I  17021   8.547   0.069   8.184
    1HEX  H1J  17022   8.665   0.118   8.427
    1HEX  H1K  17023   8.545   0.081   8.548
    1HEX  H1M  17024   8.418   0.491   8.389
    1HEX  H1N  17025   8.590   0.458   8.388
    1HEX  H1O  17026   8.601   0.527   8.638
    1HEX  H1P  17027   8.436   0.583   8.622
    1HEX  H1R  17028   8.324  17.400   8.300
    1HEX  H1S  17029   8.340  17.387   8.472
    1HEX  H1T  17030   8.504  17.006   8.179
    1HEX  H1U  17031   8.346  16.940   8.192
    1HEX  H1V  17032   8.453  16.798   8.343
    1HEX  H1W  17033   8.419  16.923   8.460
    1HEX  H1Y  17034   8.611  17.196   8.372
    1HEX  H1Z  17035   8.555  17.233   8.524
    1HEX  H20  17036   8.801   0.033   8.549
    1HEX  H21  17037   8.909  17.345   8.574
    1HEX  H22  17038   8.751  17.137   8.723
    1HEX  H23  17039   8.771  17.199   8.884
    1HEX  H24  17040   9.177  17.119   8.742
    1HEX  H25  17041   9.211  17.093   8.911
    1HEX  H26  17042   9.229  17.374   8.786
    1HEX  H27  17043   9.366  17.265   8.801
    1HEX  H29  17044   8.825   0.122   8.768
    1HEX  H2A  17045   8.952   0.006   8.798
    1HEX  H2B  17046   8.788  17.357   9.173
    1HEX  H2C  17047   8.717   0.077   9.173
    1HEX  H2D  17048   8.924   0.160   9.303
    1HEX  H2E  17049   8.978  17.433   9.313
    1HEX  H2G  17050   8.544  17.344   8.686
    1HEX  H2H  17051   8.596   0.054   8.749
    1HEX  H2I  17052   8.434  17.339   9.103
    1HEX  H2J  17053   8.353  17.189   9.067
    1HEX  H2K  17054   8.212  17.352   8.892
    1HEX  H2M  17055   8.252   0.029   9.016
    1STR  S00  17056   8.912  17.392   7.890
    1STR  S0E  17057   8.622   0.711   8.619
    1STR  S0M  17058   8.580  16.759   8.443
    1STR  S0X  17059   9.440  17.353   8.813
    1STR  S14  17060   8.813   0.022   9.469
    1STR  S1B  17061   8.079  17.409   8.931
    1HEX  C01  17062   8.968  17.292  12.384
    1HEX  C02  17063   8.926  17.295  12.532
    1HEX  C03  17064   8.775  17.291  12.542
    1HEX  O04  17065   8.713  17.188  12.518
    1HEX  O05  17066   8.722  17.411  12.577
    1HEX  C06  17067   8.581  17.427  12.585
    1HEX  C07  17068   8.530  17.417  12.731
    1HEX  C08  17069   8.562   0.111  12.807
    1HEX  O09  17070   8.508   0.241  12.772
    1HEX  C0A  17071   8.494   0.336  12.872
    1HEX  O0B  17072   8.468   0.310  12.990
    1HEX  C0C  17073   8.517   0.483  12.829
    1HEX  C0D  17074   8.544   0.590  12.943
    1HEX  C0F  17075   8.376  17.389  12.731
    1HEX  O0G  17076   8.352  17.249  12.704
    1HEX  C0H  17077   8.323  17.205  12.581
    1HEX  O0I  17078   8.272  17.275  12.493
    1HEX  C0J  17079   8.367  17.061  12.550
    1HEX  C0K  17080   8.385  16.959  12.666
    1HEX  C0N  17081   8.592  17.289  12.801
    1HEX  O0O  17082   8.729  17.279  12.840
    1HEX  C0P  17083   8.794  17.364  12.936
    1HEX  C0Q  17084   8.761  17.354  13.089
    1HEX  C0R  17085   8.813  17.218  13.142
    1HEX  O0S  17086   8.956  17.204  13.123
    1HEX  C0T  17087   9.045  17.210  13.228
    1HEX  O0U  17088   9.013  17.224  13.345
    1HEX  C0V  17089   9.191  17.185  13.187
    1HEX  C0W  17090   9.288  17.308  13.182
    1HEX  C0Y  17091   8.842   0.028  13.158
    1HEX  O0Z  17092   8.802   0.028  13.293
    1HEX  C10  17093   8.885   0.061  13.392
    1HEX  O11  17094   8.998   0.107  13.380
    1HEX  C12  17095   8.818   0.031  13.525
    1HEX  C13  17096   8.900   0.066  13.650
    1HEX  C15  17097   8.609  17.383  13.118
    1HEX  O16  17098   8.548  17.351  13.243
    1HEX  C17  17099   8.441  17.266  13.243
    1HEX  O18  17100   8.430  17.168  13.170
    1HEX  C19  17101   8.329  17.305  13.340
    1HEX  C1A  17102   8.198  17.357  13.271
    1HEX  H1D  17103   8.914  17.215  12.329
    1HEX  H1E  17104   8.947  17.387  12.336
    1HEX  H1F  17105   8.963  17.383  12.582
    1HEX  H1G  17106   8.965  17.208  12.585
    1HEX  H1H  17107   8.533  17.354  12.519
    1HEX  H1I  17108   8.555   0.083  12.541
    1HEX  H1J  17109   8.668   0.130  12.793
    1HEX  H1K  17110   8.545   0.094  12.912
    1HEX  H1M  17111   8.433   0.514  12.767
    1HEX  H1N  17112   8.604   0.481  12.764
    1HEX  H1O  17113   8.617   0.554  13.015
    1HEX  H1P  17114   8.452   0.609  12.999
    1HEX  H1R  17115   8.323   0.015  12.661
    1HEX  H1S  17116   8.333  17.411  12.829
    1HEX  H1T  17117   8.464  17.072  12.501
    1HEX  H1U  17118   8.300  17.022  12.474
    1HEX  H1V  17119   8.342  16.862  12.640
    1HEX  H1W  17120   8.338  16.992  12.759
    1HEX  H1Y  17121   8.585  17.209  12.728
    1HEX  H1Z  17122   8.526  17.245  12.875
    1HEX  H20  17123   8.798   0.026  12.902
    1HEX  H21  17124   8.898  17.333  12.925
    1HEX  H22  17125   8.763  17.137  13.088
    1HEX  H23  17126   8.785  17.205  13.247
    1HEX  H24  17127   9.190  17.133  13.092
    1HEX  H25  17128   9.230  17.113  13.260
    1HEX  H26  17129   9.241  17.396  13.137
    1HEX  H27  17130   9.380  17.287  13.128
    1HEX  H29  17131   8.819   0.125  13.115
    1HEX  H2A  17132   8.949   0.013  13.147
    1HEX  H2B  17133   8.795  17.365  13.524
    1HEX  H2C  17134   8.723   0.085  13.525
    1HEX  H2D  17135   8.926   0.172  13.651
    1HEX  H2E  17136   8.993   0.011  13.651
    1HEX  H2G  17137   8.546  17.342  13.042
    1HEX  H2H  17138   8.594   0.050  13.110
    1HEX  H2I  17139   8.369  17.376  13.412
    1HEX  H2J  17140   8.306  17.215  13.397
    1HEX  H2K  17141   8.213  17.373  13.164
    1HEX  H2M  17142   8.169   0.013  13.313
    1STR  S00  17143   8.910  17.379  12.235
    1STR  S0E  17144   8.612   0.747  13.017
    1STR  S0M  17145   8.479  16.815  12.735
    1STR  S0X  17146   9.456  17.369  13.133
    1STR  S14  17147   8.801   0.034  13.801
    1STR  S1B  17148   8.042  17.394  13.178
    1HEX  C01  17149   8.960   4.213  16.735
    1HEX  C02  17150   8.918   4.213  16.883
    1HEX  C03  17151   8.767   4.207  16.894
    1HEX  O04  17152   8.707   4.103  16.867
    1HEX  O05  17153   8.713   4.324  16.934
    1HEX  C06  17154   8.572   4.335  16.947
    1HEX  C07  17155   8.529   4.326  17.096
    1HEX  C08  17156   8.562   4.463  17.165
    1HEX  O09  17157   8.502   4.588  17.127
    1HEX  C0A  17158   8.486   4.685  17.224
    1HEX  O0B  17159   8.463   4.662  17.343
    1HEX  C0C  17160   8.503   4.831  17.175
    1HEX  C0D  17161   8.526   4.939  17.286
    1HEX  C0F  17162   8.376   4.292  17.106
    1HEX  O0G  17163   8.353   4.148  17.110
    1HEX  C0H  17164   8.330   4.078  16.998
    1HEX  O0I  17165   8.291   4.130  16.894
    1HEX  C0J  17166   8.363   3.925  16.999
    1HEX  C0K  17167   8.375   3.833  17.128
    1HEX  C0N  17168   8.600   4.203  17.166
    1HEX  O0O  17169   8.740   4.203  17.199
    1HEX  C0P  17170   8.798   4.287  17.299
    1HEX  C0Q  17171   8.761   4.275   0.010
    1HEX  C0R  17172   8.804   4.135   0.061
    1HEX  O0S  17173   8.946   4.116   0.047
    1HEX  C0T  17174   9.030   4.119   0.154
    1HEX  O0U  17175   8.995   4.136   0.271
    1HEX  C0V  17176   9.176   4.091   0.118
    1HEX  C0W  17177   9.270   4.215   0.108
    1HEX  C0Y  17178   8.843   4.384   0.084
    1HEX  O0Z  17179   8.803   4.382   0.220
    1HEX  C10  17180   8.883   4.420   0.319
    1HEX  O11  17181   8.994   4.470   0.309
    1HEX  C12  17182   8.814   4.391   0.452
    1HEX  C13  17183   8.891   4.432   0.579
    1HEX  C15  17184   8.610   4.309   0.039
    1HEX  O16  17185   8.555   4.279   0.168
    1HEX  C17  17186   8.462   4.183   0.179
    1HEX  O18  17187   8.452   4.085   0.105
    1HEX  C19  17188   8.363   4.208   0.292
    1HEX  C1A  17189   8.232   4.278   0.244
    1HEX  H1D  17190   8.907   4.135  16.680
    1HEX  H1E  17191   8.933   4.308  16.688
    1HEX  H1F  17192   8.954   4.302  16.935
    1HEX  H1G  17193   8.959   4.127  16.935
    1HEX  H1H  17194   8.521   4.260  16.887
    1HEX  H1I  17195   8.542   4.430  16.903
    1HEX  H1J  17196   8.667   4.484  17.145
    1HEX  H1K  17197   8.551   4.450  17.271
    1HEX  H1M  17198   8.419   4.859  17.111
    1HEX  H1N  17199   8.591   4.831  17.111
    1HEX  H1O  17200   8.598   4.906  17.361
    1HEX  H1P  17201   8.433   4.962  17.339
    1HEX  H1R  17202   8.319   4.341  17.027
    1HEX  H1S  17203   8.335   4.334  17.198
    1HEX  H1T  17204   8.456   3.919  16.942
    1HEX  H1U  17205   8.288   3.883  16.932
    1HEX  H1V  17206   8.347   3.731  17.100
    1HEX  H1W  17207   8.308   3.865  17.207
    1HEX  H1Y  17208   8.594   4.122  17.093
    1HEX  H1Z  17209   8.543   4.158  17.246
    1HEX  H20  17210   8.799   4.390  17.266
    1HEX  H21  17211   8.903   4.260  17.290
    1HEX  H22  17212   8.752   4.058   0.004
    1HEX  H23  17213   8.772   4.121   0.165
    1HEX  H24  17214   9.177   4.036   0.024
    1HEX  H25  17215   9.216   4.023   0.194
    1HEX  H26  17216   9.216   4.303   0.074
    1HEX  H27  17217   9.349   4.195   0.036
    1HEX  H29  17218   8.824   4.483   0.043
    1HEX  H2A  17219   8.951   4.367   0.074
    1HEX  H2B  17220   8.793   4.284   0.454
    1HEX  H2C  17221   8.718   4.442   0.449
    1HEX  H2D  17222   8.922   4.537   0.572
    1HEX  H2E  17223   8.982   4.373   0.587
    1HEX  H2G  17224   8.542   4.268  17.407
    1HEX  H2H  17225   8.596   4.416   0.031
    1HEX  H2I  17226   8.412   4.264   0.371
    1HEX  H2J  17227   8.338   4.110   0.334
    1HEX  H2K  17228   8.217   4.271   0.136
    1HEX  H2M  17229   8.233   4.384   0.270
    1STR  S00  17230   8.891   4.299  16.591
    1STR  S0E  17231   8.598   5.096  17.349
    1STR  S0M  17232   8.431   3.704  17.255
    1STR  S0X  17233   9.442   4.272   0.065
    1STR  S14  17234   8.812   4.422   0.744
    1STR  S1B  17235   8.074   4.320   0.160
    1HEX  C01  17236   8.963   4.220   3.652
    1HEX  C02  17237   8.923   4.216   3.800
    1HEX  C03  17238   8.772   4.208   3.811
    1HEX  O04  17239   8.712   4.104   3.782
    1HEX  O05  17240   8.717   4.324   3.852
    1HEX  C06  17241   8.576   4.334   3.864
    1HEX  C07  17242   8.532   4.319   4.012
    1HEX  C08  17243   8.558   4.457   4.084
    1HEX  O09  17244   8.496   4.580   4.044
    1HEX  C0A  17245   8.478   4.677   4.141
    1HEX  O0B  17246   8.450   4.654   4.258
    1HEX  C0C  17247   8.498   4.822   4.093
    1HEX  C0D  17248   8.515   4.928   4.207
    1HEX  C0F  17249   8.381   4.276   4.018
    1HEX  O0G  17250   8.371   4.130   4.011
    1HEX  C0H  17251   8.357   4.067   3.892
    1HEX  O0I  17252   8.307   4.122   3.794
    1HEX  C0J  17253   8.413   3.922   3.877
    1HEX  C0K  17254   8.463   3.826   3.995
    1HEX  C0N  17255   8.607   4.200   4.083
    1HEX  O0O  17256   8.746   4.203   4.118
    1HEX  C0P  17257   8.801   4.289   4.218
    1HEX  C0Q  17258   8.763   4.275   4.370
    1HEX  C0R  17259   8.808   4.135   4.420
    1HEX  O0S  17260   8.950   4.115   4.404
    1HEX  C0T  17261   9.035   4.118   4.510
    1HEX  O0U  17262   9.003   4.135   4.627
    1HEX  C0V  17263   9.181   4.088   4.472
    1HEX  C0W  17264   9.278   4.209   4.468
    1HEX  C0Y  17265   8.844   4.384   4.444
    1HEX  O0Z  17266   8.805   4.381   4.579
    1HEX  C10  17267   8.887   4.418   4.678
    1HEX  O11  17268   8.998   4.468   4.666
    1HEX  C12  17269   8.820   4.389   4.812
    1HEX  C13  17270   8.903   4.423   4.937
    1HEX  C15  17271   8.612   4.305   4.398
    1HEX  O16  17272   8.557   4.273   4.526
    1HEX  C17  17273   8.461   4.179   4.535
    1HEX  O18  17274   8.445   4.085   4.457
    1HEX  C19  17275   8.365   4.200   4.652
    1HEX  C1A  17276   8.226   4.255   4.609
    1HEX  H1D  17277   8.911   4.143   3.595
    1HEX  H1E  17278   8.937   4.315   3.607
    1HEX  H1F  17279   8.958   4.304   3.853
    1HEX  H1G  17280   8.965   4.129   3.850
    1HEX  H1H  17281   8.527   4.263   3.798
    1HEX  H1I  17282   8.547   4.432   3.825
    1HEX  H1J  17283   8.663   4.481   4.068
    1HEX  H1K  17284   8.544   4.443   4.190
    1HEX  H1M  17285   8.417   4.851   4.027
    1HEX  H1N  17286   8.589   4.823   4.033
    1HEX  H1O  17287   8.591   4.900   4.280
    1HEX  H1P  17288   8.423   4.942   4.264
    1HEX  H1R  17289   8.322   4.327   3.941
    1HEX  H1S  17290   8.337   4.308   4.112
    1HEX  H1T  17291   8.498   3.936   3.809
    1HEX  H1U  17292   8.339   3.871   3.816
    1HEX  H1V  17293   8.436   3.723   3.969
    1HEX  H1W  17294   8.409   3.849   4.087
    1HEX  H1Y  17295   8.606   4.118   4.011
    1HEX  H1Z  17296   8.550   4.154   4.163
    1HEX  H20  17297   8.799   4.392   4.186
    1HEX  H21  17298   8.907   4.264   4.211
    1HEX  H22  17299   8.755   4.057   4.365
    1HEX  H23  17300   8.778   4.121   4.524
    1HEX  H24  17301   9.180   4.037   4.376
    1HEX  H25  17302   9.218   4.016   4.545
    1HEX  H26  17303   9.234   4.296   4.419
    1HEX  H27  17304   9.371   4.185   4.416
    1HEX  H29  17305   8.824   4.483   4.404
    1HEX  H2A  17306   8.952   4.368   4.433
    1HEX  H2B  17307   8.796   4.282   4.812
    1HEX  H2C  17308   8.726   4.443   4.812
    1HEX  H2D  17309   8.938   4.526   4.933
    1HEX  H2E  17310   8.991   4.359   4.945
    1HEX  H2G  17311   8.545   4.265   4.325
    1HEX  H2H  17312   8.597   4.413   4.391
    1HEX  H2I  17313   8.413   4.265   4.726
    1HEX  H2J  17314   8.351   4.103   4.701
    1HEX  H2K  17315   8.215   4.260   4.501
    1HEX  H2M  17316   8.210   4.356   4.647
    1STR  S00  17317   8.886   4.317   3.518
    1STR  S0E  17318   8.576   5.094   4.259
    1STR  S0M  17319   8.565   3.679   4.062
    1STR  S0X  17320   9.452   4.252   4.422
    1STR  S14  17321   8.834   4.393   5.104
    1STR  S1B  17322   8.062   4.261   4.528
    1HEX  C01  17323   8.996   4.269   8.068
    1HEX  C02  17324   8.930   4.240   8.204
    1HEX  C03  17325   8.780   4.228   8.191
    1HEX  O04  17326   8.727   4.122   8.157
    1HEX  O05  17327   8.718   4.343   8.219
    1HEX  C06  17328   8.576   4.349   8.224
    1HEX  C07  17329   8.526   4.338   8.371
    1HEX  C08  17330   8.560   4.472   8.447
    1HEX  O09  17331   8.506   4.601   8.410
    1HEX  C0A  17332   8.496   4.698   8.508
    1HEX  O0B  17333   8.474   4.675   8.627
    1HEX  C0C  17334   8.519   4.844   8.461
    1HEX  C0D  17335   8.551   4.952   8.571
    1HEX  C0F  17336   8.373   4.309   8.372
    1HEX  O0G  17337   8.349   4.169   8.346
    1HEX  C0H  17338   8.319   4.126   8.222
    1HEX  O0I  17339   8.271   4.196   8.134
    1HEX  C0J  17340   8.359   3.980   8.192
    1HEX  C0K  17341   8.370   3.877   8.309
    1HEX  C0N  17342   8.590   4.210   8.440
    1HEX  O0O  17343   8.728   4.200   8.480
    1HEX  C0P  17344   8.792   4.284   8.576
    1HEX  C0Q  17345   8.759   4.274   8.729
    1HEX  C0R  17346   8.810   4.137   8.782
    1HEX  O0S  17347   8.953   4.123   8.765
    1HEX  C0T  17348   9.039   4.127   8.871
    1HEX  O0U  17349   9.006   4.141   8.989
    1HEX  C0V  17350   9.186   4.102   8.834
    1HEX  C0W  17351   9.283   4.225   8.836
    1HEX  C0Y  17352   8.840   4.387   8.797
    1HEX  O0Z  17353   8.803   4.386   8.933
    1HEX  C10  17354   8.888   4.422   9.029
    1HEX  O11  17355   9.000   4.471   9.013
    1HEX  C12  17356   8.826   4.394   9.165
    1HEX  C13  17357   8.916   4.427   9.285
    1HEX  C15  17358   8.607   4.304   8.758
    1HEX  O16  17359   8.547   4.276   8.885
    1HEX  C17  17360   8.436   4.196   8.888
    1HEX  O18  17361   8.418   4.099   8.815
    1HEX  C19  17362   8.331   4.236   8.992
    1HEX  C1A  17363   8.200   4.298   8.932
    1HEX  H1D  17364   9.049   4.181   8.032
    1HEX  H1E  17365   8.922   4.297   7.992
    1HEX  H1F  17366   8.951   4.321   8.274
    1HEX  H1G  17367   8.969   4.148   8.248
    1HEX  H1H  17368   8.533   4.272   8.160
    1HEX  H1I  17369   8.544   4.443   8.180
    1HEX  H1J  17370   8.666   4.490   8.434
    1HEX  H1K  17371   8.541   4.455   8.552
    1HEX  H1M  17372   8.434   4.875   8.400
    1HEX  H1N  17373   8.605   4.840   8.393
    1HEX  H1O  17374   8.625   4.915   8.643
    1HEX  H1P  17375   8.462   4.976   8.628
    1HEX  H1R  17376   8.319   4.375   8.303
    1HEX  H1S  17377   8.331   4.331   8.471
    1HEX  H1T  17378   8.458   3.988   8.145
    1HEX  H1U  17379   8.293   3.944   8.114
    1HEX  H1V  17380   8.324   3.782   8.281
    1HEX  H1W  17381   8.322   3.912   8.400
    1HEX  H1Y  17382   8.584   4.130   8.366
    1HEX  H1Z  17383   8.524   4.165   8.515
    1HEX  H20  17384   8.796   4.386   8.542
    1HEX  H21  17385   8.896   4.253   8.565
    1HEX  H22  17386   8.760   4.056   8.728
    1HEX  H23  17387   8.780   4.125   8.887
    1HEX  H24  17388   9.187   4.054   8.736
    1HEX  H25  17389   9.223   4.028   8.904
    1HEX  H26  17390   9.239   4.313   8.790
    1HEX  H27  17391   9.379   4.204   8.787
    1HEX  H29  17392   8.817   4.485   8.755
    1HEX  H2A  17393   8.947   4.373   8.784
    1HEX  H2B  17394   8.801   4.288   9.166
    1HEX  H2C  17395   8.733   4.449   9.171
    1HEX  H2D  17396   8.944   4.532   9.283
    1HEX  H2E  17397   9.008   4.370   9.279
    1HEX  H2G  17398   8.543   4.260   8.683
    1HEX  H2H  17399   8.591   4.411   8.747
    1HEX  H2I  17400   8.377   4.302   9.066
    1HEX  H2J  17401   8.305   4.145   9.045
    1HEX  H2K  17402   8.203   4.302   8.824
    1HEX  H2M  17403   8.187   4.401   8.967
    1STR  S00  17404   8.934   4.365   7.926
    1STR  S0E  17405   8.633   5.109   8.631
    1STR  S0M  17406   8.453   3.729   8.383
    1STR  S0X  17407   9.454   4.289   8.800
    1STR  S14  17408   8.844   4.385   9.448
    1STR  S1B  17409   8.041   4.353   8.851
    1HEX  C01  17410   8.979   4.209  12.394
    1HEX  C02  17411   8.923   4.209  12.537
    1HEX  C03  17412   8.772   4.205  12.534
    1HEX  O04  17413   8.712   4.101  12.507
    1HEX  O05  17414   8.715   4.323  12.568
    1HEX  C06  17415   8.574   4.331  12.585
    1HEX  C07  17416   8.533   4.319  12.735
    1HEX  C08  17417   8.563   4.458  12.803
    1HEX  O09  17418   8.503   4.583  12.766
    1HEX  C0A  17419   8.485   4.679  12.865
    1HEX  O0B  17420   8.460   4.653  12.983
    1HEX  C0C  17421   8.505   4.825  12.821
    1HEX  C0D  17422   8.532   4.930  12.935
    1HEX  C0F  17423   8.383   4.276  12.748
    1HEX  O0G  17424   8.369   4.131  12.763
    1HEX  C0H  17425   8.359   4.050  12.655
    1HEX  O0I  17426   8.317   4.091  12.546
    1HEX  C0J  17427   8.409   3.902  12.665
    1HEX  C0K  17428   8.445   3.819  12.798
    1HEX  C0N  17429   8.612   4.201  12.805
    1HEX  O0O  17430   8.751   4.209  12.837
    1HEX  C0P  17431   8.804   4.291  12.941
    1HEX  C0Q  17432   8.763   4.276  13.091
    1HEX  C0R  17433   8.803   4.134  13.140
    1HEX  O0S  17434   8.944   4.113  13.127
    1HEX  C0T  17435   9.026   4.114  13.235
    1HEX  O0U  17436   8.991   4.129  13.352
    1HEX  C0V  17437   9.173   4.089  13.200
    1HEX  C0W  17438   9.263   4.215  13.201
    1HEX  C0Y  17439   8.845   4.383  13.168
    1HEX  O0Z  17440   8.803   4.378  13.303
    1HEX  C10  17441   8.881   4.415  13.405
    1HEX  O11  17442   8.992   4.466  13.398
    1HEX  C12  17443   8.809   4.385  13.536
    1HEX  C13  17444   8.883   4.420  13.666
    1HEX  C15  17445   8.612   4.310  13.119
    1HEX  O16  17446   8.559   4.283  13.249
    1HEX  C17  17447   8.462   4.190  13.263
    1HEX  O18  17448   8.443   4.095  13.189
    1HEX  C19  17449   8.371   4.218  13.382
    1HEX  C1A  17450   8.247   4.301  13.344
    1HEX  H1D  17451   8.932   4.131  12.334
    1HEX  H1E  17452   8.960   4.304  12.345
    1HEX  H1F  17453   8.956   4.296  12.593
    1HEX  H1G  17454   8.957   4.121  12.592
    1HEX  H1H  17455   8.524   4.255  12.523
    1HEX  H1I  17456   8.541   4.426  12.544
    1HEX  H1J  17457   8.668   4.479  12.785
    1HEX  H1K  17458   8.551   4.445  12.909
    1HEX  H1M  17459   8.420   4.857  12.760
    1HEX  H1N  17460   8.591   4.826  12.755
    1HEX  H1O  17461   8.600   4.891  13.010
    1HEX  H1P  17462   8.440   4.956  12.988
    1HEX  H1R  17463   8.323   4.316  12.666
    1HEX  H1S  17464   8.339   4.322  12.837
    1HEX  H1T  17465   8.497   3.902  12.600
    1HEX  H1U  17466   8.334   3.847  12.607
    1HEX  H1V  17467   8.430   3.713  12.778
    1HEX  H1W  17468   8.377   3.845  12.878
    1HEX  H1Y  17469   8.609   4.118  12.735
    1HEX  H1Z  17470   8.559   4.156  12.888
    1HEX  H20  17471   8.803   4.395  12.910
    1HEX  H21  17472   8.910   4.266  12.935
    1HEX  H22  17473   8.750   4.058  13.082
    1HEX  H23  17474   8.769   4.119  13.244
    1HEX  H24  17475   9.176   4.041  13.102
    1HEX  H25  17476   9.211   4.017  13.272
    1HEX  H26  17477   9.219   4.298  13.145
    1HEX  H27  17478   9.363   4.196  13.160
    1HEX  H29  17479   8.827   4.483  13.129
    1HEX  H2A  17480   8.952   4.365  13.159
    1HEX  H2B  17481   8.786   4.278  13.534
    1HEX  H2C  17482   8.714   4.438  13.532
    1HEX  H2D  17483   8.916   4.524  13.663
    1HEX  H2E  17484   8.973   4.359  13.675
    1HEX  H2G  17485   8.543   4.267  13.048
    1HEX  H2H  17486   8.598   4.417  13.109
    1HEX  H2I  17487   8.429   4.265  13.462
    1HEX  H2J  17488   8.340   4.121  13.421
    1HEX  H2K  17489   8.216   4.285  13.240
    1HEX  H2M  17490   8.266   4.408  13.355
    1STR  S00  17491   8.962   4.312  12.246
    1STR  S0E  17492   8.622   5.071  13.012
    1STR  S0M  17493   8.526   3.682  12.906
    1STR  S0X  17494   9.428   4.286  13.165
    1STR  S14  17495   8.801   4.395  13.829
    1STR  S1B  17496   8.092   4.364  13.269
    1HEX  C01  17497   8.972   8.554  16.756
    1HEX  C02  17498   8.922   8.568  16.900
    1HEX  C03  17499   8.770   8.567  16.900
    1HEX  O04  17500   8.708   8.465  16.873
    1HEX  O05  17501   8.717   8.687  16.933
    1HEX  C06  17502   8.576   8.701  16.944
    1HEX  C07  17503   8.529   8.691  17.092
    1HEX  C08  17504   8.561   8.826  17.165
    1HEX  O09  17505   8.504   8.954  17.130
    1HEX  C0A  17506   8.488   9.050  17.229
    1HEX  O0B  17507   8.461   9.023  17.346
    1HEX  C0C  17508   8.508   9.197  17.186
    1HEX  C0D  17509   8.529   9.303  17.301
    1HEX  C0F  17510   8.376   8.657  17.095
    1HEX  O0G  17511   8.355   8.515  17.080
    1HEX  C0H  17512   8.326   8.460  16.961
    1HEX  O0I  17513   8.274   8.523  16.869
    1HEX  C0J  17514   8.369   8.312  16.940
    1HEX  C0K  17515   8.386   8.212  17.060
    1HEX  C0N  17516   8.596   8.566  17.162
    1HEX  O0O  17517   8.735   8.561  17.199
    1HEX  C0P  17518   8.796   8.646  17.297
    1HEX  C0Q  17519   8.762   8.635   0.009
    1HEX  C0R  17520   8.812   8.497   0.061
    1HEX  O0S  17521   8.954   8.481   0.042
    1HEX  C0T  17522   9.043   8.487   0.146
    1HEX  O0U  17523   9.012   8.503   0.264
    1HEX  C0V  17524   9.189   8.459   0.106
    1HEX  C0W  17525   9.286   8.581   0.098
    1HEX  C0Y  17526   8.843   8.746   0.080
    1HEX  O0Z  17527   8.804   8.745   0.216
    1HEX  C10  17528   8.886   8.781   0.314
    1HEX  O11  17529   8.998   8.829   0.301
    1HEX  C12  17530   8.820   8.753   0.448
    1HEX  C13  17531   8.901   8.791   0.572
    1HEX  C15  17532   8.610   8.665   0.038
    1HEX  O16  17533   8.551   8.631   0.164
    1HEX  C17  17534   8.450   8.541   0.166
    1HEX  O18  17535   8.442   8.444   0.091
    1HEX  C19  17536   8.340   8.572   0.268
    1HEX  C1A  17537   8.205   8.620   0.203
    1HEX  H1D  17538   8.921   8.473  16.704
    1HEX  H1E  17539   8.951   8.644  16.699
    1HEX  H1F  17540   8.958   8.659  16.947
    1HEX  H1G  17541   8.956   8.484  16.961
    1HEX  H1H  17542   8.526   8.628  16.880
    1HEX  H1I  17543   8.548   8.798  16.902
    1HEX  H1J  17544   8.666   8.846  17.150
    1HEX  H1K  17545   8.546   8.811  17.271
    1HEX  H1M  17546   8.426   9.227  17.121
    1HEX  H1N  17547   8.597   9.197  17.123
    1HEX  H1O  17548   8.604   9.271  17.373
    1HEX  H1P  17549   8.437   9.319  17.357
    1HEX  H1R  17550   8.320   8.716  17.022
    1HEX  H1S  17551   8.334   8.686  17.192
    1HEX  H1T  17552   8.464   8.320  16.889
    1HEX  H1U  17553   8.300   8.271  16.867
    1HEX  H1V  17554   8.343   8.115  17.035
    1HEX  H1W  17555   8.334   8.247  17.150
    1HEX  H1Y  17556   8.591   8.485  17.090
    1HEX  H1Z  17557   8.534   8.521  17.239
    1HEX  H20  17558   8.798   8.749  17.264
    1HEX  H21  17559   8.901   8.618  17.286
    1HEX  H22  17560   8.760   8.417   0.008
    1HEX  H23  17561   8.784   8.484   0.166
    1HEX  H24  17562   9.187   8.406   0.011
    1HEX  H25  17563   9.228   8.388   0.180
    1HEX  H26  17564   9.239   8.669   0.053
    1HEX  H27  17565   9.377   8.559   0.042
    1HEX  H29  17566   8.821   8.845   0.038
    1HEX  H2A  17567   8.950   8.732   0.069
    1HEX  H2B  17568   8.798   8.646   0.449
    1HEX  H2C  17569   8.725   8.806   0.447
    1HEX  H2D  17570   8.931   8.896   0.569
    1HEX  H2E  17571   8.993   8.732   0.579
    1HEX  H2G  17572   8.545   8.625  17.403
    1HEX  H2H  17573   8.595   8.772   0.031
    1HEX  H2I  17574   8.378   8.644   0.340
    1HEX  H2J  17575   8.321   8.480   0.323
    1HEX  H2K  17576   8.217   8.638   0.096
    1HEX  H2M  17577   8.174   8.715   0.247
    1STR  S00  17578   8.963   8.591  16.579
    1STR  S0E  17579   8.590   9.464  17.372
    1STR  S0M  17580   8.460   8.054  17.128
    1STR  S0X  17581   9.455   8.633   0.043
    1STR  S14  17582   8.812   8.775   0.731
    1STR  S1B  17583   8.047   8.645   0.112
    1HEX  C01  17584   8.953   8.574   3.698
    1HEX  C02  17585   8.905   8.551   3.842
    1HEX  C03  17586   8.754   8.555   3.841
    1HEX  O04  17587   8.688   8.454   3.817
    1HEX  O05  17588   8.706   8.679   3.865
    1HEX  C06  17589   8.566   8.698   3.873
    1HEX  C07  17590   8.517   8.691   4.020
    1HEX  C08  17591   8.552   8.826   4.091
    1HEX  O09  17592   8.497   8.953   4.051
    1HEX  C0A  17593   8.485   9.052   4.146
    1HEX  O0B  17594   8.463   9.032   4.265
    1HEX  C0C  17595   8.507   9.196   4.094
    1HEX  C0D  17596   8.533   9.306   4.203
    1HEX  C0F  17597   8.363   8.662   4.023
    1HEX  O0G  17598   8.338   8.520   4.011
    1HEX  C0H  17599   8.314   8.463   3.892
    1HEX  O0I  17600   8.271   8.525   3.795
    1HEX  C0J  17601   8.352   8.313   3.878
    1HEX  C0K  17602   8.354   8.216   4.001
    1HEX  C0N  17603   8.580   8.566   4.095
    1HEX  O0O  17604   8.720   8.557   4.129
    1HEX  C0P  17605   8.787   8.643   4.221
    1HEX  C0Q  17606   8.757   8.636   4.374
    1HEX  C0R  17607   8.804   8.497   4.426
    1HEX  O0S  17608   8.946   8.478   4.409
    1HEX  C0T  17609   9.032   8.481   4.515
    1HEX  O0U  17610   9.000   8.499   4.632
    1HEX  C0V  17611   9.178   8.451   4.477
    1HEX  C0W  17612   9.276   8.572   4.472
    1HEX  C0Y  17613   8.842   8.746   4.442
    1HEX  O0Z  17614   8.805   8.747   4.578
    1HEX  C10  17615   8.887   8.783   4.676
    1HEX  O11  17616   9.000   8.832   4.662
    1HEX  C12  17617   8.822   8.754   4.810
    1HEX  C13  17618   8.904   8.795   4.934
    1HEX  C15  17619   8.608   8.670   4.406
    1HEX  O16  17620   8.552   8.640   4.534
    1HEX  C17  17621   8.450   8.551   4.542
    1HEX  O18  17622   8.434   8.456   4.466
    1HEX  C19  17623   8.351   8.579   4.655
    1HEX  C1A  17624   8.218   8.646   4.609
    1HEX  H1D  17625   8.906   8.504   3.629
    1HEX  H1E  17626   8.921   8.673   3.665
    1HEX  H1F  17627   8.943   8.626   3.910
    1HEX  H1G  17628   8.936   8.454   3.879
    1HEX  H1H  17629   8.515   8.626   3.808
    1HEX  H1I  17630   8.542   8.795   3.829
    1HEX  H1J  17631   8.658   8.844   4.074
    1HEX  H1K  17632   8.537   8.813   4.197
    1HEX  H1M  17633   8.423   9.225   4.031
    1HEX  H1N  17634   8.594   9.192   4.030
    1HEX  H1O  17635   8.608   9.273   4.276
    1HEX  H1P  17636   8.443   9.328   4.260
    1HEX  H1R  17637   8.310   8.721   3.947
    1HEX  H1S  17638   8.321   8.695   4.118
    1HEX  H1T  17639   8.452   8.315   3.833
    1HEX  H1U  17640   8.287   8.274   3.799
    1HEX  H1V  17641   8.315   8.118   3.972
    1HEX  H1W  17642   8.293   8.252   4.083
    1HEX  H1Y  17643   8.571   8.482   4.026
    1HEX  H1Z  17644   8.517   8.525   4.173
    1HEX  H20  17645   8.790   8.745   4.185
    1HEX  H21  17646   8.891   8.612   4.208
    1HEX  H22  17647   8.751   8.418   4.371
    1HEX  H23  17648   8.774   8.484   4.530
    1HEX  H24  17649   9.177   8.398   4.381
    1HEX  H25  17650   9.215   8.380   4.550
    1HEX  H26  17651   9.226   8.662   4.435
    1HEX  H27  17652   9.361   8.552   4.407
    1HEX  H29  17653   8.823   8.845   4.399
    1HEX  H2A  17654   8.949   8.728   4.430
    1HEX  H2B  17655   8.801   8.648   4.813
    1HEX  H2C  17656   8.726   8.806   4.811
    1HEX  H2D  17657   8.933   8.900   4.927
    1HEX  H2E  17658   8.996   8.737   4.938
    1HEX  H2G  17659   8.539   8.631   4.334
    1HEX  H2H  17660   8.594   8.778   4.397
    1HEX  H2I  17661   8.401   8.637   4.733
    1HEX  H2J  17662   8.328   8.482   4.700
    1HEX  H2K  17663   8.204   8.639   4.501
    1HEX  H2M  17664   8.216   8.751   4.635
    1STR  S00  17665   8.886   8.493   3.551
    1STR  S0E  17666   8.612   9.464   4.256
    1STR  S0M  17667   8.403   8.072   4.110
    1STR  S0X  17668   9.449   8.628   4.441
    1STR  S14  17669   8.832   8.783   5.101
    1STR  S1B  17670   8.058   8.702   4.538
    1HEX  C01  17671   8.973   8.572   8.018
    1HEX  C02  17672   8.924   8.574   8.164
    1HEX  C03  17673   8.772   8.567   8.169
    1HEX  O04  17674   8.713   8.464   8.138
    1HEX  O05  17675   8.716   8.682   8.210
    1HEX  C06  17676   8.575   8.691   8.224
    1HEX  C07  17677   8.534   8.676   8.373
    1HEX  C08  17678   8.560   8.814   8.443
    1HEX  O09  17679   8.497   8.937   8.402
    1HEX  C0A  17680   8.478   9.034   8.498
    1HEX  O0B  17681   8.450   9.012   8.615
    1HEX  C0C  17682   8.499   9.179   8.449
    1HEX  C0D  17683   8.521   9.284   8.562
    1HEX  C0F  17684   8.384   8.630   8.383
    1HEX  O0G  17685   8.375   8.484   8.387
    1HEX  C0H  17686   8.368   8.411   8.273
    1HEX  O0I  17687   8.321   8.457   8.169
    1HEX  C0J  17688   8.426   8.265   8.271
    1HEX  C0K  17689   8.477   8.178   8.395
    1HEX  C0N  17690   8.613   8.559   8.444
    1HEX  O0O  17691   8.752   8.567   8.477
    1HEX  C0P  17692   8.804   8.651   8.580
    1HEX  C0Q  17693   8.763   8.635   8.730
    1HEX  C0R  17694   8.805   8.494   8.780
    1HEX  O0S  17695   8.947   8.474   8.766
    1HEX  C0T  17696   9.030   8.475   8.873
    1HEX  O0U  17697   8.996   8.492   8.990
    1HEX  C0V  17698   9.176   8.445   8.837
    1HEX  C0W  17699   9.273   8.567   8.838
    1HEX  C0Y  17700   8.845   8.743   8.807
    1HEX  O0Z  17701   8.804   8.739   8.942
    1HEX  C10  17702   8.884   8.775   9.042
    1HEX  O11  17703   8.996   8.826   9.033
    1HEX  C12  17704   8.815   8.745   9.175
    1HEX  C13  17705   8.895   8.777   9.302
    1HEX  C15  17706   8.612   8.667   8.758
    1HEX  O16  17707   8.559   8.636   8.887
    1HEX  C17  17708   8.462   8.543   8.900
    1HEX  O18  17709   8.440   8.452   8.821
    1HEX  C19  17710   8.375   8.563   9.024
    1HEX  C1A  17711   8.238   8.630   8.992
    1HEX  H1D  17712   8.913   8.505   7.957
    1HEX  H1E  17713   8.969   8.671   7.974
    1HEX  H1F  17714   8.958   8.663   8.216
    1HEX  H1G  17715   8.962   8.488   8.219
    1HEX  H1H  17716   8.526   8.618   8.160
    1HEX  H1I  17717   8.544   8.788   8.185
    1HEX  H1J  17718   8.665   8.838   8.426
    1HEX  H1K  17719   8.546   8.802   8.549
    1HEX  H1M  17720   8.417   9.209   8.385
    1HEX  H1N  17721   8.589   9.178   8.387
    1HEX  H1O  17722   8.597   9.252   8.634
    1HEX  H1P  17723   8.430   9.301   8.620
    1HEX  H1R  17724   8.324   8.674   8.303
    1HEX  H1S  17725   8.340   8.669   8.474
    1HEX  H1T  17726   8.510   8.275   8.201
    1HEX  H1U  17727   8.351   8.209   8.215
    1HEX  H1V  17728   8.460   8.072   8.373
    1HEX  H1W  17729   8.418   8.200   8.484
    1HEX  H1Y  17730   8.613   8.476   8.373
    1HEX  H1Z  17731   8.559   8.512   8.526
    1HEX  H20  17732   8.802   8.754   8.549
    1HEX  H21  17733   8.910   8.627   8.574
    1HEX  H22  17734   8.753   8.417   8.723
    1HEX  H23  17735   8.773   8.479   8.883
    1HEX  H24  17736   9.177   8.397   8.740
    1HEX  H25  17737   9.212   8.372   8.909
    1HEX  H26  17738   9.231   8.652   8.784
    1HEX  H27  17739   9.368   8.542   8.793
    1HEX  H29  17740   8.825   8.843   8.767
    1HEX  H2A  17741   8.952   8.726   8.796
    1HEX  H2B  17742   8.791   8.639   9.173
    1HEX  H2C  17743   8.721   8.799   9.174
    1HEX  H2D  17744   8.931   8.880   9.300
    1HEX  H2E  17745   8.983   8.713   9.310
    1HEX  H2G  17746   8.544   8.625   8.686
    1HEX  H2H  17747   8.597   8.774   8.750
    1HEX  H2I  17748   8.431   8.619   9.099
    1HEX  H2J  17749   8.357   8.464   9.066
    1HEX  H2K  17750   8.212   8.624   8.886
    1HEX  H2M  17751   8.239   8.736   9.018
    1STR  S00  17752   8.904   8.677   7.887
    1STR  S0E  17753   8.604   9.441   8.610
    1STR  S0M  17754   8.574   8.034   8.480
    1STR  S0X  17755   9.446   8.621   8.805
    1STR  S14  17756   8.823   8.742   9.468
    1STR  S1B  17757   8.071   8.658   8.924
    1HEX  C01  17758   8.985   8.589  12.398
    1HEX  C02  17759   8.935   8.585  12.543
    1HEX  C03  17760   8.783   8.577  12.548
    1HEX  O04  17761   8.725   8.471  12.527
    1HEX  O05  17762   8.726   8.696  12.579
    1HEX  C06  17763   8.584   8.708  12.585
    1HEX  C07  17764   8.532   8.700  12.731
    1HEX  C08  17765   8.565   8.834  12.807
    1HEX  O09  17766   8.511   8.963  12.772
    1HEX  C0A  17767   8.498   9.059  12.872
    1HEX  O0B  17768   8.472   9.033  12.989
    1HEX  C0C  17769   8.520   9.206  12.827
    1HEX  C0D  17770   8.550   9.312  12.940
    1HEX  C0F  17771   8.378   8.673  12.731
    1HEX  O0G  17772   8.353   8.533  12.706
    1HEX  C0H  17773   8.329   8.488  12.583
    1HEX  O0I  17774   8.281   8.556  12.492
    1HEX  C0J  17775   8.375   8.343  12.555
    1HEX  C0K  17776   8.405   8.246  12.674
    1HEX  C0N  17777   8.592   8.571  12.801
    1HEX  O0O  17778   8.730   8.559  12.841
    1HEX  C0P  17779   8.795   8.644  12.937
    1HEX  C0Q  17780   8.761   8.635  13.089
    1HEX  C0R  17781   8.813   8.498  13.143
    1HEX  O0S  17782   8.956   8.484  13.125
    1HEX  C0T  17783   9.044   8.490  13.229
    1HEX  O0U  17784   9.012   8.504  13.347
    1HEX  C0V  17785   9.191   8.465  13.190
    1HEX  C0W  17786   9.287   8.589  13.188
    1HEX  C0Y  17787   8.841   8.748  13.157
    1HEX  O0Z  17788   8.802   8.749  13.293
    1HEX  C10  17789   8.886   8.782  13.391
    1HEX  O11  17790   8.999   8.828  13.378
    1HEX  C12  17791   8.821   8.752  13.525
    1HEX  C13  17792   8.906   8.783  13.649
    1HEX  C15  17793   8.609   8.664  13.118
    1HEX  O16  17794   8.547   8.633  13.244
    1HEX  C17  17795   8.438   8.552  13.243
    1HEX  O18  17796   8.424   8.454  13.170
    1HEX  C19  17797   8.327   8.592  13.342
    1HEX  C1A  17798   8.197   8.648  13.274
    1HEX  H1D  17799   8.958   8.498  12.344
    1HEX  H1E  17800   8.947   8.674  12.343
    1HEX  H1F  17801   8.966   8.673  12.598
    1HEX  H1G  17802   8.974   8.498  12.595
    1HEX  H1H  17803   8.539   8.633  12.520
    1HEX  H1I  17804   8.556   8.803  12.540
    1HEX  H1J  17805   8.671   8.852  12.793
    1HEX  H1K  17806   8.547   8.817  12.912
    1HEX  H1M  17807   8.436   9.237  12.766
    1HEX  H1N  17808   8.606   9.203  12.761
    1HEX  H1O  17809   8.623   9.276  13.012
    1HEX  H1P  17810   8.459   9.334  12.997
    1HEX  H1R  17811   8.325   8.738  12.661
    1HEX  H1S  17812   8.336   8.696  12.829
    1HEX  H1T  17813   8.467   8.355  12.498
    1HEX  H1U  17814   8.303   8.300  12.486
    1HEX  H1V  17815   8.369   8.145  12.651
    1HEX  H1W  17816   8.356   8.278  12.766
    1HEX  H1Y  17817   8.586   8.491  12.728
    1HEX  H1Z  17818   8.526   8.527  12.875
    1HEX  H20  17819   8.799   8.746  12.902
    1HEX  H21  17820   8.899   8.613  12.926
    1HEX  H22  17821   8.763   8.417  13.089
    1HEX  H23  17822   8.784   8.485  13.247
    1HEX  H24  17823   9.190   8.415  13.093
    1HEX  H25  17824   9.229   8.393  13.261
    1HEX  H26  17825   9.241   8.677  13.143
    1HEX  H27  17826   9.381   8.569  13.135
    1HEX  H29  17827   8.819   8.846  13.114
    1HEX  H2A  17828   8.949   8.734  13.146
    1HEX  H2B  17829   8.796   8.646  13.523
    1HEX  H2C  17830   8.727   8.807  13.528
    1HEX  H2D  17831   8.933   8.889  13.650
    1HEX  H2E  17832   8.999   8.727  13.645
    1HEX  H2G  17833   8.545   8.623  13.043
    1HEX  H2H  17834   8.593   8.771  13.109
    1HEX  H2I  17835   8.369   8.662  13.415
    1HEX  H2J  17836   8.302   8.502  13.398
    1HEX  H2K  17837   8.209   8.660  13.167
    1HEX  H2M  17838   8.173   8.747  13.314
    1STR  S00  17839   8.921   8.675  12.250
    1STR  S0E  17840   8.625   9.469  13.010
    1STR  S0M  17841   8.506   8.109  12.748
    1STR  S0X  17842   9.456   8.653  13.144
    1STR  S14  17843   8.815   8.737  13.801
    1STR  S1B  17844   8.041   8.694  13.184
    1HEX  C01  17845   8.964  12.931  16.740
    1HEX  C02  17846   8.921  12.933  16.887
    1HEX  C03  17847   8.770  12.926  16.897
    1HEX  O04  17848   8.710  12.820  16.874
    1HEX  O05  17849   8.714  13.043  16.933
    1HEX  C06  17850   8.573  13.053  16.947
    1HEX  C07  17851   8.530  13.043  17.096
    1HEX  C08  17852   8.562  13.181  17.165
    1HEX  O09  17853   8.501  13.306  17.128
    1HEX  C0A  17854   8.485  13.403  17.226
    1HEX  O0B  17855   8.462  13.378  17.344
    1HEX  C0C  17856   8.502  13.549  17.178
    1HEX  C0D  17857   8.524  13.656  17.291
    1HEX  C0F  17858   8.378  13.006  17.107
    1HEX  O0G  17859   8.358  12.862  17.119
    1HEX  C0H  17860   8.343  12.784  17.010
    1HEX  O0I  17861   8.305  12.829  16.901
    1HEX  C0J  17862   8.382  12.633  17.019
    1HEX  C0K  17863   8.402  12.547  17.153
    1HEX  C0N  17864   8.604  12.922  17.166
    1HEX  O0O  17865   8.744  12.925  17.199
    1HEX  C0P  17866   8.801  13.009  17.299
    1HEX  C0Q  17867   8.762  12.996   0.010
    1HEX  C0R  17868   8.802  12.855   0.060
    1HEX  O0S  17869   8.944  12.834   0.047
    1HEX  C0T  17870   9.027  12.835   0.154
    1HEX  O0U  17871   8.992  12.850   0.271
    1HEX  C0V  17872   9.174  12.810   0.119
    1HEX  C0W  17873   9.264  12.936   0.117
    1HEX  C0Y  17874   8.845  13.103   0.086
    1HEX  O0Z  17875   8.804  13.100   0.221
    1HEX  C10  17876   8.882  13.138   0.322
    1HEX  O11  17877   8.994  13.188   0.314
    1HEX  C12  17878   8.810  13.109   0.454
    1HEX  C13  17879   8.885  13.148   0.583
    1HEX  C15  17880   8.611  13.030   0.039
    1HEX  O16  17881   8.557  13.001   0.168
    1HEX  C17  17882   8.465  12.904   0.180
    1HEX  O18  17883   8.457  12.805   0.108
    1HEX  C19  17884   8.365  12.931   0.291
    1HEX  C1A  17885   8.240  13.008   0.241
    1HEX  H1D  17886   8.909  12.854  16.685
    1HEX  H1E  17887   8.941  13.026  16.692
    1HEX  H1F  17888   8.956  13.023  16.938
    1HEX  H1G  17889   8.962  12.847  16.941
    1HEX  H1H  17890   8.523  12.978  16.886
    1HEX  H1I  17891   8.542  13.149  16.904
    1HEX  H1J  17892   8.667  13.202  17.146
    1HEX  H1K  17893   8.551  13.168  17.271
    1HEX  H1M  17894   8.418  13.577  17.115
    1HEX  H1N  17895   8.590  13.549  17.115
    1HEX  H1O  17896   8.595  13.622  17.366
    1HEX  H1P  17897   8.431  13.678  17.343
    1HEX  H1R  17898   8.320  13.050  17.025
    1HEX  H1S  17899   8.335  13.052  17.197
    1HEX  H1T  17900   8.475  12.628  16.962
    1HEX  H1U  17901   8.309  12.584  16.955
    1HEX  H1V  17902   8.379  12.443  17.128
    1HEX  H1W  17903   8.329  12.576  17.229
    1HEX  H1Y  17904   8.599  12.840  17.095
    1HEX  H1Z  17905   8.549  12.877  17.248
    1HEX  H20  17906   8.801  13.112  17.267
    1HEX  H21  17907   8.906  12.982  17.292
    1HEX  H22  17908   8.750  12.779   0.002
    1HEX  H23  17909   8.770  12.840   0.163
    1HEX  H24  17910   9.176  12.760   0.022
    1HEX  H25  17911   9.212  12.739   0.192
    1HEX  H26  17912   9.220  13.017   0.060
    1HEX  H27  17913   9.363  12.915   0.075
    1HEX  H29  17914   8.827  13.203   0.046
    1HEX  H2A  17915   8.952  13.086   0.076
    1HEX  H2B  17916   8.789  13.002   0.455
    1HEX  H2C  17917   8.715  13.160   0.449
    1HEX  H2D  17918   8.916  13.252   0.577
    1HEX  H2E  17919   8.976  13.088   0.592
    1HEX  H2G  17920   8.542  12.990  17.407
    1HEX  H2H  17921   8.598  13.138   0.031
    1HEX  H2I  17922   8.415  12.982   0.373
    1HEX  H2J  17923   8.334  12.833   0.330
    1HEX  H2K  17924   8.222  12.996   0.134
    1HEX  H2M  17925   8.250  13.115   0.260
    1STR  S00  17926   8.902  13.016  16.592
    1STR  S0E  17927   8.598  13.807  17.366
    1STR  S0M  17928   8.466  12.417  17.278
    1STR  S0X  17929   9.430  12.998   0.069
    1STR  S14  17930   8.803  13.133   0.747
    1STR  S1B  17931   8.088  13.058   0.151
    1HEX  C01  17932   8.960  12.940   3.651
    1HEX  C02  17933   8.921  12.936   3.800
    1HEX  C03  17934   8.770  12.929   3.812
    1HEX  O04  17935   8.709  12.825   3.784
    1HEX  O05  17936   8.716  13.045   3.853
    1HEX  C06  17937   8.575  13.057   3.865
    1HEX  C07  17938   8.530  13.044   4.013
    1HEX  C08  17939   8.559  13.180   4.085
    1HEX  O09  17940   8.498  13.306   4.047
    1HEX  C0A  17941   8.481  13.402   4.145
    1HEX  O0B  17942   8.454  13.377   4.262
    1HEX  C0C  17943   8.501  13.548   4.099
    1HEX  C0D  17944   8.518  13.655   4.213
    1HEX  C0F  17945   8.379  13.003   4.017
    1HEX  O0G  17946   8.365  12.859   4.005
    1HEX  C0H  17947   8.342  12.800   3.886
    1HEX  O0I  17948   8.287  12.859   3.793
    1HEX  C0J  17949   8.396  12.656   3.864
    1HEX  C0K  17950   8.434  12.554   3.980
    1HEX  C0N  17951   8.603  12.922   4.083
    1HEX  O0O  17952   8.741  12.922   4.118
    1HEX  C0P  17953   8.799  13.007   4.217
    1HEX  C0Q  17954   8.763  12.995   4.369
    1HEX  C0R  17955   8.809  12.856   4.421
    1HEX  O0S  17956   8.952  12.837   4.403
    1HEX  C0T  17957   9.038  12.841   4.508
    1HEX  O0U  17958   9.007  12.858   4.625
    1HEX  C0V  17959   9.184  12.812   4.469
    1HEX  C0W  17960   9.281  12.933   4.462
    1HEX  C0Y  17961   8.844  13.105   4.442
    1HEX  O0Z  17962   8.805  13.102   4.578
    1HEX  C10  17963   8.887  13.139   4.676
    1HEX  O11  17964   8.999  13.189   4.663
    1HEX  C12  17965   8.822  13.111   4.810
    1HEX  C13  17966   8.905  13.147   4.935
    1HEX  C15  17967   8.611  13.025   4.399
    1HEX  O16  17968   8.555  12.991   4.525
    1HEX  C17  17969   8.458  12.898   4.531
    1HEX  O18  17970   8.445  12.803   4.453
    1HEX  C19  17971   8.356  12.922   4.642
    1HEX  C1A  17972   8.218  12.971   4.589
    1HEX  H1D  17973   8.909  12.861   3.596
    1HEX  H1E  17974   8.930  13.034   3.606
    1HEX  H1F  17975   8.957  13.024   3.852
    1HEX  H1G  17976   8.963  12.849   3.850
    1HEX  H1H  17977   8.525  12.985   3.800
    1HEX  H1I  17978   8.547  13.154   3.825
    1HEX  H1J  17979   8.664  13.203   4.068
    1HEX  H1K  17980   8.545  13.166   4.191
    1HEX  H1M  17981   8.419  13.577   4.033
    1HEX  H1N  17982   8.591  13.549   4.038
    1HEX  H1O  17983   8.594  13.626   4.286
    1HEX  H1P  17984   8.426  13.668   4.269
    1HEX  H1R  17985   8.321  13.058   3.943
    1HEX  H1S  17986   8.336  13.033   4.113
    1HEX  H1T  17987   8.486  12.672   3.804
    1HEX  H1U  17988   8.325  12.609   3.795
    1HEX  H1V  17989   8.399  12.454   3.953
    1HEX  H1W  17990   8.383  12.580   4.073
    1HEX  H1Y  17991   8.600  12.840   4.011
    1HEX  H1Z  17992   8.544  12.876   4.162
    1HEX  H20  17993   8.798  13.111   4.185
    1HEX  H21  17994   8.905  12.982   4.209
    1HEX  H22  17995   8.757  12.777   4.366
    1HEX  H23  17996   8.780  12.843   4.525
    1HEX  H24  17997   9.182  12.759   4.374
    1HEX  H25  17998   9.222  12.741   4.543
    1HEX  H26  17999   9.236  13.020   4.415
    1HEX  H27  18000   9.373  12.910   4.408
    1HEX  H29  18001   8.823  13.204   4.401
    1HEX  H2A  18002   8.951  13.090   4.431
    1HEX  H2B  18003   8.798  13.004   4.811
    1HEX  H2C  18004   8.727  13.165   4.811
    1HEX  H2D  18005   8.938  13.251   4.931
    1HEX  H2E  18006   8.994  13.085   4.942
    1HEX  H2G  18007   8.545  12.986   4.324
    1HEX  H2H  18008   8.596  13.133   4.393
    1HEX  H2I  18009   8.398  12.991   4.715
    1HEX  H2J  18010   8.342  12.827   4.695
    1HEX  H2K  18011   8.217  12.984   4.481
    1HEX  H2M  18012   8.191  13.067   4.633
    1STR  S00  18013   8.882  13.030   3.514
    1STR  S0E  18014   8.578  13.819   4.274
    1STR  S0M  18015   8.530  12.401   4.039
    1STR  S0X  18016   9.453  12.977   4.411
    1STR  S14  18017   8.832  13.124   5.101
    1STR  S1B  18018   8.058  12.974   4.499
    1HEX  C01  18019   8.992  13.019   8.093
    1HEX  C02  18020   8.922  12.968   8.220
    1HEX  C03  18021   8.774  12.951   8.194
    1HEX  O04  18022   8.726  12.846   8.152
    1HEX  O05  18023   8.708  13.064   8.223
    1HEX  C06  18024   8.567  13.067   8.226
    1HEX  C07  18025   8.520  13.056   8.373
    1HEX  C08  18026   8.555  13.190   8.448
    1HEX  O09  18027   8.501  13.318   8.410
    1HEX  C0A  18028   8.492  13.417   8.507
    1HEX  O0B  18029   8.469  13.395   8.626
    1HEX  C0C  18030   8.515  13.561   8.457
    1HEX  C0D  18031   8.546  13.670   8.566
    1HEX  C0F  18032   8.367  13.027   8.377
    1HEX  O0G  18033   8.343  12.887   8.353
    1HEX  C0H  18034   8.314  12.841   8.230
    1HEX  O0I  18035   8.268  12.910   8.140
    1HEX  C0J  18036   8.352  12.694   8.204
    1HEX  C0K  18037   8.356  12.592   8.322
    1HEX  C0N  18038   8.586  12.928   8.443
    1HEX  O0O  18039   8.724  12.920   8.481
    1HEX  C0P  18040   8.789  13.004   8.577
    1HEX  C0Q  18041   8.757  12.995   8.730
    1HEX  C0R  18042   8.807  12.857   8.783
    1HEX  O0S  18043   8.950  12.841   8.766
    1HEX  C0T  18044   9.036  12.845   8.872
    1HEX  O0U  18045   9.002  12.859   8.990
    1HEX  C0V  18046   9.183  12.817   8.835
    1HEX  C0W  18047   9.280  12.939   8.837
    1HEX  C0Y  18048   8.840  13.106   8.799
    1HEX  O0Z  18049   8.804  13.106   8.935
    1HEX  C10  18050   8.888  13.143   9.031
    1HEX  O11  18051   8.999  13.192   9.015
    1HEX  C12  18052   8.826  13.115   9.167
    1HEX  C13  18053   8.914  13.151   9.288
    1HEX  C15  18054   8.606  13.025   8.760
    1HEX  O16  18055   8.548  12.998   8.888
    1HEX  C17  18056   8.440  12.916   8.894
    1HEX  O18  18057   8.420  12.820   8.820
    1HEX  C19  18058   8.338  12.953   9.002
    1HEX  C1A  18059   8.207  13.021   8.947
    1HEX  H1D  18060   9.066  12.946   8.062
    1HEX  H1E  18061   8.922  13.033   8.010
    1HEX  H1F  18062   8.934  13.038   8.301
    1HEX  H1G  18063   8.962  12.872   8.254
    1HEX  H1H  18064   8.526  12.988   8.163
    1HEX  H1I  18065   8.533  13.160   8.181
    1HEX  H1J  18066   8.661  13.208   8.433
    1HEX  H1K  18067   8.538  13.175   8.553
    1HEX  H1M  18068   8.431  13.592   8.395
    1HEX  H1N  18069   8.601  13.556   8.391
    1HEX  H1O  18070   8.620  13.635   8.638
    1HEX  H1P  18071   8.456  13.694   8.624
    1HEX  H1R  18072   8.313  13.092   8.307
    1HEX  H1S  18073   8.327  13.051   8.475
    1HEX  H1T  18074   8.451  12.698   8.159
    1HEX  H1U  18075   8.286  12.658   8.124
    1HEX  H1V  18076   8.309  12.497   8.293
    1HEX  H1W  18077   8.305  12.629   8.410
    1HEX  H1Y  18078   8.580  12.849   8.368
    1HEX  H1Z  18079   8.521  12.884   8.518
    1HEX  H20  18080   8.793  13.107   8.543
    1HEX  H21  18081   8.893  12.974   8.566
    1HEX  H22  18082   8.757  12.777   8.728
    1HEX  H23  18083   8.777  12.844   8.887
    1HEX  H24  18084   9.184  12.769   8.738
    1HEX  H25  18085   9.219  12.743   8.907
    1HEX  H26  18086   9.237  13.028   8.791
    1HEX  H27  18087   9.374  12.917   8.787
    1HEX  H29  18088   8.818  13.205   8.757
    1HEX  H2A  18089   8.947  13.091   8.786
    1HEX  H2B  18090   8.802  13.008   9.169
    1HEX  H2C  18091   8.731  13.168   9.172
    1HEX  H2D  18092   8.942  13.256   9.284
    1HEX  H2E  18093   9.006  13.093   9.285
    1HEX  H2G  18094   8.542  12.981   8.686
    1HEX  H2H  18095   8.591  13.132   8.749
    1HEX  H2I  18096   8.386  13.014   9.078
    1HEX  H2J  18097   8.310  12.860   9.051
    1HEX  H2K  18098   8.202  13.019   8.838
    1HEX  H2M  18099   8.200  13.125   8.979
    1STR  S00  18100   8.920  13.115   7.955
    1STR  S0E  18101   8.628  13.828   8.621
    1STR  S0M  18102   8.422  12.443   8.409
    1STR  S0X  18103   9.452  13.001   8.805
    1STR  S14  18104   8.846  13.122   9.455
    1STR  S1B  18105   8.051  13.088   8.874
    1HEX  C01  18106   8.981  12.931  12.392
    1HEX  C02  18107   8.925  12.931  12.534
    1HEX  C03  18108   8.773  12.925  12.533
    1HEX  O04  18109   8.714  12.821  12.505
    1HEX  O05  18110   8.716  13.042  12.568
    1HEX  C06  18111   8.575  13.049  12.585
    1HEX  C07  18112   8.535  13.037  12.734
    1HEX  C08  18113   8.563  13.175  12.803
    1HEX  O09  18114   8.501  13.299  12.764
    1HEX  C0A  18115   8.482  13.396  12.861
    1HEX  O0B  18116   8.455  13.371  12.979
    1HEX  C0C  18117   8.503  13.541  12.815
    1HEX  C0D  18118   8.531  13.644  12.929
    1HEX  C0F  18119   8.384  12.991  12.747
    1HEX  O0G  18120   8.373  12.846  12.760
    1HEX  C0H  18121   8.366  12.766  12.651
    1HEX  O0I  18122   8.323  12.808  12.543
    1HEX  C0J  18123   8.421  12.619  12.658
    1HEX  C0K  18124   8.465  12.537  12.789
    1HEX  C0N  18125   8.614  12.920  12.805
    1HEX  O0O  18126   8.753  12.929  12.837
    1HEX  C0P  18127   8.804  13.012  12.941
    1HEX  C0Q  18128   8.763  12.996  13.091
    1HEX  C0R  18129   8.803  12.854  13.141
    1HEX  O0S  18130   8.944  12.833  13.128
    1HEX  C0T  18131   9.026  12.834  13.236
    1HEX  O0U  18132   8.991  12.849  13.352
    1HEX  C0V  18133   9.173  12.807  13.200
    1HEX  C0W  18134   9.265  12.931  13.203
    1HEX  C0Y  18135   8.845  13.102  13.169
    1HEX  O0Z  18136   8.803  13.098  13.304
    1HEX  C10  18137   8.881  13.135  13.405
    1HEX  O11  18138   8.993  13.185  13.397
    1HEX  C12  18139   8.810  13.104  13.536
    1HEX  C13  18140   8.886  13.137  13.666
    1HEX  C15  18141   8.611  13.029  13.119
    1HEX  O16  18142   8.559  13.001  13.249
    1HEX  C17  18143   8.461  12.909  13.263
    1HEX  O18  18144   8.439  12.816  13.186
    1HEX  C19  18145   8.375  12.932  13.386
    1HEX  C1A  18146   8.245  13.011  13.354
    1HEX  H1D  18147   8.930  12.857  12.330
    1HEX  H1E  18148   8.969  13.029  12.345
    1HEX  H1F  18149   8.958  13.018  12.590
    1HEX  H1G  18150   8.959  12.843  12.589
    1HEX  H1H  18151   8.525  12.975  12.522
    1HEX  H1I  18152   8.541  13.145  12.544
    1HEX  H1J  18153   8.668  13.198  12.785
    1HEX  H1K  18154   8.550  13.163  12.909
    1HEX  H1M  18155   8.419  13.573  12.755
    1HEX  H1N  18156   8.590  13.540  12.750
    1HEX  H1O  18157   8.602  13.607  13.003
    1HEX  H1P  18158   8.440  13.669  12.985
    1HEX  H1R  18159   8.324  13.031  12.665
    1HEX  H1S  18160   8.340  13.036  12.836
    1HEX  H1T  18161   8.506  12.624  12.591
    1HEX  H1U  18162   8.346  12.562  12.603
    1HEX  H1V  18163   8.452  12.430  12.768
    1HEX  H1W  18164   8.399  12.560  12.872
    1HEX  H1Y  18165   8.612  12.837  12.735
    1HEX  H1Z  18166   8.562  12.874  12.888
    1HEX  H20  18167   8.803  13.115  12.911
    1HEX  H21  18168   8.910  12.987  12.936
    1HEX  H22  18169   8.751  12.778  13.082
    1HEX  H23  18170   8.770  12.839  13.244
    1HEX  H24  18171   9.176  12.759  13.102
    1HEX  H25  18172   9.210  12.733  13.272
    1HEX  H26  18173   9.223  13.015  13.147
    1HEX  H27  18174   9.363  12.909  13.162
    1HEX  H29  18175   8.826  13.203  13.129
    1HEX  H2A  18176   8.952  13.085  13.159
    1HEX  H2B  18177   8.786  12.998  13.534
    1HEX  H2C  18178   8.716  13.158  13.533
    1HEX  H2D  18179   8.920  13.241  13.664
    1HEX  H2E  18180   8.975  13.075  13.674
    1HEX  H2G  18181   8.543  12.986  13.047
    1HEX  H2H  18182   8.597  13.136  13.110
    1HEX  H2I  18183   8.434  12.981  13.464
    1HEX  H2J  18184   8.348  12.834  13.426
    1HEX  H2K  18185   8.213  12.999  13.250
    1HEX  H2M  18186   8.259  13.118  13.370
    1STR  S00  18187   8.941  13.042  12.254
    1STR  S0E  18188   8.633  13.787  12.986
    1STR  S0M  18189   8.555  12.398  12.889
    1STR  S0X  18190   9.434  12.997  13.177
    1STR  S14  18191   8.808  13.106  13.829
    1STR  S1B  18192   8.084  13.066  13.288
    1HEX  C01  18193  13.338  17.286  16.755
    1HEX  C02  18194  13.284  17.289  16.899
    1HEX  C03  18195  13.132  17.292  16.897
    1HEX  O04  18196  13.068  17.192  16.865
    1HEX  O05  18197  13.082  17.412  16.933
    1HEX  C06  18198  12.940  17.429  16.943
    1HEX  C07  18199  12.891  17.417  17.090
    1HEX  C08  18200  12.923   0.111  17.166
    1HEX  O09  18201  12.868   0.240  17.131
    1HEX  C0A  18202  12.852   0.335  17.232
    1HEX  O0B  18203  12.825   0.308  17.348
    1HEX  C0C  18204  12.874   0.482  17.189
    1HEX  C0D  18205  12.898   0.588  17.304
    1HEX  C0F  18206  12.737  17.388  17.091
    1HEX  O0G  18207  12.715  17.249  17.065
    1HEX  C0H  18208  12.686  17.205  16.941
    1HEX  O0I  18209  12.634  17.274  16.854
    1HEX  C0J  18210  12.733  17.062  16.909
    1HEX  C0K  18211  12.761  16.961  17.025
    1HEX  C0N  18212  12.955  17.289  17.159
    1HEX  O0O  18213  13.093  17.281  17.198
    1HEX  C0P  18214  13.156  17.364  17.296
    1HEX  C0Q  18215  13.122  17.354   0.008
    1HEX  C0R  18216  13.173  17.217   0.061
    1HEX  O0S  18217  13.316  17.203   0.042
    1HEX  C0T  18218  13.404  17.209   0.147
    1HEX  O0U  18219  13.373  17.224   0.264
    1HEX  C0V  18220  13.551  17.183   0.107
    1HEX  C0W  18221  13.648  17.306   0.100
    1HEX  C0Y  18222  13.202   0.027   0.078
    1HEX  O0Z  18223  13.162   0.026   0.214
    1HEX  C10  18224  13.244   0.061   0.312
    1HEX  O11  18225  13.357   0.109   0.301
    1HEX  C12  18226  13.178   0.032   0.446
    1HEX  C13  18227  13.259   0.069   0.571
    1HEX  C15  18228  12.970  17.382   0.037
    1HEX  O16  18229  12.909  17.350   0.162
    1HEX  C17  18230  12.804  17.264   0.163
    1HEX  O18  18231  12.794  17.166   0.090
    1HEX  C19  18232  12.692  17.300   0.262
    1HEX  C1A  18233  12.560  17.350   0.194
    1HEX  H1D  18234  13.289  17.207  16.698
    1HEX  H1E  18235  13.315  17.380  16.704
    1HEX  H1F  18236  13.321  17.375  16.954
    1HEX  H1G  18237  13.315  17.200  16.954
    1HEX  H1H  18238  12.891  17.358  16.877
    1HEX  H1I  18239  12.914   0.086  16.902
    1HEX  H1J  18240  13.029   0.130  17.153
    1HEX  H1K  18241  12.906   0.094  17.271
    1HEX  H1M  18242  12.791   0.513  17.126
    1HEX  H1N  18243  12.962   0.481  17.125
    1HEX  H1O  18244  12.972   0.553  17.376
    1HEX  H1P  18245  12.806   0.606  17.360
    1HEX  H1R  18246  12.683   0.014  17.023
    1HEX  H1S  18247  12.696  17.410  17.190
    1HEX  H1T  18248  12.826  17.075  16.853
    1HEX  H1U  18249  12.662  17.020  16.838
    1HEX  H1V  18250  12.725  16.862  17.000
    1HEX  H1W  18251  12.713  16.991  17.118
    1HEX  H1Y  18252  12.949  17.210  17.085
    1HEX  H1Z  18253  12.890  17.244  17.233
    1HEX  H20  18254  13.160   0.027  17.263
    1HEX  H21  18255  13.260  17.334  17.285
    1HEX  H22  18256  13.123  17.136   0.007
    1HEX  H23  18257  13.145  17.204   0.166
    1HEX  H24  18258  13.549  17.130   0.011
    1HEX  H25  18259  13.590  17.112   0.180
    1HEX  H26  18260  13.601  17.393   0.055
    1HEX  H27  18261  13.740  17.285   0.044
    1HEX  H29  18262  13.179   0.125   0.036
    1HEX  H2A  18263  13.309   0.013   0.067
    1HEX  H2B  18264  13.156  17.365   0.446
    1HEX  H2C  18265  13.083   0.085   0.446
    1HEX  H2D  18266  13.286   0.175   0.570
    1HEX  H2E  18267  13.352   0.012   0.575
    1HEX  H2G  18268  12.906  17.341  17.401
    1HEX  H2H  18269  12.954   0.050   0.029
    1HEX  H2I  18270  12.731  17.372   0.333
    1HEX  H2J  18271  12.671  17.209   0.319
    1HEX  H2K  18272  12.575  17.367   0.087
    1HEX  H2M  18273  12.529   0.005   0.237
    1STR  S00  18274  13.330  17.369  16.595
    1STR  S0E  18275  12.963   0.746  17.377
    1STR  S0M  18276  12.865  16.825  17.095
    1STR  S0X  18277  13.816  17.364   0.047
    1STR  S14  18278  13.162   0.046   0.724
    1STR  S1B  18279  12.404  17.382   0.100
    1HEX  C01  18280  13.326  17.263   3.684
    1HEX  C02  18281  13.275  17.273   3.828
    1HEX  C03  18282  13.124  17.276   3.826
    1HEX  O04  18283  13.060  17.173   3.801
    1HEX  O05  18284  13.072  17.397   3.856
    1HEX  C06  18285  12.931  17.412   3.869
    1HEX  C07  18286  12.888  17.403   4.018
    1HEX  C08  18287  12.919   0.101   4.087
    1HEX  O09  18288  12.860   0.227   4.047
    1HEX  C0A  18289  12.846   0.326   4.144
    1HEX  O0B  18290  12.825   0.304   4.263
    1HEX  C0C  18291  12.865   0.470   4.093
    1HEX  C0D  18292  12.888   0.580   4.203
    1HEX  C0F  18293  12.736  17.363   4.028
    1HEX  O0G  18294  12.718  17.219   4.040
    1HEX  C0H  18295  12.704  17.141   3.930
    1HEX  O0I  18296  12.664  17.185   3.823
    1HEX  C0J  18297  12.748  16.991   3.939
    1HEX  C0K  18298  12.773  16.907   4.073
    1HEX  C0N  18299  12.962  17.282   4.090
    1HEX  O0O  18300  13.101  17.284   4.121
    1HEX  C0P  18301  13.159  17.368   4.221
    1HEX  C0Q  18302  13.121  17.356   4.372
    1HEX  C0R  18303  13.164  17.216   4.423
    1HEX  O0S  18304  13.307  17.196   4.407
    1HEX  C0T  18305  13.391  17.199   4.514
    1HEX  O0U  18306  13.358  17.217   4.631
    1HEX  C0V  18307  13.537  17.169   4.477
    1HEX  C0W  18308  13.633  17.292   4.467
    1HEX  C0Y  18309  13.204   0.025   4.445
    1HEX  O0Z  18310  13.164   0.023   4.580
    1HEX  C10  18311  13.244   0.061   4.679
    1HEX  O11  18312  13.356   0.111   4.667
    1HEX  C12  18313  13.177   0.032   4.812
    1HEX  C13  18314  13.256   0.074   4.937
    1HEX  C15  18315  12.970  17.390   4.402
    1HEX  O16  18316  12.915  17.359   4.530
    1HEX  C17  18317  12.817  17.266   4.539
    1HEX  O18  18318  12.803  17.172   4.462
    1HEX  C19  18319  12.720  17.290   4.653
    1HEX  C1A  18320  12.587  17.358   4.608
    1HEX  H1D  18321  13.298  17.167   3.641
    1HEX  H1E  18322  13.275  17.337   3.621
    1HEX  H1F  18323  13.312  17.363   3.878
    1HEX  H1G  18324  13.306  17.187   3.887
    1HEX  H1H  18325  12.880  17.339   3.806
    1HEX  H1I  18326  12.904   0.069   3.827
    1HEX  H1J  18327  13.024   0.121   4.069
    1HEX  H1K  18328  12.905   0.089   4.193
    1HEX  H1M  18329  12.781   0.499   4.030
    1HEX  H1N  18330  12.952   0.470   4.029
    1HEX  H1O  18331  12.961   0.548   4.278
    1HEX  H1P  18332  12.797   0.603   4.258
    1HEX  H1R  18333  12.678  17.406   3.945
    1HEX  H1S  18334  12.692  17.409   4.117
    1HEX  H1T  18335  12.840  16.989   3.880
    1HEX  H1U  18336  12.675  16.939   3.876
    1HEX  H1V  18337  12.752  16.802   4.051
    1HEX  H1W  18338  12.703  16.937   4.151
    1HEX  H1Y  18339  12.955  17.199   4.020
    1HEX  H1Z  18340  12.906  17.238   4.172
    1HEX  H20  18341  13.159   0.031   4.188
    1HEX  H21  18342  13.264  17.341   4.212
    1HEX  H22  18343  13.112  17.138   4.366
    1HEX  H23  18344  13.133  17.201   4.526
    1HEX  H24  18345  13.537  17.114   4.384
    1HEX  H25  18346  13.576  17.101   4.553
    1HEX  H26  18347  13.579  17.382   4.437
    1HEX  H27  18348  13.710  17.274   4.393
    1HEX  H29  18349  13.184   0.124   4.404
    1HEX  H2A  18350  13.311   0.007   4.434
    1HEX  H2B  18351  13.157  17.365   4.815
    1HEX  H2C  18352  13.081   0.082   4.810
    1HEX  H2D  18353  13.286   0.178   4.930
    1HEX  H2E  18354  13.348   0.015   4.944
    1HEX  H2G  18355  12.901  17.351   4.329
    1HEX  H2H  18356  12.957   0.057   4.394
    1HEX  H2I  18357  12.770  17.347   4.732
    1HEX  H2J  18358  12.697  17.193   4.696
    1HEX  H2K  18359  12.571  17.350   4.501
    1HEX  H2M  18360  12.586   0.024   4.634
    1STR  S00  18361  13.257  17.232   3.519
    1STR  S0E  18362  12.963   0.739   4.261
    1STR  S0M  18363  12.844  16.768   4.185
    1STR  S0X  18364  13.806  17.346   4.430
    1STR  S14  18365  13.179   0.065   5.104
    1STR  S1B  18366  12.426  17.403   4.531
    1HEX  C01  18367  13.326  17.298   8.014
    1HEX  C02  18368  13.283  17.295   8.161
    1HEX  C03  18369  13.132  17.288   8.171
    1HEX  O04  18370  13.071  17.185   8.141
    1HEX  O05  18371  13.077  17.404   8.211
    1HEX  C06  18372  12.936  17.415   8.223
    1HEX  C07  18373  12.890  17.401   8.371
    1HEX  C08  18374  12.920   0.097   8.442
    1HEX  O09  18375  12.857   0.220   8.402
    1HEX  C0A  18376  12.837   0.317   8.499
    1HEX  O0B  18377  12.810   0.293   8.616
    1HEX  C0C  18378  12.858   0.461   8.451
    1HEX  C0D  18379  12.876   0.567   8.565
    1HEX  C0F  18380  12.739  17.364   8.375
    1HEX  O0G  18381  12.723  17.220   8.361
    1HEX  C0H  18382  12.699  17.164   8.241
    1HEX  O0I  18383  12.648  17.225   8.148
    1HEX  C0J  18384  12.749  17.018   8.219
    1HEX  C0K  18385  12.782  16.917   8.335
    1HEX  C0N  18386  12.962  17.280   8.442
    1HEX  O0O  18387  13.101  17.280   8.478
    1HEX  C0P  18388  13.158  17.366   8.578
    1HEX  C0Q  18389  13.122  17.354   8.729
    1HEX  C0R  18390  13.166  17.214   8.780
    1HEX  O0S  18391  13.308  17.194   8.765
    1HEX  C0T  18392  13.393  17.196   8.871
    1HEX  O0U  18393  13.360  17.214   8.988
    1HEX  C0V  18394  13.539  17.166   8.834
    1HEX  C0W  18395  13.636  17.288   8.832
    1HEX  C0Y  18396  13.204   0.023   8.803
    1HEX  O0Z  18397  13.165   0.020   8.939
    1HEX  C10  18398  13.246   0.056   9.039
    1HEX  O11  18399  13.357   0.106   9.027
    1HEX  C12  18400  13.179   0.026   9.172
    1HEX  C13  18401  13.260   0.060   9.299
    1HEX  C15  18402  12.971  17.385   8.758
    1HEX  O16  18403  12.917  17.353   8.887
    1HEX  C17  18404  12.821  17.259   8.898
    1HEX  O18  18405  12.804  17.167   8.819
    1HEX  C19  18406  12.730  17.280   9.018
    1HEX  C1A  18407  12.591  17.339   8.980
    1HEX  H1D  18408  13.272  17.223   7.956
    1HEX  H1E  18409  13.306  17.395   7.969
    1HEX  H1F  18410  13.318  17.384   8.214
    1HEX  H1G  18411  13.324  17.209   8.213
    1HEX  H1H  18412  12.886  17.343   8.157
    1HEX  H1I  18413  12.907   0.072   8.183
    1HEX  H1J  18414  13.024   0.121   8.426
    1HEX  H1K  18415  12.906   0.084   8.548
    1HEX  H1M  18416  12.776   0.490   8.385
    1HEX  H1N  18417  12.948   0.462   8.390
    1HEX  H1O  18418  12.953   0.537   8.636
    1HEX  H1P  18419  12.784   0.580   8.622
    1HEX  H1R  18420  12.681  17.421   8.302
    1HEX  H1S  18421  12.696  17.393   8.472
    1HEX  H1T  18422  12.840  17.031   8.160
    1HEX  H1U  18423  12.677  16.974   8.150
    1HEX  H1V  18424  12.744  16.817   8.310
    1HEX  H1W  18425  12.733  16.946   8.428
    1HEX  H1Y  18426  12.959  17.198   8.370
    1HEX  H1Z  18427  12.902  17.235   8.521
    1HEX  H20  18428  13.158   0.029   8.545
    1HEX  H21  18429  13.264  17.340   8.569
    1HEX  H22  18430  13.114  17.136   8.725
    1HEX  H23  18431  13.136  17.200   8.884
    1HEX  H24  18432  13.539  17.116   8.737
    1HEX  H25  18433  13.575  17.094   8.907
    1HEX  H26  18434  13.593  17.374   8.781
    1HEX  H27  18435  13.730  17.263   8.783
    1HEX  H29  18436  13.184   0.122   8.763
    1HEX  H2A  18437  13.311   0.007   8.792
    1HEX  H2B  18438  13.155  17.360   9.171
    1HEX  H2C  18439  13.084   0.081   9.172
    1HEX  H2D  18440  13.295   0.163   9.295
    1HEX  H2E  18441  13.348  17.436   9.307
    1HEX  H2G  18442  12.904  17.343   8.685
    1HEX  H2H  18443  12.956   0.052   8.750
    1HEX  H2I  18444  12.781  17.341   9.092
    1HEX  H2J  18445  12.715  17.182   9.064
    1HEX  H2K  18446  12.573  17.339   8.872
    1HEX  H2M  18447  12.582   0.003   9.013
    1STR  S00  18448  13.252  17.399   7.882
    1STR  S0E  18449  12.943   0.730   8.614
    1STR  S0M  18450  12.874  16.763   8.394
    1STR  S0X  18451  13.810  17.333   8.791
    1STR  S14  18452  13.191   0.027   9.465
    1STR  S1B  18453  12.425  17.352   8.904
    1HEX  C01  18454  13.353  17.328  12.416
    1HEX  C02  18455  13.293  17.315  12.557
    1HEX  C03  18456  13.142  17.303  12.551
    1HEX  O04  18457  13.087  17.195  12.525
    1HEX  O05  18458  13.080  17.419  12.578
    1HEX  C06  18459  12.938  17.426  12.585
    1HEX  C07  18460  12.888  17.417  12.731
    1HEX  C08  18461  12.921   0.111  12.806
    1HEX  O09  18462  12.868   0.241  12.771
    1HEX  C0A  18463  12.858   0.338  12.870
    1HEX  O0B  18464  12.834   0.314  12.988
    1HEX  C0C  18465  12.881   0.484  12.823
    1HEX  C0D  18466  12.912   0.592  12.935
    1HEX  C0F  18467  12.734  17.389  12.733
    1HEX  O0G  18468  12.708  17.248  12.713
    1HEX  C0H  18469  12.678  17.199  12.592
    1HEX  O0I  18470  12.634  17.267  12.499
    1HEX  C0J  18471  12.712  17.050  12.569
    1HEX  C0K  18472  12.714  16.950  12.690
    1HEX  C0N  18473  12.950  17.289  12.802
    1HEX  O0O  18474  13.088  17.279  12.840
    1HEX  C0P  18475  13.153  17.363  12.936
    1HEX  C0Q  18476  13.119  17.354  13.089
    1HEX  C0R  18477  13.171  17.218  13.143
    1HEX  O0S  18478  13.314  17.203  13.125
    1HEX  C0T  18479  13.401  17.208  13.231
    1HEX  O0U  18480  13.368  17.222  13.348
    1HEX  C0V  18481  13.548  17.184  13.192
    1HEX  C0W  18482  13.645  17.307  13.193
    1HEX  C0Y  18483  13.200   0.027  13.157
    1HEX  O0Z  18484  13.163   0.027  13.293
    1HEX  C10  18485  13.248   0.062  13.388
    1HEX  O11  18486  13.360   0.109  13.374
    1HEX  C12  18487  13.185   0.033  13.524
    1HEX  C13  18488  13.275   0.065  13.644
    1HEX  C15  18489  12.967  17.384  13.118
    1HEX  O16  18490  12.907  17.355  13.244
    1HEX  C17  18491  12.797  17.275  13.246
    1HEX  O18  18492  12.780  17.177  13.174
    1HEX  C19  18493  12.689  17.316  13.347
    1HEX  C1A  18494  12.558  17.376  13.284
    1HEX  H1D  18495  13.380  17.230  12.377
    1HEX  H1E  18496  13.284  17.374  12.346
    1HEX  H1F  18497  13.317  17.402  12.617
    1HEX  H1G  18498  13.332  17.228  12.609
    1HEX  H1H  18499  12.893  17.348  12.522
    1HEX  H1I  18500  12.906   0.080  12.539
    1HEX  H1J  18501  13.027   0.130  12.792
    1HEX  H1K  18502  12.904   0.095  12.912
    1HEX  H1M  18503  12.796   0.516  12.763
    1HEX  H1N  18504  12.966   0.480  12.756
    1HEX  H1O  18505  12.985   0.555  13.007
    1HEX  H1P  18506  12.823   0.616  12.992
    1HEX  H1R  18507  12.680   0.012  12.662
    1HEX  H1S  18508  12.692  17.415  12.831
    1HEX  H1T  18509  12.812  17.051  12.525
    1HEX  H1U  18510  12.646  17.014  12.491
    1HEX  H1V  18511  12.669  16.855  12.662
    1HEX  H1W  18512  12.661  16.989  12.776
    1HEX  H1Y  18513  12.943  17.209  12.728
    1HEX  H1Z  18514  12.885  17.245  12.876
    1HEX  H20  18515  13.157   0.025  12.902
    1HEX  H21  18516  13.257  17.333  12.925
    1HEX  H22  18517  13.121  17.136  13.089
    1HEX  H23  18518  13.142  17.205  13.247
    1HEX  H24  18519  13.549  17.135  13.095
    1HEX  H25  18520  13.586  17.110  13.263
    1HEX  H26  18521  13.600  17.395  13.148
    1HEX  H27  18522  13.740  17.287  13.143
    1HEX  H29  18523  13.177   0.125  13.114
    1HEX  H2A  18524  13.308   0.013  13.144
    1HEX  H2B  18525  13.160  17.367  13.524
    1HEX  H2C  18526  13.092   0.088  13.530
    1HEX  H2D  18527  13.302   0.171  13.643
    1HEX  H2E  18528  13.367   0.008  13.639
    1HEX  H2G  18529  12.903  17.341  13.043
    1HEX  H2H  18530  12.952   0.051  13.108
    1HEX  H2I  18531  12.733  17.383  13.421
    1HEX  H2J  18532  12.662  17.225  13.402
    1HEX  H2K  18533  12.565  17.382  13.175
    1HEX  H2M  18534  12.541   0.037  13.320
    1STR  S00  18535  13.294  17.421  12.272
    1STR  S0E  18536  12.992   0.748  12.999
    1STR  S0M  18537  12.774  16.800  12.780
    1STR  S0X  18538  13.815  17.372  13.155
    1STR  S14  18539  13.197   0.017  13.802
    1STR  S1B  18540  12.401  17.428  13.199
    1HEX  C01  18541  13.334   4.217  16.747
    1HEX  C02  18542  13.288   4.216  16.894
    1HEX  C03  18543  13.137   4.205  16.902
    1HEX  O04  18544  13.081   4.097  16.884
    1HEX  O05  18545  13.077   4.322  16.933
    1HEX  C06  18546  12.935   4.329  16.947
    1HEX  C07  18547  12.892   4.320  17.096
    1HEX  C08  18548  12.923   4.459  17.164
    1HEX  O09  18549  12.861   4.584  17.127
    1HEX  C0A  18550  12.845   4.680  17.226
    1HEX  O0B  18551  12.821   4.654  17.344
    1HEX  C0C  18552  12.864   4.826  17.181
    1HEX  C0D  18553  12.888   4.932  17.295
    1HEX  C0F  18554  12.741   4.279  17.107
    1HEX  O0G  18555  12.724   4.135  17.121
    1HEX  C0H  18556  12.714   4.054  17.013
    1HEX  O0I  18557  12.675   4.096  16.903
    1HEX  C0J  18558  12.760   3.905  17.024
    1HEX  C0K  18559  12.790   3.823  17.159
    1HEX  C0N  18560  12.968   4.201  17.168
    1HEX  O0O  18561  13.107   4.206  17.200
    1HEX  C0P  18562  13.162   4.290  17.301
    1HEX  C0Q  18563  13.123   4.277   0.012
    1HEX  C0R  18564  13.162   4.135   0.061
    1HEX  O0S  18565  13.304   4.113   0.048
    1HEX  C0T  18566  13.387   4.115   0.155
    1HEX  O0U  18567  13.352   4.130   0.272
    1HEX  C0V  18568  13.533   4.090   0.119
    1HEX  C0W  18569  13.623   4.216   0.120
    1HEX  C0Y  18570  13.206   4.383   0.088
    1HEX  O0Z  18571  13.164   4.380   0.223
    1HEX  C10  18572  13.241   4.416   0.325
    1HEX  O11  18573  13.353   4.466   0.318
    1HEX  C12  18574  13.169   4.386   0.456
    1HEX  C13  18575  13.243   4.423   0.586
    1HEX  C15  18576  12.972   4.311   0.040
    1HEX  O16  18577  12.919   4.283   0.169
    1HEX  C17  18578  12.824   4.189   0.182
    1HEX  O18  18579  12.808   4.093   0.109
    1HEX  C19  18580  12.728   4.217   0.298
    1HEX  C1A  18581  12.605   4.301   0.253
    1HEX  H1D  18582  13.286   4.137  16.691
    1HEX  H1E  18583  13.309   4.311  16.698
    1HEX  H1F  18584  13.320   4.306  16.946
    1HEX  H1G  18585  13.330   4.131  16.947
    1HEX  H1H  18586  12.888   4.252  16.885
    1HEX  H1I  18587  12.903   4.424  16.903
    1HEX  H1J  18588  13.028   4.480  17.145
    1HEX  H1K  18589  12.911   4.446  17.270
    1HEX  H1M  18590  12.779   4.857  17.119
    1HEX  H1N  18591  12.951   4.827  17.116
    1HEX  H1O  18592  12.957   4.895  17.370
    1HEX  H1P  18593  12.795   4.956  17.347
    1HEX  H1R  18594  12.682   4.320  17.024
    1HEX  H1S  18595  12.697   4.326  17.196
    1HEX  H1T  18596  12.850   3.903  16.962
    1HEX  H1U  18597  12.686   3.851  16.964
    1HEX  H1V  18598  12.772   3.717  17.139
    1HEX  H1W  18599  12.721   3.852  17.237
    1HEX  H1Y  18600  12.963   4.118  17.098
    1HEX  H1Z  18601  12.914   4.157  17.250
    1HEX  H20  18602  13.161   4.394  17.269
    1HEX  H21  18603  13.268   4.265  17.294
    1HEX  H22  18604  13.110   4.059   0.003
    1HEX  H23  18605  13.129   4.120   0.164
    1HEX  H24  18606  13.536   4.041   0.022
    1HEX  H25  18607  13.572   4.018   0.192
    1HEX  H26  18608  13.579   4.298   0.063
    1HEX  H27  18609  13.722   4.197   0.078
    1HEX  H29  18610  13.188   4.483   0.048
    1HEX  H2A  18611  13.313   4.366   0.079
    1HEX  H2B  18612  13.147   4.280   0.455
    1HEX  H2C  18613  13.074   4.438   0.451
    1HEX  H2D  18614  13.275   4.527   0.582
    1HEX  H2E  18615  13.333   4.363   0.595
    1HEX  H2G  18616  12.903   4.270  17.408
    1HEX  H2H  18617  12.959   4.419   0.031
    1HEX  H2I  18618  12.783   4.265   0.379
    1HEX  H2J  18619  12.695   4.121   0.335
    1HEX  H2K  18620  12.579   4.284   0.149
    1HEX  H2M  18621  12.624   4.408   0.265
    1STR  S00  18622  13.275   4.304  16.599
    1STR  S0E  18623  12.971   5.076  17.375
    1STR  S0M  18624  12.865   3.685  17.269
    1STR  S0X  18625  13.787   4.286   0.076
    1STR  S14  18626  13.160   4.402   0.748
    1STR  S1B  18627  12.454   4.363   0.170
    1HEX  C01  18628  13.319   4.216   3.654
    1HEX  C02  18629  13.280   4.214   3.802
    1HEX  C03  18630  13.129   4.208   3.813
    1HEX  O04  18631  13.067   4.105   3.785
    1HEX  O05  18632  13.075   4.325   3.854
    1HEX  C06  18633  12.934   4.338   3.866
    1HEX  C07  18634  12.889   4.328   4.013
    1HEX  C08  18635  12.920   4.464   4.086
    1HEX  O09  18636  12.861   4.591   4.049
    1HEX  C0A  18637  12.844   4.687   4.148
    1HEX  O0B  18638  12.817   4.661   4.265
    1HEX  C0C  18639  12.865   4.833   4.103
    1HEX  C0D  18640  12.885   4.939   4.218
    1HEX  C0F  18641  12.736   4.291   4.017
    1HEX  O0G  18642  12.719   4.148   4.003
    1HEX  C0H  18643  12.687   4.092   3.885
    1HEX  O0I  18644  12.629   4.153   3.795
    1HEX  C0J  18645  12.736   3.946   3.861
    1HEX  C0K  18646  12.762   3.844   3.978
    1HEX  C0N  18647  12.958   4.204   4.083
    1HEX  O0O  18648  13.097   4.201   4.119
    1HEX  C0P  18649  13.157   4.286   4.217
    1HEX  C0Q  18650  13.122   4.275   4.369
    1HEX  C0R  18651  13.171   4.136   4.421
    1HEX  O0S  18652  13.313   4.120   4.402
    1HEX  C0T  18653  13.401   4.125   4.507
    1HEX  O0U  18654  13.370   4.142   4.624
    1HEX  C0V  18655  13.547   4.096   4.467
    1HEX  C0W  18656  13.644   4.218   4.459
    1HEX  C0Y  18657  13.203   4.386   4.441
    1HEX  O0Z  18658  13.164   4.384   4.577
    1HEX  C10  18659  13.247   4.421   4.674
    1HEX  O11  18660  13.359   4.469   4.662
    1HEX  C12  18661  13.181   4.392   4.809
    1HEX  C13  18662  13.263   4.431   4.933
    1HEX  C15  18663  12.971   4.305   4.399
    1HEX  O16  18664  12.912   4.271   4.525
    1HEX  C17  18665  12.813   4.179   4.528
    1HEX  O18  18666  12.804   4.083   4.452
    1HEX  C19  18667  12.705   4.208   4.633
    1HEX  C1A  18668  12.569   4.256   4.572
    1HEX  H1D  18669  13.268   4.138   3.598
    1HEX  H1E  18670  13.291   4.311   3.607
    1HEX  H1F  18671  13.316   4.303   3.854
    1HEX  H1G  18672  13.321   4.127   3.853
    1HEX  H1H  18673  12.884   4.264   3.803
    1HEX  H1I  18674  12.906   4.435   3.823
    1HEX  H1J  18675  13.025   4.485   4.068
    1HEX  H1K  18676  12.906   4.449   4.192
    1HEX  H1M  18677  12.783   4.862   4.038
    1HEX  H1N  18678  12.955   4.833   4.042
    1HEX  H1O  18679  12.960   4.909   4.291
    1HEX  H1P  18680  12.792   4.954   4.274
    1HEX  H1R  18681  12.679   4.349   3.944
    1HEX  H1S  18682  12.694   4.320   4.114
    1HEX  H1T  18683  12.829   3.959   3.806
    1HEX  H1U  18684  12.666   3.904   3.789
    1HEX  H1V  18685  12.720   3.746   3.953
    1HEX  H1W  18686  12.713   3.875   4.070
    1HEX  H1Y  18687  12.954   4.123   4.010
    1HEX  H1Z  18688  12.898   4.158   4.161
    1HEX  H20  18689  13.158   4.389   4.184
    1HEX  H21  18690  13.262   4.259   4.207
    1HEX  H22  18691  13.119   4.057   4.367
    1HEX  H23  18692  13.143   4.124   4.526
    1HEX  H24  18693  13.545   4.043   4.372
    1HEX  H25  18694  13.586   4.026   4.540
    1HEX  H26  18695  13.598   4.306   4.414
    1HEX  H27  18696  13.736   4.196   4.403
    1HEX  H29  18697  13.182   4.484   4.399
    1HEX  H2A  18698  13.311   4.371   4.429
    1HEX  H2B  18699  13.158   4.286   4.810
    1HEX  H2C  18700  13.086   4.446   4.809
    1HEX  H2D  18701  13.295   4.535   4.929
    1HEX  H2E  18702  13.354   4.370   4.940
    1HEX  H2G  18703  12.905   4.266   4.323
    1HEX  H2H  18704  12.956   4.412   4.392
    1HEX  H2I  18705  12.744   4.279   4.705
    1HEX  H2J  18706  12.688   4.115   4.687
    1HEX  H2K  18707  12.578   4.274   4.465
    1HEX  H2M  18708  12.539   4.351   4.617
    1STR  S00  18709  13.245   4.301   3.511
    1STR  S0E  18710  12.943   5.102   4.286
    1STR  S0M  18711  12.846   3.686   4.037
    1STR  S0X  18712  13.815   4.266   4.404
    1STR  S14  18713  13.181   4.414   5.095
    1STR  S1B  18714  12.409   4.278   4.483
    1HEX  C01  18715  13.314   4.236   8.075
    1HEX  C02  18716  13.265   4.205   8.216
    1HEX  C03  18717  13.115   4.200   8.208
    1HEX  O04  18718  13.056   4.098   8.173
    1HEX  O05  18719  13.062   4.320   8.235
    1HEX  C06  18720  12.922   4.337   8.235
    1HEX  C07  18721  12.873   4.331   8.382
    1HEX  C08  18722  12.910   4.466   8.452
    1HEX  O09  18723  12.856   4.594   8.412
    1HEX  C0A  18724  12.846   4.694   8.507
    1HEX  O0B  18725  12.824   4.674   8.627
    1HEX  C0C  18726  12.870   4.837   8.455
    1HEX  C0D  18727  12.899   4.947   8.564
    1HEX  C0F  18728  12.720   4.304   8.382
    1HEX  O0G  18729  12.694   4.162   8.365
    1HEX  C0H  18730  12.670   4.111   8.243
    1HEX  O0I  18731  12.628   4.176   8.148
    1HEX  C0J  18732  12.709   3.962   8.223
    1HEX  C0K  18733  12.712   3.863   8.344
    1HEX  C0N  18734  12.936   4.205   8.455
    1HEX  O0O  18735  13.075   4.194   8.492
    1HEX  C0P  18736  13.145   4.281   8.581
    1HEX  C0Q  18737  13.117   4.275   8.734
    1HEX  C0R  18738  13.165   4.137   8.787
    1HEX  O0S  18739  13.307   4.119   8.769
    1HEX  C0T  18740  13.393   4.122   8.875
    1HEX  O0U  18741  13.361   4.139   8.992
    1HEX  C0V  18742  13.540   4.093   8.836
    1HEX  C0W  18743  13.637   4.214   8.835
    1HEX  C0Y  18744  13.201   4.386   8.801
    1HEX  O0Z  18745  13.165   4.388   8.937
    1HEX  C10  18746  13.248   4.424   9.034
    1HEX  O11  18747  13.360   4.472   9.019
    1HEX  C12  18748  13.184   4.395   9.169
    1HEX  C13  18749  13.269   4.434   9.291
    1HEX  C15  18750  12.967   4.309   8.766
    1HEX  O16  18751  12.910   4.279   8.894
    1HEX  C17  18752  12.806   4.193   8.901
    1HEX  O18  18753  12.788   4.098   8.825
    1HEX  C19  18754  12.706   4.224   9.012
    1HEX  C1A  18755  12.573   4.292   8.963
    1HEX  H1D  18756  13.282   4.158   8.007
    1HEX  H1E  18757  13.269   4.328   8.038
    1HEX  H1F  18758  13.294   4.282   8.287
    1HEX  H1G  18759  13.303   4.110   8.254
    1HEX  H1H  18760  12.875   4.264   8.170
    1HEX  H1I  18761  12.900   4.434   8.190
    1HEX  H1J  18762  13.016   4.484   8.434
    1HEX  H1K  18763  12.896   4.454   8.558
    1HEX  H1M  18764  12.786   4.867   8.392
    1HEX  H1N  18765  12.957   4.832   8.390
    1HEX  H1O  18766  12.973   4.914   8.636
    1HEX  H1P  18767  12.808   4.970   8.620
    1HEX  H1R  18768  12.668   4.365   8.308
    1HEX  H1S  18769  12.678   4.333   8.479
    1HEX  H1T  18770  12.810   3.965   8.180
    1HEX  H1U  18771  12.646   3.924   8.144
    1HEX  H1V  18772  12.669   3.766   8.316
    1HEX  H1W  18773  12.655   3.900   8.430
    1HEX  H1Y  18774  12.927   4.122   8.385
    1HEX  H1Z  18775  12.871   4.164   8.532
    1HEX  H20  18776  13.148   4.383   8.544
    1HEX  H21  18777  13.248   4.250   8.567
    1HEX  H22  18778  13.113   4.058   8.732
    1HEX  H23  18779  13.135   4.124   8.891
    1HEX  H24  18780  13.539   4.043   8.740
    1HEX  H25  18781  13.577   4.021   8.909
    1HEX  H26  18782  13.591   4.304   8.793
    1HEX  H27  18783  13.727   4.193   8.777
    1HEX  H29  18784  13.181   4.484   8.758
    1HEX  H2A  18785  13.308   4.369   8.788
    1HEX  H2B  18786  13.162   4.289   9.172
    1HEX  H2C  18787  13.089   4.447   9.171
    1HEX  H2D  18788  13.297   4.539   9.285
    1HEX  H2E  18789  13.361   4.376   9.293
    1HEX  H2G  18790  12.900   4.268   8.693
    1HEX  H2H  18791  12.953   4.416   8.757
    1HEX  H2I  18792  12.755   4.283   9.089
    1HEX  H2J  18793  12.681   4.129   9.058
    1HEX  H2K  18794  12.562   4.287   8.855
    1HEX  H2M  18795  12.571   4.397   8.991
    1STR  S00  18796  13.243   4.378   7.985
    1STR  S0E  18797  12.978   5.106   8.616
    1STR  S0M  18798  12.765   3.715   8.444
    1STR  S0X  18799  13.811   4.272   8.805
    1STR  S14  18800  13.199   4.417   9.460
    1STR  S1B  18801  12.414   4.355   8.892
    1HEX  C01  18802  13.336   4.208  12.382
    1HEX  C02  18803  13.284   4.212  12.526
    1HEX  C03  18804  13.133   4.206  12.529
    1HEX  O04  18805  13.073   4.103  12.498
    1HEX  O05  18806  13.076   4.321  12.570
    1HEX  C06  18807  12.935   4.330  12.585
    1HEX  C07  18808  12.894   4.316  12.734
    1HEX  C08  18809  12.921   4.454  12.803
    1HEX  O09  18810  12.858   4.577  12.762
    1HEX  C0A  18811  12.839   4.674  12.858
    1HEX  O0B  18812  12.811   4.651  12.976
    1HEX  C0C  18813  12.861   4.818  12.810
    1HEX  C0D  18814  12.885   4.923  12.924
    1HEX  C0F  18815  12.745   4.269  12.745
    1HEX  O0G  18816  12.735   4.123  12.753
    1HEX  C0H  18817  12.729   4.048  12.641
    1HEX  O0I  18818  12.684   4.092  12.535
    1HEX  C0J  18819  12.786   3.901  12.643
    1HEX  C0K  18820  12.836   3.816  12.770
    1HEX  C0N  18821  12.974   4.199  12.804
    1HEX  O0O  18822  13.113   4.207  12.837
    1HEX  C0P  18823  13.164   4.291  12.940
    1HEX  C0Q  18824  13.123   4.275  13.091
    1HEX  C0R  18825  13.165   4.134  13.140
    1HEX  O0S  18826  13.306   4.114  13.127
    1HEX  C0T  18827  13.389   4.115  13.234
    1HEX  O0U  18828  13.354   4.131  13.351
    1HEX  C0V  18829  13.535   4.086  13.199
    1HEX  C0W  18830  13.631   4.209  13.201
    1HEX  C0Y  18831  13.205   4.382  13.168
    1HEX  O0Z  18832  13.164   4.378  13.303
    1HEX  C10  18833  13.243   4.415  13.404
    1HEX  O11  18834  13.355   4.466  13.395
    1HEX  C12  18835  13.173   4.384  13.536
    1HEX  C13  18836  13.251   4.417  13.664
    1HEX  C15  18837  12.972   4.307  13.119
    1HEX  O16  18838  12.919   4.277  13.248
    1HEX  C17  18839  12.822   4.185  13.262
    1HEX  O18  18840  12.799   4.093  13.183
    1HEX  C19  18841  12.736   4.206  13.386
    1HEX  C1A  18842  12.602   4.277  13.356
    1HEX  H1D  18843  13.272   4.148  12.317
    1HEX  H1E  18844  13.345   4.308  12.339
    1HEX  H1F  18845  13.318   4.302  12.578
    1HEX  H1G  18846  13.321   4.127  12.583
    1HEX  H1H  18847  12.885   4.257  12.521
    1HEX  H1I  18848  12.904   4.426  12.545
    1HEX  H1J  18849  13.026   4.478  12.785
    1HEX  H1K  18850  12.908   4.442  12.909
    1HEX  H1M  18851  12.778   4.850  12.747
    1HEX  H1N  18852  12.949   4.817  12.747
    1HEX  H1O  18853  12.960   4.889  12.996
    1HEX  H1P  18854  12.794   4.942  12.981
    1HEX  H1R  18855  12.684   4.311  12.664
    1HEX  H1S  18856  12.700   4.311  12.835
    1HEX  H1T  18857  12.870   3.909  12.574
    1HEX  H1U  18858  12.711   3.845  12.588
    1HEX  H1V  18859  12.822   3.711  12.748
    1HEX  H1W  18860  12.774   3.839  12.857
    1HEX  H1Y  18861  12.973   4.116  12.733
    1HEX  H1Z  18862  12.921   4.152  12.887
    1HEX  H20  18863  13.162   4.395  12.910
    1HEX  H21  18864  13.270   4.267  12.935
    1HEX  H22  18865  13.113   4.057  13.082
    1HEX  H23  18866  13.132   4.119  13.243
    1HEX  H24  18867  13.537   4.038  13.101
    1HEX  H25  18868  13.571   4.012  13.271
    1HEX  H26  18869  13.590   4.293  13.145
    1HEX  H27  18870  13.727   4.183  13.158
    1HEX  H29  18871  13.186   4.482  13.128
    1HEX  H2A  18872  13.312   4.366  13.158
    1HEX  H2B  18873  13.149   4.278  13.533
    1HEX  H2C  18874  13.079   4.439  13.534
    1HEX  H2D  18875  13.287   4.520  13.662
    1HEX  H2E  18876  13.339   4.353  13.672
    1HEX  H2G  18877  12.904   4.265  13.046
    1HEX  H2H  18878  12.957   4.415  13.110
    1HEX  H2I  18879  12.794   4.259  13.461
    1HEX  H2J  18880  12.715   4.107  13.427
    1HEX  H2K  18881  12.572   4.269  13.251
    1HEX  H2M  18882  12.608   4.384  13.378
    1STR  S00  18883  13.269   4.314  12.249
    1STR  S0E  18884  12.976   5.074  12.974
    1STR  S0M  18885  12.932   3.675  12.860
    1STR  S0X  18886  13.803   4.268  13.171
    1STR  S14  18887  13.177   4.382  13.828
    1STR  S1B  18888  12.436   4.317  13.290
    1HEX  C01  18889  13.339   8.570  16.755
    1HEX  C02  18890  13.283   8.571  16.898
    1HEX  C03  18891  13.131   8.574  16.896
    1HEX  O04  18892  13.067   8.473  16.866
    1HEX  O05  18893  13.080   8.694  16.932
    1HEX  C06  18894  12.939   8.710  16.944
    1HEX  C07  18895  12.892   8.702  17.092
    1HEX  C08  18896  12.929   8.835  17.166
    1HEX  O09  18897  12.874   8.964  17.132
    1HEX  C0A  18898  12.857   9.059  17.232
    1HEX  O0B  18899  12.829   9.032  17.349
    1HEX  C0C  18900  12.879   9.206  17.189
    1HEX  C0D  18901  12.906   9.312  17.303
    1HEX  C0F  18902  12.738   8.677  17.099
    1HEX  O0G  18903  12.709   8.537  17.086
    1HEX  C0H  18904  12.689   8.481  16.966
    1HEX  O0I  18905  12.648   8.542  16.867
    1HEX  C0J  18906  12.729   8.333  16.954
    1HEX  C0K  18907  12.762   8.249  17.083
    1HEX  C0N  18908  12.955   8.572  17.160
    1HEX  O0O  18909  13.093   8.563  17.198
    1HEX  C0P  18910  13.156   8.645  17.296
    1HEX  C0Q  18911  13.122   8.634   0.008
    1HEX  C0R  18912  13.173   8.498   0.062
    1HEX  O0S  18913  13.316   8.484   0.043
    1HEX  C0T  18914  13.404   8.490   0.148
    1HEX  O0U  18915  13.373   8.505   0.266
    1HEX  C0V  18916  13.551   8.465   0.108
    1HEX  C0W  18917  13.648   8.588   0.104
    1HEX  C0Y  18918  13.201   8.747   0.078
    1HEX  O0Z  18919  13.162   8.748   0.213
    1HEX  C10  18920  13.244   8.782   0.311
    1HEX  O11  18921  13.357   8.829   0.300
    1HEX  C12  18922  13.178   8.751   0.445
    1HEX  C13  18923  13.261   8.785   0.570
    1HEX  C15  18924  12.969   8.663   0.037
    1HEX  O16  18925  12.908   8.631   0.163
    1HEX  C17  18926  12.799   8.549   0.162
    1HEX  O18  18927  12.786   8.452   0.088
    1HEX  C19  18928  12.688   8.588   0.260
    1HEX  C1A  18929  12.558   8.642   0.192
    1HEX  H1D  18930  13.290   8.493  16.695
    1HEX  H1E  18931  13.322   8.666  16.706
    1HEX  H1F  18932  13.320   8.657  16.954
    1HEX  H1G  18933  13.314   8.482  16.952
    1HEX  H1H  18934  12.888   8.637  16.881
    1HEX  H1I  18935  12.912   8.807  16.902
    1HEX  H1J  18936  13.035   8.853  17.149
    1HEX  H1K  18937  12.916   8.820  17.272
    1HEX  H1M  18938  12.794   9.238  17.128
    1HEX  H1N  18939  12.965   9.205  17.123
    1HEX  H1O  18940  12.980   9.276  17.375
    1HEX  H1P  18941  12.815   9.332  17.360
    1HEX  H1R  18942  12.684   8.738  17.026
    1HEX  H1S  18943  12.699   8.708  17.196
    1HEX  H1T  18944  12.818   8.333  16.891
    1HEX  H1U  18945  12.651   8.284  16.895
    1HEX  H1V  18946  12.732   8.146  17.069
    1HEX  H1W  18947  12.706   8.286  17.169
    1HEX  H1Y  18948  12.948   8.493  17.085
    1HEX  H1Z  18949  12.891   8.526  17.235
    1HEX  H20  18950  13.161   8.747  17.263
    1HEX  H21  18951  13.261   8.614  17.286
    1HEX  H22  18952  13.123   8.416   0.008
    1HEX  H23  18953  13.145   8.485   0.166
    1HEX  H24  18954  13.550   8.414   0.012
    1HEX  H25  18955  13.590   8.393   0.180
    1HEX  H26  18956  13.601   8.676   0.059
    1HEX  H27  18957  13.741   8.568   0.050
    1HEX  H29  18958  13.179   8.845   0.035
    1HEX  H2A  18959  13.309   8.733   0.067
    1HEX  H2B  18960  13.154   8.645   0.443
    1HEX  H2C  18961  13.084   8.806   0.446
    1HEX  H2D  18962  13.288   8.890   0.571
    1HEX  H2E  18963  13.355   8.729   0.569
    1HEX  H2G  18964  12.905   8.624  17.402
    1HEX  H2H  18965  12.954   8.771   0.030
    1HEX  H2I  18966  12.729   8.658   0.333
    1HEX  H2J  18967  12.664   8.498   0.316
    1HEX  H2K  18968  12.571   8.655   0.084
    1HEX  H2M  18969  12.530   8.739   0.232
    1STR  S00  18970  13.313   8.677  16.611
    1STR  S0E  18971  12.978   9.469  17.375
    1STR  S0M  18972  12.862   8.127  17.181
    1STR  S0X  18973  13.816   8.651   0.056
    1STR  S14  18974  13.165   8.747   0.721
    1STR  S1B  18975  12.402   8.683   0.099
    1HEX  C01  18976  13.332   8.543   3.679
    1HEX  C02  18977  13.280   8.564   3.821
    1HEX  C03  18978  13.128   8.563   3.820
    1HEX  O04  18979  13.066   8.460   3.794
    1HEX  O05  18980  13.074   8.682   3.852
    1HEX  C06  18981  12.933   8.694   3.866
    1HEX  C07  18982  12.889   8.685   4.015
    1HEX  C08  18983  12.922   8.822   4.084
    1HEX  O09  18984  12.862   8.948   4.047
    1HEX  C0A  18985  12.846   9.045   4.144
    1HEX  O0B  18986  12.824   9.021   4.263
    1HEX  C0C  18987  12.862   9.190   4.096
    1HEX  C0D  18988  12.884   9.298   4.208
    1HEX  C0F  18989  12.737   8.650   4.026
    1HEX  O0G  18990  12.716   8.506   4.034
    1HEX  C0H  18991  12.695   8.432   3.923
    1HEX  O0I  18992  12.654   8.481   3.818
    1HEX  C0J  18993  12.732   8.281   3.927
    1HEX  C0K  18994  12.746   8.190   4.057
    1HEX  C0N  18995  12.962   8.563   4.086
    1HEX  O0O  18996  13.101   8.564   4.119
    1HEX  C0P  18997  13.159   8.648   4.219
    1HEX  C0Q  18998  13.121   8.636   4.370
    1HEX  C0R  18999  13.162   8.495   4.421
    1HEX  O0S  19000  13.304   8.474   4.407
    1HEX  C0T  19001  13.387   8.476   4.515
    1HEX  O0U  19002  13.352   8.492   4.632
    1HEX  C0V  19003  13.534   8.449   4.479
    1HEX  C0W  19004  13.626   8.574   4.476
    1HEX  C0Y  19005  13.204   8.743   4.445
    1HEX  O0Z  19006  13.163   8.741   4.580
    1HEX  C10  19007  13.242   8.779   4.681
    1HEX  O11  19008  13.354   8.829   4.671
    1HEX  C12  19009  13.172   8.750   4.813
    1HEX  C13  19010  13.248   8.791   4.941
    1HEX  C15  19011  12.970   8.670   4.399
    1HEX  O16  19012  12.916   8.641   4.527
    1HEX  C17  19013  12.824   8.543   4.539
    1HEX  O18  19014  12.816   8.444   4.467
    1HEX  C19  19015  12.724   8.568   4.651
    1HEX  C1A  19016  12.595   8.640   4.602
    1HEX  H1D  19017  13.284   8.456   3.633
    1HEX  H1E  19018  13.304   8.627   3.615
    1HEX  H1F  19019  13.315   8.658   3.864
    1HEX  H1G  19020  13.313   8.484   3.887
    1HEX  H1H  19021  12.882   8.620   3.804
    1HEX  H1I  19022  12.903   8.790   3.823
    1HEX  H1J  19023  13.027   8.843   4.066
    1HEX  H1K  19024  12.910   8.809   4.190
    1HEX  H1M  19025  12.778   9.218   4.033
    1HEX  H1N  19026  12.951   9.191   4.032
    1HEX  H1O  19027  12.956   9.265   4.283
    1HEX  H1P  19028  12.792   9.320   4.261
    1HEX  H1R  19029  12.679   8.696   3.945
    1HEX  H1S  19030  12.695   8.693   4.117
    1HEX  H1T  19031  12.826   8.276   3.871
    1HEX  H1U  19032  12.660   8.235   3.859
    1HEX  H1V  19033  12.720   8.088   4.030
    1HEX  H1W  19034  12.675   8.221   4.134
    1HEX  H1Y  19035  12.955   8.481   4.015
    1HEX  H1Z  19036  12.905   8.519   4.167
    1HEX  H20  19037  13.160   8.751   4.187
    1HEX  H21  19038  13.264   8.621   4.211
    1HEX  H22  19039  13.110   8.418   4.363
    1HEX  H23  19040  13.129   8.481   4.524
    1HEX  H24  19041  13.535   8.398   4.383
    1HEX  H25  19042  13.572   8.378   4.552
    1HEX  H26  19043  13.580   8.657   4.423
    1HEX  H27  19044  13.721   8.552   4.428
    1HEX  H29  19045  13.185   8.843   4.405
    1HEX  H2A  19046  13.311   8.726   4.435
    1HEX  H2B  19047  13.152   8.643   4.815
    1HEX  H2C  19048  13.076   8.801   4.809
    1HEX  H2D  19049  13.279   8.895   4.934
    1HEX  H2E  19050  13.339   8.731   4.950
    1HEX  H2G  19051  12.902   8.629   4.327
    1HEX  H2H  19052  12.957   8.778   4.390
    1HEX  H2I  19053  12.773   8.622   4.732
    1HEX  H2J  19054  12.697   8.470   4.692
    1HEX  H2K  19055  12.580   8.631   4.494
    1HEX  H2M  19056  12.599   8.747   4.625
    1STR  S00  19057  13.298   8.557   3.502
    1STR  S0E  19058  12.957   9.453   4.275
    1STR  S0M  19059  12.804   8.061   4.184
    1STR  S0X  19060  13.794   8.632   4.432
    1STR  S14  19061  13.168   8.779   5.105
    1STR  S1B  19062  12.440   8.684   4.514
    1HEX  C01  19063  13.322   8.580   8.011
    1HEX  C02  19064  13.282   8.576   8.159
    1HEX  C03  19065  13.131   8.568   8.171
    1HEX  O04  19066  13.071   8.465   8.143
    1HEX  O05  19067  13.077   8.684   8.212
    1HEX  C06  19068  12.936   8.696   8.225
    1HEX  C07  19069  12.891   8.681   8.372
    1HEX  C08  19070  12.918   8.818   8.444
    1HEX  O09  19071  12.857   8.943   8.405
    1HEX  C0A  19072  12.839   9.039   8.502
    1HEX  O0B  19073  12.812   9.015   8.620
    1HEX  C0C  19074  12.859   9.185   8.456
    1HEX  C0D  19075  12.876   9.292   8.569
    1HEX  C0F  19076  12.740   8.638   8.377
    1HEX  O0G  19077  12.729   8.493   8.368
    1HEX  C0H  19078  12.712   8.432   8.249
    1HEX  O0I  19079  12.660   8.489   8.152
    1HEX  C0J  19080  12.767   8.287   8.231
    1HEX  C0K  19081  12.813   8.189   8.348
    1HEX  C0N  19082  12.965   8.560   8.443
    1HEX  O0O  19083  13.104   8.563   8.478
    1HEX  C0P  19084  13.160   8.648   8.578
    1HEX  C0Q  19085  13.123   8.635   8.729
    1HEX  C0R  19086  13.168   8.495   8.780
    1HEX  O0S  19087  13.310   8.476   8.763
    1HEX  C0T  19088  13.396   8.479   8.869
    1HEX  O0U  19089  13.364   8.496   8.986
    1HEX  C0V  19090  13.542   8.449   8.831
    1HEX  C0W  19091  13.639   8.570   8.826
    1HEX  C0Y  19092  13.204   8.744   8.803
    1HEX  O0Z  19093  13.166   8.741   8.939
    1HEX  C10  19094  13.247   8.778   9.037
    1HEX  O11  19095  13.359   8.828   9.025
    1HEX  C12  19096  13.181   8.749   9.171
    1HEX  C13  19097  13.264   8.784   9.296
    1HEX  C15  19098  12.972   8.665   8.758
    1HEX  O16  19099  12.916   8.632   8.886
    1HEX  C17  19100  12.820   8.538   8.893
    1HEX  O18  19101  12.805   8.445   8.815
    1HEX  C19  19102  12.722   8.560   9.009
    1HEX  C1A  19103  12.583   8.613   8.962
    1HEX  H1D  19104  13.270   8.502   7.955
    1HEX  H1E  19105  13.293   8.675   7.966
    1HEX  H1F  19106  13.318   8.664   8.212
    1HEX  H1G  19107  13.325   8.489   8.209
    1HEX  H1H  19108  12.886   8.624   8.159
    1HEX  H1I  19109  12.907   8.793   8.185
    1HEX  H1J  19110  13.023   8.842   8.429
    1HEX  H1K  19111  12.903   8.804   8.550
    1HEX  H1M  19112  12.778   9.213   8.389
    1HEX  H1N  19113  12.950   9.185   8.395
    1HEX  H1O  19114  12.952   9.263   8.642
    1HEX  H1P  19115  12.784   9.305   8.626
    1HEX  H1R  19116  12.682   8.691   8.301
    1HEX  H1S  19117  12.696   8.670   8.472
    1HEX  H1T  19118  12.853   8.302   8.165
    1HEX  H1U  19119  12.694   8.238   8.167
    1HEX  H1V  19120  12.783   8.087   8.321
    1HEX  H1W  19121  12.761   8.213   8.440
    1HEX  H1Y  19122  12.963   8.478   8.371
    1HEX  H1Z  19123  12.907   8.515   8.523
    1HEX  H20  19124  13.159   8.751   8.546
    1HEX  H21  19125  13.266   8.623   8.570
    1HEX  H22  19126  13.116   8.417   8.725
    1HEX  H23  19127  13.139   8.482   8.885
    1HEX  H24  19128  13.541   8.397   8.735
    1HEX  H25  19129  13.579   8.377   8.904
    1HEX  H26  19130  13.594   8.657   8.777
    1HEX  H27  19131  13.732   8.546   8.773
    1HEX  H29  19132  13.184   8.843   8.763
    1HEX  H2A  19133  13.312   8.729   8.792
    1HEX  H2B  19134  13.157   8.643   9.172
    1HEX  H2C  19135  13.087   8.803   9.172
    1HEX  H2D  19136  13.298   8.888   9.292
    1HEX  H2E  19137  13.352   8.721   9.303
    1HEX  H2G  19138  12.905   8.625   8.684
    1HEX  H2H  19139  12.957   8.773   8.752
    1HEX  H2I  19140  12.767   8.627   9.082
    1HEX  H2J  19141  12.708   8.464   9.059
    1HEX  H2K  19142  12.576   8.621   8.853
    1HEX  H2M  19143  12.562   8.712   9.002
    1STR  S00  19144  13.244   8.675   7.877
    1STR  S0E  19145  12.937   9.457   8.625
    1STR  S0M  19146  12.913   8.040   8.411
    1STR  S0X  19147  13.812   8.613   8.777
    1STR  S14  19148  13.194   8.757   9.463
    1STR  S1B  19149  12.421   8.617   8.877
    1HEX  C01  19150  13.356   8.642  12.437
    1HEX  C02  19151  13.288   8.605  12.569
    1HEX  C03  19152  13.138   8.591  12.550
    1HEX  O04  19153  13.087   8.486  12.512
    1HEX  O05  19154  13.074   8.705  12.580
    1HEX  C06  19155  12.933   8.709  12.585
    1HEX  C07  19156  12.884   8.697  12.732
    1HEX  C08  19157  12.918   8.831  12.807
    1HEX  O09  19158  12.864   8.960  12.770
    1HEX  C0A  19159  12.855   9.058  12.868
    1HEX  O0B  19160  12.833   9.035  12.987
    1HEX  C0C  19161  12.878   9.203  12.819
    1HEX  C0D  19162  12.910   9.311  12.929
    1HEX  C0F  19163  12.731   8.669  12.734
    1HEX  O0G  19164  12.707   8.529  12.708
    1HEX  C0H  19165  12.677   8.485  12.585
    1HEX  O0I  19166  12.630   8.555  12.496
    1HEX  C0J  19167  12.716   8.338  12.555
    1HEX  C0K  19168  12.723   8.235  12.672
    1HEX  C0N  19169  12.949   8.569  12.800
    1HEX  O0O  19170  13.087   8.560  12.839
    1HEX  C0P  19171  13.151   8.644  12.936
    1HEX  C0Q  19172  13.118   8.634  13.089
    1HEX  C0R  19173  13.169   8.497  13.142
    1HEX  O0S  19174  13.312   8.482  13.126
    1HEX  C0T  19175  13.398   8.486  13.232
    1HEX  O0U  19176  13.364   8.500  13.349
    1HEX  C0V  19177  13.545   8.460  13.194
    1HEX  C0W  19178  13.642   8.583  13.197
    1HEX  C0Y  19179  13.200   8.747  13.158
    1HEX  O0Z  19180  13.163   8.746  13.294
    1HEX  C10  19181  13.248   8.782  13.390
    1HEX  O11  19182  13.360   8.831  13.374
    1HEX  C12  19183  13.186   8.754  13.526
    1HEX  C13  19184  13.275   8.788  13.646
    1HEX  C15  19185  12.967   8.664  13.118
    1HEX  O16  19186  12.907   8.636  13.245
    1HEX  C17  19187  12.797   8.557  13.250
    1HEX  O18  19188  12.777   8.460  13.176
    1HEX  C19  19189  12.693   8.596  13.355
    1HEX  C1A  19190  12.561   8.659  13.298
    1HEX  H1D  19191  13.419   8.561  12.404
    1HEX  H1E  19192  13.284   8.663  12.358
    1HEX  H1F  19193  13.305   8.682  12.644
    1HEX  H1G  19194  13.326   8.511  12.610
    1HEX  H1H  19195  12.890   8.631  12.521
    1HEX  H1I  19196  12.899   8.803  12.540
    1HEX  H1J  19197  13.024   8.850  12.794
    1HEX  H1K  19198  12.899   8.815  12.912
    1HEX  H1M  19199  12.793   9.234  12.758
    1HEX  H1N  19200  12.963   9.199  12.752
    1HEX  H1O  19201  12.983   9.275  13.001
    1HEX  H1P  19202  12.820   9.335  12.987
    1HEX  H1R  19203  12.677   8.734  12.665
    1HEX  H1S  19204  12.690   8.691  12.832
    1HEX  H1T  19205  12.815   8.344  12.510
    1HEX  H1U  19206  12.650   8.303  12.476
    1HEX  H1V  19207  12.676   8.141  12.644
    1HEX  H1W  19208  12.674   8.271  12.762
    1HEX  H1Y  19209  12.943   8.490  12.725
    1HEX  H1Z  19210  12.884   8.524  12.875
    1HEX  H20  19211  13.155   8.747  12.903
    1HEX  H21  19212  13.255   8.614  12.925
    1HEX  H22  19213  13.119   8.416  13.088
    1HEX  H23  19214  13.139   8.484  13.246
    1HEX  H24  19215  13.546   8.412  13.097
    1HEX  H25  19216  13.582   8.386  13.265
    1HEX  H26  19217  13.598   8.671  13.151
    1HEX  H27  19218  13.737   8.562  13.148
    1HEX  H29  19219  13.177   8.845  13.116
    1HEX  H2A  19220  13.307   8.732  13.144
    1HEX  H2B  19221  13.162   8.648  13.527
    1HEX  H2C  19222  13.092   8.808  13.531
    1HEX  H2D  19223  13.303   8.893  13.644
    1HEX  H2E  19224  13.368   8.731  13.642
    1HEX  H2G  19225  12.903   8.620  13.044
    1HEX  H2H  19226  12.951   8.771  13.107
    1HEX  H2I  19227  12.741   8.660  13.430
    1HEX  H2J  19228  12.667   8.504  13.408
    1HEX  H2K  19229  12.561   8.661  13.190
    1HEX  H2M  19230  12.551   8.763  13.331
    1STR  S00  19231  13.291   8.738  12.296
    1STR  S0E  19232  12.991   9.469  12.987
    1STR  S0M  19233  12.799   8.087  12.752
    1STR  S0X  19234  13.813   8.646  13.163
    1STR  S14  19235  13.206   8.751  13.812
    1STR  S1B  19236  12.402   8.714  13.219
    1HEX  C01  19237  13.352  12.953  16.766
    1HEX  C02  19238  13.295  12.947  16.908
    1HEX  C03  19239  13.144  12.931  16.907
    1HEX  O04  19240  13.093  12.821  16.886
    1HEX  O05  19241  13.079  13.046  16.933
    1HEX  C06  19242  12.937  13.048  16.946
    1HEX  C07  19243  12.894  13.038  17.096
    1HEX  C08  19244  12.923  13.177  17.164
    1HEX  O09  19245  12.861  13.302  17.126
    1HEX  C0A  19246  12.845  13.398  17.225
    1HEX  O0B  19247  12.819  13.373  17.342
    1HEX  C0C  19248  12.865  13.544  17.179
    1HEX  C0D  19249  12.894  13.649  17.293
    1HEX  C0F  19250  12.743  12.994  17.107
    1HEX  O0G  19251  12.730  12.849  17.121
    1HEX  C0H  19252  12.723  12.768  17.013
    1HEX  O0I  19253  12.684  12.809  16.904
    1HEX  C0J  19254  12.774  12.620  17.024
    1HEX  C0K  19255  12.814  12.538  17.157
    1HEX  C0N  19256  12.972  12.920  17.168
    1HEX  O0O  19257  13.110  12.927  17.200
    1HEX  C0P  19258  13.163  13.012  17.302
    1HEX  C0Q  19259  13.122  12.997   0.013
    1HEX  C0R  19260  13.162  12.855   0.062
    1HEX  O0S  19261  13.304  12.833   0.048
    1HEX  C0T  19262  13.386  12.834   0.156
    1HEX  O0U  19263  13.351  12.848   0.273
    1HEX  C0V  19264  13.533  12.808   0.120
    1HEX  C0W  19265  13.623  12.934   0.123
    1HEX  C0Y  19266  13.205  13.103   0.089
    1HEX  O0Z  19267  13.164  13.099   0.224
    1HEX  C10  19268  13.241  13.135   0.326
    1HEX  O11  19269  13.354  13.185   0.319
    1HEX  C12  19270  13.169  13.105   0.457
    1HEX  C13  19271  13.244  13.139   0.587
    1HEX  C15  19272  12.972  13.031   0.041
    1HEX  O16  19273  12.919  13.003   0.170
    1HEX  C17  19274  12.822  12.911   0.184
    1HEX  O18  19275  12.801  12.816   0.108
    1HEX  C19  19276  12.733  12.936   0.305
    1HEX  C1A  19277  12.606  13.019   0.269
    1HEX  H1D  19278  13.346  12.856  16.717
    1HEX  H1E  19279  13.300  13.024  16.704
    1HEX  H1F  19280  13.319  13.038  16.963
    1HEX  H1G  19281  13.337  12.864  16.964
    1HEX  H1H  19282  12.892  12.969  16.885
    1HEX  H1I  19283  12.901  13.141  16.903
    1HEX  H1J  19284  13.028  13.200  17.145
    1HEX  H1K  19285  12.911  13.164  17.270
    1HEX  H1M  19286  12.780  13.576  17.119
    1HEX  H1N  19287  12.951  13.544  17.113
    1HEX  H1O  19288  12.962  13.610  17.368
    1HEX  H1P  19289  12.802  13.675  17.347
    1HEX  H1R  19290  12.684  13.034  17.023
    1HEX  H1S  19291  12.699  13.040  17.195
    1HEX  H1T  19292  12.861  12.621  16.958
    1HEX  H1U  19293  12.699  12.564  16.968
    1HEX  H1V  19294  12.799  12.432  17.137
    1HEX  H1W  19295  12.746  12.564  17.238
    1HEX  H1Y  19296  12.968  12.837  17.099
    1HEX  H1Z  19297  12.918  12.876  17.251
    1HEX  H20  19298  13.161  13.115  17.271
    1HEX  H21  19299  13.269  12.987  17.296
    1HEX  H22  19300  13.110  12.779   0.004
    1HEX  H23  19301  13.129  12.840   0.165
    1HEX  H24  19302  13.536  12.761   0.022
    1HEX  H25  19303  13.571  12.736   0.192
    1HEX  H26  19304  13.580  13.017   0.066
    1HEX  H27  19305  13.723  12.915   0.081
    1HEX  H29  19306  13.187  13.203   0.050
    1HEX  H2A  19307  13.313  13.086   0.080
    1HEX  H2B  19308  13.146  12.998   0.455
    1HEX  H2C  19309  13.074  13.158   0.453
    1HEX  H2D  19310  13.277  13.243   0.584
    1HEX  H2E  19311  13.333  13.077   0.595
    1HEX  H2G  19312  12.903  12.989  17.409
    1HEX  H2H  19313  12.958  13.138   0.031
    1HEX  H2I  19314  12.791  12.984   0.384
    1HEX  H2J  19315  12.703  12.839   0.344
    1HEX  H2K  19316  12.574  13.004   0.166
    1HEX  H2M  19317  12.624  13.126   0.282
    1STR  S00  19318  13.294  13.041  16.618
    1STR  S0E  19319  12.988  13.790  17.367
    1STR  S0M  19320  12.899  12.400  17.262
    1STR  S0X  19321  13.790  13.003   0.090
    1STR  S14  19322  13.163  13.111   0.749
    1STR  S1B  19323  12.449  13.079   0.198
    1HEX  C01  19324  13.322  12.933   3.658
    1HEX  C02  19325  13.280  12.933   3.806
    1HEX  C03  19326  13.129  12.929   3.816
    1HEX  O04  19327  13.067  12.826   3.789
    1HEX  O05  19328  13.076  13.047   3.855
    1HEX  C06  19329  12.935  13.062   3.866
    1HEX  C07  19330  12.888  13.053   4.014
    1HEX  C08  19331  12.921  13.188   4.087
    1HEX  O09  19332  12.864  13.316   4.051
    1HEX  C0A  19333  12.849  13.412   4.151
    1HEX  O0B  19334  12.822  13.386   4.268
    1HEX  C0C  19335  12.870  13.559   4.107
    1HEX  C0D  19336  12.892  13.665   4.222
    1HEX  C0F  19337  12.735  13.021   4.017
    1HEX  O0G  19338  12.712  12.878   4.002
    1HEX  C0H  19339  12.683  12.823   3.883
    1HEX  O0I  19340  12.636  12.886   3.788
    1HEX  C0J  19341  12.722  12.674   3.866
    1HEX  C0K  19342  12.737  12.577   3.989
    1HEX  C0N  19343  12.955  12.926   4.083
    1HEX  O0O  19344  13.093  12.921   4.119
    1HEX  C0P  19345  13.156  13.005   4.216
    1HEX  C0Q  19346  13.122  12.995   4.369
    1HEX  C0R  19347  13.172  12.857   4.422
    1HEX  O0S  19348  13.315  12.842   4.402
    1HEX  C0T  19349  13.403  12.848   4.506
    1HEX  O0U  19350  13.373  12.864   4.624
    1HEX  C0V  19351  13.550  12.821   4.466
    1HEX  C0W  19352  13.647  12.943   4.458
    1HEX  C0Y  19353  13.203  13.107   4.439
    1HEX  O0Z  19354  13.163  13.106   4.575
    1HEX  C10  19355  13.246  13.142   4.673
    1HEX  O11  19356  13.358  13.189   4.661
    1HEX  C12  19357  13.179  13.113   4.807
    1HEX  C13  19358  13.260  13.151   4.932
    1HEX  C15  19359  12.970  13.025   4.398
    1HEX  O16  19360  12.910  12.991   4.524
    1HEX  C17  19361  12.808  12.902   4.524
    1HEX  O18  19362  12.799  12.805   4.450
    1HEX  C19  19363  12.697  12.935   4.625
    1HEX  C1A  19364  12.563  12.984   4.559
    1HEX  H1D  19365  13.268  12.855   3.603
    1HEX  H1E  19366  13.296  13.028   3.610
    1HEX  H1F  19367  13.317  13.022   3.857
    1HEX  H1G  19368  13.320  12.847   3.858
    1HEX  H1H  19369  12.885  12.989   3.804
    1HEX  H1I  19370  12.908  13.158   3.823
    1HEX  H1J  19371  13.027  13.208   4.070
    1HEX  H1K  19372  12.907  13.173   4.193
    1HEX  H1M  19373  12.788  13.589   4.043
    1HEX  H1N  19374  12.959  13.558   4.044
    1HEX  H1O  19375  12.967  13.632   4.294
    1HEX  H1P  19376  12.801  13.681   4.278
    1HEX  H1R  19377  12.680  13.080   3.943
    1HEX  H1S  19378  12.693  13.050   4.114
    1HEX  H1T  19379  12.818  12.678   3.814
    1HEX  H1U  19380  12.652  12.633   3.794
    1HEX  H1V  19381  12.696  12.479   3.965
    1HEX  H1W  19382  12.682  12.614   4.076
    1HEX  H1Y  19383  12.949  12.846   4.009
    1HEX  H1Z  19384  12.892  12.881   4.160
    1HEX  H20  19385  13.158  13.108   4.183
    1HEX  H21  19386  13.261  12.977   4.206
    1HEX  H22  19387  13.121  12.777   4.369
    1HEX  H23  19388  13.144  12.845   4.527
    1HEX  H24  19389  13.548  12.768   4.371
    1HEX  H25  19390  13.589  12.750   4.539
    1HEX  H26  19391  13.600  13.031   4.414
    1HEX  H27  19392  13.738  12.922   4.403
    1HEX  H29  19393  13.181  13.205   4.397
    1HEX  H2A  19394  13.310  13.092   4.428
    1HEX  H2B  19395  13.157  13.007   4.808
    1HEX  H2C  19396  13.084  13.166   4.806
    1HEX  H2D  19397  13.289  13.256   4.929
    1HEX  H2E  19398  13.352  13.093   4.937
    1HEX  H2G  19399  12.905  12.986   4.323
    1HEX  H2H  19400  12.955  13.132   4.392
    1HEX  H2I  19401  12.735  13.007   4.697
    1HEX  H2J  19402  12.677  12.843   4.681
    1HEX  H2K  19403  12.576  13.001   4.452
    1HEX  H2M  19404  12.531  13.078   4.603
    1STR  S00  19405  13.254  13.015   3.511
    1STR  S0E  19406  12.954  13.825   4.295
    1STR  S0M  19407  12.805  12.420   4.063
    1STR  S0X  19408  13.816  12.997   4.404
    1STR  S14  19409  13.167  13.133   5.088
    1STR  S1B  19410  12.405  13.011   4.466
    1HEX  C01  19411  13.313  12.928   8.051
    1HEX  C02  19412  13.268  12.911   8.195
    1HEX  C03  19413  13.117  12.915   8.196
    1HEX  O04  19414  13.051  12.814   8.172
    1HEX  O05  19415  13.069  13.039   8.222
    1HEX  C06  19416  12.928  13.057   8.230
    1HEX  C07  19417  12.881  13.049   8.378
    1HEX  C08  19418  12.916  13.185   8.449
    1HEX  O09  19419  12.859  13.312   8.409
    1HEX  C0A  19420  12.846  13.411   8.505
    1HEX  O0B  19421  12.824  13.389   8.624
    1HEX  C0C  19422  12.866  13.555   8.454
    1HEX  C0D  19423  12.891  13.664   8.563
    1HEX  C0F  19424  12.727  13.020   8.383
    1HEX  O0G  19425  12.702  12.877   8.375
    1HEX  C0H  19426  12.678  12.817   8.257
    1HEX  O0I  19427  12.635  12.877   8.158
    1HEX  C0J  19428  12.715  12.667   8.246
    1HEX  C0K  19429  12.718  12.570   8.372
    1HEX  C0N  19430  12.946  12.925   8.452
    1HEX  O0O  19431  13.085  12.918   8.487
    1HEX  C0P  19432  13.150  13.004   8.580
    1HEX  C0Q  19433  13.118  12.996   8.733
    1HEX  C0R  19434  13.164  12.856   8.785
    1HEX  O0S  19435  13.306  12.837   8.768
    1HEX  C0T  19436  13.392  12.840   8.874
    1HEX  O0U  19437  13.359  12.859   8.991
    1HEX  C0V  19438  13.538  12.810   8.837
    1HEX  C0W  19439  13.634  12.932   8.829
    1HEX  C0Y  19440  13.203  13.106   8.803
    1HEX  O0Z  19441  13.164  13.106   8.939
    1HEX  C10  19442  13.246  13.143   9.037
    1HEX  O11  19443  13.358  13.192   9.024
    1HEX  C12  19444  13.180  13.114   9.171
    1HEX  C13  19445  13.261  13.155   9.295
    1HEX  C15  19446  12.968  13.030   8.764
    1HEX  O16  19447  12.913  13.000   8.893
    1HEX  C17  19448  12.813  12.909   8.901
    1HEX  O18  19449  12.798  12.813   8.826
    1HEX  C19  19450  12.715  12.935   9.015
    1HEX  C1A  19451  12.582  13.002   8.969
    1HEX  H1D  19452  13.270  12.851   7.987
    1HEX  H1E  19453  13.275  13.022   8.011
    1HEX  H1F  19454  13.307  12.990   8.260
    1HEX  H1G  19455  13.300  12.815   8.237
    1HEX  H1H  19456  12.877  12.985   8.166
    1HEX  H1I  19457  12.904  13.154   8.187
    1HEX  H1J  19458  13.021  13.204   8.431
    1HEX  H1K  19459  12.902  13.173   8.555
    1HEX  H1M  19460  12.782  13.583   8.391
    1HEX  H1N  19461  12.954  13.552   8.389
    1HEX  H1O  19462  12.965  13.632   8.637
    1HEX  H1P  19463  12.800  13.686   8.619
    1HEX  H1R  19464  12.673  13.076   8.306
    1HEX  H1S  19465  12.686  13.055   8.477
    1HEX  H1T  19466  12.814  12.666   8.200
    1HEX  H1U  19467  12.649  12.626   8.170
    1HEX  H1V  19468  12.681  12.472   8.343
    1HEX  H1W  19469  12.655  12.606   8.452
    1HEX  H1Y  19470  12.937  12.842   8.383
    1HEX  H1Z  19471  12.883  12.884   8.531
    1HEX  H20  19472  13.153  13.107   8.546
    1HEX  H21  19473  13.255  12.974   8.569
    1HEX  H22  19474  13.112  12.778   8.729
    1HEX  H23  19475  13.134  12.843   8.889
    1HEX  H24  19476  13.537  12.756   8.742
    1HEX  H25  19477  13.576  12.740   8.911
    1HEX  H26  19478  13.583  13.022   8.796
    1HEX  H27  19479  13.716  12.912   8.760
    1HEX  H29  19480  13.183  13.204   8.761
    1HEX  H2A  19481  13.310  13.088   8.791
    1HEX  H2B  19482  13.159  13.007   9.173
    1HEX  H2C  19483  13.084  13.165   9.170
    1HEX  H2D  19484  13.291  13.260   9.288
    1HEX  H2E  19485  13.353  13.096   9.300
    1HEX  H2G  19486  12.900  12.989   8.692
    1HEX  H2H  19487  12.955  13.137   8.755
    1HEX  H2I  19488  12.765  12.993   9.093
    1HEX  H2J  19489  12.692  12.838   9.060
    1HEX  H2K  19490  12.566  12.995   8.862
    1HEX  H2M  19491  12.580  13.108   8.996
    1STR  S00  19492  13.250  12.854   7.898
    1STR  S0E  19493  12.968  13.823   8.617
    1STR  S0M  19494  12.766  12.429   8.486
    1STR  S0X  19495  13.808  12.986   8.797
    1STR  S14  19496  13.187  13.145   9.462
    1STR  S1B  19497  12.420  13.054   8.897
    1HEX  C01  19498  13.331  12.935  12.376
    1HEX  C02  19499  13.284  12.935  12.523
    1HEX  C03  19500  13.132  12.927  12.529
    1HEX  O04  19501  13.073  12.824  12.499
    1HEX  O05  19502  13.077  13.043  12.570
    1HEX  C06  19503  12.936  13.052  12.584
    1HEX  C07  19504  12.894  13.037  12.733
    1HEX  C08  19505  12.920  13.174  12.803
    1HEX  O09  19506  12.857  13.297  12.762
    1HEX  C0A  19507  12.838  13.395  12.858
    1HEX  O0B  19508  12.810  13.372  12.975
    1HEX  C0C  19509  12.859  13.539  12.809
    1HEX  C0D  19510  12.879  13.644  12.922
    1HEX  C0F  19511  12.744  12.990  12.741
    1HEX  O0G  19512  12.735  12.844  12.743
    1HEX  C0H  19513  12.727  12.774  12.628
    1HEX  O0I  19514  12.679  12.822  12.525
    1HEX  C0J  19515  12.785  12.628  12.622
    1HEX  C0K  19516  12.836  12.539  12.745
    1HEX  C0N  19517  12.972  12.919  12.804
    1HEX  O0O  19518  13.111  12.926  12.837
    1HEX  C0P  19519  13.163  13.010  12.939
    1HEX  C0Q  19520  13.123  12.995  13.090
    1HEX  C0R  19521  13.166  12.854  13.140
    1HEX  O0S  19522  13.308  12.834  13.125
    1HEX  C0T  19523  13.392  12.836  13.232
    1HEX  O0U  19524  13.358  12.853  13.349
    1HEX  C0V  19525  13.537  12.806  13.196
    1HEX  C0W  19526  13.634  12.927  13.196
    1HEX  C0Y  19527  13.205  13.103  13.166
    1HEX  O0Z  19528  13.165  13.099  13.302
    1HEX  C10  19529  13.245  13.136  13.401
    1HEX  O11  19530  13.356  13.187  13.391
    1HEX  C12  19531  13.177  13.106  13.534
    1HEX  C13  19532  13.257  13.139  13.661
    1HEX  C15  19533  12.972  13.026  13.118
    1HEX  O16  19534  12.918  12.995  13.247
    1HEX  C17  19535  12.822  12.902  13.259
    1HEX  O18  19536  12.801  12.810  13.180
    1HEX  C19  19537  12.733  12.922  13.382
    1HEX  C1A  19538  12.596  12.986  13.348
    1HEX  H1D  19539  13.273  12.864  12.317
    1HEX  H1E  19540  13.319  13.033  12.331
    1HEX  H1F  19541  13.318  13.024  12.575
    1HEX  H1G  19542  13.323  12.848  12.576
    1HEX  H1H  19543  12.886  12.979  12.519
    1HEX  H1I  19544  12.905  13.149  12.545
    1HEX  H1J  19545  13.024  13.199  12.787
    1HEX  H1K  19546  12.905  13.162  12.909
    1HEX  H1M  19547  12.777  13.569  12.744
    1HEX  H1N  19548  12.949  13.539  12.748
    1HEX  H1O  19549  12.955  13.614  12.994
    1HEX  H1P  19550  12.787  13.660  12.980
    1HEX  H1R  19551  12.684  13.036  12.662
    1HEX  H1S  19552  12.699  13.028  12.834
    1HEX  H1T  19553  12.869  12.640  12.553
    1HEX  H1U  19554  12.710  12.573  12.565
    1HEX  H1V  19555  12.818  12.434  12.722
    1HEX  H1W  19556  12.779  12.562  12.835
    1HEX  H1Y  19557  12.972  12.836  12.732
    1HEX  H1Z  19558  12.917  12.873  12.885
    1HEX  H20  19559  13.161  13.114  12.909
    1HEX  H21  19560  13.269  12.986  12.933
    1HEX  H22  19561  13.114  12.777  13.083
    1HEX  H23  19562  13.134  12.840  13.243
    1HEX  H24  19563  13.538  12.756  13.099
    1HEX  H25  19564  13.573  12.732  13.268
    1HEX  H26  19565  13.592  13.013  13.143
    1HEX  H27  19566  13.729  12.902  13.149
    1HEX  H29  19567  13.185  13.203  13.126
    1HEX  H2A  19568  13.312  13.087  13.156
    1HEX  H2B  19569  13.153  13.000  13.532
    1HEX  H2C  19570  13.082  13.160  13.534
    1HEX  H2D  19571  13.293  13.241  13.658
    1HEX  H2E  19572  13.345  13.074  13.669
    1HEX  H2G  19573  12.904  12.985  13.045
    1HEX  H2H  19574  12.957  13.134  13.110
    1HEX  H2I  19575  12.788  12.980  13.456
    1HEX  H2J  19576  12.717  12.823  13.425
    1HEX  H2K  19577  12.572  12.982  13.242
    1HEX  H2M  19578  12.593  13.091  13.377
    1STR  S00  19579  13.259  13.038  12.245
    1STR  S0E  19580  12.955  13.804  12.970
    1STR  S0M  19581  12.933  12.394  12.827
    1STR  S0X  19582  13.808  12.977  13.160
    1STR  S14  19583  13.187  13.104  13.827
    1STR  S1B  19584  12.429  13.007  13.278
   17.44000    17.44000    17.44000
