; Acetylcholine cation, from raw/ACCH.itp (LigParGen OPLS-AA,
; plain 1.14*CM1A -- LBCC is defined for neutral molecules only).
; Types renamed with the 'ac' prefix to keep LigParGen's
; per-submission opls_8xx namespace from colliding with the
; polymer templates'. Charges corrected by +0.000008 e/atom to sum to exactly +1.
; Charges are the provisional part: RESP charges from the DFT
; project replace this column when they are handed over.
; apply_charges.py neutralize -- 2026-09-05T09:29:28+09:00
; source itp: ACC.itp sha256 2faa0ddd78352bf0089a082468acdc29ba5efe0f579b2e82460cdfae0fa73fe2
; target total +1 e; before +1.000008, after +1.000000 (exact at 6 decimals)
; neutralization rule heavy: 10 atom(s) adjusted, max |dq| over all atoms 0.000001 e
; adjustments: 10 atom(s) -0.000001 each; C00 +0.000001
; apply_charges.py scale x0.69 -- 2026-09-05T09:34:48+09:00
; source itp: ACC.itp sha256 07001f5769c99f9bacf861e0481c23f4cb8a5aab5cc684fa9efa637d3998d507
; ion charge scaling factor 0.69: formal +1 e -> +0.690000 e
; moleculetype ACC -> ACC_f069 (a variant must not share the original's name in the include path)
; target total +0 e; before +1.000000, after +0.690000 (exact at 6 decimals)
; neutralization rule heavy: 10 atom(s) adjusted, max |dq| over all atoms 0.123129 e
; adjustments: 10 atom(s) -0.000001 each; C00 +0.000000
[ moleculetype ]
  ACC_f069  3

[ atoms ]
     1  ac800       1  ACC   C00       1  -0.155313  12.0110
     2  ac801       1  ACC   C01       2   0.265240  12.0110
     3  ac802       1  ACC   O02       3  -0.274064  15.9990
     4  ac803       1  ACC   O03       4  -0.200303  15.9990
     5  ac804       1  ACC   C04       5  -0.003653  12.0110
     6  ac805       1  ACC   C05       6  -0.087074  12.0110
     7  ac806       1  ACC   N06       7  -0.029666  14.0070
     8  ac807       1  ACC   C07       8  -0.105290  12.0110
     9  ac808       1  ACC   C08       9  -0.103565  12.0110
    10  ac809       1  ACC   C09      10  -0.104048  12.0110
    11  ac810       1  ACC   H0A      11   0.089499  1.0080
    12  ac811       1  ACC   H0B      12   0.089499  1.0080
    13  ac812       1  ACC   H0C      13   0.089499  1.0080
    14  ac813       1  ACC   H0D      14   0.082599  1.0080
    15  ac814       1  ACC   H0E      15   0.082599  1.0080
    16  ac815       1  ACC   H0F      16   0.100677  1.0080
    17  ac816       1  ACC   H0G      17   0.100677  1.0080
    18  ac817       1  ACC   H0H      18   0.093915  1.0080
    19  ac818       1  ACC   H0I      19   0.093915  1.0080
    20  ac819       1  ACC   H0J      20   0.093915  1.0080
    21  ac820       1  ACC   H0K      21   0.095502  1.0080
    22  ac821       1  ACC   H0M      22   0.095502  1.0080
    23  ac822       1  ACC   H0N      23   0.095502  1.0080
    24  ac823       1  ACC   H0O      24   0.094812  1.0080
    25  ac824       1  ACC   H0P      25   0.094812  1.0080
    26  ac825       1  ACC   H0Q      26   0.094812  1.0080

[ bonds ]
  2  1   1  0.1522  265265.600
  3  2   1  0.1229  476976.000
  4  2   1  0.1327  179075.200
  5  4   1  0.1410  267776.000
  6  5   1  0.1529  224262.400
  7  6   1  0.1471  307105.600
  8  7   1  0.1471  307105.600
  9  7   1  0.1471  307105.600
  10  7   1  0.1471  307105.600
  11  1   1  0.1090  284512.000
  12  1   1  0.1090  284512.000
  13  1   1  0.1090  284512.000
  14  5   1  0.1090  284512.000
  15  5   1  0.1090  284512.000
  16  6   1  0.1090  284512.000
  17  6   1  0.1090  284512.000
  18  8   1  0.1090  284512.000
  19  8   1  0.1090  284512.000
  20  8   1  0.1090  284512.000
  21  9   1  0.1090  284512.000
  22  9   1  0.1090  284512.000
  23  9   1  0.1090  284512.000
  24  10   1  0.1090  284512.000
  25  10   1  0.1090  284512.000
  26  10   1  0.1090  284512.000

[ angles ]
  1  2  3   1  120.400  669.440
  1  2  4   1  111.400  677.808
  2  4  5   1  116.900  694.544
  4  5  6   1  109.500  418.400
  5  6  7   1  111.200  669.440
  6  7  8   1  113.000  418.400
  6  7  9   1  113.000  418.400
  6  7  10   1  113.000  418.400
  2  1  11   1  109.500  292.880
  2  1  12   1  109.500  292.880
  2  1  13   1  109.500  292.880
  4  5  14   1  109.500  292.880
  4  5  15   1  109.500  292.880
  5  6  16   1  110.700  313.800
  5  6  17   1  110.700  313.800
  7  8  18   1  109.500  292.880
  7  8  19   1  109.500  292.880
  7  8  20   1  109.500  292.880
  7  9  21   1  109.500  292.880
  7  9  22   1  109.500  292.880
  7  9  23   1  109.500  292.880
  7  10  24   1  109.500  292.880
  7  10  25   1  109.500  292.880
  7  10  26   1  109.500  292.880
  7  6  17   1  109.500  292.880
  21  9  23   1  107.800  276.144
  9  7  10   1  113.000  418.400
  11  1  13   1  107.800  276.144
  18  8  19   1  107.800  276.144
  8  7  10   1  113.000  418.400
  25  10  26   1  107.800  276.144
  6  5  14   1  110.700  313.800
  16  6  17   1  107.800  276.144
  18  8  20   1  107.800  276.144
  8  7  9   1  113.000  418.400
  14  5  15   1  107.800  276.144
  22  9  23   1  107.800  276.144
  19  8  20   1  107.800  276.144
  24  10  25   1  107.800  276.144
  6  5  15   1  110.700  313.800
  21  9  22   1  107.800  276.144
  11  1  12   1  107.800  276.144
  12  1  13   1  107.800  276.144
  3  2  4   1  123.400  694.544
  7  6  16   1  109.500  292.880
  24  10  26   1  107.800  276.144

[ dihedrals ]
  4  2  1  3   4  180.000  43.932  2
  6  5  4  2   3  -2.197  5.201  0.527  -3.531  -0.000  0.000
  9  7  6  5   3  3.042  -1.351  0.519  -2.209  -0.000  0.000
  10  7  6  5   3  3.042  -1.351  0.519  -2.209  -0.000  0.000
  8  7  6  5   3  3.042  -1.351  0.519  -2.209  -0.000  0.000
  5  4  2  1   3  31.206  -9.768  -21.439  -0.000  -0.000  0.000
  5  4  2  3   3  21.439  0.000  -21.439  -0.000  -0.000  0.000
  13  1  2  3   3  0.000  0.000  0.000  -0.000  -0.000  0.000
  12  1  2  3   3  0.000  0.000  0.000  -0.000  -0.000  0.000
  11  1  2  3   3  0.000  0.000  0.000  -0.000  -0.000  0.000
  13  1  2  4   3  0.276  0.828  0.000  -1.105  -0.000  0.000
  12  1  2  4   3  0.276  0.828  0.000  -1.105  -0.000  0.000
  11  1  2  4   3  0.276  0.828  0.000  -1.105  -0.000  0.000
  17  6  5  15   3  0.628  1.883  0.000  -2.510  -0.000  0.000
  17  6  5  14   3  0.628  1.883  0.000  -2.510  -0.000  0.000
  16  6  5  15   3  0.628  1.883  0.000  -2.510  -0.000  0.000
  16  6  5  14   3  0.628  1.883  0.000  -2.510  -0.000  0.000
  14  5  6  7   3  0.803  2.410  0.000  -3.213  -0.000  0.000
  15  5  6  7   3  0.803  2.410  0.000  -3.213  -0.000  0.000
  16  6  5  4   3  0.979  2.937  0.000  -3.916  -0.000  0.000
  17  6  5  4   3  0.979  2.937  0.000  -3.916  -0.000  0.000
  23  9  7  8   3  0.632  1.895  0.000  -2.527  -0.000  0.000
  25  10  7  6   3  0.632  1.895  0.000  -2.527  -0.000  0.000
  20  8  7  9   3  0.632  1.895  0.000  -2.527  -0.000  0.000
  16  6  7  8   3  0.632  1.895  0.000  -2.527  -0.000  0.000
  20  8  7  6   3  0.632  1.895  0.000  -2.527  -0.000  0.000
  24  10  7  9   3  0.632  1.895  0.000  -2.527  -0.000  0.000
  25  10  7  9   3  0.632  1.895  0.000  -2.527  -0.000  0.000
  20  8  7  10   3  0.632  1.895  0.000  -2.527  -0.000  0.000
  16  6  7  10   3  0.632  1.895  0.000  -2.527  -0.000  0.000
  19  8  7  9   3  0.632  1.895  0.000  -2.527  -0.000  0.000
  18  8  7  10   3  0.632  1.895  0.000  -2.527  -0.000  0.000
  17  6  7  9   3  0.632  1.895  0.000  -2.527  -0.000  0.000
  21  9  7  8   3  0.632  1.895  0.000  -2.527  -0.000  0.000
  24  10  7  8   3  0.632  1.895  0.000  -2.527  -0.000  0.000
  23  9  7  6   3  0.632  1.895  0.000  -2.527  -0.000  0.000
  16  6  7  9   3  0.632  1.895  0.000  -2.527  -0.000  0.000
  17  6  7  10   3  0.632  1.895  0.000  -2.527  -0.000  0.000
  22  9  7  6   3  0.632  1.895  0.000  -2.527  -0.000  0.000
  17  6  7  8   3  0.632  1.895  0.000  -2.527  -0.000  0.000
  18  8  7  9   3  0.632  1.895  0.000  -2.527  -0.000  0.000
  22  9  7  8   3  0.632  1.895  0.000  -2.527  -0.000  0.000
  26  10  7  6   3  0.632  1.895  0.000  -2.527  -0.000  0.000
  18  8  7  6   3  0.632  1.895  0.000  -2.527  -0.000  0.000
  26  10  7  9   3  0.632  1.895  0.000  -2.527  -0.000  0.000
  22  9  7  10   3  0.632  1.895  0.000  -2.527  -0.000  0.000
  25  10  7  8   3  0.632  1.895  0.000  -2.527  -0.000  0.000
  26  10  7  8   3  0.632  1.895  0.000  -2.527  -0.000  0.000
  19  8  7  6   3  0.632  1.895  0.000  -2.527  -0.000  0.000
  21  9  7  10   3  0.632  1.895  0.000  -2.527  -0.000  0.000
  19  8  7  10   3  0.632  1.895  0.000  -2.527  -0.000  0.000
  23  9  7  10   3  0.632  1.895  0.000  -2.527  -0.000  0.000
  24  10  7  6   3  0.632  1.895  0.000  -2.527  -0.000  0.000
  21  9  7  6   3  0.632  1.895  0.000  -2.527  -0.000  0.000
  15  5  4  2   3  0.414  1.243  0.000  -1.657  -0.000  0.000
  14  5  4  2   3  0.414  1.243  0.000  -1.657  -0.000  0.000
  7  6  5  4   3  16.736  -16.736  0.000  -0.000  -0.000  0.000

[ pairs ]
  1  5   1
  3  5   1
  2  6   1
  4  7   1
  5  8   1
  5  9   1
  3  11   1
  5  10   1
  4  11   1
  3  12   1
  4  12   1
  3  13   1
  2  14   1
  4  13   1
  2  15   1
  4  16   1
  7  14   1
  4  17   1
  7  15   1
  8  16   1
  6  18   1
  9  16   1
  8  17   1
  6  19   1
  10  16   1
  9  17   1
  6  20   1
  10  17   1
  9  18   1
  6  21   1
  10  18   1
  9  19   1
  6  22   1
  10  19   1
  9  20   1
  8  21   1
  6  23   1
  14  16   1
  10  20   1
  8  22   1
  6  24   1
  15  16   1
  14  17   1
  10  21   1
  8  23   1
  6  25   1
  15  17   1
  10  22   1
  8  24   1
  6  26   1
  10  23   1
  9  24   1
  8  25   1
  9  25   1
  8  26   1
  9  26   1
