; Chloride ion. Parameters: GROMACS oplsaa.ff/ffnonbonded.itp opls_401
; A monatomic ion has no SMILES geometry to optimize, so
; LigParGen cannot produce it; the shipped OPLS-AA force field
; is the source instead.
; apply_charges.py neutralize -- 2026-09-05T09:29:28+09:00
; source itp: CL.itp sha256 bf055b239d3710601435f29851814387c65740fd3c034a88e1344f69cf1b95f3
; target total -1 e; before -1.000000, after -1.000000 (exact at 6 decimals)
; neutralization rule uniform: 0 atom(s) adjusted, max |dq| over all atoms 0.000000 e
; apply_charges.py scale x0.80 -- 2026-09-05T09:34:47+09:00
; source itp: CL.itp sha256 e668f414a36f6dc963a6a562400ab3d4980d0519f1f4fcef4361d2fc015dce76
; ion charge scaling factor 0.80: formal -1 e -> -0.800000 e
; moleculetype CL -> CL_f080 (a variant must not share the original's name in the include path)
; target total +0 e; before -1.000000, after -0.800000 (exact at 6 decimals)
; neutralization rule uniform: 0 atom(s) adjusted, max |dq| over all atoms 0.200000 e
[ moleculetype ]
  CL_f080  3

[ atoms ]
     1  desCL       1  CL    CL        1  -0.800000  35.4530
