; Assembled by build_templates.py -- OPLS-AA conventions.
[ defaults ]
; nbfunc  comb-rule  gen-pairs  fudgeLJ  fudgeQQ
  1  3  yes  0.5  0.5

[ atomtypes ]
; renamed per molecule (hx*/st*) so the two LigParGen 800-series
; namespaces cannot collide; lkS is the thiourethane sulfur (LNK).
  lkS        lkS        32.0600    0.000 A  3.60000E-01  1.77820E+00
  hx801      hxC801     12.0110    0.000 A  3.50000E-01  2.76144E-01
  hx802      hxC802     12.0110    0.000 A  3.50000E-01  2.76144E-01
  hx803      hxC803     12.0110    0.000 A  3.55000E-01  2.92880E-01
  hx804      hxO804     15.9990    0.000 A  2.96000E-01  8.78640E-01
  hx805      hxO805     15.9990    0.000 A  2.90000E-01  5.85760E-01
  hx806      hxC806     12.0110    0.000 A  3.50000E-01  2.76144E-01
  hx807      hxC807     12.0110    0.000 A  3.50000E-01  2.76144E-01
  hx808      hxC808     12.0110    0.000 A  3.50000E-01  2.76144E-01
  hx809      hxO809     15.9990    0.000 A  2.90000E-01  5.85760E-01
  hx810      hxC810     12.0110    0.000 A  3.55000E-01  2.92880E-01
  hx811      hxO811     15.9990    0.000 A  2.96000E-01  8.78640E-01
  hx812      hxC812     12.0110    0.000 A  3.50000E-01  2.76144E-01
  hx813      hxC813     12.0110    0.000 A  3.50000E-01  2.76144E-01
  hx815      hxC815     12.0110    0.000 A  3.50000E-01  2.76144E-01
  hx816      hxO816     15.9990    0.000 A  2.90000E-01  5.85760E-01
  hx817      hxC817     12.0110    0.000 A  3.55000E-01  2.92880E-01
  hx818      hxO818     15.9990    0.000 A  2.96000E-01  8.78640E-01
  hx819      hxC819     12.0110    0.000 A  3.50000E-01  2.76144E-01
  hx820      hxC820     12.0110    0.000 A  3.50000E-01  2.76144E-01
  hx822      hxC822     12.0110    0.000 A  3.50000E-01  2.76144E-01
  hx823      hxO823     15.9990    0.000 A  2.90000E-01  5.85760E-01
  hx824      hxC824     12.0110    0.000 A  3.50000E-01  2.76144E-01
  hx825      hxC825     12.0110    0.000 A  3.50000E-01  2.76144E-01
  hx826      hxC826     12.0110    0.000 A  3.50000E-01  2.76144E-01
  hx827      hxO827     15.9990    0.000 A  2.90000E-01  5.85760E-01
  hx828      hxC828     12.0110    0.000 A  3.55000E-01  2.92880E-01
  hx829      hxO829     15.9990    0.000 A  2.96000E-01  8.78640E-01
  hx830      hxC830     12.0110    0.000 A  3.50000E-01  2.76144E-01
  hx831      hxC831     12.0110    0.000 A  3.50000E-01  2.76144E-01
  hx833      hxC833     12.0110    0.000 A  3.50000E-01  2.76144E-01
  hx834      hxO834     15.9990    0.000 A  2.90000E-01  5.85760E-01
  hx835      hxC835     12.0110    0.000 A  3.55000E-01  2.92880E-01
  hx836      hxO836     15.9990    0.000 A  2.96000E-01  8.78640E-01
  hx837      hxC837     12.0110    0.000 A  3.50000E-01  2.76144E-01
  hx838      hxC838     12.0110    0.000 A  3.50000E-01  2.76144E-01
  hx840      hxC840     12.0110    0.000 A  3.50000E-01  2.76144E-01
  hx841      hxO841     15.9990    0.000 A  2.90000E-01  5.85760E-01
  hx842      hxC842     12.0110    0.000 A  3.55000E-01  2.92880E-01
  hx843      hxO843     15.9990    0.000 A  2.96000E-01  8.78640E-01
  hx844      hxC844     12.0110    0.000 A  3.50000E-01  2.76144E-01
  hx845      hxC845     12.0110    0.000 A  3.50000E-01  2.76144E-01
  hx848      hxH848      1.0080    0.000 A  2.50000E-01  1.25520E-01
  hx849      hxH849      1.0080    0.000 A  2.50000E-01  1.25520E-01
  hx850      hxH850      1.0080    0.000 A  2.50000E-01  1.25520E-01
  hx851      hxH851      1.0080    0.000 A  2.50000E-01  1.25520E-01
  hx852      hxH852      1.0080    0.000 A  2.50000E-01  1.25520E-01
  hx853      hxH853      1.0080    0.000 A  2.50000E-01  1.25520E-01
  hx854      hxH854      1.0080    0.000 A  2.50000E-01  1.25520E-01
  hx855      hxH855      1.0080    0.000 A  2.50000E-01  1.25520E-01
  hx856      hxH856      1.0080    0.000 A  2.50000E-01  1.25520E-01
  hx857      hxH857      1.0080    0.000 A  2.50000E-01  1.25520E-01
  hx858      hxH858      1.0080    0.000 A  2.50000E-01  1.25520E-01
  hx859      hxH859      1.0080    0.000 A  2.50000E-01  1.25520E-01
  hx861      hxH861      1.0080    0.000 A  2.50000E-01  1.25520E-01
  hx862      hxH862      1.0080    0.000 A  2.50000E-01  1.25520E-01
  hx863      hxH863      1.0080    0.000 A  2.50000E-01  1.25520E-01
  hx864      hxH864      1.0080    0.000 A  2.50000E-01  1.25520E-01
  hx865      hxH865      1.0080    0.000 A  2.50000E-01  1.25520E-01
  hx866      hxH866      1.0080    0.000 A  2.50000E-01  1.25520E-01
  hx868      hxH868      1.0080    0.000 A  2.50000E-01  1.25520E-01
  hx869      hxH869      1.0080    0.000 A  2.50000E-01  1.25520E-01
  hx870      hxH870      1.0080    0.000 A  2.50000E-01  1.25520E-01
  hx871      hxH871      1.0080    0.000 A  2.50000E-01  1.25520E-01
  hx872      hxH872      1.0080    0.000 A  2.50000E-01  1.25520E-01
  hx873      hxH873      1.0080    0.000 A  2.50000E-01  1.25520E-01
  hx874      hxH874      1.0080    0.000 A  2.50000E-01  1.25520E-01
  hx875      hxH875      1.0080    0.000 A  2.50000E-01  1.25520E-01
  hx876      hxH876      1.0080    0.000 A  2.50000E-01  1.25520E-01
  hx877      hxH877      1.0080    0.000 A  2.50000E-01  1.25520E-01
  hx879      hxH879      1.0080    0.000 A  2.50000E-01  1.25520E-01
  hx880      hxH880      1.0080    0.000 A  2.50000E-01  1.25520E-01
  hx881      hxH881      1.0080    0.000 A  2.50000E-01  1.25520E-01
  hx882      hxH882      1.0080    0.000 A  2.50000E-01  1.25520E-01
  hx883      hxH883      1.0080    0.000 A  2.50000E-01  1.25520E-01
  hx884      hxH884      1.0080    0.000 A  2.50000E-01  1.25520E-01
  hx886      hxH886      1.0080    0.000 A  2.50000E-01  1.25520E-01
  hx887      hxH887      1.0080    0.000 A  2.50000E-01  1.25520E-01
  hx888      hxH888      1.0080    0.000 A  2.50000E-01  1.25520E-01
  hx889      hxH889      1.0080    0.000 A  2.50000E-01  1.25520E-01
  hx890      hxH890      1.0080    0.000 A  2.50000E-01  1.25520E-01
  hx891      hxH891      1.0080    0.000 A  2.50000E-01  1.25520E-01
  st802      stC802     12.0110    0.000 A  3.55000E-01  2.92880E-01
  st803      stO803     15.9990    0.000 A  2.96000E-01  8.78640E-01
  st804      stN804     14.0070    0.000 A  3.25000E-01  7.11280E-01
  st805      stC805     12.0110    0.000 A  3.55000E-01  2.92880E-01
  st806      stC806     12.0110    0.000 A  3.55000E-01  2.92880E-01
  st807      stC807     12.0110    0.000 A  3.55000E-01  2.92880E-01
  st808      stN808     14.0070    0.000 A  3.25000E-01  7.11280E-01
  st809      stC809     12.0110    0.000 A  3.55000E-01  2.92880E-01
  st810      stO810     15.9990    0.000 A  2.96000E-01  8.78640E-01
  st811      stO811     15.9990    0.000 A  2.90000E-01  5.85760E-01
  st812      stC812     12.0110    0.000 A  3.50000E-01  2.76144E-01
  st813      stC813     12.0110    0.000 A  3.50000E-01  2.76144E-01
  st814      stC814     12.0110    0.000 A  3.50000E-01  2.76144E-01
  st815      stO815     15.9990    0.000 A  2.90000E-01  5.85760E-01
  st816      stC816     12.0110    0.000 A  3.50000E-01  2.76144E-01
  st817      stC817     12.0110    0.000 A  3.50000E-01  2.76144E-01
  st818      stC818     12.0110    0.000 A  3.50000E-01  2.76144E-01
  st819      stO819     15.9990    0.000 A  2.90000E-01  5.85760E-01
  st820      stC820     12.0110    0.000 A  3.50000E-01  2.76144E-01
  st821      stC821     12.0110    0.000 A  3.50000E-01  2.76144E-01
  st822      stC822     12.0110    0.000 A  3.50000E-01  2.76144E-01
  st823      stO823     15.9990    0.000 A  2.90000E-01  5.85760E-01
  st824      stC824     12.0110    0.000 A  3.55000E-01  2.92880E-01
  st825      stO825     15.9990    0.000 A  2.96000E-01  8.78640E-01
  st826      stN826     14.0070    0.000 A  3.25000E-01  7.11280E-01
  st827      stC827     12.0110    0.000 A  3.55000E-01  2.92880E-01
  st828      stC828     12.0110    0.000 A  3.55000E-01  2.92880E-01
  st829      stC829     12.0110    0.000 A  3.55000E-01  2.92880E-01
  st830      stC830     12.0110    0.000 A  3.55000E-01  2.92880E-01
  st831      stC831     12.0110    0.000 A  3.50000E-01  2.76144E-01
  st832      stC832     12.0110    0.000 A  3.55000E-01  2.92880E-01
  st833      stN833     14.0070    0.000 A  3.25000E-01  7.11280E-01
  st834      stC834     12.0110    0.000 A  3.55000E-01  2.92880E-01
  st835      stO835     15.9990    0.000 A  2.96000E-01  8.78640E-01
  st838      stC838     12.0110    0.000 A  3.55000E-01  2.92880E-01
  st839      stC839     12.0110    0.000 A  3.55000E-01  2.92880E-01
  st840      stC840     12.0110    0.000 A  3.55000E-01  2.92880E-01
  st841      stC841     12.0110    0.000 A  3.55000E-01  2.92880E-01
  st842      stC842     12.0110    0.000 A  3.50000E-01  2.76144E-01
  st846      stH846      1.0080    0.000 A  0.00000E+00  0.00000E+00
  st847      stH847      1.0080    0.000 A  2.42000E-01  1.25520E-01
  st848      stH848      1.0080    0.000 A  0.00000E+00  0.00000E+00
  st849      stH849      1.0080    0.000 A  2.50000E-01  1.25520E-01
  st850      stH850      1.0080    0.000 A  2.50000E-01  1.25520E-01
  st851      stH851      1.0080    0.000 A  2.50000E-01  1.25520E-01
  st852      stH852      1.0080    0.000 A  2.50000E-01  1.25520E-01
  st853      stH853      1.0080    0.000 A  2.50000E-01  1.25520E-01
  st854      stH854      1.0080    0.000 A  2.50000E-01  1.25520E-01
  st855      stH855      1.0080    0.000 A  2.50000E-01  1.25520E-01
  st856      stH856      1.0080    0.000 A  2.50000E-01  1.25520E-01
  st857      stH857      1.0080    0.000 A  2.50000E-01  1.25520E-01
  st858      stH858      1.0080    0.000 A  2.50000E-01  1.25520E-01
  st859      stH859      1.0080    0.000 A  2.50000E-01  1.25520E-01
  st860      stH860      1.0080    0.000 A  2.50000E-01  1.25520E-01
  st861      stH861      1.0080    0.000 A  2.50000E-01  1.25520E-01
  st862      stH862      1.0080    0.000 A  2.50000E-01  1.25520E-01
  st863      stH863      1.0080    0.000 A  2.50000E-01  1.25520E-01
  st864      stH864      1.0080    0.000 A  2.50000E-01  1.25520E-01
  st865      stH865      1.0080    0.000 A  2.50000E-01  1.25520E-01
  st866      stH866      1.0080    0.000 A  2.50000E-01  1.25520E-01
  st867      stH867      1.0080    0.000 A  0.00000E+00  0.00000E+00
  st868      stH868      1.0080    0.000 A  2.42000E-01  1.25520E-01
  st869      stH869      1.0080    0.000 A  2.42000E-01  1.25520E-01
  st870      stH870      1.0080    0.000 A  2.50000E-01  1.25520E-01
  st871      stH871      1.0080    0.000 A  2.50000E-01  1.25520E-01
  st872      stH872      1.0080    0.000 A  2.50000E-01  1.25520E-01
  st873      stH873      1.0080    0.000 A  0.00000E+00  0.00000E+00
  st877      stH877      1.0080    0.000 A  2.42000E-01  1.25520E-01
  st878      stH878      1.0080    0.000 A  2.42000E-01  1.25520E-01
  st879      stH879      1.0080    0.000 A  2.42000E-01  1.25520E-01
  st880      stH880      1.0080    0.000 A  2.50000E-01  1.25520E-01
  st881      stH881      1.0080    0.000 A  2.50000E-01  1.25520E-01
  st882      stH882      1.0080    0.000 A  2.50000E-01  1.25520E-01

[ angletypes ]
; (1) angles crossing the builder-formed S-C bond, from LNK;
; (2) junction-internal angles touching a stub sulfur, from HEX
;     (the linker loader keeps stub atoms out of template angles,
;      so these arrive parameterless and resolve here).
  hxC801   lkS      stC802    1    105.500     561.660
  hxC801   lkS      stC834    1    105.500     561.660
  hxC813   lkS      stC802    1    105.500     561.660
  hxC813   lkS      stC834    1    105.500     561.660
  hxC820   lkS      stC802    1    105.500     561.660
  hxC820   lkS      stC834    1    105.500     561.660
  hxC831   lkS      stC802    1    105.500     561.660
  hxC831   lkS      stC834    1    105.500     561.660
  hxC838   lkS      stC802    1    105.500     561.660
  hxC838   lkS      stC834    1    105.500     561.660
  hxC845   lkS      stC802    1    105.500     561.660
  hxC845   lkS      stC834    1    105.500     561.660
  lkS      stC802   stO803    1    118.180     584.923
  lkS      stC802   stN804    1    118.180     584.923
  lkS      stC834   stO835    1    118.180     584.923
  lkS      stC834   stN833    1    118.180     584.923
  lkS      hxC801   hxC802    1    108.600     418.400
  hxC812   hxC813   lkS       1    108.600     418.400
  hxC819   hxC820   lkS       1    108.600     418.400
  hxC830   hxC831   lkS       1    108.600     418.400
  hxC837   hxC838   lkS       1    108.600     418.400
  hxC844   hxC845   lkS       1    108.600     418.400
  lkS      hxC801   hxH848    1    109.500     292.880
  lkS      hxC801   hxH849    1    109.500     292.880
  lkS      hxC813   hxH859    1    109.500     292.880
  lkS      hxC838   hxH883    1    109.500     292.880
  lkS      hxC813   hxH858    1    109.500     292.880
  lkS      hxC831   hxH877    1    109.500     292.880
  lkS      hxC831   hxH876    1    109.500     292.880
  lkS      hxC838   hxH884    1    109.500     292.880
  lkS      hxC820   hxH865    1    109.500     292.880
  lkS      hxC845   hxH891    1    109.500     292.880
  lkS      hxC820   hxH866    1    109.500     292.880
  lkS      hxC845   hxH890    1    109.500     292.880

[ dihedraltypes ]
; every proper torsion crossing the builder-formed S-C bond;
; Ryckaert-Bellemans coefficients from LNK. The carbonyl
; planarity improper N-C-S=O cannot cross the junction and is
; a documented loss.
  hxH849   hxC801   lkS      stC802    3     1.354     4.061     0.000    -5.414     0.000     0.000
  hxH848   hxC801   lkS      stC802    3     1.354     4.061     0.000    -5.414     0.000     0.000
  hxC802   hxC801   lkS      stC802    3     0.941     2.314     2.410    -5.665     0.000     0.000
  hxC801   lkS      stC802   stO803    3    25.476     0.000   -25.476     0.000     0.000     0.000
  hxC801   lkS      stC802   stN804    3     9.623    -9.623     0.000     0.000     0.000     0.000
  hxH849   hxC801   lkS      stC834    3     1.354     4.061     0.000    -5.414     0.000     0.000
  hxH848   hxC801   lkS      stC834    3     1.354     4.061     0.000    -5.414     0.000     0.000
  hxC802   hxC801   lkS      stC834    3     0.941     2.314     2.410    -5.665     0.000     0.000
  hxC801   lkS      stC834   stO835    3    25.476     0.000   -25.476     0.000     0.000     0.000
  hxC801   lkS      stC834   stN833    3     9.623    -9.623     0.000     0.000     0.000     0.000
  hxH858   hxC813   lkS      stC802    3     1.354     4.061     0.000    -5.414     0.000     0.000
  hxH859   hxC813   lkS      stC802    3     1.354     4.061     0.000    -5.414     0.000     0.000
  hxC812   hxC813   lkS      stC802    3     0.941     2.314     2.410    -5.665     0.000     0.000
  hxC813   lkS      stC802   stO803    3    25.476     0.000   -25.476     0.000     0.000     0.000
  hxC813   lkS      stC802   stN804    3     9.623    -9.623     0.000     0.000     0.000     0.000
  hxH858   hxC813   lkS      stC834    3     1.354     4.061     0.000    -5.414     0.000     0.000
  hxH859   hxC813   lkS      stC834    3     1.354     4.061     0.000    -5.414     0.000     0.000
  hxC812   hxC813   lkS      stC834    3     0.941     2.314     2.410    -5.665     0.000     0.000
  hxC813   lkS      stC834   stO835    3    25.476     0.000   -25.476     0.000     0.000     0.000
  hxC813   lkS      stC834   stN833    3     9.623    -9.623     0.000     0.000     0.000     0.000
  hxH865   hxC820   lkS      stC802    3     1.354     4.061     0.000    -5.414     0.000     0.000
  hxH866   hxC820   lkS      stC802    3     1.354     4.061     0.000    -5.414     0.000     0.000
  hxC819   hxC820   lkS      stC802    3     0.941     2.314     2.410    -5.665     0.000     0.000
  hxC820   lkS      stC802   stO803    3    25.476     0.000   -25.476     0.000     0.000     0.000
  hxC820   lkS      stC802   stN804    3     9.623    -9.623     0.000     0.000     0.000     0.000
  hxH865   hxC820   lkS      stC834    3     1.354     4.061     0.000    -5.414     0.000     0.000
  hxH866   hxC820   lkS      stC834    3     1.354     4.061     0.000    -5.414     0.000     0.000
  hxC819   hxC820   lkS      stC834    3     0.941     2.314     2.410    -5.665     0.000     0.000
  hxC820   lkS      stC834   stO835    3    25.476     0.000   -25.476     0.000     0.000     0.000
  hxC820   lkS      stC834   stN833    3     9.623    -9.623     0.000     0.000     0.000     0.000
  hxH876   hxC831   lkS      stC802    3     1.354     4.061     0.000    -5.414     0.000     0.000
  hxH877   hxC831   lkS      stC802    3     1.354     4.061     0.000    -5.414     0.000     0.000
  hxC830   hxC831   lkS      stC802    3     0.941     2.314     2.410    -5.665     0.000     0.000
  hxC831   lkS      stC802   stO803    3    25.476     0.000   -25.476     0.000     0.000     0.000
  hxC831   lkS      stC802   stN804    3     9.623    -9.623     0.000     0.000     0.000     0.000
  hxH876   hxC831   lkS      stC834    3     1.354     4.061     0.000    -5.414     0.000     0.000
  hxH877   hxC831   lkS      stC834    3     1.354     4.061     0.000    -5.414     0.000     0.000
  hxC830   hxC831   lkS      stC834    3     0.941     2.314     2.410    -5.665     0.000     0.000
  hxC831   lkS      stC834   stO835    3    25.476     0.000   -25.476     0.000     0.000     0.000
  hxC831   lkS      stC834   stN833    3     9.623    -9.623     0.000     0.000     0.000     0.000
  hxH883   hxC838   lkS      stC802    3     1.354     4.061     0.000    -5.414     0.000     0.000
  hxH884   hxC838   lkS      stC802    3     1.354     4.061     0.000    -5.414     0.000     0.000
  hxC837   hxC838   lkS      stC802    3     0.941     2.314     2.410    -5.665     0.000     0.000
  hxC838   lkS      stC802   stO803    3    25.476     0.000   -25.476     0.000     0.000     0.000
  hxC838   lkS      stC802   stN804    3     9.623    -9.623     0.000     0.000     0.000     0.000
  hxH883   hxC838   lkS      stC834    3     1.354     4.061     0.000    -5.414     0.000     0.000
  hxH884   hxC838   lkS      stC834    3     1.354     4.061     0.000    -5.414     0.000     0.000
  hxC837   hxC838   lkS      stC834    3     0.941     2.314     2.410    -5.665     0.000     0.000
  hxC838   lkS      stC834   stO835    3    25.476     0.000   -25.476     0.000     0.000     0.000
  hxC838   lkS      stC834   stN833    3     9.623    -9.623     0.000     0.000     0.000     0.000
  hxH890   hxC845   lkS      stC802    3     1.354     4.061     0.000    -5.414     0.000     0.000
  hxH891   hxC845   lkS      stC802    3     1.354     4.061     0.000    -5.414     0.000     0.000
  hxC844   hxC845   lkS      stC802    3     0.941     2.314     2.410    -5.665     0.000     0.000
  hxC845   lkS      stC802   stO803    3    25.476     0.000   -25.476     0.000     0.000     0.000
  hxC845   lkS      stC802   stN804    3     9.623    -9.623     0.000     0.000     0.000     0.000
  hxH890   hxC845   lkS      stC834    3     1.354     4.061     0.000    -5.414     0.000     0.000
  hxH891   hxC845   lkS      stC834    3     1.354     4.061     0.000    -5.414     0.000     0.000
  hxC844   hxC845   lkS      stC834    3     0.941     2.314     2.410    -5.665     0.000     0.000
  hxC845   lkS      stC834   stO835    3    25.476     0.000   -25.476     0.000     0.000     0.000
  hxC845   lkS      stC834   stN833    3     9.623    -9.623     0.000     0.000     0.000     0.000
  lkS      stC802   stN804   stC805    3    27.196     0.000   -27.196     0.000     0.000     0.000
  lkS      stC802   stN804   stH846    3    19.456     1.464   -20.920     0.000     0.000     0.000
  lkS      stC834   stN833   stC832    3    27.196     0.000   -27.196     0.000     0.000     0.000
  lkS      stC834   stN833   stH873    3    19.456     1.464   -20.920     0.000     0.000     0.000
