HEXR template (build_templates.py)
87
    1BCK    S00    1   0.100   0.100   0.000
    1HEX    C01    2  -0.081   0.100   0.000
    1HEX    C02    3  -0.135   0.100   0.142
    1HEX    C03    4  -0.285   0.100   0.134
    1HEX    O04    5  -0.351   0.007   0.089
    1HEX    O05    6  -0.337   0.217   0.183
    1HEX    C06    7  -0.481   0.226   0.186
    1HEX    C07    8  -0.533   0.219   0.331
    1HEX    C08    9  -0.492   0.348   0.403
    1HEX    O09   10  -0.545   0.470   0.350
    1HEX    C0A   11  -0.604   0.549   0.445
    1HEX    O0B   12  -0.663   0.507   0.543
    1HEX    C0C   13  -0.575   0.694   0.417
    1HEX    C0D   14  -0.582   0.772   0.548
    1BCK    S0E   15  -0.547   0.948   0.520
    1HEX    C0F   16  -0.688   0.216   0.339
    1HEX    O0G   17  -0.740   0.098   0.278
    1HEX    C0H   18  -0.769   0.110   0.145
    1HEX    O0I   19  -0.777   0.216   0.085
    1HEX    C0J   20  -0.769  -0.025   0.082
    1HEX    C0K   21  -0.888  -0.105   0.132
    1BCK    S0M   22  -0.889  -0.269   0.056
    1HEX    C0N   23  -0.482   0.085   0.393
    1HEX    O0O   24  -0.344   0.067   0.425
    1HEX    C0P   25  -0.274   0.153   0.512
    1HEX    C0Q   26  -0.315   0.158   0.662
    1HEX    C0R   27  -0.274   0.024   0.725
    1HEX    O0S   28  -0.132   0.002   0.716
    1HEX    C0T   29  -0.064  -0.009   0.833
    1HEX    O0U   30  -0.114   0.006   0.944
    1HEX    C0V   31   0.082  -0.034   0.808
    1HEX    C0W   32   0.162   0.094   0.803
    1BCK    S0X   33   0.192   0.163   0.968
    1HEX    C0Y   34  -0.235   0.276   0.724
    1HEX    O0Z   35  -0.269   0.284   0.863
    1HEX    C10   36  -0.170   0.311   0.950
    1HEX    O11   37  -0.058   0.345   0.916
    1HEX    C12   38  -0.219   0.293   1.090
    1HEX    C13   39  -0.110   0.341   1.185
    1BCK    S14   40  -0.168   0.340   1.357
    1HEX    C15   41  -0.463   0.188   0.693
    1HEX    O16   42  -0.497   0.173   0.831
    1HEX    C17   43  -0.560   0.060   0.869
    1HEX    O18   44  -0.577  -0.039   0.799
    1HEX    C19   45  -0.605   0.076   1.011
    1HEX    C1A   46  -0.686   0.205   1.020
    1BCK    S1B   47  -0.753   0.227   1.187
    1HEX    H1D   48  -0.116   0.012  -0.055
    1HEX    H1E   49  -0.116   0.189  -0.054
    1HEX    H1F   50  -0.101   0.188   0.198
    1HEX    H1G   51  -0.104   0.011   0.198
    1HEX    H1H   52  -0.524   0.147   0.124
    1HEX    H1I   53  -0.508   0.321   0.139
    1HEX    H1J   54  -0.385   0.365   0.400
    1HEX    H1K   55  -0.522   0.338   0.506
    1HEX    H1M   56  -0.646   0.731   0.343
    1HEX    H1N   57  -0.473   0.701   0.377
    1HEX    H1O   58  -0.509   0.733   0.620
    1HEX    H1P   59  -0.681   0.763   0.593
    1HEX    H1R   60  -0.735   0.306   0.298
    1HEX    H1S   61  -0.719   0.212   0.444
    1HEX    H1T   62  -0.673  -0.073   0.106
    1HEX    H1U   63  -0.772  -0.011  -0.027
    1HEX    H1V   64  -0.981  -0.053   0.108
    1HEX    H1W   65  -0.883  -0.117   0.241
    1HEX    H1Y   66  -0.501   0.006   0.319
    1HEX    H1Z   67  -0.543   0.050   0.476
    1HEX    H20   68  -0.263   0.252   0.468
    1HEX    H21   69  -0.171   0.117   0.507
    1HEX    H22   70  -0.322  -0.059   0.670
    1HEX    H23   71  -0.307   0.016   0.829
    1HEX    H24   72   0.090  -0.088   0.713
    1HEX    H25   73   0.118  -0.104   0.885
    1HEX    H26   74   0.112   0.170   0.741
    1HEX    H27   75   0.260   0.074   0.759
    1HEX    H29   76  -0.265   0.371   0.678
    1HEX    H2A   77  -0.127   0.264   0.708
    1HEX    H2B   78  -0.241   0.187   1.106
    1HEX    H2C   79  -0.311   0.351   1.103
    1HEX    H2D   80  -0.079   0.442   1.159
    1HEX    H2E   81  -0.023   0.276   1.178
    1HEX    H2G   82  -0.536   0.134   0.635
    1HEX    H2H   83  -0.482   0.294   0.677
    1HEX    H2I   84  -0.516   0.079   1.074
    1HEX    H2J   85  -0.665  -0.011   1.037
    1HEX    H2K   86  -0.768   0.205   0.948
    1HEX    H2M   87  -0.624   0.293   0.998
  10.00000  10.00000  10.00000
