; Generated by build_templates.py from raw/HEX.itp
; (LigParGen OPLS-AA / 1.14*CM1A-LBCC), reacted/marked form.
[ moleculetype ]
  HEXR     3

[ atoms ]
     1  lkS         1  BCK    S00       1 -0.2749  32.0600
     2  hx801       1  HEX    C01       2  0.0133  12.0110
     3  hx802       1  HEX    C02       3 -0.1695  12.0110
     4  hx803       1  HEX    C03       4  0.4541  12.0110
     5  hx804       1  HEX    O04       5 -0.4520  15.9990
     6  hx805       1  HEX    O05       6 -0.3556  15.9990
     7  hx806       1  HEX    C06       7  0.0038  12.0110
     8  hx807       1  HEX    C07       8 -0.1362  12.0110
     9  hx808       1  HEX    C08       9  0.0054  12.0110
    10  hx809       1  HEX    O09      10 -0.3679  15.9990
    11  hx810       1  HEX    C0A      11  0.4405  12.0110
    12  hx811       1  HEX    O0B      12 -0.4412  15.9990
    13  hx812       1  HEX    C0C      13 -0.1934  12.0110
    14  hx813       1  HEX    C0D      14  0.0094  12.0110
    15  lkS         1  BCK    S0E      15 -0.2697  32.0600
    16  hx815       1  HEX    C0F      16  0.0005  12.0110
    17  hx816       1  HEX    O0G      17 -0.3567  15.9990
    18  hx817       1  HEX    C0H      18  0.4359  12.0110
    19  hx818       1  HEX    O0I      19 -0.4391  15.9990
    20  hx819       1  HEX    C0J      20 -0.1990  12.0110
    21  hx820       1  HEX    C0K      21  0.0136  12.0110
    22  lkS         1  BCK    S0M      22 -0.2703  32.0600
    23  hx822       1  HEX    C0N      23  0.0051  12.0110
    24  hx823       1  HEX    O0O      24 -0.3636  15.9990
    25  hx824       1  HEX    C0P      25  0.0175  12.0110
    26  hx825       1  HEX    C0Q      26 -0.1273  12.0110
    27  hx826       1  HEX    C0R      27  0.0015  12.0110
    28  hx827       1  HEX    O0S      28 -0.3633  15.9990
    29  hx828       1  HEX    C0T      29  0.4390  12.0110
    30  hx829       1  HEX    O0U      30 -0.4566  15.9990
    31  hx830       1  HEX    C0V      31 -0.1932  12.0110
    32  hx831       1  HEX    C0W      32  0.0218  12.0110
    33  lkS         1  BCK    S0X      33 -0.2637  32.0600
    34  hx833       1  HEX    C0Y      34  0.0047  12.0110
    35  hx834       1  HEX    O0Z      35 -0.3414  15.9990
    36  hx835       1  HEX    C10      36  0.4494  12.0110
    37  hx836       1  HEX    O11      37 -0.4766  15.9990
    38  hx837       1  HEX    C12      38 -0.1892  12.0110
    39  hx838       1  HEX    C13      39  0.0062  12.0110
    40  lkS         1  BCK    S14      40 -0.2720  32.0600
    41  hx840       1  HEX    C15      41  0.0160  12.0110
    42  hx841       1  HEX    O16      42 -0.3449  15.9990
    43  hx842       1  HEX    C17      43  0.4347  12.0110
    44  hx843       1  HEX    O18      44 -0.4455  15.9990
    45  hx844       1  HEX    C19      45 -0.1889  12.0110
    46  hx845       1  HEX    C1A      46  0.0085  12.0110
    47  lkS         1  BCK    S1B      47 -0.2717  32.0600
    48  hx848       1  HEX    H1D      48  0.1262  1.0080
    49  hx849       1  HEX    H1E      49  0.1262  1.0080
    50  hx850       1  HEX    H1F      50  0.1472  1.0080
    51  hx851       1  HEX    H1G      51  0.1472  1.0080
    52  hx852       1  HEX    H1H      52  0.1332  1.0080
    53  hx853       1  HEX    H1I      53  0.1332  1.0080
    54  hx854       1  HEX    H1J      54  0.1157  1.0080
    55  hx855       1  HEX    H1K      55  0.1157  1.0080
    56  hx856       1  HEX    H1M      56  0.1489  1.0080
    57  hx857       1  HEX    H1N      57  0.1489  1.0080
    58  hx858       1  HEX    H1O      58  0.1430  1.0080
    59  hx859       1  HEX    H1P      59  0.1430  1.0080
    60  hx861       1  HEX    H1R      60  0.1380  1.0080
    61  hx862       1  HEX    H1S      61  0.1380  1.0080
    62  hx863       1  HEX    H1T      62  0.1497  1.0080
    63  hx864       1  HEX    H1U      63  0.1497  1.0080
    64  hx865       1  HEX    H1V      64  0.1407  1.0080
    65  hx866       1  HEX    H1W      65  0.1407  1.0080
    66  hx868       1  HEX    H1Y      66  0.1239  1.0080
    67  hx869       1  HEX    H1Z      67  0.1239  1.0080
    68  hx870       1  HEX    H20      68  0.1105  1.0080
    69  hx871       1  HEX    H21      69  0.1105  1.0080
    70  hx872       1  HEX    H22      70  0.1401  1.0080
    71  hx873       1  HEX    H23      71  0.1401  1.0080
    72  hx874       1  HEX    H24      72  0.1448  1.0080
    73  hx875       1  HEX    H25      73  0.1448  1.0080
    74  hx876       1  HEX    H26      74  0.1353  1.0080
    75  hx877       1  HEX    H27      75  0.1353  1.0080
    76  hx879       1  HEX    H29      76  0.1148  1.0080
    77  hx880       1  HEX    H2A      77  0.1148  1.0080
    78  hx881       1  HEX    H2B      78  0.1544  1.0080
    79  hx882       1  HEX    H2C      79  0.1544  1.0080
    80  hx883       1  HEX    H2D      80  0.1453  1.0080
    81  hx884       1  HEX    H2E      81  0.1453  1.0080
    82  hx886       1  HEX    H2G      82  0.1211  1.0080
    83  hx887       1  HEX    H2H      83  0.1211  1.0080
    84  hx888       1  HEX    H2I      84  0.1470  1.0080
    85  hx889       1  HEX    H2J      85  0.1470  1.0080
    86  hx890       1  HEX    H2K      86  0.1414  1.0080
    87  hx891       1  HEX    H2M      87  0.1414  1.0080

[ bonds ]
  2  1   1  0.1810  185769.600
  3  2   1  0.1529  224262.400
  4  3   1  0.1522  265265.600
  5  4   1  0.1229  476976.000
  6  4   1  0.1327  179075.200
  7  6   1  0.1410  267776.000
  8  7   1  0.1529  224262.400
  9  8   1  0.1529  224262.400
  10  9   1  0.1410  267776.000
  11  10   1  0.1327  179075.200
  12  11   1  0.1229  476976.000
  13  11   1  0.1522  265265.600
  14  13   1  0.1529  224262.400
  15  14   1  0.1810  185769.600
  16  8   1  0.1529  224262.400
  17  16   1  0.1410  267776.000
  18  17   1  0.1327  179075.200
  19  18   1  0.1229  476976.000
  20  18   1  0.1522  265265.600
  21  20   1  0.1529  224262.400
  22  21   1  0.1810  185769.600
  23  8   1  0.1529  224262.400
  24  23   1  0.1410  267776.000
  25  24   1  0.1410  267776.000
  26  25   1  0.1529  224262.400
  27  26   1  0.1529  224262.400
  28  27   1  0.1410  267776.000
  29  28   1  0.1327  179075.200
  30  29   1  0.1229  476976.000
  31  29   1  0.1522  265265.600
  32  31   1  0.1529  224262.400
  33  32   1  0.1810  185769.600
  34  26   1  0.1529  224262.400
  35  34   1  0.1410  267776.000
  36  35   1  0.1327  179075.200
  37  36   1  0.1229  476976.000
  38  36   1  0.1522  265265.600
  39  38   1  0.1529  224262.400
  40  39   1  0.1810  185769.600
  41  26   1  0.1529  224262.400
  42  41   1  0.1410  267776.000
  43  42   1  0.1327  179075.200
  44  43   1  0.1229  476976.000
  45  43   1  0.1522  265265.600
  46  45   1  0.1529  224262.400
  47  46   1  0.1810  185769.600
  48  2   1  0.1090  284512.000
  49  2   1  0.1090  284512.000
  50  3   1  0.1090  284512.000
  51  3   1  0.1090  284512.000
  52  7   1  0.1090  284512.000
  53  7   1  0.1090  284512.000
  54  9   1  0.1090  284512.000
  55  9   1  0.1090  284512.000
  56  13   1  0.1090  284512.000
  57  13   1  0.1090  284512.000
  58  14   1  0.1090  284512.000
  59  14   1  0.1090  284512.000
  60  16   1  0.1090  284512.000
  61  16   1  0.1090  284512.000
  62  20   1  0.1090  284512.000
  63  20   1  0.1090  284512.000
  64  21   1  0.1090  284512.000
  65  21   1  0.1090  284512.000
  66  23   1  0.1090  284512.000
  67  23   1  0.1090  284512.000
  68  25   1  0.1090  284512.000
  69  25   1  0.1090  284512.000
  70  27   1  0.1090  284512.000
  71  27   1  0.1090  284512.000
  72  31   1  0.1090  284512.000
  73  31   1  0.1090  284512.000
  74  32   1  0.1090  284512.000
  75  32   1  0.1090  284512.000
  76  34   1  0.1090  284512.000
  77  34   1  0.1090  284512.000
  78  38   1  0.1090  284512.000
  79  38   1  0.1090  284512.000
  80  39   1  0.1090  284512.000
  81  39   1  0.1090  284512.000
  82  41   1  0.1090  284512.000
  83  41   1  0.1090  284512.000
  84  45   1  0.1090  284512.000
  85  45   1  0.1090  284512.000
  86  46   1  0.1090  284512.000
  87  46   1  0.1090  284512.000

[ angles ]
  1  2  3   1  108.600  418.400
  2  3  4   1  111.100  527.184
  3  4  5   1  120.400  669.440
  3  4  6   1  111.400  677.808
  4  6  7   1  116.900  694.544
  6  7  8   1  109.500  418.400
  7  8  9   1  112.700  488.273
  8  9  10   1  109.500  418.400
  9  10  11   1  116.900  694.544
  10  11  12   1  123.400  694.544
  10  11  13   1  111.400  677.808
  11  13  14   1  111.100  527.184
  13  14  15   1  108.600  418.400
  7  8  16   1  112.700  488.273
  8  16  17   1  109.500  418.400
  16  17  18   1  116.900  694.544
  17  18  19   1  123.400  694.544
  17  18  20   1  111.400  677.808
  18  20  21   1  111.100  527.184
  20  21  22   1  108.600  418.400
  7  8  23   1  112.700  488.273
  8  23  24   1  109.500  418.400
  23  24  25   1  109.500  502.080
  24  25  26   1  109.500  418.400
  25  26  27   1  112.700  488.273
  26  27  28   1  109.500  418.400
  27  28  29   1  116.900  694.544
  28  29  30   1  123.400  694.544
  28  29  31   1  111.400  677.808
  29  31  32   1  111.100  527.184
  31  32  33   1  108.600  418.400
  25  26  34   1  112.700  488.273
  26  34  35   1  109.500  418.400
  34  35  36   1  116.900  694.544
  35  36  37   1  123.400  694.544
  35  36  38   1  111.400  677.808
  36  38  39   1  111.100  527.184
  38  39  40   1  108.600  418.400
  25  26  41   1  112.700  488.273
  26  41  42   1  109.500  418.400
  41  42  43   1  116.900  694.544
  42  43  44   1  123.400  694.544
  42  43  45   1  111.400  677.808
  43  45  46   1  111.100  527.184
  45  46  47   1  108.600  418.400
  1  2  48   1  109.500  292.880
  1  2  49   1  109.500  292.880
  2  3  50   1  110.700  313.800
  2  3  51   1  110.700  313.800
  6  7  52   1  109.500  292.880
  6  7  53   1  109.500  292.880
  8  9  54   1  110.700  313.800
  8  9  55   1  110.700  313.800
  11  13  56   1  109.500  292.880
  11  13  57   1  109.500  292.880
  13  14  58   1  110.700  313.800
  13  14  59   1  110.700  313.800
  8  16  60   1  110.700  313.800
  8  16  61   1  110.700  313.800
  18  20  62   1  109.500  292.880
  18  20  63   1  109.500  292.880
  20  21  64   1  110.700  313.800
  20  21  65   1  110.700  313.800
  8  23  66   1  110.700  313.800
  8  23  67   1  110.700  313.800
  24  25  68   1  109.500  292.880
  24  25  69   1  109.500  292.880
  26  27  70   1  110.700  313.800
  26  27  71   1  110.700  313.800
  29  31  72   1  109.500  292.880
  29  31  73   1  109.500  292.880
  31  32  74   1  110.700  313.800
  31  32  75   1  110.700  313.800
  26  34  76   1  110.700  313.800
  26  34  77   1  110.700  313.800
  36  38  78   1  109.500  292.880
  36  38  79   1  109.500  292.880
  38  39  80   1  110.700  313.800
  38  39  81   1  110.700  313.800
  26  41  82   1  110.700  313.800
  26  41  83   1  110.700  313.800
  43  45  84   1  109.500  292.880
  43  45  85   1  109.500  292.880
  45  46  86   1  110.700  313.800
  45  46  87   1  110.700  313.800
  30  29  31   1  120.400  669.440
  68  25  69   1  107.800  276.144
  72  31  73   1  107.800  276.144
  3  2  48   1  110.700  313.800
  15  14  59   1  109.500  292.880
  52  7  53   1  107.800  276.144
  40  39  80   1  109.500  292.880
  17  16  60   1  109.500  292.880
  74  32  75   1  107.800  276.144
  3  2  49   1  110.700  313.800
  15  14  58   1  109.500  292.880
  33  32  75   1  109.500  292.880
  24  23  66   1  109.500  292.880
  66  23  67   1  107.800  276.144
  28  27  71   1  109.500  292.880
  48  2  49   1  107.800  276.144
  33  32  74   1  109.500  292.880
  70  27  71   1  107.800  276.144
  9  8  16   1  112.700  488.273
  82  41  83   1  107.800  276.144
  50  3  51   1  107.800  276.144
  62  20  63   1  107.800  276.144
  4  3  51   1  109.500  292.880
  5  4  6   1  123.400  694.544
  32  31  73   1  110.700  313.800
  40  39  81   1  109.500  292.880
  26  25  68   1  110.700  313.800
  37  36  38   1  120.400  669.440
  10  9  55   1  109.500  292.880
  58  14  59   1  107.800  276.144
  22  21  64   1  109.500  292.880
  64  21  65   1  107.800  276.144
  35  34  77   1  109.500  292.880
  56  13  57   1  107.800  276.144
  28  27  70   1  109.500  292.880
  14  13  56   1  110.700  313.800
  8  7  53   1  110.700  313.800
  34  26  41   1  112.700  488.273
  44  43  45   1  120.400  669.440
  47  46  87   1  109.500  292.880
  26  25  69   1  110.700  313.800
  32  31  72   1  110.700  313.800
  4  3  50   1  109.500  292.880
  46  45  85   1  110.700  313.800
  9  8  23   1  112.700  488.273
  35  34  76   1  109.500  292.880
  27  26  41   1  112.700  488.273
  76  34  77   1  107.800  276.144
  24  23  67   1  109.500  292.880
  22  21  65   1  109.500  292.880
  19  18  20   1  120.400  669.440
  42  41  82   1  109.500  292.880
  42  41  83   1  109.500  292.880
  16  8  23   1  112.700  488.273
  39  38  78   1  110.700  313.800
  46  45  84   1  110.700  313.800
  78  38  79   1  107.800  276.144
  14  13  57   1  110.700  313.800
  21  20  62   1  110.700  313.800
  54  9  55   1  107.800  276.144
  21  20  63   1  110.700  313.800
  84  45  85   1  107.800  276.144
  60  16  61   1  107.800  276.144
  47  46  86   1  109.500  292.880
  10  9  54   1  109.500  292.880
  86  46  87   1  107.800  276.144
  80  39  81   1  107.800  276.144
  27  26  34   1  112.700  488.273
  12  11  13   1  120.400  669.440
  39  38  79   1  110.700  313.800
  8  7  52   1  110.700  313.800
  17  16  61   1  109.500  292.880

[ dihedrals ]
  31  29  28  30   4  180.000  43.932  2
  45  43  42  44   4  180.000  43.932  2
  38  36  35  37   4  180.000  43.932  2
  20  18  17  19   4  180.000  43.932  2
  13  11  10  12   4  180.000  43.932  2
  6  4  3  5   4  180.000  43.932  2
  4  3  2  1   3  -16.259  9.088  7.171  -0.000  -0.000  0.000
  36  35  34  26   3  -2.197  5.201  0.527  -3.531  -0.000  0.000
  18  17  16  8   3  -2.197  5.201  0.527  -3.531  -0.000  0.000
  43  42  41  26   3  -2.197  5.201  0.527  -3.531  -0.000  0.000
  11  10  9  8   3  -2.197  5.201  0.527  -3.531  -0.000  0.000
  29  28  27  26   3  -2.197  5.201  0.527  -3.531  -0.000  0.000
  20  18  17  16   3  31.206  -9.768  -21.439  -0.000  -0.000  0.000
  13  11  10  9   3  31.206  -9.768  -21.439  -0.000  -0.000  0.000
  31  29  28  27   3  31.206  -9.768  -21.439  -0.000  -0.000  0.000
  38  36  35  34   3  31.206  -9.768  -21.439  -0.000  -0.000  0.000
  45  43  42  41   3  31.206  -9.768  -21.439  -0.000  -0.000  0.000
  46  45  43  44   3  0.000  0.000  0.000  -0.000  -0.000  0.000
  21  20  18  19   3  0.000  0.000  0.000  -0.000  -0.000  0.000
  14  13  11  12   3  0.000  0.000  0.000  -0.000  -0.000  0.000
  32  31  29  30   3  0.000  0.000  0.000  -0.000  -0.000  0.000
  39  38  36  37   3  0.000  0.000  0.000  -0.000  -0.000  0.000
  46  45  43  42   3  -1.157  -3.471  0.000  4.628  -0.000  0.000
  32  31  29  28   3  -1.157  -3.471  0.000  4.628  -0.000  0.000
  39  38  36  35   3  -1.157  -3.471  0.000  4.628  -0.000  0.000
  21  20  18  17   3  -1.157  -3.471  0.000  4.628  -0.000  0.000
  14  13  11  10   3  -1.157  -3.471  0.000  4.628  -0.000  0.000
  34  26  27  28   3  2.874  0.582  2.092  -5.548  -0.000  0.000
  41  26  25  24   3  2.874  0.582  2.092  -5.548  -0.000  0.000
  41  26  34  35   3  2.874  0.582  2.092  -5.548  -0.000  0.000
  16  8  9  10   3  2.874  0.582  2.092  -5.548  -0.000  0.000
  23  8  9  10   3  2.874  0.582  2.092  -5.548  -0.000  0.000
  9  8  7  6   3  2.874  0.582  2.092  -5.548  -0.000  0.000
  16  8  7  6   3  2.874  0.582  2.092  -5.548  -0.000  0.000
  23  8  7  6   3  2.874  0.582  2.092  -5.548  -0.000  0.000
  34  26  25  24   3  2.874  0.582  2.092  -5.548  -0.000  0.000
  27  26  25  24   3  2.874  0.582  2.092  -5.548  -0.000  0.000
  23  8  16  17   3  2.874  0.582  2.092  -5.548  -0.000  0.000
  41  26  27  28   3  2.874  0.582  2.092  -5.548  -0.000  0.000
  8  7  6  4   3  -2.197  5.201  0.527  -3.531  -0.000  0.000
  26  25  24  23   3  1.715  2.845  1.046  -5.607  -0.000  0.000
  7  6  4  3   3  31.206  -9.768  -21.439  -0.000  -0.000  0.000
  7  6  4  5   3  21.439  0.000  -21.439  -0.000  -0.000  0.000
  25  24  23  8   3  1.715  2.845  1.046  -5.607  -0.000  0.000
  56  13  11  12   3  0.000  0.000  0.000  -0.000  -0.000  0.000
  50  3  4  5   3  0.000  0.000  0.000  -0.000  -0.000  0.000
  79  38  36  37   3  0.000  0.000  0.000  -0.000  -0.000  0.000
  84  45  43  44   3  0.000  0.000  0.000  -0.000  -0.000  0.000
  63  20  18  19   3  0.000  0.000  0.000  -0.000  -0.000  0.000
  72  31  29  30   3  0.000  0.000  0.000  -0.000  -0.000  0.000
  78  38  36  37   3  0.000  0.000  0.000  -0.000  -0.000  0.000
  85  45  43  44   3  0.000  0.000  0.000  -0.000  -0.000  0.000
  62  20  18  19   3  0.000  0.000  0.000  -0.000  -0.000  0.000
  73  31  29  30   3  0.000  0.000  0.000  -0.000  -0.000  0.000
  57  13  11  12   3  0.000  0.000  0.000  -0.000  -0.000  0.000
  51  3  4  5   3  0.000  0.000  0.000  -0.000  -0.000  0.000
  73  31  29  28   3  0.276  0.828  0.000  -1.105  -0.000  0.000
  62  20  18  17   3  0.276  0.828  0.000  -1.105  -0.000  0.000
  51  3  4  6   3  0.276  0.828  0.000  -1.105  -0.000  0.000
  63  20  18  17   3  0.276  0.828  0.000  -1.105  -0.000  0.000
  50  3  4  6   3  0.276  0.828  0.000  -1.105  -0.000  0.000
  84  45  43  42   3  0.276  0.828  0.000  -1.105  -0.000  0.000
  57  13  11  10   3  0.276  0.828  0.000  -1.105  -0.000  0.000
  72  31  29  28   3  0.276  0.828  0.000  -1.105  -0.000  0.000
  56  13  11  10   3  0.276  0.828  0.000  -1.105  -0.000  0.000
  85  45  43  42   3  0.276  0.828  0.000  -1.105  -0.000  0.000
  78  38  36  35   3  0.276  0.828  0.000  -1.105  -0.000  0.000
  79  38  36  35   3  0.276  0.828  0.000  -1.105  -0.000  0.000
  74  32  31  29   3  -0.209  -0.628  0.000  0.837  -0.000  0.000
  58  14  13  11   3  -0.209  -0.628  0.000  0.837  -0.000  0.000
  48  2  3  4   3  -0.209  -0.628  0.000  0.837  -0.000  0.000
  49  2  3  4   3  -0.209  -0.628  0.000  0.837  -0.000  0.000
  75  32  31  29   3  -0.209  -0.628  0.000  0.837  -0.000  0.000
  81  39  38  36   3  -0.209  -0.628  0.000  0.837  -0.000  0.000
  86  46  45  43   3  -0.209  -0.628  0.000  0.837  -0.000  0.000
  80  39  38  36   3  -0.209  -0.628  0.000  0.837  -0.000  0.000
  59  14  13  11   3  -0.209  -0.628  0.000  0.837  -0.000  0.000
  64  21  20  18   3  -0.209  -0.628  0.000  0.837  -0.000  0.000
  65  21  20  18   3  -0.209  -0.628  0.000  0.837  -0.000  0.000
  87  46  45  43   3  -0.209  -0.628  0.000  0.837  -0.000  0.000
  77  34  26  25   3  0.628  1.883  0.000  -2.510  -0.000  0.000
  55  9  8  16   3  0.628  1.883  0.000  -2.510  -0.000  0.000
  52  7  8  9   3  0.628  1.883  0.000  -2.510  -0.000  0.000
  55  9  8  7   3  0.628  1.883  0.000  -2.510  -0.000  0.000
  69  25  26  27   3  0.628  1.883  0.000  -2.510  -0.000  0.000
  67  23  8  9   3  0.628  1.883  0.000  -2.510  -0.000  0.000
  69  25  26  41   3  0.628  1.883  0.000  -2.510  -0.000  0.000
  71  27  26  41   3  0.628  1.883  0.000  -2.510  -0.000  0.000
  70  27  26  41   3  0.628  1.883  0.000  -2.510  -0.000  0.000
  52  7  8  23   3  0.628  1.883  0.000  -2.510  -0.000  0.000
  67  23  8  16   3  0.628  1.883  0.000  -2.510  -0.000  0.000
  77  34  26  27   3  0.628  1.883  0.000  -2.510  -0.000  0.000
  83  41  26  34   3  0.628  1.883  0.000  -2.510  -0.000  0.000
  61  16  8  23   3  0.628  1.883  0.000  -2.510  -0.000  0.000
  71  27  26  25   3  0.628  1.883  0.000  -2.510  -0.000  0.000
  76  34  26  25   3  0.628  1.883  0.000  -2.510  -0.000  0.000
  68  25  26  27   3  0.628  1.883  0.000  -2.510  -0.000  0.000
  54  9  8  16   3  0.628  1.883  0.000  -2.510  -0.000  0.000
  82  41  26  34   3  0.628  1.883  0.000  -2.510  -0.000  0.000
  70  27  26  34   3  0.628  1.883  0.000  -2.510  -0.000  0.000
  61  16  8  7   3  0.628  1.883  0.000  -2.510  -0.000  0.000
  60  16  8  7   3  0.628  1.883  0.000  -2.510  -0.000  0.000
  54  9  8  7   3  0.628  1.883  0.000  -2.510  -0.000  0.000
  66  23  8  16   3  0.628  1.883  0.000  -2.510  -0.000  0.000
  68  25  26  34   3  0.628  1.883  0.000  -2.510  -0.000  0.000
  76  34  26  27   3  0.628  1.883  0.000  -2.510  -0.000  0.000
  66  23  8  9   3  0.628  1.883  0.000  -2.510  -0.000  0.000
  71  27  26  34   3  0.628  1.883  0.000  -2.510  -0.000  0.000
  67  23  8  7   3  0.628  1.883  0.000  -2.510  -0.000  0.000
  69  25  26  34   3  0.628  1.883  0.000  -2.510  -0.000  0.000
  55  9  8  23   3  0.628  1.883  0.000  -2.510  -0.000  0.000
  53  7  8  23   3  0.628  1.883  0.000  -2.510  -0.000  0.000
  53  7  8  9   3  0.628  1.883  0.000  -2.510  -0.000  0.000
  68  25  26  41   3  0.628  1.883  0.000  -2.510  -0.000  0.000
  54  9  8  23   3  0.628  1.883  0.000  -2.510  -0.000  0.000
  60  16  8  9   3  0.628  1.883  0.000  -2.510  -0.000  0.000
  53  7  8  16   3  0.628  1.883  0.000  -2.510  -0.000  0.000
  83  41  26  27   3  0.628  1.883  0.000  -2.510  -0.000  0.000
  76  34  26  41   3  0.628  1.883  0.000  -2.510  -0.000  0.000
  82  41  26  27   3  0.628  1.883  0.000  -2.510  -0.000  0.000
  70  27  26  25   3  0.628  1.883  0.000  -2.510  -0.000  0.000
  77  34  26  41   3  0.628  1.883  0.000  -2.510  -0.000  0.000
  52  7  8  16   3  0.628  1.883  0.000  -2.510  -0.000  0.000
  82  41  26  25   3  0.628  1.883  0.000  -2.510  -0.000  0.000
  83  41  26  25   3  0.628  1.883  0.000  -2.510  -0.000  0.000
  60  16  8  23   3  0.628  1.883  0.000  -2.510  -0.000  0.000
  61  16  8  9   3  0.628  1.883  0.000  -2.510  -0.000  0.000
  66  23  8  7   3  0.628  1.883  0.000  -2.510  -0.000  0.000
  58  14  13  57   3  0.628  1.883  0.000  -2.510  -0.000  0.000
  75  32  31  73   3  0.628  1.883  0.000  -2.510  -0.000  0.000
  65  21  20  63   3  0.628  1.883  0.000  -2.510  -0.000  0.000
  59  14  13  56   3  0.628  1.883  0.000  -2.510  -0.000  0.000
  87  46  45  84   3  0.628  1.883  0.000  -2.510  -0.000  0.000
  59  14  13  57   3  0.628  1.883  0.000  -2.510  -0.000  0.000
  64  21  20  62   3  0.628  1.883  0.000  -2.510  -0.000  0.000
  51  3  2  49   3  0.628  1.883  0.000  -2.510  -0.000  0.000
  64  21  20  63   3  0.628  1.883  0.000  -2.510  -0.000  0.000
  65  21  20  62   3  0.628  1.883  0.000  -2.510  -0.000  0.000
  58  14  13  56   3  0.628  1.883  0.000  -2.510  -0.000  0.000
  87  46  45  85   3  0.628  1.883  0.000  -2.510  -0.000  0.000
  80  39  38  78   3  0.628  1.883  0.000  -2.510  -0.000  0.000
  50  3  2  48   3  0.628  1.883  0.000  -2.510  -0.000  0.000
  74  32  31  72   3  0.628  1.883  0.000  -2.510  -0.000  0.000
  50  3  2  49   3  0.628  1.883  0.000  -2.510  -0.000  0.000
  81  39  38  79   3  0.628  1.883  0.000  -2.510  -0.000  0.000
  75  32  31  72   3  0.628  1.883  0.000  -2.510  -0.000  0.000
  74  32  31  73   3  0.628  1.883  0.000  -2.510  -0.000  0.000
  86  46  45  85   3  0.628  1.883  0.000  -2.510  -0.000  0.000
  81  39  38  78   3  0.628  1.883  0.000  -2.510  -0.000  0.000
  86  46  45  84   3  0.628  1.883  0.000  -2.510  -0.000  0.000
  80  39  38  79   3  0.628  1.883  0.000  -2.510  -0.000  0.000
  51  3  2  48   3  0.628  1.883  0.000  -2.510  -0.000  0.000
  85  45  46  47   3  0.946  2.837  0.000  -3.782  -0.000  0.000
  72  31  32  33   3  0.946  2.837  0.000  -3.782  -0.000  0.000
  62  20  21  22   3  0.946  2.837  0.000  -3.782  -0.000  0.000
  84  45  46  47   3  0.946  2.837  0.000  -3.782  -0.000  0.000
  50  3  2  1   3  0.946  2.837  0.000  -3.782  -0.000  0.000
  78  38  39  40   3  0.946  2.837  0.000  -3.782  -0.000  0.000
  56  13  14  15   3  0.946  2.837  0.000  -3.782  -0.000  0.000
  51  3  2  1   3  0.946  2.837  0.000  -3.782  -0.000  0.000
  57  13  14  15   3  0.946  2.837  0.000  -3.782  -0.000  0.000
  73  31  32  33   3  0.946  2.837  0.000  -3.782  -0.000  0.000
  79  38  39  40   3  0.946  2.837  0.000  -3.782  -0.000  0.000
  63  20  21  22   3  0.946  2.837  0.000  -3.782  -0.000  0.000
  53  7  6  4   3  0.414  1.243  0.000  -1.657  -0.000  0.000
  52  7  6  4   3  0.414  1.243  0.000  -1.657  -0.000  0.000
  55  9  10  11   3  0.414  1.243  0.000  -1.657  -0.000  0.000
  60  16  17  18   3  0.414  1.243  0.000  -1.657  -0.000  0.000
  83  41  42  43   3  0.414  1.243  0.000  -1.657  -0.000  0.000
  82  41  42  43   3  0.414  1.243  0.000  -1.657  -0.000  0.000
  77  34  35  36   3  0.414  1.243  0.000  -1.657  -0.000  0.000
  76  34  35  36   3  0.414  1.243  0.000  -1.657  -0.000  0.000
  71  27  28  29   3  0.414  1.243  0.000  -1.657  -0.000  0.000
  54  9  10  11   3  0.414  1.243  0.000  -1.657  -0.000  0.000
  70  27  28  29   3  0.414  1.243  0.000  -1.657  -0.000  0.000
  61  16  17  18   3  0.414  1.243  0.000  -1.657  -0.000  0.000
  67  23  24  25   3  1.590  4.770  0.000  -6.360  -0.000  0.000
  66  23  24  25   3  1.590  4.770  0.000  -6.360  -0.000  0.000
  69  25  24  23   3  1.590  4.770  0.000  -6.360  -0.000  0.000
  68  25  24  23   3  1.590  4.770  0.000  -6.360  -0.000  0.000
  5  4  3  2   3  0.000  0.000  0.000  -0.000  -0.000  0.000
  37  36  35  34   3  21.439  0.000  -21.439  -0.000  -0.000  0.000
  19  18  17  16   3  21.439  0.000  -21.439  -0.000  -0.000  0.000
  12  11  10  9   3  21.439  0.000  -21.439  -0.000  -0.000  0.000
  30  29  28  27   3  21.439  0.000  -21.439  -0.000  -0.000  0.000
  44  43  42  41   3  21.439  0.000  -21.439  -0.000  -0.000  0.000
  6  4  3  2   3  -1.157  -3.471  0.000  4.628  -0.000  0.000
  28  27  26  25   3  2.874  0.582  2.092  -5.548  -0.000  0.000
  24  23  8  9   3  2.874  0.582  2.092  -5.548  -0.000  0.000
  17  16  8  9   3  2.874  0.582  2.092  -5.548  -0.000  0.000
  42  41  26  34   3  2.874  0.582  2.092  -5.548  -0.000  0.000
  35  34  26  27   3  2.874  0.582  2.092  -5.548  -0.000  0.000
  10  9  8  7   3  2.874  0.582  2.092  -5.548  -0.000  0.000
  42  41  26  27   3  2.874  0.582  2.092  -5.548  -0.000  0.000
  24  23  8  7   3  2.874  0.582  2.092  -5.548  -0.000  0.000
  42  41  26  25   3  2.874  0.582  2.092  -5.548  -0.000  0.000
  17  16  8  7   3  2.874  0.582  2.092  -5.548  -0.000  0.000
  24  23  8  16   3  2.874  0.582  2.092  -5.548  -0.000  0.000
  35  34  26  25   3  2.874  0.582  2.092  -5.548  -0.000  0.000
  47  46  45  43   3  -16.259  9.088  7.171  -0.000  -0.000  0.000
  40  39  38  36   3  -16.259  9.088  7.171  -0.000  -0.000  0.000
  33  32  31  29   3  -16.259  9.088  7.171  -0.000  -0.000  0.000
  22  21  20  18   3  -16.259  9.088  7.171  -0.000  -0.000  0.000
  15  14  13  11   3  -16.259  9.088  7.171  -0.000  -0.000  0.000

[ pairs ]
  1  4   1
  2  5   1
  2  6   1
  3  7   1
  5  7   1
  4  8   1
  6  9   1
  7  10   1
  8  11   1
  9  12   1
  9  13   1
  6  16   1
  10  14   1
  7  17   1
  12  14   1
  11  15   1
  10  16   1
  9  17   1
  8  18   1
  6  23   1
  7  24   1
  10  23   1
  9  24   1
  8  25   1
  16  19   1
  16  20   1
  17  21   1
  19  21   1
  18  22   1
  17  23   1
  16  24   1
  23  26   1
  24  27   1
  1  50   1
  25  28   1
  4  48   1
  1  51   1
  4  49   1
  26  29   1
  5  50   1
  27  30   1
  6  50   1
  5  51   1
  4  52   1
  27  31   1
  24  34   1
  6  51   1
  4  53   1
  28  32   1
  25  35   1
  30  32   1
  29  33   1
  28  34   1
  27  35   1
  26  36   1
  9  52   1
  7  54   1
  9  53   1
  7  55   1
  24  41   1
  11  54   1
  25  42   1
  11  55   1
  10  56   1
  10  57   1
  28  41   1
  27  42   1
  26  43   1
  16  52   1
  12  56   1
  7  60   1
  16  53   1
  12  57   1
  11  58   1
  7  61   1
  34  37   1
  16  54   1
  11  59   1
  9  60   1
  34  38   1
  16  55   1
  15  56   1
  9  61   1
  15  57   1
  35  39   1
  37  39   1
  36  40   1
  35  41   1
  34  42   1
  23  52   1
  7  66   1
  23  53   1
  7  67   1
  23  54   1
  9  66   1
  23  55   1
  9  67   1
  18  60   1
  18  61   1
  17  62   1
  17  63   1
  19  62   1
  19  63   1
  18  64   1
  41  44   1
  23  60   1
  18  65   1
  16  66   1
  41  45   1
  23  61   1
  22  62   1
  16  67   1
  22  63   1
  42  46   1
  44  46   1
  43  47   1
  25  66   1
  23  68   1
  25  67   1
  23  69   1
  27  68   1
  25  70   1
  27  69   1
  25  71   1
  48  50   1
  49  50   1
  48  51   1
  49  51   1
  29  70   1
  29  71   1
  28  72   1
  28  73   1
  34  68   1
  30  72   1
  25  76   1
  34  69   1
  30  73   1
  29  74   1
  25  77   1
  34  70   1
  29  75   1
  27  76   1
  34  71   1
  33  72   1
  27  77   1
  33  73   1
  41  68   1
  25  82   1
  41  69   1
  25  83   1
  41  70   1
  27  82   1
  41  71   1
  27  83   1
  56  58   1
  36  76   1
  57  58   1
  56  59   1
  36  77   1
  35  78   1
  57  59   1
  35  79   1
  37  78   1
  37  79   1
  36  80   1
  41  76   1
  36  81   1
  34  82   1
  41  77   1
  40  78   1
  34  83   1
  40  79   1
  62  64   1
  43  82   1
  63  64   1
  62  65   1
  43  83   1
  42  84   1
  63  65   1
  42  85   1
  44  84   1
  44  85   1
  43  86   1
  43  87   1
  47  84   1
  47  85   1
  72  74   1
  73  74   1
  72  75   1
  73  75   1
  78  80   1
  79  80   1
  78  81   1
  79  81   1
  84  86   1
  85  86   1
  84  87   1
  85  87   1
