; Generated by build_templates.py from raw/HEX.itp
; (LigParGen OPLS-AA / 1.14*CM1A-LBCC), reacted/marked form.
[ moleculetype ]
  HEXU     3

[ atoms ]
     1  hx800       1  BCK    S00       1 -0.4315  32.0600
     2  hx801       1  HEX    C01       2  0.0133  12.0110
     3  hx802       1  HEX    C02       3 -0.1695  12.0110
     4  hx803       1  HEX    C03       4  0.4541  12.0110
     5  hx804       1  HEX    O04       5 -0.4520  15.9990
     6  hx805       1  HEX    O05       6 -0.3556  15.9990
     7  hx806       1  HEX    C06       7  0.0038  12.0110
     8  hx807       1  HEX    C07       8 -0.1362  12.0110
     9  hx808       1  HEX    C08       9  0.0054  12.0110
    10  hx809       1  HEX    O09      10 -0.3679  15.9990
    11  hx810       1  HEX    C0A      11  0.4405  12.0110
    12  hx811       1  HEX    O0B      12 -0.4412  15.9990
    13  hx812       1  HEX    C0C      13 -0.1934  12.0110
    14  hx813       1  HEX    C0D      14  0.0094  12.0110
    15  hx814       1  BCK    S0E      15 -0.4157  32.0600
    16  hx815       1  HEX    C0F      16  0.0005  12.0110
    17  hx816       1  HEX    O0G      17 -0.3567  15.9990
    18  hx817       1  HEX    C0H      18  0.4359  12.0110
    19  hx818       1  HEX    O0I      19 -0.4391  15.9990
    20  hx819       1  HEX    C0J      20 -0.1990  12.0110
    21  hx820       1  HEX    C0K      21  0.0136  12.0110
    22  hx821       1  BCK    S0M      22 -0.4180  32.0600
    23  hx822       1  HEX    C0N      23  0.0051  12.0110
    24  hx823       1  HEX    O0O      24 -0.3636  15.9990
    25  hx824       1  HEX    C0P      25  0.0175  12.0110
    26  hx825       1  HEX    C0Q      26 -0.1273  12.0110
    27  hx826       1  HEX    C0R      27  0.0015  12.0110
    28  hx827       1  HEX    O0S      28 -0.3633  15.9990
    29  hx828       1  HEX    C0T      29  0.4390  12.0110
    30  hx829       1  HEX    O0U      30 -0.4566  15.9990
    31  hx830       1  HEX    C0V      31 -0.1932  12.0110
    32  hx831       1  HEX    C0W      32  0.0218  12.0110
    33  hx832       1  BCK    S0X      33 -0.4547  32.0600
    34  hx833       1  HEX    C0Y      34  0.0047  12.0110
    35  hx834       1  HEX    O0Z      35 -0.3414  15.9990
    36  hx835       1  HEX    C10      36  0.4494  12.0110
    37  hx836       1  HEX    O11      37 -0.4766  15.9990
    38  hx837       1  HEX    C12      38 -0.1892  12.0110
    39  hx838       1  HEX    C13      39  0.0062  12.0110
    40  hx839       1  BCK    S14      40 -0.4159  32.0600
    41  hx840       1  HEX    C15      41  0.0160  12.0110
    42  hx841       1  HEX    O16      42 -0.3449  15.9990
    43  hx842       1  HEX    C17      43  0.4347  12.0110
    44  hx843       1  HEX    O18      44 -0.4455  15.9990
    45  hx844       1  HEX    C19      45 -0.1889  12.0110
    46  hx845       1  HEX    C1A      46  0.0085  12.0110
    47  hx846       1  BCK    S1B      47 -0.4208  32.0600
    48  hx847       1  HEX    H1C      48  0.1566  1.0080
    49  hx848       1  HEX    H1D      49  0.1262  1.0080
    50  hx849       1  HEX    H1E      50  0.1262  1.0080
    51  hx850       1  HEX    H1F      51  0.1472  1.0080
    52  hx851       1  HEX    H1G      52  0.1472  1.0080
    53  hx852       1  HEX    H1H      53  0.1332  1.0080
    54  hx853       1  HEX    H1I      54  0.1332  1.0080
    55  hx854       1  HEX    H1J      55  0.1157  1.0080
    56  hx855       1  HEX    H1K      56  0.1157  1.0080
    57  hx856       1  HEX    H1M      57  0.1489  1.0080
    58  hx857       1  HEX    H1N      58  0.1489  1.0080
    59  hx858       1  HEX    H1O      59  0.1430  1.0080
    60  hx859       1  HEX    H1P      60  0.1430  1.0080
    61  hx860       1  HEX    H1Q      61  0.1460  1.0080
    62  hx861       1  HEX    H1R      62  0.1380  1.0080
    63  hx862       1  HEX    H1S      63  0.1380  1.0080
    64  hx863       1  HEX    H1T      64  0.1497  1.0080
    65  hx864       1  HEX    H1U      65  0.1497  1.0080
    66  hx865       1  HEX    H1V      66  0.1407  1.0080
    67  hx866       1  HEX    H1W      67  0.1407  1.0080
    68  hx867       1  HEX    H1X      68  0.1477  1.0080
    69  hx868       1  HEX    H1Y      69  0.1239  1.0080
    70  hx869       1  HEX    H1Z      70  0.1239  1.0080
    71  hx870       1  HEX    H20      71  0.1105  1.0080
    72  hx871       1  HEX    H21      72  0.1105  1.0080
    73  hx872       1  HEX    H22      73  0.1401  1.0080
    74  hx873       1  HEX    H23      74  0.1401  1.0080
    75  hx874       1  HEX    H24      75  0.1448  1.0080
    76  hx875       1  HEX    H25      76  0.1448  1.0080
    77  hx876       1  HEX    H26      77  0.1353  1.0080
    78  hx877       1  HEX    H27      78  0.1353  1.0080
    79  hx878       1  HEX    H28      79  0.1910  1.0080
    80  hx879       1  HEX    H29      80  0.1148  1.0080
    81  hx880       1  HEX    H2A      81  0.1148  1.0080
    82  hx881       1  HEX    H2B      82  0.1544  1.0080
    83  hx882       1  HEX    H2C      83  0.1544  1.0080
    84  hx883       1  HEX    H2D      84  0.1453  1.0080
    85  hx884       1  HEX    H2E      85  0.1453  1.0080
    86  hx885       1  HEX    H2F      86  0.1439  1.0080
    87  hx886       1  HEX    H2G      87  0.1211  1.0080
    88  hx887       1  HEX    H2H      88  0.1211  1.0080
    89  hx888       1  HEX    H2I      89  0.1470  1.0080
    90  hx889       1  HEX    H2J      90  0.1470  1.0080
    91  hx890       1  HEX    H2K      91  0.1414  1.0080
    92  hx891       1  HEX    H2M      92  0.1414  1.0080
    93  hx892       1  HEX    H2N      93  0.1491  1.0080

[ bonds ]
  2  1   1  0.1810  185769.600
  3  2   1  0.1529  224262.400
  4  3   1  0.1522  265265.600
  5  4   1  0.1229  476976.000
  6  4   1  0.1327  179075.200
  7  6   1  0.1410  267776.000
  8  7   1  0.1529  224262.400
  9  8   1  0.1529  224262.400
  10  9   1  0.1410  267776.000
  11  10   1  0.1327  179075.200
  12  11   1  0.1229  476976.000
  13  11   1  0.1522  265265.600
  14  13   1  0.1529  224262.400
  15  14   1  0.1810  185769.600
  16  8   1  0.1529  224262.400
  17  16   1  0.1410  267776.000
  18  17   1  0.1327  179075.200
  19  18   1  0.1229  476976.000
  20  18   1  0.1522  265265.600
  21  20   1  0.1529  224262.400
  22  21   1  0.1810  185769.600
  23  8   1  0.1529  224262.400
  24  23   1  0.1410  267776.000
  25  24   1  0.1410  267776.000
  26  25   1  0.1529  224262.400
  27  26   1  0.1529  224262.400
  28  27   1  0.1410  267776.000
  29  28   1  0.1327  179075.200
  30  29   1  0.1229  476976.000
  31  29   1  0.1522  265265.600
  32  31   1  0.1529  224262.400
  33  32   1  0.1810  185769.600
  34  26   1  0.1529  224262.400
  35  34   1  0.1410  267776.000
  36  35   1  0.1327  179075.200
  37  36   1  0.1229  476976.000
  38  36   1  0.1522  265265.600
  39  38   1  0.1529  224262.400
  40  39   1  0.1810  185769.600
  41  26   1  0.1529  224262.400
  42  41   1  0.1410  267776.000
  43  42   1  0.1327  179075.200
  44  43   1  0.1229  476976.000
  45  43   1  0.1522  265265.600
  46  45   1  0.1529  224262.400
  47  46   1  0.1810  185769.600
  48  1   1  0.1336  229283.200
  49  2   1  0.1090  284512.000
  50  2   1  0.1090  284512.000
  51  3   1  0.1090  284512.000
  52  3   1  0.1090  284512.000
  53  7   1  0.1090  284512.000
  54  7   1  0.1090  284512.000
  55  9   1  0.1090  284512.000
  56  9   1  0.1090  284512.000
  57  13   1  0.1090  284512.000
  58  13   1  0.1090  284512.000
  59  14   1  0.1090  284512.000
  60  14   1  0.1090  284512.000
  61  15   1  0.1336  229283.200
  62  16   1  0.1090  284512.000
  63  16   1  0.1090  284512.000
  64  20   1  0.1090  284512.000
  65  20   1  0.1090  284512.000
  66  21   1  0.1090  284512.000
  67  21   1  0.1090  284512.000
  68  22   1  0.1336  229283.200
  69  23   1  0.1090  284512.000
  70  23   1  0.1090  284512.000
  71  25   1  0.1090  284512.000
  72  25   1  0.1090  284512.000
  73  27   1  0.1090  284512.000
  74  27   1  0.1090  284512.000
  75  31   1  0.1090  284512.000
  76  31   1  0.1090  284512.000
  77  32   1  0.1090  284512.000
  78  32   1  0.1090  284512.000
  79  33   1  0.1336  229283.200
  80  34   1  0.1090  284512.000
  81  34   1  0.1090  284512.000
  82  38   1  0.1090  284512.000
  83  38   1  0.1090  284512.000
  84  39   1  0.1090  284512.000
  85  39   1  0.1090  284512.000
  86  40   1  0.1336  229283.200
  87  41   1  0.1090  284512.000
  88  41   1  0.1090  284512.000
  89  45   1  0.1090  284512.000
  90  45   1  0.1090  284512.000
  91  46   1  0.1090  284512.000
  92  46   1  0.1090  284512.000
  93  47   1  0.1336  229283.200

[ angles ]
  1  2  3   1  108.600  418.400
  2  3  4   1  111.100  527.184
  3  4  5   1  120.400  669.440
  3  4  6   1  111.400  677.808
  4  6  7   1  116.900  694.544
  6  7  8   1  109.500  418.400
  7  8  9   1  112.700  488.273
  8  9  10   1  109.500  418.400
  9  10  11   1  116.900  694.544
  10  11  12   1  123.400  694.544
  10  11  13   1  111.400  677.808
  11  13  14   1  111.100  527.184
  13  14  15   1  108.600  418.400
  7  8  16   1  112.700  488.273
  8  16  17   1  109.500  418.400
  16  17  18   1  116.900  694.544
  17  18  19   1  123.400  694.544
  17  18  20   1  111.400  677.808
  18  20  21   1  111.100  527.184
  20  21  22   1  108.600  418.400
  7  8  23   1  112.700  488.273
  8  23  24   1  109.500  418.400
  23  24  25   1  109.500  502.080
  24  25  26   1  109.500  418.400
  25  26  27   1  112.700  488.273
  26  27  28   1  109.500  418.400
  27  28  29   1  116.900  694.544
  28  29  30   1  123.400  694.544
  28  29  31   1  111.400  677.808
  29  31  32   1  111.100  527.184
  31  32  33   1  108.600  418.400
  25  26  34   1  112.700  488.273
  26  34  35   1  109.500  418.400
  34  35  36   1  116.900  694.544
  35  36  37   1  123.400  694.544
  35  36  38   1  111.400  677.808
  36  38  39   1  111.100  527.184
  38  39  40   1  108.600  418.400
  25  26  41   1  112.700  488.273
  26  41  42   1  109.500  418.400
  41  42  43   1  116.900  694.544
  42  43  44   1  123.400  694.544
  42  43  45   1  111.400  677.808
  43  45  46   1  111.100  527.184
  45  46  47   1  108.600  418.400
  2  1  48   1  96.000  368.192
  1  2  49   1  109.500  292.880
  1  2  50   1  109.500  292.880
  2  3  51   1  110.700  313.800
  2  3  52   1  110.700  313.800
  6  7  53   1  109.500  292.880
  6  7  54   1  109.500  292.880
  8  9  55   1  110.700  313.800
  8  9  56   1  110.700  313.800
  11  13  57   1  109.500  292.880
  11  13  58   1  109.500  292.880
  13  14  59   1  110.700  313.800
  13  14  60   1  110.700  313.800
  14  15  61   1  96.000  368.192
  8  16  62   1  110.700  313.800
  8  16  63   1  110.700  313.800
  18  20  64   1  109.500  292.880
  18  20  65   1  109.500  292.880
  20  21  66   1  110.700  313.800
  20  21  67   1  110.700  313.800
  21  22  68   1  96.000  368.192
  8  23  69   1  110.700  313.800
  8  23  70   1  110.700  313.800
  24  25  71   1  109.500  292.880
  24  25  72   1  109.500  292.880
  26  27  73   1  110.700  313.800
  26  27  74   1  110.700  313.800
  29  31  75   1  109.500  292.880
  29  31  76   1  109.500  292.880
  31  32  77   1  110.700  313.800
  31  32  78   1  110.700  313.800
  32  33  79   1  96.000  368.192
  26  34  80   1  110.700  313.800
  26  34  81   1  110.700  313.800
  36  38  82   1  109.500  292.880
  36  38  83   1  109.500  292.880
  38  39  84   1  110.700  313.800
  38  39  85   1  110.700  313.800
  39  40  86   1  96.000  368.192
  26  41  87   1  110.700  313.800
  26  41  88   1  110.700  313.800
  43  45  89   1  109.500  292.880
  43  45  90   1  109.500  292.880
  45  46  91   1  110.700  313.800
  45  46  92   1  110.700  313.800
  46  47  93   1  96.000  368.192
  30  29  31   1  120.400  669.440
  71  25  72   1  107.800  276.144
  75  31  76   1  107.800  276.144
  3  2  49   1  110.700  313.800
  15  14  60   1  109.500  292.880
  53  7  54   1  107.800  276.144
  40  39  84   1  109.500  292.880
  17  16  62   1  109.500  292.880
  77  32  78   1  107.800  276.144
  3  2  50   1  110.700  313.800
  15  14  59   1  109.500  292.880
  33  32  78   1  109.500  292.880
  24  23  69   1  109.500  292.880
  69  23  70   1  107.800  276.144
  28  27  74   1  109.500  292.880
  49  2  50   1  107.800  276.144
  33  32  77   1  109.500  292.880
  73  27  74   1  107.800  276.144
  9  8  16   1  112.700  488.273
  87  41  88   1  107.800  276.144
  51  3  52   1  107.800  276.144
  64  20  65   1  107.800  276.144
  4  3  52   1  109.500  292.880
  5  4  6   1  123.400  694.544
  32  31  76   1  110.700  313.800
  40  39  85   1  109.500  292.880
  26  25  71   1  110.700  313.800
  37  36  38   1  120.400  669.440
  10  9  56   1  109.500  292.880
  59  14  60   1  107.800  276.144
  22  21  66   1  109.500  292.880
  66  21  67   1  107.800  276.144
  35  34  81   1  109.500  292.880
  57  13  58   1  107.800  276.144
  28  27  73   1  109.500  292.880
  14  13  57   1  110.700  313.800
  8  7  54   1  110.700  313.800
  34  26  41   1  112.700  488.273
  44  43  45   1  120.400  669.440
  47  46  92   1  109.500  292.880
  26  25  72   1  110.700  313.800
  32  31  75   1  110.700  313.800
  4  3  51   1  109.500  292.880
  46  45  90   1  110.700  313.800
  9  8  23   1  112.700  488.273
  35  34  80   1  109.500  292.880
  27  26  41   1  112.700  488.273
  80  34  81   1  107.800  276.144
  24  23  70   1  109.500  292.880
  22  21  67   1  109.500  292.880
  19  18  20   1  120.400  669.440
  42  41  87   1  109.500  292.880
  42  41  88   1  109.500  292.880
  16  8  23   1  112.700  488.273
  39  38  82   1  110.700  313.800
  46  45  89   1  110.700  313.800
  82  38  83   1  107.800  276.144
  14  13  58   1  110.700  313.800
  21  20  64   1  110.700  313.800
  55  9  56   1  107.800  276.144
  21  20  65   1  110.700  313.800
  89  45  90   1  107.800  276.144
  62  16  63   1  107.800  276.144
  47  46  91   1  109.500  292.880
  10  9  55   1  109.500  292.880
  91  46  92   1  107.800  276.144
  84  39  85   1  107.800  276.144
  27  26  34   1  112.700  488.273
  12  11  13   1  120.400  669.440
  39  38  83   1  110.700  313.800
  8  7  53   1  110.700  313.800
  17  16  63   1  109.500  292.880

[ dihedrals ]
  31  29  28  30   4  180.000  43.932  2
  45  43  42  44   4  180.000  43.932  2
  38  36  35  37   4  180.000  43.932  2
  20  18  17  19   4  180.000  43.932  2
  13  11  10  12   4  180.000  43.932  2
  6  4  3  5   4  180.000  43.932  2
  4  3  2  1   3  -16.259  9.088  7.171  -0.000  -0.000  0.000
  36  35  34  26   3  -2.197  5.201  0.527  -3.531  -0.000  0.000
  18  17  16  8   3  -2.197  5.201  0.527  -3.531  -0.000  0.000
  43  42  41  26   3  -2.197  5.201  0.527  -3.531  -0.000  0.000
  11  10  9  8   3  -2.197  5.201  0.527  -3.531  -0.000  0.000
  29  28  27  26   3  -2.197  5.201  0.527  -3.531  -0.000  0.000
  20  18  17  16   3  31.206  -9.768  -21.439  -0.000  -0.000  0.000
  13  11  10  9   3  31.206  -9.768  -21.439  -0.000  -0.000  0.000
  31  29  28  27   3  31.206  -9.768  -21.439  -0.000  -0.000  0.000
  38  36  35  34   3  31.206  -9.768  -21.439  -0.000  -0.000  0.000
  45  43  42  41   3  31.206  -9.768  -21.439  -0.000  -0.000  0.000
  46  45  43  44   3  0.000  0.000  0.000  -0.000  -0.000  0.000
  21  20  18  19   3  0.000  0.000  0.000  -0.000  -0.000  0.000
  14  13  11  12   3  0.000  0.000  0.000  -0.000  -0.000  0.000
  32  31  29  30   3  0.000  0.000  0.000  -0.000  -0.000  0.000
  39  38  36  37   3  0.000  0.000  0.000  -0.000  -0.000  0.000
  46  45  43  42   3  -1.157  -3.471  0.000  4.628  -0.000  0.000
  32  31  29  28   3  -1.157  -3.471  0.000  4.628  -0.000  0.000
  39  38  36  35   3  -1.157  -3.471  0.000  4.628  -0.000  0.000
  21  20  18  17   3  -1.157  -3.471  0.000  4.628  -0.000  0.000
  14  13  11  10   3  -1.157  -3.471  0.000  4.628  -0.000  0.000
  34  26  27  28   3  2.874  0.582  2.092  -5.548  -0.000  0.000
  41  26  25  24   3  2.874  0.582  2.092  -5.548  -0.000  0.000
  41  26  34  35   3  2.874  0.582  2.092  -5.548  -0.000  0.000
  16  8  9  10   3  2.874  0.582  2.092  -5.548  -0.000  0.000
  23  8  9  10   3  2.874  0.582  2.092  -5.548  -0.000  0.000
  9  8  7  6   3  2.874  0.582  2.092  -5.548  -0.000  0.000
  16  8  7  6   3  2.874  0.582  2.092  -5.548  -0.000  0.000
  23  8  7  6   3  2.874  0.582  2.092  -5.548  -0.000  0.000
  34  26  25  24   3  2.874  0.582  2.092  -5.548  -0.000  0.000
  27  26  25  24   3  2.874  0.582  2.092  -5.548  -0.000  0.000
  23  8  16  17   3  2.874  0.582  2.092  -5.548  -0.000  0.000
  41  26  27  28   3  2.874  0.582  2.092  -5.548  -0.000  0.000
  8  7  6  4   3  -2.197  5.201  0.527  -3.531  -0.000  0.000
  26  25  24  23   3  1.715  2.845  1.046  -5.607  -0.000  0.000
  7  6  4  3   3  31.206  -9.768  -21.439  -0.000  -0.000  0.000
  7  6  4  5   3  21.439  0.000  -21.439  -0.000  -0.000  0.000
  25  24  23  8   3  1.715  2.845  1.046  -5.607  -0.000  0.000
  57  13  11  12   3  0.000  0.000  0.000  -0.000  -0.000  0.000
  51  3  4  5   3  0.000  0.000  0.000  -0.000  -0.000  0.000
  83  38  36  37   3  0.000  0.000  0.000  -0.000  -0.000  0.000
  89  45  43  44   3  0.000  0.000  0.000  -0.000  -0.000  0.000
  65  20  18  19   3  0.000  0.000  0.000  -0.000  -0.000  0.000
  75  31  29  30   3  0.000  0.000  0.000  -0.000  -0.000  0.000
  82  38  36  37   3  0.000  0.000  0.000  -0.000  -0.000  0.000
  90  45  43  44   3  0.000  0.000  0.000  -0.000  -0.000  0.000
  64  20  18  19   3  0.000  0.000  0.000  -0.000  -0.000  0.000
  76  31  29  30   3  0.000  0.000  0.000  -0.000  -0.000  0.000
  58  13  11  12   3  0.000  0.000  0.000  -0.000  -0.000  0.000
  52  3  4  5   3  0.000  0.000  0.000  -0.000  -0.000  0.000
  76  31  29  28   3  0.276  0.828  0.000  -1.105  -0.000  0.000
  64  20  18  17   3  0.276  0.828  0.000  -1.105  -0.000  0.000
  52  3  4  6   3  0.276  0.828  0.000  -1.105  -0.000  0.000
  65  20  18  17   3  0.276  0.828  0.000  -1.105  -0.000  0.000
  51  3  4  6   3  0.276  0.828  0.000  -1.105  -0.000  0.000
  89  45  43  42   3  0.276  0.828  0.000  -1.105  -0.000  0.000
  58  13  11  10   3  0.276  0.828  0.000  -1.105  -0.000  0.000
  75  31  29  28   3  0.276  0.828  0.000  -1.105  -0.000  0.000
  57  13  11  10   3  0.276  0.828  0.000  -1.105  -0.000  0.000
  90  45  43  42   3  0.276  0.828  0.000  -1.105  -0.000  0.000
  82  38  36  35   3  0.276  0.828  0.000  -1.105  -0.000  0.000
  83  38  36  35   3  0.276  0.828  0.000  -1.105  -0.000  0.000
  77  32  31  29   3  -0.209  -0.628  0.000  0.837  -0.000  0.000
  59  14  13  11   3  -0.209  -0.628  0.000  0.837  -0.000  0.000
  49  2  3  4   3  -0.209  -0.628  0.000  0.837  -0.000  0.000
  50  2  3  4   3  -0.209  -0.628  0.000  0.837  -0.000  0.000
  78  32  31  29   3  -0.209  -0.628  0.000  0.837  -0.000  0.000
  85  39  38  36   3  -0.209  -0.628  0.000  0.837  -0.000  0.000
  91  46  45  43   3  -0.209  -0.628  0.000  0.837  -0.000  0.000
  84  39  38  36   3  -0.209  -0.628  0.000  0.837  -0.000  0.000
  60  14  13  11   3  -0.209  -0.628  0.000  0.837  -0.000  0.000
  66  21  20  18   3  -0.209  -0.628  0.000  0.837  -0.000  0.000
  67  21  20  18   3  -0.209  -0.628  0.000  0.837  -0.000  0.000
  92  46  45  43   3  -0.209  -0.628  0.000  0.837  -0.000  0.000
  81  34  26  25   3  0.628  1.883  0.000  -2.510  -0.000  0.000
  56  9  8  16   3  0.628  1.883  0.000  -2.510  -0.000  0.000
  53  7  8  9   3  0.628  1.883  0.000  -2.510  -0.000  0.000
  56  9  8  7   3  0.628  1.883  0.000  -2.510  -0.000  0.000
  72  25  26  27   3  0.628  1.883  0.000  -2.510  -0.000  0.000
  70  23  8  9   3  0.628  1.883  0.000  -2.510  -0.000  0.000
  72  25  26  41   3  0.628  1.883  0.000  -2.510  -0.000  0.000
  74  27  26  41   3  0.628  1.883  0.000  -2.510  -0.000  0.000
  73  27  26  41   3  0.628  1.883  0.000  -2.510  -0.000  0.000
  53  7  8  23   3  0.628  1.883  0.000  -2.510  -0.000  0.000
  70  23  8  16   3  0.628  1.883  0.000  -2.510  -0.000  0.000
  81  34  26  27   3  0.628  1.883  0.000  -2.510  -0.000  0.000
  88  41  26  34   3  0.628  1.883  0.000  -2.510  -0.000  0.000
  63  16  8  23   3  0.628  1.883  0.000  -2.510  -0.000  0.000
  74  27  26  25   3  0.628  1.883  0.000  -2.510  -0.000  0.000
  80  34  26  25   3  0.628  1.883  0.000  -2.510  -0.000  0.000
  71  25  26  27   3  0.628  1.883  0.000  -2.510  -0.000  0.000
  55  9  8  16   3  0.628  1.883  0.000  -2.510  -0.000  0.000
  87  41  26  34   3  0.628  1.883  0.000  -2.510  -0.000  0.000
  73  27  26  34   3  0.628  1.883  0.000  -2.510  -0.000  0.000
  63  16  8  7   3  0.628  1.883  0.000  -2.510  -0.000  0.000
  62  16  8  7   3  0.628  1.883  0.000  -2.510  -0.000  0.000
  55  9  8  7   3  0.628  1.883  0.000  -2.510  -0.000  0.000
  69  23  8  16   3  0.628  1.883  0.000  -2.510  -0.000  0.000
  71  25  26  34   3  0.628  1.883  0.000  -2.510  -0.000  0.000
  80  34  26  27   3  0.628  1.883  0.000  -2.510  -0.000  0.000
  69  23  8  9   3  0.628  1.883  0.000  -2.510  -0.000  0.000
  74  27  26  34   3  0.628  1.883  0.000  -2.510  -0.000  0.000
  70  23  8  7   3  0.628  1.883  0.000  -2.510  -0.000  0.000
  72  25  26  34   3  0.628  1.883  0.000  -2.510  -0.000  0.000
  56  9  8  23   3  0.628  1.883  0.000  -2.510  -0.000  0.000
  54  7  8  23   3  0.628  1.883  0.000  -2.510  -0.000  0.000
  54  7  8  9   3  0.628  1.883  0.000  -2.510  -0.000  0.000
  71  25  26  41   3  0.628  1.883  0.000  -2.510  -0.000  0.000
  55  9  8  23   3  0.628  1.883  0.000  -2.510  -0.000  0.000
  62  16  8  9   3  0.628  1.883  0.000  -2.510  -0.000  0.000
  54  7  8  16   3  0.628  1.883  0.000  -2.510  -0.000  0.000
  88  41  26  27   3  0.628  1.883  0.000  -2.510  -0.000  0.000
  80  34  26  41   3  0.628  1.883  0.000  -2.510  -0.000  0.000
  87  41  26  27   3  0.628  1.883  0.000  -2.510  -0.000  0.000
  73  27  26  25   3  0.628  1.883  0.000  -2.510  -0.000  0.000
  81  34  26  41   3  0.628  1.883  0.000  -2.510  -0.000  0.000
  53  7  8  16   3  0.628  1.883  0.000  -2.510  -0.000  0.000
  87  41  26  25   3  0.628  1.883  0.000  -2.510  -0.000  0.000
  88  41  26  25   3  0.628  1.883  0.000  -2.510  -0.000  0.000
  62  16  8  23   3  0.628  1.883  0.000  -2.510  -0.000  0.000
  63  16  8  9   3  0.628  1.883  0.000  -2.510  -0.000  0.000
  69  23  8  7   3  0.628  1.883  0.000  -2.510  -0.000  0.000
  59  14  13  58   3  0.628  1.883  0.000  -2.510  -0.000  0.000
  78  32  31  76   3  0.628  1.883  0.000  -2.510  -0.000  0.000
  67  21  20  65   3  0.628  1.883  0.000  -2.510  -0.000  0.000
  60  14  13  57   3  0.628  1.883  0.000  -2.510  -0.000  0.000
  92  46  45  89   3  0.628  1.883  0.000  -2.510  -0.000  0.000
  60  14  13  58   3  0.628  1.883  0.000  -2.510  -0.000  0.000
  66  21  20  64   3  0.628  1.883  0.000  -2.510  -0.000  0.000
  52  3  2  50   3  0.628  1.883  0.000  -2.510  -0.000  0.000
  66  21  20  65   3  0.628  1.883  0.000  -2.510  -0.000  0.000
  67  21  20  64   3  0.628  1.883  0.000  -2.510  -0.000  0.000
  59  14  13  57   3  0.628  1.883  0.000  -2.510  -0.000  0.000
  92  46  45  90   3  0.628  1.883  0.000  -2.510  -0.000  0.000
  84  39  38  82   3  0.628  1.883  0.000  -2.510  -0.000  0.000
  51  3  2  49   3  0.628  1.883  0.000  -2.510  -0.000  0.000
  77  32  31  75   3  0.628  1.883  0.000  -2.510  -0.000  0.000
  51  3  2  50   3  0.628  1.883  0.000  -2.510  -0.000  0.000
  85  39  38  83   3  0.628  1.883  0.000  -2.510  -0.000  0.000
  78  32  31  75   3  0.628  1.883  0.000  -2.510  -0.000  0.000
  77  32  31  76   3  0.628  1.883  0.000  -2.510  -0.000  0.000
  91  46  45  90   3  0.628  1.883  0.000  -2.510  -0.000  0.000
  85  39  38  82   3  0.628  1.883  0.000  -2.510  -0.000  0.000
  91  46  45  89   3  0.628  1.883  0.000  -2.510  -0.000  0.000
  84  39  38  83   3  0.628  1.883  0.000  -2.510  -0.000  0.000
  52  3  2  49   3  0.628  1.883  0.000  -2.510  -0.000  0.000
  90  45  46  47   3  0.946  2.837  0.000  -3.782  -0.000  0.000
  75  31  32  33   3  0.946  2.837  0.000  -3.782  -0.000  0.000
  64  20  21  22   3  0.946  2.837  0.000  -3.782  -0.000  0.000
  89  45  46  47   3  0.946  2.837  0.000  -3.782  -0.000  0.000
  51  3  2  1   3  0.946  2.837  0.000  -3.782  -0.000  0.000
  82  38  39  40   3  0.946  2.837  0.000  -3.782  -0.000  0.000
  57  13  14  15   3  0.946  2.837  0.000  -3.782  -0.000  0.000
  52  3  2  1   3  0.946  2.837  0.000  -3.782  -0.000  0.000
  58  13  14  15   3  0.946  2.837  0.000  -3.782  -0.000  0.000
  76  31  32  33   3  0.946  2.837  0.000  -3.782  -0.000  0.000
  83  38  39  40   3  0.946  2.837  0.000  -3.782  -0.000  0.000
  65  20  21  22   3  0.946  2.837  0.000  -3.782  -0.000  0.000
  54  7  6  4   3  0.414  1.243  0.000  -1.657  -0.000  0.000
  53  7  6  4   3  0.414  1.243  0.000  -1.657  -0.000  0.000
  56  9  10  11   3  0.414  1.243  0.000  -1.657  -0.000  0.000
  62  16  17  18   3  0.414  1.243  0.000  -1.657  -0.000  0.000
  88  41  42  43   3  0.414  1.243  0.000  -1.657  -0.000  0.000
  87  41  42  43   3  0.414  1.243  0.000  -1.657  -0.000  0.000
  81  34  35  36   3  0.414  1.243  0.000  -1.657  -0.000  0.000
  80  34  35  36   3  0.414  1.243  0.000  -1.657  -0.000  0.000
  74  27  28  29   3  0.414  1.243  0.000  -1.657  -0.000  0.000
  55  9  10  11   3  0.414  1.243  0.000  -1.657  -0.000  0.000
  73  27  28  29   3  0.414  1.243  0.000  -1.657  -0.000  0.000
  63  16  17  18   3  0.414  1.243  0.000  -1.657  -0.000  0.000
  70  23  24  25   3  1.590  4.770  0.000  -6.360  -0.000  0.000
  69  23  24  25   3  1.590  4.770  0.000  -6.360  -0.000  0.000
  72  25  24  23   3  1.590  4.770  0.000  -6.360  -0.000  0.000
  71  25  24  23   3  1.590  4.770  0.000  -6.360  -0.000  0.000
  50  2  1  48   3  1.004  3.012  0.000  -4.017  -0.000  0.000
  49  2  1  48   3  1.004  3.012  0.000  -4.017  -0.000  0.000
  48  1  2  3   3  -1.345  5.856  1.180  -5.690  -0.000  0.000
  93  47  46  45   3  -1.345  5.856  1.180  -5.690  -0.000  0.000
  61  15  14  13   3  -1.345  5.856  1.180  -5.690  -0.000  0.000
  79  33  32  31   3  -1.345  5.856  1.180  -5.690  -0.000  0.000
  86  40  39  38   3  -1.345  5.856  1.180  -5.690  -0.000  0.000
  68  22  21  20   3  -1.345  5.856  1.180  -5.690  -0.000  0.000
  68  22  21  67   3  1.004  3.012  0.000  -4.017  -0.000  0.000
  93  47  46  91   3  1.004  3.012  0.000  -4.017  -0.000  0.000
  79  33  32  78   3  1.004  3.012  0.000  -4.017  -0.000  0.000
  86  40  39  84   3  1.004  3.012  0.000  -4.017  -0.000  0.000
  86  40  39  85   3  1.004  3.012  0.000  -4.017  -0.000  0.000
  68  22  21  66   3  1.004  3.012  0.000  -4.017  -0.000  0.000
  93  47  46  92   3  1.004  3.012  0.000  -4.017  -0.000  0.000
  61  15  14  59   3  1.004  3.012  0.000  -4.017  -0.000  0.000
  79  33  32  77   3  1.004  3.012  0.000  -4.017  -0.000  0.000
  61  15  14  60   3  1.004  3.012  0.000  -4.017  -0.000  0.000
  5  4  3  2   3  0.000  0.000  0.000  -0.000  -0.000  0.000
  37  36  35  34   3  21.439  0.000  -21.439  -0.000  -0.000  0.000
  19  18  17  16   3  21.439  0.000  -21.439  -0.000  -0.000  0.000
  12  11  10  9   3  21.439  0.000  -21.439  -0.000  -0.000  0.000
  30  29  28  27   3  21.439  0.000  -21.439  -0.000  -0.000  0.000
  44  43  42  41   3  21.439  0.000  -21.439  -0.000  -0.000  0.000
  6  4  3  2   3  -1.157  -3.471  0.000  4.628  -0.000  0.000
  28  27  26  25   3  2.874  0.582  2.092  -5.548  -0.000  0.000
  24  23  8  9   3  2.874  0.582  2.092  -5.548  -0.000  0.000
  17  16  8  9   3  2.874  0.582  2.092  -5.548  -0.000  0.000
  42  41  26  34   3  2.874  0.582  2.092  -5.548  -0.000  0.000
  35  34  26  27   3  2.874  0.582  2.092  -5.548  -0.000  0.000
  10  9  8  7   3  2.874  0.582  2.092  -5.548  -0.000  0.000
  42  41  26  27   3  2.874  0.582  2.092  -5.548  -0.000  0.000
  24  23  8  7   3  2.874  0.582  2.092  -5.548  -0.000  0.000
  42  41  26  25   3  2.874  0.582  2.092  -5.548  -0.000  0.000
  17  16  8  7   3  2.874  0.582  2.092  -5.548  -0.000  0.000
  24  23  8  16   3  2.874  0.582  2.092  -5.548  -0.000  0.000
  35  34  26  25   3  2.874  0.582  2.092  -5.548  -0.000  0.000
  47  46  45  43   3  -16.259  9.088  7.171  -0.000  -0.000  0.000
  40  39  38  36   3  -16.259  9.088  7.171  -0.000  -0.000  0.000
  33  32  31  29   3  -16.259  9.088  7.171  -0.000  -0.000  0.000
  22  21  20  18   3  -16.259  9.088  7.171  -0.000  -0.000  0.000
  15  14  13  11   3  -16.259  9.088  7.171  -0.000  -0.000  0.000

[ pairs ]
  1  4   1
  2  5   1
  2  6   1
  3  7   1
  5  7   1
  4  8   1
  6  9   1
  7  10   1
  8  11   1
  9  12   1
  9  13   1
  6  16   1
  10  14   1
  7  17   1
  12  14   1
  11  15   1
  10  16   1
  9  17   1
  8  18   1
  6  23   1
  7  24   1
  10  23   1
  9  24   1
  8  25   1
  16  19   1
  16  20   1
  17  21   1
  19  21   1
  18  22   1
  17  23   1
  16  24   1
  23  26   1
  24  27   1
  3  48   1
  1  51   1
  25  28   1
  4  49   1
  1  52   1
  4  50   1
  26  29   1
  5  51   1
  27  30   1
  6  51   1
  5  52   1
  4  53   1
  27  31   1
  24  34   1
  6  52   1
  4  54   1
  28  32   1
  25  35   1
  30  32   1
  29  33   1
  28  34   1
  27  35   1
  26  36   1
  9  53   1
  7  55   1
  9  54   1
  7  56   1
  24  41   1
  11  55   1
  25  42   1
  11  56   1
  10  57   1
  10  58   1
  28  41   1
  27  42   1
  26  43   1
  16  53   1
  12  57   1
  7  62   1
  16  54   1
  12  58   1
  11  59   1
  7  63   1
  34  37   1
  16  55   1
  11  60   1
  9  62   1
  34  38   1
  16  56   1
  15  57   1
  9  63   1
  15  58   1
  35  39   1
  13  61   1
  37  39   1
  36  40   1
  35  41   1
  34  42   1
  23  53   1
  7  69   1
  23  54   1
  7  70   1
  23  55   1
  9  69   1
  23  56   1
  9  70   1
  18  62   1
  18  63   1
  17  64   1
  17  65   1
  19  64   1
  19  65   1
  18  66   1
  41  44   1
  23  62   1
  18  67   1
  16  69   1
  41  45   1
  23  63   1
  22  64   1
  16  70   1
  22  65   1
  42  46   1
  20  68   1
  44  46   1
  43  47   1
  25  69   1
  23  71   1
  25  70   1
  23  72   1
  48  49   1
  48  50   1
  27  71   1
  25  73   1
  27  72   1
  25  74   1
  49  51   1
  50  51   1
  49  52   1
  50  52   1
  29  73   1
  29  74   1
  28  75   1
  28  76   1
  34  71   1
  30  75   1
  25  80   1
  34  72   1
  30  76   1
  29  77   1
  25  81   1
  34  73   1
  29  78   1
  27  80   1
  34  74   1
  33  75   1
  27  81   1
  33  76   1
  31  79   1
  41  71   1
  25  87   1
  41  72   1
  25  88   1
  41  73   1
  27  87   1
  41  74   1
  27  88   1
  57  59   1
  36  80   1
  58  59   1
  57  60   1
  36  81   1
  35  82   1
  58  60   1
  35  83   1
  37  82   1
  59  61   1
  37  83   1
  36  84   1
  60  61   1
  41  80   1
  36  85   1
  34  87   1
  41  81   1
  40  82   1
  34  88   1
  40  83   1
  38  86   1
  64  66   1
  43  87   1
  65  66   1
  64  67   1
  43  88   1
  42  89   1
  65  67   1
  42  90   1
  44  89   1
  66  68   1
  44  90   1
  43  91   1
  67  68   1
  43  92   1
  47  89   1
  47  90   1
  45  93   1
  75  77   1
  76  77   1
  75  78   1
  76  78   1
  77  79   1
  78  79   1
  82  84   1
  83  84   1
  82  85   1
  83  85   1
  84  86   1
  85  86   1
  89  91   1
  90  91   1
  89  92   1
  90  92   1
  91  93   1
  92  93   1
