; Generated by build_peg_component.py from raw/PEG4.itp
; (LigParGen OPLS-AA / 1.14*CM1A-LBCC, SMILES OCCOCCOCCOCCO = HO(CH2CH2O)4H).
; Types renamed with the 'pg' prefix; [ atomtypes ] live in forcefield.itp.
; apply_charges.py neutralize -- 2026-09-15T20:02:49+09:00
; source itp: PEG.itp sha256 4dc256b5c72d90b59961e5568276bd2bb9352f73c03bfaa25f7106d351b88e86
; target total +0 e; before +0.000600, after +0.000000 (exact at 6 decimals)
; neutralization rule heavy: 13 atom(s) adjusted, max |dq| over all atoms 0.000048 e
; adjustments: 13 atom(s) -0.000046 each; O00 -0.000048
[ moleculetype ]
  PEG     3

[ atoms ]
     1  pg800       1  PEG   O00       1  -0.688848  15.9990
     2  pg801       1  PEG   C01       1   0.108454  12.0110
     3  pg802       1  PEG   C02       1   0.008354  12.0110
     4  pg803       1  PEG   O03       1  -0.385446  15.9990
     5  pg804       1  PEG   C04       1   0.008554  12.0110
     6  pg805       1  PEG   C05       1   0.008754  12.0110
     7  pg806       1  PEG   O06       1  -0.384946  15.9990
     8  pg807       1  PEG   C07       1   0.008854  12.0110
     9  pg808       1  PEG   C08       1   0.006854  12.0110
    10  pg809       1  PEG   O09       1  -0.399346  15.9990
    11  pg810       1  PEG   C0A       1  -0.040946  12.0110
    12  pg811       1  PEG   C0B       1   0.108154  12.0110
    13  pg812       1  PEG   O0C       1  -0.685846  15.9990
    14  pg813       1  PEG   H0D       1   0.417700  1.0080
    15  pg814       1  PEG   H0E       1   0.082300  1.0080
    16  pg815       1  PEG   H0F       1   0.082300  1.0080
    17  pg816       1  PEG   H0G       1   0.092600  1.0080
    18  pg817       1  PEG   H0H       1   0.092600  1.0080
    19  pg818       1  PEG   H0I       1   0.091600  1.0080
    20  pg819       1  PEG   H0J       1   0.091600  1.0080
    21  pg820       1  PEG   H0K       1   0.091700  1.0080
    22  pg821       1  PEG   H0M       1   0.091700  1.0080
    23  pg822       1  PEG   H0N       1   0.091400  1.0080
    24  pg823       1  PEG   H0O       1   0.091400  1.0080
    25  pg824       1  PEG   H0P       1   0.092000  1.0080
    26  pg825       1  PEG   H0Q       1   0.092000  1.0080
    27  pg826       1  PEG   H0R       1   0.094600  1.0080
    28  pg827       1  PEG   H0S       1   0.094600  1.0080
    29  pg828       1  PEG   H0T       1   0.106900  1.0080
    30  pg829       1  PEG   H0U       1   0.106900  1.0080
    31  pg830       1  PEG   H0V       1   0.423500  1.0080

[ bonds ]
  2  1  1  0.1410  267776.000
  3  2  1  0.1529  224262.400
  4  3  1  0.1410  267776.000
  5  4  1  0.1410  267776.000
  6  5  1  0.1529  224262.400
  7  6  1  0.1410  267776.000
  8  7  1  0.1410  267776.000
  9  8  1  0.1529  224262.400
  10  9  1  0.1410  267776.000
  11  10  1  0.1410  267776.000
  12  11  1  0.1529  224262.400
  13  12  1  0.1410  267776.000
  14  1  1  0.0945  462750.400
  15  2  1  0.1090  284512.000
  16  2  1  0.1090  284512.000
  17  3  1  0.1090  284512.000
  18  3  1  0.1090  284512.000
  19  5  1  0.1090  284512.000
  20  5  1  0.1090  284512.000
  21  6  1  0.1090  284512.000
  22  6  1  0.1090  284512.000
  23  8  1  0.1090  284512.000
  24  8  1  0.1090  284512.000
  25  9  1  0.1090  284512.000
  26  9  1  0.1090  284512.000
  27  11  1  0.1090  284512.000
  28  11  1  0.1090  284512.000
  29  12  1  0.1090  284512.000
  30  12  1  0.1090  284512.000
  31  13  1  0.0945  462750.400

[ angles ]
  1  2  3  1  109.500  418.400
  2  3  4  1  109.500  418.400
  3  4  5  1  109.500  502.080
  4  5  6  1  109.500  418.400
  5  6  7  1  109.500  418.400
  6  7  8  1  109.500  502.080
  7  8  9  1  109.500  418.400
  8  9  10  1  109.500  418.400
  9  10  11  1  109.500  502.080
  10  11  12  1  109.500  418.400
  11  12  13  1  109.500  418.400
  2  1  14  1  108.500  460.240
  1  2  15  1  109.500  292.880
  1  2  16  1  109.500  292.880
  2  3  17  1  110.700  313.800
  2  3  18  1  110.700  313.800
  4  5  19  1  109.500  292.880
  4  5  20  1  109.500  292.880
  5  6  21  1  110.700  313.800
  5  6  22  1  110.700  313.800
  7  8  23  1  109.500  292.880
  7  8  24  1  109.500  292.880
  8  9  25  1  110.700  313.800
  8  9  26  1  110.700  313.800
  10  11  27  1  109.500  292.880
  10  11  28  1  109.500  292.880
  11  12  29  1  110.700  313.800
  11  12  30  1  110.700  313.800
  12  13  31  1  108.500  460.240
  25  9  26  1  107.800  276.144
  23  8  24  1  107.800  276.144
  3  2  15  1  110.700  313.800
  29  12  30  1  107.800  276.144
  12  11  27  1  110.700  313.800
  15  2  16  1  107.800  276.144
  7  6  22  1  109.500  292.880
  21  6  22  1  107.800  276.144
  27  11  28  1  107.800  276.144
  6  5  19  1  110.700  313.800
  9  8  23  1  110.700  313.800
  13  12  29  1  109.500  292.880
  3  2  16  1  110.700  313.800
  4  3  18  1  109.500  292.880
  9  8  24  1  110.700  313.800
  19  5  20  1  107.800  276.144
  13  12  30  1  109.500  292.880
  6  5  20  1  110.700  313.800
  10  9  25  1  109.500  292.880
  10  9  26  1  109.500  292.880
  4  3  17  1  109.500  292.880
  17  3  18  1  107.800  276.144
  12  11  28  1  110.700  313.800
  7  6  21  1  109.500  292.880

[ dihedrals ]

[ dihedrals ]
  6  5  4  3  3  1.715  2.845  1.046  -5.607  -0.000  0.000
  9  8  7  6  3  1.715  2.845  1.046  -5.607  -0.000  0.000
  12  11  10  9  3  1.715  2.845  1.046  -5.607  -0.000  0.000
  5  4  3  2  3  1.715  2.845  1.046  -5.607  -0.000  0.000
  8  7  6  5  3  1.715  2.845  1.046  -5.607  -0.000  0.000
  11  10  9  8  3  1.715  2.845  1.046  -5.607  -0.000  0.000
  18  3  2  15  3  0.628  1.883  0.000  -2.510  -0.000  0.000
  18  3  2  16  3  0.628  1.883  0.000  -2.510  -0.000  0.000
  21  6  5  20  3  0.628  1.883  0.000  -2.510  -0.000  0.000
  21  6  5  19  3  0.628  1.883  0.000  -2.510  -0.000  0.000
  22  6  5  19  3  0.628  1.883  0.000  -2.510  -0.000  0.000
  29  12  11  28  3  0.628  1.883  0.000  -2.510  -0.000  0.000
  30  12  11  28  3  0.628  1.883  0.000  -2.510  -0.000  0.000
  17  3  2  16  3  0.628  1.883  0.000  -2.510  -0.000  0.000
  22  6  5  20  3  0.628  1.883  0.000  -2.510  -0.000  0.000
  30  12  11  27  3  0.628  1.883  0.000  -2.510  -0.000  0.000
  17  3  2  15  3  0.628  1.883  0.000  -2.510  -0.000  0.000
  26  9  8  24  3  0.628  1.883  0.000  -2.510  -0.000  0.000
  26  9  8  23  3  0.628  1.883  0.000  -2.510  -0.000  0.000
  29  12  11  27  3  0.628  1.883  0.000  -2.510  -0.000  0.000
  25  9  8  23  3  0.628  1.883  0.000  -2.510  -0.000  0.000
  25  9  8  24  3  0.628  1.883  0.000  -2.510  -0.000  0.000
  28  11  12  13  3  0.979  2.937  0.000  -3.916  -0.000  0.000
  18  3  2  1  3  0.979  2.937  0.000  -3.916  -0.000  0.000
  27  11  12  13  3  0.979  2.937  0.000  -3.916  -0.000  0.000
  17  3  2  1  3  0.979  2.937  0.000  -3.916  -0.000  0.000
  19  5  6  7  3  0.979  2.937  0.000  -3.916  -0.000  0.000
  20  5  6  7  3  0.979  2.937  0.000  -3.916  -0.000  0.000
  30  12  11  10  3  0.979  2.937  0.000  -3.916  -0.000  0.000
  26  9  8  7  3  0.979  2.937  0.000  -3.916  -0.000  0.000
  24  8  9  10  3  0.979  2.937  0.000  -3.916  -0.000  0.000
  22  6  5  4  3  0.979  2.937  0.000  -3.916  -0.000  0.000
  23  8  9  10  3  0.979  2.937  0.000  -3.916  -0.000  0.000
  29  12  11  10  3  0.979  2.937  0.000  -3.916  -0.000  0.000
  21  6  5  4  3  0.979  2.937  0.000  -3.916  -0.000  0.000
  25  9  8  7  3  0.979  2.937  0.000  -3.916  -0.000  0.000
  15  2  3  4  3  0.979  2.937  0.000  -3.916  -0.000  0.000
  16  2  3  4  3  0.979  2.937  0.000  -3.916  -0.000  0.000
  16  2  1  14  3  0.736  2.209  0.000  -2.946  -0.000  0.000
  15  2  1  14  3  0.736  2.209  0.000  -2.946  -0.000  0.000
  21  6  7  8  3  1.590  4.770  0.000  -6.360  -0.000  0.000
  24  8  7  6  3  1.590  4.770  0.000  -6.360  -0.000  0.000
  22  6  7  8  3  1.590  4.770  0.000  -6.360  -0.000  0.000
  28  11  10  9  3  1.590  4.770  0.000  -6.360  -0.000  0.000
  26  9  10  11  3  1.590  4.770  0.000  -6.360  -0.000  0.000
  19  5  4  3  3  1.590  4.770  0.000  -6.360  -0.000  0.000
  25  9  10  11  3  1.590  4.770  0.000  -6.360  -0.000  0.000
  17  3  4  5  3  1.590  4.770  0.000  -6.360  -0.000  0.000
  20  5  4  3  3  1.590  4.770  0.000  -6.360  -0.000  0.000
  23  8  7  6  3  1.590  4.770  0.000  -6.360  -0.000  0.000
  18  3  4  5  3  1.590  4.770  0.000  -6.360  -0.000  0.000
  27  11  10  9  3  1.590  4.770  0.000  -6.360  -0.000  0.000
  31  13  12  11  3  -0.444  3.833  0.728  -4.117  -0.000  0.000
  14  1  2  3  3  -0.444  3.833  0.728  -4.117  -0.000  0.000
  31  13  12  30  3  0.736  2.209  0.000  -2.946  -0.000  0.000
  31  13  12  29  3  0.736  2.209  0.000  -2.946  -0.000  0.000
  13  12  11  10  3  9.035  -9.035  0.000  -0.000  -0.000  0.000
  4  3  2  1  3  9.035  -9.035  0.000  -0.000  -0.000  0.000
  7  6  5  4  3  -1.151  1.151  0.000  -0.000  -0.000  0.000
  10  9  8  7  3  -1.151  1.151  0.000  -0.000  -0.000  0.000

[ pairs ]
  1  4  1
  2  5  1
  3  6  1
  4  7  1
  5  8  1
  6  9  1
  7  10  1
  3  14  1
  1  17  1
  8  11  1
  4  15  1
  1  18  1
  4  16  1
  9  12  1
  5  17  1
  3  19  1
  10  13  1
  5  18  1
  3  20  1
  4  21  1
  7  19  1
  4  22  1
  7  20  1
  14  15  1
  8  21  1
  6  23  1
  14  16  1
  8  22  1
  6  24  1
  15  17  1
  7  25  1
  16  17  1
  15  18  1
  10  23  1
  7  26  1
  16  18  1
  10  24  1
  11  25  1
  9  27  1
  11  26  1
  9  28  1
  10  29  1
  19  21  1
  13  27  1
  10  30  1
  20  21  1
  19  22  1
  13  28  1
  20  22  1
  11  31  1
  23  25  1
  24  25  1
  23  26  1
  24  26  1
  27  29  1
  28  29  1
  27  30  1
  28  30  1
  29  31  1
  30  31  1
