STR template (build_templates.py)
73
    1STR   BCK1    1  -1.263   0.275  -0.081
    1STR    O03    2  -1.343   0.236  -0.165
    1STR    N04    3  -1.143   0.222  -0.043
    1STR    C05    4  -1.076   0.106  -0.085
    1STR    C06    5  -0.936   0.108  -0.065
    1STR    C07    6  -0.854   0.002  -0.105
    1STR    N08    7  -0.716   0.015  -0.082
    1STR    C09    8  -0.616  -0.073  -0.112
    1STR    O0A    9  -0.625  -0.183  -0.164
    1STR    O0B   10  -0.498  -0.018  -0.071
    1STR    C0C   11  -0.379  -0.097  -0.095
    1STR    C0D   12  -0.329  -0.071  -0.237
    1STR    C0E   13  -0.275  -0.055   0.010
    1STR    O0F   14  -0.157  -0.134  -0.005
    1STR    C0G   15  -0.053  -0.097   0.087
    1STR    C0H   16  -0.078  -0.160   0.224
    1STR    C0I   17   0.080  -0.146   0.028
    1STR    O0J   18   0.189  -0.103   0.109
    1STR    C0K   19   0.317  -0.148   0.062
    1STR    C0M   20   0.368  -0.056  -0.049
    1STR    C0N   21   0.412  -0.150   0.183
    1STR    O0O   22   0.537  -0.213   0.150
    1STR    C0P   23   0.644  -0.130   0.131
    1STR    O0Q   24   0.639  -0.008   0.137
    1STR    N0R   25   0.753  -0.208   0.104
    1STR    C0S   26   0.885  -0.168   0.078
    1STR    C0T   27   0.978  -0.268   0.052
    1STR    C0U   28   1.110  -0.235   0.023
    1STR    C0V   29   1.154  -0.101   0.018
    1STR    C0W   30   1.296  -0.079  -0.025
    1STR    C0X   31   1.062   0.000   0.050
    1STR    N0Y   32   1.087   0.139   0.056
    1STR   BCK2   33   1.204   0.206   0.080
    1STR    O10   34   1.316   0.165   0.103
    1STR    C13   35   0.927  -0.035   0.076
    1STR    C14   36  -0.912  -0.109  -0.165
    1STR    C15   37  -1.050  -0.114  -0.182
    1STR    C16   38  -1.135  -0.009  -0.140
    1STR    C17   39  -1.282  -0.033  -0.156
    1STR    H1B   40  -1.090   0.288   0.013
    1STR    H1C   41  -0.891   0.195  -0.020
    1STR    H1D   42  -0.682   0.100  -0.038
    1STR    H1E   43  -0.400  -0.204  -0.082
    1STR    H1F   44  -0.309   0.036  -0.252
    1STR    H1G   45  -0.238  -0.128  -0.258
    1STR    H1H   46  -0.405  -0.099  -0.311
    1STR    H1I   47  -0.318  -0.068   0.110
    1STR    H1J   48  -0.251   0.051  -0.002
    1STR    H1K   49  -0.048   0.012   0.097
    1STR    H1M   50  -0.089  -0.269   0.215
    1STR    H1N   51  -0.170  -0.122   0.269
    1STR    H1O   52   0.004  -0.139   0.293
    1STR    H1P   53   0.080  -0.256   0.020
    1STR    H1Q   54   0.091  -0.106  -0.074
    1STR    H1R   55   0.309  -0.250   0.023
    1STR    H1S   56   0.465  -0.088  -0.086
    1STR    H1T   57   0.376   0.047  -0.012
    1STR    H1U   58   0.299  -0.054  -0.133
    1STR    H1V   59   0.367  -0.209   0.263
    1STR    H1W   60   0.425  -0.049   0.225
    1STR    H1X   61   0.732  -0.307   0.104
    1STR    H1Y   62   0.950  -0.373   0.054
    1STR    H1Z   63   1.180  -0.316   0.001
    1STR    H20   64   1.304   0.009  -0.090
    1STR    H21   65   1.361  -0.070   0.062
    1STR    H22   66   1.332  -0.163  -0.085
    1STR    H23   67   1.007   0.200   0.062
    1STR    H27   68   0.856   0.044   0.097
    1STR    H28   69  -0.853  -0.194  -0.199
    1STR    H29   70  -1.093  -0.204  -0.228
    1STR    H2A   71  -1.338   0.007  -0.070
    1STR    H2B   72  -1.305  -0.140  -0.158
    1STR    H2C   73  -1.318   0.010  -0.250
  10.00000  10.00000  10.00000
