; Generated by build_templates.py from raw/STR.itp
; (LigParGen OPLS-AA / 1.14*CM1A-LBCC), reacted/marked form.
; apply_charges.py neutralize -- 2026-09-05T09:29:28+09:00
; source itp: STR.itp sha256 76f49797dcfb1748393b8398b2f69e26585af1f0840cd6f8a469d962f1addaad
; target total +0 e; before -0.000100, after +0.000000 (exact at 6 decimals)
; neutralization rule heavy: 39 atom(s) adjusted, max |dq| over all atoms 0.000014 e
; adjustments: 39 atom(s) +0.000003 each; BCK1 -0.000014
[ moleculetype ]
  STR     3

[ atoms ]
     1  st802       1  STR   BCK1      1   0.593886  12.0110
     2  st803       1  STR   O03       2  -0.425997  15.9990
     3  st804       1  STR   N04       3  -0.956197  14.0070
     4  st805       1  STR   C05       4   0.280903  12.0110
     5  st806       1  STR   C06       5  -0.174097  12.0110
     6  st807       1  STR   C07       6   0.248403  12.0110
     7  st808       1  STR   N08       7  -0.857297  14.0070
     8  st809       1  STR   C09       8   0.715803  12.0110
     9  st810       1  STR   O0A       9  -0.495197  15.9990
    10  st811       1  STR   O0B      10  -0.370497  15.9990
    11  st812       1  STR   C0C      11   0.081203  12.0110
    12  st813       1  STR   C0D      12  -0.281397  12.0110
    13  st814       1  STR   C0E      13   0.010203  12.0110
    14  st815       1  STR   O0F      14  -0.365797  15.9990
    15  st816       1  STR   C0G      15   0.037703  12.0110
    16  st817       1  STR   C0H      16  -0.281797  12.0110
    17  st818       1  STR   C0I      17   0.022603  12.0110
    18  st819       1  STR   O0J      18  -0.356897  15.9990
    19  st820       1  STR   C0K      19   0.016003  12.0110
    20  st821       1  STR   C0M      20  -0.283697  12.0110
    21  st822       1  STR   C0N      21   0.047803  12.0110
    22  st823       1  STR   O0O      22  -0.359997  15.9990
    23  st824       1  STR   C0P      23   0.724003  12.0110
    24  st825       1  STR   O0Q      24  -0.498797  15.9990
    25  st826       1  STR   N0R      25  -0.925797  14.0070
    26  st827       1  STR   C0S      26   0.259903  12.0110
    27  st828       1  STR   C0T      27  -0.173797  12.0110
    28  st829       1  STR   C0U      28  -0.065397  12.0110
    29  st830       1  STR   C0V      29  -0.132997  12.0110
    30  st831       1  STR   C0W      30  -0.193497  12.0110
    31  st832       1  STR   C0X      31   0.226903  12.0110
    32  st833       1  STR   N0Y      32  -0.905197  14.0070
    33  st834       1  STR   BCK2     33   0.576103  12.0110
    34  st835       1  STR   O10      34  -0.436397  15.9990
    35  st838       1  STR   C13      35  -0.184997  12.0110
    36  st839       1  STR   C14      36  -0.148597  12.0110
    37  st840       1  STR   C15      37  -0.112197  12.0110
    38  st841       1  STR   C16      38  -0.120497  12.0110
    39  st842       1  STR   C17      39  -0.195397  12.0110
    40  st846       1  STR   H1B      40   0.524900  1.0080
    41  st847       1  STR   H1C      41   0.164500  1.0080
    42  st848       1  STR   H1D      42   0.475500  1.0080
    43  st849       1  STR   H1E      43   0.112600  1.0080
    44  st850       1  STR   H1F      44   0.105300  1.0080
    45  st851       1  STR   H1G      45   0.105300  1.0080
    46  st852       1  STR   H1H      46   0.105300  1.0080
    47  st853       1  STR   H1I      47   0.115200  1.0080
    48  st854       1  STR   H1J      48   0.115200  1.0080
    49  st855       1  STR   H1K      49   0.093900  1.0080
    50  st856       1  STR   H1M      50   0.093700  1.0080
    51  st857       1  STR   H1N      51   0.093700  1.0080
    52  st858       1  STR   H1O      52   0.093700  1.0080
    53  st859       1  STR   H1P      53   0.111500  1.0080
    54  st860       1  STR   H1Q      54   0.111500  1.0080
    55  st861       1  STR   H1R      55   0.116400  1.0080
    56  st862       1  STR   H1S      56   0.094000  1.0080
    57  st863       1  STR   H1T      57   0.094000  1.0080
    58  st864       1  STR   H1U      58   0.094000  1.0080
    59  st865       1  STR   H1V      59   0.134500  1.0080
    60  st866       1  STR   H1W      60   0.134500  1.0080
    61  st867       1  STR   H1X      61   0.495300  1.0080
    62  st868       1  STR   H1Y      62   0.180700  1.0080
    63  st869       1  STR   H1Z      63   0.176800  1.0080
    64  st870       1  STR   H20      64   0.093200  1.0080
    65  st871       1  STR   H21      65   0.093200  1.0080
    66  st872       1  STR   H22      66   0.093200  1.0080
    67  st873       1  STR   H23      67   0.501900  1.0080
    68  st877       1  STR   H27      68   0.169900  1.0080
    69  st878       1  STR   H28      69   0.155600  1.0080
    70  st879       1  STR   H29      70   0.139600  1.0080
    71  st880       1  STR   H2A      71   0.090800  1.0080
    72  st881       1  STR   H2B      72   0.090800  1.0080
    73  st882       1  STR   H2C      73   0.090800  1.0080

[ bonds ]
  2  1   1  0.1229  476976.000
  3  1   1  0.1335  410032.000
  4  3   1  0.1381  357313.600
  5  4   1  0.1400  392459.200
  6  5   1  0.1400  392459.200
  7  6   1  0.1381  357313.600
  8  7   1  0.1335  410032.000
  9  8   1  0.1229  476976.000
  10  8   1  0.1327  179075.200
  11  10   1  0.1410  267776.000
  12  11   1  0.1529  224262.400
  13  11   1  0.1529  224262.400
  14  13   1  0.1410  267776.000
  15  14   1  0.1410  267776.000
  16  15   1  0.1529  224262.400
  17  15   1  0.1529  224262.400
  18  17   1  0.1410  267776.000
  19  18   1  0.1410  267776.000
  20  19   1  0.1529  224262.400
  21  19   1  0.1529  224262.400
  22  21   1  0.1410  267776.000
  23  22   1  0.1327  179075.200
  24  23   1  0.1229  476976.000
  25  23   1  0.1335  410032.000
  26  25   1  0.1381  357313.600
  27  26   1  0.1400  392459.200
  28  27   1  0.1400  392459.200
  29  28   1  0.1400  392459.200
  30  29   1  0.1510  265265.600
  31  29   1  0.1400  392459.200
  32  31   1  0.1381  357313.600
  33  32   1  0.1335  410032.000
  34  33   1  0.1229  476976.000
  35  26   1  0.1400  392459.200
  36  6   1  0.1400  392459.200
  37  36   1  0.1400  392459.200
  38  4   1  0.1400  392459.200
  39  38   1  0.1510  265265.600
  40  3   1  0.1010  363171.200
  41  5   1  0.1080  307105.600
  42  7   1  0.1010  363171.200
  43  11   1  0.1090  284512.000
  44  12   1  0.1090  284512.000
  45  12   1  0.1090  284512.000
  46  12   1  0.1090  284512.000
  47  13   1  0.1090  284512.000
  48  13   1  0.1090  284512.000
  49  15   1  0.1090  284512.000
  50  16   1  0.1090  284512.000
  51  16   1  0.1090  284512.000
  52  16   1  0.1090  284512.000
  53  17   1  0.1090  284512.000
  54  17   1  0.1090  284512.000
  55  19   1  0.1090  284512.000
  56  20   1  0.1090  284512.000
  57  20   1  0.1090  284512.000
  58  20   1  0.1090  284512.000
  59  21   1  0.1090  284512.000
  60  21   1  0.1090  284512.000
  61  25   1  0.1010  363171.200
  62  27   1  0.1080  307105.600
  63  28   1  0.1080  307105.600
  64  30   1  0.1090  284512.000
  65  30   1  0.1090  284512.000
  66  30   1  0.1090  284512.000
  67  32   1  0.1010  363171.200
  68  35   1  0.1080  307105.600
  69  36   1  0.1080  307105.600
  70  37   1  0.1080  307105.600
  71  39   1  0.1090  284512.000
  72  39   1  0.1090  284512.000
  73  39   1  0.1090  284512.000
  35  31   1  0.1400  392459.200
  38  37   1  0.1400  392459.200

[ angles ]
  1  3  4   1  121.900  418.400
  3  4  5   1  120.000  585.760
  4  5  6   1  120.000  527.184
  5  6  7   1  120.000  585.760
  6  7  8   1  121.900  418.400
  7  8  9   1  122.900  669.440
  7  8  10   1  111.400  677.808
  8  10  11   1  116.900  694.544
  10  11  12   1  109.500  418.400
  10  11  13   1  109.500  418.400
  11  13  14   1  109.500  418.400
  13  14  15   1  109.500  502.080
  14  15  16   1  109.500  418.400
  14  15  17   1  109.500  418.400
  15  17  18   1  109.500  418.400
  17  18  19   1  109.500  502.080
  18  19  20   1  109.500  418.400
  18  19  21   1  109.500  418.400
  19  21  22   1  109.500  418.400
  21  22  23   1  116.900  694.544
  22  23  24   1  123.400  694.544
  22  23  25   1  111.400  677.808
  23  25  26   1  121.900  418.400
  25  26  27   1  120.000  585.760
  26  27  28   1  120.000  527.184
  27  28  29   1  120.000  527.184
  28  29  30   1  120.000  585.760
  28  29  31   1  120.000  527.184
  29  31  32   1  120.000  585.760
  31  32  33   1  121.900  418.400
  32  33  34   1  122.900  669.440
  25  26  35   1  120.000  585.760
  5  6  36   1  120.000  527.184
  6  36  37   1  120.000  527.184
  3  4  38   1  120.000  585.760
  4  38  39   1  120.000  585.760
  1  3  40   1  119.800  292.880
  4  5  41   1  120.000  292.880
  6  7  42   1  119.800  292.880
  10  11  43   1  109.500  292.880
  11  12  44   1  110.700  313.800
  11  12  45   1  110.700  313.800
  11  12  46   1  110.700  313.800
  11  13  47   1  110.700  313.800
  11  13  48   1  110.700  313.800
  14  15  49   1  109.500  292.880
  15  16  50   1  110.700  313.800
  15  16  51   1  110.700  313.800
  15  16  52   1  110.700  313.800
  15  17  53   1  110.700  313.800
  15  17  54   1  110.700  313.800
  18  19  55   1  109.500  292.880
  19  20  56   1  110.700  313.800
  19  20  57   1  110.700  313.800
  19  20  58   1  110.700  313.800
  19  21  59   1  110.700  313.800
  19  21  60   1  110.700  313.800
  23  25  61   1  119.800  292.880
  26  27  62   1  120.000  292.880
  27  28  63   1  120.000  292.880
  29  30  64   1  109.500  292.880
  29  30  65   1  109.500  292.880
  29  30  66   1  109.500  292.880
  31  32  67   1  119.800  292.880
  26  35  68   1  120.000  292.880
  6  36  69   1  120.000  292.880
  36  37  70   1  120.000  292.880
  38  39  71   1  109.500  292.880
  38  39  72   1  109.500  292.880
  38  39  73   1  109.500  292.880
  9  8  10   1  123.400  694.544
  22  21  60   1  109.500  292.880
  50  16  51   1  107.800  276.144
  12  11  13   1  112.700  488.273
  7  6  36   1  120.000  585.760
  16  15  49   1  110.700  313.800
  4  38  37   1  120.000  527.184
  26  35  31   1  120.000  527.184
  28  27  62   1  120.000  292.880
  45  12  46   1  107.800  276.144
  44  12  46   1  107.800  276.144
  33  32  67   1  119.800  292.880
  71  39  72   1  107.800  276.144
  29  28  63   1  120.000  292.880
  20  19  21   1  112.700  488.273
  50  16  52   1  107.800  276.144
  31  35  68   1  120.000  292.880
  30  29  31   1  120.000  585.760
  14  13  48   1  109.500  292.880
  24  23  25   1  122.900  669.440
  72  39  73   1  107.800  276.144
  64  30  65   1  107.800  276.144
  2  1  3   1  122.900  669.440
  4  3  40   1  119.800  292.880
  22  21  59   1  109.500  292.880
  6  5  41   1  120.000  292.880
  17  15  49   1  110.700  313.800
  44  12  45   1  107.800  276.144
  18  17  54   1  109.500  292.880
  32  31  35   1  120.000  585.760
  64  30  66   1  107.800  276.144
  21  19  55   1  110.700  313.800
  65  30  66   1  107.800  276.144
  47  13  48   1  107.800  276.144
  37  38  39   1  120.000  585.760
  51  16  52   1  107.800  276.144
  12  11  43   1  110.700  313.800
  20  19  55   1  110.700  313.800
  53  17  54   1  107.800  276.144
  27  26  35   1  120.000  527.184
  57  20  58   1  107.800  276.144
  13  11  43   1  110.700  313.800
  56  20  58   1  107.800  276.144
  26  25  61   1  119.800  292.880
  38  37  70   1  120.000  292.880
  29  31  35   1  120.000  527.184
  59  21  60   1  107.800  276.144
  14  13  47   1  109.500  292.880
  71  39  73   1  107.800  276.144
  56  20  57   1  107.800  276.144
  18  17  53   1  109.500  292.880
  16  15  17   1  112.700  488.273
  36  37  38   1  120.000  527.184
  8  7  42   1  119.800  292.880
  5  4  38   1  120.000  527.184
  37  36  69   1  120.000  292.880

[ dihedrals ]
  31  29  28  30   4  180.000  10.460  2
  36  6  5  7   4  180.000  10.460  2
  35  26  25  27   4  180.000  10.460  2
  38  4  3  5   4  180.000  10.460  2
  39  38  4  37   4  180.000  10.460  2
  61  25  23  26   4  180.000  10.460  2
  40  3  1  4   4  180.000  10.460  2
  42  7  6  8   4  180.000  10.460  2
  67  32  31  33   4  180.000  10.460  2
  41  5  4  6   4  180.000  10.460  2
  62  27  26  28   4  180.000  10.460  2
  63  28  27  29   4  180.000  10.460  2
  70  37  36  38   4  180.000  10.460  2
  69  36  6  37   4  180.000  10.460  2
  68  35  26  31   4  180.000  10.460  2
  25  23  22  24   4  180.000  43.932  2
  32  31  35  29   4  180.000  10.460  2
  10  8  7  9   4  180.000  43.932  2
  33  32  31  29   3  8.786  0.000  -8.786  -0.000  -0.000  0.000
  8  7  6  5   3  8.786  0.000  -8.786  -0.000  -0.000  0.000
  23  22  21  19   3  -2.197  5.201  0.527  -3.531  -0.000  0.000
  37  38  4  5   3  30.334  0.000  -30.334  -0.000  -0.000  0.000
  36  37  38  4   3  30.334  0.000  -30.334  -0.000  -0.000  0.000
  35  26  27  28   3  30.334  0.000  -30.334  -0.000  -0.000  0.000
  31  29  28  27   3  30.334  0.000  -30.334  -0.000  -0.000  0.000
  36  6  5  4   3  30.334  0.000  -30.334  -0.000  -0.000  0.000
  35  31  29  28   3  30.334  0.000  -30.334  -0.000  -0.000  0.000
  37  36  6  5   3  30.334  0.000  -30.334  -0.000  -0.000  0.000
  29  28  27  26   3  30.334  0.000  -30.334  -0.000  -0.000  0.000
  31  35  26  27   3  30.334  0.000  -30.334  -0.000  -0.000  0.000
  38  37  36  6   3  30.334  0.000  -30.334  -0.000  -0.000  0.000
  29  31  35  26   3  30.334  0.000  -30.334  -0.000  -0.000  0.000
  38  4  5  6   3  30.334  0.000  -30.334  -0.000  -0.000  0.000
  35  31  29  30   3  30.334  0.000  -30.334  -0.000  -0.000  0.000
  6  5  4  3   3  30.334  0.000  -30.334  -0.000  -0.000  0.000
  31  35  26  25   3  30.334  0.000  -30.334  -0.000  -0.000  0.000
  37  36  6  7   3  30.334  0.000  -30.334  -0.000  -0.000  0.000
  37  38  4  3   3  30.334  0.000  -30.334  -0.000  -0.000  0.000
  28  27  26  25   3  30.334  0.000  -30.334  -0.000  -0.000  0.000
  35  31  32  33   3  8.786  0.000  -8.786  -0.000  -0.000  0.000
  5  4  3  1   3  8.786  0.000  -8.786  -0.000  -0.000  0.000
  38  4  3  1   3  8.786  0.000  -8.786  -0.000  -0.000  0.000
  27  26  25  23   3  8.786  0.000  -8.786  -0.000  -0.000  0.000
  36  6  7  8   3  8.786  0.000  -8.786  -0.000  -0.000  0.000
  35  26  25  23   3  8.786  0.000  -8.786  -0.000  -0.000  0.000
  26  25  23  24   3  25.476  0.000  -25.476  -0.000  -0.000  0.000
  4  3  1  2   3  25.476  0.000  -25.476  -0.000  -0.000  0.000
  26  25  23  22   3  25.476  0.000  -25.476  -0.000  -0.000  0.000
  39  38  4  5   3  30.334  0.000  -30.334  -0.000  -0.000  0.000
  39  38  37  36   3  30.334  0.000  -30.334  -0.000  -0.000  0.000
  30  29  28  27   3  30.334  0.000  -30.334  -0.000  -0.000  0.000
  39  38  4  3   3  30.334  0.000  -30.334  -0.000  -0.000  0.000
  13  11  10  8   3  -2.197  5.201  0.527  -3.531  -0.000  0.000
  12  11  10  8   3  -2.197  5.201  0.527  -3.531  -0.000  0.000
  21  19  18  17   3  1.715  2.845  1.046  -5.607  -0.000  0.000
  16  15  14  13   3  1.715  2.845  1.046  -5.607  -0.000  0.000
  17  15  14  13   3  1.715  2.845  1.046  -5.607  -0.000  0.000
  20  19  18  17   3  1.715  2.845  1.046  -5.607  -0.000  0.000
  11  10  8  7   3  16.736  4.184  -20.920  -0.000  -0.000  0.000
  11  10  8  9   3  21.439  0.000  -21.439  -0.000  -0.000  0.000
  15  14  13  11   3  1.715  2.845  1.046  -5.607  -0.000  0.000
  19  18  17  15   3  1.715  2.845  1.046  -5.607  -0.000  0.000
  67  32  33  34   3  20.502  0.000  -20.502  -0.000  -0.000  0.000
  40  3  1  2   3  20.502  0.000  -20.502  -0.000  -0.000  0.000
  42  7  8  9   3  20.502  0.000  -20.502  -0.000  -0.000  0.000
  61  25  23  24   3  20.502  0.000  -20.502  -0.000  -0.000  0.000
  61  25  23  22   3  20.502  0.000  -20.502  -0.000  -0.000  0.000
  42  7  8  10   3  20.502  0.000  -20.502  -0.000  -0.000  0.000
  67  32  31  35   3  8.786  0.000  -8.786  -0.000  -0.000  0.000
  61  25  26  35   3  8.786  0.000  -8.786  -0.000  -0.000  0.000
  61  25  26  27   3  8.786  0.000  -8.786  -0.000  -0.000  0.000
  40  3  4  5   3  8.786  0.000  -8.786  -0.000  -0.000  0.000
  40  3  4  38   3  8.786  0.000  -8.786  -0.000  -0.000  0.000
  67  32  31  29   3  8.786  0.000  -8.786  -0.000  -0.000  0.000
  42  7  6  36   3  8.786  0.000  -8.786  -0.000  -0.000  0.000
  42  7  6  5   3  8.786  0.000  -8.786  -0.000  -0.000  0.000
  68  35  26  27   3  30.334  0.000  -30.334  -0.000  -0.000  0.000
  69  36  6  5   3  30.334  0.000  -30.334  -0.000  -0.000  0.000
  70  37  36  6   3  30.334  0.000  -30.334  -0.000  -0.000  0.000
  41  5  6  36   3  30.334  0.000  -30.334  -0.000  -0.000  0.000
  68  35  31  29   3  30.334  0.000  -30.334  -0.000  -0.000  0.000
  70  37  38  4   3  30.334  0.000  -30.334  -0.000  -0.000  0.000
  62  27  26  35   3  30.334  0.000  -30.334  -0.000  -0.000  0.000
  69  36  37  38   3  30.334  0.000  -30.334  -0.000  -0.000  0.000
  41  5  4  38   3  30.334  0.000  -30.334  -0.000  -0.000  0.000
  63  28  27  26   3  30.334  0.000  -30.334  -0.000  -0.000  0.000
  62  27  28  29   3  30.334  0.000  -30.334  -0.000  -0.000  0.000
  63  28  29  31   3  30.334  0.000  -30.334  -0.000  -0.000  0.000
  70  37  38  39   3  30.334  0.000  -30.334  -0.000  -0.000  0.000
  63  28  29  30   3  30.334  0.000  -30.334  -0.000  -0.000  0.000
  70  37  36  69   3  30.334  0.000  -30.334  -0.000  -0.000  0.000
  63  28  27  62   3  30.334  0.000  -30.334  -0.000  -0.000  0.000
  69  36  6  7   3  30.334  0.000  -30.334  -0.000  -0.000  0.000
  68  35  26  25   3  30.334  0.000  -30.334  -0.000  -0.000  0.000
  68  35  31  32   3  30.334  0.000  -30.334  -0.000  -0.000  0.000
  62  27  26  25   3  30.334  0.000  -30.334  -0.000  -0.000  0.000
  41  5  6  7   3  30.334  0.000  -30.334  -0.000  -0.000  0.000
  41  5  4  3   3  30.334  0.000  -30.334  -0.000  -0.000  0.000
  73  39  38  4   3  0.000  0.000  0.000  -0.000  -0.000  0.000
  73  39  38  37   3  0.000  0.000  0.000  -0.000  -0.000  0.000
  66  30  29  28   3  0.000  0.000  0.000  -0.000  -0.000  0.000
  65  30  29  28   3  0.000  0.000  0.000  -0.000  -0.000  0.000
  72  39  38  4   3  0.000  0.000  0.000  -0.000  -0.000  0.000
  71  39  38  37   3  0.000  0.000  0.000  -0.000  -0.000  0.000
  64  30  29  28   3  0.000  0.000  0.000  -0.000  -0.000  0.000
  66  30  29  31   3  0.000  0.000  0.000  -0.000  -0.000  0.000
  72  39  38  37   3  0.000  0.000  0.000  -0.000  -0.000  0.000
  71  39  38  4   3  0.000  0.000  0.000  -0.000  -0.000  0.000
  64  30  29  31   3  0.000  0.000  0.000  -0.000  -0.000  0.000
  65  30  29  31   3  0.000  0.000  0.000  -0.000  -0.000  0.000
  47  13  11  12   3  0.628  1.883  0.000  -2.510  -0.000  0.000
  51  16  15  17   3  0.628  1.883  0.000  -2.510  -0.000  0.000
  46  12  11  13   3  0.628  1.883  0.000  -2.510  -0.000  0.000
  50  16  15  17   3  0.628  1.883  0.000  -2.510  -0.000  0.000
  59  21  19  20   3  0.628  1.883  0.000  -2.510  -0.000  0.000
  60  21  19  20   3  0.628  1.883  0.000  -2.510  -0.000  0.000
  57  20  19  21   3  0.628  1.883  0.000  -2.510  -0.000  0.000
  56  20  19  21   3  0.628  1.883  0.000  -2.510  -0.000  0.000
  52  16  15  17   3  0.628  1.883  0.000  -2.510  -0.000  0.000
  54  17  15  16   3  0.628  1.883  0.000  -2.510  -0.000  0.000
  44  12  11  13   3  0.628  1.883  0.000  -2.510  -0.000  0.000
  45  12  11  13   3  0.628  1.883  0.000  -2.510  -0.000  0.000
  58  20  19  21   3  0.628  1.883  0.000  -2.510  -0.000  0.000
  53  17  15  16   3  0.628  1.883  0.000  -2.510  -0.000  0.000
  48  13  11  12   3  0.628  1.883  0.000  -2.510  -0.000  0.000
  47  13  11  43   3  0.628  1.883  0.000  -2.510  -0.000  0.000
  54  17  15  49   3  0.628  1.883  0.000  -2.510  -0.000  0.000
  52  16  15  49   3  0.628  1.883  0.000  -2.510  -0.000  0.000
  59  21  19  55   3  0.628  1.883  0.000  -2.510  -0.000  0.000
  46  12  11  43   3  0.628  1.883  0.000  -2.510  -0.000  0.000
  56  20  19  55   3  0.628  1.883  0.000  -2.510  -0.000  0.000
  58  20  19  55   3  0.628  1.883  0.000  -2.510  -0.000  0.000
  60  21  19  55   3  0.628  1.883  0.000  -2.510  -0.000  0.000
  51  16  15  49   3  0.628  1.883  0.000  -2.510  -0.000  0.000
  50  16  15  49   3  0.628  1.883  0.000  -2.510  -0.000  0.000
  45  12  11  43   3  0.628  1.883  0.000  -2.510  -0.000  0.000
  57  20  19  55   3  0.628  1.883  0.000  -2.510  -0.000  0.000
  48  13  11  43   3  0.628  1.883  0.000  -2.510  -0.000  0.000
  53  17  15  49   3  0.628  1.883  0.000  -2.510  -0.000  0.000
  44  12  11  43   3  0.628  1.883  0.000  -2.510  -0.000  0.000
  55  19  21  22   3  0.979  2.937  0.000  -3.916  -0.000  0.000
  46  12  11  10   3  0.979  2.937  0.000  -3.916  -0.000  0.000
  53  17  15  14   3  0.979  2.937  0.000  -3.916  -0.000  0.000
  48  13  11  10   3  0.979  2.937  0.000  -3.916  -0.000  0.000
  43  11  13  14   3  0.979  2.937  0.000  -3.916  -0.000  0.000
  50  16  15  14   3  0.979  2.937  0.000  -3.916  -0.000  0.000
  52  16  15  14   3  0.979  2.937  0.000  -3.916  -0.000  0.000
  49  15  17  18   3  0.979  2.937  0.000  -3.916  -0.000  0.000
  47  13  11  10   3  0.979  2.937  0.000  -3.916  -0.000  0.000
  58  20  19  18   3  0.979  2.937  0.000  -3.916  -0.000  0.000
  59  21  19  18   3  0.979  2.937  0.000  -3.916  -0.000  0.000
  45  12  11  10   3  0.979  2.937  0.000  -3.916  -0.000  0.000
  57  20  19  18   3  0.979  2.937  0.000  -3.916  -0.000  0.000
  56  20  19  18   3  0.979  2.937  0.000  -3.916  -0.000  0.000
  51  16  15  14   3  0.979  2.937  0.000  -3.916  -0.000  0.000
  54  17  15  14   3  0.979  2.937  0.000  -3.916  -0.000  0.000
  44  12  11  10   3  0.979  2.937  0.000  -3.916  -0.000  0.000
  60  21  19  18   3  0.979  2.937  0.000  -3.916  -0.000  0.000
  43  11  10  8   3  0.414  1.243  0.000  -1.657  -0.000  0.000
  59  21  22  23   3  0.414  1.243  0.000  -1.657  -0.000  0.000
  60  21  22  23   3  0.414  1.243  0.000  -1.657  -0.000  0.000
  47  13  14  15   3  1.590  4.770  0.000  -6.360  -0.000  0.000
  48  13  14  15   3  1.590  4.770  0.000  -6.360  -0.000  0.000
  55  19  18  17   3  1.590  4.770  0.000  -6.360  -0.000  0.000
  54  17  18  19   3  1.590  4.770  0.000  -6.360  -0.000  0.000
  49  15  14  13   3  1.590  4.770  0.000  -6.360  -0.000  0.000
  53  17  18  19   3  1.590  4.770  0.000  -6.360  -0.000  0.000
  25  23  22  21   3  16.736  4.184  -20.920  -0.000  -0.000  0.000
  7  6  5  4   3  30.334  0.000  -30.334  -0.000  -0.000  0.000
  32  31  35  26   3  30.334  0.000  -30.334  -0.000  -0.000  0.000
  32  31  29  28   3  30.334  0.000  -30.334  -0.000  -0.000  0.000
  32  31  29  30   3  30.334  0.000  -30.334  -0.000  -0.000  0.000
  9  8  7  6   3  25.476  0.000  -25.476  -0.000  -0.000  0.000
  34  33  32  31   3  25.476  0.000  -25.476  -0.000  -0.000  0.000
  24  23  22  21   3  21.439  0.000  -21.439  -0.000  -0.000  0.000
  10  8  7  6   3  25.476  0.000  -25.476  -0.000  -0.000  0.000
  22  21  19  20   3  2.874  0.582  2.092  -5.548  -0.000  0.000
  18  17  15  16   3  2.874  0.582  2.092  -5.548  -0.000  0.000
  14  13  11  12   3  2.874  0.582  2.092  -5.548  -0.000  0.000
  22  21  19  18   3  -1.151  1.151  0.000  -0.000  -0.000  0.000
  18  17  15  14   3  -1.151  1.151  0.000  -0.000  -0.000  0.000
  14  13  11  10   3  -1.151  1.151  0.000  -0.000  -0.000  0.000

[ pairs ]
  2  4   1
  1  5   1
  3  6   1
  4  7   1
  5  8   1
  6  9   1
  6  10   1
  7  11   1
  9  11   1
  8  12   1
  8  13   1
  10  14   1
  12  14   1
  11  15   1
  13  16   1
  13  17   1
  14  18   1
  16  18   1
  15  19   1
  17  20   1
  17  21   1
  18  22   1
  1  38   1
  20  22   1
  19  23   1
  4  36   1
  3  37   1
  5  37   1
  3  39   1
  21  24   1
  21  25   1
  8  36   1
  7  37   1
  6  38   1
  5  39   1
  2  40   1
  22  26   1
  3  41   1
  24  26   1
  23  27   1
  5  40   1
  5  42   1
  25  28   1
  7  41   1
  26  29   1
  25  31   1
  9  42   1
  8  43   1
  27  30   1
  10  42   1
  27  31   1
  26  32   1
  10  44   1
  28  32   1
  23  35   1
  10  45   1
  10  46   1
  30  32   1
  29  33   1
  14  43   1
  13  44   1
  10  47   1
  13  45   1
  10  48   1
  13  46   1
  12  47   1
  31  34   1
  28  35   1
  12  48   1
  30  35   1
  15  47   1
  13  49   1
  15  48   1
  14  50   1
  33  35   1
  14  51   1
  14  52   1
  18  49   1
  17  50   1
  14  53   1
  17  51   1
  14  54   1
  17  52   1
  16  53   1
  16  54   1
  19  53   1
  17  55   1
  19  54   1
  36  39   1
  18  56   1
  18  57   1
  18  58   1
  22  55   1
  21  56   1
  18  59   1
  5  69   1
  4  70   1
  21  57   1
  18  60   1
  4  71   1
  36  41   1
  21  58   1
  20  59   1
  7  69   1
  6  70   1
  4  72   1
  38  40   1
  36  42   1
  20  60   1
  4  73   1
  38  41   1
  23  59   1
  23  60   1
  22  61   1
  24  61   1
  25  62   1
  27  61   1
  26  63   1
  29  62   1
  43  44   1
  28  64   1
  43  45   1
  30  63   1
  28  65   1
  43  46   1
  31  63   1
  28  66   1
  43  47   1
  31  64   1
  43  48   1
  31  65   1
  29  67   1
  25  68   1
  31  66   1
  35  61   1
  27  68   1
  35  62   1
  29  68   1
  34  67   1
  32  68   1
  49  50   1
  35  67   1
  49  51   1
  49  52   1
  49  53   1
  49  54   1
  38  69   1
  37  71   1
  39  70   1
  37  72   1
  37  73   1
  55  56   1
  55  57   1
  55  58   1
  55  59   1
  55  60   1
  62  63   1
  69  70   1
