; Generated by tile_ppg.py --n 33 from STR.itp/STR.gro.
; The PPG block's middle PO unit is replicated with its parameters;
; each copy is charge-neutralized (see the script docstring).
; Copy atom names are <element><copy><position-in-unit>.
; Screw-transform RMSD template->successor: 0.0011 nm.
[ moleculetype ]
  STR33     3

[ atoms ]
      1  st802       1  STR    BCK1       1  0.59390  12.0110
      2  st803       1  STR    O03        2 -0.42600  15.9990
      3  st804       1  STR    N04        3 -0.95620  14.0070
      4  st805       1  STR    C05        4  0.28090  12.0110
      5  st806       1  STR    C06        5 -0.17410  12.0110
      6  st807       1  STR    C07        6  0.24840  12.0110
      7  st808       1  STR    N08        7 -0.85730  14.0070
      8  st809       1  STR    C09        8  0.71580  12.0110
      9  st810       1  STR    O0A        9 -0.49520  15.9990
     10  st811       1  STR    O0B       10 -0.37050  15.9990
     11  st812       1  STR    C0C       11  0.08120  12.0110
     12  st813       1  STR    C0D       12 -0.28140  12.0110
     13  st814       1  STR    C0E       13  0.01020  12.0110
     14  st815       1  STR    O0F       14 -0.36580  15.9990
     15  st816       1  STR    C0G       15  0.03770  12.0110
     16  st817       1  STR    C0H       16 -0.28180  12.0110
     17  st818       1  STR    C0I       17  0.02260  12.0110
     18  st819       1  STR    O0J       18 -0.35690  15.9990
     19  st820       1  STR    C0K       19  0.01600  12.0110
     20  st821       1  STR    C0M       20 -0.28370  12.0110
     21  st822       1  STR    C0N       21  0.04780  12.0110
     22  st823       1  STR    O0O       22 -0.36000  15.9990
     23  st824       1  STR    C0P       23  0.72400  12.0110
     24  st825       1  STR    O0Q       24 -0.49880  15.9990
     25  st826       1  STR    N0R       25 -0.92580  14.0070
     26  st827       1  STR    C0S       26  0.25990  12.0110
     27  st828       1  STR    C0T       27 -0.17380  12.0110
     28  st829       1  STR    C0U       28 -0.06540  12.0110
     29  st830       1  STR    C0V       29 -0.13300  12.0110
     30  st831       1  STR    C0W       30 -0.19350  12.0110
     31  st832       1  STR    C0X       31  0.22690  12.0110
     32  st833       1  STR    N0Y       32 -0.90520  14.0070
     33  st834       1  STR    BCK2      33  0.57610  12.0110
     34  st835       1  STR    O10       34 -0.43640  15.9990
     35  st838       1  STR    C13       35 -0.18500  12.0110
     36  st839       1  STR    C14       36 -0.14860  12.0110
     37  st840       1  STR    C15       37 -0.11220  12.0110
     38  st841       1  STR    C16       38 -0.12050  12.0110
     39  st842       1  STR    C17       39 -0.19540  12.0110
     40  st846       1  STR    H1B       40  0.52490  1.0080
     41  st847       1  STR    H1C       41  0.16450  1.0080
     42  st848       1  STR    H1D       42  0.47550  1.0080
     43  st849       1  STR    H1E       43  0.11260  1.0080
     44  st850       1  STR    H1F       44  0.10530  1.0080
     45  st851       1  STR    H1G       45  0.10530  1.0080
     46  st852       1  STR    H1H       46  0.10530  1.0080
     47  st853       1  STR    H1I       47  0.11520  1.0080
     48  st854       1  STR    H1J       48  0.11520  1.0080
     49  st855       1  STR    H1K       49  0.09390  1.0080
     50  st856       1  STR    H1M       50  0.09370  1.0080
     51  st857       1  STR    H1N       51  0.09370  1.0080
     52  st858       1  STR    H1O       52  0.09370  1.0080
     53  st859       1  STR    H1P       53  0.11150  1.0080
     54  st860       1  STR    H1Q       54  0.11150  1.0080
     55  st816       1  STR    C010      55  0.03574  12.0110
     56  st855       1  STR    H011      56  0.09194  1.0080
     57  st817       1  STR    C012      57 -0.28376  12.0110
     58  st856       1  STR    H013      58  0.09174  1.0080
     59  st857       1  STR    H014      59  0.09174  1.0080
     60  st858       1  STR    H015      60  0.09174  1.0080
     61  st818       1  STR    C016      61  0.02064  12.0110
     62  st859       1  STR    H017      62  0.10954  1.0080
     63  st860       1  STR    H018      63  0.10954  1.0080
     64  st819       1  STR    O019      64 -0.35886  15.9990
     65  st816       1  STR    C020      65  0.03574  12.0110
     66  st855       1  STR    H021      66  0.09194  1.0080
     67  st817       1  STR    C022      67 -0.28376  12.0110
     68  st856       1  STR    H023      68  0.09174  1.0080
     69  st857       1  STR    H024      69  0.09174  1.0080
     70  st858       1  STR    H025      70  0.09174  1.0080
     71  st818       1  STR    C026      71  0.02064  12.0110
     72  st859       1  STR    H027      72  0.10954  1.0080
     73  st860       1  STR    H028      73  0.10954  1.0080
     74  st819       1  STR    O029      74 -0.35886  15.9990
     75  st816       1  STR    C030      75  0.03574  12.0110
     76  st855       1  STR    H031      76  0.09194  1.0080
     77  st817       1  STR    C032      77 -0.28376  12.0110
     78  st856       1  STR    H033      78  0.09174  1.0080
     79  st857       1  STR    H034      79  0.09174  1.0080
     80  st858       1  STR    H035      80  0.09174  1.0080
     81  st818       1  STR    C036      81  0.02064  12.0110
     82  st859       1  STR    H037      82  0.10954  1.0080
     83  st860       1  STR    H038      83  0.10954  1.0080
     84  st819       1  STR    O039      84 -0.35886  15.9990
     85  st816       1  STR    C040      85  0.03574  12.0110
     86  st855       1  STR    H041      86  0.09194  1.0080
     87  st817       1  STR    C042      87 -0.28376  12.0110
     88  st856       1  STR    H043      88  0.09174  1.0080
     89  st857       1  STR    H044      89  0.09174  1.0080
     90  st858       1  STR    H045      90  0.09174  1.0080
     91  st818       1  STR    C046      91  0.02064  12.0110
     92  st859       1  STR    H047      92  0.10954  1.0080
     93  st860       1  STR    H048      93  0.10954  1.0080
     94  st819       1  STR    O049      94 -0.35886  15.9990
     95  st816       1  STR    C050      95  0.03574  12.0110
     96  st855       1  STR    H051      96  0.09194  1.0080
     97  st817       1  STR    C052      97 -0.28376  12.0110
     98  st856       1  STR    H053      98  0.09174  1.0080
     99  st857       1  STR    H054      99  0.09174  1.0080
    100  st858       1  STR    H055     100  0.09174  1.0080
    101  st818       1  STR    C056     101  0.02064  12.0110
    102  st859       1  STR    H057     102  0.10954  1.0080
    103  st860       1  STR    H058     103  0.10954  1.0080
    104  st819       1  STR    O059     104 -0.35886  15.9990
    105  st816       1  STR    C060     105  0.03574  12.0110
    106  st855       1  STR    H061     106  0.09194  1.0080
    107  st817       1  STR    C062     107 -0.28376  12.0110
    108  st856       1  STR    H063     108  0.09174  1.0080
    109  st857       1  STR    H064     109  0.09174  1.0080
    110  st858       1  STR    H065     110  0.09174  1.0080
    111  st818       1  STR    C066     111  0.02064  12.0110
    112  st859       1  STR    H067     112  0.10954  1.0080
    113  st860       1  STR    H068     113  0.10954  1.0080
    114  st819       1  STR    O069     114 -0.35886  15.9990
    115  st816       1  STR    C070     115  0.03574  12.0110
    116  st855       1  STR    H071     116  0.09194  1.0080
    117  st817       1  STR    C072     117 -0.28376  12.0110
    118  st856       1  STR    H073     118  0.09174  1.0080
    119  st857       1  STR    H074     119  0.09174  1.0080
    120  st858       1  STR    H075     120  0.09174  1.0080
    121  st818       1  STR    C076     121  0.02064  12.0110
    122  st859       1  STR    H077     122  0.10954  1.0080
    123  st860       1  STR    H078     123  0.10954  1.0080
    124  st819       1  STR    O079     124 -0.35886  15.9990
    125  st816       1  STR    C080     125  0.03574  12.0110
    126  st855       1  STR    H081     126  0.09194  1.0080
    127  st817       1  STR    C082     127 -0.28376  12.0110
    128  st856       1  STR    H083     128  0.09174  1.0080
    129  st857       1  STR    H084     129  0.09174  1.0080
    130  st858       1  STR    H085     130  0.09174  1.0080
    131  st818       1  STR    C086     131  0.02064  12.0110
    132  st859       1  STR    H087     132  0.10954  1.0080
    133  st860       1  STR    H088     133  0.10954  1.0080
    134  st819       1  STR    O089     134 -0.35886  15.9990
    135  st816       1  STR    C090     135  0.03574  12.0110
    136  st855       1  STR    H091     136  0.09194  1.0080
    137  st817       1  STR    C092     137 -0.28376  12.0110
    138  st856       1  STR    H093     138  0.09174  1.0080
    139  st857       1  STR    H094     139  0.09174  1.0080
    140  st858       1  STR    H095     140  0.09174  1.0080
    141  st818       1  STR    C096     141  0.02064  12.0110
    142  st859       1  STR    H097     142  0.10954  1.0080
    143  st860       1  STR    H098     143  0.10954  1.0080
    144  st819       1  STR    O099     144 -0.35886  15.9990
    145  st816       1  STR    C100     145  0.03574  12.0110
    146  st855       1  STR    H101     146  0.09194  1.0080
    147  st817       1  STR    C102     147 -0.28376  12.0110
    148  st856       1  STR    H103     148  0.09174  1.0080
    149  st857       1  STR    H104     149  0.09174  1.0080
    150  st858       1  STR    H105     150  0.09174  1.0080
    151  st818       1  STR    C106     151  0.02064  12.0110
    152  st859       1  STR    H107     152  0.10954  1.0080
    153  st860       1  STR    H108     153  0.10954  1.0080
    154  st819       1  STR    O109     154 -0.35886  15.9990
    155  st816       1  STR    C110     155  0.03574  12.0110
    156  st855       1  STR    H111     156  0.09194  1.0080
    157  st817       1  STR    C112     157 -0.28376  12.0110
    158  st856       1  STR    H113     158  0.09174  1.0080
    159  st857       1  STR    H114     159  0.09174  1.0080
    160  st858       1  STR    H115     160  0.09174  1.0080
    161  st818       1  STR    C116     161  0.02064  12.0110
    162  st859       1  STR    H117     162  0.10954  1.0080
    163  st860       1  STR    H118     163  0.10954  1.0080
    164  st819       1  STR    O119     164 -0.35886  15.9990
    165  st816       1  STR    C120     165  0.03574  12.0110
    166  st855       1  STR    H121     166  0.09194  1.0080
    167  st817       1  STR    C122     167 -0.28376  12.0110
    168  st856       1  STR    H123     168  0.09174  1.0080
    169  st857       1  STR    H124     169  0.09174  1.0080
    170  st858       1  STR    H125     170  0.09174  1.0080
    171  st818       1  STR    C126     171  0.02064  12.0110
    172  st859       1  STR    H127     172  0.10954  1.0080
    173  st860       1  STR    H128     173  0.10954  1.0080
    174  st819       1  STR    O129     174 -0.35886  15.9990
    175  st816       1  STR    C130     175  0.03574  12.0110
    176  st855       1  STR    H131     176  0.09194  1.0080
    177  st817       1  STR    C132     177 -0.28376  12.0110
    178  st856       1  STR    H133     178  0.09174  1.0080
    179  st857       1  STR    H134     179  0.09174  1.0080
    180  st858       1  STR    H135     180  0.09174  1.0080
    181  st818       1  STR    C136     181  0.02064  12.0110
    182  st859       1  STR    H137     182  0.10954  1.0080
    183  st860       1  STR    H138     183  0.10954  1.0080
    184  st819       1  STR    O139     184 -0.35886  15.9990
    185  st816       1  STR    C140     185  0.03574  12.0110
    186  st855       1  STR    H141     186  0.09194  1.0080
    187  st817       1  STR    C142     187 -0.28376  12.0110
    188  st856       1  STR    H143     188  0.09174  1.0080
    189  st857       1  STR    H144     189  0.09174  1.0080
    190  st858       1  STR    H145     190  0.09174  1.0080
    191  st818       1  STR    C146     191  0.02064  12.0110
    192  st859       1  STR    H147     192  0.10954  1.0080
    193  st860       1  STR    H148     193  0.10954  1.0080
    194  st819       1  STR    O149     194 -0.35886  15.9990
    195  st816       1  STR    C150     195  0.03574  12.0110
    196  st855       1  STR    H151     196  0.09194  1.0080
    197  st817       1  STR    C152     197 -0.28376  12.0110
    198  st856       1  STR    H153     198  0.09174  1.0080
    199  st857       1  STR    H154     199  0.09174  1.0080
    200  st858       1  STR    H155     200  0.09174  1.0080
    201  st818       1  STR    C156     201  0.02064  12.0110
    202  st859       1  STR    H157     202  0.10954  1.0080
    203  st860       1  STR    H158     203  0.10954  1.0080
    204  st819       1  STR    O159     204 -0.35886  15.9990
    205  st816       1  STR    C160     205  0.03574  12.0110
    206  st855       1  STR    H161     206  0.09194  1.0080
    207  st817       1  STR    C162     207 -0.28376  12.0110
    208  st856       1  STR    H163     208  0.09174  1.0080
    209  st857       1  STR    H164     209  0.09174  1.0080
    210  st858       1  STR    H165     210  0.09174  1.0080
    211  st818       1  STR    C166     211  0.02064  12.0110
    212  st859       1  STR    H167     212  0.10954  1.0080
    213  st860       1  STR    H168     213  0.10954  1.0080
    214  st819       1  STR    O169     214 -0.35886  15.9990
    215  st816       1  STR    C170     215  0.03574  12.0110
    216  st855       1  STR    H171     216  0.09194  1.0080
    217  st817       1  STR    C172     217 -0.28376  12.0110
    218  st856       1  STR    H173     218  0.09174  1.0080
    219  st857       1  STR    H174     219  0.09174  1.0080
    220  st858       1  STR    H175     220  0.09174  1.0080
    221  st818       1  STR    C176     221  0.02064  12.0110
    222  st859       1  STR    H177     222  0.10954  1.0080
    223  st860       1  STR    H178     223  0.10954  1.0080
    224  st819       1  STR    O179     224 -0.35886  15.9990
    225  st816       1  STR    C180     225  0.03574  12.0110
    226  st855       1  STR    H181     226  0.09194  1.0080
    227  st817       1  STR    C182     227 -0.28376  12.0110
    228  st856       1  STR    H183     228  0.09174  1.0080
    229  st857       1  STR    H184     229  0.09174  1.0080
    230  st858       1  STR    H185     230  0.09174  1.0080
    231  st818       1  STR    C186     231  0.02064  12.0110
    232  st859       1  STR    H187     232  0.10954  1.0080
    233  st860       1  STR    H188     233  0.10954  1.0080
    234  st819       1  STR    O189     234 -0.35886  15.9990
    235  st816       1  STR    C190     235  0.03574  12.0110
    236  st855       1  STR    H191     236  0.09194  1.0080
    237  st817       1  STR    C192     237 -0.28376  12.0110
    238  st856       1  STR    H193     238  0.09174  1.0080
    239  st857       1  STR    H194     239  0.09174  1.0080
    240  st858       1  STR    H195     240  0.09174  1.0080
    241  st818       1  STR    C196     241  0.02064  12.0110
    242  st859       1  STR    H197     242  0.10954  1.0080
    243  st860       1  STR    H198     243  0.10954  1.0080
    244  st819       1  STR    O199     244 -0.35886  15.9990
    245  st816       1  STR    C200     245  0.03574  12.0110
    246  st855       1  STR    H201     246  0.09194  1.0080
    247  st817       1  STR    C202     247 -0.28376  12.0110
    248  st856       1  STR    H203     248  0.09174  1.0080
    249  st857       1  STR    H204     249  0.09174  1.0080
    250  st858       1  STR    H205     250  0.09174  1.0080
    251  st818       1  STR    C206     251  0.02064  12.0110
    252  st859       1  STR    H207     252  0.10954  1.0080
    253  st860       1  STR    H208     253  0.10954  1.0080
    254  st819       1  STR    O209     254 -0.35886  15.9990
    255  st816       1  STR    C210     255  0.03574  12.0110
    256  st855       1  STR    H211     256  0.09194  1.0080
    257  st817       1  STR    C212     257 -0.28376  12.0110
    258  st856       1  STR    H213     258  0.09174  1.0080
    259  st857       1  STR    H214     259  0.09174  1.0080
    260  st858       1  STR    H215     260  0.09174  1.0080
    261  st818       1  STR    C216     261  0.02064  12.0110
    262  st859       1  STR    H217     262  0.10954  1.0080
    263  st860       1  STR    H218     263  0.10954  1.0080
    264  st819       1  STR    O219     264 -0.35886  15.9990
    265  st816       1  STR    C220     265  0.03574  12.0110
    266  st855       1  STR    H221     266  0.09194  1.0080
    267  st817       1  STR    C222     267 -0.28376  12.0110
    268  st856       1  STR    H223     268  0.09174  1.0080
    269  st857       1  STR    H224     269  0.09174  1.0080
    270  st858       1  STR    H225     270  0.09174  1.0080
    271  st818       1  STR    C226     271  0.02064  12.0110
    272  st859       1  STR    H227     272  0.10954  1.0080
    273  st860       1  STR    H228     273  0.10954  1.0080
    274  st819       1  STR    O229     274 -0.35886  15.9990
    275  st816       1  STR    C230     275  0.03574  12.0110
    276  st855       1  STR    H231     276  0.09194  1.0080
    277  st817       1  STR    C232     277 -0.28376  12.0110
    278  st856       1  STR    H233     278  0.09174  1.0080
    279  st857       1  STR    H234     279  0.09174  1.0080
    280  st858       1  STR    H235     280  0.09174  1.0080
    281  st818       1  STR    C236     281  0.02064  12.0110
    282  st859       1  STR    H237     282  0.10954  1.0080
    283  st860       1  STR    H238     283  0.10954  1.0080
    284  st819       1  STR    O239     284 -0.35886  15.9990
    285  st816       1  STR    C240     285  0.03574  12.0110
    286  st855       1  STR    H241     286  0.09194  1.0080
    287  st817       1  STR    C242     287 -0.28376  12.0110
    288  st856       1  STR    H243     288  0.09174  1.0080
    289  st857       1  STR    H244     289  0.09174  1.0080
    290  st858       1  STR    H245     290  0.09174  1.0080
    291  st818       1  STR    C246     291  0.02064  12.0110
    292  st859       1  STR    H247     292  0.10954  1.0080
    293  st860       1  STR    H248     293  0.10954  1.0080
    294  st819       1  STR    O249     294 -0.35886  15.9990
    295  st816       1  STR    C250     295  0.03574  12.0110
    296  st855       1  STR    H251     296  0.09194  1.0080
    297  st817       1  STR    C252     297 -0.28376  12.0110
    298  st856       1  STR    H253     298  0.09174  1.0080
    299  st857       1  STR    H254     299  0.09174  1.0080
    300  st858       1  STR    H255     300  0.09174  1.0080
    301  st818       1  STR    C256     301  0.02064  12.0110
    302  st859       1  STR    H257     302  0.10954  1.0080
    303  st860       1  STR    H258     303  0.10954  1.0080
    304  st819       1  STR    O259     304 -0.35886  15.9990
    305  st816       1  STR    C260     305  0.03574  12.0110
    306  st855       1  STR    H261     306  0.09194  1.0080
    307  st817       1  STR    C262     307 -0.28376  12.0110
    308  st856       1  STR    H263     308  0.09174  1.0080
    309  st857       1  STR    H264     309  0.09174  1.0080
    310  st858       1  STR    H265     310  0.09174  1.0080
    311  st818       1  STR    C266     311  0.02064  12.0110
    312  st859       1  STR    H267     312  0.10954  1.0080
    313  st860       1  STR    H268     313  0.10954  1.0080
    314  st819       1  STR    O269     314 -0.35886  15.9990
    315  st816       1  STR    C270     315  0.03574  12.0110
    316  st855       1  STR    H271     316  0.09194  1.0080
    317  st817       1  STR    C272     317 -0.28376  12.0110
    318  st856       1  STR    H273     318  0.09174  1.0080
    319  st857       1  STR    H274     319  0.09174  1.0080
    320  st858       1  STR    H275     320  0.09174  1.0080
    321  st818       1  STR    C276     321  0.02064  12.0110
    322  st859       1  STR    H277     322  0.10954  1.0080
    323  st860       1  STR    H278     323  0.10954  1.0080
    324  st819       1  STR    O279     324 -0.35886  15.9990
    325  st816       1  STR    C280     325  0.03574  12.0110
    326  st855       1  STR    H281     326  0.09194  1.0080
    327  st817       1  STR    C282     327 -0.28376  12.0110
    328  st856       1  STR    H283     328  0.09174  1.0080
    329  st857       1  STR    H284     329  0.09174  1.0080
    330  st858       1  STR    H285     330  0.09174  1.0080
    331  st818       1  STR    C286     331  0.02064  12.0110
    332  st859       1  STR    H287     332  0.10954  1.0080
    333  st860       1  STR    H288     333  0.10954  1.0080
    334  st819       1  STR    O289     334 -0.35886  15.9990
    335  st816       1  STR    C290     335  0.03574  12.0110
    336  st855       1  STR    H291     336  0.09194  1.0080
    337  st817       1  STR    C292     337 -0.28376  12.0110
    338  st856       1  STR    H293     338  0.09174  1.0080
    339  st857       1  STR    H294     339  0.09174  1.0080
    340  st858       1  STR    H295     340  0.09174  1.0080
    341  st818       1  STR    C296     341  0.02064  12.0110
    342  st859       1  STR    H297     342  0.10954  1.0080
    343  st860       1  STR    H298     343  0.10954  1.0080
    344  st819       1  STR    O299     344 -0.35886  15.9990
    345  st816       1  STR    C300     345  0.03574  12.0110
    346  st855       1  STR    H301     346  0.09194  1.0080
    347  st817       1  STR    C302     347 -0.28376  12.0110
    348  st856       1  STR    H303     348  0.09174  1.0080
    349  st857       1  STR    H304     349  0.09174  1.0080
    350  st858       1  STR    H305     350  0.09174  1.0080
    351  st818       1  STR    C306     351  0.02064  12.0110
    352  st859       1  STR    H307     352  0.10954  1.0080
    353  st860       1  STR    H308     353  0.10954  1.0080
    354  st819       1  STR    O309     354 -0.35886  15.9990
    355  st861       1  STR    H1R      355  0.11640  1.0080
    356  st862       1  STR    H1S      356  0.09400  1.0080
    357  st863       1  STR    H1T      357  0.09400  1.0080
    358  st864       1  STR    H1U      358  0.09400  1.0080
    359  st865       1  STR    H1V      359  0.13450  1.0080
    360  st866       1  STR    H1W      360  0.13450  1.0080
    361  st867       1  STR    H1X      361  0.49530  1.0080
    362  st868       1  STR    H1Y      362  0.18070  1.0080
    363  st869       1  STR    H1Z      363  0.17680  1.0080
    364  st870       1  STR    H20      364  0.09320  1.0080
    365  st871       1  STR    H21      365  0.09320  1.0080
    366  st872       1  STR    H22      366  0.09320  1.0080
    367  st873       1  STR    H23      367  0.50190  1.0080
    368  st877       1  STR    H27      368  0.16990  1.0080
    369  st878       1  STR    H28      369  0.15560  1.0080
    370  st879       1  STR    H29      370  0.13960  1.0080
    371  st880       1  STR    H2A      371  0.09080  1.0080
    372  st881       1  STR    H2B      372  0.09080  1.0080
    373  st882       1  STR    H2C      373  0.09080  1.0080

[ bonds ]
  2  1   1  0.1229  476976.000
  3  1   1  0.1335  410032.000
  4  3   1  0.1381  357313.600
  5  4   1  0.1400  392459.200
  6  5   1  0.1400  392459.200
  7  6   1  0.1381  357313.600
  8  7   1  0.1335  410032.000
  9  8   1  0.1229  476976.000
  10  8   1  0.1327  179075.200
  11  10   1  0.1410  267776.000
  12  11   1  0.1529  224262.400
  13  11   1  0.1529  224262.400
  14  13   1  0.1410  267776.000
  15  14   1  0.1410  267776.000
  16  15   1  0.1529  224262.400
  57  55   1  0.1529  224262.400
  67  65   1  0.1529  224262.400
  77  75   1  0.1529  224262.400
  87  85   1  0.1529  224262.400
  97  95   1  0.1529  224262.400
  107  105   1  0.1529  224262.400
  117  115   1  0.1529  224262.400
  127  125   1  0.1529  224262.400
  137  135   1  0.1529  224262.400
  147  145   1  0.1529  224262.400
  157  155   1  0.1529  224262.400
  167  165   1  0.1529  224262.400
  177  175   1  0.1529  224262.400
  187  185   1  0.1529  224262.400
  197  195   1  0.1529  224262.400
  207  205   1  0.1529  224262.400
  217  215   1  0.1529  224262.400
  227  225   1  0.1529  224262.400
  237  235   1  0.1529  224262.400
  247  245   1  0.1529  224262.400
  257  255   1  0.1529  224262.400
  267  265   1  0.1529  224262.400
  277  275   1  0.1529  224262.400
  287  285   1  0.1529  224262.400
  297  295   1  0.1529  224262.400
  307  305   1  0.1529  224262.400
  317  315   1  0.1529  224262.400
  327  325   1  0.1529  224262.400
  337  335   1  0.1529  224262.400
  347  345   1  0.1529  224262.400
  17  15   1  0.1529  224262.400
  61  55   1  0.1529  224262.400
  71  65   1  0.1529  224262.400
  81  75   1  0.1529  224262.400
  91  85   1  0.1529  224262.400
  101  95   1  0.1529  224262.400
  111  105   1  0.1529  224262.400
  121  115   1  0.1529  224262.400
  131  125   1  0.1529  224262.400
  141  135   1  0.1529  224262.400
  151  145   1  0.1529  224262.400
  161  155   1  0.1529  224262.400
  171  165   1  0.1529  224262.400
  181  175   1  0.1529  224262.400
  191  185   1  0.1529  224262.400
  201  195   1  0.1529  224262.400
  211  205   1  0.1529  224262.400
  221  215   1  0.1529  224262.400
  231  225   1  0.1529  224262.400
  241  235   1  0.1529  224262.400
  251  245   1  0.1529  224262.400
  261  255   1  0.1529  224262.400
  271  265   1  0.1529  224262.400
  281  275   1  0.1529  224262.400
  291  285   1  0.1529  224262.400
  301  295   1  0.1529  224262.400
  311  305   1  0.1529  224262.400
  321  315   1  0.1529  224262.400
  331  325   1  0.1529  224262.400
  341  335   1  0.1529  224262.400
  351  345   1  0.1529  224262.400
  18  17   1  0.1410  267776.000
  64  61   1  0.1410  267776.000
  74  71   1  0.1410  267776.000
  84  81   1  0.1410  267776.000
  94  91   1  0.1410  267776.000
  104  101   1  0.1410  267776.000
  114  111   1  0.1410  267776.000
  124  121   1  0.1410  267776.000
  134  131   1  0.1410  267776.000
  144  141   1  0.1410  267776.000
  154  151   1  0.1410  267776.000
  164  161   1  0.1410  267776.000
  174  171   1  0.1410  267776.000
  184  181   1  0.1410  267776.000
  194  191   1  0.1410  267776.000
  204  201   1  0.1410  267776.000
  214  211   1  0.1410  267776.000
  224  221   1  0.1410  267776.000
  234  231   1  0.1410  267776.000
  244  241   1  0.1410  267776.000
  254  251   1  0.1410  267776.000
  264  261   1  0.1410  267776.000
  274  271   1  0.1410  267776.000
  284  281   1  0.1410  267776.000
  294  291   1  0.1410  267776.000
  304  301   1  0.1410  267776.000
  314  311   1  0.1410  267776.000
  324  321   1  0.1410  267776.000
  334  331   1  0.1410  267776.000
  344  341   1  0.1410  267776.000
  354  351   1  0.1410  267776.000
  55  18   1  0.1410  267776.000
  65  64   1  0.1410  267776.000
  75  74   1  0.1410  267776.000
  85  84   1  0.1410  267776.000
  95  94   1  0.1410  267776.000
  105  104   1  0.1410  267776.000
  115  114   1  0.1410  267776.000
  125  124   1  0.1410  267776.000
  135  134   1  0.1410  267776.000
  145  144   1  0.1410  267776.000
  155  154   1  0.1410  267776.000
  165  164   1  0.1410  267776.000
  175  174   1  0.1410  267776.000
  185  184   1  0.1410  267776.000
  195  194   1  0.1410  267776.000
  205  204   1  0.1410  267776.000
  215  214   1  0.1410  267776.000
  225  224   1  0.1410  267776.000
  235  234   1  0.1410  267776.000
  245  244   1  0.1410  267776.000
  255  254   1  0.1410  267776.000
  265  264   1  0.1410  267776.000
  275  274   1  0.1410  267776.000
  285  284   1  0.1410  267776.000
  295  294   1  0.1410  267776.000
  305  304   1  0.1410  267776.000
  315  314   1  0.1410  267776.000
  325  324   1  0.1410  267776.000
  335  334   1  0.1410  267776.000
  345  344   1  0.1410  267776.000
  19  354   1  0.1410  267776.000
  20  19   1  0.1529  224262.400
  21  19   1  0.1529  224262.400
  22  21   1  0.1410  267776.000
  23  22   1  0.1327  179075.200
  24  23   1  0.1229  476976.000
  25  23   1  0.1335  410032.000
  26  25   1  0.1381  357313.600
  27  26   1  0.1400  392459.200
  28  27   1  0.1400  392459.200
  29  28   1  0.1400  392459.200
  30  29   1  0.1510  265265.600
  31  29   1  0.1400  392459.200
  32  31   1  0.1381  357313.600
  33  32   1  0.1335  410032.000
  34  33   1  0.1229  476976.000
  35  26   1  0.1400  392459.200
  36  6   1  0.1400  392459.200
  37  36   1  0.1400  392459.200
  38  4   1  0.1400  392459.200
  39  38   1  0.1510  265265.600
  40  3   1  0.1010  363171.200
  41  5   1  0.1080  307105.600
  42  7   1  0.1010  363171.200
  43  11   1  0.1090  284512.000
  44  12   1  0.1090  284512.000
  45  12   1  0.1090  284512.000
  46  12   1  0.1090  284512.000
  47  13   1  0.1090  284512.000
  48  13   1  0.1090  284512.000
  49  15   1  0.1090  284512.000
  56  55   1  0.1090  284512.000
  66  65   1  0.1090  284512.000
  76  75   1  0.1090  284512.000
  86  85   1  0.1090  284512.000
  96  95   1  0.1090  284512.000
  106  105   1  0.1090  284512.000
  116  115   1  0.1090  284512.000
  126  125   1  0.1090  284512.000
  136  135   1  0.1090  284512.000
  146  145   1  0.1090  284512.000
  156  155   1  0.1090  284512.000
  166  165   1  0.1090  284512.000
  176  175   1  0.1090  284512.000
  186  185   1  0.1090  284512.000
  196  195   1  0.1090  284512.000
  206  205   1  0.1090  284512.000
  216  215   1  0.1090  284512.000
  226  225   1  0.1090  284512.000
  236  235   1  0.1090  284512.000
  246  245   1  0.1090  284512.000
  256  255   1  0.1090  284512.000
  266  265   1  0.1090  284512.000
  276  275   1  0.1090  284512.000
  286  285   1  0.1090  284512.000
  296  295   1  0.1090  284512.000
  306  305   1  0.1090  284512.000
  316  315   1  0.1090  284512.000
  326  325   1  0.1090  284512.000
  336  335   1  0.1090  284512.000
  346  345   1  0.1090  284512.000
  50  16   1  0.1090  284512.000
  58  57   1  0.1090  284512.000
  68  67   1  0.1090  284512.000
  78  77   1  0.1090  284512.000
  88  87   1  0.1090  284512.000
  98  97   1  0.1090  284512.000
  108  107   1  0.1090  284512.000
  118  117   1  0.1090  284512.000
  128  127   1  0.1090  284512.000
  138  137   1  0.1090  284512.000
  148  147   1  0.1090  284512.000
  158  157   1  0.1090  284512.000
  168  167   1  0.1090  284512.000
  178  177   1  0.1090  284512.000
  188  187   1  0.1090  284512.000
  198  197   1  0.1090  284512.000
  208  207   1  0.1090  284512.000
  218  217   1  0.1090  284512.000
  228  227   1  0.1090  284512.000
  238  237   1  0.1090  284512.000
  248  247   1  0.1090  284512.000
  258  257   1  0.1090  284512.000
  268  267   1  0.1090  284512.000
  278  277   1  0.1090  284512.000
  288  287   1  0.1090  284512.000
  298  297   1  0.1090  284512.000
  308  307   1  0.1090  284512.000
  318  317   1  0.1090  284512.000
  328  327   1  0.1090  284512.000
  338  337   1  0.1090  284512.000
  348  347   1  0.1090  284512.000
  51  16   1  0.1090  284512.000
  59  57   1  0.1090  284512.000
  69  67   1  0.1090  284512.000
  79  77   1  0.1090  284512.000
  89  87   1  0.1090  284512.000
  99  97   1  0.1090  284512.000
  109  107   1  0.1090  284512.000
  119  117   1  0.1090  284512.000
  129  127   1  0.1090  284512.000
  139  137   1  0.1090  284512.000
  149  147   1  0.1090  284512.000
  159  157   1  0.1090  284512.000
  169  167   1  0.1090  284512.000
  179  177   1  0.1090  284512.000
  189  187   1  0.1090  284512.000
  199  197   1  0.1090  284512.000
  209  207   1  0.1090  284512.000
  219  217   1  0.1090  284512.000
  229  227   1  0.1090  284512.000
  239  237   1  0.1090  284512.000
  249  247   1  0.1090  284512.000
  259  257   1  0.1090  284512.000
  269  267   1  0.1090  284512.000
  279  277   1  0.1090  284512.000
  289  287   1  0.1090  284512.000
  299  297   1  0.1090  284512.000
  309  307   1  0.1090  284512.000
  319  317   1  0.1090  284512.000
  329  327   1  0.1090  284512.000
  339  337   1  0.1090  284512.000
  349  347   1  0.1090  284512.000
  52  16   1  0.1090  284512.000
  60  57   1  0.1090  284512.000
  70  67   1  0.1090  284512.000
  80  77   1  0.1090  284512.000
  90  87   1  0.1090  284512.000
  100  97   1  0.1090  284512.000
  110  107   1  0.1090  284512.000
  120  117   1  0.1090  284512.000
  130  127   1  0.1090  284512.000
  140  137   1  0.1090  284512.000
  150  147   1  0.1090  284512.000
  160  157   1  0.1090  284512.000
  170  167   1  0.1090  284512.000
  180  177   1  0.1090  284512.000
  190  187   1  0.1090  284512.000
  200  197   1  0.1090  284512.000
  210  207   1  0.1090  284512.000
  220  217   1  0.1090  284512.000
  230  227   1  0.1090  284512.000
  240  237   1  0.1090  284512.000
  250  247   1  0.1090  284512.000
  260  257   1  0.1090  284512.000
  270  267   1  0.1090  284512.000
  280  277   1  0.1090  284512.000
  290  287   1  0.1090  284512.000
  300  297   1  0.1090  284512.000
  310  307   1  0.1090  284512.000
  320  317   1  0.1090  284512.000
  330  327   1  0.1090  284512.000
  340  337   1  0.1090  284512.000
  350  347   1  0.1090  284512.000
  53  17   1  0.1090  284512.000
  62  61   1  0.1090  284512.000
  72  71   1  0.1090  284512.000
  82  81   1  0.1090  284512.000
  92  91   1  0.1090  284512.000
  102  101   1  0.1090  284512.000
  112  111   1  0.1090  284512.000
  122  121   1  0.1090  284512.000
  132  131   1  0.1090  284512.000
  142  141   1  0.1090  284512.000
  152  151   1  0.1090  284512.000
  162  161   1  0.1090  284512.000
  172  171   1  0.1090  284512.000
  182  181   1  0.1090  284512.000
  192  191   1  0.1090  284512.000
  202  201   1  0.1090  284512.000
  212  211   1  0.1090  284512.000
  222  221   1  0.1090  284512.000
  232  231   1  0.1090  284512.000
  242  241   1  0.1090  284512.000
  252  251   1  0.1090  284512.000
  262  261   1  0.1090  284512.000
  272  271   1  0.1090  284512.000
  282  281   1  0.1090  284512.000
  292  291   1  0.1090  284512.000
  302  301   1  0.1090  284512.000
  312  311   1  0.1090  284512.000
  322  321   1  0.1090  284512.000
  332  331   1  0.1090  284512.000
  342  341   1  0.1090  284512.000
  352  351   1  0.1090  284512.000
  54  17   1  0.1090  284512.000
  63  61   1  0.1090  284512.000
  73  71   1  0.1090  284512.000
  83  81   1  0.1090  284512.000
  93  91   1  0.1090  284512.000
  103  101   1  0.1090  284512.000
  113  111   1  0.1090  284512.000
  123  121   1  0.1090  284512.000
  133  131   1  0.1090  284512.000
  143  141   1  0.1090  284512.000
  153  151   1  0.1090  284512.000
  163  161   1  0.1090  284512.000
  173  171   1  0.1090  284512.000
  183  181   1  0.1090  284512.000
  193  191   1  0.1090  284512.000
  203  201   1  0.1090  284512.000
  213  211   1  0.1090  284512.000
  223  221   1  0.1090  284512.000
  233  231   1  0.1090  284512.000
  243  241   1  0.1090  284512.000
  253  251   1  0.1090  284512.000
  263  261   1  0.1090  284512.000
  273  271   1  0.1090  284512.000
  283  281   1  0.1090  284512.000
  293  291   1  0.1090  284512.000
  303  301   1  0.1090  284512.000
  313  311   1  0.1090  284512.000
  323  321   1  0.1090  284512.000
  333  331   1  0.1090  284512.000
  343  341   1  0.1090  284512.000
  353  351   1  0.1090  284512.000
  355  19   1  0.1090  284512.000
  356  20   1  0.1090  284512.000
  357  20   1  0.1090  284512.000
  358  20   1  0.1090  284512.000
  359  21   1  0.1090  284512.000
  360  21   1  0.1090  284512.000
  361  25   1  0.1010  363171.200
  362  27   1  0.1080  307105.600
  363  28   1  0.1080  307105.600
  364  30   1  0.1090  284512.000
  365  30   1  0.1090  284512.000
  366  30   1  0.1090  284512.000
  367  32   1  0.1010  363171.200
  368  35   1  0.1080  307105.600
  369  36   1  0.1080  307105.600
  370  37   1  0.1080  307105.600
  371  39   1  0.1090  284512.000
  372  39   1  0.1090  284512.000
  373  39   1  0.1090  284512.000
  35  31   1  0.1400  392459.200
  38  37   1  0.1400  392459.200

[ angles ]
  1  3  4   1  121.900  418.400
  3  4  5   1  120.000  585.760
  4  5  6   1  120.000  527.184
  5  6  7   1  120.000  585.760
  6  7  8   1  121.900  418.400
  7  8  9   1  122.900  669.440
  7  8  10   1  111.400  677.808
  8  10  11   1  116.900  694.544
  10  11  12   1  109.500  418.400
  10  11  13   1  109.500  418.400
  11  13  14   1  109.500  418.400
  13  14  15   1  109.500  502.080
  14  15  16   1  109.500  418.400
  14  15  17   1  109.500  418.400
  15  17  18   1  109.500  418.400
  55  61  64   1  109.500  418.400
  65  71  74   1  109.500  418.400
  75  81  84   1  109.500  418.400
  85  91  94   1  109.500  418.400
  95  101  104   1  109.500  418.400
  105  111  114   1  109.500  418.400
  115  121  124   1  109.500  418.400
  125  131  134   1  109.500  418.400
  135  141  144   1  109.500  418.400
  145  151  154   1  109.500  418.400
  155  161  164   1  109.500  418.400
  165  171  174   1  109.500  418.400
  175  181  184   1  109.500  418.400
  185  191  194   1  109.500  418.400
  195  201  204   1  109.500  418.400
  205  211  214   1  109.500  418.400
  215  221  224   1  109.500  418.400
  225  231  234   1  109.500  418.400
  235  241  244   1  109.500  418.400
  245  251  254   1  109.500  418.400
  255  261  264   1  109.500  418.400
  265  271  274   1  109.500  418.400
  275  281  284   1  109.500  418.400
  285  291  294   1  109.500  418.400
  295  301  304   1  109.500  418.400
  305  311  314   1  109.500  418.400
  315  321  324   1  109.500  418.400
  325  331  334   1  109.500  418.400
  335  341  344   1  109.500  418.400
  345  351  354   1  109.500  418.400
  17  18  55   1  109.500  502.080
  61  64  65   1  109.500  502.080
  71  74  75   1  109.500  502.080
  81  84  85   1  109.500  502.080
  91  94  95   1  109.500  502.080
  101  104  105   1  109.500  502.080
  111  114  115   1  109.500  502.080
  121  124  125   1  109.500  502.080
  131  134  135   1  109.500  502.080
  141  144  145   1  109.500  502.080
  151  154  155   1  109.500  502.080
  161  164  165   1  109.500  502.080
  171  174  175   1  109.500  502.080
  181  184  185   1  109.500  502.080
  191  194  195   1  109.500  502.080
  201  204  205   1  109.500  502.080
  211  214  215   1  109.500  502.080
  221  224  225   1  109.500  502.080
  231  234  235   1  109.500  502.080
  241  244  245   1  109.500  502.080
  251  254  255   1  109.500  502.080
  261  264  265   1  109.500  502.080
  271  274  275   1  109.500  502.080
  281  284  285   1  109.500  502.080
  291  294  295   1  109.500  502.080
  301  304  305   1  109.500  502.080
  311  314  315   1  109.500  502.080
  321  324  325   1  109.500  502.080
  331  334  335   1  109.500  502.080
  341  344  345   1  109.500  502.080
  351  354  19   1  109.500  502.080
  18  55  57   1  109.500  418.400
  64  65  67   1  109.500  418.400
  74  75  77   1  109.500  418.400
  84  85  87   1  109.500  418.400
  94  95  97   1  109.500  418.400
  104  105  107   1  109.500  418.400
  114  115  117   1  109.500  418.400
  124  125  127   1  109.500  418.400
  134  135  137   1  109.500  418.400
  144  145  147   1  109.500  418.400
  154  155  157   1  109.500  418.400
  164  165  167   1  109.500  418.400
  174  175  177   1  109.500  418.400
  184  185  187   1  109.500  418.400
  194  195  197   1  109.500  418.400
  204  205  207   1  109.500  418.400
  214  215  217   1  109.500  418.400
  224  225  227   1  109.500  418.400
  234  235  237   1  109.500  418.400
  244  245  247   1  109.500  418.400
  254  255  257   1  109.500  418.400
  264  265  267   1  109.500  418.400
  274  275  277   1  109.500  418.400
  284  285  287   1  109.500  418.400
  294  295  297   1  109.500  418.400
  304  305  307   1  109.500  418.400
  314  315  317   1  109.500  418.400
  324  325  327   1  109.500  418.400
  334  335  337   1  109.500  418.400
  344  345  347   1  109.500  418.400
  354  19  20   1  109.500  418.400
  18  55  61   1  109.500  418.400
  64  65  71   1  109.500  418.400
  74  75  81   1  109.500  418.400
  84  85  91   1  109.500  418.400
  94  95  101   1  109.500  418.400
  104  105  111   1  109.500  418.400
  114  115  121   1  109.500  418.400
  124  125  131   1  109.500  418.400
  134  135  141   1  109.500  418.400
  144  145  151   1  109.500  418.400
  154  155  161   1  109.500  418.400
  164  165  171   1  109.500  418.400
  174  175  181   1  109.500  418.400
  184  185  191   1  109.500  418.400
  194  195  201   1  109.500  418.400
  204  205  211   1  109.500  418.400
  214  215  221   1  109.500  418.400
  224  225  231   1  109.500  418.400
  234  235  241   1  109.500  418.400
  244  245  251   1  109.500  418.400
  254  255  261   1  109.500  418.400
  264  265  271   1  109.500  418.400
  274  275  281   1  109.500  418.400
  284  285  291   1  109.500  418.400
  294  295  301   1  109.500  418.400
  304  305  311   1  109.500  418.400
  314  315  321   1  109.500  418.400
  324  325  331   1  109.500  418.400
  334  335  341   1  109.500  418.400
  344  345  351   1  109.500  418.400
  354  19  21   1  109.500  418.400
  19  21  22   1  109.500  418.400
  21  22  23   1  116.900  694.544
  22  23  24   1  123.400  694.544
  22  23  25   1  111.400  677.808
  23  25  26   1  121.900  418.400
  25  26  27   1  120.000  585.760
  26  27  28   1  120.000  527.184
  27  28  29   1  120.000  527.184
  28  29  30   1  120.000  585.760
  28  29  31   1  120.000  527.184
  29  31  32   1  120.000  585.760
  31  32  33   1  121.900  418.400
  32  33  34   1  122.900  669.440
  25  26  35   1  120.000  585.760
  5  6  36   1  120.000  527.184
  6  36  37   1  120.000  527.184
  3  4  38   1  120.000  585.760
  4  38  39   1  120.000  585.760
  1  3  40   1  119.800  292.880
  4  5  41   1  120.000  292.880
  6  7  42   1  119.800  292.880
  10  11  43   1  109.500  292.880
  11  12  44   1  110.700  313.800
  11  12  45   1  110.700  313.800
  11  12  46   1  110.700  313.800
  11  13  47   1  110.700  313.800
  11  13  48   1  110.700  313.800
  14  15  49   1  109.500  292.880
  15  16  50   1  110.700  313.800
  55  57  58   1  110.700  313.800
  65  67  68   1  110.700  313.800
  75  77  78   1  110.700  313.800
  85  87  88   1  110.700  313.800
  95  97  98   1  110.700  313.800
  105  107  108   1  110.700  313.800
  115  117  118   1  110.700  313.800
  125  127  128   1  110.700  313.800
  135  137  138   1  110.700  313.800
  145  147  148   1  110.700  313.800
  155  157  158   1  110.700  313.800
  165  167  168   1  110.700  313.800
  175  177  178   1  110.700  313.800
  185  187  188   1  110.700  313.800
  195  197  198   1  110.700  313.800
  205  207  208   1  110.700  313.800
  215  217  218   1  110.700  313.800
  225  227  228   1  110.700  313.800
  235  237  238   1  110.700  313.800
  245  247  248   1  110.700  313.800
  255  257  258   1  110.700  313.800
  265  267  268   1  110.700  313.800
  275  277  278   1  110.700  313.800
  285  287  288   1  110.700  313.800
  295  297  298   1  110.700  313.800
  305  307  308   1  110.700  313.800
  315  317  318   1  110.700  313.800
  325  327  328   1  110.700  313.800
  335  337  338   1  110.700  313.800
  345  347  348   1  110.700  313.800
  15  16  51   1  110.700  313.800
  55  57  59   1  110.700  313.800
  65  67  69   1  110.700  313.800
  75  77  79   1  110.700  313.800
  85  87  89   1  110.700  313.800
  95  97  99   1  110.700  313.800
  105  107  109   1  110.700  313.800
  115  117  119   1  110.700  313.800
  125  127  129   1  110.700  313.800
  135  137  139   1  110.700  313.800
  145  147  149   1  110.700  313.800
  155  157  159   1  110.700  313.800
  165  167  169   1  110.700  313.800
  175  177  179   1  110.700  313.800
  185  187  189   1  110.700  313.800
  195  197  199   1  110.700  313.800
  205  207  209   1  110.700  313.800
  215  217  219   1  110.700  313.800
  225  227  229   1  110.700  313.800
  235  237  239   1  110.700  313.800
  245  247  249   1  110.700  313.800
  255  257  259   1  110.700  313.800
  265  267  269   1  110.700  313.800
  275  277  279   1  110.700  313.800
  285  287  289   1  110.700  313.800
  295  297  299   1  110.700  313.800
  305  307  309   1  110.700  313.800
  315  317  319   1  110.700  313.800
  325  327  329   1  110.700  313.800
  335  337  339   1  110.700  313.800
  345  347  349   1  110.700  313.800
  15  16  52   1  110.700  313.800
  55  57  60   1  110.700  313.800
  65  67  70   1  110.700  313.800
  75  77  80   1  110.700  313.800
  85  87  90   1  110.700  313.800
  95  97  100   1  110.700  313.800
  105  107  110   1  110.700  313.800
  115  117  120   1  110.700  313.800
  125  127  130   1  110.700  313.800
  135  137  140   1  110.700  313.800
  145  147  150   1  110.700  313.800
  155  157  160   1  110.700  313.800
  165  167  170   1  110.700  313.800
  175  177  180   1  110.700  313.800
  185  187  190   1  110.700  313.800
  195  197  200   1  110.700  313.800
  205  207  210   1  110.700  313.800
  215  217  220   1  110.700  313.800
  225  227  230   1  110.700  313.800
  235  237  240   1  110.700  313.800
  245  247  250   1  110.700  313.800
  255  257  260   1  110.700  313.800
  265  267  270   1  110.700  313.800
  275  277  280   1  110.700  313.800
  285  287  290   1  110.700  313.800
  295  297  300   1  110.700  313.800
  305  307  310   1  110.700  313.800
  315  317  320   1  110.700  313.800
  325  327  330   1  110.700  313.800
  335  337  340   1  110.700  313.800
  345  347  350   1  110.700  313.800
  15  17  53   1  110.700  313.800
  55  61  62   1  110.700  313.800
  65  71  72   1  110.700  313.800
  75  81  82   1  110.700  313.800
  85  91  92   1  110.700  313.800
  95  101  102   1  110.700  313.800
  105  111  112   1  110.700  313.800
  115  121  122   1  110.700  313.800
  125  131  132   1  110.700  313.800
  135  141  142   1  110.700  313.800
  145  151  152   1  110.700  313.800
  155  161  162   1  110.700  313.800
  165  171  172   1  110.700  313.800
  175  181  182   1  110.700  313.800
  185  191  192   1  110.700  313.800
  195  201  202   1  110.700  313.800
  205  211  212   1  110.700  313.800
  215  221  222   1  110.700  313.800
  225  231  232   1  110.700  313.800
  235  241  242   1  110.700  313.800
  245  251  252   1  110.700  313.800
  255  261  262   1  110.700  313.800
  265  271  272   1  110.700  313.800
  275  281  282   1  110.700  313.800
  285  291  292   1  110.700  313.800
  295  301  302   1  110.700  313.800
  305  311  312   1  110.700  313.800
  315  321  322   1  110.700  313.800
  325  331  332   1  110.700  313.800
  335  341  342   1  110.700  313.800
  345  351  352   1  110.700  313.800
  15  17  54   1  110.700  313.800
  55  61  63   1  110.700  313.800
  65  71  73   1  110.700  313.800
  75  81  83   1  110.700  313.800
  85  91  93   1  110.700  313.800
  95  101  103   1  110.700  313.800
  105  111  113   1  110.700  313.800
  115  121  123   1  110.700  313.800
  125  131  133   1  110.700  313.800
  135  141  143   1  110.700  313.800
  145  151  153   1  110.700  313.800
  155  161  163   1  110.700  313.800
  165  171  173   1  110.700  313.800
  175  181  183   1  110.700  313.800
  185  191  193   1  110.700  313.800
  195  201  203   1  110.700  313.800
  205  211  213   1  110.700  313.800
  215  221  223   1  110.700  313.800
  225  231  233   1  110.700  313.800
  235  241  243   1  110.700  313.800
  245  251  253   1  110.700  313.800
  255  261  263   1  110.700  313.800
  265  271  273   1  110.700  313.800
  275  281  283   1  110.700  313.800
  285  291  293   1  110.700  313.800
  295  301  303   1  110.700  313.800
  305  311  313   1  110.700  313.800
  315  321  323   1  110.700  313.800
  325  331  333   1  110.700  313.800
  335  341  343   1  110.700  313.800
  345  351  353   1  110.700  313.800
  18  55  56   1  109.500  292.880
  64  65  66   1  109.500  292.880
  74  75  76   1  109.500  292.880
  84  85  86   1  109.500  292.880
  94  95  96   1  109.500  292.880
  104  105  106   1  109.500  292.880
  114  115  116   1  109.500  292.880
  124  125  126   1  109.500  292.880
  134  135  136   1  109.500  292.880
  144  145  146   1  109.500  292.880
  154  155  156   1  109.500  292.880
  164  165  166   1  109.500  292.880
  174  175  176   1  109.500  292.880
  184  185  186   1  109.500  292.880
  194  195  196   1  109.500  292.880
  204  205  206   1  109.500  292.880
  214  215  216   1  109.500  292.880
  224  225  226   1  109.500  292.880
  234  235  236   1  109.500  292.880
  244  245  246   1  109.500  292.880
  254  255  256   1  109.500  292.880
  264  265  266   1  109.500  292.880
  274  275  276   1  109.500  292.880
  284  285  286   1  109.500  292.880
  294  295  296   1  109.500  292.880
  304  305  306   1  109.500  292.880
  314  315  316   1  109.500  292.880
  324  325  326   1  109.500  292.880
  334  335  336   1  109.500  292.880
  344  345  346   1  109.500  292.880
  354  19  355   1  109.500  292.880
  19  20  356   1  110.700  313.800
  19  20  357   1  110.700  313.800
  19  20  358   1  110.700  313.800
  19  21  359   1  110.700  313.800
  19  21  360   1  110.700  313.800
  23  25  361   1  119.800  292.880
  26  27  362   1  120.000  292.880
  27  28  363   1  120.000  292.880
  29  30  364   1  109.500  292.880
  29  30  365   1  109.500  292.880
  29  30  366   1  109.500  292.880
  31  32  367   1  119.800  292.880
  26  35  368   1  120.000  292.880
  6  36  369   1  120.000  292.880
  36  37  370   1  120.000  292.880
  38  39  371   1  109.500  292.880
  38  39  372   1  109.500  292.880
  38  39  373   1  109.500  292.880
  9  8  10   1  123.400  694.544
  22  21  360   1  109.500  292.880
  50  16  51   1  107.800  276.144
  58  57  59   1  107.800  276.144
  68  67  69   1  107.800  276.144
  78  77  79   1  107.800  276.144
  88  87  89   1  107.800  276.144
  98  97  99   1  107.800  276.144
  108  107  109   1  107.800  276.144
  118  117  119   1  107.800  276.144
  128  127  129   1  107.800  276.144
  138  137  139   1  107.800  276.144
  148  147  149   1  107.800  276.144
  158  157  159   1  107.800  276.144
  168  167  169   1  107.800  276.144
  178  177  179   1  107.800  276.144
  188  187  189   1  107.800  276.144
  198  197  199   1  107.800  276.144
  208  207  209   1  107.800  276.144
  218  217  219   1  107.800  276.144
  228  227  229   1  107.800  276.144
  238  237  239   1  107.800  276.144
  248  247  249   1  107.800  276.144
  258  257  259   1  107.800  276.144
  268  267  269   1  107.800  276.144
  278  277  279   1  107.800  276.144
  288  287  289   1  107.800  276.144
  298  297  299   1  107.800  276.144
  308  307  309   1  107.800  276.144
  318  317  319   1  107.800  276.144
  328  327  329   1  107.800  276.144
  338  337  339   1  107.800  276.144
  348  347  349   1  107.800  276.144
  12  11  13   1  112.700  488.273
  7  6  36   1  120.000  585.760
  16  15  49   1  110.700  313.800
  57  55  56   1  110.700  313.800
  67  65  66   1  110.700  313.800
  77  75  76   1  110.700  313.800
  87  85  86   1  110.700  313.800
  97  95  96   1  110.700  313.800
  107  105  106   1  110.700  313.800
  117  115  116   1  110.700  313.800
  127  125  126   1  110.700  313.800
  137  135  136   1  110.700  313.800
  147  145  146   1  110.700  313.800
  157  155  156   1  110.700  313.800
  167  165  166   1  110.700  313.800
  177  175  176   1  110.700  313.800
  187  185  186   1  110.700  313.800
  197  195  196   1  110.700  313.800
  207  205  206   1  110.700  313.800
  217  215  216   1  110.700  313.800
  227  225  226   1  110.700  313.800
  237  235  236   1  110.700  313.800
  247  245  246   1  110.700  313.800
  257  255  256   1  110.700  313.800
  267  265  266   1  110.700  313.800
  277  275  276   1  110.700  313.800
  287  285  286   1  110.700  313.800
  297  295  296   1  110.700  313.800
  307  305  306   1  110.700  313.800
  317  315  316   1  110.700  313.800
  327  325  326   1  110.700  313.800
  337  335  336   1  110.700  313.800
  347  345  346   1  110.700  313.800
  4  38  37   1  120.000  527.184
  26  35  31   1  120.000  527.184
  28  27  362   1  120.000  292.880
  45  12  46   1  107.800  276.144
  44  12  46   1  107.800  276.144
  33  32  367   1  119.800  292.880
  371  39  372   1  107.800  276.144
  29  28  363   1  120.000  292.880
  20  19  21   1  112.700  488.273
  50  16  52   1  107.800  276.144
  58  57  60   1  107.800  276.144
  68  67  70   1  107.800  276.144
  78  77  80   1  107.800  276.144
  88  87  90   1  107.800  276.144
  98  97  100   1  107.800  276.144
  108  107  110   1  107.800  276.144
  118  117  120   1  107.800  276.144
  128  127  130   1  107.800  276.144
  138  137  140   1  107.800  276.144
  148  147  150   1  107.800  276.144
  158  157  160   1  107.800  276.144
  168  167  170   1  107.800  276.144
  178  177  180   1  107.800  276.144
  188  187  190   1  107.800  276.144
  198  197  200   1  107.800  276.144
  208  207  210   1  107.800  276.144
  218  217  220   1  107.800  276.144
  228  227  230   1  107.800  276.144
  238  237  240   1  107.800  276.144
  248  247  250   1  107.800  276.144
  258  257  260   1  107.800  276.144
  268  267  270   1  107.800  276.144
  278  277  280   1  107.800  276.144
  288  287  290   1  107.800  276.144
  298  297  300   1  107.800  276.144
  308  307  310   1  107.800  276.144
  318  317  320   1  107.800  276.144
  328  327  330   1  107.800  276.144
  338  337  340   1  107.800  276.144
  348  347  350   1  107.800  276.144
  31  35  368   1  120.000  292.880
  30  29  31   1  120.000  585.760
  14  13  48   1  109.500  292.880
  24  23  25   1  122.900  669.440
  372  39  373   1  107.800  276.144
  364  30  365   1  107.800  276.144
  2  1  3   1  122.900  669.440
  4  3  40   1  119.800  292.880
  22  21  359   1  109.500  292.880
  6  5  41   1  120.000  292.880
  17  15  49   1  110.700  313.800
  61  55  56   1  110.700  313.800
  71  65  66   1  110.700  313.800
  81  75  76   1  110.700  313.800
  91  85  86   1  110.700  313.800
  101  95  96   1  110.700  313.800
  111  105  106   1  110.700  313.800
  121  115  116   1  110.700  313.800
  131  125  126   1  110.700  313.800
  141  135  136   1  110.700  313.800
  151  145  146   1  110.700  313.800
  161  155  156   1  110.700  313.800
  171  165  166   1  110.700  313.800
  181  175  176   1  110.700  313.800
  191  185  186   1  110.700  313.800
  201  195  196   1  110.700  313.800
  211  205  206   1  110.700  313.800
  221  215  216   1  110.700  313.800
  231  225  226   1  110.700  313.800
  241  235  236   1  110.700  313.800
  251  245  246   1  110.700  313.800
  261  255  256   1  110.700  313.800
  271  265  266   1  110.700  313.800
  281  275  276   1  110.700  313.800
  291  285  286   1  110.700  313.800
  301  295  296   1  110.700  313.800
  311  305  306   1  110.700  313.800
  321  315  316   1  110.700  313.800
  331  325  326   1  110.700  313.800
  341  335  336   1  110.700  313.800
  351  345  346   1  110.700  313.800
  44  12  45   1  107.800  276.144
  18  17  54   1  109.500  292.880
  64  61  63   1  109.500  292.880
  74  71  73   1  109.500  292.880
  84  81  83   1  109.500  292.880
  94  91  93   1  109.500  292.880
  104  101  103   1  109.500  292.880
  114  111  113   1  109.500  292.880
  124  121  123   1  109.500  292.880
  134  131  133   1  109.500  292.880
  144  141  143   1  109.500  292.880
  154  151  153   1  109.500  292.880
  164  161  163   1  109.500  292.880
  174  171  173   1  109.500  292.880
  184  181  183   1  109.500  292.880
  194  191  193   1  109.500  292.880
  204  201  203   1  109.500  292.880
  214  211  213   1  109.500  292.880
  224  221  223   1  109.500  292.880
  234  231  233   1  109.500  292.880
  244  241  243   1  109.500  292.880
  254  251  253   1  109.500  292.880
  264  261  263   1  109.500  292.880
  274  271  273   1  109.500  292.880
  284  281  283   1  109.500  292.880
  294  291  293   1  109.500  292.880
  304  301  303   1  109.500  292.880
  314  311  313   1  109.500  292.880
  324  321  323   1  109.500  292.880
  334  331  333   1  109.500  292.880
  344  341  343   1  109.500  292.880
  354  351  353   1  109.500  292.880
  32  31  35   1  120.000  585.760
  364  30  366   1  107.800  276.144
  21  19  355   1  110.700  313.800
  365  30  366   1  107.800  276.144
  47  13  48   1  107.800  276.144
  37  38  39   1  120.000  585.760
  51  16  52   1  107.800  276.144
  59  57  60   1  107.800  276.144
  69  67  70   1  107.800  276.144
  79  77  80   1  107.800  276.144
  89  87  90   1  107.800  276.144
  99  97  100   1  107.800  276.144
  109  107  110   1  107.800  276.144
  119  117  120   1  107.800  276.144
  129  127  130   1  107.800  276.144
  139  137  140   1  107.800  276.144
  149  147  150   1  107.800  276.144
  159  157  160   1  107.800  276.144
  169  167  170   1  107.800  276.144
  179  177  180   1  107.800  276.144
  189  187  190   1  107.800  276.144
  199  197  200   1  107.800  276.144
  209  207  210   1  107.800  276.144
  219  217  220   1  107.800  276.144
  229  227  230   1  107.800  276.144
  239  237  240   1  107.800  276.144
  249  247  250   1  107.800  276.144
  259  257  260   1  107.800  276.144
  269  267  270   1  107.800  276.144
  279  277  280   1  107.800  276.144
  289  287  290   1  107.800  276.144
  299  297  300   1  107.800  276.144
  309  307  310   1  107.800  276.144
  319  317  320   1  107.800  276.144
  329  327  330   1  107.800  276.144
  339  337  340   1  107.800  276.144
  349  347  350   1  107.800  276.144
  12  11  43   1  110.700  313.800
  20  19  355   1  110.700  313.800
  53  17  54   1  107.800  276.144
  62  61  63   1  107.800  276.144
  72  71  73   1  107.800  276.144
  82  81  83   1  107.800  276.144
  92  91  93   1  107.800  276.144
  102  101  103   1  107.800  276.144
  112  111  113   1  107.800  276.144
  122  121  123   1  107.800  276.144
  132  131  133   1  107.800  276.144
  142  141  143   1  107.800  276.144
  152  151  153   1  107.800  276.144
  162  161  163   1  107.800  276.144
  172  171  173   1  107.800  276.144
  182  181  183   1  107.800  276.144
  192  191  193   1  107.800  276.144
  202  201  203   1  107.800  276.144
  212  211  213   1  107.800  276.144
  222  221  223   1  107.800  276.144
  232  231  233   1  107.800  276.144
  242  241  243   1  107.800  276.144
  252  251  253   1  107.800  276.144
  262  261  263   1  107.800  276.144
  272  271  273   1  107.800  276.144
  282  281  283   1  107.800  276.144
  292  291  293   1  107.800  276.144
  302  301  303   1  107.800  276.144
  312  311  313   1  107.800  276.144
  322  321  323   1  107.800  276.144
  332  331  333   1  107.800  276.144
  342  341  343   1  107.800  276.144
  352  351  353   1  107.800  276.144
  27  26  35   1  120.000  527.184
  357  20  358   1  107.800  276.144
  13  11  43   1  110.700  313.800
  356  20  358   1  107.800  276.144
  26  25  361   1  119.800  292.880
  38  37  370   1  120.000  292.880
  29  31  35   1  120.000  527.184
  359  21  360   1  107.800  276.144
  14  13  47   1  109.500  292.880
  371  39  373   1  107.800  276.144
  356  20  357   1  107.800  276.144
  18  17  53   1  109.500  292.880
  64  61  62   1  109.500  292.880
  74  71  72   1  109.500  292.880
  84  81  82   1  109.500  292.880
  94  91  92   1  109.500  292.880
  104  101  102   1  109.500  292.880
  114  111  112   1  109.500  292.880
  124  121  122   1  109.500  292.880
  134  131  132   1  109.500  292.880
  144  141  142   1  109.500  292.880
  154  151  152   1  109.500  292.880
  164  161  162   1  109.500  292.880
  174  171  172   1  109.500  292.880
  184  181  182   1  109.500  292.880
  194  191  192   1  109.500  292.880
  204  201  202   1  109.500  292.880
  214  211  212   1  109.500  292.880
  224  221  222   1  109.500  292.880
  234  231  232   1  109.500  292.880
  244  241  242   1  109.500  292.880
  254  251  252   1  109.500  292.880
  264  261  262   1  109.500  292.880
  274  271  272   1  109.500  292.880
  284  281  282   1  109.500  292.880
  294  291  292   1  109.500  292.880
  304  301  302   1  109.500  292.880
  314  311  312   1  109.500  292.880
  324  321  322   1  109.500  292.880
  334  331  332   1  109.500  292.880
  344  341  342   1  109.500  292.880
  354  351  352   1  109.500  292.880
  16  15  17   1  112.700  488.273
  57  55  61   1  112.700  488.273
  67  65  71   1  112.700  488.273
  77  75  81   1  112.700  488.273
  87  85  91   1  112.700  488.273
  97  95  101   1  112.700  488.273
  107  105  111   1  112.700  488.273
  117  115  121   1  112.700  488.273
  127  125  131   1  112.700  488.273
  137  135  141   1  112.700  488.273
  147  145  151   1  112.700  488.273
  157  155  161   1  112.700  488.273
  167  165  171   1  112.700  488.273
  177  175  181   1  112.700  488.273
  187  185  191   1  112.700  488.273
  197  195  201   1  112.700  488.273
  207  205  211   1  112.700  488.273
  217  215  221   1  112.700  488.273
  227  225  231   1  112.700  488.273
  237  235  241   1  112.700  488.273
  247  245  251   1  112.700  488.273
  257  255  261   1  112.700  488.273
  267  265  271   1  112.700  488.273
  277  275  281   1  112.700  488.273
  287  285  291   1  112.700  488.273
  297  295  301   1  112.700  488.273
  307  305  311   1  112.700  488.273
  317  315  321   1  112.700  488.273
  327  325  331   1  112.700  488.273
  337  335  341   1  112.700  488.273
  347  345  351   1  112.700  488.273
  36  37  38   1  120.000  527.184
  8  7  42   1  119.800  292.880
  5  4  38   1  120.000  527.184
  37  36  369   1  120.000  292.880

[ dihedrals ]
  31  29  28  30   4  180.000  10.460  2
  36  6  5  7   4  180.000  10.460  2
  35  26  25  27   4  180.000  10.460  2
  38  4  3  5   4  180.000  10.460  2
  39  38  4  37   4  180.000  10.460  2
  361  25  23  26   4  180.000  10.460  2
  40  3  1  4   4  180.000  10.460  2
  42  7  6  8   4  180.000  10.460  2
  367  32  31  33   4  180.000  10.460  2
  41  5  4  6   4  180.000  10.460  2
  362  27  26  28   4  180.000  10.460  2
  363  28  27  29   4  180.000  10.460  2
  370  37  36  38   4  180.000  10.460  2
  369  36  6  37   4  180.000  10.460  2
  368  35  26  31   4  180.000  10.460  2
  25  23  22  24   4  180.000  43.932  2
  32  31  35  29   4  180.000  10.460  2
  10  8  7  9   4  180.000  43.932  2
  33  32  31  29   3  8.786  0.000  -8.786  -0.000  -0.000  0.000
  8  7  6  5   3  8.786  0.000  -8.786  -0.000  -0.000  0.000
  23  22  21  19   3  -2.197  5.201  0.527  -3.531  -0.000  0.000
  37  38  4  5   3  30.334  0.000  -30.334  -0.000  -0.000  0.000
  36  37  38  4   3  30.334  0.000  -30.334  -0.000  -0.000  0.000
  35  26  27  28   3  30.334  0.000  -30.334  -0.000  -0.000  0.000
  31  29  28  27   3  30.334  0.000  -30.334  -0.000  -0.000  0.000
  36  6  5  4   3  30.334  0.000  -30.334  -0.000  -0.000  0.000
  35  31  29  28   3  30.334  0.000  -30.334  -0.000  -0.000  0.000
  37  36  6  5   3  30.334  0.000  -30.334  -0.000  -0.000  0.000
  29  28  27  26   3  30.334  0.000  -30.334  -0.000  -0.000  0.000
  31  35  26  27   3  30.334  0.000  -30.334  -0.000  -0.000  0.000
  38  37  36  6   3  30.334  0.000  -30.334  -0.000  -0.000  0.000
  29  31  35  26   3  30.334  0.000  -30.334  -0.000  -0.000  0.000
  38  4  5  6   3  30.334  0.000  -30.334  -0.000  -0.000  0.000
  35  31  29  30   3  30.334  0.000  -30.334  -0.000  -0.000  0.000
  6  5  4  3   3  30.334  0.000  -30.334  -0.000  -0.000  0.000
  31  35  26  25   3  30.334  0.000  -30.334  -0.000  -0.000  0.000
  37  36  6  7   3  30.334  0.000  -30.334  -0.000  -0.000  0.000
  37  38  4  3   3  30.334  0.000  -30.334  -0.000  -0.000  0.000
  28  27  26  25   3  30.334  0.000  -30.334  -0.000  -0.000  0.000
  35  31  32  33   3  8.786  0.000  -8.786  -0.000  -0.000  0.000
  5  4  3  1   3  8.786  0.000  -8.786  -0.000  -0.000  0.000
  38  4  3  1   3  8.786  0.000  -8.786  -0.000  -0.000  0.000
  27  26  25  23   3  8.786  0.000  -8.786  -0.000  -0.000  0.000
  36  6  7  8   3  8.786  0.000  -8.786  -0.000  -0.000  0.000
  35  26  25  23   3  8.786  0.000  -8.786  -0.000  -0.000  0.000
  26  25  23  24   3  25.476  0.000  -25.476  -0.000  -0.000  0.000
  4  3  1  2   3  25.476  0.000  -25.476  -0.000  -0.000  0.000
  26  25  23  22   3  25.476  0.000  -25.476  -0.000  -0.000  0.000
  39  38  4  5   3  30.334  0.000  -30.334  -0.000  -0.000  0.000
  39  38  37  36   3  30.334  0.000  -30.334  -0.000  -0.000  0.000
  30  29  28  27   3  30.334  0.000  -30.334  -0.000  -0.000  0.000
  39  38  4  3   3  30.334  0.000  -30.334  -0.000  -0.000  0.000
  13  11  10  8   3  -2.197  5.201  0.527  -3.531  -0.000  0.000
  12  11  10  8   3  -2.197  5.201  0.527  -3.531  -0.000  0.000
  61  55  18  17   3  1.715  2.845  1.046  -5.607  -0.000  0.000
  71  65  64  61   3  1.715  2.845  1.046  -5.607  -0.000  0.000
  81  75  74  71   3  1.715  2.845  1.046  -5.607  -0.000  0.000
  91  85  84  81   3  1.715  2.845  1.046  -5.607  -0.000  0.000
  101  95  94  91   3  1.715  2.845  1.046  -5.607  -0.000  0.000
  111  105  104  101   3  1.715  2.845  1.046  -5.607  -0.000  0.000
  121  115  114  111   3  1.715  2.845  1.046  -5.607  -0.000  0.000
  131  125  124  121   3  1.715  2.845  1.046  -5.607  -0.000  0.000
  141  135  134  131   3  1.715  2.845  1.046  -5.607  -0.000  0.000
  151  145  144  141   3  1.715  2.845  1.046  -5.607  -0.000  0.000
  161  155  154  151   3  1.715  2.845  1.046  -5.607  -0.000  0.000
  171  165  164  161   3  1.715  2.845  1.046  -5.607  -0.000  0.000
  181  175  174  171   3  1.715  2.845  1.046  -5.607  -0.000  0.000
  191  185  184  181   3  1.715  2.845  1.046  -5.607  -0.000  0.000
  201  195  194  191   3  1.715  2.845  1.046  -5.607  -0.000  0.000
  211  205  204  201   3  1.715  2.845  1.046  -5.607  -0.000  0.000
  221  215  214  211   3  1.715  2.845  1.046  -5.607  -0.000  0.000
  231  225  224  221   3  1.715  2.845  1.046  -5.607  -0.000  0.000
  241  235  234  231   3  1.715  2.845  1.046  -5.607  -0.000  0.000
  251  245  244  241   3  1.715  2.845  1.046  -5.607  -0.000  0.000
  261  255  254  251   3  1.715  2.845  1.046  -5.607  -0.000  0.000
  271  265  264  261   3  1.715  2.845  1.046  -5.607  -0.000  0.000
  281  275  274  271   3  1.715  2.845  1.046  -5.607  -0.000  0.000
  291  285  284  281   3  1.715  2.845  1.046  -5.607  -0.000  0.000
  301  295  294  291   3  1.715  2.845  1.046  -5.607  -0.000  0.000
  311  305  304  301   3  1.715  2.845  1.046  -5.607  -0.000  0.000
  321  315  314  311   3  1.715  2.845  1.046  -5.607  -0.000  0.000
  331  325  324  321   3  1.715  2.845  1.046  -5.607  -0.000  0.000
  341  335  334  331   3  1.715  2.845  1.046  -5.607  -0.000  0.000
  351  345  344  341   3  1.715  2.845  1.046  -5.607  -0.000  0.000
  21  19  354  351   3  1.715  2.845  1.046  -5.607  -0.000  0.000
  16  15  14  13   3  1.715  2.845  1.046  -5.607  -0.000  0.000
  17  15  14  13   3  1.715  2.845  1.046  -5.607  -0.000  0.000
  57  55  18  17   3  1.715  2.845  1.046  -5.607  -0.000  0.000
  67  65  64  61   3  1.715  2.845  1.046  -5.607  -0.000  0.000
  77  75  74  71   3  1.715  2.845  1.046  -5.607  -0.000  0.000
  87  85  84  81   3  1.715  2.845  1.046  -5.607  -0.000  0.000
  97  95  94  91   3  1.715  2.845  1.046  -5.607  -0.000  0.000
  107  105  104  101   3  1.715  2.845  1.046  -5.607  -0.000  0.000
  117  115  114  111   3  1.715  2.845  1.046  -5.607  -0.000  0.000
  127  125  124  121   3  1.715  2.845  1.046  -5.607  -0.000  0.000
  137  135  134  131   3  1.715  2.845  1.046  -5.607  -0.000  0.000
  147  145  144  141   3  1.715  2.845  1.046  -5.607  -0.000  0.000
  157  155  154  151   3  1.715  2.845  1.046  -5.607  -0.000  0.000
  167  165  164  161   3  1.715  2.845  1.046  -5.607  -0.000  0.000
  177  175  174  171   3  1.715  2.845  1.046  -5.607  -0.000  0.000
  187  185  184  181   3  1.715  2.845  1.046  -5.607  -0.000  0.000
  197  195  194  191   3  1.715  2.845  1.046  -5.607  -0.000  0.000
  207  205  204  201   3  1.715  2.845  1.046  -5.607  -0.000  0.000
  217  215  214  211   3  1.715  2.845  1.046  -5.607  -0.000  0.000
  227  225  224  221   3  1.715  2.845  1.046  -5.607  -0.000  0.000
  237  235  234  231   3  1.715  2.845  1.046  -5.607  -0.000  0.000
  247  245  244  241   3  1.715  2.845  1.046  -5.607  -0.000  0.000
  257  255  254  251   3  1.715  2.845  1.046  -5.607  -0.000  0.000
  267  265  264  261   3  1.715  2.845  1.046  -5.607  -0.000  0.000
  277  275  274  271   3  1.715  2.845  1.046  -5.607  -0.000  0.000
  287  285  284  281   3  1.715  2.845  1.046  -5.607  -0.000  0.000
  297  295  294  291   3  1.715  2.845  1.046  -5.607  -0.000  0.000
  307  305  304  301   3  1.715  2.845  1.046  -5.607  -0.000  0.000
  317  315  314  311   3  1.715  2.845  1.046  -5.607  -0.000  0.000
  327  325  324  321   3  1.715  2.845  1.046  -5.607  -0.000  0.000
  337  335  334  331   3  1.715  2.845  1.046  -5.607  -0.000  0.000
  347  345  344  341   3  1.715  2.845  1.046  -5.607  -0.000  0.000
  20  19  354  351   3  1.715  2.845  1.046  -5.607  -0.000  0.000
  11  10  8  7   3  16.736  4.184  -20.920  -0.000  -0.000  0.000
  11  10  8  9   3  21.439  0.000  -21.439  -0.000  -0.000  0.000
  15  14  13  11   3  1.715  2.845  1.046  -5.607  -0.000  0.000
  55  18  17  15   3  1.715  2.845  1.046  -5.607  -0.000  0.000
  65  64  61  55   3  1.715  2.845  1.046  -5.607  -0.000  0.000
  75  74  71  65   3  1.715  2.845  1.046  -5.607  -0.000  0.000
  85  84  81  75   3  1.715  2.845  1.046  -5.607  -0.000  0.000
  95  94  91  85   3  1.715  2.845  1.046  -5.607  -0.000  0.000
  105  104  101  95   3  1.715  2.845  1.046  -5.607  -0.000  0.000
  115  114  111  105   3  1.715  2.845  1.046  -5.607  -0.000  0.000
  125  124  121  115   3  1.715  2.845  1.046  -5.607  -0.000  0.000
  135  134  131  125   3  1.715  2.845  1.046  -5.607  -0.000  0.000
  145  144  141  135   3  1.715  2.845  1.046  -5.607  -0.000  0.000
  155  154  151  145   3  1.715  2.845  1.046  -5.607  -0.000  0.000
  165  164  161  155   3  1.715  2.845  1.046  -5.607  -0.000  0.000
  175  174  171  165   3  1.715  2.845  1.046  -5.607  -0.000  0.000
  185  184  181  175   3  1.715  2.845  1.046  -5.607  -0.000  0.000
  195  194  191  185   3  1.715  2.845  1.046  -5.607  -0.000  0.000
  205  204  201  195   3  1.715  2.845  1.046  -5.607  -0.000  0.000
  215  214  211  205   3  1.715  2.845  1.046  -5.607  -0.000  0.000
  225  224  221  215   3  1.715  2.845  1.046  -5.607  -0.000  0.000
  235  234  231  225   3  1.715  2.845  1.046  -5.607  -0.000  0.000
  245  244  241  235   3  1.715  2.845  1.046  -5.607  -0.000  0.000
  255  254  251  245   3  1.715  2.845  1.046  -5.607  -0.000  0.000
  265  264  261  255   3  1.715  2.845  1.046  -5.607  -0.000  0.000
  275  274  271  265   3  1.715  2.845  1.046  -5.607  -0.000  0.000
  285  284  281  275   3  1.715  2.845  1.046  -5.607  -0.000  0.000
  295  294  291  285   3  1.715  2.845  1.046  -5.607  -0.000  0.000
  305  304  301  295   3  1.715  2.845  1.046  -5.607  -0.000  0.000
  315  314  311  305   3  1.715  2.845  1.046  -5.607  -0.000  0.000
  325  324  321  315   3  1.715  2.845  1.046  -5.607  -0.000  0.000
  335  334  331  325   3  1.715  2.845  1.046  -5.607  -0.000  0.000
  345  344  341  335   3  1.715  2.845  1.046  -5.607  -0.000  0.000
  19  354  351  345   3  1.715  2.845  1.046  -5.607  -0.000  0.000
  367  32  33  34   3  20.502  0.000  -20.502  -0.000  -0.000  0.000
  40  3  1  2   3  20.502  0.000  -20.502  -0.000  -0.000  0.000
  42  7  8  9   3  20.502  0.000  -20.502  -0.000  -0.000  0.000
  361  25  23  24   3  20.502  0.000  -20.502  -0.000  -0.000  0.000
  361  25  23  22   3  20.502  0.000  -20.502  -0.000  -0.000  0.000
  42  7  8  10   3  20.502  0.000  -20.502  -0.000  -0.000  0.000
  367  32  31  35   3  8.786  0.000  -8.786  -0.000  -0.000  0.000
  361  25  26  35   3  8.786  0.000  -8.786  -0.000  -0.000  0.000
  361  25  26  27   3  8.786  0.000  -8.786  -0.000  -0.000  0.000
  40  3  4  5   3  8.786  0.000  -8.786  -0.000  -0.000  0.000
  40  3  4  38   3  8.786  0.000  -8.786  -0.000  -0.000  0.000
  367  32  31  29   3  8.786  0.000  -8.786  -0.000  -0.000  0.000
  42  7  6  36   3  8.786  0.000  -8.786  -0.000  -0.000  0.000
  42  7  6  5   3  8.786  0.000  -8.786  -0.000  -0.000  0.000
  368  35  26  27   3  30.334  0.000  -30.334  -0.000  -0.000  0.000
  369  36  6  5   3  30.334  0.000  -30.334  -0.000  -0.000  0.000
  370  37  36  6   3  30.334  0.000  -30.334  -0.000  -0.000  0.000
  41  5  6  36   3  30.334  0.000  -30.334  -0.000  -0.000  0.000
  368  35  31  29   3  30.334  0.000  -30.334  -0.000  -0.000  0.000
  370  37  38  4   3  30.334  0.000  -30.334  -0.000  -0.000  0.000
  362  27  26  35   3  30.334  0.000  -30.334  -0.000  -0.000  0.000
  369  36  37  38   3  30.334  0.000  -30.334  -0.000  -0.000  0.000
  41  5  4  38   3  30.334  0.000  -30.334  -0.000  -0.000  0.000
  363  28  27  26   3  30.334  0.000  -30.334  -0.000  -0.000  0.000
  362  27  28  29   3  30.334  0.000  -30.334  -0.000  -0.000  0.000
  363  28  29  31   3  30.334  0.000  -30.334  -0.000  -0.000  0.000
  370  37  38  39   3  30.334  0.000  -30.334  -0.000  -0.000  0.000
  363  28  29  30   3  30.334  0.000  -30.334  -0.000  -0.000  0.000
  370  37  36  369   3  30.334  0.000  -30.334  -0.000  -0.000  0.000
  363  28  27  362   3  30.334  0.000  -30.334  -0.000  -0.000  0.000
  369  36  6  7   3  30.334  0.000  -30.334  -0.000  -0.000  0.000
  368  35  26  25   3  30.334  0.000  -30.334  -0.000  -0.000  0.000
  368  35  31  32   3  30.334  0.000  -30.334  -0.000  -0.000  0.000
  362  27  26  25   3  30.334  0.000  -30.334  -0.000  -0.000  0.000
  41  5  6  7   3  30.334  0.000  -30.334  -0.000  -0.000  0.000
  41  5  4  3   3  30.334  0.000  -30.334  -0.000  -0.000  0.000
  373  39  38  4   3  0.000  0.000  0.000  -0.000  -0.000  0.000
  373  39  38  37   3  0.000  0.000  0.000  -0.000  -0.000  0.000
  366  30  29  28   3  0.000  0.000  0.000  -0.000  -0.000  0.000
  365  30  29  28   3  0.000  0.000  0.000  -0.000  -0.000  0.000
  372  39  38  4   3  0.000  0.000  0.000  -0.000  -0.000  0.000
  371  39  38  37   3  0.000  0.000  0.000  -0.000  -0.000  0.000
  364  30  29  28   3  0.000  0.000  0.000  -0.000  -0.000  0.000
  366  30  29  31   3  0.000  0.000  0.000  -0.000  -0.000  0.000
  372  39  38  37   3  0.000  0.000  0.000  -0.000  -0.000  0.000
  371  39  38  4   3  0.000  0.000  0.000  -0.000  -0.000  0.000
  364  30  29  31   3  0.000  0.000  0.000  -0.000  -0.000  0.000
  365  30  29  31   3  0.000  0.000  0.000  -0.000  -0.000  0.000
  47  13  11  12   3  0.628  1.883  0.000  -2.510  -0.000  0.000
  51  16  15  17   3  0.628  1.883  0.000  -2.510  -0.000  0.000
  59  57  55  61   3  0.628  1.883  0.000  -2.510  -0.000  0.000
  69  67  65  71   3  0.628  1.883  0.000  -2.510  -0.000  0.000
  79  77  75  81   3  0.628  1.883  0.000  -2.510  -0.000  0.000
  89  87  85  91   3  0.628  1.883  0.000  -2.510  -0.000  0.000
  99  97  95  101   3  0.628  1.883  0.000  -2.510  -0.000  0.000
  109  107  105  111   3  0.628  1.883  0.000  -2.510  -0.000  0.000
  119  117  115  121   3  0.628  1.883  0.000  -2.510  -0.000  0.000
  129  127  125  131   3  0.628  1.883  0.000  -2.510  -0.000  0.000
  139  137  135  141   3  0.628  1.883  0.000  -2.510  -0.000  0.000
  149  147  145  151   3  0.628  1.883  0.000  -2.510  -0.000  0.000
  159  157  155  161   3  0.628  1.883  0.000  -2.510  -0.000  0.000
  169  167  165  171   3  0.628  1.883  0.000  -2.510  -0.000  0.000
  179  177  175  181   3  0.628  1.883  0.000  -2.510  -0.000  0.000
  189  187  185  191   3  0.628  1.883  0.000  -2.510  -0.000  0.000
  199  197  195  201   3  0.628  1.883  0.000  -2.510  -0.000  0.000
  209  207  205  211   3  0.628  1.883  0.000  -2.510  -0.000  0.000
  219  217  215  221   3  0.628  1.883  0.000  -2.510  -0.000  0.000
  229  227  225  231   3  0.628  1.883  0.000  -2.510  -0.000  0.000
  239  237  235  241   3  0.628  1.883  0.000  -2.510  -0.000  0.000
  249  247  245  251   3  0.628  1.883  0.000  -2.510  -0.000  0.000
  259  257  255  261   3  0.628  1.883  0.000  -2.510  -0.000  0.000
  269  267  265  271   3  0.628  1.883  0.000  -2.510  -0.000  0.000
  279  277  275  281   3  0.628  1.883  0.000  -2.510  -0.000  0.000
  289  287  285  291   3  0.628  1.883  0.000  -2.510  -0.000  0.000
  299  297  295  301   3  0.628  1.883  0.000  -2.510  -0.000  0.000
  309  307  305  311   3  0.628  1.883  0.000  -2.510  -0.000  0.000
  319  317  315  321   3  0.628  1.883  0.000  -2.510  -0.000  0.000
  329  327  325  331   3  0.628  1.883  0.000  -2.510  -0.000  0.000
  339  337  335  341   3  0.628  1.883  0.000  -2.510  -0.000  0.000
  349  347  345  351   3  0.628  1.883  0.000  -2.510  -0.000  0.000
  46  12  11  13   3  0.628  1.883  0.000  -2.510  -0.000  0.000
  50  16  15  17   3  0.628  1.883  0.000  -2.510  -0.000  0.000
  58  57  55  61   3  0.628  1.883  0.000  -2.510  -0.000  0.000
  68  67  65  71   3  0.628  1.883  0.000  -2.510  -0.000  0.000
  78  77  75  81   3  0.628  1.883  0.000  -2.510  -0.000  0.000
  88  87  85  91   3  0.628  1.883  0.000  -2.510  -0.000  0.000
  98  97  95  101   3  0.628  1.883  0.000  -2.510  -0.000  0.000
  108  107  105  111   3  0.628  1.883  0.000  -2.510  -0.000  0.000
  118  117  115  121   3  0.628  1.883  0.000  -2.510  -0.000  0.000
  128  127  125  131   3  0.628  1.883  0.000  -2.510  -0.000  0.000
  138  137  135  141   3  0.628  1.883  0.000  -2.510  -0.000  0.000
  148  147  145  151   3  0.628  1.883  0.000  -2.510  -0.000  0.000
  158  157  155  161   3  0.628  1.883  0.000  -2.510  -0.000  0.000
  168  167  165  171   3  0.628  1.883  0.000  -2.510  -0.000  0.000
  178  177  175  181   3  0.628  1.883  0.000  -2.510  -0.000  0.000
  188  187  185  191   3  0.628  1.883  0.000  -2.510  -0.000  0.000
  198  197  195  201   3  0.628  1.883  0.000  -2.510  -0.000  0.000
  208  207  205  211   3  0.628  1.883  0.000  -2.510  -0.000  0.000
  218  217  215  221   3  0.628  1.883  0.000  -2.510  -0.000  0.000
  228  227  225  231   3  0.628  1.883  0.000  -2.510  -0.000  0.000
  238  237  235  241   3  0.628  1.883  0.000  -2.510  -0.000  0.000
  248  247  245  251   3  0.628  1.883  0.000  -2.510  -0.000  0.000
  258  257  255  261   3  0.628  1.883  0.000  -2.510  -0.000  0.000
  268  267  265  271   3  0.628  1.883  0.000  -2.510  -0.000  0.000
  278  277  275  281   3  0.628  1.883  0.000  -2.510  -0.000  0.000
  288  287  285  291   3  0.628  1.883  0.000  -2.510  -0.000  0.000
  298  297  295  301   3  0.628  1.883  0.000  -2.510  -0.000  0.000
  308  307  305  311   3  0.628  1.883  0.000  -2.510  -0.000  0.000
  318  317  315  321   3  0.628  1.883  0.000  -2.510  -0.000  0.000
  328  327  325  331   3  0.628  1.883  0.000  -2.510  -0.000  0.000
  338  337  335  341   3  0.628  1.883  0.000  -2.510  -0.000  0.000
  348  347  345  351   3  0.628  1.883  0.000  -2.510  -0.000  0.000
  359  21  19  20   3  0.628  1.883  0.000  -2.510  -0.000  0.000
  360  21  19  20   3  0.628  1.883  0.000  -2.510  -0.000  0.000
  357  20  19  21   3  0.628  1.883  0.000  -2.510  -0.000  0.000
  356  20  19  21   3  0.628  1.883  0.000  -2.510  -0.000  0.000
  52  16  15  17   3  0.628  1.883  0.000  -2.510  -0.000  0.000
  60  57  55  61   3  0.628  1.883  0.000  -2.510  -0.000  0.000
  70  67  65  71   3  0.628  1.883  0.000  -2.510  -0.000  0.000
  80  77  75  81   3  0.628  1.883  0.000  -2.510  -0.000  0.000
  90  87  85  91   3  0.628  1.883  0.000  -2.510  -0.000  0.000
  100  97  95  101   3  0.628  1.883  0.000  -2.510  -0.000  0.000
  110  107  105  111   3  0.628  1.883  0.000  -2.510  -0.000  0.000
  120  117  115  121   3  0.628  1.883  0.000  -2.510  -0.000  0.000
  130  127  125  131   3  0.628  1.883  0.000  -2.510  -0.000  0.000
  140  137  135  141   3  0.628  1.883  0.000  -2.510  -0.000  0.000
  150  147  145  151   3  0.628  1.883  0.000  -2.510  -0.000  0.000
  160  157  155  161   3  0.628  1.883  0.000  -2.510  -0.000  0.000
  170  167  165  171   3  0.628  1.883  0.000  -2.510  -0.000  0.000
  180  177  175  181   3  0.628  1.883  0.000  -2.510  -0.000  0.000
  190  187  185  191   3  0.628  1.883  0.000  -2.510  -0.000  0.000
  200  197  195  201   3  0.628  1.883  0.000  -2.510  -0.000  0.000
  210  207  205  211   3  0.628  1.883  0.000  -2.510  -0.000  0.000
  220  217  215  221   3  0.628  1.883  0.000  -2.510  -0.000  0.000
  230  227  225  231   3  0.628  1.883  0.000  -2.510  -0.000  0.000
  240  237  235  241   3  0.628  1.883  0.000  -2.510  -0.000  0.000
  250  247  245  251   3  0.628  1.883  0.000  -2.510  -0.000  0.000
  260  257  255  261   3  0.628  1.883  0.000  -2.510  -0.000  0.000
  270  267  265  271   3  0.628  1.883  0.000  -2.510  -0.000  0.000
  280  277  275  281   3  0.628  1.883  0.000  -2.510  -0.000  0.000
  290  287  285  291   3  0.628  1.883  0.000  -2.510  -0.000  0.000
  300  297  295  301   3  0.628  1.883  0.000  -2.510  -0.000  0.000
  310  307  305  311   3  0.628  1.883  0.000  -2.510  -0.000  0.000
  320  317  315  321   3  0.628  1.883  0.000  -2.510  -0.000  0.000
  330  327  325  331   3  0.628  1.883  0.000  -2.510  -0.000  0.000
  340  337  335  341   3  0.628  1.883  0.000  -2.510  -0.000  0.000
  350  347  345  351   3  0.628  1.883  0.000  -2.510  -0.000  0.000
  54  17  15  16   3  0.628  1.883  0.000  -2.510  -0.000  0.000
  63  61  55  57   3  0.628  1.883  0.000  -2.510  -0.000  0.000
  73  71  65  67   3  0.628  1.883  0.000  -2.510  -0.000  0.000
  83  81  75  77   3  0.628  1.883  0.000  -2.510  -0.000  0.000
  93  91  85  87   3  0.628  1.883  0.000  -2.510  -0.000  0.000
  103  101  95  97   3  0.628  1.883  0.000  -2.510  -0.000  0.000
  113  111  105  107   3  0.628  1.883  0.000  -2.510  -0.000  0.000
  123  121  115  117   3  0.628  1.883  0.000  -2.510  -0.000  0.000
  133  131  125  127   3  0.628  1.883  0.000  -2.510  -0.000  0.000
  143  141  135  137   3  0.628  1.883  0.000  -2.510  -0.000  0.000
  153  151  145  147   3  0.628  1.883  0.000  -2.510  -0.000  0.000
  163  161  155  157   3  0.628  1.883  0.000  -2.510  -0.000  0.000
  173  171  165  167   3  0.628  1.883  0.000  -2.510  -0.000  0.000
  183  181  175  177   3  0.628  1.883  0.000  -2.510  -0.000  0.000
  193  191  185  187   3  0.628  1.883  0.000  -2.510  -0.000  0.000
  203  201  195  197   3  0.628  1.883  0.000  -2.510  -0.000  0.000
  213  211  205  207   3  0.628  1.883  0.000  -2.510  -0.000  0.000
  223  221  215  217   3  0.628  1.883  0.000  -2.510  -0.000  0.000
  233  231  225  227   3  0.628  1.883  0.000  -2.510  -0.000  0.000
  243  241  235  237   3  0.628  1.883  0.000  -2.510  -0.000  0.000
  253  251  245  247   3  0.628  1.883  0.000  -2.510  -0.000  0.000
  263  261  255  257   3  0.628  1.883  0.000  -2.510  -0.000  0.000
  273  271  265  267   3  0.628  1.883  0.000  -2.510  -0.000  0.000
  283  281  275  277   3  0.628  1.883  0.000  -2.510  -0.000  0.000
  293  291  285  287   3  0.628  1.883  0.000  -2.510  -0.000  0.000
  303  301  295  297   3  0.628  1.883  0.000  -2.510  -0.000  0.000
  313  311  305  307   3  0.628  1.883  0.000  -2.510  -0.000  0.000
  323  321  315  317   3  0.628  1.883  0.000  -2.510  -0.000  0.000
  333  331  325  327   3  0.628  1.883  0.000  -2.510  -0.000  0.000
  343  341  335  337   3  0.628  1.883  0.000  -2.510  -0.000  0.000
  353  351  345  347   3  0.628  1.883  0.000  -2.510  -0.000  0.000
  44  12  11  13   3  0.628  1.883  0.000  -2.510  -0.000  0.000
  45  12  11  13   3  0.628  1.883  0.000  -2.510  -0.000  0.000
  358  20  19  21   3  0.628  1.883  0.000  -2.510  -0.000  0.000
  53  17  15  16   3  0.628  1.883  0.000  -2.510  -0.000  0.000
  62  61  55  57   3  0.628  1.883  0.000  -2.510  -0.000  0.000
  72  71  65  67   3  0.628  1.883  0.000  -2.510  -0.000  0.000
  82  81  75  77   3  0.628  1.883  0.000  -2.510  -0.000  0.000
  92  91  85  87   3  0.628  1.883  0.000  -2.510  -0.000  0.000
  102  101  95  97   3  0.628  1.883  0.000  -2.510  -0.000  0.000
  112  111  105  107   3  0.628  1.883  0.000  -2.510  -0.000  0.000
  122  121  115  117   3  0.628  1.883  0.000  -2.510  -0.000  0.000
  132  131  125  127   3  0.628  1.883  0.000  -2.510  -0.000  0.000
  142  141  135  137   3  0.628  1.883  0.000  -2.510  -0.000  0.000
  152  151  145  147   3  0.628  1.883  0.000  -2.510  -0.000  0.000
  162  161  155  157   3  0.628  1.883  0.000  -2.510  -0.000  0.000
  172  171  165  167   3  0.628  1.883  0.000  -2.510  -0.000  0.000
  182  181  175  177   3  0.628  1.883  0.000  -2.510  -0.000  0.000
  192  191  185  187   3  0.628  1.883  0.000  -2.510  -0.000  0.000
  202  201  195  197   3  0.628  1.883  0.000  -2.510  -0.000  0.000
  212  211  205  207   3  0.628  1.883  0.000  -2.510  -0.000  0.000
  222  221  215  217   3  0.628  1.883  0.000  -2.510  -0.000  0.000
  232  231  225  227   3  0.628  1.883  0.000  -2.510  -0.000  0.000
  242  241  235  237   3  0.628  1.883  0.000  -2.510  -0.000  0.000
  252  251  245  247   3  0.628  1.883  0.000  -2.510  -0.000  0.000
  262  261  255  257   3  0.628  1.883  0.000  -2.510  -0.000  0.000
  272  271  265  267   3  0.628  1.883  0.000  -2.510  -0.000  0.000
  282  281  275  277   3  0.628  1.883  0.000  -2.510  -0.000  0.000
  292  291  285  287   3  0.628  1.883  0.000  -2.510  -0.000  0.000
  302  301  295  297   3  0.628  1.883  0.000  -2.510  -0.000  0.000
  312  311  305  307   3  0.628  1.883  0.000  -2.510  -0.000  0.000
  322  321  315  317   3  0.628  1.883  0.000  -2.510  -0.000  0.000
  332  331  325  327   3  0.628  1.883  0.000  -2.510  -0.000  0.000
  342  341  335  337   3  0.628  1.883  0.000  -2.510  -0.000  0.000
  352  351  345  347   3  0.628  1.883  0.000  -2.510  -0.000  0.000
  48  13  11  12   3  0.628  1.883  0.000  -2.510  -0.000  0.000
  47  13  11  43   3  0.628  1.883  0.000  -2.510  -0.000  0.000
  54  17  15  49   3  0.628  1.883  0.000  -2.510  -0.000  0.000
  63  61  55  56   3  0.628  1.883  0.000  -2.510  -0.000  0.000
  73  71  65  66   3  0.628  1.883  0.000  -2.510  -0.000  0.000
  83  81  75  76   3  0.628  1.883  0.000  -2.510  -0.000  0.000
  93  91  85  86   3  0.628  1.883  0.000  -2.510  -0.000  0.000
  103  101  95  96   3  0.628  1.883  0.000  -2.510  -0.000  0.000
  113  111  105  106   3  0.628  1.883  0.000  -2.510  -0.000  0.000
  123  121  115  116   3  0.628  1.883  0.000  -2.510  -0.000  0.000
  133  131  125  126   3  0.628  1.883  0.000  -2.510  -0.000  0.000
  143  141  135  136   3  0.628  1.883  0.000  -2.510  -0.000  0.000
  153  151  145  146   3  0.628  1.883  0.000  -2.510  -0.000  0.000
  163  161  155  156   3  0.628  1.883  0.000  -2.510  -0.000  0.000
  173  171  165  166   3  0.628  1.883  0.000  -2.510  -0.000  0.000
  183  181  175  176   3  0.628  1.883  0.000  -2.510  -0.000  0.000
  193  191  185  186   3  0.628  1.883  0.000  -2.510  -0.000  0.000
  203  201  195  196   3  0.628  1.883  0.000  -2.510  -0.000  0.000
  213  211  205  206   3  0.628  1.883  0.000  -2.510  -0.000  0.000
  223  221  215  216   3  0.628  1.883  0.000  -2.510  -0.000  0.000
  233  231  225  226   3  0.628  1.883  0.000  -2.510  -0.000  0.000
  243  241  235  236   3  0.628  1.883  0.000  -2.510  -0.000  0.000
  253  251  245  246   3  0.628  1.883  0.000  -2.510  -0.000  0.000
  263  261  255  256   3  0.628  1.883  0.000  -2.510  -0.000  0.000
  273  271  265  266   3  0.628  1.883  0.000  -2.510  -0.000  0.000
  283  281  275  276   3  0.628  1.883  0.000  -2.510  -0.000  0.000
  293  291  285  286   3  0.628  1.883  0.000  -2.510  -0.000  0.000
  303  301  295  296   3  0.628  1.883  0.000  -2.510  -0.000  0.000
  313  311  305  306   3  0.628  1.883  0.000  -2.510  -0.000  0.000
  323  321  315  316   3  0.628  1.883  0.000  -2.510  -0.000  0.000
  333  331  325  326   3  0.628  1.883  0.000  -2.510  -0.000  0.000
  343  341  335  336   3  0.628  1.883  0.000  -2.510  -0.000  0.000
  353  351  345  346   3  0.628  1.883  0.000  -2.510  -0.000  0.000
  52  16  15  49   3  0.628  1.883  0.000  -2.510  -0.000  0.000
  60  57  55  56   3  0.628  1.883  0.000  -2.510  -0.000  0.000
  70  67  65  66   3  0.628  1.883  0.000  -2.510  -0.000  0.000
  80  77  75  76   3  0.628  1.883  0.000  -2.510  -0.000  0.000
  90  87  85  86   3  0.628  1.883  0.000  -2.510  -0.000  0.000
  100  97  95  96   3  0.628  1.883  0.000  -2.510  -0.000  0.000
  110  107  105  106   3  0.628  1.883  0.000  -2.510  -0.000  0.000
  120  117  115  116   3  0.628  1.883  0.000  -2.510  -0.000  0.000
  130  127  125  126   3  0.628  1.883  0.000  -2.510  -0.000  0.000
  140  137  135  136   3  0.628  1.883  0.000  -2.510  -0.000  0.000
  150  147  145  146   3  0.628  1.883  0.000  -2.510  -0.000  0.000
  160  157  155  156   3  0.628  1.883  0.000  -2.510  -0.000  0.000
  170  167  165  166   3  0.628  1.883  0.000  -2.510  -0.000  0.000
  180  177  175  176   3  0.628  1.883  0.000  -2.510  -0.000  0.000
  190  187  185  186   3  0.628  1.883  0.000  -2.510  -0.000  0.000
  200  197  195  196   3  0.628  1.883  0.000  -2.510  -0.000  0.000
  210  207  205  206   3  0.628  1.883  0.000  -2.510  -0.000  0.000
  220  217  215  216   3  0.628  1.883  0.000  -2.510  -0.000  0.000
  230  227  225  226   3  0.628  1.883  0.000  -2.510  -0.000  0.000
  240  237  235  236   3  0.628  1.883  0.000  -2.510  -0.000  0.000
  250  247  245  246   3  0.628  1.883  0.000  -2.510  -0.000  0.000
  260  257  255  256   3  0.628  1.883  0.000  -2.510  -0.000  0.000
  270  267  265  266   3  0.628  1.883  0.000  -2.510  -0.000  0.000
  280  277  275  276   3  0.628  1.883  0.000  -2.510  -0.000  0.000
  290  287  285  286   3  0.628  1.883  0.000  -2.510  -0.000  0.000
  300  297  295  296   3  0.628  1.883  0.000  -2.510  -0.000  0.000
  310  307  305  306   3  0.628  1.883  0.000  -2.510  -0.000  0.000
  320  317  315  316   3  0.628  1.883  0.000  -2.510  -0.000  0.000
  330  327  325  326   3  0.628  1.883  0.000  -2.510  -0.000  0.000
  340  337  335  336   3  0.628  1.883  0.000  -2.510  -0.000  0.000
  350  347  345  346   3  0.628  1.883  0.000  -2.510  -0.000  0.000
  359  21  19  355   3  0.628  1.883  0.000  -2.510  -0.000  0.000
  46  12  11  43   3  0.628  1.883  0.000  -2.510  -0.000  0.000
  356  20  19  355   3  0.628  1.883  0.000  -2.510  -0.000  0.000
  358  20  19  355   3  0.628  1.883  0.000  -2.510  -0.000  0.000
  360  21  19  355   3  0.628  1.883  0.000  -2.510  -0.000  0.000
  51  16  15  49   3  0.628  1.883  0.000  -2.510  -0.000  0.000
  59  57  55  56   3  0.628  1.883  0.000  -2.510  -0.000  0.000
  69  67  65  66   3  0.628  1.883  0.000  -2.510  -0.000  0.000
  79  77  75  76   3  0.628  1.883  0.000  -2.510  -0.000  0.000
  89  87  85  86   3  0.628  1.883  0.000  -2.510  -0.000  0.000
  99  97  95  96   3  0.628  1.883  0.000  -2.510  -0.000  0.000
  109  107  105  106   3  0.628  1.883  0.000  -2.510  -0.000  0.000
  119  117  115  116   3  0.628  1.883  0.000  -2.510  -0.000  0.000
  129  127  125  126   3  0.628  1.883  0.000  -2.510  -0.000  0.000
  139  137  135  136   3  0.628  1.883  0.000  -2.510  -0.000  0.000
  149  147  145  146   3  0.628  1.883  0.000  -2.510  -0.000  0.000
  159  157  155  156   3  0.628  1.883  0.000  -2.510  -0.000  0.000
  169  167  165  166   3  0.628  1.883  0.000  -2.510  -0.000  0.000
  179  177  175  176   3  0.628  1.883  0.000  -2.510  -0.000  0.000
  189  187  185  186   3  0.628  1.883  0.000  -2.510  -0.000  0.000
  199  197  195  196   3  0.628  1.883  0.000  -2.510  -0.000  0.000
  209  207  205  206   3  0.628  1.883  0.000  -2.510  -0.000  0.000
  219  217  215  216   3  0.628  1.883  0.000  -2.510  -0.000  0.000
  229  227  225  226   3  0.628  1.883  0.000  -2.510  -0.000  0.000
  239  237  235  236   3  0.628  1.883  0.000  -2.510  -0.000  0.000
  249  247  245  246   3  0.628  1.883  0.000  -2.510  -0.000  0.000
  259  257  255  256   3  0.628  1.883  0.000  -2.510  -0.000  0.000
  269  267  265  266   3  0.628  1.883  0.000  -2.510  -0.000  0.000
  279  277  275  276   3  0.628  1.883  0.000  -2.510  -0.000  0.000
  289  287  285  286   3  0.628  1.883  0.000  -2.510  -0.000  0.000
  299  297  295  296   3  0.628  1.883  0.000  -2.510  -0.000  0.000
  309  307  305  306   3  0.628  1.883  0.000  -2.510  -0.000  0.000
  319  317  315  316   3  0.628  1.883  0.000  -2.510  -0.000  0.000
  329  327  325  326   3  0.628  1.883  0.000  -2.510  -0.000  0.000
  339  337  335  336   3  0.628  1.883  0.000  -2.510  -0.000  0.000
  349  347  345  346   3  0.628  1.883  0.000  -2.510  -0.000  0.000
  50  16  15  49   3  0.628  1.883  0.000  -2.510  -0.000  0.000
  58  57  55  56   3  0.628  1.883  0.000  -2.510  -0.000  0.000
  68  67  65  66   3  0.628  1.883  0.000  -2.510  -0.000  0.000
  78  77  75  76   3  0.628  1.883  0.000  -2.510  -0.000  0.000
  88  87  85  86   3  0.628  1.883  0.000  -2.510  -0.000  0.000
  98  97  95  96   3  0.628  1.883  0.000  -2.510  -0.000  0.000
  108  107  105  106   3  0.628  1.883  0.000  -2.510  -0.000  0.000
  118  117  115  116   3  0.628  1.883  0.000  -2.510  -0.000  0.000
  128  127  125  126   3  0.628  1.883  0.000  -2.510  -0.000  0.000
  138  137  135  136   3  0.628  1.883  0.000  -2.510  -0.000  0.000
  148  147  145  146   3  0.628  1.883  0.000  -2.510  -0.000  0.000
  158  157  155  156   3  0.628  1.883  0.000  -2.510  -0.000  0.000
  168  167  165  166   3  0.628  1.883  0.000  -2.510  -0.000  0.000
  178  177  175  176   3  0.628  1.883  0.000  -2.510  -0.000  0.000
  188  187  185  186   3  0.628  1.883  0.000  -2.510  -0.000  0.000
  198  197  195  196   3  0.628  1.883  0.000  -2.510  -0.000  0.000
  208  207  205  206   3  0.628  1.883  0.000  -2.510  -0.000  0.000
  218  217  215  216   3  0.628  1.883  0.000  -2.510  -0.000  0.000
  228  227  225  226   3  0.628  1.883  0.000  -2.510  -0.000  0.000
  238  237  235  236   3  0.628  1.883  0.000  -2.510  -0.000  0.000
  248  247  245  246   3  0.628  1.883  0.000  -2.510  -0.000  0.000
  258  257  255  256   3  0.628  1.883  0.000  -2.510  -0.000  0.000
  268  267  265  266   3  0.628  1.883  0.000  -2.510  -0.000  0.000
  278  277  275  276   3  0.628  1.883  0.000  -2.510  -0.000  0.000
  288  287  285  286   3  0.628  1.883  0.000  -2.510  -0.000  0.000
  298  297  295  296   3  0.628  1.883  0.000  -2.510  -0.000  0.000
  308  307  305  306   3  0.628  1.883  0.000  -2.510  -0.000  0.000
  318  317  315  316   3  0.628  1.883  0.000  -2.510  -0.000  0.000
  328  327  325  326   3  0.628  1.883  0.000  -2.510  -0.000  0.000
  338  337  335  336   3  0.628  1.883  0.000  -2.510  -0.000  0.000
  348  347  345  346   3  0.628  1.883  0.000  -2.510  -0.000  0.000
  45  12  11  43   3  0.628  1.883  0.000  -2.510  -0.000  0.000
  357  20  19  355   3  0.628  1.883  0.000  -2.510  -0.000  0.000
  48  13  11  43   3  0.628  1.883  0.000  -2.510  -0.000  0.000
  53  17  15  49   3  0.628  1.883  0.000  -2.510  -0.000  0.000
  62  61  55  56   3  0.628  1.883  0.000  -2.510  -0.000  0.000
  72  71  65  66   3  0.628  1.883  0.000  -2.510  -0.000  0.000
  82  81  75  76   3  0.628  1.883  0.000  -2.510  -0.000  0.000
  92  91  85  86   3  0.628  1.883  0.000  -2.510  -0.000  0.000
  102  101  95  96   3  0.628  1.883  0.000  -2.510  -0.000  0.000
  112  111  105  106   3  0.628  1.883  0.000  -2.510  -0.000  0.000
  122  121  115  116   3  0.628  1.883  0.000  -2.510  -0.000  0.000
  132  131  125  126   3  0.628  1.883  0.000  -2.510  -0.000  0.000
  142  141  135  136   3  0.628  1.883  0.000  -2.510  -0.000  0.000
  152  151  145  146   3  0.628  1.883  0.000  -2.510  -0.000  0.000
  162  161  155  156   3  0.628  1.883  0.000  -2.510  -0.000  0.000
  172  171  165  166   3  0.628  1.883  0.000  -2.510  -0.000  0.000
  182  181  175  176   3  0.628  1.883  0.000  -2.510  -0.000  0.000
  192  191  185  186   3  0.628  1.883  0.000  -2.510  -0.000  0.000
  202  201  195  196   3  0.628  1.883  0.000  -2.510  -0.000  0.000
  212  211  205  206   3  0.628  1.883  0.000  -2.510  -0.000  0.000
  222  221  215  216   3  0.628  1.883  0.000  -2.510  -0.000  0.000
  232  231  225  226   3  0.628  1.883  0.000  -2.510  -0.000  0.000
  242  241  235  236   3  0.628  1.883  0.000  -2.510  -0.000  0.000
  252  251  245  246   3  0.628  1.883  0.000  -2.510  -0.000  0.000
  262  261  255  256   3  0.628  1.883  0.000  -2.510  -0.000  0.000
  272  271  265  266   3  0.628  1.883  0.000  -2.510  -0.000  0.000
  282  281  275  276   3  0.628  1.883  0.000  -2.510  -0.000  0.000
  292  291  285  286   3  0.628  1.883  0.000  -2.510  -0.000  0.000
  302  301  295  296   3  0.628  1.883  0.000  -2.510  -0.000  0.000
  312  311  305  306   3  0.628  1.883  0.000  -2.510  -0.000  0.000
  322  321  315  316   3  0.628  1.883  0.000  -2.510  -0.000  0.000
  332  331  325  326   3  0.628  1.883  0.000  -2.510  -0.000  0.000
  342  341  335  336   3  0.628  1.883  0.000  -2.510  -0.000  0.000
  352  351  345  346   3  0.628  1.883  0.000  -2.510  -0.000  0.000
  44  12  11  43   3  0.628  1.883  0.000  -2.510  -0.000  0.000
  355  19  21  22   3  0.979  2.937  0.000  -3.916  -0.000  0.000
  46  12  11  10   3  0.979  2.937  0.000  -3.916  -0.000  0.000
  53  17  15  14   3  0.979  2.937  0.000  -3.916  -0.000  0.000
  48  13  11  10   3  0.979  2.937  0.000  -3.916  -0.000  0.000
  43  11  13  14   3  0.979  2.937  0.000  -3.916  -0.000  0.000
  50  16  15  14   3  0.979  2.937  0.000  -3.916  -0.000  0.000
  52  16  15  14   3  0.979  2.937  0.000  -3.916  -0.000  0.000
  49  15  17  18   3  0.979  2.937  0.000  -3.916  -0.000  0.000
  56  55  61  64   3  0.979  2.937  0.000  -3.916  -0.000  0.000
  66  65  71  74   3  0.979  2.937  0.000  -3.916  -0.000  0.000
  76  75  81  84   3  0.979  2.937  0.000  -3.916  -0.000  0.000
  86  85  91  94   3  0.979  2.937  0.000  -3.916  -0.000  0.000
  96  95  101  104   3  0.979  2.937  0.000  -3.916  -0.000  0.000
  106  105  111  114   3  0.979  2.937  0.000  -3.916  -0.000  0.000
  116  115  121  124   3  0.979  2.937  0.000  -3.916  -0.000  0.000
  126  125  131  134   3  0.979  2.937  0.000  -3.916  -0.000  0.000
  136  135  141  144   3  0.979  2.937  0.000  -3.916  -0.000  0.000
  146  145  151  154   3  0.979  2.937  0.000  -3.916  -0.000  0.000
  156  155  161  164   3  0.979  2.937  0.000  -3.916  -0.000  0.000
  166  165  171  174   3  0.979  2.937  0.000  -3.916  -0.000  0.000
  176  175  181  184   3  0.979  2.937  0.000  -3.916  -0.000  0.000
  186  185  191  194   3  0.979  2.937  0.000  -3.916  -0.000  0.000
  196  195  201  204   3  0.979  2.937  0.000  -3.916  -0.000  0.000
  206  205  211  214   3  0.979  2.937  0.000  -3.916  -0.000  0.000
  216  215  221  224   3  0.979  2.937  0.000  -3.916  -0.000  0.000
  226  225  231  234   3  0.979  2.937  0.000  -3.916  -0.000  0.000
  236  235  241  244   3  0.979  2.937  0.000  -3.916  -0.000  0.000
  246  245  251  254   3  0.979  2.937  0.000  -3.916  -0.000  0.000
  256  255  261  264   3  0.979  2.937  0.000  -3.916  -0.000  0.000
  266  265  271  274   3  0.979  2.937  0.000  -3.916  -0.000  0.000
  276  275  281  284   3  0.979  2.937  0.000  -3.916  -0.000  0.000
  286  285  291  294   3  0.979  2.937  0.000  -3.916  -0.000  0.000
  296  295  301  304   3  0.979  2.937  0.000  -3.916  -0.000  0.000
  306  305  311  314   3  0.979  2.937  0.000  -3.916  -0.000  0.000
  316  315  321  324   3  0.979  2.937  0.000  -3.916  -0.000  0.000
  326  325  331  334   3  0.979  2.937  0.000  -3.916  -0.000  0.000
  336  335  341  344   3  0.979  2.937  0.000  -3.916  -0.000  0.000
  346  345  351  354   3  0.979  2.937  0.000  -3.916  -0.000  0.000
  47  13  11  10   3  0.979  2.937  0.000  -3.916  -0.000  0.000
  60  57  55  18   3  0.979  2.937  0.000  -3.916  -0.000  0.000
  70  67  65  64   3  0.979  2.937  0.000  -3.916  -0.000  0.000
  80  77  75  74   3  0.979  2.937  0.000  -3.916  -0.000  0.000
  90  87  85  84   3  0.979  2.937  0.000  -3.916  -0.000  0.000
  100  97  95  94   3  0.979  2.937  0.000  -3.916  -0.000  0.000
  110  107  105  104   3  0.979  2.937  0.000  -3.916  -0.000  0.000
  120  117  115  114   3  0.979  2.937  0.000  -3.916  -0.000  0.000
  130  127  125  124   3  0.979  2.937  0.000  -3.916  -0.000  0.000
  140  137  135  134   3  0.979  2.937  0.000  -3.916  -0.000  0.000
  150  147  145  144   3  0.979  2.937  0.000  -3.916  -0.000  0.000
  160  157  155  154   3  0.979  2.937  0.000  -3.916  -0.000  0.000
  170  167  165  164   3  0.979  2.937  0.000  -3.916  -0.000  0.000
  180  177  175  174   3  0.979  2.937  0.000  -3.916  -0.000  0.000
  190  187  185  184   3  0.979  2.937  0.000  -3.916  -0.000  0.000
  200  197  195  194   3  0.979  2.937  0.000  -3.916  -0.000  0.000
  210  207  205  204   3  0.979  2.937  0.000  -3.916  -0.000  0.000
  220  217  215  214   3  0.979  2.937  0.000  -3.916  -0.000  0.000
  230  227  225  224   3  0.979  2.937  0.000  -3.916  -0.000  0.000
  240  237  235  234   3  0.979  2.937  0.000  -3.916  -0.000  0.000
  250  247  245  244   3  0.979  2.937  0.000  -3.916  -0.000  0.000
  260  257  255  254   3  0.979  2.937  0.000  -3.916  -0.000  0.000
  270  267  265  264   3  0.979  2.937  0.000  -3.916  -0.000  0.000
  280  277  275  274   3  0.979  2.937  0.000  -3.916  -0.000  0.000
  290  287  285  284   3  0.979  2.937  0.000  -3.916  -0.000  0.000
  300  297  295  294   3  0.979  2.937  0.000  -3.916  -0.000  0.000
  310  307  305  304   3  0.979  2.937  0.000  -3.916  -0.000  0.000
  320  317  315  314   3  0.979  2.937  0.000  -3.916  -0.000  0.000
  330  327  325  324   3  0.979  2.937  0.000  -3.916  -0.000  0.000
  340  337  335  334   3  0.979  2.937  0.000  -3.916  -0.000  0.000
  350  347  345  344   3  0.979  2.937  0.000  -3.916  -0.000  0.000
  358  20  19  354   3  0.979  2.937  0.000  -3.916  -0.000  0.000
  62  61  55  18   3  0.979  2.937  0.000  -3.916  -0.000  0.000
  72  71  65  64   3  0.979  2.937  0.000  -3.916  -0.000  0.000
  82  81  75  74   3  0.979  2.937  0.000  -3.916  -0.000  0.000
  92  91  85  84   3  0.979  2.937  0.000  -3.916  -0.000  0.000
  102  101  95  94   3  0.979  2.937  0.000  -3.916  -0.000  0.000
  112  111  105  104   3  0.979  2.937  0.000  -3.916  -0.000  0.000
  122  121  115  114   3  0.979  2.937  0.000  -3.916  -0.000  0.000
  132  131  125  124   3  0.979  2.937  0.000  -3.916  -0.000  0.000
  142  141  135  134   3  0.979  2.937  0.000  -3.916  -0.000  0.000
  152  151  145  144   3  0.979  2.937  0.000  -3.916  -0.000  0.000
  162  161  155  154   3  0.979  2.937  0.000  -3.916  -0.000  0.000
  172  171  165  164   3  0.979  2.937  0.000  -3.916  -0.000  0.000
  182  181  175  174   3  0.979  2.937  0.000  -3.916  -0.000  0.000
  192  191  185  184   3  0.979  2.937  0.000  -3.916  -0.000  0.000
  202  201  195  194   3  0.979  2.937  0.000  -3.916  -0.000  0.000
  212  211  205  204   3  0.979  2.937  0.000  -3.916  -0.000  0.000
  222  221  215  214   3  0.979  2.937  0.000  -3.916  -0.000  0.000
  232  231  225  224   3  0.979  2.937  0.000  -3.916  -0.000  0.000
  242  241  235  234   3  0.979  2.937  0.000  -3.916  -0.000  0.000
  252  251  245  244   3  0.979  2.937  0.000  -3.916  -0.000  0.000
  262  261  255  254   3  0.979  2.937  0.000  -3.916  -0.000  0.000
  272  271  265  264   3  0.979  2.937  0.000  -3.916  -0.000  0.000
  282  281  275  274   3  0.979  2.937  0.000  -3.916  -0.000  0.000
  292  291  285  284   3  0.979  2.937  0.000  -3.916  -0.000  0.000
  302  301  295  294   3  0.979  2.937  0.000  -3.916  -0.000  0.000
  312  311  305  304   3  0.979  2.937  0.000  -3.916  -0.000  0.000
  322  321  315  314   3  0.979  2.937  0.000  -3.916  -0.000  0.000
  332  331  325  324   3  0.979  2.937  0.000  -3.916  -0.000  0.000
  342  341  335  334   3  0.979  2.937  0.000  -3.916  -0.000  0.000
  352  351  345  344   3  0.979  2.937  0.000  -3.916  -0.000  0.000
  359  21  19  354   3  0.979  2.937  0.000  -3.916  -0.000  0.000
  45  12  11  10   3  0.979  2.937  0.000  -3.916  -0.000  0.000
  59  57  55  18   3  0.979  2.937  0.000  -3.916  -0.000  0.000
  69  67  65  64   3  0.979  2.937  0.000  -3.916  -0.000  0.000
  79  77  75  74   3  0.979  2.937  0.000  -3.916  -0.000  0.000
  89  87  85  84   3  0.979  2.937  0.000  -3.916  -0.000  0.000
  99  97  95  94   3  0.979  2.937  0.000  -3.916  -0.000  0.000
  109  107  105  104   3  0.979  2.937  0.000  -3.916  -0.000  0.000
  119  117  115  114   3  0.979  2.937  0.000  -3.916  -0.000  0.000
  129  127  125  124   3  0.979  2.937  0.000  -3.916  -0.000  0.000
  139  137  135  134   3  0.979  2.937  0.000  -3.916  -0.000  0.000
  149  147  145  144   3  0.979  2.937  0.000  -3.916  -0.000  0.000
  159  157  155  154   3  0.979  2.937  0.000  -3.916  -0.000  0.000
  169  167  165  164   3  0.979  2.937  0.000  -3.916  -0.000  0.000
  179  177  175  174   3  0.979  2.937  0.000  -3.916  -0.000  0.000
  189  187  185  184   3  0.979  2.937  0.000  -3.916  -0.000  0.000
  199  197  195  194   3  0.979  2.937  0.000  -3.916  -0.000  0.000
  209  207  205  204   3  0.979  2.937  0.000  -3.916  -0.000  0.000
  219  217  215  214   3  0.979  2.937  0.000  -3.916  -0.000  0.000
  229  227  225  224   3  0.979  2.937  0.000  -3.916  -0.000  0.000
  239  237  235  234   3  0.979  2.937  0.000  -3.916  -0.000  0.000
  249  247  245  244   3  0.979  2.937  0.000  -3.916  -0.000  0.000
  259  257  255  254   3  0.979  2.937  0.000  -3.916  -0.000  0.000
  269  267  265  264   3  0.979  2.937  0.000  -3.916  -0.000  0.000
  279  277  275  274   3  0.979  2.937  0.000  -3.916  -0.000  0.000
  289  287  285  284   3  0.979  2.937  0.000  -3.916  -0.000  0.000
  299  297  295  294   3  0.979  2.937  0.000  -3.916  -0.000  0.000
  309  307  305  304   3  0.979  2.937  0.000  -3.916  -0.000  0.000
  319  317  315  314   3  0.979  2.937  0.000  -3.916  -0.000  0.000
  329  327  325  324   3  0.979  2.937  0.000  -3.916  -0.000  0.000
  339  337  335  334   3  0.979  2.937  0.000  -3.916  -0.000  0.000
  349  347  345  344   3  0.979  2.937  0.000  -3.916  -0.000  0.000
  357  20  19  354   3  0.979  2.937  0.000  -3.916  -0.000  0.000
  58  57  55  18   3  0.979  2.937  0.000  -3.916  -0.000  0.000
  68  67  65  64   3  0.979  2.937  0.000  -3.916  -0.000  0.000
  78  77  75  74   3  0.979  2.937  0.000  -3.916  -0.000  0.000
  88  87  85  84   3  0.979  2.937  0.000  -3.916  -0.000  0.000
  98  97  95  94   3  0.979  2.937  0.000  -3.916  -0.000  0.000
  108  107  105  104   3  0.979  2.937  0.000  -3.916  -0.000  0.000
  118  117  115  114   3  0.979  2.937  0.000  -3.916  -0.000  0.000
  128  127  125  124   3  0.979  2.937  0.000  -3.916  -0.000  0.000
  138  137  135  134   3  0.979  2.937  0.000  -3.916  -0.000  0.000
  148  147  145  144   3  0.979  2.937  0.000  -3.916  -0.000  0.000
  158  157  155  154   3  0.979  2.937  0.000  -3.916  -0.000  0.000
  168  167  165  164   3  0.979  2.937  0.000  -3.916  -0.000  0.000
  178  177  175  174   3  0.979  2.937  0.000  -3.916  -0.000  0.000
  188  187  185  184   3  0.979  2.937  0.000  -3.916  -0.000  0.000
  198  197  195  194   3  0.979  2.937  0.000  -3.916  -0.000  0.000
  208  207  205  204   3  0.979  2.937  0.000  -3.916  -0.000  0.000
  218  217  215  214   3  0.979  2.937  0.000  -3.916  -0.000  0.000
  228  227  225  224   3  0.979  2.937  0.000  -3.916  -0.000  0.000
  238  237  235  234   3  0.979  2.937  0.000  -3.916  -0.000  0.000
  248  247  245  244   3  0.979  2.937  0.000  -3.916  -0.000  0.000
  258  257  255  254   3  0.979  2.937  0.000  -3.916  -0.000  0.000
  268  267  265  264   3  0.979  2.937  0.000  -3.916  -0.000  0.000
  278  277  275  274   3  0.979  2.937  0.000  -3.916  -0.000  0.000
  288  287  285  284   3  0.979  2.937  0.000  -3.916  -0.000  0.000
  298  297  295  294   3  0.979  2.937  0.000  -3.916  -0.000  0.000
  308  307  305  304   3  0.979  2.937  0.000  -3.916  -0.000  0.000
  318  317  315  314   3  0.979  2.937  0.000  -3.916  -0.000  0.000
  328  327  325  324   3  0.979  2.937  0.000  -3.916  -0.000  0.000
  338  337  335  334   3  0.979  2.937  0.000  -3.916  -0.000  0.000
  348  347  345  344   3  0.979  2.937  0.000  -3.916  -0.000  0.000
  356  20  19  354   3  0.979  2.937  0.000  -3.916  -0.000  0.000
  51  16  15  14   3  0.979  2.937  0.000  -3.916  -0.000  0.000
  54  17  15  14   3  0.979  2.937  0.000  -3.916  -0.000  0.000
  44  12  11  10   3  0.979  2.937  0.000  -3.916  -0.000  0.000
  63  61  55  18   3  0.979  2.937  0.000  -3.916  -0.000  0.000
  73  71  65  64   3  0.979  2.937  0.000  -3.916  -0.000  0.000
  83  81  75  74   3  0.979  2.937  0.000  -3.916  -0.000  0.000
  93  91  85  84   3  0.979  2.937  0.000  -3.916  -0.000  0.000
  103  101  95  94   3  0.979  2.937  0.000  -3.916  -0.000  0.000
  113  111  105  104   3  0.979  2.937  0.000  -3.916  -0.000  0.000
  123  121  115  114   3  0.979  2.937  0.000  -3.916  -0.000  0.000
  133  131  125  124   3  0.979  2.937  0.000  -3.916  -0.000  0.000
  143  141  135  134   3  0.979  2.937  0.000  -3.916  -0.000  0.000
  153  151  145  144   3  0.979  2.937  0.000  -3.916  -0.000  0.000
  163  161  155  154   3  0.979  2.937  0.000  -3.916  -0.000  0.000
  173  171  165  164   3  0.979  2.937  0.000  -3.916  -0.000  0.000
  183  181  175  174   3  0.979  2.937  0.000  -3.916  -0.000  0.000
  193  191  185  184   3  0.979  2.937  0.000  -3.916  -0.000  0.000
  203  201  195  194   3  0.979  2.937  0.000  -3.916  -0.000  0.000
  213  211  205  204   3  0.979  2.937  0.000  -3.916  -0.000  0.000
  223  221  215  214   3  0.979  2.937  0.000  -3.916  -0.000  0.000
  233  231  225  224   3  0.979  2.937  0.000  -3.916  -0.000  0.000
  243  241  235  234   3  0.979  2.937  0.000  -3.916  -0.000  0.000
  253  251  245  244   3  0.979  2.937  0.000  -3.916  -0.000  0.000
  263  261  255  254   3  0.979  2.937  0.000  -3.916  -0.000  0.000
  273  271  265  264   3  0.979  2.937  0.000  -3.916  -0.000  0.000
  283  281  275  274   3  0.979  2.937  0.000  -3.916  -0.000  0.000
  293  291  285  284   3  0.979  2.937  0.000  -3.916  -0.000  0.000
  303  301  295  294   3  0.979  2.937  0.000  -3.916  -0.000  0.000
  313  311  305  304   3  0.979  2.937  0.000  -3.916  -0.000  0.000
  323  321  315  314   3  0.979  2.937  0.000  -3.916  -0.000  0.000
  333  331  325  324   3  0.979  2.937  0.000  -3.916  -0.000  0.000
  343  341  335  334   3  0.979  2.937  0.000  -3.916  -0.000  0.000
  353  351  345  344   3  0.979  2.937  0.000  -3.916  -0.000  0.000
  360  21  19  354   3  0.979  2.937  0.000  -3.916  -0.000  0.000
  43  11  10  8   3  0.414  1.243  0.000  -1.657  -0.000  0.000
  359  21  22  23   3  0.414  1.243  0.000  -1.657  -0.000  0.000
  360  21  22  23   3  0.414  1.243  0.000  -1.657  -0.000  0.000
  47  13  14  15   3  1.590  4.770  0.000  -6.360  -0.000  0.000
  48  13  14  15   3  1.590  4.770  0.000  -6.360  -0.000  0.000
  56  55  18  17   3  1.590  4.770  0.000  -6.360  -0.000  0.000
  66  65  64  61   3  1.590  4.770  0.000  -6.360  -0.000  0.000
  76  75  74  71   3  1.590  4.770  0.000  -6.360  -0.000  0.000
  86  85  84  81   3  1.590  4.770  0.000  -6.360  -0.000  0.000
  96  95  94  91   3  1.590  4.770  0.000  -6.360  -0.000  0.000
  106  105  104  101   3  1.590  4.770  0.000  -6.360  -0.000  0.000
  116  115  114  111   3  1.590  4.770  0.000  -6.360  -0.000  0.000
  126  125  124  121   3  1.590  4.770  0.000  -6.360  -0.000  0.000
  136  135  134  131   3  1.590  4.770  0.000  -6.360  -0.000  0.000
  146  145  144  141   3  1.590  4.770  0.000  -6.360  -0.000  0.000
  156  155  154  151   3  1.590  4.770  0.000  -6.360  -0.000  0.000
  166  165  164  161   3  1.590  4.770  0.000  -6.360  -0.000  0.000
  176  175  174  171   3  1.590  4.770  0.000  -6.360  -0.000  0.000
  186  185  184  181   3  1.590  4.770  0.000  -6.360  -0.000  0.000
  196  195  194  191   3  1.590  4.770  0.000  -6.360  -0.000  0.000
  206  205  204  201   3  1.590  4.770  0.000  -6.360  -0.000  0.000
  216  215  214  211   3  1.590  4.770  0.000  -6.360  -0.000  0.000
  226  225  224  221   3  1.590  4.770  0.000  -6.360  -0.000  0.000
  236  235  234  231   3  1.590  4.770  0.000  -6.360  -0.000  0.000
  246  245  244  241   3  1.590  4.770  0.000  -6.360  -0.000  0.000
  256  255  254  251   3  1.590  4.770  0.000  -6.360  -0.000  0.000
  266  265  264  261   3  1.590  4.770  0.000  -6.360  -0.000  0.000
  276  275  274  271   3  1.590  4.770  0.000  -6.360  -0.000  0.000
  286  285  284  281   3  1.590  4.770  0.000  -6.360  -0.000  0.000
  296  295  294  291   3  1.590  4.770  0.000  -6.360  -0.000  0.000
  306  305  304  301   3  1.590  4.770  0.000  -6.360  -0.000  0.000
  316  315  314  311   3  1.590  4.770  0.000  -6.360  -0.000  0.000
  326  325  324  321   3  1.590  4.770  0.000  -6.360  -0.000  0.000
  336  335  334  331   3  1.590  4.770  0.000  -6.360  -0.000  0.000
  346  345  344  341   3  1.590  4.770  0.000  -6.360  -0.000  0.000
  355  19  354  351   3  1.590  4.770  0.000  -6.360  -0.000  0.000
  54  17  18  55   3  1.590  4.770  0.000  -6.360  -0.000  0.000
  63  61  64  65   3  1.590  4.770  0.000  -6.360  -0.000  0.000
  73  71  74  75   3  1.590  4.770  0.000  -6.360  -0.000  0.000
  83  81  84  85   3  1.590  4.770  0.000  -6.360  -0.000  0.000
  93  91  94  95   3  1.590  4.770  0.000  -6.360  -0.000  0.000
  103  101  104  105   3  1.590  4.770  0.000  -6.360  -0.000  0.000
  113  111  114  115   3  1.590  4.770  0.000  -6.360  -0.000  0.000
  123  121  124  125   3  1.590  4.770  0.000  -6.360  -0.000  0.000
  133  131  134  135   3  1.590  4.770  0.000  -6.360  -0.000  0.000
  143  141  144  145   3  1.590  4.770  0.000  -6.360  -0.000  0.000
  153  151  154  155   3  1.590  4.770  0.000  -6.360  -0.000  0.000
  163  161  164  165   3  1.590  4.770  0.000  -6.360  -0.000  0.000
  173  171  174  175   3  1.590  4.770  0.000  -6.360  -0.000  0.000
  183  181  184  185   3  1.590  4.770  0.000  -6.360  -0.000  0.000
  193  191  194  195   3  1.590  4.770  0.000  -6.360  -0.000  0.000
  203  201  204  205   3  1.590  4.770  0.000  -6.360  -0.000  0.000
  213  211  214  215   3  1.590  4.770  0.000  -6.360  -0.000  0.000
  223  221  224  225   3  1.590  4.770  0.000  -6.360  -0.000  0.000
  233  231  234  235   3  1.590  4.770  0.000  -6.360  -0.000  0.000
  243  241  244  245   3  1.590  4.770  0.000  -6.360  -0.000  0.000
  253  251  254  255   3  1.590  4.770  0.000  -6.360  -0.000  0.000
  263  261  264  265   3  1.590  4.770  0.000  -6.360  -0.000  0.000
  273  271  274  275   3  1.590  4.770  0.000  -6.360  -0.000  0.000
  283  281  284  285   3  1.590  4.770  0.000  -6.360  -0.000  0.000
  293  291  294  295   3  1.590  4.770  0.000  -6.360  -0.000  0.000
  303  301  304  305   3  1.590  4.770  0.000  -6.360  -0.000  0.000
  313  311  314  315   3  1.590  4.770  0.000  -6.360  -0.000  0.000
  323  321  324  325   3  1.590  4.770  0.000  -6.360  -0.000  0.000
  333  331  334  335   3  1.590  4.770  0.000  -6.360  -0.000  0.000
  343  341  344  345   3  1.590  4.770  0.000  -6.360  -0.000  0.000
  353  351  354  19   3  1.590  4.770  0.000  -6.360  -0.000  0.000
  49  15  14  13   3  1.590  4.770  0.000  -6.360  -0.000  0.000
  53  17  18  55   3  1.590  4.770  0.000  -6.360  -0.000  0.000
  62  61  64  65   3  1.590  4.770  0.000  -6.360  -0.000  0.000
  72  71  74  75   3  1.590  4.770  0.000  -6.360  -0.000  0.000
  82  81  84  85   3  1.590  4.770  0.000  -6.360  -0.000  0.000
  92  91  94  95   3  1.590  4.770  0.000  -6.360  -0.000  0.000
  102  101  104  105   3  1.590  4.770  0.000  -6.360  -0.000  0.000
  112  111  114  115   3  1.590  4.770  0.000  -6.360  -0.000  0.000
  122  121  124  125   3  1.590  4.770  0.000  -6.360  -0.000  0.000
  132  131  134  135   3  1.590  4.770  0.000  -6.360  -0.000  0.000
  142  141  144  145   3  1.590  4.770  0.000  -6.360  -0.000  0.000
  152  151  154  155   3  1.590  4.770  0.000  -6.360  -0.000  0.000
  162  161  164  165   3  1.590  4.770  0.000  -6.360  -0.000  0.000
  172  171  174  175   3  1.590  4.770  0.000  -6.360  -0.000  0.000
  182  181  184  185   3  1.590  4.770  0.000  -6.360  -0.000  0.000
  192  191  194  195   3  1.590  4.770  0.000  -6.360  -0.000  0.000
  202  201  204  205   3  1.590  4.770  0.000  -6.360  -0.000  0.000
  212  211  214  215   3  1.590  4.770  0.000  -6.360  -0.000  0.000
  222  221  224  225   3  1.590  4.770  0.000  -6.360  -0.000  0.000
  232  231  234  235   3  1.590  4.770  0.000  -6.360  -0.000  0.000
  242  241  244  245   3  1.590  4.770  0.000  -6.360  -0.000  0.000
  252  251  254  255   3  1.590  4.770  0.000  -6.360  -0.000  0.000
  262  261  264  265   3  1.590  4.770  0.000  -6.360  -0.000  0.000
  272  271  274  275   3  1.590  4.770  0.000  -6.360  -0.000  0.000
  282  281  284  285   3  1.590  4.770  0.000  -6.360  -0.000  0.000
  292  291  294  295   3  1.590  4.770  0.000  -6.360  -0.000  0.000
  302  301  304  305   3  1.590  4.770  0.000  -6.360  -0.000  0.000
  312  311  314  315   3  1.590  4.770  0.000  -6.360  -0.000  0.000
  322  321  324  325   3  1.590  4.770  0.000  -6.360  -0.000  0.000
  332  331  334  335   3  1.590  4.770  0.000  -6.360  -0.000  0.000
  342  341  344  345   3  1.590  4.770  0.000  -6.360  -0.000  0.000
  352  351  354  19   3  1.590  4.770  0.000  -6.360  -0.000  0.000
  25  23  22  21   3  16.736  4.184  -20.920  -0.000  -0.000  0.000
  7  6  5  4   3  30.334  0.000  -30.334  -0.000  -0.000  0.000
  32  31  35  26   3  30.334  0.000  -30.334  -0.000  -0.000  0.000
  32  31  29  28   3  30.334  0.000  -30.334  -0.000  -0.000  0.000
  32  31  29  30   3  30.334  0.000  -30.334  -0.000  -0.000  0.000
  9  8  7  6   3  25.476  0.000  -25.476  -0.000  -0.000  0.000
  34  33  32  31   3  25.476  0.000  -25.476  -0.000  -0.000  0.000
  24  23  22  21   3  21.439  0.000  -21.439  -0.000  -0.000  0.000
  10  8  7  6   3  25.476  0.000  -25.476  -0.000  -0.000  0.000
  22  21  19  20   3  2.874  0.582  2.092  -5.548  -0.000  0.000
  18  17  15  16   3  2.874  0.582  2.092  -5.548  -0.000  0.000
  64  61  55  57   3  2.874  0.582  2.092  -5.548  -0.000  0.000
  74  71  65  67   3  2.874  0.582  2.092  -5.548  -0.000  0.000
  84  81  75  77   3  2.874  0.582  2.092  -5.548  -0.000  0.000
  94  91  85  87   3  2.874  0.582  2.092  -5.548  -0.000  0.000
  104  101  95  97   3  2.874  0.582  2.092  -5.548  -0.000  0.000
  114  111  105  107   3  2.874  0.582  2.092  -5.548  -0.000  0.000
  124  121  115  117   3  2.874  0.582  2.092  -5.548  -0.000  0.000
  134  131  125  127   3  2.874  0.582  2.092  -5.548  -0.000  0.000
  144  141  135  137   3  2.874  0.582  2.092  -5.548  -0.000  0.000
  154  151  145  147   3  2.874  0.582  2.092  -5.548  -0.000  0.000
  164  161  155  157   3  2.874  0.582  2.092  -5.548  -0.000  0.000
  174  171  165  167   3  2.874  0.582  2.092  -5.548  -0.000  0.000
  184  181  175  177   3  2.874  0.582  2.092  -5.548  -0.000  0.000
  194  191  185  187   3  2.874  0.582  2.092  -5.548  -0.000  0.000
  204  201  195  197   3  2.874  0.582  2.092  -5.548  -0.000  0.000
  214  211  205  207   3  2.874  0.582  2.092  -5.548  -0.000  0.000
  224  221  215  217   3  2.874  0.582  2.092  -5.548  -0.000  0.000
  234  231  225  227   3  2.874  0.582  2.092  -5.548  -0.000  0.000
  244  241  235  237   3  2.874  0.582  2.092  -5.548  -0.000  0.000
  254  251  245  247   3  2.874  0.582  2.092  -5.548  -0.000  0.000
  264  261  255  257   3  2.874  0.582  2.092  -5.548  -0.000  0.000
  274  271  265  267   3  2.874  0.582  2.092  -5.548  -0.000  0.000
  284  281  275  277   3  2.874  0.582  2.092  -5.548  -0.000  0.000
  294  291  285  287   3  2.874  0.582  2.092  -5.548  -0.000  0.000
  304  301  295  297   3  2.874  0.582  2.092  -5.548  -0.000  0.000
  314  311  305  307   3  2.874  0.582  2.092  -5.548  -0.000  0.000
  324  321  315  317   3  2.874  0.582  2.092  -5.548  -0.000  0.000
  334  331  325  327   3  2.874  0.582  2.092  -5.548  -0.000  0.000
  344  341  335  337   3  2.874  0.582  2.092  -5.548  -0.000  0.000
  354  351  345  347   3  2.874  0.582  2.092  -5.548  -0.000  0.000
  14  13  11  12   3  2.874  0.582  2.092  -5.548  -0.000  0.000
  64  61  55  18   3  -1.151  1.151  0.000  -0.000  -0.000  0.000
  74  71  65  64   3  -1.151  1.151  0.000  -0.000  -0.000  0.000
  84  81  75  74   3  -1.151  1.151  0.000  -0.000  -0.000  0.000
  94  91  85  84   3  -1.151  1.151  0.000  -0.000  -0.000  0.000
  104  101  95  94   3  -1.151  1.151  0.000  -0.000  -0.000  0.000
  114  111  105  104   3  -1.151  1.151  0.000  -0.000  -0.000  0.000
  124  121  115  114   3  -1.151  1.151  0.000  -0.000  -0.000  0.000
  134  131  125  124   3  -1.151  1.151  0.000  -0.000  -0.000  0.000
  144  141  135  134   3  -1.151  1.151  0.000  -0.000  -0.000  0.000
  154  151  145  144   3  -1.151  1.151  0.000  -0.000  -0.000  0.000
  164  161  155  154   3  -1.151  1.151  0.000  -0.000  -0.000  0.000
  174  171  165  164   3  -1.151  1.151  0.000  -0.000  -0.000  0.000
  184  181  175  174   3  -1.151  1.151  0.000  -0.000  -0.000  0.000
  194  191  185  184   3  -1.151  1.151  0.000  -0.000  -0.000  0.000
  204  201  195  194   3  -1.151  1.151  0.000  -0.000  -0.000  0.000
  214  211  205  204   3  -1.151  1.151  0.000  -0.000  -0.000  0.000
  224  221  215  214   3  -1.151  1.151  0.000  -0.000  -0.000  0.000
  234  231  225  224   3  -1.151  1.151  0.000  -0.000  -0.000  0.000
  244  241  235  234   3  -1.151  1.151  0.000  -0.000  -0.000  0.000
  254  251  245  244   3  -1.151  1.151  0.000  -0.000  -0.000  0.000
  264  261  255  254   3  -1.151  1.151  0.000  -0.000  -0.000  0.000
  274  271  265  264   3  -1.151  1.151  0.000  -0.000  -0.000  0.000
  284  281  275  274   3  -1.151  1.151  0.000  -0.000  -0.000  0.000
  294  291  285  284   3  -1.151  1.151  0.000  -0.000  -0.000  0.000
  304  301  295  294   3  -1.151  1.151  0.000  -0.000  -0.000  0.000
  314  311  305  304   3  -1.151  1.151  0.000  -0.000  -0.000  0.000
  324  321  315  314   3  -1.151  1.151  0.000  -0.000  -0.000  0.000
  334  331  325  324   3  -1.151  1.151  0.000  -0.000  -0.000  0.000
  344  341  335  334   3  -1.151  1.151  0.000  -0.000  -0.000  0.000
  354  351  345  344   3  -1.151  1.151  0.000  -0.000  -0.000  0.000
  22  21  19  354   3  -1.151  1.151  0.000  -0.000  -0.000  0.000
  18  17  15  14   3  -1.151  1.151  0.000  -0.000  -0.000  0.000
  14  13  11  10   3  -1.151  1.151  0.000  -0.000  -0.000  0.000

[ pairs ]
  2  4   1
  1  5   1
  3  6   1
  4  7   1
  5  8   1
  6  9   1
  6  10   1
  7  11   1
  9  11   1
  8  12   1
  8  13   1
  10  14   1
  12  14   1
  11  15   1
  13  16   1
  13  17   1
  14  18   1
  16  18   1
  57  64   1
  67  74   1
  77  84   1
  87  94   1
  97  104   1
  107  114   1
  117  124   1
  127  134   1
  137  144   1
  147  154   1
  157  164   1
  167  174   1
  177  184   1
  187  194   1
  197  204   1
  207  214   1
  217  224   1
  227  234   1
  237  244   1
  247  254   1
  257  264   1
  267  274   1
  277  284   1
  287  294   1
  297  304   1
  307  314   1
  317  324   1
  327  334   1
  337  344   1
  347  354   1
  15  55   1
  55  65   1
  65  75   1
  75  85   1
  85  95   1
  95  105   1
  105  115   1
  115  125   1
  125  135   1
  135  145   1
  145  155   1
  155  165   1
  165  175   1
  175  185   1
  185  195   1
  195  205   1
  205  215   1
  215  225   1
  225  235   1
  235  245   1
  245  255   1
  255  265   1
  265  275   1
  275  285   1
  285  295   1
  295  305   1
  305  315   1
  315  325   1
  325  335   1
  335  345   1
  345  19   1
  17  57   1
  61  67   1
  71  77   1
  81  87   1
  91  97   1
  101  107   1
  111  117   1
  121  127   1
  131  137   1
  141  147   1
  151  157   1
  161  167   1
  171  177   1
  181  187   1
  191  197   1
  201  207   1
  211  217   1
  221  227   1
  231  237   1
  241  247   1
  251  257   1
  261  267   1
  271  277   1
  281  287   1
  291  297   1
  301  307   1
  311  317   1
  321  327   1
  331  337   1
  341  347   1
  351  20   1
  17  61   1
  61  71   1
  71  81   1
  81  91   1
  91  101   1
  101  111   1
  111  121   1
  121  131   1
  131  141   1
  141  151   1
  151  161   1
  161  171   1
  171  181   1
  181  191   1
  191  201   1
  201  211   1
  211  221   1
  221  231   1
  231  241   1
  241  251   1
  251  261   1
  261  271   1
  271  281   1
  281  291   1
  291  301   1
  301  311   1
  311  321   1
  321  331   1
  331  341   1
  341  351   1
  351  21   1
  18  64   1
  64  74   1
  74  84   1
  84  94   1
  94  104   1
  104  114   1
  114  124   1
  124  134   1
  134  144   1
  144  154   1
  154  164   1
  164  174   1
  174  184   1
  184  194   1
  194  204   1
  204  214   1
  214  224   1
  224  234   1
  234  244   1
  244  254   1
  254  264   1
  264  274   1
  274  284   1
  284  294   1
  294  304   1
  304  314   1
  314  324   1
  324  334   1
  334  344   1
  344  354   1
  354  22   1
  1  38   1
  20  22   1
  19  23   1
  4  36   1
  3  37   1
  5  37   1
  3  39   1
  21  24   1
  21  25   1
  8  36   1
  7  37   1
  6  38   1
  5  39   1
  2  40   1
  22  26   1
  3  41   1
  24  26   1
  23  27   1
  5  40   1
  5  42   1
  25  28   1
  7  41   1
  26  29   1
  25  31   1
  9  42   1
  8  43   1
  27  30   1
  10  42   1
  27  31   1
  26  32   1
  10  44   1
  28  32   1
  23  35   1
  10  45   1
  10  46   1
  30  32   1
  29  33   1
  14  43   1
  13  44   1
  10  47   1
  13  45   1
  10  48   1
  13  46   1
  12  47   1
  31  34   1
  28  35   1
  12  48   1
  30  35   1
  15  47   1
  13  49   1
  15  48   1
  14  50   1
  33  35   1
  14  51   1
  14  52   1
  18  49   1
  64  56   1
  74  66   1
  84  76   1
  94  86   1
  104  96   1
  114  106   1
  124  116   1
  134  126   1
  144  136   1
  154  146   1
  164  156   1
  174  166   1
  184  176   1
  194  186   1
  204  196   1
  214  206   1
  224  216   1
  234  226   1
  244  236   1
  254  246   1
  264  256   1
  274  266   1
  284  276   1
  294  286   1
  304  296   1
  314  306   1
  324  316   1
  334  326   1
  344  336   1
  354  346   1
  17  50   1
  61  58   1
  71  68   1
  81  78   1
  91  88   1
  101  98   1
  111  108   1
  121  118   1
  131  128   1
  141  138   1
  151  148   1
  161  158   1
  171  168   1
  181  178   1
  191  188   1
  201  198   1
  211  208   1
  221  218   1
  231  228   1
  241  238   1
  251  248   1
  261  258   1
  271  268   1
  281  278   1
  291  288   1
  301  298   1
  311  308   1
  321  318   1
  331  328   1
  341  338   1
  351  348   1
  14  53   1
  17  51   1
  61  59   1
  71  69   1
  81  79   1
  91  89   1
  101  99   1
  111  109   1
  121  119   1
  131  129   1
  141  139   1
  151  149   1
  161  159   1
  171  169   1
  181  179   1
  191  189   1
  201  199   1
  211  209   1
  221  219   1
  231  229   1
  241  239   1
  251  249   1
  261  259   1
  271  269   1
  281  279   1
  291  289   1
  301  299   1
  311  309   1
  321  319   1
  331  329   1
  341  339   1
  351  349   1
  14  54   1
  17  52   1
  61  60   1
  71  70   1
  81  80   1
  91  90   1
  101  100   1
  111  110   1
  121  120   1
  131  130   1
  141  140   1
  151  150   1
  161  160   1
  171  170   1
  181  180   1
  191  190   1
  201  200   1
  211  210   1
  221  220   1
  231  230   1
  241  240   1
  251  250   1
  261  260   1
  271  270   1
  281  280   1
  291  290   1
  301  300   1
  311  310   1
  321  320   1
  331  330   1
  341  340   1
  351  350   1
  16  53   1
  57  62   1
  67  72   1
  77  82   1
  87  92   1
  97  102   1
  107  112   1
  117  122   1
  127  132   1
  137  142   1
  147  152   1
  157  162   1
  167  172   1
  177  182   1
  187  192   1
  197  202   1
  207  212   1
  217  222   1
  227  232   1
  237  242   1
  247  252   1
  257  262   1
  267  272   1
  277  282   1
  287  292   1
  297  302   1
  307  312   1
  317  322   1
  327  332   1
  337  342   1
  347  352   1
  16  54   1
  57  63   1
  67  73   1
  77  83   1
  87  93   1
  97  103   1
  107  113   1
  117  123   1
  127  133   1
  137  143   1
  147  153   1
  157  163   1
  167  173   1
  177  183   1
  187  193   1
  197  203   1
  207  213   1
  217  223   1
  227  233   1
  237  243   1
  247  253   1
  257  263   1
  267  273   1
  277  283   1
  287  293   1
  297  303   1
  307  313   1
  317  323   1
  327  333   1
  337  343   1
  347  353   1
  55  53   1
  65  62   1
  75  72   1
  85  82   1
  95  92   1
  105  102   1
  115  112   1
  125  122   1
  135  132   1
  145  142   1
  155  152   1
  165  162   1
  175  172   1
  185  182   1
  195  192   1
  205  202   1
  215  212   1
  225  222   1
  235  232   1
  245  242   1
  255  252   1
  265  262   1
  275  272   1
  285  282   1
  295  292   1
  305  302   1
  315  312   1
  325  322   1
  335  332   1
  345  342   1
  19  352   1
  17  56   1
  61  66   1
  71  76   1
  81  86   1
  91  96   1
  101  106   1
  111  116   1
  121  126   1
  131  136   1
  141  146   1
  151  156   1
  161  166   1
  171  176   1
  181  186   1
  191  196   1
  201  206   1
  211  216   1
  221  226   1
  231  236   1
  241  246   1
  251  256   1
  261  266   1
  271  276   1
  281  286   1
  291  296   1
  301  306   1
  311  316   1
  321  326   1
  331  336   1
  341  346   1
  351  355   1
  55  54   1
  65  63   1
  75  73   1
  85  83   1
  95  93   1
  105  103   1
  115  113   1
  125  123   1
  135  133   1
  145  143   1
  155  153   1
  165  163   1
  175  173   1
  185  183   1
  195  193   1
  205  203   1
  215  213   1
  225  223   1
  235  233   1
  245  243   1
  255  253   1
  265  263   1
  275  273   1
  285  283   1
  295  293   1
  305  303   1
  315  313   1
  325  323   1
  335  333   1
  345  343   1
  19  353   1
  36  39   1
  18  58   1
  64  68   1
  74  78   1
  84  88   1
  94  98   1
  104  108   1
  114  118   1
  124  128   1
  134  138   1
  144  148   1
  154  158   1
  164  168   1
  174  178   1
  184  188   1
  194  198   1
  204  208   1
  214  218   1
  224  228   1
  234  238   1
  244  248   1
  254  258   1
  264  268   1
  274  278   1
  284  288   1
  294  298   1
  304  308   1
  314  318   1
  324  328   1
  334  338   1
  344  348   1
  354  356   1
  18  59   1
  64  69   1
  74  79   1
  84  89   1
  94  99   1
  104  109   1
  114  119   1
  124  129   1
  134  139   1
  144  149   1
  154  159   1
  164  169   1
  174  179   1
  184  189   1
  194  199   1
  204  209   1
  214  219   1
  224  229   1
  234  239   1
  244  249   1
  254  259   1
  264  269   1
  274  279   1
  284  289   1
  294  299   1
  304  309   1
  314  319   1
  324  329   1
  334  339   1
  344  349   1
  354  357   1
  18  60   1
  64  70   1
  74  80   1
  84  90   1
  94  100   1
  104  110   1
  114  120   1
  124  130   1
  134  140   1
  144  150   1
  154  160   1
  164  170   1
  174  180   1
  184  190   1
  194  200   1
  204  210   1
  214  220   1
  224  230   1
  234  240   1
  244  250   1
  254  260   1
  264  270   1
  274  280   1
  284  290   1
  294  300   1
  304  310   1
  314  320   1
  324  330   1
  334  340   1
  344  350   1
  354  358   1
  22  355   1
  21  356   1
  18  62   1
  64  72   1
  74  82   1
  84  92   1
  94  102   1
  104  112   1
  114  122   1
  124  132   1
  134  142   1
  144  152   1
  154  162   1
  164  172   1
  174  182   1
  184  192   1
  194  202   1
  204  212   1
  214  222   1
  224  232   1
  234  242   1
  244  252   1
  254  262   1
  264  272   1
  274  282   1
  284  292   1
  294  302   1
  304  312   1
  314  322   1
  324  332   1
  334  342   1
  344  352   1
  354  359   1
  5  369   1
  4  370   1
  21  357   1
  18  63   1
  64  73   1
  74  83   1
  84  93   1
  94  103   1
  104  113   1
  114  123   1
  124  133   1
  134  143   1
  144  153   1
  154  163   1
  164  173   1
  174  183   1
  184  193   1
  194  203   1
  204  213   1
  214  223   1
  224  233   1
  234  243   1
  244  253   1
  254  263   1
  264  273   1
  274  283   1
  284  293   1
  294  303   1
  304  313   1
  314  323   1
  324  333   1
  334  343   1
  344  353   1
  354  360   1
  4  371   1
  36  41   1
  21  358   1
  20  359   1
  7  369   1
  6  370   1
  4  372   1
  38  40   1
  36  42   1
  20  360   1
  4  373   1
  38  41   1
  23  359   1
  23  360   1
  22  361   1
  24  361   1
  25  362   1
  27  361   1
  26  363   1
  29  362   1
  43  44   1
  28  364   1
  43  45   1
  30  363   1
  28  365   1
  43  46   1
  31  363   1
  28  366   1
  43  47   1
  31  364   1
  43  48   1
  31  365   1
  29  367   1
  25  368   1
  31  366   1
  35  361   1
  27  368   1
  35  362   1
  29  368   1
  34  367   1
  32  368   1
  49  50   1
  56  58   1
  66  68   1
  76  78   1
  86  88   1
  96  98   1
  106  108   1
  116  118   1
  126  128   1
  136  138   1
  146  148   1
  156  158   1
  166  168   1
  176  178   1
  186  188   1
  196  198   1
  206  208   1
  216  218   1
  226  228   1
  236  238   1
  246  248   1
  256  258   1
  266  268   1
  276  278   1
  286  288   1
  296  298   1
  306  308   1
  316  318   1
  326  328   1
  336  338   1
  346  348   1
  35  367   1
  49  51   1
  56  59   1
  66  69   1
  76  79   1
  86  89   1
  96  99   1
  106  109   1
  116  119   1
  126  129   1
  136  139   1
  146  149   1
  156  159   1
  166  169   1
  176  179   1
  186  189   1
  196  199   1
  206  209   1
  216  219   1
  226  229   1
  236  239   1
  246  249   1
  256  259   1
  266  269   1
  276  279   1
  286  289   1
  296  299   1
  306  309   1
  316  319   1
  326  329   1
  336  339   1
  346  349   1
  49  52   1
  56  60   1
  66  70   1
  76  80   1
  86  90   1
  96  100   1
  106  110   1
  116  120   1
  126  130   1
  136  140   1
  146  150   1
  156  160   1
  166  170   1
  176  180   1
  186  190   1
  196  200   1
  206  210   1
  216  220   1
  226  230   1
  236  240   1
  246  250   1
  256  260   1
  266  270   1
  276  280   1
  286  290   1
  296  300   1
  306  310   1
  316  320   1
  326  330   1
  336  340   1
  346  350   1
  49  53   1
  56  62   1
  66  72   1
  76  82   1
  86  92   1
  96  102   1
  106  112   1
  116  122   1
  126  132   1
  136  142   1
  146  152   1
  156  162   1
  166  172   1
  176  182   1
  186  192   1
  196  202   1
  206  212   1
  216  222   1
  226  232   1
  236  242   1
  246  252   1
  256  262   1
  266  272   1
  276  282   1
  286  292   1
  296  302   1
  306  312   1
  316  322   1
  326  332   1
  336  342   1
  346  352   1
  49  54   1
  56  63   1
  66  73   1
  76  83   1
  86  93   1
  96  103   1
  106  113   1
  116  123   1
  126  133   1
  136  143   1
  146  153   1
  156  163   1
  166  173   1
  176  183   1
  186  193   1
  196  203   1
  206  213   1
  216  223   1
  226  233   1
  236  243   1
  246  253   1
  256  263   1
  266  273   1
  276  283   1
  286  293   1
  296  303   1
  306  313   1
  316  323   1
  326  333   1
  336  343   1
  346  353   1
  38  369   1
  37  371   1
  39  370   1
  37  372   1
  37  373   1
  355  356   1
  355  357   1
  355  358   1
  355  359   1
  355  360   1
  362  363   1
  369  370   1
