STR33 tiled to PO n=33 (tile_ppg.py)
373
    1STR   BCK1    1   2.087   4.092   2.227
    1STR    O03    2   2.031   4.069   2.120
    1STR    N04    3   2.196   4.029   2.274
    1STR    C05    4   2.268   3.920   2.225
    1STR    C06    5   2.408   3.923   2.241
    1STR    C07    6   2.491   3.815   2.202
    1STR    N08    7   2.629   3.825   2.224
    1STR    C09    8   2.728   3.739   2.199
    1STR    O0A    9   2.716   3.629   2.147
    1STR    O0B   10   2.846   3.791   2.238
    1STR    C0C   11   2.967   3.719   2.217
    1STR    C0D   12   3.017   3.745   2.074
    1STR    C0E   13   3.070   3.764   2.323
    1STR    O0F   14   3.189   3.688   2.307
    1STR    C0G   15   3.294   3.720   2.398
    1STR    C0H   16   3.266   3.655   2.534
    1STR    C0I   17   3.425   3.668   2.337
    1STR    O0J   18   3.535   3.707   2.419
    1STR    C0K   19  13.969   2.238   4.964
    1STR    C0M   20  14.019   2.321   4.844
    1STR    C0N   21  14.063   2.248   5.085
    1STR    O0O   22  14.189   2.186   5.058
    1STR    C0P   23  14.296   2.261   5.028
    1STR    O0Q   24  14.295   2.383   5.018
    1STR    N0R   25  14.402   2.182   5.011
    1STR    C0S   26  14.534   2.212   4.979
    1STR    C0T   27  14.623   2.104   4.960
    1STR    C0U   28  14.757   2.128   4.923
    1STR    C0V   29  14.806   2.259   4.905
    1STR    C0W   30  14.948   2.274   4.854
    1STR    C0X   31  14.719   2.369   4.928
    1STR    N0Y   32  14.754   2.503   4.910
    1STR   BCK2   33  14.866   2.572   4.938
    1STR    O10   34  14.965   2.528   4.995
    1STR    C13   35  14.585   2.343   4.964
    1STR    C14   36   2.430   3.702   2.144
    1STR    C15   37   2.290   3.696   2.129
    1STR    C16   38   2.208   3.803   2.171
    1STR    C17   39   2.058   3.782   2.160
    1STR    H1B   40   2.236   4.077   2.353
    1STR    H1C   41   2.454   4.011   2.284
    1STR    H1D   42   2.664   3.909   2.266
    1STR    H1E   43   2.949   3.612   2.231
    1STR    H1F   44   3.037   3.851   2.057
    1STR    H1G   45   3.109   3.690   2.055
    1STR    H1H   46   2.943   3.712   2.001
    1STR    H1I   47   3.027   3.748   2.422
    1STR    H1J   48   3.090   3.870   2.313
    1STR    H1K   49   3.303   3.828   2.409
    1STR    H1M   50   3.255   3.547   2.525
    1STR    H1N   51   3.177   3.694   2.582
    1STR    H1O   52   3.349   3.673   2.603
    1STR    H1P   53   3.421   3.559   2.327
    1STR    H1Q   54   3.436   3.708   2.236
    1STR   C010   55   3.662   3.660   2.376
    1STR   H011   56   3.655   3.556   2.342
    1STR   C012   57   3.715   3.749   2.263
    1STR   H013   58   3.722   3.853   2.295
    1STR   H014   59   3.652   3.746   2.174
    1STR   H015   60   3.815   3.717   2.232
    1STR   C016   61   3.755   3.663   2.498
    1STR   H017   62   3.768   3.765   2.533
    1STR   H018   63   3.709   3.607   2.579
    1STR   O019   64   3.881   3.605   2.464
    1STR   C020   65   3.978   3.605   2.568
    1STR   H021   66   3.976   3.700   2.621
    1STR   C022   67   3.950   3.489   2.666
    1STR   H023   68   3.950   3.393   2.614
    1STR   H024   69   3.855   3.500   2.716
    1STR   H025   70   4.027   3.485   2.743
    1STR   C026   71   4.116   3.591   2.502
    1STR   H027   72   4.123   3.495   2.451
    1STR   H028   73   4.128   3.668   2.426
    1STR   O029   74   4.218   3.603   2.601
    1STR   C030   75   4.351   3.587   2.553
    1STR   H031   76   4.356   3.505   2.482
    1STR   C032   77   4.399   3.718   2.487
    1STR   H033   78   4.393   3.802   2.556
    1STR   H034   79   4.340   3.743   2.399
    1STR   H035   80   4.502   3.709   2.455
    1STR   C036   81   4.439   3.550   2.674
    1STR   H037   82   4.440   3.632   2.746
    1STR   H038   83   4.396   3.464   2.724
    1STR   O039   84   4.572   3.521   2.629
    1STR   C040   85   4.665   3.490   2.732
    1STR   H041   86   4.650   3.557   2.817
    1STR   C042   87   4.646   3.344   2.776
    1STR   H043   88   4.658   3.275   2.692
    1STR   H044   89   4.548   3.326   2.820
    1STR   H045   90   4.720   3.316   2.851
    1STR   C046   91   4.806   3.514   2.676
    1STR   H047   92   4.825   3.446   2.593
    1STR   H048   93   4.811   3.615   2.636
    1STR   O049   94   4.902   3.496   2.779
    1STR   C050   95   5.038   3.511   2.739
    1STR   H051   96   5.054   3.464   2.642
    1STR   C052   97   5.073   3.661   2.731
    1STR   H053   98   5.056   3.710   2.826
    1STR   H054   99   5.015   3.713   2.655
    1STR   H055  100   5.178   3.674   2.705
    1STR   C056  101   5.125   3.438   2.842
    1STR   H057  102   5.115   3.486   2.940
    1STR   H058  103   5.090   3.336   2.852
    1STR   O059  104   5.261   3.440   2.799
    1STR   C060  105   5.354   3.379   2.889
    1STR   H061  106   5.330   3.406   2.992
    1STR   C062  107   5.350   3.227   2.872
    1STR   H063  108   5.372   3.198   2.769
    1STR   H064  109   5.253   3.184   2.898
    1STR   H065  110   5.424   3.179   2.936
    1STR   C066  111   5.493   3.436   2.857
    1STR   H067  112   5.522   3.407   2.755
    1STR   H068  113   5.489   3.545   2.859
    1STR   O069  114   5.588   3.387   2.952
    1STR   C070  115   5.722   3.429   2.930
    1STR   H071  116   5.746   3.424   2.824
    1STR   C072  117   5.741   3.572   2.982
    1STR   H073  118   5.716   3.579   3.088
    1STR   H074  119   5.680   3.644   2.929
    1STR   H075  120   5.845   3.603   2.972
    1STR   C076  121   5.814   3.329   3.004
    1STR   H077  122   5.795   3.334   3.111
    1STR   H078  123   5.789   3.228   2.971
    1STR   O079  124   5.950   3.360   2.975
    1STR   C080  125   6.045   3.277   3.041
    1STR   H081  126   6.015   3.260   3.145
    1STR   C082  127   6.058   3.143   2.967
    1STR   H083  128   6.087   3.158   2.863
    1STR   H084  129   5.966   3.086   2.968
    1STR   H085  130   6.135   3.080   3.013
    1STR   C086  131   6.179   3.353   3.043
    1STR   H087  132   6.214   3.368   2.941
    1STR   H088  133   6.163   3.451   3.087
    1STR   O089  134   6.275   3.280   3.119
    1STR   C090  135   6.404   3.338   3.125
    1STR   H091  136   6.433   3.377   3.027
    1STR   C092  137   6.407   3.451   3.229
    1STR   H093  138   6.377   3.414   3.327
    1STR   H094  139   6.340   3.533   3.203
    1STR   H095  140   6.507   3.493   3.238
    1STR   C096  141   6.504   3.226   3.161
    1STR   H097  142   6.481   3.187   3.261
    1STR   H098  143   6.491   3.144   3.091
    1STR   O099  144   6.637   3.277   3.156
    1STR   C100  145   6.738   3.183   3.192
    1STR   H101  146   6.706   3.125   3.279
    1STR   C102  147   6.768   3.090   3.074
    1STR   H103  148   6.798   3.147   2.985
    1STR   H104  149   6.682   3.029   3.046
    1STR   H105  150   6.849   3.021   3.098
    1STR   C106  151   6.863   3.264   3.233
    1STR   H107  152   6.900   3.321   3.147
    1STR   H108  153   6.835   3.336   3.309
    1STR   O109  154   6.963   3.175   3.281
    1STR   C110  155   7.086   3.238   3.318
    1STR   H111  156   7.113   3.314   3.245
    1STR   C112  157   7.072   3.301   3.458
    1STR   H113  158   7.044   3.227   3.532
    1STR   H114  159   6.998   3.381   3.460
    1STR   H115  160   7.167   3.345   3.490
    1STR   C116  161   7.195   3.130   3.316
    1STR   H117  162   7.173   3.054   3.391
    1STR   H118  163   7.194   3.080   3.219
    1STR   O119  164   7.322   3.190   3.341
    1STR   C120  165   7.432   3.099   3.345
    1STR   H121  166   7.404   3.009   3.401
    1STR   C122  167   7.475   3.062   3.203
    1STR   H123  168   7.502   3.150   3.145
    1STR   H124  169   7.397   3.009   3.148
    1STR   H125  170   7.563   2.996   3.205
    1STR   C126  171   7.545   3.168   3.422
    1STR   H127  172   7.579   3.256   3.368
    1STR   H128  173   7.507   3.202   3.519
    1STR   O129  174   7.653   3.076   3.441
    1STR   C130  175   7.767   3.130   3.508
    1STR   H131  176   7.788   3.231   3.471
    1STR   C132  177   7.742   3.133   3.660
    1STR   H133  178   7.719   3.033   3.698
    1STR   H134  179   7.660   3.199   3.687
    1STR   H135  180   7.831   3.169   3.712
    1STR   C136  181   7.887   3.041   3.473
    1STR   H137  182   7.871   2.940   3.511
    1STR   H138  183   7.895   3.033   3.364
    1STR   O139  184   8.006   3.097   3.527
    1STR   C140  185   8.125   3.021   3.505
    1STR   H141  186   8.105   2.915   3.519
    1STR   C142  187   8.177   3.046   3.362
    1STR   H143  188   8.196   3.152   3.345
    1STR   H144  189   8.107   3.012   3.286
    1STR   H145  190   8.271   2.993   3.346
    1STR   C146  191   8.228   3.065   3.610
    1STR   H147  192   8.253   3.170   3.597
    1STR   H148  193   8.183   3.055   3.710
    1STR   O149  194   8.344   2.983   3.600
    1STR   C150  195   8.449   3.016   3.691
    1STR   H151  196   8.461   3.124   3.697
    1STR   C152  197   8.419   2.958   3.830
    1STR   H153  198   8.406   2.849   3.825
    1STR   H154  199   8.330   3.001   3.874
    1STR   H155  200   8.502   2.978   3.898
    1STR   C156  201   8.579   2.958   3.633
    1STR   H157  202   8.573   2.849   3.628
    1STR   H158  203   8.592   2.993   3.530
    1STR   O159  204   8.690   2.999   3.713
    1STR   C160  205   8.817   2.948   3.672
    1STR   H161  206   8.807   2.843   3.643
    1STR   C162  207   8.870   3.030   3.554
    1STR   H163  208   8.879   3.136   3.580
    1STR   H164  209   8.807   3.023   3.466
    1STR   H165  210   8.970   2.996   3.525
    1STR   C166  211   8.911   2.956   3.793
    1STR   H167  212   8.925   3.060   3.822
    1STR   H168  213   8.864   2.905   3.878
    1STR   O169  214   9.035   2.894   3.761
    1STR   C170  215   9.133   2.899   3.864
    1STR   H171  216   9.133   2.997   3.912
    1STR   C172  217   9.105   2.789   3.968
    1STR   H173  218   9.103   2.690   3.922
    1STR   H174  219   9.010   2.804   4.019
    1STR   H175  220   9.182   2.788   4.045
    1STR   C176  221   9.271   2.879   3.798
    1STR   H177  222   9.276   2.781   3.752
    1STR   H178  223   9.283   2.953   3.718
    1STR   O179  224   9.373   2.895   3.896
    1STR   C180  225   9.506   2.876   3.848
    1STR   H181  226   9.509   2.789   3.781
    1STR   C182  227   9.555   3.002   3.774
    1STR   H183  228   9.551   3.089   3.839
    1STR   H184  229   9.496   3.023   3.686
    1STR   H185  230   9.658   2.990   3.742
    1STR   C186  231   9.595   2.844   3.969
    1STR   H187  232   9.597   2.929   4.037
    1STR   H188  233   9.551   2.761   4.025
    1STR   O189  234   9.726   2.811   3.925
    1STR   C190  235   9.820   2.783   4.030
    1STR   H191  236   9.807   2.855   4.111
    1STR   C192  237   9.800   2.640   4.081
    1STR   H193  238   9.810   2.567   4.001
    1STR   H194  239   9.702   2.626   4.127
    1STR   H195  240   9.874   2.616   4.157
    1STR   C196  241   9.961   2.803   3.971
    1STR   H197  242   9.978   2.730   3.892
    1STR   H198  243   9.967   2.902   3.926
    1STR   O199  244  10.058   2.789   4.075
    1STR   C200  245  10.193   2.800   4.032
    1STR   H201  246  10.208   2.748   3.938
    1STR   C202  247  10.230   2.949   4.017
    1STR   H203  248  10.215   3.003   4.110
    1STR   H204  249  10.172   2.998   3.939
    1STR   H205  250  10.336   2.959   3.989
    1STR   C206  251  10.281   2.732   4.139
    1STR   H207  252  10.271   2.784   4.234
    1STR   H208  253  10.244   2.630   4.154
    1STR   O209  254  10.416   2.730   4.095
    1STR   C210  255  10.509   2.672   4.187
    1STR   H211  256  10.486   2.705   4.289
    1STR   C212  257  10.503   2.519   4.179
    1STR   H213  258  10.524   2.484   4.077
    1STR   H214  259  10.405   2.480   4.208
    1STR   H215  260  10.576   2.474   4.245
    1STR   C216  261  10.648   2.725   4.151
    1STR   H217  262  10.676   2.691   4.051
    1STR   H218  263  10.646   2.834   4.148
    1STR   O219  264  10.743   2.680   4.248
    1STR   C220  265  10.878   2.719   4.223
    1STR   H221  266  10.901   2.709   4.117
    1STR   C222  267  10.899   2.864   4.268
    1STR   H223  268  10.875   2.877   4.374
    1STR   H224  269  10.839   2.935   4.211
    1STR   H225  270  11.004   2.894   4.255
    1STR   C226  271  10.968   2.622   4.301
    1STR   H227  272  10.951   2.633   4.409
    1STR   H228  273  10.943   2.520   4.274
    1STR   O229  274  11.105   2.649   4.270
    1STR   C230  275  11.200   2.569   4.340
    1STR   H231  276  11.170   2.557   4.444
    1STR   C232  277  11.210   2.431   4.273
    1STR   H233  278  11.238   2.440   4.168
    1STR   H234  279  11.117   2.375   4.278
    1STR   H235  280  11.287   2.370   4.322
    1STR   C236  281  11.334   2.643   4.337
    1STR   H237  282  11.369   2.653   4.234
    1STR   H238  283  11.320   2.744   4.375
    1STR   O239  284  11.430   2.572   4.416
    1STR   C240  285  11.560   2.629   4.418
    1STR   H241  286  11.588   2.663   4.318
    1STR   C242  287  11.565   2.747   4.516
    1STR   H243  288  11.535   2.716   4.616
    1STR   H244  289  11.499   2.829   4.486
    1STR   H245  290  11.666   2.788   4.523
    1STR   C246  291  11.658   2.518   4.459
    1STR   H247  292  11.636   2.485   4.561
    1STR   H248  293  11.645   2.432   4.393
    1STR   O249  294  11.792   2.567   4.451
    1STR   C250  295  11.893   2.474   4.491
    1STR   H251  296  11.861   2.421   4.581
    1STR   C252  297  11.920   2.374   4.377
    1STR   H253  298  11.950   2.426   4.286
    1STR   H254  299  11.833   2.313   4.354
    1STR   H255  300  12.001   2.306   4.405
    1STR   C256  301  12.018   2.555   4.526
    1STR   H257  302  12.055   2.607   4.437
    1STR   H258  303  11.992   2.631   4.599
    1STR   O259  304  12.118   2.468   4.579
    1STR   C260  305  12.242   2.531   4.612
    1STR   H261  306  12.269   2.602   4.534
    1STR   C262  307  12.230   2.601   4.748
    1STR   H263  308  12.201   2.531   4.826
    1STR   H264  309  12.157   2.682   4.746
    1STR   H265  310  12.326   2.645   4.776
    1STR   C266  311  12.349   2.421   4.615
    1STR   H267  312  12.327   2.349   4.694
    1STR   H268  313  12.347   2.366   4.520
    1STR   O269  314  12.478   2.480   4.635
    1STR   C270  315  12.586   2.388   4.644
    1STR   H271  316  12.557   2.302   4.704
    1STR   C272  317  12.628   2.343   4.503
    1STR   H273  318  12.656   2.428   4.441
    1STR   H274  319  12.549   2.288   4.452
    1STR   H275  320  12.714   2.276   4.508
    1STR   C276  321  12.701   2.460   4.716
    1STR   H277  322  12.735   2.545   4.657
    1STR   H278  323  12.664   2.499   4.811
    1STR   O279  324  12.808   2.368   4.739
    1STR   C280  325  12.923   2.423   4.802
    1STR   H281  326  12.945   2.522   4.760
    1STR   C282  327  12.899   2.434   4.954
    1STR   H283  328  12.875   2.337   4.997
    1STR   H284  329  12.818   2.503   4.978
    1STR   H285  330  12.989   2.471   5.004
    1STR   C286  331  13.041   2.331   4.770
    1STR   H287  332  13.024   2.232   4.814
    1STR   H288  333  13.048   2.317   4.662
    1STR   O289  334  13.161   2.389   4.821
    1STR   C290  335  13.278   2.310   4.802
    1STR   H291  336  13.257   2.205   4.822
    1STR   C292  337  13.330   2.326   4.658
    1STR   H293  338  13.351   2.431   4.635
    1STR   H294  339  13.259   2.289   4.584
    1STR   H295  340  13.423   2.271   4.644
    1STR   C296  341  13.382   2.357   4.905
    1STR   H297  342  13.410   2.461   4.885
    1STR   H298  343  13.338   2.355   5.004
    1STR   O299  344  13.497   2.272   4.899
    1STR   C300  345  13.603   2.309   4.986
    1STR   H301  346  13.616   2.417   4.987
    1STR   C302  347  13.574   2.259   5.129
    1STR   H303  348  13.559   2.151   5.130
    1STR   H304  349  13.485   2.305   5.171
    1STR   H305  350  13.657   2.282   5.195
    1STR   C306  351  13.731   2.246   4.930
    1STR   H307  352  13.723   2.137   4.930
    1STR   H308  353  13.742   2.276   4.826
    1STR   O309  354  13.843   2.289   5.007
    1STR    H1R  355  13.960   2.133   4.936
    1STR    H1S  356  14.117   2.285   4.810
    1STR    H1T  357  14.031   2.426   4.871
    1STR    H1U  358  13.952   2.315   4.758
    1STR    H1V  359  14.019   2.196   5.170
    1STR    H1W  360  14.075   2.352   5.117
    1STR    H1X  361  14.377   2.085   5.023
    1STR    H1Y  362  14.590   2.002   4.971
    1STR    H1Z  363  14.823   2.043   4.907
    1STR    H20  364  14.956   2.359   4.786
    1STR    H21  365  15.016   2.290   4.938
    1STR    H22  366  14.981   2.186   4.800
    1STR    H23  367  14.678   2.563   4.883
    1STR    H27  368  14.520   2.427   4.980
    1STR    H28  369   2.487   3.617   2.111
    1STR    H29  370   2.247   3.608   2.086
    1STR    H2A  371   2.006   3.828   2.244
    1STR    H2B  372   2.033   3.676   2.161
    1STR    H2C  373   2.021   3.824   2.067
  15.01498   4.10153   5.19744
